[ defaults ]
; nbfunc        comb-rule       gen-pairs       fudgeLJ fudgeQQ
1             2               no              0.5     0.833

[ atomtypes ]
; name       at.num mass     charge  ptype sigma      epsilon
Sib	14	28.0855	1.10	A	0.415	0.3891
Ob	8	15.999	-0.55	A	0.347	0.2259
Od	8	15.999	-0.90	A	0.347	0.5104
Oy	8	15.999	-0.675	A	0.347	0.5104
Hy	1	1.00784	0.4	A	0.1085	0.0628
Sid	14	28.0855	0.725	A	0.415	0.3891
Sim	14	28.0855	0.911	A	0.415	0.3891
Cm	6	12.011	-0.35	A	0.3581	0.2761
Hm	1	1.00784	0.088	A	0.2373	0.1184
Na	11	22.990	1.0	A	0.231	0.4498
Cl	17	35.450	-1.0	A	0.43	0.4201
OW	8	15.999	0.0	A	0.3165	0.7732
HW	1	1.00784	0.527 	A	0.0	0.0
MW	0	0.000	-1.054	D	0.0	0.0
Ch	6	12.011	-0.18	A	0.35	0.2761
Hcc	1	1.00784	0.06	A	0.25	0.1255
Ho	1	1.00784	0.4180	A	0.0	0.0
Co	6	12.011	0.145	A	0.35	0.2761
Oh	8	15.999	-0.6830	A	0.312	0.7113
Hco	1	1.00784	0.06	A	0.25	0.1255
