Water-ethanol mixture in organosilica
16014
    1Sil     Ob    1   0.165   2.646   0.333 -0.4792 -0.0671  0.7376
    1Sil     Ob    2   0.708   1.227  -0.205  0.1499  0.2762  0.1644
    1Sil     Ob    3   0.510   1.913  -0.587  0.3531  0.5757 -0.0981
    1Sil     Ob    4   0.071   0.952  -0.107 -0.0245 -0.2719 -0.7215
    1Sil     Ob    5   0.930   2.471  -0.015  0.2147 -0.1465 -0.0757
    1Sil     Ob    6  -0.557   2.559   0.798 -0.5236  0.7154  0.5142
    1Sil     Ob    7  -0.375   1.135   0.398 -0.7462  0.0225 -0.6534
    1Sil     Ob    8   0.108   1.437  -0.342  0.0358 -0.3843 -0.1313
    1Sil     Ob    9   1.075   2.445   0.192 -0.0818  0.3850  0.5853
    1Sil     Ob   10   0.911   2.070  -0.398  0.0880 -0.2442  0.2960
    1Sil     Ob   11   0.211   0.855  -1.022 -0.5228  0.3362 -0.3144
    1Sil     Ob   12   0.457   1.694   0.752  0.6853  0.1703  0.0919
    1Sil     Ob   13   1.177   0.863   0.031  0.0717  0.0980 -0.4603
    1Sil     Ob   14  -0.702   0.674  -0.059  0.3481  0.1956  0.6840
    1Sil     Ob   15  -0.528   1.974  -0.493  0.2666 -0.0979  0.3470
    1Sil     Ob   16   0.637   0.902   0.760  0.8205 -0.1495  0.5033
    1Sil     Ob   17   1.088   1.073  -0.542  0.2848 -0.1342  0.0382
    1Sil     Ob   18   0.314   2.395  -0.198  0.0812 -0.0319 -0.2094
    1Sil     Ob   19   1.113   1.087   0.721  0.1745 -0.2216  0.0842
    1Sil     Ob   20   0.803   1.518  -0.604  0.7470 -0.1361 -0.5529
    1Sil     Ob   21   1.340   0.877   0.401  0.4226  0.1384  0.1796
    1Sil     Ob   22   1.008   0.867   0.562 -0.0710 -0.8941  0.0706
    1Sil     Ob   23  -0.463   1.002  -0.098  0.3581  0.3514  0.0759
    1Sil     Ob   24   0.347   1.729  -0.630 -0.1567 -0.4177  0.7798
    1Sil     Ob   25   0.333   0.881  -0.536  0.0874  0.3401 -0.4737
    1Sil     Ob   26   0.542   1.556  -0.620 -0.5892  0.6103 -0.0920
    1Sil     Ob   27   0.162   0.889  -0.766 -0.0961  0.0976  0.0116
    1Sil     Ob   28  -0.739   2.376   0.312  0.0980 -0.0160 -0.1653
    1Sil     Ob   29  -0.379   2.116   0.405 -0.5091  0.2423  1.1422
    1Sil     Ob   30   0.692   1.742  -0.708  0.3235 -0.3190 -0.4049
    1Sil     Ob   31   1.227   1.289  -0.497 -0.4309 -0.3348 -0.5426
    1Sil     Ob   32  -0.478   2.330   0.140 -0.2983 -0.0319  0.0021
    1Sil     Ob   33   0.966   1.305  -0.524  0.1164  0.0656  0.1874
    1Sil     Ob   34   0.980   2.338  -0.816  0.3644  0.3159  0.0828
    1Sil     Ob   35  -0.205   2.578  -0.819  0.1661  0.1421  0.1550
    1Sil     Ob   36  -0.767   2.663  -0.852 -0.7646  0.2902 -0.2412
    1Sil     Ob   37  -0.650   1.149   0.021  0.2789  0.2379 -0.2142
    1Sil     Ob   38   0.712   2.332   0.211 -0.1440 -0.0128 -0.5095
    1Sil     Ob   39   0.740   1.185   0.396  0.2768  0.2886 -0.5813
    1Sil     Ob   40   1.156   1.290   0.006  0.1869  0.0537  0.2087
    1Sil     Ob   41   0.068   2.114   0.217 -0.5665 -0.0237 -0.0096
    1Sil     Ob   42  -0.132   0.802  -0.217 -0.1651  0.3119  1.4070
    1Sil     Ob   43   0.331   1.086   0.521  0.2504 -0.5939 -0.1354
    1Sil     Ob   44   0.692   1.942  -0.915  0.5125  0.2168 -0.5613
    1Sil     Ob   45   0.154   1.462   0.374  0.1278  0.5063  0.5175
    1Sil     Ob   46  -0.744   1.083   0.876  0.3871  0.9224  0.0117
    1Sil     Ob   47   0.568   1.245   0.891 -0.0084 -0.3016  0.2100
    1Sil     Ob   48  -0.766   2.106   0.871  0.1967 -0.7927 -0.2893
    1Sil     Ob   49  -0.149   2.273  -0.399  0.0478  0.0205  0.7325
    1Sil     Ob   50   0.896   1.685   0.794 -0.0250  1.0818 -0.0450
    1Sil     Ob   51  -0.169   2.069   0.268  0.1022 -0.6018 -0.5403
    1Sil     Ob   52   0.123   2.532  -0.100 -0.6618  0.0584 -0.2405
    1Sil     Ob   53   0.165   1.933   0.865 -0.0643  0.4840 -0.0709
    1Sil     Ob   54   0.297   2.389   0.675  0.1651  0.1895 -0.6328
    1Sil     Ob   55  -0.591   2.249   0.462  0.4329  0.6324 -0.2883
    1Sil     Ob   56   0.687   1.748  -0.213  0.2730  0.1329 -0.7175
    1Sil     Ob   57   0.502   0.934  -0.716  0.0299  0.2901 -0.1990
    1Sil     Ob   58   0.660   1.561   0.662  0.4480  0.0895  0.0678
    1Sil     Ob   59  -0.453   1.770  -0.639 -0.1556 -0.1891  0.2384
    1Sil     Ob   60   0.055   2.141  -0.529 -0.5716  0.5721  0.7590
    1Sil     Ob   61  -0.469   2.092   0.048  0.2730 -0.1037  0.1386
    1Sil     Ob   62   1.178   1.682  -0.296 -0.0650  0.4190  0.6414
    1Sil     Ob   63  -0.564   2.088   0.717  0.1483 -0.3718 -0.8437
    1Sil     Ob   64   1.067   2.365   0.723  0.2994  0.7155 -0.1693
    1Sil     Ob   65   0.967   1.186  -0.070 -0.6824  0.1226  0.5472
    1Sil     Ob   66   0.738   1.931  -0.475  0.3967  0.0601  0.0180
    1Sil     Ob   67   1.027   1.973   0.349  0.4644  0.4866  0.3150
    1Sil     Ob   68   0.991   2.100  -0.146 -0.2487 -0.6540  0.4098
    1Sil     Ob   69   0.896   2.110  -0.721 -0.0274  0.8878  0.1192
    1Sil     Ob   70   0.631   2.140  -0.578 -0.2301  0.2342 -0.1185
    1Sil     Ob   71   0.579   1.666   0.270  0.0083  0.3131  0.8008
    1Sil     Ob   72   0.171   1.703   0.456  0.1115 -0.0119 -0.0975
    1Sil     Ob   73   0.890   1.866  -0.066 -0.4296 -0.7691 -0.0187
    1Sil     Ob   74  -0.124   1.172  -0.498  0.5145 -0.3631  0.1463
    1Sil     Ob   75   0.594   2.156   0.335  0.4795  0.4855  0.3185
    1Sil     Ob   76  -0.660   0.888  -0.182 -0.3499 -0.1874  0.7616
    1Sil     Ob   77   0.846   2.146   0.328  0.4578  0.2993  0.1603
    1Sil     Ob   78  -0.454   1.936  -0.959 -0.2151 -0.1229  0.4823
    1Sil     Ob   79   0.583   2.147  -1.027  0.3843  0.4299  0.3109
    1Sil     Ob   80  -0.340   1.357   0.242 -0.1502  0.1368  0.1980
    1Sil     Ob   81  -0.190   1.117  -0.750  0.1271 -0.3475  0.4664
    1Sil     Ob   82   0.512   2.010   0.130 -0.4813 -0.5061  0.1254
    1Sil     Ob   83   0.311   1.916  -0.253 -0.2280 -0.8587 -0.2621
    1Sil     Ob   84   1.065   2.005   0.093 -0.0558  0.4162 -0.2257
    1Sil     Ob   85   0.506   2.444   0.536  0.2658  0.4324  0.3851
    1Sil     Ob   86   1.003   1.580   0.289 -0.1855  0.1086  0.1684
    1Sil     Ob   87  -0.624   2.319   0.762 -0.1856 -0.1893  0.4891
    1Sil     Ob   88  -0.497   2.439   0.353 -0.0495 -0.0257  0.3703
    1Sil     Ob   89  -0.157   2.253   0.464  0.6629 -0.3992 -0.1793
    1Sil     Ob   90   0.950   0.781   0.034 -0.0938 -0.1721 -0.0711
    1Sil     Ob   91   0.149   1.321  -0.552  0.5949 -0.1797 -0.3348
    1Sil     Ob   92   0.813   0.873   0.947  0.1995  0.9128 -0.0132
    1Sil     Ob   93  -0.061   1.266  -0.244 -0.1506 -0.4998 -0.6005
    1Sil     Ob   94   1.186   1.229  -0.253 -0.6136  0.7374  0.0668
    1Sil     Ob   95  -0.794   2.200   0.627  0.4233 -0.4048 -0.1780
    1Sil     Ob   96   0.994   2.492   0.926 -0.4885 -0.1934  0.6180
    1Sil     Ob   97   0.481   1.245   0.047 -0.1855  0.1948  0.4227
    1Sil     Ob   98   0.451   1.716  -0.335  0.5908 -0.0041  0.3586
    1Sil     Ob   99  -0.614   1.913  -0.068  0.1607 -0.2786 -1.1091
    1Sil     Ob  100   0.605   2.355   0.949  0.6255  0.0463 -0.0115
    1Sil     Ob  101   0.143   2.348  -0.979 -0.0176  0.0854 -0.0935
    1Sil     Ob  102  -0.686   1.947  -0.847 -0.1882  0.6590 -0.2462
    1Sil     Ob  103  -0.486   1.561  -0.500  0.1427 -0.7687 -0.2106
    1Sil     Ob  104   0.772   1.687  -0.957 -0.0705 -0.1759 -0.4542
    1Sil     Ob  105   0.226   1.800  -1.027 -0.3781 -0.3010  0.1378
    1Sil     Ob  106   0.087   0.753   0.831 -0.1714 -0.2761 -0.0358
    1Sil     Ob  107   0.924   0.808  -0.964 -0.3156  0.8384  0.9314
    1Sil     Ob  108   0.110   1.327  -0.804 -0.0039  0.1461  0.8087
    1Sil     Ob  109  -0.541   2.405  -1.031  0.0732  0.0696  0.0825
    1Sil     Ob  110   0.667   1.672  -0.450  0.1783  0.4254  0.3048
    1Sil     Ob  111   0.003   1.233   0.615 -0.4498 -0.0969 -0.8995
    1Sil     Ob  112   0.951   1.188   0.204  0.1193 -0.4618  0.6850
    1Sil     Ob  113   0.412   1.864  -0.836  0.3224  0.4330  0.3847
    1Sil     Ob  114  -0.580   2.122   0.249  0.0083  0.6334 -0.0885
    1Sil     Ob  115   0.723   2.561   0.906  0.2581  0.0301  0.4964
    1Sil     Ob  116   0.956   1.558   0.042  0.2101  0.1870  0.1600
    1Sil     Ob  117  -0.166   0.800   0.768  0.2533  0.2305 -0.1313
    1Sil     Ob  118   0.848   2.282  -0.279  0.7460 -0.1173 -0.3319
    1Sil     Ob  119  -0.608   2.588   0.064 -0.0465  0.0262  0.4436
    1Sil     Ob  120  -0.694   1.385   0.146 -0.1511 -0.3688  0.0815
    1Sil     Ob  121  -0.373   2.534   0.165  0.0889  0.7988  0.2831
    1Sil     Ob  122  -0.117   2.410  -1.028 -0.2927 -0.4180  0.0149
    1Sil     Ob  123   0.125   2.320  -0.359  0.1433 -0.7999 -0.0026
    1Sil     Ob  124   1.153   2.347  -0.056  0.9669  0.6788  0.4805
    1Sil     Ob  125  -0.272   1.925  -0.595  0.3943 -0.4005  0.4226
    1Sil     Ob  126   0.788   2.682  -0.003 -0.0853 -0.7309 -0.3249
    1Sil     Ob  127   0.871   2.467  -0.442  0.0360 -0.1905 -0.8036
    1Sil     Ob  128  -0.553   2.541  -0.825  0.5149 -0.2542 -0.0232
    1Sil     Ob  129   0.586   1.497   0.060 -0.3497  0.2406  0.9625
    1Sil     Ob  130   1.101   1.863   0.677  0.0529 -0.7445  0.2496
    1Sil     Ob  131  -0.752   2.424   0.928 -0.4827 -0.2129  0.0225
    1Sil     Ob  132   1.001   1.563  -0.914 -0.1656  0.8363 -0.2199
    1Sil     Ob  133  -0.643   0.854  -0.881  0.3753  0.0761 -0.1032
    1Sil     Ob  134   0.118   0.764  -0.545  0.4491  0.0316 -0.0936
    1Sil     Ob  135   0.892   1.868  -0.817  0.3996 -0.6799 -0.3685
    1Sil     Ob  136   0.094   1.023   0.467 -0.1964 -0.1312 -0.0011
    1Sil     Ob  137   0.470   2.588   0.980 -0.5835 -0.2342  0.9593
    1Sil     Ob  138   0.499   1.350   0.669  0.2101  0.4233 -0.4687
    1Sil     Ob  139   0.702   2.144   0.828  0.4541 -0.5452 -0.5869
    1Sil     Ob  140   1.249   1.893   0.259  0.1562  0.6806 -0.4416
    1Sil     Ob  141   1.182   0.628   0.514  0.1404  0.2456 -0.0296
    1Sil     Ob  142  -0.460   0.598  -0.511 -0.2507 -0.3647  0.3349
    1Sil     Ob  143   0.230   1.253   0.081  0.1763  0.2523  0.0372
    1Sil     Ob  144  -0.116   1.026  -0.294 -0.0529 -0.2436 -0.5457
    1Sil     Ob  145  -0.556   1.359   0.610 -0.2627  0.6458 -0.7510
    1Sil     Ob  146   1.000   1.558  -0.443 -0.0248 -0.1223  0.1758
    1Sil     Ob  147   0.319   1.030   0.000  0.4528  0.1131  0.0849
    1Sil     Ob  148  -0.734   1.451  -0.332 -0.1135 -0.5088 -0.0486
    1Sil     Ob  149  -0.469   0.832  -0.590 -0.3677  0.3554  0.4430
    1Sil     Ob  150   0.691   1.911   0.931 -0.1102  0.2925  0.4222
    1Sil     Ob  151   0.255   0.795   0.519 -0.1030  0.4056 -0.0826
    1Sil     Ob  152   1.107   0.814  -0.480 -0.1712 -0.3376 -0.4137
    1Sil     Ob  153   0.059   2.565   0.133  0.6368 -0.1148 -0.9327
    1Sil     Ob  154   1.070   1.245  -0.730 -0.0706 -0.1473 -0.6557
    1Sil     Ob  155   0.394   2.608   0.728 -0.5127  0.2781 -0.4074
    1Sil     Ob  156   0.798   1.393  -0.386  0.2445 -0.2988 -0.3660
    1Sil     Ob  157  -0.742   1.880  -0.589  0.3016  0.7555  0.4852
    1Sil     Ob  158  -0.330   0.901   0.128 -0.5146 -0.2827  0.0745
    1Sil     Ob  159   0.604   1.020  -0.043 -0.5917  0.0798 -0.7880
    1Sil     Ob  160  -0.579   1.251  -0.330 -0.6503 -0.4692  0.1801
    1Sil     Ob  161  -0.089   1.483  -0.735  0.1262 -0.7114 -0.0240
    1Sil     Ob  162  -0.328   1.689  -0.342  0.7700 -0.2651 -0.1512
    1Sil     Ob  163   0.056   1.400   0.146 -0.2198 -0.1612  0.7557
    1Sil     Ob  164  -0.121   2.073  -0.102  0.7634  0.3065 -0.2633
    1Sil     Ob  165  -0.115   1.477   0.293  0.4474 -0.9127  0.7621
    1Sil     Ob  166   0.637   2.386  -0.382  0.1234 -0.1144 -0.8566
    1Sil     Ob  167   0.547   2.378  -0.617  0.1462  0.2392 -0.1247
    1Sil     Ob  168  -0.230   1.915  -0.269  0.0801 -0.5984 -0.9745
    1Sil     Ob  169   1.012   2.171   0.529 -0.7832 -0.2708 -0.0176
    1Sil     Ob  170   0.997   1.552   0.530 -0.0059 -0.1752 -0.2798
    1Sil     Ob  171   0.928   1.337   0.599 -0.4803 -0.0883 -0.5671
    1Sil     Ob  172  -0.355   1.952  -0.081  0.6495  0.6119  0.3760
    1Sil     Ob  173   0.801   1.460  -0.143  0.2856 -0.1610  0.2333
    1Sil     Ob  174   0.567   1.024   1.007  0.3008 -0.1964 -0.2401
    1Sil     Ob  175  -0.541   0.812   0.210 -0.0984 -0.3558  0.2195
    1Sil     Ob  176   0.368   2.504   0.276  0.0345  0.1352  0.5119
    1Sil     Ob  177   0.544   1.759   0.507 -0.5111  0.1134 -0.6086
    1Sil     Ob  178  -0.732   1.510  -0.847 -0.6401 -0.2479 -0.6627
    1Sil     Ob  179   0.886   0.616   0.964 -0.1626 -0.2347  0.7222
    1Sil     Ob  180  -0.347   0.889   0.500  0.6450 -0.1677  0.1269
    1Sil     Ob  181   0.755   1.292   0.057  0.6598 -0.0053  0.2561
    1Sil     Ob  182   0.248   2.292   0.153  0.2924 -0.0026  0.1416
    1Sil     Ob  183   0.443   1.708   0.072 -0.3697 -0.1338 -0.0028
    1Sil     Ob  184   0.695   1.230   0.666  0.1619  0.4102 -0.3031
    1Sil     Ob  185   0.363   1.313  -0.965 -0.0236 -0.5396  0.3875
    1Sil     Ob  186   1.085   2.218   0.290 -0.2189 -0.7676  0.0056
    1Sil     Ob  187  -0.286   2.595   0.780  0.3483  0.0046 -0.5921
    1Sil     Ob  188   0.800   1.698   0.410 -0.2438  0.4357  0.4218
    1Sil     Ob  189   0.510   0.765   0.562 -0.3495  0.2886 -0.7476
    1Sil     Ob  190  -0.487   1.090  -0.630  0.3782 -0.2018  0.2886
    1Sil     Ob  191   0.821   1.438   0.355 -0.4163  0.0318  0.2943
    1Sil     Ob  192   0.325   2.174  -0.336 -0.3039  0.4796 -0.0487
    1Sil     Ob  193  -0.719   1.924  -0.315  0.2381 -0.7628 -0.5657
    1Sil     Ob  194   0.270   1.510   0.055  0.3914 -0.1145  0.1452
    1Sil     Ob  195   1.118   2.288  -0.608  0.1342  0.2615 -0.2859
    1Sil     Ob  196   0.045   0.992  -0.934  0.1907  0.0694 -0.0711
    1Sil     Ob  197   0.043   1.850   0.638 -0.1311  0.5956 -0.0960
    1Sil     Ob  198  -0.099   1.908   0.838  0.0162  0.2084 -0.3904
    1Sil     Ob  199   0.000   2.092   0.705  0.1796 -0.2104 -0.3466
    1Sil     Ob  200  -0.562   1.604   0.092 -0.3181  0.0059  0.8917
    1Sil     Ob  201   0.580   1.199  -0.984 -0.6135  0.3199  0.3186
    1Sil     Ob  202   0.808   1.408   0.806 -0.0523 -0.4152  0.6100
    1Sil     Ob  203   0.680   0.749  -0.434  0.3000 -0.2235  0.1397
    1Sil     Ob  204   0.527   2.025  -0.353 -0.0865  0.6672  0.7782
    1Sil     Ob  205  -0.752   2.108  -0.507  0.3349  0.6700  0.7321
    1Sil     Ob  206   1.207   1.616   0.143  0.8399 -0.1405  0.2623
    1Sil     Ob  207   0.970   1.921  -0.585 -0.6577  0.1771  0.1263
    1Sil     Ob  208  -0.087   1.501  -0.172 -0.3779  0.4069 -0.0009
    1Sil     Ob  209   0.338   2.510   0.023  0.2605 -0.4408 -0.2719
    1Sil     Ob  210  -0.642   1.866   0.744  0.1289  0.1370  0.2503
    1Sil     Ob  211  -0.223   1.701  -0.121 -0.0886 -0.6239  0.3271
    1Sil     Ob  212   1.013   2.532  -0.653  0.0467  0.4952 -0.8823
    1Sil     Ob  213   0.662   2.360   0.705 -0.7096  0.1439  0.3460
    1Sil     Ob  214  -0.058   1.739  -0.311 -0.0736  0.3492  0.2384
    1Sil     Ob  215  -0.398   1.445  -0.283  0.1745  0.0748  0.1457
    1Sil     Ob  216  -0.347   1.617   0.246 -0.0889 -0.0801 -0.0021
    1Sil     Ob  217   0.727   2.291  -0.767 -0.1566  0.4583  0.8175
    1Sil     Ob  218   1.153   1.914  -0.128  0.4022  0.6523 -0.3764
    1Sil     Ob  219  -0.356   0.719   0.314  0.2380  0.5125 -0.5759
    1Sil     Ob  220  -0.602   1.980   0.443  0.2075 -0.1116  0.2796
    1Sil     Ob  221  -0.293   1.086   0.672 -0.6489 -0.2621 -0.6059
    1Sil     Ob  222   0.328   1.055  -0.926 -0.7883 -0.6648 -0.2657
    1Sil     Ob  223   0.584   0.684  -0.663  0.4548 -0.6873  0.6889
    1Sil     Ob  224   1.220   2.450  -0.775 -0.1147  0.3577  1.0424
    1Sil     Ob  225   1.160   2.598   0.017 -0.0971  0.1519 -0.7924
    1Sil     Ob  226  -0.234   0.669   0.965 -0.3438 -0.3666  0.2925
    1Sil     Ob  227  -0.446   1.837   0.125  0.4759  0.0838  0.2405
    1Sil     Ob  228  -0.686   0.977  -0.511  0.3054 -0.2808  0.1042
    1Sil     Ob  229   1.040   1.122   0.455  0.1356  0.2061 -0.0558
    1Sil     Ob  230   0.123   2.128  -0.032 -0.4186 -0.0288  0.0114
    1Sil     Ob  231  -0.561   1.312  -0.758 -0.5141 -0.0372 -0.5680
    1Sil     Ob  232  -0.729   0.666   0.198 -0.6521  0.4039 -0.0910
    1Sil     Ob  233   0.724   2.321   0.469  0.5998  0.1415 -0.0663
    1Sil     Ob  234   0.708   0.931   0.499  0.6044 -0.5812  0.3942
    1Sil     Ob  235  -0.724   0.659   0.816 -0.2565  0.1414 -0.2340
    1Sil     Ob  236   0.430   0.702  -0.864 -0.0178  0.3445 -0.2454
    1Sil     Ob  237  -0.627   2.534  -0.364  0.2381 -0.7101  0.2378
    1Sil     Ob  238  -0.477   1.544  -0.765 -0.0411 -0.2381  0.4911
    1Sil     Ob  239  -0.300   0.927   0.893  0.2067 -0.3148  0.0335
    1Sil     Ob  240   0.293   0.921   0.741  0.2031 -0.5091 -0.1385
    1Sil     Ob  241  -0.482   0.983  -0.363 -0.5818  0.5026  0.1306
    1Sil     Ob  242   0.014   2.338   0.046  0.0804  0.0789 -0.2152
    1Sil     Ob  243  -0.448   0.721   0.792 -0.3768  0.0764  0.2514
    1Sil     Ob  244  -0.391   0.666   0.070 -0.2942  0.6321 -0.0910
    1Sil     Ob  245   0.688   1.738   0.047  0.1764 -0.0708 -0.0651
    1Sil     Ob  246   0.656   1.956  -0.082 -0.0913  0.4532 -0.5234
    1Sil     Ob  247   0.254   1.188   0.743 -0.0424  0.5373 -0.2589
    1Sil     Ob  248   0.611   1.339   0.239  0.3825  0.6805 -0.6652
    1Sil     Ob  249   1.019   1.787   0.179  0.3320  0.5405 -0.1496
    1Sil     Ob  250  -0.679   2.229   0.047  0.4829 -0.1808  0.0245
    1Sil     Ob  251   0.331   0.688   0.884  0.1224  0.2890 -0.0751
    1Sil     Ob  252  -0.455   1.148   0.140  0.1081  1.3450 -0.3507
    1Sil     Ob  253  -0.456   1.261  -0.106 -0.0433  0.9148  0.1443
    1Sil     Ob  254  -0.393   2.559  -0.084  0.1902  0.2068 -0.7002
    1Sil     Ob  255  -0.254   2.392  -0.205  0.1038 -0.3135  0.0681
    1Sil     Ob  256   0.669   2.452  -0.006  0.1613 -0.5652 -0.0934
    1Sil     Ob  257   0.782   2.526  -0.215 -0.5860 -0.8729 -0.0456
    1Sil     Ob  258   0.677   0.795  -0.875 -0.1303  0.2750 -0.2293
    1Sil     Ob  259  -0.132   2.549  -0.035  0.0956  0.3215 -0.3183
    1Sil     Ob  260  -0.679   2.512   0.509 -0.1229  0.0189  0.0228
    1Sil     Ob  261   0.974   1.633  -0.195 -0.1800 -0.6553 -0.0077
    1Sil     Ob  262  -0.727   1.513  -0.083  0.2162  0.3588  0.5205
    1Sil     Ob  263   0.938   1.063  -0.887 -0.3639 -0.3161 -0.0378
    1Sil     Ob  264   0.641   0.976   0.230 -0.2254  0.2082 -0.6044
    1Sil     Ob  265   0.892   1.118   0.686 -0.2957 -0.4723 -0.6698
    1Sil     Ob  266  -0.570   1.740   0.323 -0.2577 -0.1051 -0.7523
    1Sil     Ob  267  -0.713   2.334  -0.434 -0.0292 -0.2462 -0.3344
    1Sil     Ob  268  -0.194   2.487   0.550  0.2027 -0.0837 -0.3396
    1Sil     Ob  269   0.408   0.891   0.368 -0.3212 -0.0516 -0.0989
    1Sil     Ob  270   0.809   1.047   0.056  0.3579  0.0191 -0.2270
    1Sil     Ob  271   0.575   2.606  -0.476 -0.5080  0.1683  0.3068
    1Sil     Ob  272  -0.153   1.063   0.471 -0.1224  0.3434 -0.2328
    1Sil     Ob  273  -0.158   0.788   0.388  0.2656  0.4867  0.4906
    1Sil     Ob  274   1.085   1.455   0.763  0.1460  0.4240  0.2922
    1Sil     Ob  275  -0.174   0.983  -0.042  0.0745  0.0533  0.0490
    1Sil     Ob  276  -0.128   1.312  -0.927 -0.2594  0.3873  0.1258
    1Sil     Ob  277  -0.693   2.627  -0.611  0.2378  0.1397  0.0305
    1Sil     Ob  278   1.263   1.496   0.921 -0.1527  0.0401  0.3045
    1Sil     Ob  279  -0.793   1.690   0.752 -1.2575 -0.5158  0.4553
    1Sil     Ob  280   0.192   1.968   0.491  0.3508 -0.0030  0.0371
    1Sil     Ob  281   0.390   2.314  -0.991  0.1087 -0.2053  0.0849
    1Sil     Ob  282   0.576   1.406  -0.857 -0.1706  0.1728  0.3293
    1Sil     Ob  283   0.726   2.567   0.546  0.0953 -0.0279  0.5247
    1Sil     Ob  284  -0.219   1.686   0.765 -0.0422  0.7483  0.1857
    1Sil     Ob  285  -0.544   2.166  -0.921  0.5718  0.4353  0.1537
    1Sil     Ob  286  -0.031   1.667   0.012 -0.4779  0.6644  0.1918
    1Sil     Ob  287   1.018   0.977   0.224  0.3532 -0.1335 -0.0971
    1Sil     Ob  288   0.297   2.545  -0.858  0.2206 -0.1758  0.2628
    1Sil     Ob  289   1.058   0.747   0.288  0.0609  0.1741 -0.0601
    1Sil     Ob  290   0.348   2.662  -0.173 -0.4467  0.3371 -0.4568
    1Sil     Ob  291  -0.439   2.345   0.940  0.1364  0.2311 -0.0224
    1Sil     Ob  292   1.164   1.736  -0.798 -0.5355 -0.2500  0.0879
    1Sil     Ob  293   0.604   1.502  -0.267  0.0693  0.2467  0.1004
    1Sil     Ob  294  -0.014   1.635  -0.524  0.0450  0.2595  0.5309
    1Sil     Ob  295   0.298   0.679  -0.392 -0.2690 -0.4245 -0.0223
    1Sil     Ob  296   0.287   0.808  -0.146  0.3185  0.0145  0.3754
    1Sil     Ob  297   0.439   1.078  -0.476  0.0704  0.2425 -0.2494
    1Sil     Ob  298  -0.254   2.663  -0.257 -0.4423  0.1166  0.2030
    1Sil     Ob  299  -0.280   2.312   0.262 -0.3118 -0.6575 -0.0666
    1Sil     Ob  300   0.399   2.005   0.372  0.3514  0.1426  0.2494
    1Sil     Ob  301   0.049   1.897  -0.100 -0.4083 -0.0787 -0.1617
    1Sil     Ob  302   0.265   1.030  -0.268  0.0778 -0.0431  0.4515
    1Sil     Ob  303   0.894   2.632   0.714 -0.2072  0.2502 -1.0495
    1Sil     Ob  304   1.042   1.416  -0.153  0.4823 -0.3433  0.6626
    1Sil     Ob  305   1.057   0.766   0.859 -0.1587  0.7380 -0.2281
    1Sil     Ob  306   0.314   1.275  -0.358 -0.0677 -0.2648 -0.3495
    1Sil     Ob  307  -0.749   1.785   0.510  0.3629  0.2493  0.4067
    1Sil     Ob  308  -0.215   1.109   0.181 -0.2665 -0.0967 -0.0961
    1Sil     Ob  309   0.037   2.101  -0.282 -0.4675 -0.1307 -0.1896
    1Sil     Ob  310   1.173   1.267   0.913  0.1418 -0.1063  0.3272
    1Sil     Ob  311   0.670   0.967  -0.288  0.2268 -0.8276 -0.8828
    1Sil     Ob  312   0.016   0.829   0.593  0.6786  0.1821  0.5314
    1Sil     Ob  313  -0.225   1.507   0.054  1.0409  0.4130 -0.4139
    1Sil     Ob  314  -0.619   0.640   0.393 -0.9023  0.2638  0.2861
    1Sil     Ob  315  -0.240   1.937  -0.844  0.0237 -0.4288 -0.1252
    1Sil     Ob  316   0.600   1.935   0.700  0.1218  0.1605 -0.5983
    1Sil     Ob  317   0.128   1.497   0.618  0.3888 -0.1330 -0.1705
    1Sil     Ob  318  -0.269   1.578  -0.594 -0.1036 -0.1918 -0.7099
    1Sil     Ob  319   0.352   1.132   0.256 -0.5422 -0.5005  0.1086
    1Sil     Ob  320   0.095   1.331   0.838 -0.0412  0.6924  0.6219
    1Sil     Ob  321   1.061   2.231   0.948 -0.3887 -0.2723 -0.4683
    1Sil     Ob  322   0.851   1.938   0.728  0.3216  0.0744  0.2290
    1Sil     Ob  323  -0.389   1.178  -0.882 -0.3809  0.6572  0.3133
    1Sil     Ob  324   0.351   2.052  -0.995 -0.0992 -0.2267 -0.5406
    1Sil     Ob  325  -0.138   1.743  -0.719 -0.7984  0.1676  0.2710
    1Sil     Ob  326   0.043   1.557  -0.963  0.5385 -0.0592  0.2180
    1Sil     Ob  327  -0.314   1.196  -0.313  0.3553 -0.0242 -0.9038
    1Sil     Ob  328   0.671   1.649   0.927 -0.4368 -0.0134  0.0376
    1Sil     Ob  329   0.067   0.801   0.355  0.5016 -0.5989  0.2042
    1Sil     Ob  330   0.051   1.901  -0.473  0.1905  0.0196  0.5983
    1Sil     Ob  331  -0.365   1.911   0.766  0.3164  0.1775 -0.2934
    1Sil     Ob  332   0.302   1.676  -0.134 -0.0155 -0.6197  0.5393
    1Sil     Ob  333  -0.105   1.461   0.710  0.1854  0.5673 -0.1150
    1Sil     Ob  334   1.101   2.387   0.461  0.0645 -0.8502  0.1538
    1Sil     Ob  335   1.205   1.176   0.227  0.3517  0.6707  0.1597
    1Sil     Ob  336   0.042   1.133  -0.682 -0.3733  0.3839 -0.5570
    1Sil     Ob  337  -0.023   1.973  -0.689 -0.8822 -0.0254 -0.1168
    1Sil     Ob  338   0.752   0.706   0.651 -0.5007 -0.0201  0.1312
    1Sil     Ob  339   1.133   0.742  -0.229  0.0802  0.0220 -0.3622
    1Sil     Ob  340   0.379   2.424  -0.432  0.1806 -0.0638  0.2263
    1Sil     Ob  341   0.294   2.553   0.500  0.1519  0.0833 -0.5289
    1Sil     Ob  342   0.240   1.690   0.906  0.2982  0.0750  0.0606
    1Sil     Ob  343   0.387   1.539   0.521  0.5980 -0.0348  0.8928
    1Sil     Ob  344   0.451   2.086  -0.111  0.1176 -0.0457 -0.0088
    1Sil     Ob  345   0.248   1.981  -0.640 -0.2279 -0.1303  0.7940
    1Sil     Ob  346  -0.405   0.777  -0.221  0.2646 -0.0950  0.6669
    1Sil     Ob  347  -0.330   2.337  -0.910  0.5153 -0.4444  0.1034
    1Sil     Ob  348  -0.639   2.351  -0.186 -0.4015 -0.0315 -0.0329
    1Sil     Ob  349  -0.576   1.630  -0.261 -0.0666 -0.4021  0.2975
    1Sil     Ob  350   1.114   1.975  -0.769  0.4228 -0.4196  0.0001
    1Sil     Ob  351   0.486   1.137  -0.240 -0.0152 -0.0199  0.6670
    1Sil     Ob  352   0.590   1.387   0.466 -0.3154  0.6944 -0.0089
    1Sil     Ob  353  -0.266   0.738  -0.440 -0.1073  0.0206 -0.6705
    1Sil     Ob  354  -0.006   2.459   0.375 -0.3067  0.8515 -0.7849
    1Sil     Ob  355   1.101   2.236  -0.349  0.4311 -0.5123 -0.5925
    1Sil     Ob  356  -0.438   2.345  -0.382  0.0322 -0.0981  0.0352
    1Sil     Ob  357   0.190   1.759   0.077 -0.1542  0.2108  0.5716
    1Sil     Ob  358   0.337   1.215   0.979  0.0038 -0.1540 -0.2612
    1Sil     Ob  359  -0.192   1.041  -1.006 -0.7157 -0.5817 -0.9316
    1Sil     Ob  360   0.313   2.161   0.580  0.2696  0.6755 -0.7544
    1Sil     Ob  361  -0.580   1.574   0.767  0.0404 -0.1695 -0.6949
    1Sil     Ob  362  -0.092   0.865   0.163 -0.3248 -0.2688  0.1472
    1Sil     Ob  363  -0.750   2.130  -0.168 -0.0730  0.1159  0.3482
    1Sil     Ob  364   0.306   1.445   0.814 -0.0813  0.0159 -0.2286
    1Sil     Ob  365  -0.301   0.628   0.557  0.5160  0.9243  0.0246
    1Sil     Ob  366   0.383   1.921   0.622 -0.8100  0.1578 -0.2146
    1Sil     Ob  367   0.120   1.375  -0.101  0.5130 -0.1621 -0.4179
    1Sil     Ob  368   0.828   2.155  -0.952  0.2314 -0.4460  0.9027
    1Sil     Ob  369   0.525   0.739  -0.232  0.2987  0.0768 -0.0930
    1Sil     Ob  370  -0.351   2.554  -1.003  0.5859  0.1817 -0.3657
    1Sil     Ob  371  -0.063   0.934  -0.608 -0.5057  0.3078  0.3336
    1Sil     Ob  372  -0.032   0.707  -0.727  0.3887 -0.7113  0.0664
    1Sil     Ob  373  -0.475   2.019  -0.718 -0.1018 -0.2651 -0.1680
    1Sil     Ob  374   0.293   1.127  -0.683  0.4354  0.0689 -0.5341
    1Sil     Ob  375   0.484   2.183  -0.791  0.3822 -0.4640 -0.2418
    1Sil     Ob  376   0.645   2.189   0.004 -0.1905 -0.0640  0.5161
    1Sil     Ob  377  -0.331   2.156  -0.240  0.0708  0.6541  0.2836
    1Sil     Ob  378   0.176   0.639  -0.948  0.1801 -0.0984  0.7762
    1Sil     Ob  379   0.477   1.103   0.703 -0.0457 -0.2019  0.5489
    1Sil     Ob  380   0.158   2.244   0.802 -0.2854 -0.3862  0.2770
    1Sil     Ob  381   0.813   1.267  -0.838  0.2717 -0.3679 -0.1774
    1Sil     Ob  382  -0.173   0.797  -0.897 -0.5303  0.0758  0.0640
    1Sil     Ob  383   0.349   1.498  -0.764  0.6040  0.5872  0.1964
    1Sil     Ob  384   0.480   2.341   0.126 -0.5491  0.3799  0.2376
    1Sil     Ob  385   0.447   2.223   0.801  0.1990  0.4453  0.0649
    1Sil     Ob  386  -0.006   1.902   0.387  0.4325  0.4218  0.4891
    1Sil     Ob  387   0.544   1.077   0.414  0.5610  0.7987  0.1512
    1Sil     Ob  388   0.313   1.500  -0.496  0.0657  0.7025 -0.3420
    1Sil     Ob  389   0.003   1.246   0.352  0.2504  0.6218 -0.1139
    1Sil     Ob  390  -0.049   1.890   0.130  0.4957  0.1377  0.3681
    1Sil     Ob  391   0.782   0.765  -0.181 -0.4832  0.2547  0.0101
    1Sil     Ob  392   0.253   2.723  -0.659  0.1906  0.6672  0.3618
    1Sil     Ob  393   0.637   1.911   0.332  0.3965 -0.5134 -0.6352
    1Sil     Ob  394   0.185   1.713  -0.359  0.1014 -0.3400 -0.5577
    1Sil     Ob  395   0.708   0.816   0.054  0.0258  0.0456  0.1718
    1Sil     Ob  396   0.819   2.689  -0.562  0.0906 -0.0917  0.0449
    1Sil     Ob  397  -0.348   1.480   0.714 -0.1589 -0.2162  0.1367
    1Sil     Ob  398   1.151   0.972  -0.953  0.0116 -0.6890  0.0109
    1Sil     Ob  399   0.949   1.820  -0.354  0.4518  0.4779  0.5022
    1Sil     Ob  400  -0.007   2.352   0.635  0.3807  0.0326 -0.3638
    1Sil     Ob  401   1.026   1.944   0.908  0.3043 -0.0878  0.4297
    1Sil     Ob  402  -0.644   1.092  -0.846  0.1574 -0.9442 -0.4393
    1Sil     Ob  403  -0.210   2.494   0.978  0.1938  0.2709  0.2844
    1Sil     Ob  404  -0.152   2.257   0.842 -0.9393  0.4992  0.2934
    1Sil     Ob  405  -0.012   1.843  -1.000 -0.2477 -0.5994 -1.1379
    1Sil     Ob  406   0.768   1.429  -1.011 -0.2025  0.5974 -0.4994
    1Sil     Ob  407  -0.599   2.674  -1.035  0.0718  0.2981  0.7978
    1Sil     Ob  408  -0.028   2.133  -1.029  0.5340 -0.4036  0.1775
    1Sil     Ob  409   0.439   1.858   0.973  0.6361  0.3186  0.2859
    1Sil     Ob  410  -0.015   0.807  -1.088 -0.5589 -0.1551  0.8713
    1Sil     Ob  411  -0.221   1.956  -1.087  0.1711 -0.0985 -0.5992
    1Sil     Ob  412   1.447   0.970   0.666 -0.1186  0.3844  0.3639
    1Sil     Ob  413   1.242   0.859   0.672 -0.0253 -0.0897  0.5554
    1Sil     Ob  414   1.319   1.104   0.515 -0.3363  0.2981 -0.2719
    1Sil     Ob  415  -0.471   1.106   0.859  0.0984  0.3720  0.5850
    1Sil     Ob  416   1.375   1.207   0.718  0.2225  0.2359 -0.2562
    1Sil     Ob  417   1.209   1.356   0.558 -0.0006  0.2683 -0.1890
    1Sil     Ob  418   0.140   0.532   0.339 -0.4276 -0.2924 -0.2872
    1Sil     Ob  419   0.709   3.317  -0.227 -0.2168  0.2404  0.0141
    1Sil     Ob  420   0.519   3.989  -0.600  0.1614 -0.0377 -0.3539
    1Sil     Ob  421   0.060   3.047  -0.113 -0.3662  0.5311 -0.0029
    1Sil     Ob  422   0.936   4.556  -0.013  0.1966 -0.4066  0.2934
    1Sil     Ob  423  -0.555   4.652   0.792 -0.1904 -0.0089 -0.8952
    1Sil     Ob  424  -0.370   3.233   0.402  0.4467  0.6752 -0.1278
    1Sil     Ob  425   0.113   3.527  -0.344 -0.7206 -0.3437 -0.0812
    1Sil     Ob  426   1.076   4.519   0.198 -0.2813 -0.3275  0.0344
    1Sil     Ob  427   0.904   4.167  -0.374 -0.1368  0.0866  0.4902
    1Sil     Ob  428   0.159   2.935  -1.045  0.2941 -0.3122  0.0194
    1Sil     Ob  429   0.463   3.788   0.757 -0.2968  0.0415 -0.1276
    1Sil     Ob  430   1.176   2.971   0.025 -0.5207  0.8998 -0.0423
    1Sil     Ob  431  -0.728   2.778  -0.049  0.5425 -0.0505 -0.3517
    1Sil     Ob  432  -0.498   4.063  -0.492 -0.3167  0.7072 -0.3431
    1Sil     Ob  433   0.658   3.017   0.743 -0.8964 -0.2580  0.1332
    1Sil     Ob  434   1.106   3.165  -0.588  0.1073 -0.9818  0.4804
    1Sil     Ob  435   0.326   4.493  -0.189  0.5695  0.3826 -0.1444
    1Sil     Ob  436   1.096   3.180   0.701  0.3072  0.1527 -0.0864
    1Sil     Ob  437   0.803   3.596  -0.611 -0.4190  0.1565  0.2700
    1Sil     Ob  438   1.342   2.986   0.388 -0.3303  0.0036 -0.1782
    1Sil     Ob  439   0.994   2.975   0.548 -0.7565  0.0706 -0.4001
    1Sil     Ob  440  -0.477   3.120  -0.093  0.3980  0.4183 -0.1327
    1Sil     Ob  441   0.350   3.781  -0.627  0.4880  0.0600  0.1009
    1Sil     Ob  442   0.289   2.989  -0.557  0.4969  0.2810  0.0729
    1Sil     Ob  443   0.550   3.624  -0.619 -0.1801  0.3890 -0.2766
    1Sil     Ob  444   0.124   2.998  -0.792 -0.1882 -0.3322  0.9279
    1Sil     Ob  445   0.912   2.739   0.471  0.0863  0.5374  0.1525
    1Sil     Ob  446  -0.736   4.479   0.302  1.3048  0.2006  0.0992
    1Sil     Ob  447  -0.381   4.213   0.419  0.2436 -0.3341  0.3887
    1Sil     Ob  448   0.695   3.808  -0.737  0.1325  0.3126 -0.0688
    1Sil     Ob  449   1.243   3.367  -0.510  0.3298 -0.2687  0.6286
    1Sil     Ob  450  -0.477   4.420   0.130 -0.2297 -0.1555 -0.3138
    1Sil     Ob  451   0.977   3.397  -0.556 -0.4154 -0.1869 -0.4603
    1Sil     Ob  452   0.971   4.441  -0.823  0.2819  0.4246  0.4717
    1Sil     Ob  453  -0.140   4.702  -0.871  0.1589 -0.1557 -0.3108
    1Sil     Ob  454  -0.703   0.617  -0.847  0.2059 -0.0293  0.2524
    1Sil     Ob  455  -0.655   3.266   0.010  0.0886 -0.6260 -0.2021
    1Sil     Ob  456   0.719   4.409   0.216 -0.1475  0.2936 -0.6612
    1Sil     Ob  457  -0.734   2.764  -0.402  0.5183 -0.3119  0.2955
    1Sil     Ob  458   0.735   3.289   0.387  0.2978  0.0021 -0.6154
    1Sil     Ob  459   1.171   3.376   0.003  0.2131 -0.0688  0.1066
    1Sil     Ob  460   0.053   4.217   0.226 -0.2575 -0.0695 -0.1544
    1Sil     Ob  461  -0.154   2.898  -0.199 -0.3036  0.4656  0.2215
    1Sil     Ob  462   0.324   3.192   0.514  0.6498  0.3647 -0.2970
    1Sil     Ob  463   0.691   4.022  -0.892 -0.1683  0.2379 -0.6449
    1Sil     Ob  464   0.150   3.557   0.368 -0.5310  0.6615  0.1262
    1Sil     Ob  465  -0.735   3.180   0.882 -0.1094  0.1017 -0.6218
    1Sil     Ob  466   0.568   3.352   0.883  0.3664  0.6279 -0.1942
    1Sil     Ob  467  -0.777   4.216   0.859 -0.1024 -0.2010  0.1688
    1Sil     Ob  468  -0.126   4.355  -0.406 -0.2074 -0.0323  0.6444
    1Sil     Ob  469   0.896   3.784   0.794  0.2392  0.5791 -0.1268
    1Sil     Ob  470  -0.182   4.161   0.277  0.3309 -0.1338 -0.0853
    1Sil     Ob  471  -0.324   2.733  -0.661  0.2513 -0.7373  0.0658
    1Sil     Ob  472   0.123   4.611  -0.097 -0.3859 -0.1884  1.0453
    1Sil     Ob  473  -0.608   2.719   0.628 -0.2987 -0.3858  0.4624
    1Sil     Ob  474   0.180   4.030   0.845 -0.5643  0.2808 -0.5481
    1Sil     Ob  475   0.292   0.272   0.654 -0.0436  0.9663 -0.5137
    1Sil     Ob  476  -0.590   4.352   0.458  0.4580  0.0847  0.2169
    1Sil     Ob  477   0.697   3.843  -0.223  0.3030  0.6352 -1.0804
    1Sil     Ob  478   0.491   3.006  -0.703  0.5411 -0.3561  0.0880
    1Sil     Ob  479   0.661   3.657   0.659 -0.0121 -0.5602 -0.2960
    1Sil     Ob  480  -0.430   3.853  -0.646  0.0164 -0.0487  0.7820
    1Sil     Ob  481   0.089   4.220  -0.513 -0.2733 -0.0292  0.1250
    1Sil     Ob  482  -0.474   4.180   0.054 -0.4327  0.4594  0.1467
    1Sil     Ob  483   1.191   3.775  -0.296 -0.1925  0.2273 -0.1474
    1Sil     Ob  484  -0.567   4.183   0.703 -0.1195 -0.0274  0.5055
    1Sil     Ob  485   1.078   4.450   0.731  0.4204  0.5993 -1.0539
    1Sil     Ob  486   0.973   3.281  -0.076  0.6414 -0.4308 -0.0477
    1Sil     Ob  487   0.767   4.018  -0.496 -0.1570 -0.2254  0.3740
    1Sil     Ob  488   1.038   4.068   0.350  0.2109  0.1168  0.0286
    1Sil     Ob  489   0.987   4.201  -0.139  0.3938 -0.2042  0.1211
    1Sil     Ob  490   0.911   4.215  -0.724  0.8515 -0.2058 -0.2838
    1Sil     Ob  491   0.614   4.238  -0.557  0.0206 -0.3347 -0.0283
    1Sil     Ob  492   0.588   3.758   0.253 -0.0770 -0.5379  0.2208
    1Sil     Ob  493   0.152   3.788   0.452 -0.2167 -0.0697  0.1642
    1Sil     Ob  494   0.909   3.948  -0.078  0.0055 -0.6739 -0.0021
    1Sil     Ob  495  -0.106   3.279  -0.481 -0.4647  0.0235 -0.0843
    1Sil     Ob  496   0.593   4.243   0.349  0.1017  0.5299  0.4367
    1Sil     Ob  497  -0.678   2.996  -0.168  0.2331  0.6576 -0.0171
    1Sil     Ob  498   0.841   4.233   0.343  0.3153  0.0728  0.2358
    1Sil     Ob  499  -0.382   3.992  -0.959  0.5017 -0.8839 -0.3009
    1Sil     Ob  500   0.544   4.201  -0.992  0.2971  0.2820  0.3871
    1Sil     Ob  501  -0.334   3.454   0.241 -0.0090  0.2069 -0.5774
    1Sil     Ob  502  -0.204   3.235  -0.711  0.1527 -0.6072 -0.1135
    1Sil     Ob  503   0.510   4.106   0.136  0.0550  0.0358 -0.1630
    1Sil     Ob  504   0.315   4.012  -0.270 -0.4961  0.0030 -0.2929
    1Sil     Ob  505   1.078   4.085   0.090 -0.1534  0.2579  0.2393
    1Sil     Ob  506   0.504   0.342   0.538  0.2832  0.3382 -0.2517
    1Sil     Ob  507   1.008   3.666   0.284  0.3150 -0.1449  0.0724
    1Sil     Ob  508  -0.632   4.413   0.746 -0.2131  0.1447  0.5983
    1Sil     Ob  509  -0.491   0.352   0.342  0.2495  0.4324  0.1619
    1Sil     Ob  510  -0.171   4.344   0.469 -0.4454 -0.5645  1.1130
    1Sil     Ob  511   0.941   2.887   0.024  0.0600 -0.0997  0.0853
    1Sil     Ob  512   0.145   3.403  -0.563 -0.1599  0.4820  0.1604
    1Sil     Ob  513   0.826   2.993   0.955 -0.2649 -0.1686 -0.0962
    1Sil     Ob  514  -0.059   3.359  -0.234 -0.0971  0.3975  0.1800
    1Sil     Ob  515   1.201   3.316  -0.253  0.2887  0.0192 -0.5005
    1Sil     Ob  516  -0.806   4.299   0.614  0.0274 -0.0606  0.8393
    1Sil     Ob  517   1.009   4.575   0.938 -0.7497  0.0434  0.5119
    1Sil     Ob  518   0.482   3.337   0.052 -0.0137  0.0338  0.0784
    1Sil     Ob  519   0.463   3.799  -0.334  0.0640  0.4705 -0.2402
    1Sil     Ob  520  -0.625   4.002  -0.071  0.3528 -0.0162  0.1719
    1Sil     Ob  521   0.601   0.234   0.955  0.4432 -0.2283  0.2315
    1Sil     Ob  522   0.151   0.279  -1.023  0.3817 -0.0281  0.8112
    1Sil     Ob  523  -0.630   4.028  -0.867 -0.2375 -0.1523 -0.3211
    1Sil     Ob  524  -0.467   3.649  -0.500  0.0563 -0.5198  0.1124
    1Sil     Ob  525   0.818   3.832  -0.965  0.6118  1.0714 -0.0908
    1Sil     Ob  526   0.122   3.919  -0.919  0.1084  0.0906 -0.7296
    1Sil     Ob  527   0.077   2.868   0.833  0.0543 -0.2402  0.0164
    1Sil     Ob  528  -0.072   2.689   0.683  0.0924 -0.0326 -0.2314
    1Sil     Ob  529   0.860   3.010  -0.973 -0.1036 -0.0387 -0.5820
    1Sil     Ob  530   0.116   3.422  -0.830  0.0517  0.0987  0.3339
    1Sil     Ob  531  -0.486   4.441  -1.043  0.0364  0.0508 -0.1178
    1Sil     Ob  532   0.675   3.760  -0.471  0.2730 -0.3325  0.5367
    1Sil     Ob  533   1.049   2.669  -0.413  0.3374  0.6798 -0.0937
    1Sil     Ob  534  -0.020   3.348   0.623  0.1569  0.2140 -0.2088
    1Sil     Ob  535   0.955   3.304   0.184 -0.1589 -0.6539 -0.3689
    1Sil     Ob  536   0.363   3.942  -0.810 -0.0092 -0.1325  0.1425
    1Sil     Ob  537  -0.589   4.230   0.252 -0.4575  0.4545  0.3452
    1Sil     Ob  538   0.733   0.435   0.899  0.1514 -0.0227 -0.4389
    1Sil     Ob  539   0.967   3.645   0.037 -0.4764 -0.3147  0.0138
    1Sil     Ob  540  -0.177   2.899   0.767  0.8571 -0.3519  0.5579
    1Sil     Ob  541   0.857   4.385  -0.276  0.7048 -0.2570 -0.0366
    1Sil     Ob  542  -0.585   0.489   0.065  0.3291  0.0114  0.3842
    1Sil     Ob  543  -0.698   3.495   0.124  0.2017  0.7013 -0.3434
    1Sil     Ob  544  -0.354   0.427   0.146 -0.2792  0.0169  0.0869
    1Sil     Ob  545  -0.108   0.311  -1.095 -0.3513  0.2291 -0.1551
    1Sil     Ob  546   0.143   4.407  -0.356  0.6922  0.0810 -0.5117
    1Sil     Ob  547   1.161   4.435  -0.051  0.4487 -0.0285 -0.1007
    1Sil     Ob  548  -0.245   4.035  -0.601  0.1007  0.6618 -0.6028
    1Sil     Ob  549   0.801   0.575   0.005  0.1554  0.0663  0.2551
    1Sil     Ob  550   0.869   4.566  -0.445  0.1693 -0.1330 -0.0419
    1Sil     Ob  551  -0.565   0.400  -0.884 -0.1966  0.6978 -0.2294
    1Sil     Ob  552   0.575   3.585   0.051  0.4582 -0.1837 -0.2185
    1Sil     Ob  553   1.122   3.927   0.689 -0.2672  0.5034 -0.0853
    1Sil     Ob  554  -0.763   4.509   0.925 -0.0546  0.3102  0.3254
    1Sil     Ob  555   1.051   3.696  -0.938  0.0848 -0.1310 -0.1090
    1Sil     Ob  556  -0.702   2.889  -0.922  0.5188  1.0837  0.6704
    1Sil     Ob  557   0.094   2.875  -0.561  0.2778  0.3703  0.4180
    1Sil     Ob  558   0.904   3.957  -0.771 -0.7547  0.0836  0.1181
    1Sil     Ob  559   0.083   3.132   0.497 -0.2840 -0.0612  0.4824
    1Sil     Ob  560   0.475   0.474   0.982 -0.4787  0.0314 -0.0820
    1Sil     Ob  561   0.500   3.459   0.661 -0.3404 -0.1298 -0.1207
    1Sil     Ob  562   0.706   0.032   0.800 -0.4535 -0.2342  0.4362
    1Sil     Ob  563   0.397   2.738   0.392  0.1426  0.1282  0.0555
    1Sil     Ob  564   1.258   3.960   0.263 -0.7134  0.0410  0.0765
    1Sil     Ob  565   1.174   2.741   0.509  0.7031 -0.0204 -0.3229
    1Sil     Ob  566  -0.495   2.708  -0.492 -0.7890  0.3117  0.8422
    1Sil     Ob  567   0.228   3.349   0.065  0.3385  0.6361  1.2938
    1Sil     Ob  568  -0.124   3.130  -0.287 -0.0654  0.0936  0.7864
    1Sil     Ob  569  -0.554   3.452   0.611  0.1966  0.3072  0.3514
    1Sil     Ob  570   1.010   3.657  -0.471  0.4042  0.0034  0.0119
    1Sil     Ob  571   0.310   3.119  -0.007 -0.7232  0.1971 -0.1682
    1Sil     Ob  572  -0.744   3.548  -0.347 -0.2630 -0.1379  0.0460
    1Sil     Ob  573  -0.488   2.932  -0.586  0.4601 -0.3015  0.2098
    1Sil     Ob  574   0.703   4.013   0.911 -0.0824 -0.1178  0.5485
    1Sil     Ob  575   0.237   2.905   0.521 -0.1218 -0.2954  0.3176
    1Sil     Ob  576   1.130   2.909  -0.507  0.0398  0.1792 -0.1320
    1Sil     Ob  577   0.040   4.645   0.135 -0.2970 -0.2624 -0.0486
    1Sil     Ob  578   1.111   3.369  -0.754 -0.5591 -0.1540  0.0433
    1Sil     Ob  579   0.409   0.488   0.736  0.3247  0.4016 -0.3886
    1Sil     Ob  580   0.828   3.472  -0.378 -0.3989  0.1902  0.1276
    1Sil     Ob  581  -0.710   3.983  -0.603 -0.2662  0.0838  0.0484
    1Sil     Ob  582  -0.335   2.993   0.124 -0.4409  0.2703  0.0555
    1Sil     Ob  583   0.600   3.130  -0.058 -0.0692 -0.4464  0.0749
    1Sil     Ob  584  -0.577   3.358  -0.326  0.1954  0.4672  0.3704
    1Sil     Ob  585  -0.059   3.578  -0.747 -0.7179 -0.0453  0.2383
    1Sil     Ob  586  -0.331   3.785  -0.346  0.2279  0.0720  0.2853
    1Sil     Ob  587   0.049   3.482   0.147 -0.4390 -0.1146 -0.2846
    1Sil     Ob  588  -0.136   4.162  -0.105  0.1433 -0.7945 -0.3560
    1Sil     Ob  589  -0.115   3.584   0.289 -0.7803  0.1828 -0.1292
    1Sil     Ob  590   0.639   4.509  -0.358  0.0177 -0.0111  0.5801
    1Sil     Ob  591   0.554   4.481  -0.596 -0.6965 -0.4073  0.4407
    1Sil     Ob  592  -0.226   4.012  -0.285  0.2682 -0.0998  0.0496
    1Sil     Ob  593   1.007   4.261   0.541  0.0277  0.0252 -1.0476
    1Sil     Ob  594   0.981   3.653   0.511 -0.2621  0.3660 -0.4314
    1Sil     Ob  595   0.924   3.455   0.603 -0.1550  0.0844  0.6078
    1Sil     Ob  596  -0.380   4.042  -0.113  0.1096 -0.3210  0.2829
    1Sil     Ob  597   0.812   3.558  -0.148 -0.1354 -0.2487  0.5595
    1Sil     Ob  598   0.564   3.122   0.986  0.3452 -0.0675  0.1758
    1Sil     Ob  599  -0.544   2.911   0.227  0.0353 -0.9089  0.0068
    1Sil     Ob  600   0.351   0.389   0.288  0.1521  0.5297 -0.2881
    1Sil     Ob  601   0.547   3.850   0.504  0.3285 -0.6689 -0.2626
    1Sil     Ob  602  -0.716   3.614  -0.844 -0.5825  0.4339  0.2773
    1Sil     Ob  603   0.898   2.734   0.956 -0.0608  0.4481 -0.6914
    1Sil     Ob  604  -0.073   2.712   0.275 -0.3347 -0.3088  0.1596
    1Sil     Ob  605  -0.358   2.994   0.502 -0.1357  0.3836 -0.0300
    1Sil     Ob  606   0.750   3.393   0.049  0.4774 -0.0123 -0.3183
    1Sil     Ob  607   0.245   4.382   0.151  0.2552  0.4745 -0.5266
    1Sil     Ob  608   0.450   3.814   0.060 -0.7283 -0.3689  0.1671
    1Sil     Ob  609   0.696   3.341   0.666 -0.1967  0.3828  0.4351
    1Sil     Ob  610   0.444   3.340  -0.919 -0.2197  0.1681 -0.4422
    1Sil     Ob  611   1.083   4.289   0.306 -0.0943  0.0298  0.1321
    1Sil     Ob  612  -0.285   0.490   0.792  0.0383  0.4505  0.3374
    1Sil     Ob  613   0.801   3.799   0.396  0.1096  0.3767 -0.2718
    1Sil     Ob  614   0.502   2.894   0.572 -0.1546 -0.0934 -0.2575
    1Sil     Ob  615  -0.530   3.187  -0.629 -0.2086 -0.5689  0.2231
    1Sil     Ob  616   0.816   3.542   0.348 -0.3581  0.1431  0.2506
    1Sil     Ob  617   0.351   4.265  -0.335 -0.0057 -0.1697  0.0933
    1Sil     Ob  618  -0.704   4.020  -0.330 -0.0241 -0.1451  0.3010
    1Sil     Ob  619   0.269   3.610   0.066 -0.6219 -0.4823 -1.0549
    1Sil     Ob  620   1.137   4.385  -0.623 -0.4716  0.2217  0.1614
    1Sil     Ob  621   0.029   3.936   0.628 -0.3410  0.3043  0.0108
    1Sil     Ob  622  -0.097   4.002   0.839  0.0402  0.1489 -0.1575
    1Sil     Ob  623  -0.011   4.182   0.712 -0.0180  0.2744 -0.5906
    1Sil     Ob  624  -0.557   3.707   0.094  0.8406  0.3272  0.0180
    1Sil     Ob  625   0.804   3.506   0.819  0.0113  0.4649 -0.4074
    1Sil     Ob  626   0.664   2.846  -0.432  0.5423 -0.5431  0.6078
    1Sil     Ob  627   0.540   4.094  -0.357  0.3711 -0.1751  0.2088
    1Sil     Ob  628  -0.731   4.207  -0.521 -0.6717 -0.3582  0.2530
    1Sil     Ob  629   1.211   3.695   0.135  0.0634  0.4551  0.3360
    1Sil     Ob  630   1.003   4.053  -0.561  0.8413  0.5865  0.4354
    1Sil     Ob  631  -0.086   3.591  -0.165 -1.1909  0.5038 -0.5597
    1Sil     Ob  632   0.347   4.598   0.028 -0.4343 -0.1066 -0.0495
    1Sil     Ob  633  -0.642   3.968   0.742  0.4212 -0.2611 -0.3695
    1Sil     Ob  634  -0.221   3.800  -0.127  0.4623  1.0692  0.0081
    1Sil     Ob  635   1.025   4.628  -0.641  0.2192 -0.1778 -0.3249
    1Sil     Ob  636   0.653   0.257   0.707  0.1850 -0.1176 -0.0511
    1Sil     Ob  637  -0.070   3.813  -0.322 -0.0167  0.2580  0.1071
    1Sil     Ob  638  -0.410   3.542  -0.272 -0.7044  0.0708 -0.5282
    1Sil     Ob  639  -0.348   3.719   0.242  0.0199  0.0834  0.5210
    1Sil     Ob  640   0.729   4.381  -0.738  0.7452 -0.1085  0.5793
    1Sil     Ob  641   1.143   4.018  -0.135 -0.4431 -0.4409  0.1047
    1Sil     Ob  642  -0.361   2.806   0.317  0.0294 -0.2115 -0.1590
    1Sil     Ob  643  -0.604   4.077   0.438 -0.6127  0.6531 -0.0020
    1Sil     Ob  644  -0.316   3.188   0.679  0.4071  0.4745  0.3167
    1Sil     Ob  645   0.338   3.101  -0.942  0.5300  0.5243  0.4388
    1Sil     Ob  646   0.592   2.753  -0.670 -0.2821  0.1200 -0.0357
    1Sil     Ob  647   1.205   4.564  -0.804 -0.9709 -0.5632  0.5030
    1Sil     Ob  648   1.159   4.688   0.031  0.0476 -0.5161  0.7863
    1Sil     Ob  649  -0.249   2.765   0.956  0.3027 -0.1141  0.4623
    1Sil     Ob  650  -0.432   3.936   0.119  0.0027  0.4823  0.0355
    1Sil     Ob  651  -0.706   3.058  -0.507  0.0734  0.0660  0.0243
    1Sil     Ob  652   1.029   3.225   0.440 -0.8399 -0.4761 -0.0812
    1Sil     Ob  653   0.102   4.240  -0.026  0.1923 -0.0559  0.0344
    1Sil     Ob  654  -0.592   3.391  -0.774  1.0933  0.0735  0.3313
    1Sil     Ob  655  -0.742   2.770   0.199 -0.4466  0.2069  0.0969
    1Sil     Ob  656   0.737   0.228   0.473  0.6826 -0.2709  0.5079
    1Sil     Ob  657   0.706   3.032   0.480 -0.3223 -0.2668  0.5310
    1Sil     Ob  658  -0.734   2.757   0.820 -0.4227 -0.9528  0.6034
    1Sil     Ob  659   0.395   2.796  -0.847 -0.0304  0.3969 -0.3247
    1Sil     Ob  660  -0.598   0.446  -0.380 -0.5425  0.3848 -0.0381
    1Sil     Ob  661  -0.454   3.614  -0.759 -0.0648 -0.4333  0.0549
    1Sil     Ob  662  -0.306   3.027   0.909  0.2840  0.2198 -0.1555
    1Sil     Ob  663   0.293   3.030   0.744 -0.4066 -0.4021  0.5428
    1Sil     Ob  664  -0.507   3.074  -0.367 -0.0328  0.2700  0.1334
    1Sil     Ob  665  -0.005   4.435   0.065  0.4937 -0.1807  0.0447
    1Sil     Ob  666  -0.457   2.829   0.806  0.0548  0.0571  0.4975
    1Sil     Ob  667  -0.412   2.755   0.077 -0.0526 -0.7283  0.0041
    1Sil     Ob  668   0.705   3.813   0.036 -0.0548  0.1579  0.5153
    1Sil     Ob  669   0.679   4.054  -0.061 -0.1151  0.1045  0.4233
    1Sil     Ob  670   0.255   3.301   0.738  0.1331 -0.5012  0.4456
    1Sil     Ob  671   0.604   3.447   0.242  0.3223  0.3489 -0.0656
    1Sil     Ob  672   1.030   3.869   0.165 -0.1243 -0.0648 -0.1547
    1Sil     Ob  673  -0.675   4.331   0.030  0.1411  0.1841 -0.9103
    1Sil     Ob  674   0.321   2.800   0.885  0.2802 -0.7853  0.4662
    1Sil     Ob  675  -0.456   3.252   0.141  0.2128  0.5180 -1.0806
    1Sil     Ob  676  -0.456   3.362  -0.102 -0.2827 -0.0363  0.5808
    1Sil     Ob  677  -0.387   0.464  -0.089 -0.3230 -0.2460 -0.1060
    1Sil     Ob  678  -0.237   4.485  -0.213  0.4744 -0.9465  0.2128
    1Sil     Ob  679   0.682   0.346   0.002  0.1892  0.0706 -0.3219
    1Sil     Ob  680   0.805   4.624  -0.197 -0.4163 -0.8109  0.4564
    1Sil     Ob  681   0.638   2.887  -0.888  0.4128 -0.5459 -0.4110
    1Sil     Ob  682  -0.137   4.645  -0.054  0.0992 -0.4698  0.1681
    1Sil     Ob  683  -0.680   4.612   0.501  0.5698  0.3889 -0.0358
    1Sil     Ob  684   0.971   3.719  -0.219  0.1520  0.2835  0.8081
    1Sil     Ob  685  -0.722   3.631  -0.099  0.6737 -0.0798  0.0666
    1Sil     Ob  686   0.977   3.217  -0.912 -0.5327 -0.8359  0.3764
    1Sil     Ob  687   0.637   3.095   0.215 -0.3345 -0.2295 -0.3298
    1Sil     Ob  688   0.892   3.226   0.683 -0.0905  0.0745  0.4216
    1Sil     Ob  689  -0.571   3.844   0.318  0.0111 -0.0347 -0.9353
    1Sil     Ob  690  -0.686   0.235  -0.454 -0.5374 -0.7292 -0.2609
    1Sil     Ob  691  -0.202   0.388   0.569  0.7456  0.1713 -0.6854
    1Sil     Ob  692   0.394   2.994   0.360 -0.2163  0.2272  0.7561
    1Sil     Ob  693   0.808   3.150   0.046 -0.0506 -0.2232  0.0813
    1Sil     Ob  694   0.560   4.716  -0.479  0.0809  0.4072 -0.1566
    1Sil     Ob  695  -0.154   3.163   0.484  0.3146  0.4807  0.1593
    1Sil     Ob  696  -0.165   2.887   0.390  0.5029  0.2304 -0.7496
    1Sil     Ob  697   1.078   3.590   0.740  0.3549  0.0955  0.2504
    1Sil     Ob  698  -0.173   3.098  -0.041  0.0646  0.0598  0.0811
    1Sil     Ob  699  -0.150   3.402  -0.914 -0.4131 -0.4802 -0.1194
    1Sil     Ob  700  -0.648   0.468  -0.634  0.2295  0.8781 -0.2246
    1Sil     Ob  701   1.278   3.552   0.889  0.4329  0.4288  0.7501
    1Sil     Ob  702  -0.769   3.788   0.739  0.3476  1.3301  0.1569
    1Sil     Ob  703   0.182   4.045   0.478  0.1079 -0.5175 -0.0565
    1Sil     Ob  704   0.392   0.215  -0.985 -0.2659 -0.1356 -0.4119
    1Sil     Ob  705   0.623   3.536  -0.913  0.3019 -0.0916  0.0676
    1Sil     Ob  706  -0.142   3.863  -0.980  0.0761 -0.0331 -0.6479
    1Sil     Ob  707   0.717   0.469   0.550  0.2025 -0.0780 -0.5001
    1Sil     Ob  708  -0.222   3.800   0.774 -0.0202 -0.1272  0.2245
    1Sil     Ob  709  -0.469   4.227  -0.927 -0.1692 -0.1445  0.1306
    1Sil     Ob  710  -0.024   3.768   0.013  0.4624 -0.4382 -0.0631
    1Sil     Ob  711   1.016   3.082   0.207 -0.0142 -0.0410 -0.1123
    1Sil     Ob  712   0.315   0.448  -0.876 -0.7234  0.2490  0.0021
    1Sil     Ob  713   1.060   2.856   0.281 -0.1630 -0.0079 -0.0713
    1Sil     Ob  714   0.355   0.550  -0.181 -0.4491 -0.2230 -0.2785
    1Sil     Ob  715  -0.445   4.442   0.927 -0.2605  0.1419  0.6687
    1Sil     Ob  716   1.207   3.846  -0.792 -0.2165 -0.0732  0.6612
    1Sil     Ob  717   0.615   3.588  -0.293 -0.1713  0.0092 -0.6074
    1Sil     Ob  718   0.013   3.730  -0.532 -0.1114  0.8734  0.8306
    1Sil     Ob  719   0.286   2.776  -0.391 -0.4206 -0.3408  0.8876
    1Sil     Ob  720   0.260   2.902  -0.156 -0.2985  0.3400  0.1167
    1Sil     Ob  721   0.424   3.160  -0.483  0.6913 -0.1783 -0.2305
    1Sil     Ob  722  -0.240   0.559  -0.261 -0.3488 -0.1846  0.2612
    1Sil     Ob  723  -0.285   0.207   0.265 -0.7288  0.1781 -0.2443
    1Sil     Ob  724   0.400   4.091   0.366 -0.5985 -0.0196  0.1136
    1Sil     Ob  725   0.050   3.996  -0.086 -0.3472 -0.0004  0.4536
    1Sil     Ob  726   0.257   3.121  -0.274 -0.2055  0.5880 -0.0381
    1Sil     Ob  727   0.909   0.517   0.722 -0.7449  0.9443 -0.1478
    1Sil     Ob  728   1.045   3.491  -0.168  0.1229  0.0328 -0.8356
    1Sil     Ob  729   1.078   2.895   0.853 -0.2927  0.5094 -0.1631
    1Sil     Ob  730   0.302   3.361  -0.363 -0.0586 -0.1860  0.3243
    1Sil     Ob  731  -0.748   3.892   0.503  0.1415 -0.3879  0.8778
    1Sil     Ob  732  -0.225   3.197   0.197 -0.0370  0.4389 -0.2403
    1Sil     Ob  733   0.051   4.183  -0.266 -0.2815  0.1658 -0.2198
    1Sil     Ob  734   1.096   3.392   0.870  0.6229  0.1741  0.1341
    1Sil     Ob  735   0.643   3.061  -0.303 -0.0611 -0.1357  0.2739
    1Sil     Ob  736  -0.002   2.921   0.597 -0.0872  0.0002  0.2205
    1Sil     Ob  737  -0.225   3.612   0.054  0.0383  0.0054 -0.1278
    1Sil     Ob  738  -0.624   2.738   0.402 -0.3578 -0.0177  0.1326
    1Sil     Ob  739  -0.167   4.059  -0.850 -0.4007  0.6592 -0.1211
    1Sil     Ob  740   0.609   4.015   0.676  0.2203 -0.0852 -1.0012
    1Sil     Ob  741   0.141   3.565   0.623 -0.5346  0.3446 -0.7209
    1Sil     Ob  742  -0.234   3.677  -0.603  0.3101 -0.5170 -0.3690
    1Sil     Ob  743   0.325   3.217   0.244 -0.0122 -0.0959 -0.3063
    1Sil     Ob  744   0.099   3.429   0.843  0.1339  0.1156 -0.3446
    1Sil     Ob  745   1.066   4.309   0.939 -0.3426  0.1333 -0.1290
    1Sil     Ob  746   0.867   4.027   0.714  0.4206 -0.4342 -0.1004
    1Sil     Ob  747  -0.407   3.259  -0.873 -0.0666  0.3430  0.7072
    1Sil     Ob  748   0.295   4.154  -0.920  0.3037  0.3417  0.7389
    1Sil     Ob  749  -0.119   3.844  -0.725  0.3069  0.2370  0.3356
    1Sil     Ob  750   0.018   3.645  -0.987 -0.1420  0.3928 -0.4773
    1Sil     Ob  751  -0.312   3.298  -0.303  0.9274  0.3503 -0.2455
    1Sil     Ob  752   0.677   3.761   0.917 -0.6107 -0.4268  0.0988
    1Sil     Ob  753   0.061   2.921   0.353  0.0539  0.2963  0.3163
    1Sil     Ob  754   0.050   3.980  -0.459  0.1382 -0.4005 -0.4179
    1Sil     Ob  755  -0.363   4.018   0.762  0.0525  0.0861  0.0943
    1Sil     Ob  756   0.287   3.774  -0.134 -0.0768 -0.1778 -0.4263
    1Sil     Ob  757  -0.082   3.583   0.717  0.0108 -0.0643  0.0145
    1Sil     Ob  758   1.109   4.471   0.467 -0.0677  0.1597  0.1296
    1Sil     Ob  759   1.204   3.263   0.222 -0.3737  0.4208  0.2538
    1Sil     Ob  760   0.033   3.244  -0.693 -0.4957 -0.4092 -0.0640
    1Sil     Ob  761   0.013   4.055  -0.675  0.6908  0.1847 -0.3222
    1Sil     Ob  762   0.730   2.815   0.637  0.3942 -0.1822 -0.0074
    1Sil     Ob  763   1.149   2.868  -0.248 -0.9677  0.0993  0.7700
    1Sil     Ob  764   0.381   4.512  -0.430 -0.5686 -0.3731 -0.8640
    1Sil     Ob  765   0.287   0.468   0.513 -0.8483  0.1622  0.4953
    1Sil     Ob  766   0.258   3.801   0.922  0.7094 -0.3062 -0.5980
    1Sil     Ob  767   0.376   3.639   0.525 -0.0433  0.4295 -0.1856
    1Sil     Ob  768   0.454   4.167  -0.119  0.4711 -0.0391  0.0290
    1Sil     Ob  769   0.260   4.035  -0.591  0.0613  0.0627  0.3878
    1Sil     Ob  770  -0.416   2.889  -0.208  0.0270 -0.0272 -0.9972
    1Sil     Ob  771  -0.263   4.431  -0.926 -0.4415  0.7305  0.3232
    1Sil     Ob  772  -0.620   0.252  -0.204 -0.5134  0.0553 -0.1931
    1Sil     Ob  773  -0.581   3.733  -0.292 -0.1716 -1.0636  0.0265
    1Sil     Ob  774   1.124   4.072  -0.776  0.3969  0.1582 -0.6359
    1Sil     Ob  775   0.474   3.240  -0.244  0.8054  0.5532  0.3102
    1Sil     Ob  776   0.580   3.499   0.452  0.0950  0.0155 -0.0028
    1Sil     Ob  777  -0.291   2.848  -0.428  0.3389  0.6311 -0.5113
    1Sil     Ob  778  -0.027   0.351   0.382  0.3247  0.2441  0.5094
    1Sil     Ob  779   1.107   4.331  -0.352 -0.3157 -0.2932  0.5186
    1Sil     Ob  780  -0.420   4.434  -0.395 -0.6303 -0.1912 -0.1542
    1Sil     Ob  781   0.195   3.866   0.074  0.8281 -0.1827  0.0505
    1Sil     Ob  782   0.341   3.318   0.976 -0.1374 -0.5164  0.2281
    1Sil     Ob  783  -0.189   3.110  -0.944  0.0306  0.0249 -0.0409
    1Sil     Ob  784   0.293   0.049   0.564  0.3006 -0.1319  0.1805
    1Sil     Ob  785  -0.562   3.663   0.760 -0.3056  0.9747 -0.0198
    1Sil     Ob  786  -0.095   2.968   0.165 -0.0578 -0.2363  0.0068
    1Sil     Ob  787  -0.751   4.230  -0.179  0.4755  0.0643 -0.4980
    1Sil     Ob  788   0.317   3.550   0.825  0.0187 -0.5798 -0.4330
    1Sil     Ob  789  -0.298   2.727   0.559  0.0992 -0.0133  0.3418
    1Sil     Ob  790   0.379   3.998   0.617  0.5969  0.2416  0.3777
    1Sil     Ob  791   0.132   3.474  -0.106 -0.3071  0.0952 -0.2146
    1Sil     Ob  792   0.795   4.261  -0.943  0.0571  0.6715  0.1551
    1Sil     Ob  793   0.508   2.852  -0.235 -0.3602 -0.1078  0.0015
    1Sil     Ob  794  -0.346   0.445  -1.027 -0.2424 -0.4528 -0.2345
    1Sil     Ob  795  -0.079   3.042  -0.608  0.8994 -0.1824 -0.7833
    1Sil     Ob  796  -0.070   2.803  -0.725 -0.1023  0.2150 -0.0963
    1Sil     Ob  797  -0.435   4.087  -0.726  0.4907  0.0433  0.0073
    1Sil     Ob  798   0.300   3.226  -0.698 -0.1266  0.0860 -0.4778
    1Sil     Ob  799   0.463   4.293  -0.760 -0.2554 -0.3498  0.3269
    1Sil     Ob  800   0.638   4.286   0.005  0.6760  0.1870 -0.2343
    1Sil     Ob  801  -0.318   4.254  -0.265  0.3477  0.4459 -0.2833
    1Sil     Ob  802   0.132   2.739  -0.906 -0.1493  0.1620 -0.0603
    1Sil     Ob  803   0.475   3.214   0.696  0.7281 -0.0186  0.0941
    1Sil     Ob  804   0.151   4.332   0.795 -0.4558 -0.2371  0.1131
    1Sil     Ob  805   0.611   3.127  -0.991  0.6753 -0.5530 -0.4356
    1Sil     Ob  806   0.885   3.452  -0.884 -0.5310  0.2584 -0.1711
    1Sil     Ob  807  -0.271   2.848  -0.873 -0.2924  0.0526 -0.4431
    1Sil     Ob  808   0.375   3.562  -0.779 -0.2567  0.4375  0.1527
    1Sil     Ob  809   0.489   4.430   0.148 -1.1680 -0.1700 -0.0759
    1Sil     Ob  810   0.437   0.105   0.778 -0.2290  0.0709  0.0089
    1Sil     Ob  811  -0.017   3.994   0.387  0.8042  0.0237  0.1412
    1Sil     Ob  812   0.518   3.191   0.398 -0.0212 -0.2488  0.3477
    1Sil     Ob  813   0.326   3.569  -0.511  0.2068  0.1448 -0.1801
    1Sil     Ob  814  -0.011   3.341   0.365  0.4711  0.1380  0.1175
    1Sil     Ob  815  -0.042   3.985   0.148  0.5418  0.1926  0.6730
    1Sil     Ob  816   0.770   2.866  -0.191  0.1231  0.5067  0.0679
    1Sil     Ob  817   0.291   0.635  -0.665  1.0006  0.2262 -0.7485
    1Sil     Ob  818   0.647   3.993   0.320 -0.2556 -0.0000  0.2174
    1Sil     Ob  819   0.196   3.797  -0.361  0.4551  0.5213  0.3609
    1Sil     Ob  820   0.700   2.915   0.045  0.4317 -0.2652  0.2672
    1Sil     Ob  821   0.807   0.576  -0.581  0.2246 -0.2989 -0.3437
    1Sil     Ob  822  -0.323   3.563   0.723  0.0414  0.5469  0.0153
    1Sil     Ob  823   1.144   3.041  -0.978  0.2166 -0.3162  0.0599
    1Sil     Ob  824   0.967   3.910  -0.359 -0.0083  0.3267  0.2617
    1Sil     Ob  825  -0.018   4.436   0.632 -0.2614 -0.3374  0.4150
    1Sil     Ob  826   1.042   4.030   0.902  0.0304  0.6975  0.2548
    1Sil     Ob  827  -0.667   3.146  -0.866 -0.3577  0.4623  0.6971
    1Sil     Ob  828  -0.209   0.385   0.996 -0.4698  0.7158 -0.0800
    1Sil     Ob  829  -0.150   4.347   0.858  0.2866  0.1101 -0.1540
    1Sil     Ob  830   0.021   3.929  -1.138  0.2369 -0.0710 -0.0584
    1Sil     Ob  831   0.827   3.612  -1.057 -0.5459 -0.1329 -0.0234
    1Sil     Ob  832   0.021   0.038  -1.117 -0.2539 -0.0556 -0.7683
    1Sil     Ob  833   0.456   3.968   0.958 -0.0303 -0.0928 -0.1253
    1Sil     Ob  834  -0.082   2.877  -1.046  0.1722 -0.4537 -0.2475
    1Sil     Ob  835  -0.174   4.071  -1.110  0.2091 -0.0803  0.2676
    1Sil     Ob  836   1.428   3.117   0.643  0.5006  0.5119  0.2558
    1Sil     Ob  837   1.245   2.977   0.658  0.3025 -0.2387 -0.0703
    1Sil     Ob  838   1.289   3.224   0.493  0.1346  0.2559 -0.3698
    1Sil     Ob  839  -0.473   3.201   0.861  0.3062  0.1537 -0.6492
    1Sil     Ob  840   1.350   3.345   0.682  0.0976  0.3281  0.3000
    1Sil     Ob  841   1.177   3.475   0.522 -0.1872  0.7744 -0.2863
    1Sil     Ob  842  -1.860   2.638   0.314  0.0514  0.8215  0.1745
    1Sil     Ob  843  -1.334   1.210  -0.215  0.4441  0.6720  0.1236
    1Sil     Ob  844  -1.517   1.904  -0.602  0.5683 -0.5147  0.3714
    1Sil     Ob  845  -1.969   0.952  -0.129 -0.1630 -0.0788 -0.4800
    1Sil     Ob  846  -1.105   2.467  -0.015 -0.0361  0.2788 -0.1914
    1Sil     Ob  847   1.460   2.548   0.786  0.2557 -0.5901  0.2299
    1Sil     Ob  848   1.663   1.127   0.384  0.0498  0.3334  0.2129
    1Sil     Ob  849  -1.918   1.425  -0.358  0.1921  0.5297  0.6716
    1Sil     Ob  850  -0.965   2.438   0.203  0.1597  0.4883  0.7376
    1Sil     Ob  851  -1.139   2.062  -0.347 -0.5217 -0.5583 -0.0451
    1Sil     Ob  852  -1.849   0.842  -1.058 -0.0306 -1.0307 -0.3541
    1Sil     Ob  853  -1.577   1.686   0.758 -0.1198  0.1070 -0.1627
    1Sil     Ob  854  -0.855   0.853   0.037  0.1757  0.0642 -0.5166
    1Sil     Ob  855   1.303   0.669  -0.064  0.3415 -0.5865 -0.1468
    1Sil     Ob  856   1.504   1.966  -0.499  0.1531 -0.8594  0.4013
    1Sil     Ob  857  -1.373   0.907   0.728  0.2745  0.6813  0.2768
    1Sil     Ob  858  -0.926   1.083  -0.566  0.0744 -0.1869  0.1651
    1Sil     Ob  859   2.327   2.376  -0.189 -0.3479  0.0564  0.5938
    1Sil     Ob  860  -0.930   1.092   0.707 -0.2020 -0.7886  0.7003
    1Sil     Ob  861  -1.214   1.509  -0.610 -0.4613  0.0793  0.5230
    1Sil     Ob  862  -0.700   0.882   0.410 -0.0727  0.2273  0.0240
    1Sil     Ob  863  -1.033   0.867   0.559  0.2014 -1.1525  0.4936
    1Sil     Ob  864   1.558   1.009  -0.100  0.4005 -0.1600  0.7523
    1Sil     Ob  865  -1.667   1.695  -0.630 -0.0427 -0.4668 -0.7598
    1Sil     Ob  866  -1.747   0.879  -0.630  0.4767  0.0486 -0.5899
    1Sil     Ob  867  -1.468   1.523  -0.636  0.7763  0.4790  0.0649
    1Sil     Ob  868  -1.947   0.872  -0.810  0.0444 -0.4556 -0.3657
    1Sil     Ob  869   1.301   2.375   0.293  0.1975  0.6575  0.1956
    1Sil     Ob  870   1.649   2.119   0.397 -0.1063 -0.4619  0.1339
    1Sil     Ob  871  -1.331   1.717  -0.731 -0.1862 -1.1061  0.8168
    1Sil     Ob  872  -0.784   1.275  -0.506 -0.2960  0.1149  0.1187
    1Sil     Ob  873   1.564   2.310   0.113  1.0774 -0.0599 -0.1348
    1Sil     Ob  874  -1.041   1.311  -0.550 -0.4232 -0.4397 -0.0758
    1Sil     Ob  875  -1.038   2.336  -0.802  0.2804 -0.3649  0.5381
    1Sil     Ob  876   1.827   2.572  -0.830 -0.1076 -0.5025  0.4977
    1Sil     Ob  877   1.277   2.689  -0.826 -0.0336 -0.1060  0.1438
    1Sil     Ob  878   1.370   1.165   0.017  0.6081 -0.3876 -0.2174
    1Sil     Ob  879  -1.291   2.303   0.200 -0.4112  0.3651 -0.2289
    1Sil     Ob  880  -1.287   1.186   0.373  0.1074  0.2077  0.0470
    1Sil     Ob  881  -0.866   1.272   0.022 -0.2693 -0.0026 -0.3648
    1Sil     Ob  882  -1.952   2.103   0.209  0.8204  1.1624  0.1039
    1Sil     Ob  883   1.878   0.787  -0.227  0.3721  0.1089  0.0759
    1Sil     Ob  884  -1.710   1.094   0.512  0.1814 -0.3439 -0.6164
    1Sil     Ob  885  -1.312   1.939  -0.895 -0.0668  0.3964  0.2441
    1Sil     Ob  886  -1.875   1.437   0.368  0.2320  0.1372 -0.7340
    1Sil     Ob  887   1.305   1.065   0.887  0.2250 -0.2995  0.6969
    1Sil     Ob  888  -1.466   1.247   0.871  0.1745  0.0272 -0.1418
    1Sil     Ob  889   1.247   2.101   0.846  0.2313 -0.3835  0.0253
    1Sil     Ob  890   1.880   2.259  -0.423  0.3370  0.0612 -0.1693
    1Sil     Ob  891  -1.135   1.698   0.795  0.6434  0.1980 -0.2880
    1Sil     Ob  892  -2.198   2.076   0.260  0.3614  0.5773  0.6409
    1Sil     Ob  893  -1.904   2.522  -0.103  0.7852 -0.4195  0.2828
    1Sil     Ob  894  -1.868   1.922   0.847 -0.4864 -0.6078 -0.0429
    1Sil     Ob  895  -1.734   2.376   0.680  0.0078  0.1179  0.0264
    1Sil     Ob  896   1.443   2.262   0.447  0.1565 -0.2617 -0.0690
    1Sil     Ob  897  -1.346   1.749  -0.226 -0.0787  0.4210 -0.1620
    1Sil     Ob  898  -1.548   0.934  -0.743 -0.7363 -0.5718 -0.0983
    1Sil     Ob  899  -1.373   1.562   0.648  0.1986  0.4804 -0.0596
    1Sil     Ob  900   1.566   1.776  -0.659 -0.1781 -0.3479 -0.2081
    1Sil     Ob  901   2.101   2.129  -0.532 -0.1040  0.3924 -0.8011
    1Sil     Ob  902   1.548   2.078   0.035 -0.1030 -0.2882  0.0261
    1Sil     Ob  903  -0.840   1.668  -0.279 -0.2220 -0.1250  0.9628
    1Sil     Ob  904   1.455   2.086   0.695  0.4063  0.7205 -0.0836
    1Sil     Ob  905  -0.953   2.360   0.742  0.1751 -0.2534 -0.0864
    1Sil     Ob  906  -1.059   1.188  -0.078 -0.6691  0.3465 -0.7249
    1Sil     Ob  907  -1.283   1.919  -0.473 -0.1744  0.1316 -0.3064
    1Sil     Ob  908  -0.992   1.966   0.367  0.1770 -0.5025  0.5073
    1Sil     Ob  909  -1.047   2.105  -0.117 -0.1001 -0.2841  0.3354
    1Sil     Ob  910  -1.125   2.125  -0.708  0.1552  0.4415  0.5640
    1Sil     Ob  911  -1.402   2.135  -0.559  0.3740 -0.0783  0.0962
    1Sil     Ob  912  -1.451   1.669   0.263  0.0961  0.2749 -0.5512
    1Sil     Ob  913  -1.876   1.686   0.442 -0.0141 -0.0124  0.3179
    1Sil     Ob  914  -1.138   1.865  -0.071 -0.4545 -0.4845  0.2665
    1Sil     Ob  915   1.901   1.159  -0.488 -0.1738 -1.1067 -0.4631
    1Sil     Ob  916  -1.428   2.155   0.345  0.1045 -0.2681 -0.5715
    1Sil     Ob  917   1.354   0.880  -0.187  0.0052  0.1273 -0.2022
    1Sil     Ob  918  -1.194   2.126   0.364 -0.4842 -0.1566 -0.1317
    1Sil     Ob  919   1.583   1.952  -0.983 -0.3278  0.0722 -1.0592
    1Sil     Ob  920  -1.434   2.139  -1.003  0.2740  0.8182 -0.4546
    1Sil     Ob  921  -2.344   1.351   0.252 -0.0505 -0.9530  0.2248
    1Sil     Ob  922   1.806   1.141  -0.711 -0.2311 -0.0165  0.2544
    1Sil     Ob  923  -1.527   2.020   0.139 -0.0819  0.2739 -0.5509
    1Sil     Ob  924   2.333   1.897  -0.279 -0.1633 -0.3809  0.5469
    1Sil     Ob  925  -0.965   2.001   0.107 -0.8679  0.2376  0.6768
    1Sil     Ob  926  -1.523   2.445   0.546  0.3056  0.0136 -0.2751
    1Sil     Ob  927  -1.015   1.573   0.282 -0.5900 -0.2536 -0.7022
    1Sil     Ob  928   1.407   2.314   0.759 -0.1757  0.2192 -0.1532
    1Sil     Ob  929   1.531   2.454   0.324  0.1194 -0.4689  0.3150
    1Sil     Ob  930   1.873   2.250   0.451  0.0491  1.1237 -0.4689
    1Sil     Ob  931  -1.096   0.746   0.063  0.1677  0.3168 -0.1875
    1Sil     Ob  932   2.171   1.315  -0.584 -0.2045 -0.1906 -0.1840
    1Sil     Ob  933  -1.216   0.897   0.944  0.1494 -0.1808 -0.1059
    1Sil     Ob  934  -2.088   1.253  -0.263 -0.3354  0.6061  0.7656
    1Sil     Ob  935  -0.836   1.227  -0.242 -0.2768  0.5485  0.5779
    1Sil     Ob  936   1.237   2.211   0.615  0.4979  0.1195  0.2335
    1Sil     Ob  937  -1.027   2.494   0.942  0.1458 -0.3464 -0.6729
    1Sil     Ob  938  -1.560   1.239   0.039 -0.2289  0.2355 -0.2702
    1Sil     Ob  939   2.478   1.688  -0.350  0.5540  0.3356 -0.0920
    1Sil     Ob  940   1.405   1.903  -0.087 -0.1603  0.1510 -0.4450
    1Sil     Ob  941  -1.451   2.355   0.959 -0.2996  0.2245  0.1275
    1Sil     Ob  942   2.176   2.344  -0.997  0.1706 -0.3118  1.2707
    1Sil     Ob  943   1.348   1.928  -0.862 -0.6111  0.1516 -0.0552
    1Sil     Ob  944   1.529   1.569  -0.507 -0.1327 -0.3273  0.4867
    1Sil     Ob  945  -1.189   1.733  -0.953  0.5956 -0.0540 -0.5493
    1Sil     Ob  946  -1.787   1.764  -1.032  0.3965 -0.5410 -0.2729
    1Sil     Ob  947  -1.952   0.753   0.810  0.0399 -0.2924 -0.4315
    1Sil     Ob  948  -1.089   0.824  -0.972  0.4817 -0.4946 -0.3958
    1Sil     Ob  949   2.126   1.326  -0.828  0.1419 -0.4467  0.2091
    1Sil     Ob  950   1.477   2.395  -1.021  0.0220  0.1231  0.5583
    1Sil     Ob  951  -1.353   1.658  -0.463 -0.4589 -0.6087 -0.3699
    1Sil     Ob  952  -2.021   1.236   0.595  0.0669  0.2671 -0.3945
    1Sil     Ob  953  -1.087   1.187   0.189  0.3901  0.4862 -1.2082
    1Sil     Ob  954  -1.608   1.828  -0.840  0.5430 -0.0910 -0.2031
    1Sil     Ob  955   1.450   2.129   0.243  0.5532  0.1822 -0.2098
    1Sil     Ob  956  -1.293   2.540   0.905 -0.3785  0.1600  0.2448
    1Sil     Ob  957  -1.075   1.584   0.037 -0.1262  0.0828  0.1700
    1Sil     Ob  958  -2.215   0.782   0.747 -0.2667  0.7062 -0.6518
    1Sil     Ob  959  -1.170   2.292  -0.245 -0.2283 -0.1676  0.3127
    1Sil     Ob  960   1.431   2.597   0.035  0.0059  0.0182  0.2150
    1Sil     Ob  961   1.326   1.394   0.129  0.3313  0.5735 -0.0404
    1Sil     Ob  962   1.659   2.528   0.137 -0.2082 -0.2573 -0.1997
    1Sil     Ob  963   1.916   2.414  -1.046  0.2422 -0.0657 -1.2031
    1Sil     Ob  964   2.159   2.312  -0.375 -0.8000 -0.2051  0.3129
    1Sil     Ob  965  -0.878   2.346  -0.046 -0.3297 -0.2528 -0.4803
    1Sil     Ob  966   1.761   1.931  -0.614 -0.2725  0.1292  0.2329
    1Sil     Ob  967  -1.222   2.687   0.003  0.2185  0.1535  0.1449
    1Sil     Ob  968  -1.137   2.463  -0.429  0.5871  0.0112  0.3381
    1Sil     Ob  969   1.475   2.541  -0.820  0.7239  0.0696 -0.4194
    1Sil     Ob  970  -1.456   1.498   0.053  0.2645 -0.0642  0.5908
    1Sil     Ob  971  -0.925   1.881   0.686  0.4496  0.3227  0.0520
    1Sil     Ob  972   1.269   2.420   0.921  0.3664 -0.0570 -0.6937
    1Sil     Ob  973  -0.979   1.590  -0.925  0.1804 -0.1061  0.1083
    1Sil     Ob  974   1.345   0.846  -0.895  0.1088 -0.0758  0.1510
    1Sil     Ob  975  -1.940   0.761  -0.570 -0.0676 -0.9424 -0.4096
    1Sil     Ob  976  -1.121   1.853  -0.752 -0.2680 -0.7157  0.2034
    1Sil     Ob  977  -1.950   1.023   0.464  0.3990  1.0626  0.1467
    1Sil     Ob  978  -1.552   2.597   0.960 -0.2910  0.3665 -0.7741
    1Sil     Ob  979  -1.537   1.348   0.655  0.0140 -0.5175  0.1899
    1Sil     Ob  980  -1.359   2.136   0.851  0.5037  0.1802  0.6427
    1Sil     Ob  981  -0.776   1.881   0.263  0.3328  0.3569 -0.3120
    1Sil     Ob  982  -0.851   0.646   0.527  0.0111 -0.6335 -0.2326
    1Sil     Ob  983   1.538   0.592  -0.530 -0.8248 -0.2173 -0.4574
    1Sil     Ob  984  -1.812   1.251   0.076  0.0671 -0.2539 -0.2178
    1Sil     Ob  985   1.885   1.021  -0.296 -0.5054 -0.7398 -0.1572
    1Sil     Ob  986   1.476   1.341   0.615  0.3156  0.0359  0.0293
    1Sil     Ob  987  -1.018   1.565  -0.453 -0.8968  0.3467 -0.0902
    1Sil     Ob  988  -1.735   1.024  -0.018 -0.5341 -0.0988 -0.0061
    1Sil     Ob  989   1.278   1.464  -0.333 -0.1638  0.1063 -0.7581
    1Sil     Ob  990   1.531   0.843  -0.590  0.0811  0.4296  0.3391
    1Sil     Ob  991  -1.336   1.892   0.936 -0.3316 -0.5325 -0.3331
    1Sil     Ob  992  -1.791   0.802   0.505  0.0773 -0.4891  0.5158
    1Sil     Ob  993  -0.899   0.829  -0.489 -0.2887 -0.0573  0.1203
    1Sil     Ob  994  -1.979   2.559   0.124 -0.2823  0.0418  0.0229
    1Sil     Ob  995  -0.917   1.249  -0.749  0.1597 -0.1789 -0.1935
    1Sil     Ob  996  -1.638   2.600   0.732  0.2633  0.3593 -0.2446
    1Sil     Ob  997  -1.195   1.377  -0.382 -0.1058 -0.0705  0.4012
    1Sil     Ob  998   1.290   1.874  -0.600  0.0859 -0.1722  0.2565
    1Sil     Ob  999   1.702   0.884   0.120 -0.1872 -0.1649  0.2589
    1Sil     Ob 1000  -1.437   1.013  -0.058  0.2985  0.1405 -0.4610
    1Sil     Ob 1001   1.439   1.260  -0.333 -0.1010 -0.0077  0.1957
    1Sil     Ob 1002   1.939   1.476  -0.753 -0.3956 -0.4868  0.1422
    1Sil     Ob 1003   1.691   1.688  -0.366 -0.6326  0.5555 -0.1402
    1Sil     Ob 1004  -1.978   1.396   0.138 -0.4454  0.0325 -0.3764
    1Sil     Ob 1005   1.893   2.060  -0.105  0.0917  0.6293  0.2988
    1Sil     Ob 1006  -2.137   1.493   0.288  0.6984 -0.3770  0.3546
    1Sil     Ob 1007  -1.377   2.387  -0.374  0.0227 -0.0842  0.2253
    1Sil     Ob 1008  -1.490   2.371  -0.606  0.6996 -0.3525 -0.2588
    1Sil     Ob 1009   1.802   1.909  -0.284 -0.3499 -0.1347  0.3153
    1Sil     Ob 1010  -1.023   2.155   0.555  0.0098 -0.3008 -0.2379
    1Sil     Ob 1011  -1.042   1.545   0.517 -0.4651  0.1390  0.2656
    1Sil     Ob 1012  -1.101   1.342   0.602 -0.1048  0.0958  0.6045
    1Sil     Ob 1013   1.667   1.936  -0.100  0.1630 -0.3040 -0.5364
    1Sil     Ob 1014  -1.220   1.445  -0.143  0.5867 -0.1449 -0.1960
    1Sil     Ob 1015  -1.472   1.027   0.973  0.3358 -0.0986 -0.5165
    1Sil     Ob 1016   1.485   0.801   0.204 -0.2398  0.6085  0.3100
    1Sil     Ob 1017  -1.684   2.466   0.283 -0.0073  0.3720  0.0057
    1Sil     Ob 1018  -1.486   1.759   0.502 -0.0530  0.1970 -0.5314
    1Sil     Ob 1019   1.246   1.504  -0.850  0.1084 -0.1521 -1.0117
    1Sil     Ob 1020  -1.137   0.640   0.978  0.6188 -0.3336 -0.1532
    1Sil     Ob 1021   1.680   0.877   0.488  0.4377 -0.0389  0.2924
    1Sil     Ob 1022  -1.288   1.285   0.050 -0.4580 -0.0621 -0.4756
    1Sil     Ob 1023  -1.761   2.263   0.129 -0.9751 -0.3625  0.0563
    1Sil     Ob 1024  -1.597   1.699   0.051  0.2914 -0.3344 -0.7398
    1Sil     Ob 1025  -1.340   1.237   0.657  0.3141 -0.0309  0.0758
    1Sil     Ob 1026  -1.659   1.247  -0.950  0.1787 -0.3005  0.7319
    1Sil     Ob 1027  -0.949   2.204   0.309 -0.3084  0.0552 -0.3047
    1Sil     Ob 1028   1.736   2.592   0.777 -0.1629 -0.1224  0.5717
    1Sil     Ob 1029  -1.230   1.701   0.398 -0.8409  0.1261  0.5140
    1Sil     Ob 1030  -1.536   0.802   0.552 -0.2591  0.3132 -0.3346
    1Sil     Ob 1031   1.501   1.109  -0.604  0.1037  0.0698 -0.1703
    1Sil     Ob 1032  -1.207   1.436   0.345 -0.5063  0.5335  0.5145
    1Sil     Ob 1033   2.361   2.166  -0.342  0.8558 -0.1551 -0.2992
    1Sil     Ob 1034   1.309   1.924  -0.334 -0.1833  0.4750  0.4382
    1Sil     Ob 1035  -1.762   1.500   0.054 -0.3362 -0.2641 -0.4527
    1Sil     Ob 1036  -0.927   2.284  -0.579 -0.0337 -0.0625 -0.0153
    1Sil     Ob 1037   1.977   0.940  -1.033  0.5104  0.0658  0.5667
    1Sil     Ob 1038  -1.989   1.835   0.629 -0.7333 -0.0585 -0.6039
    1Sil     Ob 1039   1.916   1.903   0.825 -0.2183 -0.2932  0.1250
    1Sil     Ob 1040  -2.038   2.077   0.696  0.2594 -0.0481  0.2560
    1Sil     Ob 1041   1.460   1.616   0.098 -0.4555 -0.5331 -0.2561
    1Sil     Ob 1042  -1.229   1.407   0.810 -0.5736  0.2733  0.1486
    1Sil     Ob 1043  -1.337   0.696  -0.391  0.1467 -0.4297 -0.5812
    1Sil     Ob 1044  -1.500   1.995  -0.357  0.2316 -0.3543 -0.5926
    1Sil     Ob 1045   1.275   2.113  -0.514  0.3738  0.3447  0.4716
    1Sil     Ob 1046  -0.814   1.621   0.127 -0.3227  0.2221  0.8103
    1Sil     Ob 1047  -1.042   1.964  -0.550  0.0345  0.1355 -0.3873
    1Sil     Ob 1048  -2.127   1.488  -0.175 -0.1199  0.4323 -0.1469
    1Sil     Ob 1049  -1.696   2.494   0.032  0.8641 -0.3059 -0.1205
    1Sil     Ob 1050   1.370   1.875   0.748 -0.1429 -0.0346  0.4819
    1Sil     Ob 1051  -2.261   1.690  -0.142  0.4133 -0.1316  0.1018
    1Sil     Ob 1052  -0.998   2.522  -0.621  0.4967  0.0823 -0.0622
    1Sil     Ob 1053  -1.369   2.333   0.708  0.3873 -0.8616 -0.0712
    1Sil     Ob 1054   1.949   1.720  -0.332 -0.4656  0.3904 -0.2245
    1Sil     Ob 1055   1.607   1.448  -0.284  0.8136 -0.2566  0.4308
    1Sil     Ob 1056  -2.386   1.617   0.256  0.0219  0.9400  0.0991
    1Sil     Ob 1057  -1.299   2.294  -0.741  0.3195  0.1069  0.0321
    1Sil     Ob 1058  -0.877   1.921  -0.114 -0.4984  0.0581  0.0398
    1Sil     Ob 1059   1.681   0.698   0.292 -0.4198 -0.2368  0.4706
    1Sil     Ob 1060   1.430   1.986   0.430  0.1482  0.2493 -0.5090
    1Sil     Ob 1061   1.715   1.088   0.663 -0.0515 -0.5411 -0.2961
    1Sil     Ob 1062  -1.857   1.078  -0.972  0.1545 -0.0619  0.1642
    1Sil     Ob 1063  -1.410   0.755  -0.630 -0.4769  0.2318  0.0687
    1Sil     Ob 1064  -0.792   2.436  -0.748  0.0519  0.4086 -0.1464
    1Sil     Ob 1065  -0.879   2.603   0.038 -0.1968 -0.4914  0.4901
    1Sil     Ob 1066  -2.267   0.649   0.940  0.1594 -0.5537  0.1305
    1Sil     Ob 1067   1.584   1.831   0.108  0.0017  0.0017 -0.0299
    1Sil     Ob 1068   1.317   0.964  -0.494 -0.6746 -0.3816 -0.6679
    1Sil     Ob 1069  -1.015   1.117   0.442  0.1688 -0.6664  0.7625
    1Sil     Ob 1070  -1.919   2.134  -0.042 -0.0304  0.3145  0.0103
    1Sil     Ob 1071   1.413   1.321  -0.753 -0.1616 -0.4417  0.1936
    1Sil     Ob 1072   1.288   0.667   0.190  0.1577 -0.2424  0.1155
    1Sil     Ob 1073  -1.300   2.347   0.454  0.5798  0.1085  0.3381
    1Sil     Ob 1074  -1.321   0.922   0.460 -0.2143  0.6049 -0.1987
    1Sil     Ob 1075   1.302   0.639   0.806 -0.5670 -0.1310 -0.1777
    1Sil     Ob 1076  -1.559   0.666  -0.830 -0.5781 -0.1782 -0.2775
    1Sil     Ob 1077   1.442   2.545  -0.363 -0.7125  0.1481 -0.0434
    1Sil     Ob 1078   1.498   1.552  -0.771  0.0278  0.2664  0.3145
    1Sil     Ob 1079  -2.326   0.921   0.892  0.1894  0.1138  0.2421
    1Sil     Ob 1080  -1.743   0.931   0.730  0.5762 -0.2951 -0.2499
    1Sil     Ob 1081   1.539   0.979  -0.361  0.3376  0.7590 -0.2731
    1Sil     Ob 1082  -2.019   2.328   0.052  0.1034  0.1449  0.2198
    1Sil     Ob 1083  -2.485   0.713   0.808 -0.2932 -0.4159 -0.0277
    1Sil     Ob 1084   1.200   0.914  -0.705 -0.4149  0.1244  0.0978
    1Sil     Ob 1085   1.621   0.655   0.053 -0.3325  0.4624 -0.3958
    1Sil     Ob 1086  -1.344   1.742   0.044 -0.5503  0.1062 -0.3935
    1Sil     Ob 1087  -1.368   1.968  -0.073  0.7288 -0.4191  0.2661
    1Sil     Ob 1088  -1.779   1.191   0.740  0.6519 -0.4834 -0.0704
    1Sil     Ob 1089  -1.423   1.331   0.237 -0.8012 -0.1462  0.2963
    1Sil     Ob 1090  -0.999   1.776   0.184  0.4598 -0.6170  0.1415
    1Sil     Ob 1091   1.353   2.227   0.038 -0.3213  0.0571 -0.8768
    1Sil     Ob 1092  -1.704   0.698   0.863  0.5493  0.5072 -0.0159
    1Sil     Ob 1093   1.581   1.148   0.136 -0.4050  0.2071  0.1374
    1Sil     Ob 1094   1.568   1.262  -0.110 -0.4703  0.8053  0.3339
    1Sil     Ob 1095   1.649   2.564  -0.114  0.3420 -0.9185  0.3606
    1Sil     Ob 1096   1.796   2.403  -0.241  0.0827 -0.6196  0.0976
    1Sil     Ob 1097  -1.353   2.465   0.009  0.3927 -0.1609 -0.1909
    1Sil     Ob 1098  -1.248   2.534  -0.214 -0.3467 -0.3953 -0.0670
    1Sil     Ob 1099  -1.338   0.817  -0.866 -0.1712  0.2870 -0.2010
    1Sil     Ob 1100  -2.157   2.544  -0.057 -0.5575 -0.5066 -0.0500
    1Sil     Ob 1101   1.341   2.514   0.490 -0.5330 -0.2081 -0.2530
    1Sil     Ob 1102  -1.066   1.626  -0.206 -0.2516 -0.5465 -0.2390
    1Sil     Ob 1103   1.290   1.539  -0.087 -0.6641 -0.0136 -0.4226
    1Sil     Ob 1104  -1.047   1.074  -0.909  0.2132 -0.1960  0.0601
    1Sil     Ob 1105  -1.399   1.017   0.204  0.3844  0.3313 -0.5066
    1Sil     Ob 1106  -1.144   1.122   0.692  0.6444 -0.0466  1.0789
    1Sil     Ob 1107   1.456   1.744   0.317  0.6539 -0.1366  0.4092
    1Sil     Ob 1108   1.328   2.341  -0.444  0.3561  0.3558  0.3048
    1Sil     Ob 1109   1.833   2.482   0.554 -0.0570 -0.1978  0.2970
    1Sil     Ob 1110  -1.637   0.907   0.349 -0.3209  0.0562  0.0035
    1Sil     Ob 1111  -1.224   1.037   0.036  0.4375  0.4320  0.0511
    1Sil     Ob 1112  -1.456   2.601  -0.485  0.3077 -0.4060 -0.2135
    1Sil     Ob 1113   1.874   1.058   0.486 -0.2909 -0.3209 -0.2256
    1Sil     Ob 1114   1.857   0.767   0.380 -0.2021  0.2042 -0.1593
    1Sil     Ob 1115  -0.972   1.473   0.756 -0.0569 -0.4555  0.1545
    1Sil     Ob 1116   1.857   0.977  -0.058  0.0993 -0.4216  0.5681
    1Sil     Ob 1117   1.871   1.292  -0.920  0.0981 -0.2503  0.1227
    1Sil     Ob 1118   1.339   2.585  -0.597  0.0586 -0.1287 -0.1812
    1Sil     Ob 1119  -0.778   1.499   0.898 -0.0392 -0.3491 -0.1518
    1Sil     Ob 1120   1.252   1.682   0.748  0.3062 -0.1357 -0.0150
    1Sil     Ob 1121  -1.838   1.947   0.471  0.3822 -0.7333  0.4536
    1Sil     Ob 1122   2.432   2.301  -0.994  0.4122 -0.7945 -0.2384
    1Sil     Ob 1123  -1.427   1.361  -0.889 -0.1679 -0.0870  0.8850
    1Sil     Ob 1124  -1.317   2.569   0.576  0.6658 -0.1232 -0.1271
    1Sil     Ob 1125   1.820   1.688   0.752 -0.0021  0.2626 -0.3398
    1Sil     Ob 1126   1.478   2.164  -0.924 -0.2129  0.4831 -0.5522
    1Sil     Ob 1127  -2.066   1.655   0.010 -0.4504  0.2793  0.5026
    1Sil     Ob 1128  -1.019   0.961   0.229 -0.1473 -0.0466 -0.0081
    1Sil     Ob 1129   2.351   2.529  -0.874  0.1156  0.2373  0.3219
    1Sil     Ob 1130  -0.961   0.745   0.298  0.5543 -0.4111  0.3139
    1Sil     Ob 1131   2.380   2.641  -0.172  0.1656 -0.4035  0.2208
    1Sil     Ob 1132   1.583   2.346   0.931 -0.0630 -0.2366  0.2311
    1Sil     Ob 1133  -0.819   1.739  -0.787 -0.6640  0.1509 -0.1236
    1Sil     Ob 1134  -1.415   1.480  -0.282  0.0731  0.0827 -0.2888
    1Sil     Ob 1135   1.989   1.630  -0.545 -0.3973  0.5943 -0.7015
    1Sil     Ob 1136  -1.699   0.736  -0.424  0.2435 -0.1918  0.2730
    1Sil     Ob 1137  -1.765   0.806  -0.170  0.0079 -0.1858 -0.3713
    1Sil     Ob 1138  -1.622   1.039  -0.499  0.2657  0.4377 -0.2021
    1Sil     Ob 1139   1.806   2.667  -0.279 -0.1345 -0.1790 -0.2018
    1Sil     Ob 1140   1.741   2.324   0.269  0.1177  0.0291  0.4280
    1Sil     Ob 1141  -1.628   2.007   0.387  0.1243  0.0050  0.6202
    1Sil     Ob 1142  -1.985   1.893  -0.096 -0.1213  0.5345  0.1134
    1Sil     Ob 1143  -1.782   1.030  -0.288  0.3792  0.2605 -0.2445
    1Sil     Ob 1144  -1.135   2.644   0.747  0.0446 -0.1425 -0.5339
    1Sil     Ob 1145  -0.982   1.415  -0.145  0.0360  0.8468 -0.3439
    1Sil     Ob 1146  -0.970   0.790   0.863  0.4565 -0.2838 -0.4067
    1Sil     Ob 1147  -1.721   1.264  -0.381  0.5184 -0.2919 -0.3374
    1Sil     Ob 1148   1.289   1.788   0.508 -0.1158  0.5527 -0.1463
    1Sil     Ob 1149   1.825   1.102   0.164 -0.3422  0.0587  0.2200
    1Sil     Ob 1150   2.063   2.092  -0.288 -0.4437 -0.1174  0.0794
    1Sil     Ob 1151  -0.870   1.286   0.883 -0.4214  0.3232  0.2701
    1Sil     Ob 1152  -1.392   0.946  -0.295  0.0336  0.6716 -0.4448
    1Sil     Ob 1153  -2.037   0.818   0.584  0.0825 -0.4340 -0.0014
    1Sil     Ob 1154  -2.254   1.498   0.057  0.1815 -0.3304 -0.2372
    1Sil     Ob 1155   1.410   0.627   0.383 -0.0035 -0.4169 -0.5930
    1Sil     Ob 1156   1.793   1.943  -0.865 -0.4233 -0.3274  0.3398
    1Sil     Ob 1157  -1.432   1.922   0.699  0.5991 -0.1337  0.2386
    1Sil     Ob 1158  -1.901   1.483   0.608 -0.3576 -0.0493 -0.1952
    1Sil     Ob 1159   1.730   1.579  -0.629  0.0660  0.2459 -0.3130
    1Sil     Ob 1160  -1.699   1.133   0.244 -0.1315 -0.0089 -0.0210
    1Sil     Ob 1161  -1.939   1.335   0.823  0.4103 -0.3409  0.0790
    1Sil     Ob 1162  -0.957   2.235   0.956 -0.1056  0.0813  0.1028
    1Sil     Ob 1163  -1.185   1.963   0.744  0.3409  0.2076  0.2166
    1Sil     Ob 1164   1.606   1.203  -0.844  0.5042 -0.1929 -0.4798
    1Sil     Ob 1165  -1.664   2.024  -0.978  0.0520 -0.3671  0.3851
    1Sil     Ob 1166   1.879   1.738  -0.752 -0.1291 -0.3764 -0.1718
    1Sil     Ob 1167  -2.004   1.543  -0.979 -0.1061 -0.0371  0.4079
    1Sil     Ob 1168   1.704   1.205  -0.329 -0.0598  0.1951 -0.4707
    1Sil     Ob 1169  -1.364   1.639   0.917  0.2957 -0.2779  0.5683
    1Sil     Ob 1170  -1.974   0.809   0.344  0.1632 -0.2013 -0.0240
    1Sil     Ob 1171   2.055   1.873  -0.500 -0.8297  0.2532  0.6700
    1Sil     Ob 1172   1.651   1.899   0.740 -0.3293 -0.0286 -0.0014
    1Sil     Ob 1173  -1.749   1.663  -0.157 -0.1012  0.2702 -1.2359
    1Sil     Ob 1174   1.930   1.464   0.669  0.2808 -0.0167 -0.6250
    1Sil     Ob 1175  -0.931   2.378   0.477  0.6450 -0.0366 -0.5771
    1Sil     Ob 1176  -0.837   1.160   0.235 -0.7391 -0.1783 -0.1049
    1Sil     Ob 1177   2.044   1.126  -0.688  0.1450 -0.3818  0.5057
    1Sil     Ob 1178   2.011   1.967  -0.719 -0.2055 -0.3169  0.5896
    1Sil     Ob 1179  -1.321   0.682   0.604  0.1685  0.0903  0.2205
    1Sil     Ob 1180  -0.864   0.747  -0.238 -0.1845 -0.1753 -0.6703
    1Sil     Ob 1181   2.419   2.413  -0.419 -0.4978 -0.6653  0.1572
    1Sil     Ob 1182  -1.743   2.552   0.511 -0.0967 -0.5761 -0.0772
    1Sil     Ob 1183  -1.788   1.691   0.911  0.1126 -0.0282 -0.0670
    1Sil     Ob 1184  -1.648   1.540   0.517  0.1722  0.0953  0.2844
    1Sil     Ob 1185  -1.604   2.061  -0.121 -0.1795  0.0167  0.5780
    1Sil     Ob 1186  -1.777   1.954  -0.648 -0.4631  0.1859 -0.0787
    1Sil     Ob 1187   1.605   0.770  -0.224 -0.0174 -0.0330 -0.5841
    1Sil     Ob 1188   1.696   2.328  -0.924  0.1083 -0.6768 -0.0055
    1Sil     Ob 1189   1.393   2.360  -0.189 -0.0986 -0.2320 -0.8546
    1Sil     Ob 1190   1.436   1.650  -0.283 -0.3494  0.0416 -0.3358
    1Sil     Ob 1191  -0.908   1.975  -0.752  0.0215  0.0919  0.1795
    1Sil     Ob 1192  -1.566   1.127  -0.254 -0.0207 -0.4329  0.6750
    1Sil     Ob 1193  -1.441   1.389   0.450  0.2613  0.0404  0.2937
    1Sil     Ob 1194   1.734   0.730  -0.454 -0.0556 -0.1932  0.7251
    1Sil     Ob 1195  -2.032   2.446   0.376 -0.3720 -0.0326 -0.4921
    1Sil     Ob 1196  -0.936   2.220  -0.340 -0.6272  0.8844 -0.3699
    1Sil     Ob 1197   1.593   2.335  -0.391  0.7810 -0.4714  0.2568
    1Sil     Ob 1198  -1.851   1.753   0.065  0.0760  0.3670  1.0946
    1Sil     Ob 1199  -1.695   1.224   0.980 -0.1071 -1.3267  0.7328
    1Sil     Ob 1200   1.755   1.026  -0.936  0.0255 -0.4121  0.4253
    1Sil     Ob 1201  -1.734   2.146   0.593 -0.0166 -0.0179 -0.2375
    1Sil     Ob 1202   1.458   1.557   0.777 -0.2694 -0.0282 -0.5618
    1Sil     Ob 1203  -2.114   0.860   0.156 -0.2085  0.1823 -0.3147
    1Sil     Ob 1204   1.287   2.129  -0.170 -0.1185  0.0870 -0.6916
    1Sil     Ob 1205  -1.729   1.444   0.811 -0.1604 -0.6316  0.2306
    1Sil     Ob 1206   1.730   0.614   0.540 -0.0883 -0.1308 -0.6152
    1Sil     Ob 1207  -1.655   1.893   0.620  0.0736  0.1368 -0.1681
    1Sil     Ob 1208  -1.909   1.359  -0.117  0.1444  0.1426  0.1900
    1Sil     Ob 1209  -1.197   2.170  -0.939  0.5251 -0.2576 -0.4107
    1Sil     Ob 1210  -1.530   0.714  -0.222 -0.6381  0.5334  0.3366
    1Sil     Ob 1211   1.669   2.545  -1.009  0.2179 -0.6173  0.3885
    1Sil     Ob 1212   1.932   0.929  -0.617 -0.0043  0.8467 -0.1392
    1Sil     Ob 1213   1.940   0.693  -0.736  0.2873  0.0654  0.3997
    1Sil     Ob 1214   1.549   2.012  -0.734 -0.2936  0.0255 -0.2203
    1Sil     Ob 1215   2.305   1.132  -0.707 -0.5609 -0.3696 -0.1932
    1Sil     Ob 1216  -1.540   2.180  -0.780  0.3076 -0.2905 -0.5179
    1Sil     Ob 1217  -1.414   2.207  -0.011  0.8305 -0.1300  0.4254
    1Sil     Ob 1218   1.708   2.156  -0.256 -0.2293 -0.6228 -0.1501
    1Sil     Ob 1219  -1.789   0.643  -0.931  0.3681  0.3522 -0.1479
    1Sil     Ob 1220  -1.555   1.111   0.689  0.3296 -0.1491  0.1551
    1Sil     Ob 1221  -1.875   2.231   0.799 -0.1421  0.2892  0.3711
    1Sil     Ob 1222  -1.159   1.295  -0.872  0.0940 -0.3612 -0.1195
    1Sil     Ob 1223   1.808   0.751  -0.945  0.7221  0.1538  0.0787
    1Sil     Ob 1224  -1.662   1.466  -0.783  0.4520  0.1939  0.2110
    1Sil     Ob 1225  -1.521   2.357   0.161 -0.0903  0.2062 -0.5499
    1Sil     Ob 1226  -1.599   2.207   0.804  0.8808  0.0979 -0.6534
    1Sil     Ob 1227  -2.048   1.896   0.385 -0.5504  0.1566 -0.7841
    1Sil     Ob 1228  -1.499   1.089   0.402 -0.2579  0.0753 -0.0816
    1Sil     Ob 1229  -1.688   1.465  -0.513  0.3096 -0.0824 -0.3021
    1Sil     Ob 1230  -2.042   1.249   0.337 -0.0294  0.3194  0.0906
    1Sil     Ob 1231  -2.071   1.871   0.139  0.0558 -0.0966 -0.1813
    1Sil     Ob 1232  -1.272   0.760  -0.158 -0.4566 -0.5794  0.1753
    1Sil     Ob 1233   2.277   2.701  -0.664 -0.4451  0.2927 -0.1295
    1Sil     Ob 1234  -1.397   1.904   0.313 -0.0681 -0.6400  0.3689
    1Sil     Ob 1235   2.210   1.701  -0.399  0.1502 -0.2428 -0.0232
    1Sil     Ob 1236  -1.336   0.809   0.068  0.5010 -0.2014  0.4449
    1Sil     Ob 1237  -1.212   2.668  -0.559  0.3333  0.3316  0.0231
    1Sil     Ob 1238   1.687   1.479   0.709 -0.3034  0.1642 -0.6346
    1Sil     Ob 1239  -0.853   0.953  -0.967  0.4990  0.1513  0.4024
    1Sil     Ob 1240  -1.053   1.827  -0.346  0.0118  0.6767  0.3411
    1Sil     Ob 1241  -2.034   2.331   0.626 -0.1509  0.2368  0.8116
    1Sil     Ob 1242  -0.993   1.947   0.910  0.4065  0.0536 -0.5526
    1Sil     Ob 1243   1.367   1.089  -0.834  0.4398  0.3521  0.0682
    1Sil     Ob 1244   1.816   2.488   0.976  1.0001  0.1869 -0.0900
    1Sil     Ob 1245  -2.181   2.256   0.835 -0.3926 -0.2779  0.2548
    1Sil     Ob 1246  -2.027   1.841  -1.021 -0.3534 -0.2018 -0.2130
    1Sil     Ob 1247  -1.224   1.496  -1.010  0.8703  0.0472 -0.0720
    1Sil     Ob 1248   1.413   2.653  -1.038  0.5506 -0.5277 -0.2241
    1Sil     Ob 1249   2.012   2.135  -1.047 -0.1038 -0.2371  0.4563
    1Sil     Ob 1250  -1.596   1.849   0.970 -0.1405 -0.3841  0.0321
    1Sil     Ob 1251   1.826   1.956  -1.106 -0.6515  0.0355 -0.3328
    1Sil     Ob 1252  -0.795   0.879   0.676 -0.1124  0.1042 -0.0345
    1Sil     Ob 1253  -0.719   1.123   0.519  0.4135 -0.6796  0.0486
    1Sil     Ob 1254   1.573   1.099   0.861  0.0628 -0.0761  0.7107
    1Sil     Ob 1255  -0.663   1.227   0.716  0.4517  0.3947 -1.1278
    1Sil     Ob 1256  -0.834   1.376   0.557 -0.0055 -0.3402  0.0185
    1Sil     Ob 1257  -1.852   0.545   0.281  0.6456 -0.3852  0.2895
    1Sil     Ob 1258  -1.328   3.320  -0.212  0.1666  0.0795 -0.0048
    1Sil     Ob 1259  -1.502   4.003  -0.619 -0.0513 -0.4060  0.3931
    1Sil     Ob 1260   2.101   3.036  -0.111 -0.2096  0.2131  0.2351
    1Sil     Ob 1261  -1.064   0.427  -0.051 -0.2201  0.1297 -0.3270
    1Sil     Ob 1262   1.474   4.628   0.788  0.0579 -0.4633  0.4176
    1Sil     Ob 1263   1.668   3.227   0.393  0.4048 -0.3894  0.1738
    1Sil     Ob 1264  -1.901   3.545  -0.357 -0.4452 -0.8854 -0.2765
    1Sil     Ob 1265  -0.954   4.551   0.180  0.2397 -0.5947  0.3642
    1Sil     Ob 1266  -1.130   4.162  -0.370 -0.1770  0.1890 -0.1728
    1Sil     Ob 1267   2.213   2.916  -1.030  0.5233 -0.6403  0.8909
    1Sil     Ob 1268  -1.576   3.782   0.748 -0.2434  0.2559  0.0432
    1Sil     Ob 1269  -0.863   2.971   0.040  0.2457  0.0846  0.0793
    1Sil     Ob 1270   1.307   2.780  -0.070 -0.1441  0.0789 -0.0527
    1Sil     Ob 1271   1.521   4.041  -0.505  0.3269 -0.3950 -0.4167
    1Sil     Ob 1272  -1.398   3.007   0.756  0.2761  0.3499 -0.1708
    1Sil     Ob 1273  -0.934   3.167  -0.589 -0.4832  0.1169  0.0295
    1Sil     Ob 1274   2.311   4.482  -0.219 -0.2250  0.0461 -0.0574
    1Sil     Ob 1275  -0.926   3.199   0.716 -0.1921 -0.1886  0.1855
    1Sil     Ob 1276  -1.214   3.595  -0.619 -0.1157 -0.5899 -0.7828
    1Sil     Ob 1277  -0.710   2.963   0.412 -0.2202 -0.6654 -0.1451
    1Sil     Ob 1278  -1.035   2.973   0.561  0.2290  0.3524  0.2124
    1Sil     Ob 1279   1.569   3.111  -0.100  0.2387  0.4149 -0.3586
    1Sil     Ob 1280  -1.654   3.786  -0.650  0.4830 -0.1436 -0.5067
    1Sil     Ob 1281   2.311   2.965  -0.568 -0.2651 -0.1661  0.4366
    1Sil     Ob 1282  -1.461   3.613  -0.636  0.3693  0.7172 -0.3300
    1Sil     Ob 1283  -1.908   2.954  -0.771  0.5219  0.0887  0.2966
    1Sil     Ob 1284  -1.105   2.728   0.497 -0.3630  0.2032  0.4633
    1Sil     Ob 1285   1.291   4.457   0.297 -0.1325  0.2540 -0.4003
    1Sil     Ob 1286   1.659   4.201   0.391  0.5188  0.5196  0.3629
    1Sil     Ob 1287  -1.318   3.812  -0.754  0.7836  0.4481 -0.2402
    1Sil     Ob 1288  -0.786   3.361  -0.508 -0.3036 -0.0553  0.0340
    1Sil     Ob 1289   1.571   4.405   0.112  0.5307  0.2254  0.4062
    1Sil     Ob 1290  -1.042   3.405  -0.539 -0.7214  0.4190  0.8339
    1Sil     Ob 1291  -1.042   0.256  -0.813  0.3335  0.1296 -0.2589
    1Sil     Ob 1292   1.840   4.673  -0.853 -0.4148  0.3129  0.5460
    1Sil     Ob 1293   1.290   0.600  -0.868 -0.9123 -0.0216 -0.5845
    1Sil     Ob 1294   1.374   3.250   0.022  0.6483 -0.0723 -0.2253
    1Sil     Ob 1295  -1.339   4.428   0.221 -0.1453 -0.3119  0.2520
    1Sil     Ob 1296   1.305   2.757  -0.406 -0.5197 -0.7968  0.5107
    1Sil     Ob 1297  -1.290   3.280   0.390 -0.1914  0.5100 -0.4762
    1Sil     Ob 1298  -0.862   3.389  -0.005 -0.1870 -0.0108 -0.2126
    1Sil     Ob 1299  -1.942   4.203   0.210 -0.8507 -0.5929  0.1603
    1Sil     Ob 1300   1.907   2.908  -0.246 -0.4599  0.0216  0.2878
    1Sil     Ob 1301  -1.698   3.195   0.516  0.0400  0.3111 -0.1494
    1Sil     Ob 1302  -1.297   4.048  -0.909 -0.1258 -0.1269  0.0022
    1Sil     Ob 1303  -1.863   3.558   0.345  0.7731 -0.2099  0.5850
    1Sil     Ob 1304   1.301   3.226   0.864 -0.2151 -0.6567  0.3061
    1Sil     Ob 1305  -1.462   3.355   0.886  0.0266 -0.3826 -0.7048
    1Sil     Ob 1306   1.255   4.180   0.862 -0.2202 -0.2099 -0.2360
    1Sil     Ob 1307   1.882   4.344  -0.423  0.3045  0.0424 -0.2712
    1Sil     Ob 1308  -1.124   3.798   0.777 -0.1413 -0.5768 -0.3430
    1Sil     Ob 1309  -2.186   4.159   0.257 -0.0518 -0.0605 -0.1251
    1Sil     Ob 1310   1.697   2.765  -0.702 -0.2603  0.1397  0.4455
    1Sil     Ob 1311  -1.933   4.605  -0.127  0.0859  0.1671  0.2512
    1Sil     Ob 1312   1.422   2.722   0.607 -0.3375 -0.0335  0.0568
    1Sil     Ob 1313  -1.841   4.044   0.862 -0.0293  0.1948 -0.3224
    1Sil     Ob 1314  -1.722   0.286   0.662 -0.0965  0.4252 -0.5142
    1Sil     Ob 1315   1.452   4.339   0.441 -0.0771  0.0305  0.3743
    1Sil     Ob 1316  -1.344   3.854  -0.229 -0.0012  0.2353 -0.3873
    1Sil     Ob 1317   2.509   2.996  -0.696 -0.3176 -0.0341 -0.3824
    1Sil     Ob 1318  -1.359   3.666   0.645  0.2679  0.1562 -0.3080
    1Sil     Ob 1319   1.569   3.843  -0.659  0.0079  0.0341  0.1717
    1Sil     Ob 1320   2.082   4.211  -0.563 -0.1406  0.0499 -0.3788
    1Sil     Ob 1321   1.554   4.175   0.027 -0.4137  0.7142  0.0392
    1Sil     Ob 1322  -0.836   3.778  -0.309  0.1387  0.6701  0.0102
    1Sil     Ob 1323   1.448   4.158   0.714 -0.0132 -0.2312  0.0432
    1Sil     Ob 1324  -0.966   4.465   0.716  0.1177  0.2795 -0.1338
    1Sil     Ob 1325  -1.064   3.287  -0.076 -0.5014 -0.2850 -0.2630
    1Sil     Ob 1326  -1.272   4.015  -0.502 -0.0473 -0.1892  0.2273
    1Sil     Ob 1327  -1.014   4.080   0.320 -0.3425 -0.0666  0.0409
    1Sil     Ob 1328  -1.041   4.213  -0.153 -0.1660 -0.1342 -0.0930
    1Sil     Ob 1329  -1.099   4.221  -0.726  0.3244  0.2689  0.0077
    1Sil     Ob 1330  -1.391   4.232  -0.576  0.9240  0.5207 -0.0902
    1Sil     Ob 1331  -1.436   3.759   0.251  1.4169 -0.2330  0.1343
    1Sil     Ob 1332  -1.850   3.801   0.448  0.1132  0.1624 -0.5305
    1Sil     Ob 1333  -1.132   3.964  -0.085  0.0176 -0.7782 -0.2447
    1Sil     Ob 1334   1.861   3.253  -0.509 -0.6705 -0.0690  0.1694
    1Sil     Ob 1335  -1.448   4.241   0.323  0.6335  0.0709 -0.1210
    1Sil     Ob 1336   1.365   2.989  -0.194  0.0975 -0.1473  0.1297
    1Sil     Ob 1337  -1.196   4.249   0.309 -0.3249  0.0978 -0.1925
    1Sil     Ob 1338   1.580   4.002  -0.985  0.3287 -0.3552  0.4865
    1Sil     Ob 1339  -1.422   4.231  -1.034  0.0073 -0.7727  0.0878
    1Sil     Ob 1340  -2.348   3.438   0.229 -0.1820  0.7490 -0.4586
    1Sil     Ob 1341   1.822   3.197  -0.753 -0.3997 -0.4810  0.0323
    1Sil     Ob 1342  -1.524   4.112   0.115 -0.4137 -0.2228  0.5233
    1Sil     Ob 1343   2.345   4.010  -0.285  0.6187  0.3035 -0.5014
    1Sil     Ob 1344  -0.958   4.086   0.075 -0.1803 -0.2426 -0.3072
    1Sil     Ob 1345  -1.509   0.367   0.536 -0.4458 -0.1277  0.5109
    1Sil     Ob 1346  -1.014   3.663   0.276  0.3884  0.3327 -0.6033
    1Sil     Ob 1347   1.413   4.384   0.759 -0.3049  0.5481  0.2174
    1Sil     Ob 1348   1.541   0.334   0.322 -0.4700  0.1650  0.4623
    1Sil     Ob 1349   1.887   4.339   0.440  0.2276 -0.4017  0.7199
    1Sil     Ob 1350  -1.085   2.890   0.029 -0.2499  0.1974 -0.5688
    1Sil     Ob 1351   2.191   3.405  -0.557 -0.0014 -0.0974 -0.3427
    1Sil     Ob 1352  -1.225   2.983   0.959 -0.5302  0.2353  0.0945
    1Sil     Ob 1353  -2.114   3.419  -0.309 -0.0398 -0.3572  0.8577
    1Sil     Ob 1354  -0.842   3.319  -0.251  0.3429 -0.1971  0.4697
    1Sil     Ob 1355   1.232   4.281   0.615  0.7898 -0.6365 -1.4065
    1Sil     Ob 1356  -1.039   4.599   0.928  0.4470 -0.5017 -0.1530
    1Sil     Ob 1357  -1.551   3.346   0.051 -0.1468  0.4483 -0.6667
    1Sil     Ob 1358   2.479   3.801  -0.358 -0.4537  0.1365  0.1504
    1Sil     Ob 1359   1.401   3.998  -0.080  0.0113  0.6026  0.1764
    1Sil     Ob 1360  -1.446   0.251   0.956 -0.6906  0.6327 -0.1754
    1Sil     Ob 1361  -1.878   0.232  -0.987 -0.1454  0.3914  0.2088
    1Sil     Ob 1362   1.350   4.054  -0.857  0.1959  0.2206  0.2125
    1Sil     Ob 1363   1.552   3.640  -0.513 -0.6309  0.1290 -1.0091
    1Sil     Ob 1364  -1.167   3.846  -0.974  0.2909 -0.1743 -0.6882
    1Sil     Ob 1365  -1.779   3.854  -1.044  0.2732 -0.1139  0.0679
    1Sil     Ob 1366   2.099   2.862   0.819  0.2803  0.1402 -0.1604
    1Sil     Ob 1367   1.946   2.705   0.662  0.5527  0.0397 -0.3070
    1Sil     Ob 1368  -1.197   3.010  -0.966 -0.3721  0.0384 -0.6438
    1Sil     Ob 1369   2.149   3.402  -0.824  0.5573  0.1656  0.0700
    1Sil     Ob 1370   1.511   4.426  -1.031 -0.7105 -0.4164  0.1402
    1Sil     Ob 1371  -1.350   3.758  -0.481 -0.1221  0.1119 -0.6438
    1Sil     Ob 1372  -0.990   2.678  -0.401 -0.5929  0.1178 -0.1450
    1Sil     Ob 1373  -2.040   3.345   0.587  0.2047  0.3734 -0.4720
    1Sil     Ob 1374  -1.075   3.302   0.196  0.0273 -0.1497  0.3352
    1Sil     Ob 1375  -1.602   3.928  -0.853  0.9490  0.4264  0.3591
    1Sil     Ob 1376   1.448   4.221   0.231  0.1894  0.0632 -0.1960
    1Sil     Ob 1377  -1.306   0.454   0.907  0.3668 -0.3465 -0.0823
    1Sil     Ob 1378  -1.065   3.667   0.032 -0.2015  0.1302  0.1580
    1Sil     Ob 1379   1.842   2.905   0.750 -0.2896 -0.4108  0.2772
    1Sil     Ob 1380  -1.177   4.392  -0.284  0.1041  0.3722 -0.0187
    1Sil     Ob 1381   1.425   4.679   0.050  0.5896  0.0186  0.0393
    1Sil     Ob 1382   1.336   3.479   0.129 -0.0249  0.0596  0.2258
    1Sil     Ob 1383   1.670   0.424   0.141 -0.0890 -0.6191  0.4653
    1Sil     Ob 1384  -2.123   0.295  -1.052 -0.0268 -0.0916  0.4724
    1Sil     Ob 1385   2.157   4.407  -0.410 -0.2042 -0.6936 -0.2407
    1Sil     Ob 1386  -0.864   4.452  -0.068  0.5663  0.8248 -0.1187
    1Sil     Ob 1387   1.770   3.982  -0.620  0.7136  0.8151  0.0489
    1Sil     Ob 1388  -1.280   0.565   0.008 -0.5785 -0.1267 -0.0679
    1Sil     Ob 1389  -1.151   4.573  -0.446  0.0135 -0.4377  0.1037
    1Sil     Ob 1390   1.451   4.607  -0.883  0.3080  0.3006 -0.7854
    1Sil     Ob 1391  -1.427   3.588   0.043 -0.1148  0.0341  0.3858
    1Sil     Ob 1392  -0.922   3.970   0.682  0.0474 -0.3980  0.2554
    1Sil     Ob 1393   1.282   4.484   0.930 -0.7733  0.7511  0.1936
    1Sil     Ob 1394  -0.965   3.683  -0.937  0.3698  0.1780 -1.0369
    1Sil     Ob 1395   1.340   2.891  -0.960 -0.2242 -0.7479 -0.6003
    1Sil     Ob 1396   2.116   2.846  -0.540 -0.5609 -0.2742 -0.0462
    1Sil     Ob 1397  -1.112   3.965  -0.777  0.4493  0.0370 -0.3647
    1Sil     Ob 1398  -1.938   3.128   0.458 -0.6094 -0.2367  0.1833
    1Sil     Ob 1399  -1.562   0.491   0.968  0.0853  0.2211  0.1137
    1Sil     Ob 1400  -1.529   3.467   0.671 -0.1815  0.3588  0.0407
    1Sil     Ob 1401  -1.342   0.034   0.831  0.3902 -0.6676 -0.5794
    1Sil     Ob 1402  -1.633   2.725   0.371 -0.2324 -0.1276  0.3622
    1Sil     Ob 1403  -0.786   3.986   0.260  0.3736 -0.0056  0.2928
    1Sil     Ob 1404  -0.852   2.734   0.528  0.3302 -0.8431 -0.7689
    1Sil     Ob 1405   1.543   2.711  -0.512 -1.0981  0.3163 -0.4247
    1Sil     Ob 1406  -1.790   3.325   0.044 -0.2474  0.1129 -0.7142
    1Sil     Ob 1407   1.943   3.161  -0.281 -0.6924 -0.2187 -0.6756
    1Sil     Ob 1408   1.448   3.492   0.512  0.1053  0.1901  0.0297
    1Sil     Ob 1409  -1.026   3.656  -0.455  0.9111 -0.7849  0.7123
    1Sil     Ob 1410   2.348   3.109  -0.003  0.1503 -0.0505 -0.4008
    1Sil     Ob 1411   1.287   3.549  -0.343 -0.4488  0.0953 -0.1222
    1Sil     Ob 1412   1.537   2.942  -0.596  0.0153 -0.4205  0.0400
    1Sil     Ob 1413  -1.327   3.999   0.906  0.0966 -0.0948 -0.2713
    1Sil     Ob 1414  -1.782   2.892   0.510  0.4389  0.0090 -0.4201
    1Sil     Ob 1415  -0.924   2.924  -0.474 -0.4440 -0.3923  0.3424
    1Sil     Ob 1416  -1.986   4.649   0.105  0.0762  0.5390 -0.0875
    1Sil     Ob 1417  -0.905   3.359  -0.752 -0.0157 -0.1163  1.4006
    1Sil     Ob 1418  -1.624   0.514   0.718  0.2356  0.0687  0.5293
    1Sil     Ob 1419  -1.209   3.476  -0.385 -0.1784 -0.3049  0.0886
    1Sil     Ob 1420   1.289   4.000  -0.599  0.1191  0.2878  0.1752
    1Sil     Ob 1421   1.705   2.986   0.113 -0.3182 -0.4492 -0.1884
    1Sil     Ob 1422  -1.431   3.123  -0.046  0.3635  0.4768 -0.0286
    1Sil     Ob 1423   1.458   3.361  -0.344  0.1273 -0.0964 -0.1647
    1Sil     Ob 1424   1.957   3.549  -0.755 -0.6327 -0.2520  0.8034
    1Sil     Ob 1425   1.704   3.783  -0.370  0.4633 -0.0477  0.4858
    1Sil     Ob 1426  -1.967   3.492   0.115 -0.4980  0.2195 -0.7890
    1Sil     Ob 1427   1.892   4.161  -0.123  0.0639 -0.0214 -0.1928
    1Sil     Ob 1428  -2.125   3.581   0.274 -0.1157  0.3428 -0.2886
    1Sil     Ob 1429  -1.391   4.488  -0.409 -0.3902 -0.2877 -0.1995
    1Sil     Ob 1430  -1.490   4.467  -0.639 -0.4346  0.0812 -0.2251
    1Sil     Ob 1431   1.781   4.012  -0.298 -0.4478  0.2301 -0.0850
    1Sil     Ob 1432  -1.037   4.271   0.512 -0.0442  0.1007 -0.0425
    1Sil     Ob 1433  -1.026   3.639   0.514  0.6727 -0.5679  0.4106
    1Sil     Ob 1434  -1.085   3.437   0.599 -0.4457 -0.2922 -0.2339
    1Sil     Ob 1435   1.666   4.034  -0.107  0.2189  0.1364 -0.5094
    1Sil     Ob 1436  -1.217   3.560  -0.156 -0.3661  0.3255 -0.1839
    1Sil     Ob 1437  -1.478   3.128   0.999  0.2645  0.1299  0.1595
    1Sil     Ob 1438   1.483   2.907   0.195 -0.1000 -0.1196 -0.6408
    1Sil     Ob 1439  -1.654   0.403   0.242  0.3358 -0.2600  0.1071
    1Sil     Ob 1440  -1.472   3.847   0.496 -0.1021  0.0872  0.0645
    1Sil     Ob 1441   1.296   3.609  -0.846  0.2396 -0.0330 -0.1651
    1Sil     Ob 1442  -1.152   2.724   0.982  0.1854  0.0047 -0.1749
    1Sil     Ob 1443  -2.087   2.699   0.272  0.2633  0.4750 -0.0063
    1Sil     Ob 1444   1.683   2.988   0.488  0.0377  0.9231  0.1793
    1Sil     Ob 1445  -1.280   3.386   0.045 -0.0859  0.3602 -0.4967
    1Sil     Ob 1446  -1.768   4.388   0.116 -0.0045  0.0560  0.5774
    1Sil     Ob 1447  -1.583   3.778   0.039 -0.2749 -0.3925 -0.1300
    1Sil     Ob 1448  -1.329   3.331   0.667  0.5124 -0.3965 -0.1776
    1Sil     Ob 1449  -1.609   3.328  -0.927  0.3326  0.6173  0.1930
    1Sil     Ob 1450  -0.949   4.324   0.282 -0.0539 -0.0164 -0.5601
    1Sil     Ob 1451  -2.318   0.472   0.766 -0.2456  0.7768 -0.2815
    1Sil     Ob 1452  -1.217   3.791   0.396 -0.3703 -0.5704 -1.1387
    1Sil     Ob 1453  -1.528   2.868   0.564  0.4087  0.0059  0.0195
    1Sil     Ob 1454   1.515   3.190  -0.632  0.7803  0.2848  0.9128
    1Sil     Ob 1455  -1.195   3.528   0.346  0.7927 -0.5659  0.3072
    1Sil     Ob 1456   2.376   4.266  -0.363  0.2296  0.0764  0.1697
    1Sil     Ob 1457   1.306   4.026  -0.336  0.0676  0.1616  0.5462
    1Sil     Ob 1458  -1.755   3.588   0.015  0.7242 -0.2695 -0.0599
    1Sil     Ob 1459  -0.881   0.195  -0.620 -0.0284  0.4712 -0.0240
    1Sil     Ob 1460   2.034   3.051  -0.941 -0.5785 -0.2928  0.3879
    1Sil     Ob 1461  -1.960   3.946   0.644 -0.5834  0.0431 -0.0243
    1Sil     Ob 1462   1.942   4.032   0.838 -0.5310 -0.2155  0.6788
    1Sil     Ob 1463  -2.004   4.188   0.693  0.2011 -0.5031 -0.3730
    1Sil     Ob 1464   1.467   3.704   0.089  0.5179 -0.7382 -0.2491
    1Sil     Ob 1465  -1.218   3.516   0.803  0.4781  0.4544 -0.0667
    1Sil     Ob 1466  -1.347   2.846  -0.436  0.2041  0.2533 -0.3261
    1Sil     Ob 1467  -1.487   4.102  -0.372 -0.5588  0.0726  0.4029
    1Sil     Ob 1468   1.306   4.223  -0.522  0.6707  0.4093  0.3555
    1Sil     Ob 1469  -0.813   3.717   0.117 -0.5180 -0.0980 -0.7994
    1Sil     Ob 1470  -1.020   4.045  -0.570  0.2795 -0.0633  0.2592
    1Sil     Ob 1471  -2.059   3.623  -0.165  0.4652  0.2114  0.1700
    1Sil     Ob 1472  -1.712   4.622  -0.008  0.5564  0.3177  0.1989
    1Sil     Ob 1473   1.418   3.922   0.737 -0.1938 -0.3607 -0.3240
    1Sil     Ob 1474  -2.239   3.797  -0.158  0.1756 -0.5089 -0.1693
    1Sil     Ob 1475  -0.999   0.442  -0.645  0.1304  0.0317 -0.1160
    1Sil     Ob 1476  -1.374   0.255   0.719  0.3209 -0.2592 -0.3866
    1Sil     Ob 1477   1.961   3.836  -0.344 -0.4388  0.3929  0.4569
    1Sil     Ob 1478   1.639   3.545  -0.282 -0.3429  0.8478  0.1780
    1Sil     Ob 1479  -2.367   3.703   0.230 -0.0574  0.0358  0.1631
    1Sil     Ob 1480  -1.295   4.377  -0.755 -0.1026 -0.0306 -0.1311
    1Sil     Ob 1481  -0.881   4.016  -0.144 -0.1569  0.7207 -0.6275
    1Sil     Ob 1482   1.665   2.804   0.298 -0.2052  0.0334  0.2439
    1Sil     Ob 1483   1.428   4.077   0.429  0.1050  0.4216  0.9489
    1Sil     Ob 1484   1.748   3.172   0.663 -0.6513 -0.3451 -0.2951
    1Sil     Ob 1485  -1.750   3.132  -0.937  0.3561 -0.0443 -0.1529
    1Sil     Ob 1486   2.637   2.757  -0.675  0.5591  0.1416 -0.2647
    1Sil     Ob 1487  -0.811   0.377  -0.807  0.4569 -0.2481 -0.4793
    1Sil     Ob 1488  -0.839   0.501   0.006 -0.0197  0.3375 -0.2006
    1Sil     Ob 1489   1.778   2.778   0.942 -0.5692  0.3719 -0.1318
    1Sil     Ob 1490   1.598   3.929   0.107 -0.2419  0.1148 -0.4663
    1Sil     Ob 1491   1.326   3.068  -0.529  0.2584 -0.0135  0.4631
    1Sil     Ob 1492  -1.003   3.222   0.442  0.9316 -0.8707  0.0703
    1Sil     Ob 1493  -1.915   4.237  -0.049  0.1462  0.5446  0.1069
    1Sil     Ob 1494   1.418   3.384  -0.786  0.3316  0.1915  0.5915
    1Sil     Ob 1495   1.288   2.770   0.179 -0.4532  0.3008 -0.2565
    1Sil     Ob 1496  -1.318   0.196   0.478  0.3387  0.0759 -0.4263
    1Sil     Ob 1497  -1.325   3.028   0.493 -0.8872 -0.2424  0.6057
    1Sil     Ob 1498   1.299   2.767   0.797  0.2126  0.6774  0.0593
    1Sil     Ob 1499   2.432   2.775  -0.844 -0.0365  0.5101  0.0085
    1Sil     Ob 1500   1.426   0.438  -0.388 -0.2730  0.1301  0.0910
    1Sil     Ob 1501   1.548   3.612  -0.779  0.0749  0.2469  0.0640
    1Sil     Ob 1502   1.693   3.034   0.893  0.2181 -0.1964 -0.2508
    1Sil     Ob 1503  -1.755   3.039   0.743 -0.0311  0.1436  0.3324
    1Sil     Ob 1504   1.535   3.086  -0.372  0.6066  0.2025 -0.0171
    1Sil     Ob 1505  -2.031   4.418   0.039 -0.8450  0.3554  0.0332
    1Sil     Ob 1506   1.567   2.830   0.781 -0.2751  0.4791 -0.0042
    1Sil     Ob 1507   1.218   2.979  -0.745 -0.0574  0.5023 -0.2894
    1Sil     Ob 1508   1.623   2.761   0.039  0.2485 -0.1130 -0.0117
    1Sil     Ob 1509  -1.331   3.833   0.031  0.0534 -0.1062 -0.6681
    1Sil     Ob 1510  -1.371   4.056  -0.084  0.3031 -0.0757  0.2034
    1Sil     Ob 1511  -1.772   3.306   0.724  0.1894  0.3900 -0.1348
    1Sil     Ob 1512  -1.418   3.438   0.246  0.1766  0.7511 -0.1487
    1Sil     Ob 1513  -1.003   3.867   0.180  0.1848 -0.1501 -0.3734
    1Sil     Ob 1514   1.358   4.323   0.026 -0.2420 -1.0855  0.3646
    1Sil     Ob 1515  -1.716   2.798   0.890  0.0672  0.0129 -0.0394
    1Sil     Ob 1516   1.585   3.234   0.141 -0.5671 -0.5630 -0.7144
    1Sil     Ob 1517   1.570   3.362  -0.103 -0.1547 -0.1705  0.2429
    1Sil     Ob 1518   1.640   0.447  -0.096  0.8313  0.3702  0.0833
    1Sil     Ob 1519   1.781   4.479  -0.228 -0.4742 -0.4137 -0.2783
    1Sil     Ob 1520  -1.271   0.315   0.013  0.0065  0.4669 -0.4635
    1Sil     Ob 1521  -1.262   4.622  -0.213 -0.2507 -0.0142  0.3278
    1Sil     Ob 1522  -1.409   2.882  -0.885 -0.0098 -0.0179 -0.5160
    1Sil     Ob 1523  -2.168   4.626  -0.062 -0.0861 -0.1814 -0.3263
    1Sil     Ob 1524   1.366   4.597   0.490 -0.2882 -0.5190  0.0870
    1Sil     Ob 1525  -1.053   3.725  -0.213 -0.5644 -0.5184 -0.3541
    1Sil     Ob 1526   1.298   3.620  -0.102  0.5757  0.5366 -0.9317
    1Sil     Ob 1527  -1.055   3.214  -0.905  0.0551  0.0301  0.2280
    1Sil     Ob 1528  -1.375   3.072   0.232 -0.0434  0.6620  0.3516
    1Sil     Ob 1529  -1.131   3.230   0.693  0.4667  0.5127 -0.0465
    1Sil     Ob 1530   1.479   3.834   0.321 -0.2140 -0.2195  0.1355
    1Sil     Ob 1531   1.331   4.440  -0.459  0.0959 -0.0297 -0.4137
    1Sil     Ob 1532   1.832   0.377   0.536 -0.2765  0.3871  0.3563
    1Sil     Ob 1533  -1.638   2.988   0.368 -0.0213 -0.2892 -0.0285
    1Sil     Ob 1534  -1.216   3.141   0.054 -0.0091 -0.3958  0.3914
    1Sil     Ob 1535  -1.475   4.705  -0.526 -0.4819  0.3201  0.5855
    1Sil     Ob 1536   1.886   3.165   0.451 -0.4970  0.3621 -0.2585
    1Sil     Ob 1537   1.864   2.873   0.392  0.4334  0.3651  0.1776
    1Sil     Ob 1538  -0.955   3.577   0.751  0.0819  0.3030 -0.0501
    1Sil     Ob 1539   1.862   3.069  -0.052  0.1027  0.2847 -0.1846
    1Sil     Ob 1540   1.901   3.380  -0.937 -0.5208 -0.1945 -0.2821
    1Sil     Ob 1541   1.341   4.677  -0.636  0.2688  0.4399  0.0939
    1Sil     Ob 1542  -0.763   3.597   0.898 -0.3904 -0.2449  0.3131
    1Sil     Ob 1543   1.308   3.728   0.717 -0.6092  0.1268 -0.1535
    1Sil     Ob 1544  -1.826   4.055   0.474  0.2171 -0.0554  0.5399
    1Sil     Ob 1545  -1.620   0.182  -1.005  0.6689 -0.6106 -0.5595
    1Sil     Ob 1546  -1.402   3.490  -0.896 -0.3063 -0.0442 -0.5852
    1Sil     Ob 1547  -1.260   0.436   0.549 -0.1103 -0.4848  1.1349
    1Sil     Ob 1548   1.827   3.821   0.748 -0.3813  0.2455 -0.5403
    1Sil     Ob 1549   1.529   4.230  -0.920  0.2983 -0.3103  0.1851
    1Sil     Ob 1550  -2.074   3.789   0.015  0.0376  0.2980  0.5804
    1Sil     Ob 1551  -1.019   3.074   0.219 -1.0471  0.3246 -0.0482
    1Sil     Ob 1552  -1.687   0.411  -0.874 -0.4758 -0.6388  0.3493
    1Sil     Ob 1553  -0.974   2.843   0.291  0.5325 -0.4851  0.2655
    1Sil     Ob 1554  -1.742   0.544  -0.251 -0.3434  0.0745  0.4530
    1Sil     Ob 1555   1.598   4.419   0.928 -0.0481  0.3265  0.0338
    1Sil     Ob 1556  -0.810   3.847  -0.803  0.3656 -0.1242  0.2578
    1Sil     Ob 1557  -1.411   3.593  -0.291 -0.5515 -0.0621  0.2609
    1Sil     Ob 1558   2.014   3.712  -0.556 -0.9052 -0.1493 -0.0421
    1Sil     Ob 1559   2.327   2.757  -0.398 -0.1152 -0.5236 -0.0878
    1Sil     Ob 1560   2.293   2.891  -0.163  0.7654 -0.4039  0.1962
    1Sil     Ob 1561  -1.603   3.143  -0.473 -0.4490 -0.5248 -0.1598
    1Sil     Ob 1562   1.781   0.546  -0.270  0.2562  0.3154 -0.1469
    1Sil     Ob 1563   1.759   0.206   0.253  0.5342 -0.3233 -0.2759
    1Sil     Ob 1564  -1.622   4.085   0.363  0.6420  0.2706 -0.0680
    1Sil     Ob 1565  -1.971   3.994  -0.106 -0.1959  0.3240  0.0277
    1Sil     Ob 1566   2.289   3.123  -0.268 -0.0032  0.2168 -0.2941
    1Sil     Ob 1567  -1.138   0.558   0.738 -0.0511  0.0194  0.4253
    1Sil     Ob 1568  -0.984   3.507  -0.161  0.3300 -0.2001  0.2132
    1Sil     Ob 1569  -0.976   2.880   0.877 -0.7683 -0.4163  0.0311
    1Sil     Ob 1570  -1.712   3.360  -0.361 -0.3876  0.1723  0.3323
    1Sil     Ob 1571   1.305   3.860   0.502 -0.4229 -0.0537  0.2275
    1Sil     Ob 1572   1.824   3.193   0.170  0.1900  0.2717  0.2292
    1Sil     Ob 1573   2.071   4.182  -0.307  0.1359  0.2728  0.2830
    1Sil     Ob 1574  -0.872   3.383   0.906  0.4015  0.4032 -0.9238
    1Sil     Ob 1575  -1.366   3.061  -0.286 -0.2531 -0.4713 -0.3692
    1Sil     Ob 1576  -2.027   2.927   0.590 -0.5121 -0.1159  0.3649
    1Sil     Ob 1577  -2.244   3.600   0.031  0.1852  0.3300  0.1277
    1Sil     Ob 1578   1.404   2.739   0.377 -0.0990  0.1532  0.2680
    1Sil     Ob 1579   1.805   3.991  -0.869  0.1881 -0.4607 -0.0810
    1Sil     Ob 1580  -1.424   4.022   0.674 -0.0966 -0.0150  0.2131
    1Sil     Ob 1581  -1.888   3.567   0.594  0.4863  0.0490  0.0527
    1Sil     Ob 1582   1.761   3.656  -0.624  0.7190  0.1786 -0.0680
    1Sil     Ob 1583  -1.697   3.217   0.245  0.3000  0.6163 -0.2228
    1Sil     Ob 1584  -1.948   3.437   0.812  0.0755  0.1497  0.4214
    1Sil     Ob 1585  -0.979   4.333   0.936 -0.7085  0.1129 -0.7189
    1Sil     Ob 1586  -1.173   4.051   0.717  0.4444  0.3487 -0.5192
    1Sil     Ob 1587   1.630   3.263  -0.882  0.2731  0.7784  0.5919
    1Sil     Ob 1588  -1.651   4.121  -1.001  0.3311  0.2431  0.1719
    1Sil     Ob 1589   1.907   3.812  -0.746  0.0315  0.6762 -0.4709
    1Sil     Ob 1590  -1.974   3.623  -0.987 -0.5786 -0.4803  1.3071
    1Sil     Ob 1591   1.715   3.299  -0.305 -0.0845  0.2737 -0.3602
    1Sil     Ob 1592  -1.360   3.750   0.902  0.1379  0.4099 -0.4866
    1Sil     Ob 1593  -1.958   2.908   0.343  0.4001  0.0739 -0.8469
    1Sil     Ob 1594   2.076   3.971  -0.521  0.6721  0.2138  0.2941
    1Sil     Ob 1595   1.673   4.033   0.778 -0.1559  1.0321 -0.2364
    1Sil     Ob 1596  -1.737   3.767  -0.169 -0.5054 -0.2240 -0.2022
    1Sil     Ob 1597   1.924   3.589   0.654 -0.2868 -0.2707 -0.1575
    1Sil     Ob 1598  -0.929   4.490   0.455 -0.8746  0.1343  0.1907
    1Sil     Ob 1599  -0.826   3.261   0.219  0.4604 -0.3758  0.7381
    1Sil     Ob 1600   2.067   3.215  -0.676  0.5578  0.1299  0.1002
    1Sil     Ob 1601   2.009   4.044  -0.728 -0.1196  0.0017  0.4416
    1Sil     Ob 1602  -1.292   2.818   0.646  0.1570  0.4447  0.1957
    1Sil     Ob 1603  -0.892   2.858  -0.214 -0.3455 -0.1055  0.4233
    1Sil     Ob 1604   2.400   4.514  -0.450 -0.2870  0.7874 -0.1636
    1Sil     Ob 1605  -1.726   0.469   0.488  0.2212 -0.3218  0.0685
    1Sil     Ob 1606  -1.776   3.810   0.909 -0.4156  0.4163  1.1219
    1Sil     Ob 1607  -1.633   3.630   0.506  0.1413  0.1860 -0.0769
    1Sil     Ob 1608  -1.578   4.180  -0.139 -0.1190  0.3541  0.0775
    1Sil     Ob 1609  -1.768   4.036  -0.667 -0.0229  0.1133 -0.0474
    1Sil     Ob 1610   1.636   2.890  -0.223  0.1547 -0.3665  0.3453
    1Sil     Ob 1611   1.735   4.405  -0.925  0.3328 -0.3094 -0.1255
    1Sil     Ob 1612   1.392   4.455  -0.203  1.0668 -0.1092  0.0558
    1Sil     Ob 1613   1.464   3.729  -0.281 -0.4273 -0.4447  0.1487
    1Sil     Ob 1614  -0.879   4.086  -0.763 -0.1875  0.1930  0.3188
    1Sil     Ob 1615  -1.553   3.231  -0.238  0.0081 -0.9127  0.0676
    1Sil     Ob 1616  -1.428   3.482   0.462 -0.0974 -0.2145  0.0783
    1Sil     Ob 1617   1.748   2.849  -0.456 -0.3833  0.2073 -0.1324
    1Sil     Ob 1618  -2.027   0.354   0.356 -0.3237 -0.0076  0.3055
    1Sil     Ob 1619  -0.916   0.142  -0.364  0.6695 -0.2060 -0.0222
    1Sil     Ob 1620   1.593   4.432  -0.396 -0.1131  0.1471 -0.0247
    1Sil     Ob 1621  -1.839   3.839   0.063  0.4836  0.2552 -0.2338
    1Sil     Ob 1622  -1.701   3.328   0.961 -0.2311 -0.3750 -0.1501
    1Sil     Ob 1623   1.827   3.107  -1.003 -0.0404 -0.3113 -0.8301
    1Sil     Ob 1624  -1.700   0.057   0.574 -0.2543 -0.2282 -0.9790
    1Sil     Ob 1625   1.498   3.563   0.752  0.4574  0.0185 -0.0720
    1Sil     Ob 1626  -2.109   2.940   0.160 -0.6731  0.1615 -0.0340
    1Sil     Ob 1627   1.282   4.224  -0.176  0.6094  0.2019 -0.1104
    1Sil     Ob 1628  -1.734   3.558   0.807  0.7103 -0.4794  0.2129
    1Sil     Ob 1629   1.728   2.725   0.531  0.4905  0.1078  0.0760
    1Sil     Ob 1630  -1.646   3.999   0.608  0.1295 -0.8289 -0.0342
    1Sil     Ob 1631  -1.919   3.439  -0.124 -0.4271  0.4464  0.0361
    1Sil     Ob 1632  -1.185   4.276  -0.955 -0.2516  0.8437  0.1943
    1Sil     Ob 1633   2.536   2.849  -0.234  0.1794 -0.2057 -0.2292
    1Sil     Ob 1634   1.680   4.611  -1.039 -0.1662  0.2165 -0.5506
    1Sil     Ob 1635   1.930   3.016  -0.625 -0.0137 -0.4266  0.1626
    1Sil     Ob 1636   1.959   2.770  -0.720 -0.0694 -0.3956 -0.5924
    1Sil     Ob 1637   1.576   4.081  -0.737 -0.3704  0.2404 -0.1803
    1Sil     Ob 1638   2.323   3.213  -0.683 -0.8881  0.0458  0.0473
    1Sil     Ob 1639  -1.527   4.253  -0.803  0.4174 -0.1110 -0.5768
    1Sil     Ob 1640  -1.383   4.287   0.002 -0.6420  0.0291  0.1038
    1Sil     Ob 1641   1.693   4.249  -0.261 -0.1354  0.0406  0.6145
    1Sil     Ob 1642   2.186   2.719  -0.931  0.0707 -0.0235  0.3500
    1Sil     Ob 1643  -1.550   3.214   0.707  0.4611  0.0179  0.0858
    1Sil     Ob 1644  -1.866   4.344   0.784 -0.2905 -0.6236  0.7461
    1Sil     Ob 1645  -1.465   3.122  -0.962 -0.7139  0.2871 -0.1796
    1Sil     Ob 1646  -1.137   3.428  -0.875 -0.7158  0.2930 -0.5996
    1Sil     Ob 1647   1.825   2.857  -0.897 -0.8344 -0.1568 -0.3722
    1Sil     Ob 1648  -1.646   3.547  -0.782  0.1618 -0.1157 -0.6569
    1Sil     Ob 1649  -1.526   4.483   0.051 -0.1834  0.0651  0.0969
    1Sil     Ob 1650  -1.590   0.118   0.805  0.0284 -0.3058  0.9990
    1Sil     Ob 1651  -2.035   4.001   0.397  0.4468  0.1050 -0.1712
    1Sil     Ob 1652  -1.497   3.182   0.394 -0.1758 -0.7834  0.0593
    1Sil     Ob 1653  -1.683   3.575  -0.510 -0.6716 -0.1782  0.2772
    1Sil     Ob 1654  -2.021   3.341   0.326 -0.4436 -0.1069 -0.6169
    1Sil     Ob 1655  -2.051   3.984   0.142  0.1723 -0.3581 -0.2474
    1Sil     Ob 1656  -1.253   2.850  -0.189  0.2568 -0.2821 -0.3937
    1Sil     Ob 1657  -1.741   0.618  -0.672 -0.3440 -0.3728 -0.2258
    1Sil     Ob 1658  -1.385   3.996   0.306  0.3129  0.6994  0.1366
    1Sil     Ob 1659   2.213   3.809  -0.400  0.1709 -0.0360  0.2014
    1Sil     Ob 1660  -1.317   2.916   0.042  0.5485  0.2416 -0.3924
    1Sil     Ob 1661  -1.214   0.577  -0.581  0.1289  0.1117  0.0869
    1Sil     Ob 1662   1.673   3.649   0.622 -0.2820  0.2096  0.7469
    1Sil     Ob 1663  -0.911   3.011  -0.954  0.1583  0.2629 -0.0366
    1Sil     Ob 1664  -1.070   3.905  -0.362  0.3121  1.1270 -0.5395
    1Sil     Ob 1665  -2.021   4.437   0.604  0.3988  0.2849 -0.2042
    1Sil     Ob 1666  -1.001   4.052   0.897  0.1768  0.0841  0.2996
    1Sil     Ob 1667   1.380   3.151  -0.879  0.5658  0.4282  0.0831
    1Sil     Ob 1668  -2.235   0.375   0.970 -0.5141  0.5038  0.1269
    1Sil     Ob 1669  -2.172   4.361   0.818  0.4533  0.7129  0.2825
    1Sil     Ob 1670  -2.017   3.920  -1.014 -0.3218  0.0420  0.2512
    1Sil     Ob 1671  -1.207   3.606  -1.028 -0.1082  0.1108  0.0594
    1Sil     Ob 1672  -2.047   0.017  -1.042 -0.2371 -0.0241  0.2954
    1Sil     Ob 1673  -1.573   3.963   0.949 -0.2747  0.1830 -0.3787
    1Sil     Ob 1674   1.988   2.865  -1.086 -0.2438  0.4730  0.1494
    1Sil     Ob 1675   1.828   4.016  -1.105  0.3867  0.2561 -0.1087
    1Sil     Ob 1676  -0.794   2.974   0.683  0.4588 -0.3051 -0.0646
    1Sil     Ob 1677  -0.710   3.208   0.517 -0.3964  0.3619 -0.5591
    1Sil     Ob 1678   1.556   3.242   0.827  0.0933 -0.3698  0.0261
    1Sil     Ob 1679  -0.663   3.316   0.722 -0.6834  0.3088  0.2807
    1Sil     Ob 1680  -0.821   3.459   0.548 -0.4863  0.1124  0.1558
    1Sil     Ob 1681   0.931   0.634   0.484  0.3719 -0.2818 -0.3356
    1Sil     Ob 1682  -0.717   0.665  -0.454 -0.4197  0.4074 -0.7982
    1Sil     Ob 1683  -0.289   0.665  -0.699 -0.5565  0.0590  0.1985
    1Sil     Ob 1684  -0.606   0.617   0.619 -0.5878 -0.5966  0.4670
    1Sil     Ob 1685  -0.071   0.590   0.664  0.0786  0.0291 -1.0199
    1Sil     Ob 1686   1.030   0.575  -0.416 -0.3780  0.2059  0.3478
    1Sil     Ob 1687   0.384   0.634   0.364 -0.5910  0.2816 -0.0386
    1Sil     Ob 1688  -0.076   0.602   0.264  0.4849 -0.5257 -0.4808
    1Sil     Ob 1689  -1.100   0.632   0.482  0.6537 -0.0616 -0.0030
    1Sil     Ob 1690   1.298   0.655  -0.425  0.5689 -0.4329 -0.3536
    1Sil     Ob 1691   1.682   0.676  -0.722 -0.5723 -0.1414  0.5679
    1Sil     Ob 1692   1.426   0.605   0.613 -0.2325 -0.2579  0.7409
    1Sil     Ob 1693  -2.105   0.573   0.662 -0.3339 -0.2006 -0.1141
    1Sil     Ob 1694  -0.985   0.588  -0.423  0.0984 -0.0614  0.6049
    1Sil     Ob 1695  -1.636   0.655   0.352  0.0919 -0.3308 -0.4041
    1Sil     Ob 1696  -2.092   0.604   0.246 -0.4448  0.2118  0.3921
    1Sil     Ob 1697  -0.806   0.918  -0.715  0.3052  0.5488 -0.7868
    1Sil     Ob 1698  -0.819   2.972  -0.717  0.0393 -0.1625  0.1607
    1Sil     Ob 1699  -0.591   0.985   0.663  0.6761  0.2539  0.6281
    1Sil     Ob 1700  -0.592   3.081   0.665  0.0464 -0.0951  0.1660
    1Sil     Cm 1701   1.055   1.064   0.997  0.2174  0.3355  0.3886
    1Sil     Cm 1702   0.418   1.551  -1.003  0.0662 -0.1946 -0.0490
    1Sil     Cm 1703  -0.202   1.498   0.960  0.2696 -0.4178 -0.3703
    1Sil     Cm 1704   0.774   2.008  -1.168 -0.2472  0.2060 -0.3620
    1Sil     Cm 1705  -0.518   2.011   0.982  0.2608 -0.4092  0.0494
    1Sil     Cm 1706  -0.669   1.717   0.995 -0.7734  0.5360 -0.4324
    1Sil     Cm 1707  -0.266   1.801   1.036 -0.3633 -0.2688 -0.5168
    1Sil     Cm 1708   1.044   1.270  -1.002  0.2918 -0.1149  0.2100
    1Sil     Cm 1709   0.134   1.745  -0.832 -0.3117  0.0589  0.1968
    1Sil     Cm 1710  -0.510   1.426  -1.006 -0.0203  1.0510 -0.3226
    1Sil     Cm 1711   0.481   1.849  -1.120 -0.1721  0.0759 -0.0158
    1Sil     Cm 1712   0.202   2.570   0.922  1.4346  0.4800 -0.1989
    1Sil     Cm 1713   0.599   0.763   0.973 -0.2038 -0.2348 -0.1437
    1Sil     Cm 1714  -0.480   0.700  -0.970  0.1217 -0.5087 -0.2945
    1Sil     Cm 1715  -0.398   2.222  -1.140 -0.1788 -0.0227  0.2884
    1Sil     Cm 1716   1.190   2.056   1.108 -0.0854  0.5636 -0.1870
    1Sil     Cm 1717   0.656   2.502   1.161 -0.2161 -0.6906 -0.0900
    1Sil     Cm 1718   0.729   0.729  -1.109 -0.1304  0.0861  0.6566
    1Sil     Cm 1719   0.649   1.805   1.148  0.8915  1.1124  0.4038
    1Sil     Cm 1720   0.310   2.516  -1.125 -0.2908  0.0620 -0.1708
    1Sil     Cm 1721   0.953   1.005  -1.163  0.2926 -0.4013  0.1474
    1Sil     Cm 1722   1.200   1.675  -1.043  0.0277 -0.2122 -0.0766
    1Sil     Cm 1723   0.899   1.608  -1.167 -0.0215 -0.2826 -1.3765
    1Sil     Cm 1724   0.380   1.153  -1.181 -0.3126  0.0298  0.5229
    1Sil     Cm 1725   0.566   1.260   1.164  0.3587 -0.0279 -0.3266
    1Sil     Cm 1726   0.050   2.308  -1.226  0.6639  0.1534 -0.3937
    1Sil     Cm 1727   1.024   1.438   1.040 -0.3537 -0.0479 -0.7688
    1Sil     Cm 1728   0.206   1.828   1.106  0.0113 -0.1596  0.3918
    1Sil     Cm 1729  -0.496   1.379   0.916 -0.5922  0.5756 -0.0635
    1Sil     Cm 1730   0.196   0.694  -1.212  0.1280 -0.1553  0.3443
    1Sil     Cm 1731  -0.725   0.737  -1.106  0.1243 -0.0986  0.2637
    1Sil     Cm 1732   0.433   1.540   1.027  0.0546 -0.0654  0.1893
    1Sil     Cm 1733  -0.230   2.262   1.100  0.1674  0.3983  0.3008
    1Sil     Cm 1734   0.001   1.952  -1.258 -0.2835  0.2371 -0.0464
    1Sil     Cm 1735   0.227   0.901   1.002 -0.0310 -0.2044 -0.3071
    1Sil     Cm 1736  -0.437   2.618   1.067  0.2091 -0.2902 -0.2666
    1Sil     Cm 1737  -0.225   1.158   0.911  0.2240  0.0606 -0.0383
    1Sil     Cm 1738   1.308   0.815   0.987  0.1197 -0.2652  0.1667
    1Sil     Cm 1739   0.995   0.775   1.138  0.7693 -0.3049  0.1829
    1Sil     Cm 1740  -0.314   1.728  -0.992 -0.2703 -0.0013 -0.7476
    1Sil     Cm 1741   0.671   2.908  -1.157 -0.0750 -0.3430  0.1735
    1Sil     Cm 1742   1.084   3.191   0.967 -0.0021  0.7996 -0.5341
    1Sil     Cm 1743   0.389   3.567  -1.047 -0.0648  0.0871 -0.6192
    1Sil     Cm 1744  -0.197   3.606   0.969  0.3904  0.5036 -0.0179
    1Sil     Cm 1745   0.744   4.104  -1.148 -0.1650 -0.1213 -0.2742
    1Sil     Cm 1746  -0.531   4.103   0.974 -0.4655 -0.2407  0.0558
    1Sil     Cm 1747  -0.640   3.799   0.972  0.0732 -0.1720 -0.0509
    1Sil     Cm 1748   0.103   3.176  -1.015  0.7306  0.4682 -0.2271
    1Sil     Cm 1749   0.748   3.387  -1.112 -0.2349 -0.4222  0.3226
    1Sil     Cm 1750  -0.274   3.929   1.022 -0.2751  0.2371 -0.7138
    1Sil     Cm 1751   1.106   3.401  -1.052 -0.2748  0.0084 -0.0288
    1Sil     Cm 1752  -0.524   3.515  -1.018  0.0553  0.0843  0.2332
    1Sil     Cm 1753   0.347   3.929  -1.070  0.4440 -0.8951  0.1056
    1Sil     Cm 1754   0.221   0.450   0.907 -0.2725 -0.9648  0.1808
    1Sil     Cm 1755   0.604   2.872   0.959  0.4775  0.2940  0.1494
    1Sil     Cm 1756  -0.855   2.743  -1.103 -0.3830 -0.3950 -0.1252
    1Sil     Cm 1757  -0.344   4.294  -1.160  0.3485  0.4568  1.2519
    1Sil     Cm 1758   1.163   4.126   1.110 -0.0596 -0.0480 -0.4676
    1Sil     Cm 1759   0.662   0.385   1.166 -0.1033  0.6334  0.0229
    1Sil     Cm 1760   0.659   3.906   1.146 -0.3819  0.5670  0.6281
    1Sil     Cm 1761   0.362   0.423  -1.149  0.6306  0.2025  0.4448
    1Sil     Cm 1762   0.984   3.128  -1.174  0.5073  0.1555  0.8570
    1Sil     Cm 1763   1.292   3.802  -1.048  0.1349  0.2540 -0.6804
    1Sil     Cm 1764   0.974   3.798  -1.197 -0.3649 -0.8504 -0.4304
    1Sil     Cm 1765  -0.587   0.447  -1.163  0.3039 -0.3275 -0.0515
    1Sil     Cm 1766   0.430   3.229  -1.159 -1.2278  0.3761 -0.1662
    1Sil     Cm 1767   0.551   3.349   1.162  0.0131 -0.3217  0.3022
    1Sil     Cm 1768   0.078   0.243  -1.272  0.1632  0.6855 -0.3033
    1Sil     Cm 1769   1.045   3.604   1.026  0.4422  0.0330 -0.4568
    1Sil     Cm 1770   0.230   3.992   1.107  0.2505  0.4885  0.2248
    1Sil     Cm 1771  -0.489   3.479   0.907 -0.1384  0.5041 -0.8754
    1Sil     Cm 1772   0.090   2.738  -1.176  0.1321 -0.1741 -0.0492
    1Sil     Cm 1773   0.443   3.637   1.029 -0.8438  0.2473  0.4004
    1Sil     Cm 1774  -0.258   0.150   1.119  0.4048 -0.1585  0.0202
    1Sil     Cm 1775  -0.057   4.086  -1.352 -0.7476 -0.6203  0.0848
    1Sil     Cm 1776   0.211   3.021   1.001  0.3570  0.1495 -0.2942
    1Sil     Cm 1777  -0.433   0.522   1.067  0.5367 -0.8803  0.3791
    1Sil     Cm 1778  -0.223   3.259   0.905  0.5135  0.1706 -0.5005
    1Sil     Cm 1779   1.342   2.962   0.963  0.1676  0.3556 -0.1048
    1Sil     Cm 1780   1.006   2.900   1.120 -0.2047  0.2843 -0.4868
    1Sil     Cm 1781  -0.324   2.948  -1.102 -0.1069 -0.3365 -0.1671
    1Sil     Cm 1782  -0.986   1.099   0.984 -0.7267 -0.0030 -0.1298
    1Sil     Cm 1783  -1.612   1.491  -1.050 -0.3002 -0.5906 -0.5235
    1Sil     Cm 1784   1.863   1.494   0.943 -0.0321  0.0622  1.2187
    1Sil     Cm 1785  -1.234   2.029  -1.156  0.5098 -0.3953 -0.2816
    1Sil     Cm 1786   1.519   2.021   0.956 -0.0736 -1.2553 -0.6288
    1Sil     Cm 1787   1.388   1.702   0.985  0.0547 -0.6214 -0.0634
    1Sil     Cm 1788  -1.291   1.260  -1.095  0.2933  0.7210 -0.5052
    1Sil     Cm 1789   1.741   1.777   0.996  0.4800  0.1955  0.3870
    1Sil     Cm 1790  -0.906   1.276  -1.027 -0.1974  0.1818 -0.2466
    1Sil     Cm 1791  -1.901   1.711  -0.845 -0.6287  0.0437 -0.1083
    1Sil     Cm 1792   1.453   1.422  -1.004  0.3047  0.1308 -0.3978
    1Sil     Cm 1793  -1.533   1.823  -1.092 -0.0107  0.3199  0.1703
    1Sil     Cm 1794  -1.801   2.544   0.923 -0.6419  0.4525 -0.9423
    1Sil     Cm 1795  -1.435   0.772   0.959 -0.0597  0.7479  0.0910
    1Sil     Cm 1796   1.500   0.707  -1.016 -1.6707 -0.1258 -0.2856
    1Sil     Cm 1797  -1.629   1.063  -1.117  0.3591  0.2836 -0.5644
    1Sil     Cm 1798   1.609   2.204  -1.160  0.5534  0.0243  0.6339
    1Sil     Cm 1799  -0.857   2.054   1.129  0.3260 -0.6672 -0.0777
    1Sil     Cm 1800  -1.389   2.514   1.163  0.4004  0.5179 -0.2075
    1Sil     Cm 1801  -1.306   0.776  -1.149  0.2629  1.4072  0.0853
    1Sil     Cm 1802  -1.389   1.781   1.160  0.1392  0.5860  0.4328
    1Sil     Cm 1803   2.355   2.493  -1.134  0.2397  0.4841 -0.2344
    1Sil     Cm 1804  -1.028   0.994  -1.187 -0.3105  0.1394  0.3688
    1Sil     Cm 1805  -0.745   1.692  -1.050 -0.2629  0.4585 -0.3793
    1Sil     Cm 1806  -1.074   1.637  -1.166  0.0849 -0.4885  0.4813
    1Sil     Cm 1807  -1.807   1.254  -1.162  0.4319  0.1571  0.0364
    1Sil     Cm 1808  -1.445   1.254   1.128  0.1238  0.1340 -0.3449
    1Sil     Cm 1809   2.067   2.304  -1.227  0.0008  0.1211 -0.4371
    1Sil     Cm 1810  -1.002   1.469   1.035  0.8359 -0.3364  0.5368
    1Sil     Cm 1811  -1.843   1.850   1.126 -0.3940 -0.4453 -0.4294
    1Sil     Cm 1812   1.547   1.368   0.910 -0.3295 -0.0177 -0.8325
    1Sil     Cm 1813  -1.644   0.716  -1.175  0.1977  0.0892 -0.1823
    1Sil     Cm 1814  -1.930   0.613  -1.174 -0.2738 -1.1509 -0.5669
    1Sil     Cm 1815   1.261   0.726  -1.106  0.4193 -0.2957 -0.4292
    1Sil     Cm 1816  -1.623   1.532   1.022 -0.0851 -0.1255  0.1948
    1Sil     Cm 1817   1.804   2.242   1.092  0.7023 -0.3243 -0.2219
    1Sil     Cm 1818  -2.005   1.963  -1.260 -0.6291 -0.2492 -0.7151
    1Sil     Cm 1819  -1.839   0.896   0.990  0.4616 -0.2665  0.1798
    1Sil     Cm 1820   1.591   2.612   1.068  0.2632  0.3316 -0.1065
    1Sil     Cm 1821   1.829   1.159   0.906  0.1123 -0.1498 -0.2043
    1Sil     Cm 1822  -0.719   0.834   0.989 -0.6717 -0.1841 -1.0080
    1Sil     Cm 1823  -1.021   0.797   1.154 -0.0004 -0.6687  0.3604
    1Sil     Cm 1824   1.759   0.897  -1.168  0.3273  0.0342  0.0663
    1Sil     Cm 1825   1.718   1.724  -1.023 -0.1580 -0.1079  0.1779
    1Sil     Cm 1826  -1.389   2.929  -1.140  0.1865  0.2030 -0.3694
    1Sil     Cm 1827  -0.987   3.179   0.990 -0.6052  0.5707 -0.7519
    1Sil     Cm 1828  -1.610   3.555  -1.040 -0.6792 -0.2100 -0.4927
    1Sil     Cm 1829   1.773   3.601   0.883 -0.5227  0.3098  0.2191
    1Sil     Cm 1830  -1.226   4.104  -1.166  0.4910  0.3985  0.1009
    1Sil     Cm 1831   1.473   4.068   0.990 -0.1000  0.4223  0.0107
    1Sil     Cm 1832   1.455   3.725   0.937  0.1597  0.1206 -0.0009
    1Sil     Cm 1833  -1.272   3.371  -1.110 -0.0258  0.0337  0.5892
    1Sil     Cm 1834   1.780   3.909   1.006  0.6533  0.1937  0.5417
    1Sil     Cm 1835  -0.905   3.394  -1.027 -0.6798 -0.5445  0.0566
    1Sil     Cm 1836  -1.876   3.783  -0.843  0.4997 -0.3859  0.4559
    1Sil     Cm 1837   1.480   3.508  -1.035  0.6030 -0.1551 -0.6945
    1Sil     Cm 1838  -1.525   3.910  -1.120 -0.0599 -0.5465 -0.2749
    1Sil     Cm 1839  -1.829   0.460   0.899  1.2900 -0.3822 -0.6015
    1Sil     Cm 1840  -1.435   2.876   0.972  0.5413 -0.0878 -1.1232
    1Sil     Cm 1841   1.160   2.724  -1.067 -0.2723 -0.2295  0.5787
    1Sil     Cm 1842   1.659   4.264  -1.169 -0.5079 -0.1109 -0.3693
    1Sil     Cm 1843  -0.870   4.159   1.101  0.8155 -0.1161  0.0298
    1Sil     Cm 1844  -1.399   0.412   1.157  0.1177  0.4758  0.3120
    1Sil     Cm 1845  -1.387   3.896   1.146 -0.5581  0.1329  0.1217
    1Sil     Cm 1846  -1.694   0.380  -1.152  0.4530  0.7722 -0.4175
    1Sil     Cm 1847  -1.044   3.122  -1.180 -0.5926  0.3512 -0.1341
    1Sil     Cm 1848  -0.734   3.784  -1.034 -0.3632  0.2964 -0.0107
    1Sil     Cm 1849  -1.047   3.737  -1.184  0.0795  0.2871 -0.3545
    1Sil     Cm 1850   1.417   4.622  -1.169  0.4712  0.0530  0.2327
    1Sil     Cm 1851  -1.639   3.231  -1.168 -0.6580 -0.1439  0.0117
    1Sil     Cm 1852  -1.491   3.355   1.154 -0.0027  0.5806 -0.1186
    1Sil     Cm 1853  -1.951   0.183  -1.250  0.1480  0.0421  0.6182
    1Sil     Cm 1854  -1.008   3.601   1.036 -0.6725  0.6551  0.1850
    1Sil     Cm 1855  -1.800   3.963   1.132  0.8486  0.0634  0.0218
    1Sil     Cm 1856   1.651   3.426   0.606 -0.0160  1.0604 -0.1169
    1Sil     Cm 1857   2.198   2.756  -1.220  0.1656 -1.0202  0.3368
    1Sil     Cm 1858  -1.619   3.634   1.017 -0.0998 -0.5640 -0.2032
    1Sil     Cm 1859  -2.254   0.127   1.087  0.4790 -0.3524 -0.5570
    1Sil     Cm 1860  -2.010   4.047  -1.263  0.4919 -0.3529  0.4197
    1Sil     Cm 1861  -1.839   3.025   1.000  0.1743  0.4356  1.1109
    1Sil     Cm 1862  -2.464   0.500   1.053 -0.9643 -0.3641  0.6628
    1Sil     Cm 1863   1.801   3.264   0.902  0.1918 -0.2392 -0.0132
    1Sil     Cm 1864  -0.718   2.941   1.000  0.6668 -0.1516  0.4104
    1Sil     Cm 1865  -1.044   2.901   1.167  0.4375  0.6109  0.3666
    1Sil     Cm 1866   1.740   3.766  -1.032 -0.1608 -0.9748 -0.9310
    1Sil     Cm 1867   0.819   0.553  -0.920  0.8073  1.0233  0.3831
    1Sil     Cm 1868  -1.234   0.565  -0.947 -0.6681  0.9109 -0.5220
    1Sil    Sib 1869   0.814   2.690   0.590  0.3375  0.3671 -0.2903
    1Sil    Sib 1870   0.695   1.342   0.364 -0.1594 -0.1345  0.4991
    1Sil    Sim 1871   1.124   2.082   0.946 -0.2529  0.3974 -0.3008
    1Sil    Sib 1872   0.992   2.118   0.377 -0.3989 -0.1598 -0.4738
    1Sil    Sib 1873   0.112   0.863   0.486 -0.0690  0.1400 -0.0125
    1Sil    Sib 1874   1.049   0.843   0.149  0.0173 -0.5191  0.4515
    1Sil    Sim 1875   0.656   0.896   0.919  0.1206  0.4937  0.0436
    1Sil    Sib 1876   0.019   1.397  -0.213  0.2642 -0.1250 -0.0321
    1Sil    Sib 1877   0.621   1.089  -0.198  0.0615  0.2677 -0.1188
    1Sil    Sib 1878   0.686   1.319  -0.923 -0.1472  0.4472 -0.0245
    1Sil    Sib 1879   0.722   1.388  -0.249 -0.1623 -0.2087  0.2060
    1Sil    Sib 1880   1.054   0.730   0.458 -0.2434  0.2144  0.3258
    1Sil    Sim 1881   0.966   1.217  -0.855  0.0174 -0.1371  0.2410
    1Sil    Sib 1882  -0.500   1.140  -0.011  0.1830 -0.0074  0.4561
    1Sil    Sib 1883   0.383   1.573  -0.624 -0.1142 -0.4163 -0.1400
    1Sil    Sib 1884   1.016   1.973  -0.058 -0.5665 -0.1341 -0.4444
    1Sil    Sim 1885  -0.579   1.449  -0.843 -0.3166 -0.0741 -0.0755
    1Sil    Sib 1886   0.654   2.427   0.566  0.2380 -0.4033  0.1469
    1Sil    Sib 1887   0.732   1.825  -0.082 -0.4323 -0.0859 -0.2747
    1Sil    Sib 1888  -0.668   1.845   0.384 -0.1602 -0.5488  0.2699
    1Sil    Sib 1889  -0.429   1.923  -0.602 -0.5558  0.2413 -0.1513
    1Sil    Sim 1890  -0.290   2.619   0.942 -0.2880 -0.3195 -0.3811
    1Sil    Sib 1891   0.394   0.768   0.451 -0.0979 -0.1006  0.2669
    1Sil    Sim 1892   0.610   2.505   1.004 -0.2610  0.1466  0.3724
    1Sil    Sib 1893   0.902   1.569   0.402 -0.3403 -0.0960 -0.0809
    1Sil    Sib 1894  -0.695   2.560  -0.750 -0.3186 -0.0956  0.1767
    1Sil    Sib 1895   0.762   1.574   0.796  0.1294 -0.0887  0.1293
    1Sil    Sib 1896   0.681   1.036   0.382  0.1601  0.4408  0.2576
    1Sil    Sib 1897  -0.538   2.113   0.390 -0.2672  0.2613 -0.3985
    1Sil    Sim 1898   0.785   0.725  -0.966 -0.2756 -0.1504 -0.4590
    1Sil    Sim 1899   0.716   2.062  -1.020 -0.0111  0.4504 -0.1689
    1Sil    Sib 1900   0.286   2.333  -0.336 -0.3487 -0.1633 -0.1297
    1Sil    Sim 1901   0.606   1.800   0.992  0.4671 -0.0652 -0.3925
    1Sil    Sib 1902   0.942   1.516  -0.107  0.2418 -0.3697 -0.2290
    1Sil    Sib 1903   0.044   1.746  -0.420 -0.1159 -0.4694 -0.5818
    1Sil    Sim 1904   0.094   1.728  -0.960 -0.2517 -0.0959  0.1081
    1Sil    Sib 1905   0.597   2.006  -0.492 -0.6549  0.0067 -0.0625
    1Sil    Sib 1906   0.679   1.622  -0.600 -0.4004 -0.2630  0.0058
    1Sil    Sib 1907   0.012   2.217  -0.393  0.2633  0.0169 -0.0489
    1Sil    Sib 1908  -0.782   1.815   0.666 -0.2332 -0.3980  0.1259
    1Sil    Sib 1909  -0.475   1.945   0.010 -0.1890 -0.5223 -0.1143
    1Sil    Sib 1910  -0.689   2.177   0.744 -0.0276 -0.1347 -0.3632
    1Sil    Sib 1911   0.780   2.414  -0.325  0.2172 -0.0972 -0.1021
    1Sil    Sib 1912   0.575   1.649   0.117  0.1387  0.2741  0.1127
    1Sil    Sib 1913   1.081   2.401  -0.715 -0.5070  0.3007  0.3249
    1Sil    Sib 1914  -0.757   1.238   0.119  0.3933 -0.4345  0.5262
    1Sil    Sib 1915   1.091   1.915   0.223  0.1215  0.2316 -0.1315
    1Sil    Sib 1916  -0.002   2.243   0.753 -0.0071  0.4870 -0.5046
    1Sil    Sib 1917  -0.399   0.776   0.178 -0.0271 -0.1921  0.3233
    1Sil    Sib 1918   0.334   1.072   0.677 -0.0643 -0.7878  0.3560
    1Sil    Sib 1919   0.812   0.730  -0.029  0.2073  0.3071 -0.2527
    1Sil    Sib 1920   1.143   2.365   0.305  0.1804 -0.0198 -0.1551
    1Sil    Sib 1921   0.377   2.498   0.607 -0.3577  0.1935 -0.1928
    1Sil    Sib 1922   0.600   2.270   0.817  0.5903  0.5873  0.2932
    1Sil    Sim 1923   0.280   2.431  -0.980  0.4375  0.0575 -0.6855
    1Sil    Sib 1924  -0.545   2.018  -0.861 -0.2937  0.1286  0.5006
    1Sil    Sib 1925   1.204   2.246  -0.475  0.6672  0.0385  0.0603
    1Sil    Sib 1926   1.047   1.632   0.158 -0.0431 -0.0616  0.0657
    1Sil    Sib 1927   0.377   1.880  -0.673 -0.2237 -0.3063  0.0581
    1Sil    Sim 1928   0.362   1.888  -0.999  0.2295  0.1375 -0.1452
    1Sil    Sib 1929  -0.638   2.658  -0.467  0.4111 -0.0397  0.3907
    1Sil    Sib 1930  -0.431   1.290  -0.260  0.5248 -0.0702  0.1754
    1Sil    Sib 1931   1.091   1.233  -0.572  0.0504 -0.3990 -0.1714
    1Sil    Sib 1932   0.965   2.169  -0.287  0.0968  0.0086 -0.2583
    1Sil    Sib 1933  -0.738   2.676   0.067  0.2532 -0.4265 -0.3009
    1Sil    Sib 1934   0.403   1.048   0.384  0.1304 -0.1341  0.4202
    1Sil    Sib 1935   0.591   2.247  -0.692 -0.3558 -0.0203 -0.4725
    1Sil    Sib 1936  -0.648   0.761   0.302  0.2993  0.1593 -0.0432
    1Sil    Sib 1937   0.940   2.594  -0.519 -0.4259 -0.3252  0.4055
    1Sil    Sim 1938   0.355   2.642   0.880  0.1758 -0.3724 -0.1595
    1Sil    Sim 1939  -0.457   2.274  -1.002 -0.4450 -0.1777 -0.1535
    1Sil    Sib 1940  -0.255   1.489   0.209  0.0591 -0.1524  0.0932
    1Sil    Sim 1941   0.993   0.953  -0.986  0.0234  0.0116 -0.5333
    1Sil    Sib 1942   1.100   2.380   0.882 -0.5219 -0.4345  0.3211
    1Sil    Sib 1943  -0.298   1.044   0.514 -0.2265 -0.0479 -0.4146
    1Sil    Sim 1944   1.155   1.113   0.879  0.5154 -0.3743 -0.5336
    1Sil    Sib 1945  -0.772   0.801  -0.110 -0.0020  0.2745  0.4396
    1Sil    Sib 1946  -0.292   0.749   0.451  0.4870 -0.1462  0.0827
    1Sil    Sib 1947  -0.450   2.606   0.051 -0.5642  0.0222 -0.2752
    1Sil    Sib 1948  -0.128   1.605  -0.643  0.0080  0.0889 -0.2581
    1Sil    Sib 1949  -0.696   1.533   0.073  0.4548  0.3890 -0.3333
    1Sil    Sib 1950  -0.423   1.610  -0.629  0.1385  0.5505  0.3224
    1Sil    Sib 1951  -0.092   1.091  -0.627 -0.0007 -0.8939  0.3682
    1Sil    Sib 1952   0.549   0.785  -0.780  0.2760  0.2402 -0.0800
    1Sil    Sib 1953  -0.505   0.907  -0.213  0.2278 -0.1142  0.0325
    1Sil    Sib 1954  -0.147   1.587  -0.055  0.3153  0.3919 -0.3414
    1Sil    Sib 1955   0.607   1.344   0.090  0.2891  0.4969  0.0581
    1Sil    Sib 1956  -0.014   1.148   0.481 -0.3502 -0.0505 -0.4189
    1Sil    Sib 1957   1.068   1.428   0.608  0.5243  0.5250  0.1977
    1Sil    Sib 1958   0.298   1.663   0.022 -0.0155 -0.0435 -0.0500
    1Sil    Sib 1959  -0.552   2.196   0.116 -0.0969  0.1999 -0.0891
    1Sil    Sib 1960   0.262   0.737  -0.531  0.2944 -0.0381 -0.3324
    1Sil    Sib 1961   0.044   1.806   0.030  0.2200  0.1829  0.3635
    1Sil    Sib 1962   0.897   1.443  -0.493 -0.5022 -0.2040  0.2102
    1Sil    Sib 1963  -0.035   1.991   0.252 -0.2406 -0.0519  0.4316
    1Sil    Sib 1964  -0.294   0.779   0.859  0.2023  0.1279 -0.3082
    1Sil    Sib 1965   1.100   2.285   0.587 -0.1510 -0.1979 -0.1513
    1Sil    Sib 1966   1.007   1.039   0.604  0.2519  0.0002  0.3149
    1Sil    Sib 1967  -0.585   2.416   0.869  0.3638 -0.0921  0.0955
    1Sil    Sib 1968   0.831   1.272   0.698  0.1218 -0.6556 -0.3794
    1Sil    Sib 1969   0.646   1.759   0.377  0.3738 -0.2548  0.1902
    1Sil    Sim 1970   1.153   1.617  -0.899 -0.2648 -0.0319 -0.4389
    1Sil    Sib 1971   0.962   1.970  -0.725  0.2297  0.2931  0.0651
    1Sil    Sib 1972  -0.154   1.169  -0.339  0.0956 -0.0403 -0.1867
    1Sil    Sib 1973  -0.735   1.970  -0.165  0.0844 -0.0583  0.0531
    1Sil    Sib 1974   1.233   1.881  -0.754 -0.4590 -0.8169 -0.0860
    1Sil    Sib 1975   0.235   0.962  -0.126  0.0829  0.0000  0.0405
    1Sil    Sib 1976   0.310   1.760  -0.270 -0.3855 -0.3103  0.3226
    1Sil    Sib 1977  -0.721   1.571  -0.232 -0.1092  0.3462  0.2589
    1Sil    Sib 1978  -0.482   1.693   0.196  0.2543 -0.4290  0.6107
    1Sil    Sib 1979   0.570   2.059  -0.013  0.0125 -0.0305 -0.8620
    1Sil    Sib 1980   1.063   1.118   0.285  0.0181  0.3712 -0.0608
    1Sil    Sib 1981  -0.295   2.292  -0.318  0.9517  0.2324 -0.1063
    1Sil    Sib 1982   0.871   1.184   0.062  0.1543 -0.2436 -0.2763
    1Sil    Sib 1983  -0.258   2.031  -0.168  0.2881 -0.0333 -0.2712
    1Sil    Sim 1984  -0.701   1.620   0.857  0.2192 -0.4188 -0.0664
    1Sil    Sib 1985   0.009   2.492   0.001 -0.0570 -0.1544  0.0961
    1Sil    Sim 1986  -0.219   1.531   0.781  0.0675 -0.2621 -0.3804
    1Sil    Sib 1987  -0.342   1.192   0.244  0.1360 -0.1697  0.2484
    1Sil    Sim 1988  -0.310   1.890  -0.978  0.2769 -0.1497  0.1044
    1Sil    Sib 1989   1.080   2.467   0.033  0.2350 -0.1289 -0.5475
    1Sil    Sim 1990   0.857   1.563  -1.005 -0.4479  0.3430 -0.1271
    1Sil    Sib 1991  -0.364   0.708  -0.564 -0.0219 -0.5829  0.1927
    1Sil    Sib 1992  -0.397   2.408   0.239  0.4935  0.4848  0.2006
    1Sil    Sib 1993  -0.739   0.960  -0.848 -0.1501  0.1583 -0.1081
    1Sil    Sib 1994  -0.596   2.383  -0.339 -0.1204  0.0403 -0.0943
    1Sil    Sib 1995   0.270   2.699  -0.820  0.1925 -0.1701  0.1183
    1Sil    Sib 1996  -0.245   2.183   0.351  0.3302 -0.1589 -0.2030
    1Sil    Sib 1997   1.086   1.273  -0.128  0.3727  0.0945 -0.2591
    1Sil    Sib 1998  -0.511   2.553  -0.985 -0.1059  0.0431 -0.3114
    1Sil    Sim 1999   0.416   1.174  -1.011 -0.3367 -0.1729  0.5562
    1Sil    Sib 2000  -0.025   0.741   0.717 -0.0795 -0.4088 -0.3582
    1Sil    Sib 2001   1.137   0.695  -0.385  0.3388 -0.0611 -0.1009
    1Sil    Sib 2002   1.174   0.936  -0.555 -0.2660  0.0190  0.0538
    1Sil    Sib 2003   0.115   2.218   0.100  0.6425  0.4695  0.0782
    1Sil    Sib 2004   0.968   1.849   0.777  0.3506 -0.2400  0.1980
    1Sil    Sib 2005   0.684   0.965   0.084 -0.5922 -0.0580  0.2212
    1Sil    Sib 2006  -0.519   1.161  -0.776 -0.3898 -0.0035 -0.0239
    1Sil    Sib 2007   0.363   0.699  -0.239  0.0057  0.0373  0.4800
    1Sil    Sib 2008  -0.627   2.401   0.416  0.2438 -0.3678 -0.7396
    1Sil    Sib 2009  -0.738   2.272  -0.088 -0.1580 -0.1775 -0.3444
    1Sil    Sim 2010  -0.243   1.831   0.842 -0.2585  0.3612 -0.4598
    1Sil    Sib 2011   0.790   2.540  -0.058 -0.0907 -0.2409  0.5007
    1Sil    Sib 2012   0.881   2.601   0.877  0.6215  0.0489  0.1833
    1Sil    Sib 2013  -0.014   1.421  -0.869  0.1123 -0.2669 -0.0242
    1Sil    Sib 2014   0.665   0.805  -0.286 -0.0579  0.0919  0.2466
    1Sil    Sib 2015   0.029   2.594   0.281 -0.1119  0.3722 -0.4635
    1Sil    Sib 2016  -0.062   0.765   0.277  0.2286  0.3357 -0.0348
    1Sil    Sim 2017   0.934   0.764   0.973  0.1723 -0.6484  0.5359
    1Sil    Sib 2018   0.560   1.232   0.732 -0.1442  0.4428 -0.1633
    1Sil    Sib 2019  -0.527   0.969  -0.526 -0.2203  0.1784  0.2171
    1Sil    Sib 2020   0.160   1.232  -0.675 -0.2227 -0.0217  0.4100
    1Sil    Sib 2021  -0.084   0.937  -0.168  0.4834  0.4392  0.2007
    1Sil    Sib 2022   0.352   1.158   0.101 -0.3869  0.5966 -0.0458
    1Sil    Sib 2023   0.754   1.806  -0.848  0.1847  0.0187 -0.1199
    1Sil    Sib 2024  -0.220   1.168  -0.899  0.5630  0.1487  0.0754
    1Sil    Sib 2025   0.492   1.820   0.648  0.0392 -0.2814 -0.3551
    1Sil    Sim 2026   0.503   1.180   1.017 -0.1511 -0.3155  0.3346
    1Sil    Sib 2027  -0.196   0.970   0.112  0.1135  0.5976 -0.0858
    1Sil    Sib 2028   0.030   2.053  -0.127  0.7564 -0.3516 -0.4864
    1Sil    Sib 2029   0.530   2.450  -0.480 -0.1408  0.2638  0.3792
    1Sil    Sib 2030   1.023   1.678  -0.327 -0.3353  0.3106  0.1201
    1Sil    Sib 2031   0.171   1.386   0.044  0.2749 -0.1511  0.0967
    1Sil    Sim 2032   0.422   1.448  -0.894  0.4087  0.0165  0.1110
    1Sil    Sib 2033  -0.211   2.618   0.640 -0.4111 -0.1882  0.0735
    1Sil    Sib 2034   0.216   1.549   0.495 -0.1363  0.5550  0.1929
    1Sil    Sib 2035   0.650   0.827   0.614  0.0898 -0.3983  0.4491
    1Sil    Sib 2036   0.090   1.998  -0.583 -0.5116 -0.1647  0.1891
    1Sil    Sim 2037   0.005   2.297  -1.054  0.1711 -0.0001  0.3887
    1Sil    Sib 2038   0.860   2.229  -0.817 -0.0666  0.1804 -0.0756
    1Sil    Sim 2039   1.133   1.413   0.907 -0.1324  0.1924 -0.6877
    1Sil    Sib 2040   0.892   1.934  -0.454 -0.0074  0.3180  0.0580
    1Sil    Sib 2041  -0.165   1.902  -0.704  0.0822  0.1942 -0.2574
    1Sil    Sim 2042   0.260   1.838   0.965 -0.1368  0.2816 -0.5681
    1Sil    Sib 2043  -0.449   1.580  -0.343  0.0415  0.1475  0.0232
    1Sil    Sib 2044  -0.209   1.764  -0.266 -0.5349  0.1722 -0.0454
    1Sil    Sim 2045  -0.519   1.963   0.787 -0.0215 -0.4040 -0.5052
    1Sil    Sim 2046  -0.493   1.449   0.739 -0.4241  0.1133  0.4221
    1Sil    Sib 2047   0.034   1.945   0.763  0.1593  0.3062  0.2680
    1Sil    Sib 2048   0.629   2.330   0.081 -0.2502 -0.2804 -0.3380
    1Sil    Sib 2049   0.100   1.847   0.497  0.1158  0.1251  0.1472
    1Sil    Sib 2050   0.600   1.659  -0.309 -0.1791  0.4289  0.5612
    1Sil    Sib 2051   0.031   1.381   0.697 -0.0858 -0.1753  0.2589
    1Sil    Sim 2052   0.138   0.735  -1.076  0.3700 -0.3312 -0.1931
    1Sil    Sib 2053   0.247   1.300   0.857 -0.4698 -0.2049 -0.2351
    1Sil    Sib 2054   0.531   2.019   0.290 -0.1307  0.0778  0.3123
    1Sil    Sib 2055   0.533   1.473   0.581  0.4559 -0.1943 -0.6422
    1Sil    Sib 2056  -0.088   2.388   0.501 -0.0981  0.0438 -0.0185
    1Sil    Sib 2057   0.310   2.611   0.366  0.3780 -0.2877  0.0317
    1Sil    Sib 2058   0.306   2.242   0.719 -0.2727 -0.2903 -0.3495
    1Sil    Sib 2059  -0.241   2.467  -0.931 -0.1069 -0.3489  0.0895
    1Sil    Sib 2060   0.712   1.984   0.794  0.2267  0.0797  0.2780
    1Sil    Sim 2061  -0.635   0.724  -0.950 -0.0178 -0.0037  0.5278
    1Sil    Sib 2062  -0.732   1.297  -0.350 -0.1199  0.2138 -0.3452
    1Sil    Sib 2063   0.332   2.018   0.514 -0.2715 -0.5410 -0.3976
    1Sil    Sib 2064   0.223   1.386  -0.436  0.2943  0.0541  0.0038
    1Sil    Sib 2065  -0.090   0.905  -0.985  0.0701 -1.0200  0.1389
    1Sil    Sib 2066   0.194   0.956  -0.909  0.1913  0.0979 -0.0281
    1Sil    Sib 2067   0.395   2.053  -0.267 -0.6469  0.7187  0.3722
    1Sil    Sib 2068   0.374   1.130  -0.340 -0.0280  0.1582  0.2275
    1Sil    Sib 2069   0.396   1.007  -0.613 -0.2052  0.0539  0.3915
    1Sil    Sim 2070   0.352   1.595   0.857  0.0113  0.5047 -0.0953
    1Sil    Sib 2071   0.450   2.171  -0.944  0.0967  0.1434  0.4962
    1Sil    Sib 2072  -0.253   2.541  -0.146  0.1977  0.5255 -0.1538
    1Sil    Sib 2073  -0.684   1.968  -0.471 -0.0312 -0.0957  0.5849
    1Sil    Sib 2074   0.355   2.413   0.147  0.1730 -0.1705  0.7571
    1Sil    Sib 2075   0.040   0.829  -0.660 -0.5522  0.5649  0.4012
    1Sil    Sib 2076   0.723   2.244   0.334  0.1781  0.2517  0.1585
    1Sil    Sib 2077   0.281   2.525  -0.114  0.2010 -0.5825 -0.4331
    1Sil    Sib 2078   0.019   1.400   0.297  0.0081 -0.1679 -0.5096
    1Sil    Sib 2079  -0.257   0.720  -0.282  0.1841  0.2235  0.0460
    1Sil    Sib 2080   1.334   0.946   0.554 -0.3973  0.2895  0.0519
    1Sil    Sim 2081  -0.261   2.339   0.957 -0.3561  0.3906 -0.3391
    1Sil    Sim 2082  -0.059   1.977  -1.097  0.0993 -0.4824 -0.0559
    1Sil    Sim 2083   0.234   0.815   0.859 -0.1414  0.1240 -0.0316
    1Sil    Sib 2084   1.434   1.078   0.794  0.0359 -0.0943 -0.5365
    1Sil    Sib 2085   1.340   1.257   0.578 -0.3383 -0.0339  0.3764
    1Sil    Sim 2086   1.220   0.773   0.822 -0.1284  0.1182 -0.4971
    1Sil    Sim 2087  -0.320   1.069   0.835 -0.0690  0.2165 -0.1914
    1Sil    Sib 2088   0.828   0.579   0.599 -0.2443  0.4872 -0.0167
    1Sil    Sib 2089   0.691   3.442   0.366  0.3407  0.0139 -0.1525
    1Sil    Sim 2090   1.128   4.162   0.951 -0.1057  0.0052 -0.5497
    1Sil    Sib 2091   0.985   4.205   0.392  0.1365 -0.2674  0.2429
    1Sil    Sib 2092   0.099   2.974   0.489  0.0791 -0.0371  0.1831
    1Sil    Sib 2093   1.052   2.943   0.139  0.0884 -0.1152  0.5173
    1Sil    Sib 2094  -0.702   2.669   0.522  0.1269 -0.6176 -0.3939
    1Sil    Sim 2095   0.666   3.008   0.912  0.3906  0.0385 -0.1410
    1Sil    Sib 2096   0.022   3.490  -0.212  0.2692  0.1269  0.2480
    1Sil    Sib 2097   0.610   3.190  -0.207  0.6389  0.1801 -0.2509
    1Sil    Sim 2098   0.768   3.498  -0.984  0.5232 -0.2024 -0.1360
    1Sil    Sib 2099   0.731   3.480  -0.259  0.4968 -0.3698 -0.2141
    1Sil    Sib 2100   1.041   2.838   0.447 -0.2241 -0.1473  0.2516
    1Sil    Sim 2101   1.024   3.364  -0.889 -0.3644  0.3465 -0.0075
    1Sil    Sib 2102  -0.506   3.247  -0.009  0.3838 -0.2390 -0.2326
    1Sil    Sib 2103   0.400   3.629  -0.638  0.0680 -0.2530 -0.0538
    1Sil    Sib 2104   1.021   4.065  -0.061 -0.3739  0.2837 -0.1926
    1Sil    Sim 2105  -0.574   3.532  -0.835 -0.3760 -0.2922  0.2786
    1Sil    Sib 2106   0.654   0.322   0.565  0.1337 -0.0906 -0.5111
    1Sil    Sib 2107   0.744   3.910  -0.081 -0.4886  0.0866 -0.5139
    1Sil    Sib 2108  -0.678   3.952   0.376 -0.1787 -0.0250 -0.5567
    1Sil    Sib 2109  -0.396   4.006  -0.607 -0.0561  0.1344  0.0664
    1Sil    Sim 2110  -0.282   0.519   0.958  0.1293  0.0542  0.3316
    1Sil    Sib 2111   0.385   2.875   0.462 -0.2444 -0.1326 -0.6232
    1Sil    Sim 2112   0.619   0.386   1.000  0.3283  0.1516 -0.0667
    1Sil    Sib 2113   0.896   3.671   0.389  0.0756  0.0919 -0.3120
    1Sil    Sib 2114  -0.683   0.469  -0.793  0.1379 -0.1894 -0.3353
    1Sil    Sib 2115   0.762   3.676   0.795  0.1891 -0.1773 -0.0442
    1Sil    Sib 2116   0.662   3.150   0.368 -0.2354  0.0476 -0.3218
    1Sil    Sib 2117  -0.537   4.218   0.394  0.1905  0.4666  0.6409
    1Sil    Sim 2118   0.697   2.990  -1.001 -0.3022  0.2614  0.0193
    1Sil    Sim 2119   0.691   4.144  -0.990  0.1110 -0.0667  0.0934
    1Sil    Sib 2120   0.301   4.417  -0.329  0.3050 -0.5973  0.0589
    1Sil    Sim 2121   0.623   3.906   0.986  0.1923 -0.2192 -1.0283
    1Sil    Sib 2122   0.952   3.609  -0.116  0.3408 -0.2692  0.0508
    1Sil    Sib 2123   0.052   3.832  -0.415  0.5125 -0.6030  0.0927
    1Sil    Sib 2124   0.013   3.825  -1.008  0.2655 -0.1778 -0.4700
    1Sil    Sib 2125   0.608   4.080  -0.503 -0.1965  0.4052 -0.1311
    1Sil    Sib 2126   0.688   3.702  -0.614 -0.3454  0.4044  0.6419
    1Sil    Sib 2127   0.032   4.295  -0.386  0.4185  0.1411 -0.2201
    1Sil    Sib 2128  -0.771   3.914   0.657 -0.3769 -0.0054 -0.1679
    1Sil    Sib 2129  -0.478   4.038  -0.002  0.0541 -0.1617  0.0948
    1Sil    Sib 2130  -0.698   4.274   0.726 -0.0240 -0.2670 -0.1321
    1Sil    Sib 2131   0.790   4.523  -0.318 -0.0639 -0.3640  0.0464
    1Sil    Sib 2132   0.583   3.739   0.097 -0.0414  0.5061  0.0602
    1Sil    Sib 2133   1.082   4.502  -0.726 -0.5202  0.0509  0.2736
    1Sil    Sib 2134  -0.758   3.350   0.097 -0.0082 -0.3074 -0.3755
    1Sil    Sib 2135   1.102   3.995   0.222 -0.3064 -0.0187 -0.0649
    1Sil    Sib 2136  -0.014   4.333   0.750 -0.1125  0.0070  0.0612
    1Sil    Sib 2137  -0.413   2.869   0.187 -0.1963  0.1841  0.4574
    1Sil    Sib 2138   0.327   3.179   0.676 -0.4575 -0.5056  0.6662
    1Sil    Sib 2139   0.801   2.835  -0.031 -0.4483  0.5726 -0.5545
    1Sil    Sib 2140   1.141   4.435   0.312 -0.2408 -0.1794  0.1294
    1Sil    Sib 2141   0.377   0.397   0.616 -0.0368 -0.2869  0.3204
    1Sil    Sib 2142   0.597   0.154   0.811  0.3359  0.3784 -0.1437
    1Sil    Sim 2143   0.301   0.342  -1.004 -0.2996  0.5653  0.3007
    1Sil    Sib 2144  -0.479   4.081  -0.874  0.0071  0.2329 -0.1466
    1Sil    Sib 2145   1.211   4.346  -0.487 -0.1367 -0.1994  0.1064
    1Sil    Sib 2146   1.055   3.713   0.147  0.3482 -0.2541  0.6045
    1Sil    Sib 2147   0.375   3.940  -0.651 -0.3755 -0.1658  0.0701
    1Sil    Sim 2148   0.271   3.990  -0.926  0.1273 -0.3250 -0.0025
    1Sil    Sib 2149  -0.609   0.550  -0.495  0.0937 -0.0171  0.1100
    1Sil    Sib 2150  -0.438   3.391  -0.254 -0.2589  0.1896  0.1245
    1Sil    Sib 2151   1.114   3.324  -0.601  0.2348 -0.0312  0.3512
    1Sil    Sib 2152   0.967   4.272  -0.286  0.1673 -0.6657 -0.4964
    1Sil    Sib 2153  -0.714   0.572   0.057  0.1194 -0.0633  0.2059
    1Sil    Sib 2154   0.380   3.147   0.375  0.2909  0.1290 -0.0227
    1Sil    Sib 2155  -0.584   2.715   0.773 -0.7069 -0.3496  0.2490
    1Sil    Sib 2156   0.587   4.345  -0.669  0.2527 -0.0686  0.3512
    1Sil    Sib 2157  -0.659   2.856   0.305 -0.0394  0.0706 -0.3819
    1Sil    Sib 2158   0.930   0.492  -0.523 -0.1038  0.1011 -0.2471
    1Sil    Sim 2159   0.363   0.529   0.880 -0.2395  0.3434 -0.3596
    1Sil    Sim 2160  -0.383   4.336  -1.011  0.3735 -0.0148  0.1013
    1Sil    Sib 2161  -0.256   3.594   0.204  0.2123 -0.5226 -0.2138
    1Sil    Sim 2162   0.993   3.100  -1.008  0.0955  0.2901 -0.6818
    1Sil    Sib 2163   1.113   4.456   0.887 -0.3859  0.0849  0.2342
    1Sil    Sib 2164  -0.312   3.144   0.524  0.3153 -0.1690 -0.0335
    1Sil    Sim 2165   1.143   3.243   0.850  0.7381 -0.4510 -0.0952
    1Sil    Sib 2166  -0.793   2.906  -0.097 -0.0365  0.0419 -0.2416
    1Sil    Sib 2167  -0.302   2.849   0.448  0.4399 -0.3207 -0.3199
    1Sil    Sib 2168  -0.432   0.515   0.045 -0.2059  0.3028  0.0545
    1Sil    Sib 2169  -0.088   3.707  -0.659  0.0146  0.0969  0.2885
    1Sil    Sib 2170  -0.210   2.738  -0.770 -0.0584  0.1634 -0.2484
    1Sil    Sib 2171  -0.693   3.642   0.061 -0.1241 -0.0649 -0.1427
    1Sil    Sib 2172  -0.399   3.695  -0.634 -0.5119 -0.1291 -0.1735
    1Sil    Sib 2173  -0.089   3.201  -0.614  0.2607 -0.2846  0.9329
    1Sil    Sib 2174   0.529   2.865  -0.770  0.5572 -0.3247 -0.1186
    1Sil    Sib 2175  -0.522   3.019  -0.208 -0.0918 -0.3093  0.0116
    1Sil    Sib 2176  -0.141   3.689  -0.053 -0.0653  0.2120 -0.4043
    1Sil    Sib 2177   0.599   3.437   0.095  0.3170  0.6712 -0.0346
    1Sil    Sib 2178  -0.021   3.249   0.496 -0.4337  0.3716  0.2426
    1Sil    Sib 2179   1.051   3.547   0.592  0.2201  0.2265 -0.3046
    1Sil    Sib 2180   0.302   3.770   0.025 -0.5420  0.0861  0.2857
    1Sil    Sib 2181  -0.555   4.290   0.116  0.1182  0.1321 -0.2701
    1Sil    Sib 2182   0.239   2.835  -0.540  0.3299 -0.1624 -0.6391
    1Sil    Sib 2183   0.047   3.907   0.042 -0.0450  0.5359 -0.0354
    1Sil    Sib 2184   0.908   3.532  -0.506  0.6210 -0.6010  0.1563
    1Sil    Sib 2185  -0.044   4.092   0.258 -0.4744 -0.1548 -0.0455
    1Sil    Sib 2186  -0.307   2.887   0.864 -0.3657  0.0155  0.2795
    1Sil    Sib 2187   1.103   4.368   0.596 -0.0493 -0.6010  0.2509
    1Sil    Sib 2188   0.989   3.144   0.584  0.3603  0.5427  0.3940
    1Sil    Sib 2189  -0.596   4.511   0.861  0.0381 -0.3737 -0.0731
    1Sil    Sib 2190   0.839   3.387   0.703  0.0297  0.3307 -0.1208
    1Sil    Sib 2191   0.648   3.846   0.371 -0.1496  0.1239 -0.5931
    1Sil    Sim 2192   1.205   3.736  -0.896 -0.3813  0.2589  0.1753
    1Sil    Sib 2193   0.983   4.076  -0.713  0.2018  0.2384  0.1818
    1Sil    Sib 2194  -0.155   3.277  -0.330  0.1071 -0.1665 -0.0344
    1Sil    Sib 2195  -0.733   4.066  -0.181 -0.2476  0.2044 -0.6194
    1Sil    Sib 2196   1.247   3.989  -0.755  0.1218 -0.2628 -0.0415
    1Sil    Sib 2197   0.222   3.051  -0.135 -0.6560 -0.2214  0.0265
    1Sil    Sib 2198   0.318   3.850  -0.273  0.3259  0.3253  0.2481
    1Sil    Sib 2199  -0.716   3.678  -0.259  0.2347 -0.1189 -0.0436
    1Sil    Sib 2200  -0.477   3.800   0.195  0.1082 -0.6097 -0.0995
    1Sil    Sib 2201   0.568   4.145  -0.009  0.2200 -0.0847 -0.3096
    1Sil    Sib 2202   1.055   3.222   0.272 -0.0782  0.1026 -0.2192
    1Sil    Sib 2203  -0.276   4.387  -0.331  0.0623 -0.0282  0.3694
    1Sil    Sib 2204   0.869   3.287   0.052 -0.0860 -0.2193  0.1954
    1Sil    Sib 2205  -0.267   4.125  -0.186  0.1674  0.0345  0.1381
    1Sil    Sim 2206  -0.684   3.714   0.846  0.2203  0.0580 -0.2883
    1Sil    Sib 2207   0.002   4.584   0.001  0.2022 -0.4048  0.0308
    1Sil    Sim 2208  -0.202   3.636   0.792  0.1046  0.2479 -0.0191
    1Sil    Sib 2209  -0.346   3.291   0.247 -0.3237  0.2287  0.0482
    1Sil    Sib 2210  -0.222   3.997  -0.978 -0.3610  0.6292  0.1070
    1Sil    Sib 2211   1.087   4.548   0.041 -0.2363 -0.0714  0.1330
    1Sil    Sim 2212   0.923   3.732  -1.036 -0.0776 -0.2437  0.0719
    1Sil    Sib 2213  -0.397   2.810  -0.546 -0.0271 -0.4295  0.3201
    1Sil    Sib 2214  -0.391   0.306   0.228 -0.0022 -0.0378 -0.4197
    1Sil    Sib 2215  -0.773   3.013  -0.860 -0.1901 -0.1940  0.0397
    1Sil    Sib 2216  -0.578   0.293  -0.355 -0.0015 -0.2119  0.1254
    1Sil    Sib 2217   0.299   0.609  -0.831 -0.3325  0.0133 -0.3295
    1Sil    Sib 2218  -0.255   4.278   0.353 -0.2356  0.3044 -0.2879
    1Sil    Sib 2219   1.100   3.357  -0.127  0.0749  0.3373 -0.1860
    1Sil    Sim 2220  -0.498   0.391  -1.029  0.0632 -0.0856  0.1233
    1Sil    Sim 2221   0.461   3.198  -1.003  0.5990 -0.5966 -0.0665
    1Sil    Sib 2222  -0.041   2.841   0.725 -0.6605  0.2667 -0.0733
    1Sil    Sib 2223   1.154   2.800  -0.394 -0.0058 -0.2938  0.2754
    1Sil    Sib 2224   1.189   3.032  -0.595  0.2112  0.0859  0.3050
    1Sil    Sib 2225   0.099   4.322   0.106  0.4363  0.5590 -0.2275
    1Sil    Sib 2226   0.982   3.933   0.771  0.3444  0.0396  0.2259
    1Sil    Sib 2227   0.685   3.071   0.067 -0.1164  0.1278 -0.0565
    1Sil    Sib 2228  -0.548   3.243  -0.782 -0.3504  0.0522 -0.1333
    1Sil    Sib 2229   0.351   2.804  -0.241  0.2559  0.0134  0.3343
    1Sil    Sib 2230  -0.621   4.502   0.404  0.3497  0.1072  0.8039
    1Sil    Sib 2231  -0.730   4.367  -0.106  0.2446 -0.5507 -0.1574
    1Sil    Sim 2232  -0.244   3.937   0.842 -0.1757 -0.4184  0.2708
    1Sil    Sib 2233   0.804   0.430  -0.047 -0.1127 -0.1227 -0.1843
    1Sil    Sib 2234   0.890   0.482   0.878  0.4304  0.4100 -0.4299
    1Sil    Sib 2235  -0.015   3.511  -0.883 -0.2557 -0.0835 -0.0125
    1Sil    Sib 2236   0.648   2.904  -0.290 -0.2090  0.1269  0.5571
    1Sil    Sib 2237   0.011   0.478   0.287  0.2564 -0.4888 -0.2807
    1Sil    Sib 2238  -0.063   2.873   0.284  0.0500 -0.0790 -0.7172
    1Sil    Sim 2239   0.954   2.885   0.966 -0.1068  0.0894 -0.3553
    1Sil    Sib 2240   0.563   3.339   0.731 -0.2891  0.1047 -0.0443
    1Sil    Sib 2241  -0.555   3.068  -0.524 -0.2550  0.0423 -0.3235
    1Sil    Sib 2242   0.161   3.326  -0.698  0.0258 -0.3078  0.4642
    1Sil    Sib 2243  -0.094   3.042  -0.162 -0.1924 -0.4185 -0.1238
    1Sil    Sib 2244   0.341   3.248   0.088  0.2787  0.2269  0.3619
    1Sil    Sib 2245   0.774   3.901  -0.832  0.0113 -0.0129 -0.4931
    1Sil    Sib 2246  -0.239   3.258  -0.860 -0.5553 -0.2486  0.3645
    1Sil    Sib 2247   0.498   3.910   0.642 -0.1506 -0.2774  0.0036
    1Sil    Sim 2248   0.500   3.280   1.002  0.2818  0.2880  0.2277
    1Sil    Sib 2249  -0.203   3.063   0.111  0.2192  0.0381  0.2178
    1Sil    Sib 2250   0.018   4.144  -0.122 -0.2142 -0.3865 -0.1803
    1Sil    Sib 2251   0.533   4.554  -0.462  0.1235 -0.3217  0.5173
    1Sil    Sib 2252   1.039   3.765  -0.354  0.3702  0.4198 -0.0890
    1Sil    Sib 2253   0.169   3.483   0.047 -0.2360 -0.3045 -0.9387
    1Sil    Sim 2254   0.461   3.504  -0.907  0.3325 -0.2088  0.0863
    1Sil    Sib 2255  -0.216   0.519   0.646  0.2245 -0.0808  0.2200
    1Sil    Sib 2256   0.206   3.640   0.497 -0.3106  0.4320  0.2035
    1Sil    Sib 2257   0.650   2.941   0.601 -0.0284 -0.6840 -0.6325
    1Sil    Sib 2258   0.112   4.076  -0.564  0.1482  0.3942  0.0983
    1Sil    Sim 2259   0.027   0.214  -1.117  0.2206  0.3370 -0.3377
    1Sil    Sib 2260   0.854   4.327  -0.812 -0.2469 -0.0179  0.4429
    1Sil    Sim 2261   1.125   3.536   0.884 -0.5552 -0.2970 -0.1196
    1Sil    Sib 2262   0.910   4.031  -0.443 -0.5603 -0.0504 -0.0018
    1Sil    Sib 2263  -0.129   4.003  -0.707 -0.0922  0.2048 -0.0000
    1Sil    Sim 2264   0.281   3.957   0.961  0.4570 -0.5654  0.5495
    1Sil    Sib 2265  -0.452   3.676  -0.348  0.1122 -0.4604 -0.0853
    1Sil    Sib 2266  -0.212   3.854  -0.271  0.0904 -0.3082 -0.0377
    1Sil    Sim 2267  -0.517   4.066   0.782  0.3184  0.3674 -0.0988
    1Sil    Sim 2268  -0.480   3.538   0.734 -0.0629 -0.1507  0.2982
    1Sil    Sib 2269   0.030   4.035   0.758 -0.0227  0.3681 -0.0699
    1Sil    Sib 2270   0.632   4.420   0.088  0.0578 -0.4673 -0.2179
    1Sil    Sib 2271   0.085   3.930   0.491 -0.2092 -0.3096  0.3037
    1Sil    Sib 2272   0.611   3.744  -0.322 -0.0918 -0.1945 -0.1155
    1Sil    Sib 2273   0.029   3.483   0.703 -0.0430 -0.3995 -0.3301
    1Sil    Sim 2274   0.070   2.812  -1.042  0.5759  0.0575  0.1309
    1Sil    Sib 2275   0.254   3.400   0.858  0.1292  0.1763 -0.0246
    1Sil    Sib 2276   0.537   4.105   0.288 -0.3784 -0.3565  0.3446
    1Sil    Sib 2277   0.530   3.569   0.570  0.1421 -0.2228 -0.1920
    1Sil    Sib 2278  -0.102   4.480   0.510 -0.0103 -0.3192 -0.1533
    1Sil    Sib 2279   0.291   0.508   0.364  0.4364 -0.2652 -0.1075
    1Sil    Sib 2280   0.293   0.130   0.702  0.1270 -0.3934  0.0291
    1Sil    Sib 2281  -0.204   4.575  -0.978  0.4689  0.1400  0.3578
    1Sil    Sib 2282   0.724  -0.125   0.772  0.3158  0.1046  0.0939
    1Sil    Sim 2283  -0.732   2.745  -0.979 -0.0469 -0.0972  0.0335
    1Sil    Sib 2284  -0.736   3.389  -0.357 -0.0371 -0.0257  0.3026
    1Sil    Sib 2285   0.319   4.103   0.513  0.3033 -0.0451  0.1197
    1Sil    Sib 2286   0.219   3.467  -0.443 -0.4746  0.5862 -0.1965
    1Sil    Sim 2287  -0.215   2.947  -0.988  0.0619 -0.6719 -0.5936
    1Sil    Sim 2288   0.181   3.062  -0.944  0.1880  0.1076  0.1479
    1Sil    Sib 2289   0.416   4.134  -0.268 -0.4087  0.4286 -0.0560
    1Sil    Sib 2290   0.360   3.218  -0.344  0.1669 -0.0273 -0.0263
    1Sil    Sib 2291   0.380   3.098  -0.623  0.1894  0.1695  0.0251
    1Sil    Sib 2292   0.662   2.723  -0.539 -0.0190  0.1896  0.2681
    1Sil    Sim 2293   0.363   3.699   0.869  0.0293  0.4919 -0.0641
    1Sil    Sib 2294   0.415   4.264  -0.912  0.0552  0.3188 -0.2646
    1Sil    Sib 2295  -0.252   0.437  -0.163  0.4057  0.5978 -0.3007
    1Sil    Sib 2296  -0.663   4.066  -0.481 -0.0838 -0.0182 -0.0348
    1Sil    Sib 2297   0.356   4.500   0.153  0.3095 -0.1038 -0.3339
    1Sil    Sib 2298   0.016   2.932  -0.675  0.3986 -0.4533  0.5903
    1Sil    Sib 2299   0.724   0.135   0.350 -0.0709 -0.1562  0.2140
    1Sil    Sib 2300   0.285   0.420  -0.109  0.4173  0.2670  0.0854
    1Sil    Sib 2301   0.019   3.490   0.299 -0.1473  0.1330  0.4856
    1Sil    Sib 2302  -0.277   2.826  -0.274 -0.3563 -0.0297 -0.1280
    1Sil    Sib 2303   1.322   3.068   0.540  0.2657  0.3106 -0.2948
    1Sil    Sim 2304  -0.262   0.238   0.963 -0.4094  0.2292  0.6026
    1Sil    Sim 2305  -0.034   4.083  -1.179 -0.1207 -0.4670  0.2847
    1Sil    Sim 2306   0.224   2.929   0.862  0.0581  0.2172  0.2365
    1Sil    Sib 2307   1.415   3.226   0.754 -0.1277  0.0999 -0.2329
    1Sil    Sib 2308   1.312   3.390   0.536  0.3580 -0.2765  0.0943
    1Sil    Sim 2309   1.235   2.909   0.816  0.6492  0.1628  0.0988
    1Sil    Sim 2310  -0.324   3.168   0.841  0.0579  0.3725 -0.0697
    1Sil    Sib 2311  -1.215   2.686   0.612 -0.6487  0.2741 -0.2338
    1Sil    Sib 2312  -1.330   1.342   0.356  0.3920  0.6156 -0.1632
    1Sil    Sim 2313  -0.899   2.081   0.960  0.3102  0.1969  0.2900
    1Sil    Sib 2314  -1.040   2.105   0.403 -0.0217  0.0768 -0.0658
    1Sil    Sib 2315  -1.933   0.866   0.479 -0.2239  0.0613 -0.2525
    1Sil    Sib 2316  -0.982   0.827   0.153 -0.0982 -0.0693 -0.0745
    1Sil    Sim 2317  -1.372   0.907   0.894 -0.1412  0.4599  0.5596
    1Sil    Sib 2318  -2.008   1.384  -0.235  0.3532 -0.2350 -0.4344
    1Sil    Sib 2319  -1.426   1.075  -0.206  0.2996 -0.2916  0.4478
    1Sil    Sim 2320  -1.275   1.355  -0.960  0.0818  0.2657 -0.0527
    1Sil    Sib 2321  -1.302   1.370  -0.260  0.2668 -0.4240 -0.4369
    1Sil    Sib 2322  -0.982   0.728   0.462 -0.0110 -0.0720 -0.5799
    1Sil    Sim 2323  -1.005   1.225  -0.876  0.5632  0.1940  0.2121
    1Sil    Sib 2324   1.518   1.145  -0.017  0.0179  0.2425  0.2313
    1Sil    Sib 2325  -1.624   1.538  -0.641  0.7283 -0.2238 -0.0273
    1Sil    Sib 2326  -1.013   1.973  -0.047 -0.0246 -0.0798 -0.7367
    1Sil    Sim 2327   1.400   1.452  -0.840  0.0574  0.4720  0.0176
    1Sil    Sib 2328  -1.375   2.421   0.574  0.2276 -0.2089  0.3112
    1Sil    Sib 2329  -1.298   1.828  -0.085 -0.0680 -0.3924  0.5269
    1Sil    Sib 2330   1.353   1.849   0.379  0.0898 -0.3350  0.5009
    1Sil    Sib 2331   1.600   1.925  -0.617 -0.3989  0.2210 -0.1524
    1Sil    Sim 2332   1.736   2.621   0.942 -0.0929 -0.2662  0.1912
    1Sil    Sib 2333  -1.648   0.788   0.435 -0.2592  0.2769 -0.2539
    1Sil    Sim 2334  -1.423   2.507   0.995 -0.4146 -0.5754 -0.4373
    1Sil    Sib 2335  -1.130   1.563   0.391 -0.4840 -0.1198 -0.1455
    1Sil    Sib 2336   1.330   2.564  -0.749  0.0410 -0.0021 -0.1047
    1Sil    Sib 2337  -1.273   1.578   0.791  0.1100  0.5281 -0.3368
    1Sil    Sib 2338  -1.361   1.045   0.358  0.2769 -0.4647 -0.0183
    1Sil    Sib 2339   1.495   2.120   0.391 -0.1563  0.1323  0.1548
    1Sil    Sim 2340  -1.236   0.757  -0.976  0.1930 -0.3821 -0.1302
    1Sil    Sim 2341  -1.298   2.061  -0.999 -0.2916 -0.2881  0.0231
    1Sil    Sib 2342   2.314   2.316  -0.332  0.1266  0.1323 -0.3456
    1Sil    Sim 2343  -1.429   1.783   0.996  0.1042 -0.0876  0.1024
    1Sil    Sib 2344  -1.090   1.518  -0.106 -0.1486  0.3554 -0.2820
    1Sil    Sib 2345   2.055   1.730  -0.444  0.1532  0.4913 -0.1478
    1Sil    Sim 2346  -1.932   1.709  -0.979 -0.0501 -0.2019  0.2729
    1Sil    Sib 2347  -1.427   1.991  -0.498  0.3380 -0.1147 -0.0895
    1Sil    Sib 2348  -1.339   1.605  -0.608 -0.2640 -0.0463 -0.2358
    1Sil    Sib 2349   2.040   2.207  -0.405 -0.0239 -0.3289 -0.1910
    1Sil    Sib 2350   1.254   1.808   0.661  0.5451  0.1171 -0.0621
    1Sil    Sib 2351   1.547   1.930  -0.006  0.3090 -0.1998 -0.5590
    1Sil    Sib 2352   1.334   2.177   0.728 -0.4121  0.1935 -0.0639
    1Sil    Sib 2353  -1.236   2.417  -0.318  0.1714  0.1819  0.3074
    1Sil    Sib 2354  -1.461   1.652   0.104  0.0861 -0.6291  0.2128
    1Sil    Sib 2355  -0.933   2.394  -0.691  0.2449 -0.0131  0.3022
    1Sil    Sib 2356   1.265   1.253   0.098 -0.1301 -0.1434  0.7523
    1Sil    Sib 2357  -0.930   1.907   0.235  0.4477  0.2129  0.3406
    1Sil    Sib 2358  -2.035   2.229   0.747 -0.2877 -0.2884 -0.1166
    1Sil    Sib 2359   1.626   0.760   0.158 -0.0004 -0.4056  0.0945
    1Sil    Sib 2360  -1.698   1.075   0.669 -0.2739  0.2449 -0.0501
    1Sil    Sib 2361  -1.245   0.719  -0.005 -0.4479  0.0917  0.2739
    1Sil    Sib 2362  -0.895   2.356   0.325 -0.4725 -0.1773  0.0467
    1Sil    Sib 2363  -1.658   2.495   0.617  0.2678  0.1224  0.0075
    1Sil    Sib 2364  -1.448   2.262   0.834 -0.1268  0.2445  0.2895
    1Sil    Sim 2365   2.322   2.418  -0.997  0.0766 -0.1795  0.0150
    1Sil    Sib 2366   1.483   2.011  -0.878  0.3627  0.3009  0.0600
    1Sil    Sib 2367  -0.836   2.229  -0.460 -0.0535 -0.0735  0.1962
    1Sil    Sib 2368  -0.974   1.635   0.153  0.2623 -0.3406 -0.0585
    1Sil    Sib 2369  -1.647   1.848  -0.677  0.2898 -0.3011 -0.0141
    1Sil    Sim 2370  -1.656   1.861  -0.992  0.1316 -0.1416 -0.5960
    1Sil    Sib 2371   1.406   2.654  -0.473 -0.4767  0.7641 -0.1882
    1Sil    Sib 2372   1.582   1.293  -0.267 -0.7018 -0.1934 -0.2266
    1Sil    Sib 2373  -0.912   1.232  -0.593 -0.4831 -0.2640  0.1737
    1Sil    Sib 2374  -1.072   2.170  -0.259 -0.1723  0.4136  0.0447
    1Sil    Sib 2375   1.294   2.685   0.042 -0.2286 -0.2479  0.0007
    1Sil    Sib 2376  -1.647   1.061   0.374  0.0621 -0.0345  0.2149
    1Sil    Sib 2377  -1.431   2.243  -0.672  0.0803  0.2224  0.0054
    1Sil    Sib 2378   1.374   0.749   0.298 -0.1529  0.0310  0.4393
    1Sil    Sib 2379  -1.082   2.586  -0.502  0.6807 -0.5168 -0.1200
    1Sil    Sim 2380  -1.683   2.631   0.877 -0.0418 -0.0337 -0.2018
    1Sil    Sim 2381   1.562   2.270  -1.008  0.2312  0.2100 -0.0200
    1Sil    Sib 2382  -2.283   1.493   0.217  0.3032  0.0269 -0.0465
    1Sil    Sim 2383  -1.003   0.952  -0.995  0.7341 -0.2680 -0.1371
    1Sil    Sib 2384  -0.917   2.379   0.898  0.6804 -0.3033  0.2173
    1Sil    Sib 2385   1.724   1.037   0.507 -0.2968  0.0342  0.2242
    1Sil    Sim 2386  -0.894   1.133   0.864 -0.0805 -0.3335 -0.2973
    1Sil    Sib 2387   1.238   0.798  -0.110 -0.2189  0.0330 -0.2028
    1Sil    Sib 2388   1.727   0.735   0.431  0.1051 -0.7443  0.2680
    1Sil    Sib 2389   1.588   2.609   0.022  0.4339  0.1714  0.0084
    1Sil    Sib 2390   1.881   1.606  -0.667 -0.2058 -0.5772 -0.2421
    1Sil    Sib 2391   1.325   1.542   0.070 -0.2664 -0.7491  0.2766
    1Sil    Sib 2392   1.576   1.619  -0.643 -0.1374  0.0433  0.2942
    1Sil    Sib 2393   1.912   1.086  -0.619  0.4299 -0.5052  0.5224
    1Sil    Sib 2394  -1.470   0.789  -0.767 -0.1109  0.0976 -0.0225
    1Sil    Sib 2395   1.514   0.908  -0.213 -0.0249  0.1060  0.4888
    1Sil    Sib 2396  -2.181   1.580  -0.062 -0.3432 -0.0392 -0.1767
    1Sil    Sib 2397  -1.435   1.337   0.090  0.2817 -0.1162 -0.0443
    1Sil    Sib 2398  -2.050   1.149   0.468  0.0936  0.6785 -0.0791
    1Sil    Sib 2399  -0.981   1.430   0.600  0.0984 -0.1025 -0.0040
    1Sil    Sib 2400  -1.742   1.653   0.005 -0.2871 -0.0289  0.2193
    1Sil    Sib 2401   1.481   2.185   0.104  0.2241  0.4992  0.3393
    1Sil    Sib 2402  -1.784   0.741  -0.571 -0.2935  0.5450 -0.2767
    1Sil    Sib 2403  -1.994   1.794   0.026  0.0903 -0.2582 -0.0545
    1Sil    Sib 2404  -1.117   1.447  -0.501 -0.0524  0.1950 -0.1978
    1Sil    Sib 2405  -2.067   1.988   0.255  0.4375 -0.0815  0.5253
    1Sil    Sib 2406  -2.329   0.764   0.854 -0.1742  0.0759 -0.2429
    1Sil    Sib 2407  -0.931   2.278   0.606 -0.1446 -0.0008  0.0219
    1Sil    Sib 2408  -1.039   1.043   0.593  0.2884 -0.1525  0.1055
    1Sil    Sib 2409   1.436   2.420   0.871 -0.0196 -0.1670  0.1329
    1Sil    Sib 2410  -1.204   1.280   0.700  0.6425  0.0713 -0.0009
    1Sil    Sib 2411  -1.391   1.761   0.375  0.0501  0.2476 -0.6361
    1Sil    Sim 2412  -0.822   1.634  -0.895  0.5254  0.2650  0.1257
    1Sil    Sib 2413  -1.051   1.982  -0.698 -0.2174  0.3259 -0.4119
    1Sil    Sib 2414   1.860   1.164  -0.342  0.1722 -0.0453  0.0374
    1Sil    Sib 2415   1.292   1.967  -0.182  0.1680 -0.2796  0.7026
    1Sil    Sib 2416  -0.786   1.884  -0.741  0.0969 -0.0571 -0.1235
    1Sil    Sib 2417  -1.812   0.958  -0.150 -0.1529 -0.2578 -0.1643
    1Sil    Sib 2418   2.334   1.740  -0.292  0.0527  0.0146  0.4451
    1Sil    Sib 2419   1.296   1.590  -0.243  0.5905  0.3222  0.2251
    1Sil    Sib 2420   1.546   1.704   0.197 -0.1671  0.0780 -0.1288
    1Sil    Sib 2421  -1.478   2.064  -0.012  0.0738 -0.1758  0.1585
    1Sil    Sib 2422  -0.987   1.111   0.279 -0.0419  0.6071 -0.3959
    1Sil    Sib 2423   1.744   2.286  -0.334  0.2500 -0.1293  0.2080
    1Sil    Sib 2424  -1.162   1.179   0.048 -0.0202 -0.1328  0.1697
    1Sil    Sib 2425   1.768   2.021  -0.184 -0.3981  0.2408 -0.3527
    1Sil    Sim 2426   1.341   1.611   0.862 -0.7056  0.0816 -0.0258
    1Sil    Sib 2427  -2.018   2.484   0.001 -0.4355  0.2905  0.3961
    1Sil    Sim 2428   1.826   1.532   0.763  0.1036  0.0549  0.2908
    1Sil    Sib 2429   1.700   1.185   0.232  0.0945 -0.0858  0.2252
    1Sil    Sim 2430   1.727   1.893  -1.005 -0.0848  0.1116  0.1090
    1Sil    Sib 2431  -0.956   2.458   0.042  0.1003 -0.2710  0.0653
    1Sil    Sim 2432  -1.114   1.611  -1.011  0.2050 -0.1166  0.0773
    1Sil    Sib 2433   1.625   0.711  -0.579 -0.4264 -0.1350 -0.3882
    1Sil    Sib 2434   1.623   2.405   0.215 -0.3243 -0.3467 -0.7689
    1Sil    Sib 2435   1.264   0.963  -0.839  0.3439  0.1323 -0.0425
    1Sil    Sib 2436   1.439   2.387  -0.343 -0.3135 -0.4578  0.0014
    1Sil    Sib 2437   2.309   2.679  -0.827 -0.0579  0.0710  0.3719
    1Sil    Sib 2438   1.778   2.186   0.346  0.4712 -0.0635  0.2096
    1Sil    Sib 2439  -0.931   1.266  -0.119  0.2918  0.2312  0.1041
    1Sil    Sib 2440   1.510   2.545  -0.978 -0.3487  0.2168  0.0322
    1Sil    Sim 2441  -1.734   1.157  -1.054 -0.2182 -0.0227  0.0447
    1Sil    Sib 2442  -2.070   0.725   0.704  0.3864 -0.4234  0.2441
    1Sil    Sib 2443  -0.866   0.703  -0.403 -0.0743  0.3425  0.4012
    1Sil    Sib 2444  -0.831   0.951  -0.568 -0.3189  0.0338 -0.0853
    1Sil    Sib 2445  -1.913   2.214   0.091 -0.1401  0.5131  0.1482
    1Sil    Sib 2446  -1.062   1.867   0.778 -0.2301 -0.6306  0.1738
    1Sil    Sib 2447  -1.355   0.964   0.066 -0.3542 -0.0549  0.0192
    1Sil    Sib 2448   1.472   1.174  -0.757 -0.5398  0.0821 -0.1533
    1Sil    Sib 2449  -1.685   0.699  -0.266 -0.1520 -0.3869  0.3240
    1Sil    Sib 2450   1.410   2.402   0.401 -0.3138  0.2129 -0.1109
    1Sil    Sib 2451   1.295   2.272  -0.090  0.3989 -0.2134  0.1138
    1Sil    Sim 2452   1.777   1.819   0.821 -0.3738 -0.1257 -0.3181
    1Sil    Sib 2453  -1.233   2.546  -0.059 -0.0031  0.2438  0.3101
    1Sil    Sib 2454  -1.146   2.595   0.894  0.2404 -0.1004 -0.1381
    1Sil    Sib 2455   2.001   1.408  -0.882 -0.3304  0.0492  0.6275
    1Sil    Sib 2456  -1.384   0.778  -0.270  0.0585  0.0909 -0.3878
    1Sil    Sib 2457  -1.997   2.577   0.272  0.3887  0.2310  0.0058
    1Sil    Sib 2458  -2.093   0.760   0.272 -0.4906 -0.3185  0.0353
    1Sil    Sim 2459  -1.085   0.788   0.979  0.2887  0.5514 -0.1276
    1Sil    Sib 2460  -1.476   1.230   0.720 -0.5972 -0.5768  0.2944
    1Sil    Sib 2461   1.474   0.974  -0.512 -0.3015 -0.4166  0.4302
    1Sil    Sib 2462   2.170   1.223  -0.706  0.0332  0.6029 -0.3363
    1Sil    Sib 2463   1.932   0.932  -0.180  0.2414  0.4519  0.2913
    1Sil    Sib 2464  -1.689   1.158   0.084 -0.1150  0.2781 -0.4939
    1Sil    Sib 2465  -1.242   1.809  -0.830 -0.2183  0.0138 -0.0720
    1Sil    Sib 2466   1.762   1.169  -0.858  0.5071  0.0954 -0.0086
    1Sil    Sib 2467  -1.538   1.810   0.649  0.2922  0.0791  0.2207
    1Sil    Sim 2468  -1.529   1.182   0.997  0.3553  0.2520 -0.3077
    1Sil    Sib 2469   1.838   0.959   0.096  0.2083 -0.4186  0.0414
    1Sil    Sib 2470  -2.011   2.045  -0.134  0.0898  0.1511  0.4502
    1Sil    Sib 2471  -1.491   2.444  -0.472 -0.4686 -0.5446  0.6050
    1Sil    Sib 2472  -0.995   1.671  -0.332  0.4346 -0.0287 -0.2809
    1Sil    Sib 2473  -1.865   1.383   0.035  0.4655  0.0462 -0.5603
    1Sil    Sim 2474  -1.590   1.391  -0.910 -0.1000 -0.3700 -0.2025
    1Sil    Sib 2475   1.812   2.627   0.632  0.2434 -0.1407  0.1885
    1Sil    Sib 2476  -1.819   1.535   0.485  0.0306 -0.0681 -0.0491
    1Sil    Sib 2477  -1.384   0.833   0.586  0.2809  0.1837  0.5136
    1Sil    Sib 2478   2.116   1.984  -0.600 -0.0718 -0.1819  0.3464
    1Sil    Sim 2479   2.038   2.297  -1.077  0.2569  0.3037  0.2798
    1Sil    Sib 2480  -1.164   2.239  -0.804  0.0395  0.1627  0.0231
    1Sil    Sim 2481  -0.915   1.431   0.889 -0.3064 -0.3454  0.0736
    1Sil    Sib 2482  -1.127   1.937  -0.429 -0.6681 -0.0762 -0.1431
    1Sil    Sib 2483   1.868   1.901  -0.734  0.2480 -0.1791 -0.2966
    1Sil    Sim 2484  -1.774   1.836   0.961 -0.1690 -0.6363 -0.0388
    1Sil    Sib 2485   1.564   1.593  -0.356 -0.1199 -0.4240 -0.2026
    1Sil    Sib 2486   1.806   1.753  -0.287 -0.4292  0.3977 -0.2697
    1Sil    Sim 2487   1.510   1.967   0.769 -0.1056 -0.4221 -0.1044
    1Sil    Sim 2488   1.539   1.435   0.744  0.2131 -0.6806 -0.0373
    1Sil    Sib 2489  -2.004   1.927   0.751  0.8409 -0.4457 -0.2562
    1Sil    Sib 2490  -1.390   2.334   0.081  0.0612 -0.0587 -0.0011
    1Sil    Sib 2491  -1.942   1.834   0.484 -0.2187 -0.0282  0.4092
    1Sil    Sib 2492  -1.424   1.642  -0.321  0.0678 -0.2326 -0.5264
    1Sil    Sib 2493  -2.002   1.375   0.672  0.2250 -0.0161  0.2898
    1Sil    Sim 2494  -1.805   0.702  -1.084 -0.0508  0.2938 -0.3696
    1Sil    Sib 2495  -1.790   1.299   0.854  0.0773 -0.0398 -0.4980
    1Sil    Sib 2496  -1.498   2.022   0.293  0.0784 -0.1330  0.3729
    1Sil    Sib 2497  -1.496   1.464   0.567 -0.0747  0.0127  0.2182
    1Sil    Sib 2498   1.939   2.378   0.502  0.4269  0.2235 -0.0423
    1Sil    Sib 2499  -1.726   2.595   0.370  0.1826 -0.3482 -0.0352
    1Sil    Sib 2500  -1.734   2.230   0.723  0.0998  0.0765 -0.2781
    1Sil    Sib 2501   1.796   2.461  -0.945  0.0211 -0.0194 -0.3472
    1Sil    Sib 2502  -1.325   1.984   0.805  0.5332  0.6120  0.1485
    1Sil    Sim 2503   1.352   0.717  -0.974  0.0478  0.1739  0.0634
    1Sil    Sib 2504   1.286   1.305  -0.354 -0.2046  0.2051 -0.3134
    1Sil    Sib 2505  -1.708   2.001   0.523  0.5972 -0.5804 -0.3482
    1Sil    Sib 2506  -1.801   1.372  -0.460 -0.2041  0.3943  0.1418
    1Sil    Sim 2507   1.825   0.905  -1.011 -0.3022 -0.2754 -0.0686
    1Sil    Sib 2508  -1.936   0.940  -0.963  0.4000 -0.0519 -0.1063
    1Sil    Sib 2509  -1.638   2.034  -0.280  0.3230  0.2075 -0.4036
    1Sil    Sib 2510  -1.674   1.111  -0.363  0.1972 -0.0660  0.5529
    1Sil    Sib 2511  -1.664   1.002  -0.649 -0.2731 -0.3297 -0.0382
    1Sil    Sim 2512  -1.683   1.589   0.862  0.2657 -0.1211 -0.4965
    1Sil    Sib 2513  -1.572   2.161  -0.937  0.0255  0.0572  0.1835
    1Sil    Sib 2514   1.792   2.544  -0.181  0.0293 -0.2282 -0.3176
    1Sil    Sib 2515   1.344   1.969  -0.482 -0.2098  0.0410  0.2718
    1Sil    Sib 2516  -1.666   2.394   0.153 -0.0572  0.0256  0.6226
    1Sil    Sib 2517   2.020   0.810  -0.686  0.1513 -0.5378 -0.2813
    1Sil    Sib 2518  -1.302   2.238   0.343 -0.2053  0.0634  0.1865
    1Sil    Sib 2519   2.303   2.512  -0.111  0.1354  0.0666  0.3707
    1Sil    Sib 2520  -2.011   1.394   0.290 -0.8134  0.0221  0.2584
    1Sil    Sib 2521   1.750   0.704  -0.291 -0.1264 -0.3307  0.4573
    1Sil    Sib 2522  -0.703   0.961   0.563  0.2592 -0.2211  0.3056
    1Sil    Sim 2523   1.767   2.336   0.945 -0.4192 -0.1138 -0.2600
    1Sil    Sim 2524  -2.069   1.981  -1.114 -0.6334 -0.1333 -0.2905
    1Sil    Sim 2525  -1.808   0.827   0.842 -0.2589  0.3857 -0.1096
    1Sil    Sib 2526  -0.694   1.278   0.572  0.1055  0.1876 -0.2832
    1Sil    Sim 2527  -0.812   0.790   0.822 -0.1003 -0.3216  0.0217
    1Sil    Sim 2528   1.715   1.067   0.829 -1.0665  0.2390  0.2025
    1Sil    Sib 2529  -1.204   0.578   0.596  0.1566  0.0445 -0.4316
    1Sil    Sib 2530  -1.326   3.431   0.362  0.3874 -0.2442  0.0203
    1Sil    Sim 2531  -0.908   4.189   0.944 -0.2984 -0.1585 -0.3988
    1Sil    Sib 2532  -1.054   4.227   0.362 -0.5171 -0.0493  0.6349
    1Sil    Sib 2533  -1.917   2.967   0.483 -0.0609  0.0463  0.0350
    1Sil    Sib 2534  -0.988   2.940   0.148  0.0045  0.6941 -0.0234
    1Sil    Sib 2535   1.330   2.672   0.499 -0.2421  0.2824 -0.0311
    1Sil    Sim 2536  -1.385   3.007   0.921  0.4210  0.0117  0.1512
    1Sil    Sib 2537  -2.005   3.504  -0.239 -0.2987 -0.2885 -0.0012
    1Sil    Sib 2538  -1.415   3.185  -0.196 -0.0979 -0.0028  0.7797
    1Sil    Sim 2539  -1.257   3.466  -0.971  0.0300 -0.2064 -0.0439
    1Sil    Sib 2540  -1.302   3.483  -0.261  0.1356  0.1058 -0.1739
    1Sil    Sib 2541  -0.987   2.827   0.470  0.1216  0.0206  0.3589
    1Sil    Sim 2542  -0.993   3.355  -0.884  0.4358 -0.0970  0.3259
    1Sil    Sib 2543   1.525   3.244  -0.005 -0.3226 -0.1931  0.0529
    1Sil    Sib 2544  -1.616   3.629  -0.644  0.1832 -0.1926  0.5124
    1Sil    Sib 2545  -1.011   4.075  -0.073 -0.1829  0.0673  0.3346
    1Sil    Sim 2546   1.434   3.527  -0.855 -0.2700  0.0380 -0.3802
    1Sil    Sib 2547  -1.364   0.315   0.575  0.1797  0.3964  0.1244
    1Sil    Sib 2548  -1.291   3.920  -0.091 -0.1835 -0.1036 -0.2186
    1Sil    Sib 2549   1.364   3.933   0.376  0.2963 -0.1458  0.0042
    1Sil    Sib 2550   1.612   3.986  -0.618 -0.2241  0.1127 -0.1009
    1Sil    Sim 2551  -2.309   0.503   0.930  0.0212 -0.0409 -0.2223
    1Sil    Sib 2552  -1.639   2.864   0.456  0.2007 -0.0781 -0.2461
    1Sil    Sim 2553  -1.432   0.403   0.998  0.3522  0.4585  0.4353
    1Sil    Sib 2554  -1.117   3.664   0.386  0.0278  0.0515  0.5653
    1Sil    Sib 2555   1.323   4.664  -0.796 -0.5290 -0.0466  0.1896
    1Sil    Sib 2556  -1.261   3.685   0.779  0.1240  0.0342 -0.0237
    1Sil    Sib 2557  -1.354   3.136   0.376 -0.1970  0.2145 -0.1023
    1Sil    Sib 2558   1.502   4.208   0.379 -0.6107 -0.0645  0.2614
    1Sil    Sim 2559  -1.362   2.993  -0.985  0.1237 -0.5403  0.3339
    1Sil    Sim 2560  -1.279   4.168  -1.016 -0.2553 -0.2228 -0.1562
    1Sil    Sib 2561   2.310   4.415  -0.359  0.3310 -0.2523  0.1244
    1Sil    Sim 2562  -1.420   3.898   0.972 -0.0976  0.1937  0.2667
    1Sil    Sib 2563  -1.079   3.615  -0.118  0.4323  0.5337  0.5026
    1Sil    Sib 2564   2.071   3.830  -0.458  0.0028  0.1043  0.1030
    1Sil    Sim 2565  -1.916   3.790  -0.977  0.1159 -0.4776  0.1924
    1Sil    Sib 2566  -1.413   4.087  -0.513 -0.0724  0.2160 -0.1833
    1Sil    Sib 2567  -1.333   3.696  -0.630 -0.0387 -0.3425  0.3744
    1Sil    Sib 2568   2.046   4.290  -0.424  0.1143  0.4396  0.0048
    1Sil    Sib 2569   1.285   3.867   0.661 -0.2972  0.1036  0.1028
    1Sil    Sib 2570   1.550   4.026  -0.012 -0.0188 -0.2237 -0.0771
    1Sil    Sib 2571   1.333   4.251   0.733 -0.2136 -0.0601 -0.1510
    1Sil    Sib 2572  -1.248   4.523  -0.339  0.4212  0.3492 -0.0088
    1Sil    Sib 2573  -1.443   3.737   0.093 -0.1988  0.5851 -0.1005
    1Sil    Sib 2574  -0.935   0.314  -0.719  0.3604  0.3542  0.3952
    1Sil    Sib 2575   1.275   3.339   0.098 -0.1409  0.2248 -0.5898
    1Sil    Sib 2576  -0.936   4.002   0.210  0.6187  0.4797  0.0085
    1Sil    Sib 2577  -2.021   4.342   0.733  0.2319 -0.4115 -0.1418
    1Sil    Sib 2578   1.625   2.866   0.153  0.0952 -0.3675  0.3358
    1Sil    Sib 2579  -1.698   3.182   0.679 -0.3124  0.1732  0.2687
    1Sil    Sib 2580  -1.224   2.836  -0.031  0.0240 -0.1657  0.2079
    1Sil    Sib 2581  -0.894   4.465   0.300 -0.2638  0.3785  0.1388
    1Sil    Sib 2582  -1.645   0.413   0.600 -0.0388 -0.4050  0.2190
    1Sil    Sib 2583  -1.436   0.161   0.825 -0.5007  0.5281 -0.0703
    1Sil    Sim 2584  -1.729   0.298  -0.993 -0.2580 -0.4481 -0.0064
    1Sil    Sib 2585   1.502   4.087  -0.874  0.4326 -0.0503 -0.2560
    1Sil    Sib 2586  -0.808   0.144  -0.486 -0.6555 -0.3526  0.0027
    1Sil    Sib 2587  -0.972   3.720   0.144 -0.3796 -0.3281 -0.3211
    1Sil    Sib 2588  -1.634   3.940  -0.694 -0.0323  0.2141  0.0290
    1Sil    Sim 2589  -1.648   3.951  -1.004 -0.2302  0.2272  0.3324
    1Sil    Sib 2590   1.396   0.548  -0.500  0.1888 -0.4958  0.0233
    1Sil    Sib 2591   1.592   3.392  -0.258 -0.0415 -0.1061 -0.2662
    1Sil    Sib 2592  -0.915   3.324  -0.597  0.3192 -0.6044 -0.1776
    1Sil    Sib 2593  -1.059   4.283  -0.295 -0.2897  0.1666 -0.4738
    1Sil    Sib 2594   1.294   4.769   0.055 -0.0610  0.2180  0.4193
    1Sil    Sib 2595  -1.643   3.145   0.376 -0.2964  0.4050 -0.3839
    1Sil    Sib 2596   1.442   2.713   0.756 -0.2436 -0.3819 -0.0012
    1Sil    Sib 2597  -1.432   4.327  -0.692 -0.0482  0.2944  0.0066
    1Sil    Sib 2598   1.375   2.852   0.286 -0.5831  0.0423  0.2597
    1Sil    Sib 2599  -1.086   0.504  -0.522 -0.2009 -0.3986 -0.5064
    1Sil    Sim 2600  -1.680   0.543   0.864 -0.2407  0.1636  0.1507
    1Sil    Sim 2601   1.619   4.321  -1.002 -0.0394  0.0254  0.1333
    1Sil    Sib 2602  -2.273   3.580   0.192  0.2323  0.2171  0.2647
    1Sil    Sim 2603  -1.056   3.089  -0.993 -0.5490 -0.3682  0.0408
    1Sil    Sib 2604  -0.932   4.481   0.874 -0.2422 -0.0411 -0.2428
    1Sil    Sib 2605   1.736   3.135   0.500 -0.1803 -0.2763 -0.4530
    1Sil    Sim 2606  -0.890   3.230   0.877 -0.3315  0.0157 -0.0223
    1Sil    Sib 2607   1.242   2.907  -0.123 -0.1135  0.0304 -0.1138
    1Sil    Sib 2608   1.726   2.844   0.436 -0.2143  0.3260 -0.0054
    1Sil    Sib 2609   1.590   0.506   0.040 -0.3287  0.0135 -0.3184
    1Sil    Sib 2610   1.910   3.677  -0.673 -0.0945  0.7498  0.0797
    1Sil    Sib 2611   1.828   2.731  -0.792  0.0380  0.2101 -0.0053
    1Sil    Sib 2612   1.335   3.631   0.062 -0.2285 -0.2664  0.1426
    1Sil    Sib 2613   1.600   3.685  -0.648 -0.2647  0.0678  0.3729
    1Sil    Sib 2614   1.921   3.177  -0.634 -0.0714 -0.1584  0.3253
    1Sil    Sib 2615   2.548   2.853  -0.766  0.1328  0.0595 -0.6399
    1Sil    Sib 2616   1.524   3.016  -0.224  0.0238 -0.0594 -0.1968
    1Sil    Sib 2617  -2.159   3.693  -0.071  0.2583 -0.2160  0.3690
    1Sil    Sib 2618  -1.420   3.440   0.093  0.1416  0.4044  0.0217
    1Sil    Sib 2619  -2.041   3.248   0.454 -0.3022  0.2071 -0.0686
    1Sil    Sib 2620  -0.963   3.523   0.602 -0.0431  0.1507 -0.2967
    1Sil    Sib 2621  -1.732   3.747  -0.013  0.0160 -0.0234 -0.0838
    1Sil    Sib 2622   1.485   4.285   0.096  0.1258 -0.1324 -0.4984
    1Sil    Sib 2623   2.265   2.808  -0.540 -0.7713  0.0872  0.0471
    1Sil    Sib 2624  -1.974   3.906   0.029 -0.2436 -0.0157 -0.2843
    1Sil    Sib 2625  -1.123   3.540  -0.500 -0.2451 -0.0363  0.2444
    1Sil    Sib 2626  -2.047   4.085   0.255  0.2435  0.0142  0.5859
    1Sil    Sib 2627   1.715   2.891   0.845  0.3290 -0.3481  0.3201
    1Sil    Sib 2628  -0.939   4.386   0.577 -0.3572 -0.3019  0.0207
    1Sil    Sib 2629  -1.026   3.147   0.593 -0.0212  0.0625 -0.1308
    1Sil    Sib 2630   1.443   4.488   0.863  0.3169  0.1007 -0.2035
    1Sil    Sib 2631  -1.191   3.383   0.698 -0.1261 -0.0628 -0.5204
    1Sil    Sib 2632  -1.372   3.850   0.361 -0.7273 -0.1752 -0.4684
    1Sil    Sim 2633  -0.811   3.728  -0.905  0.9149 -0.1022 -0.1315
    1Sil    Sib 2634  -1.029   4.085  -0.716  0.0066 -0.1377  0.2075
    1Sil    Sib 2635   1.868   3.280  -0.346 -0.2068 -0.0942  0.5320
    1Sil    Sib 2636   1.289   4.060  -0.179 -0.1974  0.0427 -0.1234
    1Sil    Sib 2637  -0.752   3.989  -0.760  0.8462 -0.1967  0.4313
    1Sil    Sib 2638   2.258   3.044  -0.133  0.1456 -0.0215 -0.1551
    1Sil    Sib 2639   2.333   3.852  -0.305 -0.3002 -0.1178 -0.2176
    1Sil    Sib 2640   1.313   3.677  -0.254 -0.3202  0.2115 -0.1597
    1Sil    Sib 2641   1.556   3.793   0.190  0.5262 -0.2624 -0.0400
    1Sil    Sib 2642  -1.469   4.159  -0.021 -0.4445  0.2288  0.3198
    1Sil    Sib 2643  -0.974   3.213   0.276  0.3633 -0.3957  0.2494
    1Sil    Sib 2644   1.736   4.380  -0.329  0.2934  0.1879  0.4627
    1Sil    Sib 2645  -1.154   3.285   0.053  0.0197  0.1140  0.0934
    1Sil    Sib 2646   1.757   4.125  -0.194  0.2639 -0.1185 -0.2144
    1Sil    Sim 2647   1.387   3.643   0.823  0.0092 -0.1278 -0.0340
    1Sil    Sib 2648  -2.034   4.569  -0.017  0.2409  0.3905 -0.0801
    1Sil    Sim 2649   1.801   3.664   0.719 -0.1924 -0.7454  0.0472
    1Sil    Sib 2650   1.696   3.279   0.239 -0.0104  0.4496  0.0244
    1Sil    Sim 2651   1.728   3.941  -1.004  0.0045  0.2053  0.1185
    1Sil    Sib 2652  -0.933   0.377   0.019 -0.4050 -0.0018 -0.0457
    1Sil    Sim 2653  -1.093   3.713  -1.028 -0.0017  0.3823 -0.0779
    1Sil    Sib 2654   1.638   2.820  -0.568  0.3733 -0.1965  0.2511
    1Sil    Sib 2655   1.642   0.301   0.209 -0.4651 -0.2298  0.1040
    1Sil    Sib 2656   1.278   3.020  -0.889 -0.2850 -0.5667  0.1837
    1Sil    Sib 2657   1.441   4.481  -0.355 -0.0512 -0.0246  0.5082
    1Sil    Sib 2658  -1.694   0.578  -0.824  0.2187  0.2465 -0.0361
    1Sil    Sib 2659   1.791   4.270   0.335 -0.1848  0.3356  0.1462
    1Sil    Sib 2660  -0.937   3.365  -0.133  0.0678 -0.0318  0.0424
    1Sil    Sim 2661   1.513   4.580  -1.028  0.3459  0.0025  0.3952
    1Sil    Sim 2662  -1.613   3.198  -0.999 -0.2546  0.8529 -0.0175
    1Sil    Sib 2663   1.981   2.847   0.708 -0.4057  0.0308  0.1526
    1Sil    Sib 2664  -0.887   2.801  -0.373 -0.5603  0.1956  0.4550
    1Sil    Sib 2665  -0.851   3.031  -0.568 -0.4402  0.0139  0.0223
    1Sil    Sib 2666  -1.914   4.308   0.082  0.2508 -0.5295 -0.0042
    1Sil    Sib 2667  -1.060   3.962   0.767 -0.2907 -0.1013 -0.1700
    1Sil    Sib 2668  -1.344   3.062   0.073  0.1575  0.1661 -0.4154
    1Sil    Sib 2669   1.494   3.237  -0.792  0.1626  0.0076  0.1053
    1Sil    Sib 2670   2.384   2.790  -0.251  0.4429 -0.1237 -0.1192
    1Sil    Sib 2671   1.412   4.481   0.395 -0.1464 -0.3899 -0.0648
    1Sil    Sib 2672   1.299   4.363  -0.103  0.3171  0.4516 -0.1541
    1Sil    Sim 2673   1.804   3.952   0.837  0.5724 -0.1808 -0.7151
    1Sil    Sib 2674  -1.217   0.437  -0.059 -0.2263  0.0015  0.5532
    1Sil    Sib 2675  -1.155   0.503   0.889 -0.1171  0.1069 -0.6373
    1Sil    Sib 2676   2.019   3.488  -0.889 -0.0423  0.1889  0.1908
    1Sil    Sib 2677  -1.372   2.901  -0.288  0.2048  0.2286  0.8176
    1Sil    Sib 2678  -1.998   0.485   0.254  0.3467 -0.4480 -0.5310
    1Sil    Sib 2679  -2.087   2.853   0.285 -0.2280  0.3611 -0.4261
    1Sil    Sim 2680  -1.099   2.876   0.987  0.3856  0.4324  0.0737
    1Sil    Sib 2681  -1.467   3.337   0.731  0.3120 -0.3550  0.2082
    1Sil    Sib 2682   1.481   3.072  -0.530 -0.0904  0.0702 -0.3122
    1Sil    Sib 2683   2.189   3.314  -0.689  0.4830 -0.2035  0.0854
    1Sil    Sib 2684   1.956   3.045  -0.174  0.1665  0.0215 -0.4770
    1Sil    Sib 2685  -1.672   3.244   0.090  0.1486 -0.4629 -0.2229
    1Sil    Sib 2686  -1.232   3.913  -0.854  0.2578  0.1154  0.3522
    1Sil    Sib 2687   1.794   3.243  -0.900 -0.2318 -0.0053  0.1972
    1Sil    Sib 2688  -1.531   3.909   0.639  0.2806 -0.3641  0.1690
    1Sil    Sim 2689  -1.536   3.285   1.004  0.3589 -0.0154 -0.1067
    1Sil    Sib 2690   1.846   3.050   0.097 -0.1127  0.1623  0.1840
    1Sil    Sib 2691  -2.005   4.148  -0.152  0.3247 -0.1657 -0.3185
    1Sil    Sib 2692  -1.508   4.544  -0.502 -0.4201 -0.1439 -0.4833
    1Sil    Sib 2693  -0.991   3.770  -0.347  0.0949  0.2297  0.3663
    1Sil    Sib 2694  -1.851   3.466   0.012 -0.0061 -0.1717 -0.1685
    1Sil    Sim 2695  -1.565   3.483  -0.910 -0.2928 -0.3403 -0.0841
    1Sil    Sib 2696   1.814   0.503   0.623 -0.1529  0.3130  0.0078
    1Sil    Sib 2697  -1.806   3.634   0.473 -0.4365  0.3052  0.0222
    1Sil    Sib 2698  -1.389   2.934   0.608 -0.1711 -0.4838 -0.5375
    1Sil    Sib 2699   2.123   4.067  -0.627 -0.1497 -0.4800  0.1305
    1Sil    Sim 2700  -2.004   0.175  -1.073 -0.0383 -0.0139  0.2893
    1Sil    Sib 2701  -1.151   0.141  -0.815  0.2628  0.0722 -0.2687
    1Sil    Sim 2702  -0.904   3.535   0.894 -0.0849  0.0457  0.2457
    1Sil    Sib 2703  -1.119   4.027  -0.453 -0.2482 -0.1591  0.3715
    1Sil    Sib 2704   1.873   3.965  -0.737  0.1295  0.4248 -0.2093
    1Sil    Sim 2705  -1.743   3.953   0.961 -0.3284  0.2525 -0.0905
    1Sil    Sib 2706   1.589   3.675  -0.364  0.2654  0.3784 -0.4895
    1Sil    Sib 2707   1.813   3.857  -0.296 -0.0228 -0.0891 -0.4077
    1Sil    Sim 2708   1.510   4.043   0.795  0.0891  0.0628 -0.1663
    1Sil    Sim 2709   1.567   3.532   0.615 -0.1279 -0.3652 -0.0723
    1Sil    Sib 2710  -1.976   4.050   0.761  0.3827  0.1852 -0.3527
    1Sil    Sib 2711  -1.382   4.427   0.072  0.2201  0.3350  0.2727
    1Sil    Sib 2712  -1.921   3.941   0.493  0.1595  0.2477  0.4495
    1Sil    Sib 2713  -1.422   3.751  -0.331 -0.0952  0.3383 -0.0008
    1Sil    Sib 2714  -2.012   3.481   0.663 -0.2730  0.1690  0.1698
    1Sil    Sim 2715   2.140   2.796  -1.074  0.1518  0.1616 -0.6384
    1Sil    Sib 2716  -1.793   3.407   0.843  0.1769 -0.1360  0.2470
    1Sil    Sib 2717  -1.499   4.107   0.273  0.4556  0.0641  0.3474
    1Sil    Sib 2718  -1.486   3.567   0.569  0.5337  0.0934  0.2621
    1Sil    Sib 2719   1.943   4.478   0.480 -0.2172 -0.1317  0.5500
    1Sil    Sib 2720  -1.713   0.516   0.339  0.1508 -0.0187 -0.2953
    1Sil    Sib 2721  -1.722   0.145   0.712 -0.2973 -0.0115  0.6434
    1Sil    Sib 2722   1.809   4.544  -0.957 -0.0924 -1.0021  0.7729
    1Sil    Sib 2723  -1.319  -0.112   0.780 -0.0712 -0.1510 -0.0803
    1Sil    Sim 2724   1.295   2.742  -0.976 -0.7177 -0.1327  0.4378
    1Sil    Sib 2725   1.300   3.394  -0.363  0.6877 -0.1565 -0.2476
    1Sil    Sib 2726  -1.690   4.107   0.505  0.2835 -0.7652  0.3672
    1Sil    Sib 2727  -1.790   3.469  -0.445  0.2468 -0.3595  0.2729
    1Sil    Sib 2728   1.906   2.966  -0.990  0.3601  0.3105  0.0973
    1Sil    Sib 2729  -1.869   3.020  -0.915  0.4375 -0.2476 -0.3537
    1Sil    Sib 2730  -1.613   4.139  -0.289  0.0334  0.6758  0.2030
    1Sil    Sib 2731  -1.661   3.210  -0.339 -0.3320 -0.1110  0.0013
    1Sil    Sib 2732   2.407   3.080  -0.609  0.3440 -0.0399 -0.0665
    1Sil    Sib 2733  -1.361   2.719  -0.537  0.0434 -0.4915 -0.1780
    1Sil    Sim 2734  -1.680   3.697   0.861 -0.3447  0.2574 -0.3841
    1Sil    Sib 2735  -1.558   4.249  -0.953  0.0118  0.4822 -0.3212
    1Sil    Sib 2736   1.774   0.423  -0.167 -0.1174 -0.2120  0.2424
    1Sil    Sib 2737   1.358   4.075  -0.484 -0.0691 -0.0764  0.1852
    1Sil    Sib 2738  -1.668   4.522   0.106  0.0112 -0.2729  0.1894
    1Sil    Sib 2739   2.032   2.892  -0.662  0.1832 -0.0569  0.1081
    1Sil    Sib 2740  -1.323   0.135   0.335 -0.0438  0.3390  0.0178
    1Sil    Sib 2741  -1.780   0.422  -0.153  0.2558  0.4100 -0.8230
    1Sil    Sib 2742  -1.991   3.493   0.269 -0.0374 -0.2175  0.3763
    1Sil    Sib 2743   1.775   2.826  -0.298  0.5479 -0.3910  0.1590
    1Sil    Sib 2744  -0.705   3.048   0.562 -0.1439 -0.2584 -0.0755
    1Sil    Sim 2745  -2.279   0.220   0.942  0.3235  0.0016  0.4640
    1Sil    Sim 2746  -2.065   4.056  -1.106  0.0076  0.3573 -0.0034
    1Sil    Sim 2747  -1.814   2.932   0.860 -0.2597  0.3155 -0.2540
    1Sil    Sib 2748  -0.687   3.365   0.576  0.2839  0.0950 -0.3040
    1Sil    Sim 2749  -0.816   2.888   0.834 -0.1860 -0.4688 -0.1630
    1Sil    Sim 2750   1.697   3.177   0.823  0.2391 -0.5155  0.2564
    1Sil    Sib 2751  -0.700   0.572   0.505  0.1933 -0.1233  0.1541
    1Sil    Sib 2752  -0.576   0.614   0.768 -0.0560 -0.1295 -0.4147
    1Sil    Sib 2753  -0.164   0.664  -0.797  0.0573  0.1447 -0.1585
    1Sil    Sib 2754   0.661   0.635  -0.539  0.4113  0.2509  0.2052
    1Sil    Sib 2755   1.339   0.558   0.500  0.3123 -0.1029  0.1446
    1Sil    Sib 2756   1.452   0.597   0.760  0.1920 -0.1502 -0.4615
    1Sil    Sib 2757   1.817   0.648  -0.819  0.0206 -0.0687 -0.0443
    1Sil    Sib 2758  -1.363   0.634  -0.533  0.4402  0.1398 -0.1748
    1Sil    Sib 2759  -0.607   1.094   0.787 -0.0419  0.0230 -0.1537
    1Sil    Sib 2760  -0.609   3.185   0.793 -0.2051 -0.0507  0.3778
    1Sil     Hm 2761   1.093   0.971   1.038 -1.3646 -0.0595  0.9981
    1Sil     Hm 2762   1.046   1.129   1.085 -0.0819 -1.2494  1.5516
    1Sil     Hm 2763   0.958   1.058   0.950  0.0341  4.7927 -0.0405
    1Sil     Hm 2764   0.314   1.551  -1.036  0.0006 -1.4868  0.1289
    1Sil     Hm 2765   0.442   1.647  -0.958 -1.0062 -0.4637  1.1262
    1Sil     Hm 2766   0.487   1.527  -1.084  0.3523  1.7198 -0.3888
    1Sil     Hm 2767  -0.274   1.562   1.012 -1.1436 -2.2891  0.0547
    1Sil     Hm 2768  -0.231   1.400   0.997  1.8665 -0.4232  0.8957
    1Sil     Hm 2769  -0.102   1.509   1.000 -0.6825 -0.0216  1.9599
    1Sil     Hm 2770   0.715   1.920  -1.195 -0.3269 -1.2639  4.1636
    1Sil     Hm 2771   0.768   2.081  -1.248 -1.0670  1.4010  0.7613
    1Sil     Hm 2772   0.874   1.969  -1.152 -0.9967 -1.9813 -0.8088
    1Sil     Hm 2773  -0.593   1.956   1.039  0.0930  0.5676  0.7871
    1Sil     Hm 2774  -0.430   1.977   1.036  0.1640 -0.0659  0.4292
    1Sil     Hm 2775  -0.521   2.116   1.011  1.7479  0.1523 -1.7348
    1Sil     Hm 2776  -0.561   1.729   1.001 -0.8465  0.4778  1.4172
    1Sil     Hm 2777  -0.717   1.815   0.991 -0.5028  0.7326  0.8443
    1Sil     Hm 2778  -0.693   1.671   1.091  1.0620  0.0188 -0.2048
    1Sil     Hm 2779  -0.352   1.739   1.062 -1.1701  1.0688  0.0024
    1Sil     Hm 2780  -0.176   1.759   1.081  0.2594  1.7089  0.1160
    1Sil     Hm 2781  -0.266   1.898   1.084 -0.9046 -0.8183  0.6295
    1Sil     Hm 2782   0.966   1.271  -1.078  0.3069  2.6952  0.1953
    1Sil     Hm 2783   1.096   1.365  -0.991  0.8300 -0.4537  0.6301
    1Sil     Hm 2784   1.122   1.210  -1.049  0.8851 -1.0263  2.3189
    1Sil     Hm 2785   0.089   1.686  -0.752  1.6894  0.6336  1.7935
    1Sil     Hm 2786   0.236   1.705  -0.833  0.6028  2.2163  1.2002
    1Sil     Hm 2787   0.127   1.850  -0.804 -1.8681 -0.0918  0.3827
    1Sil     Hm 2788  -0.403   1.404  -1.000 -0.2413  0.2376  0.8018
    1Sil     Hm 2789  -0.565   1.340  -1.045 -0.0485  0.4830  0.9499
    1Sil     Hm 2790  -0.530   1.509  -1.074 -0.3838 -0.6718 -2.4074
    1Sil     Hm 2791   0.569   1.795  -1.088 -0.2029 -0.7521 -1.2916
    1Sil     Hm 2792   0.434   1.786  -1.195 -1.9570  0.5435  0.6825
    1Sil     Hm 2793   0.494   1.943  -1.174 -0.6815  1.5042  2.2727
    1Sil     Hm 2794   0.206   2.462   0.938  1.3177  0.7927  2.2204
    1Sil     Hm 2795   0.163   2.626   1.007 -0.1066  0.9944 -1.2259
    1Sil     Hm 2796   0.129   2.585   0.842  0.7315  1.7576  0.6577
    1Sil     Hm 2797   0.606   0.687   0.895 -0.3101 -0.1066 -0.2762
    1Sil     Hm 2798   0.652   0.724   1.060  0.9202 -1.0239 -1.1716
    1Sil     Hm 2799   0.496   0.774   1.006 -1.3283  0.1960 -3.6256
    1Sil     Hm 2800  -0.423   0.792  -0.959  0.0855 -0.2891 -1.8231
    1Sil     Hm 2801  -0.440   0.629  -0.898 -0.2672  2.0155  2.5300
    1Sil     Hm 2802  -0.455   0.676  -1.073 -0.5246  0.3257 -0.6500
    1Sil     Hm 2803  -0.295   2.189  -1.126 -0.2054 -0.3627 -0.2865
    1Sil     Hm 2804  -0.447   2.129  -1.170 -0.8146 -0.0763  1.4869
    1Sil     Hm 2805  -0.402   2.300  -1.216  0.3390 -0.4608 -0.1965
    1Sil     Hm 2806   1.249   1.964   1.113 -0.7186  0.1011 -1.1098
    1Sil     Hm 2807   1.249   2.144   1.133  1.2816 -0.0224 -1.2785
    1Sil     Hm 2808   1.105   2.037   1.174  0.5347 -1.8133 -0.0310
    1Sil     Hm 2809   0.696   2.600   1.185  0.7584 -0.7853 -1.2819
    1Sil     Hm 2810   0.575   2.487   1.233 -0.3466 -2.3686 -0.5520
    1Sil     Hm 2811   0.738   2.433   1.180  0.2235 -0.7373 -2.0631
    1Sil     Hm 2812   0.797   0.678  -1.177 -0.8244 -2.3519  1.7521
    1Sil     Hm 2813   0.634   0.678  -1.125  0.2199 -0.7066  1.1060
    1Sil     Hm 2814   0.709   0.833  -1.138  0.1352 -0.1447 -0.3766
    1Sil     Hm 2815   0.749   1.849   1.156  2.1109 -1.5320  0.3930
    1Sil     Hm 2816   0.583   1.865   1.211 -1.7415 -0.3140 -0.9172
    1Sil     Hm 2817   0.665   1.705   1.189 -0.2595  0.8382  0.2076
    1Sil     Hm 2818   0.308   2.624  -1.110 -1.3071 -0.0592  0.5930
    1Sil     Hm 2819   0.408   2.494  -1.168  0.1781  2.1115 -0.2201
    1Sil     Hm 2820   0.240   2.475  -1.197  0.5412 -0.1387 -0.8682
    1Sil     Hm 2821   0.858   1.057  -1.159  1.2127  1.3315  0.0097
    1Sil     Hm 2822   1.021   1.074  -1.212 -2.2339  0.7901 -1.7751
    1Sil     Hm 2823   0.943   0.920  -1.230 -3.9670  1.4056 -1.6836
    1Sil     Hm 2824   1.294   1.728  -1.029  0.7477 -1.0011 -1.7655
    1Sil     Hm 2825   1.201   1.612  -1.132 -0.6346 -0.1697 -0.1183
    1Sil     Hm 2826   1.142   1.761  -1.074 -0.9154 -0.6751  0.3942
    1Sil     Hm 2827   0.984   1.548  -1.199 -0.6238 -2.0470  0.2002
    1Sil     Hm 2828   0.813   1.583  -1.230 -1.8543 -1.1211  1.3520
    1Sil     Hm 2829   0.912   1.715  -1.183  0.4488 -0.1301 -0.0222
    1Sil     Hm 2830   0.325   1.240  -1.216 -0.1581 -0.3131 -0.5886
    1Sil     Hm 2831   0.468   1.158  -1.245 -1.2520  0.3412 -0.7488
    1Sil     Hm 2832   0.311   1.069  -1.193 -2.0124  1.2495  1.5016
    1Sil     Hm 2833   0.618   1.354   1.146  0.6412  0.2411  1.8344
    1Sil     Hm 2834   0.489   1.290   1.236  1.2837 -0.8110  1.0044
    1Sil     Hm 2835   0.631   1.189   1.214  0.2427 -2.2305 -3.1668
    1Sil     Hm 2836   0.032   2.403  -1.277 -0.9004  0.9444  1.5909
    1Sil     Hm 2837   0.156   2.283  -1.231  0.0841 -3.0063  2.1161
    1Sil     Hm 2838  -0.002   2.236  -1.290 -0.5097  2.5379 -2.1910
    1Sil     Hm 2839   0.992   1.542   1.044 -0.0512  0.0516 -0.8924
    1Sil     Hm 2840   0.938   1.372   1.024 -0.3793 -0.5054  1.1866
    1Sil     Hm 2841   1.079   1.418   1.132  0.3211 -0.6051 -1.2879
    1Sil     Hm 2842   0.280   1.767   1.158 -1.1292 -0.6915  1.4356
    1Sil     Hm 2843   0.103   1.793   1.115  0.6924 -1.9586  1.5704
    1Sil     Hm 2844   0.214   1.931   1.140  1.0805  0.5063 -1.7965
    1Sil     Hm 2845  -0.493   1.464   0.984 -3.7251 -0.2717  1.2136
    1Sil     Hm 2846  -0.591   1.331   0.940  0.6697 -1.0562  1.8060
    1Sil     Hm 2847  -0.414   1.313   0.943 -1.7534 -1.1528 -0.6756
    1Sil     Hm 2848   0.305   0.703  -1.210  0.1648 -0.8463  2.4836
    1Sil     Hm 2849   0.155   0.764  -1.286  1.2949  1.2344  0.9781
    1Sil     Hm 2850   0.162   0.596  -1.244 -0.5582  0.4212 -0.7261
    1Sil     Hm 2851  -0.674   0.683  -1.186  0.5635 -0.8364  1.0279
    1Sil     Hm 2852  -0.821   0.691  -1.083 -0.6034  1.8579  1.3210
    1Sil     Hm 2853  -0.738   0.842  -1.132 -1.4712 -0.6773 -1.3679
    1Sil     Hm 2854   0.522   1.482   1.002  1.6178  1.1141  2.8517
    1Sil     Hm 2855   0.466   1.616   1.097 -1.6320 -0.0067  0.9362
    1Sil     Hm 2856   0.357   1.487   1.084 -0.0020 -0.3284 -0.1265
    1Sil     Hm 2857  -0.284   2.298   1.187  0.1546 -0.2210  0.5503
    1Sil     Hm 2858  -0.125   2.279   1.122 -0.5659  1.4349  3.2819
    1Sil     Hm 2859  -0.239   2.154   1.083  0.5078  0.5608 -0.9578
    1Sil     Hm 2860  -0.030   1.855  -1.298 -0.9172  0.6389 -0.5316
    1Sil     Hm 2861  -0.021   2.027  -1.333 -0.8552  1.2284  1.1171
    1Sil     Hm 2862   0.110   1.945  -1.260 -0.3225 -0.3365 -0.4323
    1Sil     Hm 2863   0.329   0.901   1.040  0.7032  1.0139 -2.2105
    1Sil     Hm 2864   0.182   0.999   0.992 -0.1625  0.0031  2.0425
    1Sil     Hm 2865   0.164   0.844   1.071 -0.2608 -1.2611 -1.3558
    1Sil     Hm 2866  -0.536   2.656   1.041  1.5748  2.0223 -2.2217
    1Sil     Hm 2867  -0.443   2.517   1.109  2.9214  0.0381  1.0276
    1Sil     Hm 2868  -0.399   2.686   1.144  1.0283 -1.0069 -0.0332
    1Sil     Hm 2869  -0.236   1.255   0.863  2.6767  0.7444  0.6877
    1Sil     Hm 2870  -0.247   1.162   1.018 -2.4326 -1.1346 -0.5017
    1Sil     Hm 2871  -0.122   1.123   0.907  0.2613  0.0876  0.7571
    1Sil     Hm 2872   1.415   0.836   0.978  0.0552 -0.6772 -1.7099
    1Sil     Hm 2873   1.273   0.901   1.044  1.2627 -0.4482  1.1760
    1Sil     Hm 2874   1.291   0.725   1.046 -2.8633 -1.7512 -2.8033
    1Sil     Hm 2875   1.103   0.763   1.133  1.0233  0.6007  2.8152
    1Sil     Hm 2876   0.974   0.871   1.185 -1.7620 -1.1012  0.7776
    1Sil     Hm 2877   0.950   0.694   1.196  0.9617 -0.1723  0.5147
    1Sil     Hm 2878  -0.213   1.689  -1.004 -0.6424 -1.4335  0.6487
    1Sil     Hm 2879  -0.354   1.679  -0.904 -1.3500  0.2772 -1.0782
    1Sil     Hm 2880  -0.375   1.693  -1.076 -1.9271  0.6193  0.1733
    1Sil     Hm 2881   0.572   2.862  -1.155 -0.1547 -0.1693  3.9932
    1Sil     Hm 2882   0.669   2.982  -1.237 -1.7609  0.3676  0.8477
    1Sil     Hm 2883   0.754   2.841  -1.178 -0.5734 -0.8917 -0.0611
    1Sil     Hm 2884   1.121   3.245   1.054  0.0824  1.4823 -0.9976
    1Sil     Hm 2885   0.976   3.206   0.975 -0.0474  1.0867 -1.5955
    1Sil     Hm 2886   1.118   3.090   0.993 -0.7093  1.1763  2.0277
    1Sil     Hm 2887   0.427   3.506  -1.130  0.6338 -0.2262 -0.0736
    1Sil     Hm 2888   0.280   3.568  -1.053 -0.0484 -1.6760 -1.6237
    1Sil     Hm 2889   0.421   3.671  -1.059  0.2697  0.2588  1.6680
    1Sil     Hm 2890  -0.175   3.502   0.993 -1.3564  0.2058  0.3793
    1Sil     Hm 2891  -0.126   3.670   1.021  0.6889  0.6359 -0.5954
    1Sil     Hm 2892  -0.298   3.628   1.004  0.3445  0.4444 -0.1136
    1Sil     Hm 2893   0.800   4.185  -1.194 -1.6408  0.3251 -1.3290
    1Sil     Hm 2894   0.807   4.015  -1.148 -2.4725 -1.8261  1.6911
    1Sil     Hm 2895   0.662   4.074  -1.215  0.6122  0.4428 -1.4957
    1Sil     Hm 2896  -0.586   4.031   1.034 -1.0518  0.2149  0.0732
    1Sil     Hm 2897  -0.571   4.203   0.994 -0.3551 -0.2224  0.1826
    1Sil     Hm 2898  -0.431   4.118   1.014 -1.8816  1.6082  3.0469
    1Sil     Hm 2899  -0.638   3.746   1.067  1.8642  0.2446  0.1735
    1Sil     Hm 2900  -0.535   3.827   0.959 -0.1436  1.1394  1.0172
    1Sil     Hm 2901  -0.697   3.891   0.973 -1.3130 -1.0005 -0.6769
    1Sil     Hm 2902   0.039   3.131  -1.092  0.9816 -1.5303  0.6908
    1Sil     Hm 2903   0.039   3.230  -0.945  1.2020 -0.1021  0.6575
    1Sil     Hm 2904   0.174   3.238  -1.069  2.9169 -2.0875 -0.3631
    1Sil     Hm 2905   0.813   3.410  -1.196 -0.1668 -1.7955 -0.0197
    1Sil     Hm 2906   0.756   3.284  -1.078  0.3223 -0.3516  0.4023
    1Sil     Hm 2907   0.649   3.400  -1.157 -0.4405 -0.6616  0.6956
    1Sil     Hm 2908  -0.207   3.856   1.070  0.0649  1.3698  0.5701
    1Sil     Hm 2909  -0.256   4.029   1.062 -0.4053 -0.1406  0.3107
    1Sil     Hm 2910  -0.376   3.902   1.047 -0.4598  3.1644  1.9413
    1Sil     Hm 2911   1.025   3.376  -1.122  0.0505 -1.2701  0.0499
    1Sil     Hm 2912   1.126   3.507  -1.070 -0.0499  0.1404  0.9892
    1Sil     Hm 2913   1.197   3.347  -1.077 -0.5662  0.5134 -2.3343
    1Sil     Hm 2914  -0.583   3.439  -1.069 -1.1427  1.7259 -0.8735
    1Sil     Hm 2915  -0.418   3.492  -1.028 -0.3549 -0.7131 -2.7585
    1Sil     Hm 2916  -0.543   3.612  -1.064  1.0945  0.1820 -0.0009
    1Sil     Hm 2917   0.328   3.999  -1.151 -0.1702 -1.0432  0.1146
    1Sil     Hm 2918   0.450   3.895  -1.057  0.2808 -0.5900  2.4167
    1Sil     Hm 2919   0.294   3.842  -1.110  0.8276  0.3828 -3.3624
    1Sil     Hm 2920   0.150   0.463   0.825  1.1041  0.2645 -0.8256
    1Sil     Hm 2921   0.244   0.344   0.919 -0.6556 -1.4178 -2.6974
    1Sil     Hm 2922   0.176   0.484   1.001 -0.7828 -0.7474 -0.1419
    1Sil     Hm 2923   0.602   2.798   0.879  2.7748 -1.1887  1.4155
    1Sil     Hm 2924   0.655   2.831   1.046  0.0885  1.2057  0.8160
    1Sil     Hm 2925   0.506   2.897   0.999  0.9804  3.7109 -0.5585
    1Sil     Hm 2926  -0.822   2.783  -1.199 -1.0044 -0.1171 -0.2295
    1Sil     Hm 2927  -0.882   2.641  -1.130  0.9445 -0.6791 -0.4013
    1Sil     Hm 2928  -0.942   2.801  -1.070 -0.6971  0.0195 -1.6308
    1Sil     Hm 2929  -0.367   4.372  -1.233  2.3886 -0.3597 -0.3031
    1Sil     Hm 2930  -0.235   4.291  -1.162  0.3033 -0.7767 -0.7430
    1Sil     Hm 2931  -0.387   4.200  -1.196 -0.4526  0.7495  1.4211
    1Sil     Hm 2932   1.214   4.203   1.167  1.7707 -3.4801  2.7600
    1Sil     Hm 2933   1.068   4.104   1.160  0.2415 -0.3545 -0.0311
    1Sil     Hm 2934   1.220   4.033   1.116 -1.4180 -0.8589  0.2774
    1Sil     Hm 2935   0.689   0.484   1.203  0.1144  0.0890  1.3550
    1Sil     Hm 2936   0.744   0.315   1.182  0.5860  1.5150  0.3940
    1Sil     Hm 2937   0.583   0.350   1.232  0.3186  1.2836  0.8866
    1Sil     Hm 2938   0.620   3.825   1.208 -1.7071  1.6528  1.2329
    1Sil     Hm 2939   0.768   3.903   1.148 -0.3475  0.2312 -1.1980
    1Sil     Hm 2940   0.632   4.002   1.190  1.8578  1.3445  0.3907
    1Sil     Hm 2941   0.438   0.359  -1.193 -1.4407 -1.8575 -0.1945
    1Sil     Hm 2942   0.288   0.431  -1.228  0.5532  1.0629  0.5942
    1Sil     Hm 2943   0.408   0.521  -1.132  0.7571  0.9621 -3.6913
    1Sil     Hm 2944   0.919   3.211  -1.200  0.8425 -0.1110 -0.9131
    1Sil     Hm 2945   1.080   3.159  -1.215  0.3086  2.4779  2.0535
    1Sil     Hm 2946   0.946   3.039  -1.224 -0.5866  1.0847 -0.0052
    1Sil     Hm 2947   1.272   3.742  -1.137  1.9437 -1.6179  0.1248
    1Sil     Hm 2948   1.263   3.905  -1.067  0.6388  0.6372  0.5642
    1Sil     Hm 2949   1.397   3.822  -1.027 -0.0853  0.0613  0.6211
    1Sil     Hm 2950   0.884   3.838  -1.243 -0.9162  0.2012  1.4755
    1Sil     Hm 2951   1.048   3.878  -1.193 -1.3315  0.1405 -1.7527
    1Sil     Hm 2952   1.014   3.714  -1.253 -1.4030 -2.1212  0.6986
    1Sil     Hm 2953  -0.578   0.371  -1.240 -2.2393 -0.3172 -0.4283
    1Sil     Hm 2954  -0.694   0.456  -1.143  0.1758  0.8633 -1.1317
    1Sil     Hm 2955  -0.545   0.542  -1.197  0.5878  0.1989  1.6989
    1Sil     Hm 2956   0.340   3.283  -1.190 -1.0771 -0.8408 -2.8332
    1Sil     Hm 2957   0.514   3.270  -1.214  0.1105 -1.2083  0.6695
    1Sil     Hm 2958   0.420   3.132  -1.208 -1.6316 -0.1552  0.9460
    1Sil     Hm 2959   0.620   3.430   1.141  0.0735 -0.7515 -1.2665
    1Sil     Hm 2960   0.466   3.392   1.216  0.4335  2.8051 -1.3959
    1Sil     Hm 2961   0.591   3.262   1.214  0.8676  1.1381  2.1320
    1Sil     Hm 2962  -0.009   0.228  -1.336 -1.1737  1.7789  1.2248
    1Sil     Hm 2963   0.110   0.346  -1.284  0.8982  0.4262 -0.6050
    1Sil     Hm 2964   0.163   0.178  -1.292 -0.2767  0.4303 -1.3894
    1Sil     Hm 2965   0.963   3.542   1.060  0.9157  1.2490  3.0758
    1Sil     Hm 2966   1.111   3.619   1.111  0.6167  0.5133 -0.6777
    1Sil     Hm 2967   1.003   3.703   1.009 -0.4805 -0.1721  0.6147
    1Sil     Hm 2968   0.294   4.074   1.142  2.0294 -0.7512 -0.0353
    1Sil     Hm 2969   0.127   4.028   1.100 -0.2604 -0.7675  1.1898
    1Sil     Hm 2970   0.250   3.911   1.176 -1.0616  0.0888  0.1317
    1Sil     Hm 2971  -0.406   3.413   0.930 -1.4367 -0.2552  1.8687
    1Sil     Hm 2972  -0.492   3.565   0.975  0.7481  0.1692 -0.4026
    1Sil     Hm 2973  -0.581   3.428   0.935  2.2184 -1.1536  4.7119
    1Sil     Hm 2974   0.033   2.789  -1.254 -2.1340 -0.7455  1.2005
    1Sil     Hm 2975   0.196   2.745  -1.199 -0.0111  3.3067  0.0536
    1Sil     Hm 2976   0.057   2.635  -1.169  1.8052 -0.7573 -0.6296
    1Sil     Hm 2977   0.461   3.721   1.096  0.9874 -2.2330  3.1738
    1Sil     Hm 2978   0.537   3.583   1.009 -1.8586 -0.7415 -1.9165
    1Sil     Hm 2979   0.375   3.570   1.082  2.1432 -1.5085  2.2112
    1Sil     Hm 2980  -0.326   0.067   1.136  0.1888  0.2777  1.3930
    1Sil     Hm 2981  -0.296   0.217   1.196 -2.3878 -0.5194 -0.9979
    1Sil     Hm 2982  -0.161   0.108   1.143 -0.4187 -2.1065 -0.0225
    1Sil     Hm 2983  -0.156   4.123  -1.378 -0.2521  0.9199  0.3150
    1Sil     Hm 2984   0.011   4.148  -1.410 -0.2815 -1.3633 -0.1696
    1Sil     Hm 2985  -0.054   3.983  -1.385  0.1835 -0.6301  0.1897
    1Sil     Hm 2986   0.185   2.947   1.077  0.4260 -2.3431 -2.6148
    1Sil     Hm 2987   0.307   3.062   1.031 -0.1412  0.3851  0.9923
    1Sil     Hm 2988   0.135   3.099   0.996 -1.0217 -1.2940 -3.3763
    1Sil     Hm 2989  -0.470   0.423   1.094 -1.6750 -0.3535 -0.5706
    1Sil     Hm 2990  -0.414   0.568   1.164  1.0993  0.3802 -0.3191
    1Sil     Hm 2991  -0.509   0.590   1.030  0.5892 -0.9917  0.0624
    1Sil     Hm 2992  -0.244   3.281   1.009 -1.0911 -4.0853  0.1845
    1Sil     Hm 2993  -0.120   3.221   0.902 -0.7617 -3.5848  0.5697
    1Sil     Hm 2994  -0.218   3.351   0.847 -0.7245  0.5388 -0.0191
    1Sil     Hm 2995   1.394   2.875   1.001 -0.3757  0.3045  0.5278
    1Sil     Hm 2996   1.425   3.027   0.937  0.7731  0.3213  1.6452
    1Sil     Hm 2997   1.290   3.008   1.047  1.7503  1.7216  0.1499
    1Sil     Hm 2998   1.113   2.913   1.135 -0.2136  1.1955 -1.2299
    1Sil     Hm 2999   0.975   2.814   1.180 -2.8012 -0.1464 -2.3513
    1Sil     Hm 3000   0.948   2.979   1.166 -0.3478 -0.8085  1.2925
    1Sil     Hm 3001  -0.362   3.049  -1.116 -0.4257 -0.5998 -1.2423
    1Sil     Hm 3002  -0.287   2.918  -1.200 -0.5068 -1.2837 -0.0329
    1Sil     Hm 3003  -0.405   2.876  -1.088 -0.0208 -1.0564 -2.9967
    1Sil     Hm 3004  -0.949   1.016   1.043  0.9391 -0.0667 -1.2222
    1Sil     Hm 3005  -0.993   1.184   1.052  0.1775 -0.0507  0.0288
    1Sil     Hm 3006  -1.086   1.087   0.941  0.7213  2.0803 -4.4517
    1Sil     Hm 3007  -1.553   1.581  -1.040 -0.3100 -0.6489  0.1033
    1Sil     Hm 3008  -1.569   1.438  -1.135  1.4557 -0.7830  0.4538
    1Sil     Hm 3009  -1.714   1.523  -1.069 -0.4485  0.5888  2.0670
    1Sil     Hm 3010   1.927   1.408   0.962 -1.6988 -1.1053  1.5511
    1Sil     Hm 3011   1.922   1.577   0.983 -0.0615  0.4590  0.4416
    1Sil     Hm 3012   1.773   1.488   1.004 -1.1544  1.9090 -0.1885
    1Sil     Hm 3013  -1.143   1.969  -1.155 -0.2341 -1.5482 -0.4160
    1Sil     Hm 3014  -1.305   1.965  -1.210 -0.1507  0.7145 -0.7445
    1Sil     Hm 3015  -1.215   2.120  -1.213 -0.9796 -0.5189 -1.0055
    1Sil     Hm 3016   1.503   1.940   1.027 -2.6277 -1.7170 -1.6881
    1Sil     Hm 3017   1.617   2.067   0.971 -1.2755  0.7332  1.3507
    1Sil     Hm 3018   1.446   2.099   0.973  0.3295 -0.6814 -1.4954
    1Sil     Hm 3019   1.312   1.780   0.994 -0.2237 -0.7315 -1.3067
    1Sil     Hm 3020   1.385   1.633   1.069 -0.9802 -1.1754 -0.5420
    1Sil     Hm 3021   1.484   1.751   0.971 -0.4133  0.5567  0.8055
    1Sil     Hm 3022  -1.333   1.164  -1.067 -1.2290  0.9863 -1.8362
    1Sil     Hm 3023  -1.360   1.300  -1.169  1.7997  3.9353 -0.2563
    1Sil     Hm 3024  -1.195   1.244  -1.145 -0.4173  3.1016 -2.7032
    1Sil     Hm 3025   1.686   1.857   1.046 -1.8262 -0.2018 -1.4419
    1Sil     Hm 3026   1.683   1.685   1.008 -0.3898  0.4460 -1.6597
    1Sil     Hm 3027   1.838   1.764   1.044  0.7986  0.1342 -0.2709
    1Sil     Hm 3028  -0.853   1.194  -1.077 -2.0184 -1.1814  0.0130
    1Sil     Hm 3029  -0.839   1.356  -0.995 -1.6159  1.3605 -0.2058
    1Sil     Hm 3030  -0.968   1.310  -1.109 -0.2498  1.1542  0.1875
    1Sil     Hm 3031  -1.954   1.652  -0.770 -2.9536  2.1379 -0.0486
    1Sil     Hm 3032  -1.801   1.667  -0.844 -0.1213  1.1362 -1.0536
    1Sil     Hm 3033  -1.893   1.812  -0.804 -2.9928 -0.0908  0.7631
    1Sil     Hm 3034   1.562   1.417  -1.011  0.3177  2.2691 -2.5480
    1Sil     Hm 3035   1.412   1.325  -1.033  0.1528  1.0417 -3.4776
    1Sil     Hm 3036   1.411   1.489  -1.079 -2.5837 -0.0782  0.9892
    1Sil     Hm 3037  -1.562   1.760  -1.176 -1.9693  0.5737  0.6228
    1Sil     Hm 3038  -1.495   1.915  -1.137  0.9378 -0.0870  0.1497
    1Sil     Hm 3039  -1.450   1.781  -1.036  1.7118  1.2741 -1.6341
    1Sil     Hm 3040  -1.787   2.439   0.899 -2.7627  0.4855 -2.4112
    1Sil     Hm 3041  -1.890   2.579   0.871 -1.6243 -1.2403 -0.4599
    1Sil     Hm 3042  -1.812   2.558   1.031 -0.9746  0.7974 -1.0185
    1Sil     Hm 3043  -1.380   0.727   1.041 -1.1028  0.6344  0.7443
    1Sil     Hm 3044  -1.532   0.797   1.003  0.2652  3.5329 -0.7246
    1Sil     Hm 3045  -1.449   0.697   0.882 -0.6180 -0.7125  1.5716
    1Sil     Hm 3046   1.555   0.638  -0.953 -1.5916 -2.0733 -2.4206
    1Sil     Hm 3047   1.501   0.674  -1.120 -3.2658  1.0566 -0.6954
    1Sil     Hm 3048   1.546   0.806  -1.024 -0.4295 -0.9223 -4.0321
    1Sil     Hm 3049  -1.535   1.113  -1.138  0.5911  1.1420  2.3053
    1Sil     Hm 3050  -1.669   1.018  -1.208 -1.6903  1.2094 -0.1509
    1Sil     Hm 3051  -1.602   0.983  -1.047 -2.3089  0.3152  0.5949
    1Sil     Hm 3052   1.597   2.270  -1.246  0.6828 -3.2456 -2.0085
    1Sil     Hm 3053   1.713   2.171  -1.154 -0.0078 -1.7882  0.7763
    1Sil     Hm 3054   1.543   2.122  -1.188  3.4375 -0.7994 -4.4464
    1Sil     Hm 3055  -0.861   1.945   1.139  1.7825 -0.6024  1.3334
    1Sil     Hm 3056  -0.753   2.075   1.153  0.2983  0.6835 -1.1059
    1Sil     Hm 3057  -0.926   2.104   1.196  1.4472 -0.8836  1.2492
    1Sil     Hm 3058  -1.331   2.428   1.197  1.9262  1.4461 -0.3757
    1Sil     Hm 3059  -1.329   2.603   1.183 -0.0427  0.5435  1.0501
    1Sil     Hm 3060  -1.485   2.520   1.215  0.9569  0.4564  0.8495
    1Sil     Hm 3061  -1.340   0.678  -1.182  0.5983  0.6071  2.0284
    1Sil     Hm 3062  -1.396   0.836  -1.145  0.7430  2.1775 -0.6440
    1Sil     Hm 3063  -1.231   0.816  -1.217 -1.0877 -0.6730 -2.7185
    1Sil     Hm 3064  -1.295   1.834   1.172  1.3204 -1.0129 -1.5073
    1Sil     Hm 3065  -1.463   1.828   1.225  1.7359  2.0836  1.2138
    1Sil     Hm 3066  -1.374   1.681   1.200 -1.6810 -0.4164 -1.2715
    1Sil     Hm 3067   2.407   2.587  -1.117  0.9645 -0.0496  0.5179
    1Sil     Hm 3068   2.422   2.437  -1.199  0.8969  0.1424  0.7300
    1Sil     Hm 3069   2.267   2.522  -1.192 -0.4514  0.1046  0.6134
    1Sil     Hm 3070  -1.123   1.044  -1.206 -1.0754 -0.4893  2.4651
    1Sil     Hm 3071  -0.947   1.055  -1.229 -0.4080 -0.7978 -1.2199
    1Sil     Hm 3072  -1.028   0.901  -1.244  2.2533 -0.3208  1.0337
    1Sil     Hm 3073  -0.797   1.651  -1.137 -0.1855 -3.4562  1.2938
    1Sil     Hm 3074  -0.772   1.797  -1.048  1.8870  1.0801 -2.0838
    1Sil     Hm 3075  -0.636   1.688  -1.048 -0.3230 -1.4579  1.0074
    1Sil     Hm 3076  -1.165   1.631  -1.224  0.2163 -2.7513  0.4595
    1Sil     Hm 3077  -1.006   1.716  -1.199  1.1958 -2.0624 -1.0814
    1Sil     Hm 3078  -1.020   1.550  -1.205  1.1419  1.1675 -1.8648
    1Sil     Hm 3079  -1.734   1.290  -1.234  0.4681  1.1807  0.5818
    1Sil     Hm 3080  -1.876   1.192  -1.221  1.2063 -1.3761  0.7138
    1Sil     Hm 3081  -1.858   1.338  -1.115 -0.0534  0.7043 -1.4309
    1Sil     Hm 3082  -1.395   1.184   1.196 -2.1614  1.2203  2.5884
    1Sil     Hm 3083  -1.384   1.337   1.092 -1.0360  0.8866 -0.5936
    1Sil     Hm 3084  -1.520   1.295   1.196  0.9683 -1.9349  1.9142
    1Sil     Hm 3085   2.148   2.237  -1.254 -0.2397  0.0499 -0.9897
    1Sil     Hm 3086   1.983   2.267  -1.286  0.5094 -2.2196  0.2555
    1Sil     Hm 3087   2.091   2.406  -1.257  0.2817  0.7906  1.9577
    1Sil     Hm 3088  -0.959   1.413   1.118  0.9259 -0.2543  0.5451
    1Sil     Hm 3089  -0.995   1.575   1.061  1.6216 -0.7013  1.8731
    1Sil     Hm 3090  -1.106   1.437   1.027  1.0280 -0.7405 -0.3848
    1Sil     Hm 3091  -1.844   1.953   1.163  0.0269  0.1087 -1.8946
    1Sil     Hm 3092  -1.946   1.817   1.117 -0.5637 -0.0284 -0.0528
    1Sil     Hm 3093  -1.787   1.788   1.195  0.8482 -0.4229 -1.4043
    1Sil     Hm 3094   1.554   1.447   0.985  1.7808 -0.3096 -0.6836
    1Sil     Hm 3095   1.466   1.301   0.938  1.0400 -1.6377 -0.6330
    1Sil     Hm 3096   1.642   1.317   0.929  0.4510  0.6038 -2.9614
    1Sil     Hm 3097  -1.557   0.707  -1.110 -1.7611  1.8690  2.8185
    1Sil     Hm 3098  -1.636   0.811  -1.228 -1.3238 -0.3543 -1.2350
    1Sil     Hm 3099  -1.638   0.635  -1.247 -0.5357 -1.4887  1.5023
    1Sil     Hm 3100  -2.018   0.675  -1.183 -0.3169 -0.7634  2.0687
    1Sil     Hm 3101  -1.891   0.610  -1.276  0.0908 -1.4870 -0.4194
    1Sil     Hm 3102  -1.951   0.513  -1.136  1.1276 -0.9075  0.8867
    1Sil     Hm 3103   1.258   0.824  -1.153  0.4901 -0.2699 -0.3800
    1Sil     Hm 3104   1.289   0.657  -1.185  0.7527  0.3473 -0.8726
    1Sil     Hm 3105   1.159   0.690  -1.090  0.2709  0.4572  0.3999
    1Sil     Hm 3106  -1.701   1.474   1.071 -0.1329 -0.7261 -0.5765
    1Sil     Hm 3107  -1.527   1.481   1.008  0.3891  0.9803 -0.7100
    1Sil     Hm 3108  -1.620   1.621   1.084  0.7642  1.4950 -2.0899
    1Sil     Hm 3109   1.808   2.137   1.063  0.7208  0.4804 -3.3061
    1Sil     Hm 3110   1.728   2.251   1.171  2.4235  1.5274  1.2766
    1Sil     Hm 3111   1.896   2.271   1.143 -0.0790 -1.8504  2.1495
    1Sil     Hm 3112  -2.071   2.017  -1.327  0.6517  0.4784 -1.4161
    1Sil     Hm 3113  -1.903   2.001  -1.265 -0.9939  0.8993  0.0990
    1Sil     Hm 3114  -2.011   1.856  -1.275  1.8140 -0.3190 -1.4137
    1Sil     Hm 3115  -1.937   0.941   0.974  0.3160 -0.5407  0.2795
    1Sil     Hm 3116  -1.847   0.824   1.071  1.0197 -0.0015  0.4697
    1Sil     Hm 3117  -1.774   0.978   1.016 -1.4966  1.0206  1.1261
    1Sil     Hm 3118   1.498   2.648   1.024  1.5702  1.3494 -2.1701
    1Sil     Hm 3119   1.574   2.508   1.096 -1.2223  0.1252 -1.6804
    1Sil     Hm 3120   1.607   2.668   1.160 -2.6612 -2.2659  2.0891
    1Sil     Hm 3121   1.843   1.245   0.840 -0.3812  0.8471  0.9734
    1Sil     Hm 3122   1.796   1.192   1.005  0.7816  0.2110 -0.0950
    1Sil     Hm 3123   1.926   1.111   0.913 -1.1295 -2.7236 -0.3056
    1Sil     Hm 3124  -0.769   0.917   1.039 -1.1262 -1.3012  0.4570
    1Sil     Hm 3125  -0.716   0.747   1.056  1.3639  0.1199 -0.6989
    1Sil     Hm 3126  -0.615   0.863   0.976 -0.2083 -0.6907  1.2950
    1Sil     Hm 3127  -0.916   0.769   1.158  0.1977 -0.1111 -0.9875
    1Sil     Hm 3128  -1.040   0.898   1.190  1.7093 -0.7971  1.6989
    1Sil     Hm 3129  -1.072   0.719   1.211 -0.2209 -2.2431 -1.9110
    1Sil     Hm 3130   1.828   0.934  -1.244  0.5962  0.4678  0.5186
    1Sil     Hm 3131   1.728   0.795  -1.192 -3.1282  1.3955 -1.5523
    1Sil     Hm 3132   1.668   0.958  -1.177 -0.7840 -0.9954  3.4560
    1Sil     Hm 3133   1.689   1.671  -0.932  1.3156  0.1776  0.8297
    1Sil     Hm 3134   1.817   1.690  -1.052  0.1680  0.6060  0.4547
    1Sil     Hm 3135   1.648   1.704  -1.104 -0.0418  0.9622 -0.1938
    1Sil     Hm 3136  -1.390   3.016  -1.206 -1.0749  1.7509  1.6158
    1Sil     Hm 3137  -1.303   2.866  -1.163  1.4649  2.3801 -1.7230
    1Sil     Hm 3138  -1.483   2.877  -1.155  1.4402 -2.6642  1.2636
    1Sil     Hm 3139  -1.085   3.181   0.942 -1.1266 -0.5428  0.2365
    1Sil     Hm 3140  -0.949   3.085   1.030  1.2549  0.8114 -1.9008
    1Sil     Hm 3141  -0.987   3.239   1.081  2.1621  0.1892 -0.4638
    1Sil     Hm 3142  -1.591   3.661  -1.028  0.5274 -0.2513 -1.8074
    1Sil     Hm 3143  -1.555   3.518  -1.127  1.5003 -0.5739  0.9938
    1Sil     Hm 3144  -1.716   3.538  -1.058 -0.4456 -1.0263 -1.1728
    1Sil     Hm 3145   1.733   3.672   0.955 -3.1648 -1.5928  0.6958
    1Sil     Hm 3146   1.707   3.514   0.888 -1.9864  1.4254  0.4840
    1Sil     Hm 3147   1.868   3.567   0.925 -1.1250 -0.9595  0.5704
    1Sil     Hm 3148  -1.300   4.103  -1.246  0.9621  0.8717 -0.3410
    1Sil     Hm 3149  -1.144   4.163  -1.206  0.9443 -1.0893 -1.2208
    1Sil     Hm 3150  -1.183   4.004  -1.155 -1.2709 -0.6757 -2.3757
    1Sil     Hm 3151   1.557   4.051   1.057 -0.4769 -0.5528  0.2566
    1Sil     Hm 3152   1.436   4.167   1.016  0.9625  1.0594 -0.8829
    1Sil     Hm 3153   1.393   3.999   1.020  0.3166  0.6191  1.6281
    1Sil     Hm 3154   1.383   3.795   0.980  1.1598  0.9763  0.2974
    1Sil     Hm 3155   1.498   3.661   1.015 -1.2855 -0.5258  0.2788
    1Sil     Hm 3156   1.540   3.776   0.892  0.3959  0.3806  0.7409
    1Sil     Hm 3157  -1.358   3.386  -1.175 -0.5587 -2.0623  0.7757
    1Sil     Hm 3158  -1.180   3.366  -1.168  0.3207 -2.7422  1.3092
    1Sil     Hm 3159  -1.277   3.269  -1.073  1.9303 -0.2210  0.2244
    1Sil     Hm 3160   1.798   3.995   1.070 -0.9109 -0.2924  1.6863
    1Sil     Hm 3161   1.681   3.875   1.038  1.0168 -0.0425  1.4212
    1Sil     Hm 3162   1.855   3.840   1.044  1.0863  0.4108  0.0730
    1Sil     Hm 3163  -0.964   3.457  -1.093  0.7204  2.9613  2.0564
    1Sil     Hm 3164  -0.813   3.444  -0.999 -0.7863  0.0644 -0.6747
    1Sil     Hm 3165  -0.876   3.303  -1.081  0.2551 -0.1651 -0.0854
    1Sil     Hm 3166  -1.775   3.743  -0.832 -0.5177 -2.9186  0.8821
    1Sil     Hm 3167  -1.928   3.709  -0.783  0.5047  0.2529  1.2546
    1Sil     Hm 3168  -1.892   3.881  -0.797  1.9631  0.0610  0.0416
    1Sil     Hm 3169   1.456   3.601  -1.086  0.3741  0.3099  0.2351
    1Sil     Hm 3170   1.583   3.474  -1.043  0.5327 -0.3234 -0.8773
    1Sil     Hm 3171   1.417   3.428  -1.073 -1.1594  0.7049  0.3516
    1Sil     Hm 3172  -1.562   3.837  -1.192 -0.8883 -0.6952  0.2880
    1Sil     Hm 3173  -1.489   3.999  -1.171  1.7800  0.4979  2.6866
    1Sil     Hm 3174  -1.443   3.857  -1.072  0.1548  0.6572  0.7142
    1Sil     Hm 3175  -1.809   0.361   0.940 -1.0187  0.0494  1.6969
    1Sil     Hm 3176  -1.895   0.523   0.959  2.4122  0.5257 -0.3001
    1Sil     Hm 3177  -1.890   0.450   0.809  0.9329 -4.1158 -0.0391
    1Sil     Hm 3178  -1.386   2.839   1.062  1.0344  1.6783 -0.6527
    1Sil     Hm 3179  -1.538   2.887   1.006  0.2547 -1.2450 -1.5928
    1Sil     Hm 3180  -1.430   2.801   0.893 -0.5478 -1.7007  0.3065
    1Sil     Hm 3181   1.078   2.794  -1.057 -2.0058 -1.9414 -1.0638
    1Sil     Hm 3182   1.192   2.713  -1.171  0.4697 -0.7690  0.8592
    1Sil     Hm 3183   1.117   2.626  -1.046 -1.6301  0.0747 -0.7526
    1Sil     Hm 3184   1.625   4.326  -1.252 -0.1728  0.2524 -0.2363
    1Sil     Hm 3185   1.767   4.247  -1.174 -0.0498  2.5310  0.1250
    1Sil     Hm 3186   1.612   4.169  -1.193 -1.2345  0.3388 -0.7403
    1Sil     Hm 3187  -0.848   4.255   1.149  3.0794 -0.9075  0.6120
    1Sil     Hm 3188  -0.948   4.111   1.162  2.5766 -1.6852  1.1028
    1Sil     Hm 3189  -0.778   4.102   1.103  0.2321 -1.0578  0.3998
    1Sil     Hm 3190  -1.298   0.373   1.169  0.1409  0.4311 -0.0044
    1Sil     Hm 3191  -1.410   0.510   1.204 -0.3687 -1.2808  3.9944
    1Sil     Hm 3192  -1.464   0.339   1.204  1.8058 -2.0024 -1.0917
    1Sil     Hm 3193  -1.410   3.803   1.197 -2.6478  0.2146 -0.6278
    1Sil     Hm 3194  -1.448   3.976   1.189 -1.3733 -0.7827  0.6796
    1Sil     Hm 3195  -1.283   3.920   1.169  0.0891 -0.0813 -2.3844
    1Sil     Hm 3196  -1.786   0.427  -1.188 -1.3604 -0.3573  2.5383
    1Sil     Hm 3197  -1.617   0.454  -1.131  1.9084 -0.4929 -1.2209
    1Sil     Hm 3198  -1.660   0.306  -1.224  0.1213 -1.2329  1.4397
    1Sil     Hm 3199  -0.951   3.172  -1.205  1.1458 -1.7622  1.9296
    1Sil     Hm 3200  -1.039   3.025  -1.229 -0.7590  0.7290 -0.9023
    1Sil     Hm 3201  -1.127   3.175  -1.227  1.2126  2.1321 -1.3672
    1Sil     Hm 3202  -0.782   3.869  -1.083 -1.5111 -0.8010 -0.7929
    1Sil     Hm 3203  -0.639   3.828  -1.002 -0.5124 -0.5654  1.7192
    1Sil     Hm 3204  -0.715   3.702  -1.103 -3.6762 -1.6012  1.2365
    1Sil     Hm 3205  -1.132   3.756  -1.250 -1.1685 -3.3267  0.1478
    1Sil     Hm 3206  -0.974   3.818  -1.179 -1.5327  1.7770 -0.2324
    1Sil     Hm 3207  -0.990   3.651  -1.220  1.2497  1.5983 -1.7313
    1Sil     Hm 3208   1.321   4.663  -1.140  0.7199  1.5395 -1.0085
    1Sil     Hm 3209   1.465   4.691  -1.238  0.0435 -1.8775 -2.0923
    1Sil     Hm 3210   1.395   4.534  -1.230 -2.3328  1.4430 -0.8432
    1Sil     Hm 3211  -1.553   3.283  -1.211 -0.3651 -1.7762 -1.4081
    1Sil     Hm 3212  -1.651   3.136  -1.220  0.0845 -1.5611  2.3688
    1Sil     Hm 3213  -1.722   3.300  -1.181 -0.0114  0.4788 -0.9085
    1Sil     Hm 3214  -1.391   3.398   1.149  0.1750  0.2869  0.8518
    1Sil     Hm 3215  -1.567   3.426   1.184 -3.4252 -2.6720 -0.7676
    1Sil     Hm 3216  -1.498   3.281   1.233 -1.0416 -1.3165 -1.9224
    1Sil     Hm 3217  -1.850   0.143  -1.259  0.6908  1.3896  0.6352
    1Sil     Hm 3218  -2.016   0.123  -1.314 -0.8188  1.4969  0.2042
    1Sil     Hm 3219  -1.955   0.283  -1.293  0.4184 -0.3237 -0.2751
    1Sil     Hm 3220  -1.065   3.692   1.016 -1.5385 -0.0899 -0.8251
    1Sil     Hm 3221  -1.087   3.527   1.046  0.7053 -0.7236  1.0322
    1Sil     Hm 3222  -0.955   3.598   1.131 -1.9961  2.2387  1.0191
    1Sil     Hm 3223  -1.752   4.055   1.165  0.2735 -0.0028  1.0543
    1Sil     Hm 3224  -1.907   3.984   1.133  1.0670  1.2693 -1.1821
    1Sil     Hm 3225  -1.765   3.883   1.198 -2.1775 -1.3321  0.0306
    1Sil     Hm 3226   1.725   3.431   0.526  2.1873  1.1424  1.8651
    1Sil     Hm 3227   1.703   3.423   0.702 -0.3052  3.0800  0.1239
    1Sil     Hm 3228   1.591   3.336   0.598  1.9670 -0.3592  0.6510
    1Sil     Hm 3229   2.168   2.844  -1.276 -1.7675 -1.0251  1.3252
    1Sil     Hm 3230   2.307   2.757  -1.213  0.3113  1.3573 -1.4368
    1Sil     Hm 3231   2.153   2.671  -1.270 -0.8767 -0.5861  0.5283
    1Sil     Hm 3232  -1.519   3.592   1.003  0.3470  0.4088 -0.0145
    1Sil     Hm 3233  -1.612   3.701   1.103  0.3273  1.0247 -1.4493
    1Sil     Hm 3234  -1.678   3.553   1.059  1.3844 -0.6619  1.8150
    1Sil     Hm 3235  -2.257   0.198   1.170 -0.7002  2.3805 -2.8492
    1Sil     Hm 3236  -2.330   0.050   1.092 -0.9265  1.0123 -0.4262
    1Sil     Hm 3237  -2.160   0.072   1.091  1.0700  0.4060 -3.0802
    1Sil     Hm 3238  -2.074   4.096  -1.336  0.4749 -0.5297  0.3156
    1Sil     Hm 3239  -1.916   4.102  -1.257  1.6843 -2.1243 -1.5751
    1Sil     Hm 3240  -1.982   3.945  -1.291 -2.7430 -1.3781  0.6726
    1Sil     Hm 3241  -1.850   2.961   1.088 -0.2290 -0.5730  0.3286
    1Sil     Hm 3242  -1.752   3.090   1.013  0.4528  0.5910 -1.3329
    1Sil     Hm 3243  -1.922   3.095   0.988  0.1073 -0.3786 -4.4053
    1Sil     Hm 3244  -2.555   0.550   1.019 -1.0914 -0.7887  0.3722
    1Sil     Hm 3245  -2.484   0.396   1.077  1.0395 -0.3410  2.6118
    1Sil     Hm 3246  -2.423   0.544   1.144 -0.1537  1.7137 -0.6669
    1Sil     Hm 3247   1.809   3.361   0.854  1.3000 -0.0849  0.4743
    1Sil     Hm 3248   1.774   3.275   1.007  0.5069 -1.1854  0.1768
    1Sil     Hm 3249   1.898   3.215   0.906  0.5248  0.3958 -0.3582
    1Sil     Hm 3250  -0.613   2.966   0.985  1.2360 -1.4738  2.1922
    1Sil     Hm 3251  -0.776   3.014   1.056  0.0399 -0.1934 -0.1757
    1Sil     Hm 3252  -0.710   2.855   1.065 -1.0737 -1.0719 -0.5372
    1Sil     Hm 3253  -1.095   2.989   1.206  0.3995  2.1388 -3.0492
    1Sil     Hm 3254  -1.066   2.810   1.224  1.1879  0.2382  0.0646
    1Sil     Hm 3255  -0.937   2.922   1.173  0.7577 -1.0698  0.8884
    1Sil     Hm 3256   1.662   3.740  -1.104 -0.1256  1.0634 -1.7304
    1Sil     Hm 3257   1.836   3.725  -1.062  1.2901  1.8060 -0.2275
    1Sil     Hm 3258   1.702   3.721  -0.940  1.1256 -0.7620 -0.2907
    1Sil     Hm 3259   0.839   0.486  -1.004  2.7492  0.1222  1.5332
    1Sil     Hm 3260   0.729   0.516  -0.870 -0.2103  1.0437 -1.4063
    1Sil     Hm 3261   0.904   0.547  -0.852  2.1147 -0.9538 -1.3559
    1Sil     Hm 3262  -1.154   0.524  -1.009 -2.5680  0.3866 -2.6810
    1Sil     Hm 3263  -1.208   0.536  -0.845 -4.9505 -0.1684  0.3488
    1Sil     Hm 3264  -1.330   0.528  -0.981 -0.7636  2.7199 -2.3101
    2Eth     Ho 3265   3.922   3.127   6.824  0.7097  0.1757  0.5200
    2Eth     Oh 3266   3.841   3.132   6.872  0.1939  0.2747 -0.3415
    2Eth     Co 3267   3.875   3.230   6.971  0.0605  0.2068  0.8325
    2Eth    Hco 3268   3.957   3.292   6.936  0.3233  0.1061  1.2589
    2Eth    Hco 3269   3.929   3.183   7.054  0.2496 -1.7257 -0.3620
    2Eth     Ch 3270   3.755   3.313   7.023  0.3533 -0.4070  0.0783
    2Eth    Hcc 3271   3.678   3.246   7.061 -0.4072  0.7988  0.6899
    2Eth    Hcc 3272   3.727   3.379   6.940  0.7409 -2.0744 -1.4171
    2Eth    Hcc 3273   3.789   3.371   7.109  1.2147  1.4545 -1.4644
    3Eth     Ho 3274   0.159   2.892   5.481 -3.5281 -2.0016 -1.5603
    3Eth     Oh 3275   0.116   2.946   5.544 -0.0776 -0.2792 -0.5633
    3Eth     Co 3276  -0.015   2.984   5.488  0.0900  0.0563  0.2167
    3Eth    Hco 3277  -0.083   3.032   5.559 -0.3214 -0.8852  0.4579
    3Eth    Hco 3278  -0.063   2.894   5.450 -0.4002  0.5908 -0.4625
    3Eth     Ch 3279   0.006   3.090   5.378  0.1593  0.1549  0.4526
    3Eth    Hcc 3280   0.042   3.187   5.413 -2.5443  0.9589  1.0740
    3Eth    Hcc 3281  -0.081   3.115   5.317 -0.0696  0.5205  0.9280
    3Eth    Hcc 3282   0.076   3.052   5.304 -0.8681 -0.7834 -0.0458
    4Eth     Ho 3283   0.773   1.958   6.700  1.8755 -2.6313  0.7375
    4Eth     Oh 3284   0.702   1.897   6.698 -0.1008 -0.3861 -1.1047
    4Eth     Co 3285   0.705   1.837   6.830 -0.5407  0.0028  0.4583
    4Eth    Hco 3286   0.691   1.919   6.900  0.1382 -1.7501  2.7258
    4Eth    Hco 3287   0.793   1.774   6.835 -1.9175 -1.8531  2.1998
    4Eth     Ch 3288   0.588   1.742   6.844  0.0138 -0.3292 -0.1305
    4Eth    Hcc 3289   0.586   1.661   6.771 -1.6742 -1.0897  0.7234
    4Eth    Hcc 3290   0.495   1.799   6.839  0.0259 -0.3765 -0.9841
    4Eth    Hcc 3291   0.583   1.706   6.947 -2.1329  1.4785  0.4151
    5Eth     Ho 3292   2.364   2.773   3.081  0.1713  0.4488 -0.0892
    5Eth     Oh 3293   2.412   2.702   3.042 -0.8959 -0.4109  0.1218
    5Eth     Co 3294   2.352   2.691   2.920 -0.3492  0.2715  0.0135
    5Eth    Hco 3295   2.427   2.699   2.842 -1.5093 -2.0017 -1.3864
    5Eth    Hco 3296   2.297   2.783   2.906  1.3579  1.0245 -1.9058
    5Eth     Ch 3297   2.265   2.566   2.933  0.0531 -0.0617 -0.0514
    5Eth    Hcc 3298   2.315   2.470   2.920 -0.3562 -0.2094 -0.6043
    5Eth    Hcc 3299   2.192   2.575   2.852 -0.3796 -3.5657 -0.1389
    5Eth    Hcc 3300   2.215   2.563   3.030 -0.3062  3.4837 -0.0701
    6Eth     Ho 3301   1.511   2.874   7.079 -0.1030  0.0187  3.9763
    6Eth     Oh 3302   1.567   2.948   7.068 -0.2610 -0.2765  0.5407
    6Eth     Co 3303   1.492   3.058   7.023  0.2905  0.1128  0.2864
    6Eth    Hco 3304   1.403   3.076   7.083 -0.9554 -1.0431 -1.1693
    6Eth    Hco 3305   1.450   3.046   6.923  2.2153  2.6450 -0.8885
    6Eth     Ch 3306   1.575   3.182   7.030  0.2876  0.3590 -0.3266
    6Eth    Hcc 3307   1.506   3.261   7.000  1.1132  1.8816  1.6814
    6Eth    Hcc 3308   1.668   3.180   6.973 -0.1872 -0.6504 -1.0979
    6Eth    Hcc 3309   1.596   3.197   7.136  2.5981  1.9880 -0.9666
    7Eth     Ho 3310   3.391   3.896   5.675  2.4592 -2.1299  0.8075
    7Eth     Oh 3311   3.416   3.898   5.585  0.0669 -0.2159  0.1282
    7Eth     Co 3312   3.322   3.992   5.534  0.6446  0.0306 -0.0250
    7Eth    Hco 3313   3.333   4.099   5.550 -1.0521  0.1761  0.2195
    7Eth    Hco 3314   3.225   3.972   5.580 -0.2095  1.6336 -1.0555
    7Eth     Ch 3315   3.312   3.984   5.378 -0.1877  0.1197 -0.0534
    7Eth    Hcc 3316   3.227   4.049   5.356 -1.4561 -0.9635  1.5665
    7Eth    Hcc 3317   3.288   3.886   5.337 -0.8963  0.0240  0.5810
    7Eth    Hcc 3318   3.405   4.024   5.338 -0.0626 -1.1406 -1.0441
    8Eth     Ho 3319   1.860   3.763   2.346 -0.3371 -0.7922  0.3503
    8Eth     Oh 3320   1.845   3.793   2.433 -0.4045  0.3923 -0.0540
    8Eth     Co 3321   1.894   3.689   2.517  0.6922 -0.4691 -0.1417
    8Eth    Hco 3322   2.001   3.707   2.520  0.6226 -0.0248 -0.2345
    8Eth    Hco 3323   1.883   3.593   2.467 -2.1272  0.1586 -0.8322
    8Eth     Ch 3324   1.826   3.688   2.653 -0.5078 -0.5040  0.8477
    8Eth    Hcc 3325   1.719   3.666   2.648 -0.5273 -0.4322  0.9395
    8Eth    Hcc 3326   1.832   3.791   2.689 -2.0590 -0.1123  0.0229
    8Eth    Hcc 3327   1.874   3.614   2.717  1.1523  0.6711  1.0094
    9Eth     Ho 3328   0.786   1.953   4.359  3.3588  0.9839  1.1563
    9Eth     Oh 3329   0.818   1.870   4.329 -0.4713 -0.1442 -0.1372
    9Eth     Co 3330   0.705   1.805   4.273  0.0264  0.6526 -0.2046
    9Eth    Hco 3331   0.691   1.848   4.174  2.1012  1.4157 -0.1921
    9Eth    Hco 3332   0.615   1.826   4.330 -0.2319 -0.3342 -0.2401
    9Eth     Ch 3333   0.721   1.654   4.267 -0.1924  0.0022  0.5631
    9Eth    Hcc 3334   0.804   1.641   4.198 -1.5359 -0.3749 -1.0138
    9Eth    Hcc 3335   0.637   1.610   4.214 -0.8542 -1.4238  2.7180
    9Eth    Hcc 3336   0.717   1.605   4.364  0.4897 -2.2137 -0.5185
   10Eth     Ho 3337   1.646   1.618   1.445 -3.2218  1.0372 -0.8535
   10Eth     Oh 3338   1.691   1.688   1.402 -0.3175  0.1714  0.6024
   10Eth     Co 3339   1.661   1.807   1.472  0.3025 -1.1573 -0.2556
   10Eth    Hco 3340   1.702   1.790   1.571 -1.1750 -0.8505  0.4243
   10Eth    Hco 3341   1.555   1.832   1.480  0.2150 -1.9829  1.1765
   10Eth     Ch 3342   1.742   1.924   1.407  0.9179 -0.2121  0.6066
   10Eth    Hcc 3343   1.849   1.906   1.420  0.8916 -0.8113  0.0264
   10Eth    Hcc 3344   1.706   2.012   1.459  1.7742 -1.0383  2.6779
   10Eth    Hcc 3345   1.723   1.931   1.300  0.3962  0.6887  0.7541
   11Eth     Ho 3346   3.017   2.688   4.520  0.0032  0.1356  0.7018
   11Eth     Oh 3347   3.019   2.596   4.543  0.0972 -0.0715 -0.1019
   11Eth     Co 3348   2.899   2.538   4.499  0.2684  0.7782 -0.1761
   11Eth    Hco 3349   2.886   2.562   4.393  3.8706  3.3597 -0.1363
   11Eth    Hco 3350   2.813   2.569   4.559 -0.6502  0.0333 -1.0881
   11Eth     Ch 3351   2.927   2.385   4.519 -0.5375  0.1741 -1.1991
   11Eth    Hcc 3352   3.018   2.370   4.461 -0.8377 -0.3838 -1.5329
   11Eth    Hcc 3353   2.840   2.327   4.485 -0.1591 -0.2304 -1.4943
   11Eth    Hcc 3354   2.951   2.361   4.622 -1.1875 -2.6428 -1.6539
   12Eth     Ho 3355   1.402   0.111   7.087  0.0105  0.0441 -0.1320
   12Eth     Oh 3356   1.316   0.093   7.054  0.1194  0.3048 -0.5637
   12Eth     Co 3357   1.224   0.085   7.166 -0.7972 -0.8086  0.9669
   12Eth    Hco 3358   1.213   0.188   7.200  1.4547 -0.3881  0.4811
   12Eth    Hco 3359   1.280   0.028   7.241 -0.7545 -0.4752  1.1881
   12Eth     Ch 3360   1.088   0.017   7.123  0.1173  0.3086 -0.6288
   12Eth    Hcc 3361   1.058  -0.052   7.202  1.3925 -0.8635 -1.1502
   12Eth    Hcc 3362   1.096  -0.040   7.030  0.9530 -0.4187 -0.1154
   12Eth    Hcc 3363   1.009   0.091   7.108 -1.7017 -1.6634 -0.9711
   13Eth     Ho 3364   0.151   1.127   6.659 -0.0494 -2.2873  2.1145
   13Eth     Oh 3365   0.242   1.146   6.676 -0.0629  0.0064 -0.1841
   13Eth     Co 3366   0.302   1.029   6.726  0.0284 -0.0932 -0.3946
   13Eth    Hco 3367   0.256   0.940   6.683  2.0036 -1.6574  0.6883
   13Eth    Hco 3368   0.269   1.029   6.829 -0.4127 -0.6144 -0.5373
   13Eth     Ch 3369   0.450   1.021   6.709  0.1462  0.3266 -0.5115
   13Eth    Hcc 3370   0.516   1.107   6.717  0.3804  0.1858 -0.9316
   13Eth    Hcc 3371   0.472   0.984   6.609  0.1206 -1.1287  0.0140
   13Eth    Hcc 3372   0.484   0.938   6.771 -1.2223 -0.1790 -0.4098
   14Eth     Ho 3373   1.069   3.833   1.585 -1.9501 -1.6752  2.7234
   14Eth     Oh 3374   1.061   3.755   1.534  0.0512  0.1358 -0.5110
   14Eth     Co 3375   0.967   3.775   1.429  0.6609 -0.1168 -0.0103
   14Eth    Hco 3376   1.010   3.833   1.347 -0.4742  0.2536 -0.3562
   14Eth    Hco 3377   0.882   3.837   1.461  1.7025  2.7260 -2.4804
   14Eth     Ch 3378   0.917   3.636   1.384 -0.2889  0.8071  0.3553
   14Eth    Hcc 3379   1.000   3.566   1.396 -0.1888  1.0437  1.0697
   14Eth    Hcc 3380   0.879   3.647   1.283 -1.4109  1.1053  0.7960
   14Eth    Hcc 3381   0.831   3.601   1.441  0.1310 -1.5453 -0.3863
   15Eth     Ho 3382   0.557   2.017   6.738  0.3382  0.3313  1.0527
   15Eth     Oh 3383   0.479   2.062   6.763 -0.1248  0.5549 -0.7638
   15Eth     Co 3384   0.516   2.160   6.856 -0.7914 -0.5652 -0.2816
   15Eth    Hco 3385   0.551   2.241   6.792 -0.7556  0.7945  1.4456
   15Eth    Hco 3386   0.602   2.130   6.916 -1.2434 -1.3682 -0.0251
   15Eth     Ch 3387   0.393   2.177   6.948 -0.7730  0.2408 -0.1988
   15Eth    Hcc 3388   0.309   2.223   6.896  0.3857  1.2965 -1.1603
   15Eth    Hcc 3389   0.415   2.233   7.040 -0.8547 -0.1181  0.0388
   15Eth    Hcc 3390   0.364   2.085   6.997  0.0635  0.9105  1.6231
   16Eth     Ho 3391   3.774   1.796   2.806 -0.9106 -1.9394 -0.6203
   16Eth     Oh 3392   3.832   1.825   2.738 -0.9605  0.0347  0.1501
   16Eth     Co 3393   3.944   1.743   2.735 -0.2462  0.4526 -0.4342
   16Eth    Hco 3394   3.915   1.638   2.731  0.0359  0.3578  0.0297
   16Eth    Hco 3395   3.995   1.749   2.831  0.2459 -0.4680 -0.6283
   16Eth     Ch 3396   4.039   1.775   2.622  0.0435 -1.0686  0.0232
   16Eth    Hcc 3397   4.126   1.710   2.633  0.8718 -0.1465 -0.9049
   16Eth    Hcc 3398   4.091   1.871   2.633 -1.5706 -0.2109  0.4100
   16Eth    Hcc 3399   3.979   1.761   2.532 -1.9795 -1.2309  1.3710
   17Eth     Ho 3400   0.215   2.617   1.578 -0.2043  0.5055 -1.5061
   17Eth     Oh 3401   0.203   2.547   1.517  0.5820 -0.4261 -0.6038
   17Eth     Co 3402   0.135   2.609   1.415  0.0639 -0.2334  0.3862
   17Eth    Hco 3403   0.089   2.704   1.443  0.0416 -0.3086  0.6045
   17Eth    Hco 3404   0.063   2.533   1.383 -1.7001  0.9315  1.4704
   17Eth     Ch 3405   0.216   2.611   1.288 -0.4487 -0.2142 -0.0875
   17Eth    Hcc 3406   0.241   2.515   1.242 -0.0414 -0.9657  1.6720
   17Eth    Hcc 3407   0.307   2.667   1.305  0.3684 -1.5362 -0.0607
   17Eth    Hcc 3408   0.163   2.672   1.214 -0.5413 -1.1683 -0.8200
   18Eth     Ho 3409   0.105   4.151   1.334 -0.7804  1.3109  1.3780
   18Eth     Oh 3410   0.058   4.089   1.387 -0.2343 -0.2340  0.1037
   18Eth     Co 3411  -0.052   4.147   1.452 -0.2114 -0.2794 -0.7381
   18Eth    Hco 3412  -0.118   4.185   1.374  0.2898 -0.8039 -1.4276
   18Eth    Hco 3413  -0.006   4.235   1.497 -0.8971  0.3325 -1.2136
   18Eth     Ch 3414  -0.107   4.047   1.551  0.2505  0.4412  0.5539
   18Eth    Hcc 3415  -0.138   3.951   1.511  4.3913 -0.6753 -0.2517
   18Eth    Hcc 3416  -0.191   4.090   1.605 -0.1098 -0.6130  0.8403
   18Eth    Hcc 3417  -0.035   4.032   1.631 -0.6501  2.1047  1.7189
   19Eth     Ho 3418   2.997   2.142   2.037 -1.2960  1.0117 -0.1062
   19Eth     Oh 3419   2.977   2.120   2.126  0.5815 -0.0280  0.0962
   19Eth     Co 3420   2.845   2.073   2.131  0.3367  0.8688 -1.1427
   19Eth    Hco 3421   2.822   1.982   2.075 -1.3978  0.1747  0.6428
   19Eth    Hco 3422   2.781   2.147   2.083 -2.0798  0.0965  0.8282
   19Eth     Ch 3423   2.795   2.055   2.283 -0.6726 -1.2239  0.7458
   19Eth    Hcc 3424   2.784   2.153   2.329  1.4906  0.4493 -2.1034
   19Eth    Hcc 3425   2.870   2.000   2.340  0.5050  0.0322  0.4454
   19Eth    Hcc 3426   2.699   2.004   2.282 -0.5561 -1.4501  1.0477
   20Eth     Ho 3427   0.396   0.015   1.644 -1.2460  1.9509 -2.5018
   20Eth     Oh 3428   0.331   0.061   1.692 -0.5337  1.2771 -0.8696
   20Eth     Co 3429   0.221  -0.016   1.716 -0.7504 -0.5568  0.4716
   20Eth    Hco 3430   0.260  -0.102   1.771 -1.4622  0.0751  1.9978
   20Eth    Hco 3431   0.179  -0.065   1.628 -0.4145 -0.3641  0.2045
   20Eth     Ch 3432   0.119   0.073   1.797  0.2937  0.1353 -0.0233
   20Eth    Hcc 3433   0.027   0.019   1.816  0.3676  0.4179  1.1589
   20Eth    Hcc 3434   0.095   0.165   1.744  0.3270 -1.7916 -3.5371
   20Eth    Hcc 3435   0.154   0.097   1.898  0.7117  0.8176 -0.3220
   21Eth     Ho 3436   3.696   1.282   6.899  0.8800 -0.7573  0.2114
   21Eth     Oh 3437   3.733   1.368   6.898 -0.0157 -0.3699  0.5221
   21Eth     Co 3438   3.786   1.386   7.025  0.1142  0.3748  0.3547
   21Eth    Hco 3439   3.867   1.314   7.042 -0.9988 -0.7247  1.1245
   21Eth    Hco 3440   3.702   1.371   7.092 -1.1041 -0.5341 -1.3263
   21Eth     Ch 3441   3.855   1.515   7.049  0.1301 -0.5875  0.0546
   21Eth    Hcc 3442   3.788   1.598   7.029  0.7138 -0.3603 -0.9428
   21Eth    Hcc 3443   3.942   1.517   6.984  0.4007 -1.4458  0.3808
   21Eth    Hcc 3444   3.882   1.509   7.155  0.8749 -0.9083 -0.1481
   22Eth     Ho 3445   2.606   0.373   6.833  2.8049  4.5027  2.4057
   22Eth     Oh 3446   2.679   0.315   6.845 -0.2273 -0.1183 -0.0463
   22Eth     Co 3447   2.728   0.356   6.972 -0.1734 -0.2435 -0.1857
   22Eth    Hco 3448   2.651   0.367   7.049  0.7791  0.7843  0.6305
   22Eth    Hco 3449   2.749   0.462   6.959 -0.7335 -0.5169 -3.6633
   22Eth     Ch 3450   2.860   0.290   7.011 -0.2700  0.2588 -0.0014
   22Eth    Hcc 3451   2.856   0.183   6.993 -0.4160  0.6216 -2.1837
   22Eth    Hcc 3452   2.872   0.311   7.118 -0.8478 -0.5973  0.2380
   22Eth    Hcc 3453   2.940   0.332   6.950 -0.0988  0.8408  0.6133
   23Eth     Ho 3454   0.018   3.819   6.451  0.8311  0.4401  1.4413
   23Eth     Oh 3455  -0.037   3.780   6.517  0.3347 -0.4092  0.5371
   23Eth     Co 3456  -0.119   3.881   6.571  0.2918  0.0918  0.2212
   23Eth    Hco 3457  -0.184   3.910   6.488  0.3003 -0.9209 -0.1459
   23Eth    Hco 3458  -0.066   3.970   6.605 -1.6088  1.0728  0.6368
   23Eth     Ch 3459  -0.210   3.827   6.678 -0.0044  0.2249 -0.0276
   23Eth    Hcc 3460  -0.136   3.781   6.744 -0.9710 -1.7979 -0.3132
   23Eth    Hcc 3461  -0.287   3.760   6.641 -0.5040  0.0565  1.3114
   23Eth    Hcc 3462  -0.253   3.911   6.732 -0.3034 -0.7459  1.2873
   24Eth     Ho 3463   3.986   1.096   6.549 -1.2387 -0.2662  0.7116
   24Eth     Oh 3464   4.032   1.075   6.629  0.3556  0.1267 -0.0830
   24Eth     Co 3465   3.963   1.127   6.747 -0.2677 -0.0588 -0.3034
   24Eth    Hco 3466   3.861   1.094   6.732  0.0837 -1.5904  0.6219
   24Eth    Hco 3467   3.969   1.236   6.758  0.5771 -0.1335  0.0138
   24Eth     Ch 3468   4.023   1.065   6.870 -0.4862  0.1389  0.5063
   24Eth    Hcc 3469   4.066   0.966   6.855  0.4758  0.4990  0.9064
   24Eth    Hcc 3470   3.936   1.048   6.934 -0.2874 -0.3789  0.6411
   24Eth    Hcc 3471   4.112   1.113   6.910  0.1884  0.0079 -0.8221
   25Eth     Ho 3472   1.121   2.662   2.092 -1.3000  0.6000  0.8341
   25Eth     Oh 3473   1.170   2.715   2.152 -0.7118  0.4698  0.4653
   25Eth     Co 3474   1.252   2.634   2.235  0.1392  0.3782  0.4324
   25Eth    Hco 3475   1.279   2.539   2.189 -2.5793 -1.4982  2.6080
   25Eth    Hco 3476   1.199   2.595   2.322  1.3247  1.2024  1.5549
   25Eth     Ch 3477   1.385   2.714   2.276  0.8310 -0.4467 -0.0321
   25Eth    Hcc 3478   1.422   2.676   2.372  1.1613  1.0012  0.4249
   25Eth    Hcc 3479   1.368   2.821   2.282  1.6451 -0.2421 -1.3123
   25Eth    Hcc 3480   1.465   2.693   2.204 -0.4699 -1.0081 -1.3325
   26Eth     Ho 3481   0.346   1.332   2.799  0.2776  0.3459  3.1882
   26Eth     Oh 3482   0.258   1.359   2.784  0.6890 -0.0462 -0.3208
   26Eth     Co 3483   0.222   1.435   2.899 -0.1860 -0.4104  0.3020
   26Eth    Hco 3484   0.296   1.514   2.913  0.8342 -1.2245 -0.4000
   26Eth    Hco 3485   0.210   1.371   2.986 -0.5388 -2.0020 -0.8969
   26Eth     Ch 3486   0.089   1.502   2.871  0.4689  0.0557  0.0905
   26Eth    Hcc 3487   0.095   1.569   2.785 -1.0693 -2.1353 -1.8039
   26Eth    Hcc 3488   0.071   1.573   2.952  0.7814  1.0902 -0.7420
   26Eth    Hcc 3489   0.006   1.436   2.845 -0.1433  0.8323  0.0364
   27Eth     Ho 3490   3.462   1.187   6.874  0.0287 -0.3309  0.3396
   27Eth     Oh 3491   3.550   1.176   6.843 -0.0767 -0.0319 -0.0691
   27Eth     Co 3492   3.593   1.051   6.900  0.3704  0.1904 -0.1883
   27Eth    Hco 3493   3.695   1.032   6.868 -0.0732 -2.5761 -0.0935
   27Eth    Hco 3494   3.530   0.975   6.853  1.7556  0.2986 -2.2978
   27Eth     Ch 3495   3.582   1.046   7.053 -0.5326 -0.6994 -0.4028
   27Eth    Hcc 3496   3.637   1.128   7.099 -0.7410 -0.8813  0.1695
   27Eth    Hcc 3497   3.614   0.946   7.083  0.2128 -0.4800 -0.4346
   27Eth    Hcc 3498   3.477   1.053   7.077 -0.1636 -2.6658  1.9410
   28Eth     Ho 3499   2.519   1.804   6.644  0.9932 -0.6869 -0.3394
   28Eth     Oh 3500   2.570   1.736   6.683  0.3824 -0.9135  0.0550
   28Eth     Co 3501   2.536   1.725   6.821 -0.3981  0.0139 -0.2525
   28Eth    Hco 3502   2.435   1.685   6.827 -0.6218  0.8993  2.8424
   28Eth    Hco 3503   2.552   1.822   6.870  2.0533  0.0047 -0.9535
   28Eth     Ch 3504   2.638   1.631   6.887 -0.2661  0.1061  0.4225
   28Eth    Hcc 3505   2.620   1.617   6.994 -0.4125  0.7678  0.4830
   28Eth    Hcc 3506   2.735   1.679   6.875  0.3394 -0.2828  3.4520
   28Eth    Hcc 3507   2.629   1.529   6.847  0.5975  0.4559 -0.6924
   29Eth     Ho 3508   1.782   3.160   6.708 -0.6722  1.6051  0.5237
   29Eth     Oh 3509   1.863   3.175   6.753 -0.0621  0.0953 -0.0470
   29Eth     Co 3510   1.925   3.054   6.798  0.1396 -0.6204  1.1190
   29Eth    Hco 3511   1.950   3.001   6.707  0.2831 -0.1101  0.8591
   29Eth    Hco 3512   1.858   2.996   6.862 -1.6826  1.2510  0.9890
   29Eth     Ch 3513   2.059   3.090   6.866  0.2837  0.8707  0.1969
   29Eth    Hcc 3514   2.042   3.140   6.962 -3.1281 -0.5977  0.4188
   29Eth    Hcc 3515   2.112   3.159   6.801  0.3789  1.5707  1.0048
   29Eth    Hcc 3516   2.131   3.008   6.870 -1.4714 -0.7578 -0.6944
   30Eth     Ho 3517   1.633   1.486   6.821 -1.0572 -0.6134 -1.0465
   30Eth     Oh 3518   1.717   1.444   6.831 -0.7128  0.3072 -0.0071
   30Eth     Co 3519   1.759   1.481   6.967 -0.0961  0.5460 -0.1074
   30Eth    Hco 3520   1.673   1.456   7.028 -1.2550  1.6393 -1.2434
   30Eth    Hco 3521   1.772   1.589   6.979 -1.1666  0.5031  1.4622
   30Eth     Ch 3522   1.891   1.421   7.010  1.0093  0.0264 -0.3562
   30Eth    Hcc 3523   1.879   1.313   7.005  0.1829  0.0463  1.0426
   30Eth    Hcc 3524   1.905   1.446   7.115 -0.1642 -1.3701  0.1488
   30Eth    Hcc 3525   1.975   1.452   6.947 -0.0184  1.7904 -0.8921
   31Eth     Ho 3526   1.581   2.734   3.787 -0.9093  1.8583 -0.3419
   31Eth     Oh 3527   1.539   2.703   3.709  0.7375 -0.4676 -0.3801
   31Eth     Co 3528   1.401   2.741   3.715 -0.0284 -0.3257  0.1781
   31Eth    Hco 3529   1.406   2.845   3.682  0.6087 -0.9346 -1.7626
   31Eth    Hco 3530   1.357   2.741   3.814  0.2194  0.9713  0.2917
   31Eth     Ch 3531   1.307   2.652   3.621 -0.6477  0.0819  0.3529
   31Eth    Hcc 3532   1.209   2.682   3.658 -0.0850  2.5478 -0.0735
   31Eth    Hcc 3533   1.317   2.546   3.643  2.7264  0.4867  1.0210
   31Eth    Hcc 3534   1.307   2.669   3.513  0.7027  0.9826  0.4850
   32Eth     Ho 3535   2.058   3.999   4.791  0.5936 -0.7105 -0.3721
   32Eth     Oh 3536   2.127   3.959   4.842  0.2977 -0.0222  0.5680
   32Eth     Co 3537   2.255   3.963   4.766 -0.2682  0.3731  0.2969
   32Eth    Hco 3538   2.304   4.059   4.783 -0.1552  0.0801  1.7280
   32Eth    Hco 3539   2.220   3.959   4.663 -1.2590 -0.8786  0.6705
   32Eth     Ch 3540   2.351   3.849   4.812 -0.2824 -0.0456  0.4241
   32Eth    Hcc 3541   2.443   3.858   4.754 -0.4777  1.2119  0.2909
   32Eth    Hcc 3542   2.315   3.750   4.783  1.9170 -0.3416 -1.5090
   32Eth    Hcc 3543   2.378   3.851   4.917  2.6867 -2.0735 -0.2340
   33Eth     Ho 3544   1.733   3.659   4.417  0.6247  1.1443 -0.3264
   33Eth     Oh 3545   1.694   3.609   4.348  0.1964  0.2175  0.5728
   33Eth     Co 3546   1.753   3.626   4.221 -0.6515 -0.8289 -0.3417
   33Eth    Hco 3547   1.859   3.603   4.209 -0.7716 -0.9053 -1.2671
   33Eth    Hco 3548   1.744   3.733   4.198 -1.7571 -1.1870 -1.6222
   33Eth     Ch 3549   1.664   3.553   4.115  0.0425 -0.6773  0.3417
   33Eth    Hcc 3550   1.686   3.446   4.110  2.5821 -0.3492  2.9341
   33Eth    Hcc 3551   1.688   3.592   4.016  0.4034  0.2922  0.7990
   33Eth    Hcc 3552   1.558   3.558   4.140 -0.5631 -1.3234 -2.0201
   34Eth     Ho 3553   3.370   3.669   6.795  1.8858 -0.7829 -2.0595
   34Eth     Oh 3554   3.427   3.715   6.853 -0.2731 -0.2400 -0.2667
   34Eth     Co 3555   3.519   3.624   6.904  0.0066 -0.3510 -0.3672
   34Eth    Hco 3556   3.547   3.557   6.823  0.6897  3.1651 -3.1683
   34Eth    Hco 3557   3.463   3.569   6.980 -0.4771 -0.0480 -0.4972
   34Eth     Ch 3558   3.644   3.691   6.966 -0.2503  0.2369 -0.2241
   34Eth    Hcc 3559   3.718   3.729   6.895 -0.1924 -0.4712 -0.5500
   34Eth    Hcc 3560   3.696   3.620   7.031 -0.1629  0.3009 -0.2241
   34Eth    Hcc 3561   3.624   3.772   7.035  2.1113  0.8196 -0.1706
   35Eth     Ho 3562   3.791   1.762   6.188  0.4192 -0.6875  0.2180
   35Eth     Oh 3563   3.816   1.751   6.098 -0.1248 -1.4073  0.1474
   35Eth     Co 3564   3.919   1.663   6.097 -0.3976  0.5061  0.0191
   35Eth    Hco 3565   3.881   1.566   6.130 -0.1705  0.7429  0.9752
   35Eth    Hco 3566   4.006   1.699   6.151 -2.2693  3.8486  0.9620
   35Eth     Ch 3567   3.948   1.654   5.953  0.1257  0.1723  0.5493
   35Eth    Hcc 3568   3.852   1.623   5.911  0.1524 -1.1302  1.4320
   35Eth    Hcc 3569   4.019   1.572   5.946  1.8598  1.5641  1.5181
   35Eth    Hcc 3570   3.990   1.738   5.898 -2.0003 -1.3428 -3.6528
   36Eth     Ho 3571   2.898   1.777   1.399  1.0530  0.4118 -0.0761
   36Eth     Oh 3572   2.937   1.694   1.418  0.1162 -0.1052 -0.3539
   36Eth     Co 3573   2.839   1.603   1.469 -0.3797  0.1013 -0.0660
   36Eth    Hco 3574   2.740   1.624   1.428 -0.1629  1.7259  0.2125
   36Eth    Hco 3575   2.836   1.600   1.578 -1.6861  1.2975 -0.0611
   36Eth     Ch 3576   2.885   1.458   1.421  0.4663  0.1387 -0.1900
   36Eth    Hcc 3577   2.979   1.425   1.463  1.4431  1.2211 -1.4987
   36Eth    Hcc 3578   2.886   1.455   1.312  1.0294 -2.6792 -0.1434
   36Eth    Hcc 3579   2.806   1.397   1.466  0.2564 -0.7885 -1.7823
   37Eth     Ho 3580   2.710   2.909   1.450 -0.2230  2.5778 -1.0671
   37Eth     Oh 3581   2.616   2.900   1.440 -0.1763  0.5485  0.1197
   37Eth     Co 3582   2.574   3.023   1.388  0.3896  0.6110  0.6589
   37Eth    Hco 3583   2.628   3.055   1.299 -1.1971  1.2382 -0.0987
   37Eth    Hco 3584   2.579   3.102   1.463 -0.9072 -0.7545  2.2021
   37Eth     Ch 3585   2.425   3.012   1.342  0.1687 -0.3853  0.1063
   37Eth    Hcc 3586   2.358   2.984   1.424 -1.1777 -0.5175 -1.0268
   37Eth    Hcc 3587   2.408   2.944   1.259  1.6926 -1.2693  0.4871
   37Eth    Hcc 3588   2.382   3.103   1.300  0.0436 -0.5630 -0.1497
   38Eth     Ho 3589   2.645   3.409   3.905  0.7240  2.1416  0.2342
   38Eth     Oh 3590   2.725   3.362   3.888 -0.2760  0.6079 -0.3267
   38Eth     Co 3591   2.796   3.414   3.773 -0.3914  0.4255 -0.3577
   38Eth    Hco 3592   2.789   3.520   3.794  1.9020  0.1512  1.9343
   38Eth    Hco 3593   2.752   3.378   3.680 -1.6009 -0.9414  0.7038
   38Eth     Ch 3594   2.939   3.355   3.778  0.0605 -0.3265  0.1314
   38Eth    Hcc 3595   2.947   3.247   3.769 -2.0763 -0.6682  1.7255
   38Eth    Hcc 3596   2.980   3.388   3.874  2.3417  0.5672 -1.1168
   38Eth    Hcc 3597   3.000   3.415   3.711 -0.5818  2.4914  1.9699
   39Eth     Ho 3598   3.053   0.564   6.735 -1.1518 -0.3763 -2.5533
   39Eth     Oh 3599   2.971   0.567   6.781  0.4385 -0.4716  0.3759
   39Eth     Co 3600   2.971   0.652   6.889  0.3557 -0.1932 -0.5121
   39Eth    Hco 3601   2.877   0.650   6.945  0.8938 -0.8843  0.3772
   39Eth    Hco 3602   2.996   0.756   6.867  4.1375 -0.9015  0.0949
   39Eth     Ch 3603   3.074   0.614   7.003 -0.6079  0.3478  0.6780
   39Eth    Hcc 3604   3.052   0.516   7.046  0.6599  0.1178  0.8129
   39Eth    Hcc 3605   3.077   0.688   7.083 -0.3711  0.9114  0.1550
   39Eth    Hcc 3606   3.169   0.610   6.951 -0.5363 -0.6644  0.8774
   40Eth     Ho 3607   2.461   2.679   4.579 -1.3925  0.6289  0.0180
   40Eth     Oh 3608   2.516   2.742   4.622 -0.6827  0.1351 -0.1430
   40Eth     Co 3609   2.601   2.796   4.521 -0.0751 -0.1379  0.1195
   40Eth    Hco 3610   2.535   2.851   4.453  0.7412 -0.9491 -1.3614
   40Eth    Hco 3611   2.629   2.713   4.456 -1.4042  1.5218 -2.6705
   40Eth     Ch 3612   2.700   2.890   4.586  0.6735 -0.0320 -0.1258
   40Eth    Hcc 3613   2.736   2.847   4.679  0.4690  1.1707  0.5284
   40Eth    Hcc 3614   2.658   2.983   4.625  1.6093  0.1966  0.3484
   40Eth    Hcc 3615   2.790   2.915   4.529 -0.5973 -0.3258 -2.3141
   41Eth     Ho 3616   1.749   2.280   2.756  0.6335  0.6727  1.5511
   41Eth     Oh 3617   1.825   2.314   2.712  0.2331 -0.6039 -0.1835
   41Eth     Co 3618   1.889   2.201   2.659  0.0843  0.2393  0.2371
   41Eth    Hco 3619   1.855   2.113   2.713  1.6513  0.4362  1.5802
   41Eth    Hco 3620   1.998   2.212   2.652  0.1066 -0.6692 -1.1477
   41Eth     Ch 3621   1.840   2.169   2.520  0.5920 -0.2968 -0.2865
   41Eth    Hcc 3622   1.733   2.173   2.501  0.7006 -2.2443 -1.5133
   41Eth    Hcc 3623   1.876   2.072   2.484  0.1537 -0.2031 -0.9885
   41Eth    Hcc 3624   1.875   2.250   2.456 -4.4486  2.0612 -0.2954
   42Eth     Ho 3625   2.399   2.206   3.603  0.0830 -0.3080 -4.1507
   42Eth     Oh 3626   2.327   2.146   3.611  0.0925  0.0683  0.2040
   42Eth     Co 3627   2.217   2.200   3.684 -0.4623 -0.3652  0.1166
   42Eth    Hco 3628   2.158   2.257   3.611 -1.2163 -0.8617  0.3321
   42Eth    Hco 3629   2.248   2.279   3.752 -1.4575 -1.4258  1.8414
   42Eth     Ch 3630   2.137   2.084   3.744 -0.1723  0.5921  0.2705
   42Eth    Hcc 3631   2.091   2.030   3.661 -1.2350  2.6168 -0.4974
   42Eth    Hcc 3632   2.041   2.109   3.789 -1.4750 -0.0983 -2.0243
   42Eth    Hcc 3633   2.189   2.023   3.818 -1.1253 -1.2613 -0.5512
   43Eth     Ho 3634   3.278   2.117   2.110 -1.0601 -0.9759  0.4437
   43Eth     Oh 3635   3.331   2.088   2.182  0.1680 -0.2529 -0.1693
   43Eth     Co 3636   3.290   1.958   2.219  0.4163  0.0490 -0.6394
   43Eth    Hco 3637   3.331   1.883   2.151 -1.0423  0.6691 -2.2537
   43Eth    Hco 3638   3.183   1.934   2.218  0.6844 -1.1570 -1.4139
   43Eth     Ch 3639   3.330   1.920   2.364  0.3610  0.4604 -0.4800
   43Eth    Hcc 3640   3.286   1.999   2.425 -0.8103 -0.3697 -0.2378
   43Eth    Hcc 3641   3.437   1.919   2.386  0.6681  2.8606 -1.7114
   43Eth    Hcc 3642   3.298   1.820   2.392 -0.8707  1.0108  0.1247
   44Eth     Ho 3643   0.629   4.180   1.443 -0.1947 -0.2731 -0.6509
   44Eth     Oh 3644   0.634   4.252   1.382  0.5779  0.4119  0.2006
   44Eth     Co 3645   0.775   4.281   1.374  0.6575  0.0549  0.5152
   44Eth    Hco 3646   0.838   4.226   1.445  2.1232 -0.6526 -1.2767
   44Eth    Hco 3647   0.779   4.387   1.396 -0.6219  0.6183 -1.8904
   44Eth     Ch 3648   0.835   4.248   1.235 -0.3760  0.4589  0.1294
   44Eth    Hcc 3649   0.935   4.289   1.222 -0.5281 -0.0651 -3.0840
   44Eth    Hcc 3650   0.772   4.271   1.149  1.6183 -0.5291 -1.6632
   44Eth    Hcc 3651   0.854   4.141   1.227 -1.1597  0.2751  0.5884
   45Eth     Ho 3652   0.283   0.118   1.264  0.5239 -0.0060  0.5078
   45Eth     Oh 3653   0.202   0.153   1.296  0.1579 -0.3041 -0.0678
   45Eth     Co 3654   0.142   0.238   1.205 -0.3711 -0.5468  0.6964
   45Eth    Hco 3655   0.120   0.191   1.109  2.2810 -0.8280  0.1683
   45Eth    Hco 3656   0.217   0.313   1.179  0.3733 -1.3645  0.4674
   45Eth     Ch 3657   0.027   0.321   1.264 -0.5345  0.0508 -0.1154
   45Eth    Hcc 3658   0.052   0.388   1.346 -1.9281  0.4314 -0.0022
   45Eth    Hcc 3659  -0.047   0.249   1.298  0.5722 -1.1386 -0.1719
   45Eth    Hcc 3660  -0.031   0.375   1.190 -1.2588  0.0035  0.4190
   46Eth     Ho 3661   1.343   3.888   6.904  1.0134  2.8159  0.5521
   46Eth     Oh 3662   1.419   3.866   6.853 -0.2392  0.2855 -0.3025
   46Eth     Co 3663   1.504   3.980   6.872 -0.8584 -0.0025  0.5734
   46Eth    Hco 3664   1.504   4.014   6.975 -1.1465 -0.1275  0.6143
   46Eth    Hco 3665   1.453   4.065   6.825  0.5663  1.1993  1.1473
   46Eth     Ch 3666   1.651   3.976   6.826 -0.0510 -0.1720  0.2215
   46Eth    Hcc 3667   1.708   3.887   6.851 -0.5513 -1.0257 -1.5865
   46Eth    Hcc 3668   1.710   4.066   6.843 -1.5353  0.8910 -0.1772
   46Eth    Hcc 3669   1.644   3.968   6.717 -1.1355  3.9097 -0.1022
   47Eth     Ho 3670   0.270   3.625   6.628  0.3568 -0.8107 -0.9178
   47Eth     Oh 3671   0.246   3.560   6.691  0.4460  0.2019  0.1923
   47Eth     Co 3672   0.192   3.607   6.817  0.5047 -0.4346  0.5618
   47Eth    Hco 3673   0.099   3.657   6.790 -0.3339 -3.1110 -1.7877
   47Eth    Hco 3674   0.256   3.689   6.850 -2.9870  2.8760 -0.4766
   47Eth     Ch 3675   0.157   3.511   6.930 -0.5698  0.0846  0.3377
   47Eth    Hcc 3676   0.084   3.437   6.897  0.9784 -1.8814  1.1976
   47Eth    Hcc 3677   0.127   3.564   7.020  0.7378  0.5899  0.4821
   47Eth    Hcc 3678   0.234   3.436   6.949  0.7425  1.5146  0.7559
   48Eth     Ho 3679   2.122   1.195   1.654  1.7545  0.2728  1.7509
   48Eth     Oh 3680   2.156   1.113   1.622 -0.0570  0.2098 -0.0397
   48Eth     Co 3681   2.185   1.032   1.734 -0.1878 -0.5944 -0.7930
   48Eth    Hco 3682   2.093   1.008   1.787 -0.0105 -1.1362 -0.7297
   48Eth    Hco 3683   2.249   1.090   1.801  0.1938  0.1023 -1.7345
   48Eth     Ch 3684   2.258   0.908   1.683 -0.1700  0.3272 -0.0581
   48Eth    Hcc 3685   2.260   0.842   1.770  1.2833 -0.8381 -0.9577
   48Eth    Hcc 3686   2.358   0.929   1.645 -0.5689  2.4381 -0.0175
   48Eth    Hcc 3687   2.199   0.855   1.609  0.1195 -0.0089 -0.0532
   49Eth     Ho 3688   0.266   3.111   1.223  1.0836  3.6034 -1.8501
   49Eth     Oh 3689   0.338   3.106   1.282 -0.6529 -0.2084  0.1124
   49Eth     Co 3690   0.356   2.965   1.293  0.0608  0.1933  0.8205
   49Eth    Hco 3691   0.409   2.923   1.208  0.9827 -0.0629  1.5081
   49Eth    Hco 3692   0.251   2.935   1.305 -0.1025  0.1813 -0.6100
   49Eth     Ch 3693   0.432   2.930   1.419 -0.2051  0.2040 -0.0855
   49Eth    Hcc 3694   0.409   3.003   1.497  0.3643 -1.0115  1.2379
   49Eth    Hcc 3695   0.538   2.936   1.396 -0.0910 -1.2799  0.0033
   49Eth    Hcc 3696   0.398   2.828   1.438 -1.0309  0.3376 -0.7750
   50Eth     Ho 3697   1.898   1.470   2.419 -0.7089  2.7796  0.1885
   50Eth     Oh 3698   1.831   1.447   2.481  0.2770  0.2038  0.3958
   50Eth     Co 3699   1.727   1.537   2.450 -0.0828 -0.5771 -0.3889
   50Eth    Hco 3700   1.705   1.537   2.343  2.6054 -0.4577 -0.9942
   50Eth    Hco 3701   1.774   1.633   2.472 -1.2558 -0.3781  1.3523
   50Eth     Ch 3702   1.609   1.521   2.542 -0.2852  0.1143  0.3707
   50Eth    Hcc 3703   1.532   1.587   2.503  0.1520  0.5152  0.1847
   50Eth    Hcc 3704   1.625   1.555   2.645 -2.1336  1.1672  0.3271
   50Eth    Hcc 3705   1.564   1.423   2.527  0.2625  0.2761 -2.4520
   51Eth     Ho 3706   2.246   2.791   1.413  0.9396 -3.2879  0.6349
   51Eth     Oh 3707   2.157   2.773   1.388  0.1899  0.0784  0.7309
   51Eth     Co 3708   2.174   2.691   1.270  0.7540 -0.0222 -0.1131
   51Eth    Hco 3709   2.197   2.589   1.301 -0.2019 -1.3413 -3.5241
   51Eth    Hco 3710   2.258   2.734   1.216  1.3582  0.2879  1.0439
   51Eth     Ch 3711   2.039   2.678   1.196 -0.2778  0.3897  0.5709
   51Eth    Hcc 3712   2.002   2.777   1.169 -0.5683  0.0063 -0.4585
   51Eth    Hcc 3713   1.959   2.634   1.256 -0.7808  1.6528  0.8406
   51Eth    Hcc 3714   2.055   2.616   1.107 -0.9197  1.3511 -0.2230
   52Eth     Ho 3715   2.116   1.559   1.465 -1.3253  1.5740  2.4112
   52Eth     Oh 3716   2.204   1.579   1.491 -0.2979 -0.0718  0.3117
   52Eth     Co 3717   2.290   1.535   1.390 -0.1296 -0.0464  0.4973
   52Eth    Hco 3718   2.239   1.574   1.302 -1.2387  0.2026  1.2396
   52Eth    Hco 3719   2.305   1.427   1.393 -1.5357 -0.2811 -0.4699
   52Eth     Ch 3720   2.437   1.601   1.401  0.4837  0.3694  0.3838
   52Eth    Hcc 3721   2.438   1.702   1.360  1.1751  0.2657  0.1318
   52Eth    Hcc 3722   2.500   1.531   1.347 -1.0403  1.2579 -2.6689
   52Eth    Hcc 3723   2.470   1.608   1.504 -1.6863 -0.8062  1.1848
   53Eth     Ho 3724   1.365   2.135   1.814  2.9318  0.5549 -2.0094
   53Eth     Oh 3725   1.314   2.196   1.765 -0.1381 -0.2367  0.0817
   53Eth     Co 3726   1.362   2.181   1.633 -0.2511 -0.1990  0.3694
   53Eth    Hco 3727   1.359   2.078   1.597 -2.8702 -0.7150  1.8864
   53Eth    Hco 3728   1.466   2.210   1.621 -0.6160  0.3805 -1.4535
   53Eth     Ch 3729   1.274   2.261   1.540 -0.0525 -0.0714  0.2718
   53Eth    Hcc 3730   1.291   2.368   1.549 -0.7212  0.0080  0.6318
   53Eth    Hcc 3731   1.166   2.263   1.555  0.2131  0.0292  2.2168
   53Eth    Hcc 3732   1.285   2.231   1.436 -0.5060  0.6707  0.0041
   54Eth     Ho 3733   0.318   0.321   6.719  0.3538  0.1927  1.1400
   54Eth     Oh 3734   0.386   0.260   6.697 -0.1624  0.0060  0.0627
   54Eth     Co 3735   0.423   0.195   6.812  0.1270  0.2483  0.1189
   54Eth    Hco 3736   0.350   0.197   6.892 -0.1698 -0.8774 -0.1116
   54Eth    Hco 3737   0.510   0.249   6.848 -0.3505  0.4932  0.9074
   54Eth     Ch 3738   0.467   0.055   6.787  0.4983 -0.4200  0.1653
   54Eth    Hcc 3739   0.507   0.021   6.883  0.0679  2.1110  1.2693
   54Eth    Hcc 3740   0.519   0.025   6.696 -0.4043  1.3737 -0.9620
   54Eth    Hcc 3741   0.371   0.009   6.763  0.1874  0.6711 -0.7053
   55Eth     Ho 3742   3.835   3.115   5.835  0.6685  1.7445 -0.2200
   55Eth     Oh 3743   3.763   3.164   5.800 -0.6210 -0.3144 -0.4817
   55Eth     Co 3744   3.660   3.171   5.893 -0.6373 -0.3747 -0.0910
   55Eth    Hco 3745   3.701   3.191   5.992 -0.1066  0.5429 -0.4905
   55Eth    Hco 3746   3.588   3.089   5.888 -1.6189  0.3927  1.1125
   55Eth     Ch 3747   3.579   3.298   5.857  0.0787  0.7087  0.3233
   55Eth    Hcc 3748   3.492   3.312   5.921 -0.6865  0.8596 -0.7222
   55Eth    Hcc 3749   3.538   3.279   5.757  0.3280  3.4193 -0.3474
   55Eth    Hcc 3750   3.632   3.393   5.848 -0.9142  1.2402  0.0179
   56Eth     Ho 3751   1.041   2.266   7.206  0.5740  0.0251 -0.2934
   56Eth     Oh 3752   1.051   2.198   7.142 -0.5183 -0.4994  0.0739
   56Eth     Co 3753   1.173   2.140   7.190  0.0635 -0.9679 -0.6405
   56Eth    Hco 3754   1.153   2.073   7.273  0.7268 -3.6356 -2.5743
   56Eth    Hco 3755   1.237   2.225   7.215 -0.4997 -1.1298  1.4439
   56Eth     Ch 3756   1.232   2.044   7.092  0.1987 -0.1883  1.0365
   56Eth    Hcc 3757   1.162   1.967   7.059  0.5405 -2.4962  5.3942
   56Eth    Hcc 3758   1.319   1.990   7.129  1.2289 -1.2015 -2.6320
   56Eth    Hcc 3759   1.263   2.086   6.996  3.2030  0.2514  2.1300
   57Eth     Ho 3760   0.144   1.430   1.422  0.6128 -0.0459 -0.4182
   57Eth     Oh 3761   0.088   1.372   1.374 -0.1525  0.0891  0.3143
   57Eth     Co 3762   0.131   1.325   1.246  0.0119  0.5031  0.1741
   57Eth    Hco 3763   0.240   1.315   1.247  0.0300  0.5165  2.8981
   57Eth    Hco 3764   0.112   1.410   1.180 -1.2625 -0.2821 -0.4729
   57Eth     Ch 3765   0.049   1.192   1.208 -0.1857  0.1532  0.0566
   57Eth    Hcc 3766  -0.058   1.199   1.225 -0.2183  1.0938 -0.4681
   57Eth    Hcc 3767   0.081   1.100   1.256  1.8497  0.9890  0.3833
   57Eth    Hcc 3768   0.053   1.184   1.099 -0.1668 -0.9081  0.1353
   58Eth     Ho 3769   3.944   3.600   6.549  0.7439 -1.0666 -0.2741
   58Eth     Oh 3770   3.883   3.532   6.527 -0.7178 -0.0136  0.3892
   58Eth     Co 3771   3.912   3.426   6.615  0.4022  0.1332 -0.1723
   58Eth    Hco 3772   3.850   3.450   6.701  1.5776 -3.6332  1.8581
   58Eth    Hco 3773   4.017   3.434   6.646  0.8623 -2.0881 -1.0666
   58Eth     Ch 3774   3.874   3.284   6.556 -0.0398  0.1959  0.2799
   58Eth    Hcc 3775   3.880   3.205   6.630  1.1733  0.8268  0.8792
   58Eth    Hcc 3776   3.956   3.250   6.494  0.7526 -0.3245  1.6068
   58Eth    Hcc 3777   3.785   3.278   6.493 -0.1667 -1.1807  0.5721
   59Eth     Ho 3778   1.850   2.679   1.497 -0.6386 -0.2032  1.8072
   59Eth     Oh 3779   1.766   2.721   1.489 -0.3884  0.0036  0.1086
   59Eth     Co 3780   1.673   2.617   1.503  0.3706  0.1544  0.4493
   59Eth    Hco 3781   1.696   2.570   1.599 -2.5499 -0.1478  1.0317
   59Eth    Hco 3782   1.702   2.537   1.434 -3.6689  0.6384 -1.9364
   59Eth     Ch 3783   1.529   2.658   1.504  0.0019  0.4911  0.7189
   59Eth    Hcc 3784   1.511   2.703   1.406 -0.8039  0.1867  0.7221
   59Eth    Hcc 3785   1.500   2.723   1.586  0.8043  0.8018  0.7564
   59Eth    Hcc 3786   1.467   2.569   1.495  0.8264 -0.0794  0.7376
   60Eth     Ho 3787   3.219   1.293   6.835 -1.7858 -0.9080  1.8546
   60Eth     Oh 3788   3.255   1.206   6.835 -0.1925 -0.2949  0.1711
   60Eth     Co 3789   3.219   1.149   6.709  0.4680  0.2662  0.4036
   60Eth    Hco 3790   3.308   1.129   6.648 -0.2012 -0.7026 -0.2888
   60Eth    Hco 3791   3.157   1.209   6.643 -1.3349  0.0311  1.8456
   60Eth     Ch 3792   3.147   1.016   6.743  1.0788  0.0271  0.5207
   60Eth    Hcc 3793   3.118   0.958   6.655  1.3304 -1.3340  1.3224
   60Eth    Hcc 3794   3.054   1.046   6.791 -0.5315 -1.8199 -1.3273
   60Eth    Hcc 3795   3.191   0.959   6.824  0.0477  1.1618  1.9069
   61Eth     Ho 3796   0.946   2.672   7.241 -0.6847  0.0813 -0.6207
   61Eth     Oh 3797   0.893   2.595   7.239 -0.8369  0.1678  0.0578
   61Eth     Co 3798   0.804   2.616   7.332  0.1913 -0.6339 -0.4357
   61Eth    Hco 3799   0.807   2.718   7.369  0.0372 -0.0847 -1.8846
   61Eth    Hco 3800   0.833   2.562   7.422  1.2645 -0.4015 -0.6295
   61Eth     Ch 3801   0.663   2.561   7.302 -0.6280  0.4397  0.7063
   61Eth    Hcc 3802   0.591   2.566   7.384  0.1835 -1.7444  1.6088
   61Eth    Hcc 3803   0.659   2.457   7.269  0.0347  0.0500  1.8157
   61Eth    Hcc 3804   0.633   2.623   7.217 -0.8939  0.3210  0.7141
   62Eth     Ho 3805   1.591   0.072   1.437 -3.3078 -0.0197  0.4234
   62Eth     Oh 3806   1.586   0.165   1.445 -0.0763  0.2758 -0.3987
   62Eth     Co 3807   1.526   0.221   1.338 -0.7355 -0.2524  0.2593
   62Eth    Hco 3808   1.560   0.167   1.249  0.0416  0.8396 -0.1228
   62Eth    Hco 3809   1.564   0.323   1.328 -1.5167 -0.0726 -0.9961
   62Eth     Ch 3810   1.374   0.212   1.361 -0.3650 -0.7292 -0.5509
   62Eth    Hcc 3811   1.320   0.283   1.297 -1.0725 -0.9660 -0.2297
   62Eth    Hcc 3812   1.352   0.242   1.463  0.6595  2.0206 -1.0942
   62Eth    Hcc 3813   1.343   0.109   1.345  0.2953 -1.1579  0.8268
   63Eth     Ho 3814   1.780   0.261   3.973 -1.2194  1.1205 -4.0689
   63Eth     Oh 3815   1.694   0.280   4.004 -0.4246 -0.6227 -0.4926
   63Eth     Co 3816   1.686   0.357   4.127  0.2970 -0.4187  0.1134
   63Eth    Hco 3817   1.732   0.455   4.119 -0.2158 -0.2137 -0.3477
   63Eth    Hco 3818   1.741   0.304   4.206  0.4975  2.0044  1.6742
   63Eth     Ch 3819   1.548   0.381   4.183  0.0896  0.0813  0.2938
   63Eth    Hcc 3820   1.519   0.316   4.266 -0.1240 -0.4696 -0.2126
   63Eth    Hcc 3821   1.465   0.404   4.117  1.3670  0.3674 -1.2322
   63Eth    Hcc 3822   1.558   0.472   4.243 -0.2649  0.4559 -0.2070
   64Eth     Ho 3823   1.981   3.734   3.849 -0.8215  1.3120 -0.8532
   64Eth     Oh 3824   1.964   3.677   3.776 -0.1865  0.3312 -0.2575
   64Eth     Co 3825   1.820   3.679   3.746 -0.7131  0.5979  0.2819
   64Eth    Hco 3826   1.783   3.770   3.700  1.1238  0.8216 -0.7937
   64Eth    Hco 3827   1.753   3.646   3.826  0.3619  1.2469  1.4827
   64Eth     Ch 3828   1.793   3.571   3.650  0.1679  0.3166 -0.9015
   64Eth    Hcc 3829   1.840   3.570   3.551  0.0343 -1.0228 -0.9647
   64Eth    Hcc 3830   1.688   3.570   3.620  0.0856  2.2718 -0.7109
   64Eth    Hcc 3831   1.805   3.473   3.697  1.2098  0.7019 -0.3427
   65Eth     Ho 3832   1.510   0.665   3.348  0.0880  0.3682 -0.0449
   65Eth     Oh 3833   1.598   0.675   3.381  0.1210  0.6703 -0.2291
   65Eth     Co 3834   1.684   0.707   3.272  0.4677 -0.5142  0.1506
   65Eth    Hco 3835   1.633   0.780   3.209 -0.8038 -0.2373  1.4736
   65Eth    Hco 3836   1.720   0.614   3.228  1.1024 -1.4041  2.4982
   65Eth     Ch 3837   1.820   0.766   3.312 -0.4225 -0.0571 -0.1065
   65Eth    Hcc 3838   1.801   0.861   3.363 -0.7477  0.0036 -0.3402
   65Eth    Hcc 3839   1.883   0.788   3.226 -1.1939  2.3016 -0.1204
   65Eth    Hcc 3840   1.873   0.697   3.377 -1.4033 -2.5397 -1.8828
   66Eth     Ho 3841   2.632   3.419   3.109  0.1254  2.1896  0.4165
   66Eth     Oh 3842   2.556   3.415   3.164 -0.0424  0.0892  0.0643
   66Eth     Co 3843   2.592   3.492   3.281  1.3116  0.3294 -0.0990
   66Eth    Hco 3844   2.562   3.595   3.259  1.2620  0.1610 -0.8079
   66Eth    Hco 3845   2.701   3.489   3.287  1.2006  0.2118  2.2072
   66Eth     Ch 3846   2.516   3.450   3.415 -0.2500  0.6245 -0.0201
   66Eth    Hcc 3847   2.417   3.406   3.403  0.1194 -0.2658  0.1965
   66Eth    Hcc 3848   2.492   3.543   3.466  1.1924  0.7351  0.4743
   66Eth    Hcc 3849   2.579   3.398   3.486 -1.4738 -0.6544  0.1360
   67Eth     Ho 3850   2.285   0.113   6.274 -2.3764  0.8898 -0.1057
   67Eth     Oh 3851   2.241   0.036   6.304 -0.2063 -0.1947  0.3287
   67Eth     Co 3852   2.152  -0.011   6.200 -0.0034 -0.3982 -0.0972
   67Eth    Hco 3853   2.222  -0.039   6.121 -0.4042 -2.5469  0.3028
   67Eth    Hco 3854   2.092   0.074   6.167  1.8459  0.5873 -1.0385
   67Eth     Ch 3855   2.057  -0.122   6.238 -0.1686 -0.5923 -0.4735
   67Eth    Hcc 3856   1.993  -0.158   6.158 -2.2818 -0.1454  0.9760
   67Eth    Hcc 3857   1.982  -0.081   6.305  0.2710 -1.0298  0.2935
   67Eth    Hcc 3858   2.102  -0.216   6.271  1.2426 -0.0581 -0.8480
   68Eth     Ho 3859   1.230   1.091   3.292  0.7420  0.4307  1.0798
   68Eth     Oh 3860   1.282   1.126   3.222 -0.3388  0.5673  0.3351
   68Eth     Co 3861   1.396   1.036   3.203 -0.2313  0.1885 -0.6698
   68Eth    Hco 3862   1.432   1.050   3.101  0.7758 -2.0065 -0.6585
   68Eth    Hco 3863   1.360   0.933   3.212  2.9714 -0.9934 -0.7728
   68Eth     Ch 3864   1.493   1.076   3.313  0.5668 -0.7838 -0.1718
   68Eth    Hcc 3865   1.584   1.017   3.302 -0.1428 -1.8292 -0.5771
   68Eth    Hcc 3866   1.449   1.060   3.412 -0.6188  0.4647 -0.4731
   68Eth    Hcc 3867   1.517   1.182   3.311  1.2994 -0.8872  1.7923
   69Eth     Ho 3868   0.617   3.746   6.605 -0.7027 -0.1327 -0.1086
   69Eth     Oh 3869   0.639   3.786   6.687  0.0363  0.3345 -0.5315
   69Eth     Co 3870   0.539   3.773   6.788  0.2386  0.1173  0.0873
   69Eth    Hco 3871   0.497   3.673   6.785 -1.9212  1.0037 -0.0499
   69Eth    Hco 3872   0.455   3.841   6.769  1.6205  1.6350 -0.7980
   69Eth     Ch 3873   0.608   3.801   6.921  0.0594 -0.1883  0.1899
   69Eth    Hcc 3874   0.633   3.905   6.941 -0.0437 -0.1140 -0.0654
   69Eth    Hcc 3875   0.708   3.757   6.928  0.6703  0.4269 -3.5332
   69Eth    Hcc 3876   0.548   3.766   7.005 -1.0566 -0.1192 -0.5607
   70Eth     Ho 3877   2.612   2.639   7.340  1.4913  1.1491 -0.0631
   70Eth     Oh 3878   2.644   2.594   7.264 -0.0383  0.1767 -0.1625
   70Eth     Co 3879   2.752   2.521   7.313  0.2223  0.2378  0.3033
   70Eth    Hco 3880   2.743   2.418   7.278  3.1162  0.3341 -0.9014
   70Eth    Hco 3881   2.738   2.522   7.421  0.9306 -1.9489  0.4415
   70Eth     Ch 3882   2.891   2.580   7.267  0.5194  0.0761 -0.3273
   70Eth    Hcc 3883   2.902   2.688   7.269  2.1319 -0.0567 -0.9161
   70Eth    Hcc 3884   2.904   2.559   7.160  0.5149 -0.2189 -0.2722
   70Eth    Hcc 3885   2.971   2.530   7.322 -0.1944  0.7351  1.3307
   71Eth     Ho 3886   3.524   3.586   1.455 -2.0818 -0.6891  0.0273
   71Eth     Oh 3887   3.530   3.554   1.367  0.4791 -0.0301 -0.0803
   71Eth     Co 3888   3.418   3.460   1.350  0.0713 -0.4695 -0.7866
   71Eth    Hco 3889   3.325   3.515   1.365  1.5092  1.8440 -0.0530
   71Eth    Hco 3890   3.421   3.386   1.430 -2.0657 -0.6630 -0.8575
   71Eth     Ch 3891   3.402   3.400   1.219  0.0573 -0.0010 -0.1762
   71Eth    Hcc 3892   3.484   3.330   1.203 -0.7325 -1.2302  0.9829
   71Eth    Hcc 3893   3.416   3.472   1.139 -1.3303 -1.1212 -1.4773
   71Eth    Hcc 3894   3.310   3.343   1.203 -0.2137  1.2241 -3.4625
   72Eth     Ho 3895   3.506   1.073   1.291 -0.6103  0.1264 -0.0845
   72Eth     Oh 3896   3.573   1.047   1.352 -0.6429 -0.0322 -0.1158
   72Eth     Co 3897   3.700   1.045   1.282 -0.5918 -0.1240  0.7162
   72Eth    Hco 3898   3.733   1.149   1.280 -1.1926  0.0662  0.5304
   72Eth    Hco 3899   3.685   1.004   1.182  1.1998 -0.2853  0.5033
   72Eth     Ch 3900   3.810   0.966   1.361 -0.2957 -0.9553 -0.6756
   72Eth    Hcc 3901   3.906   0.972   1.309  0.8413 -2.4272  1.1890
   72Eth    Hcc 3902   3.787   0.861   1.378  0.1495 -0.8246  0.7877
   72Eth    Hcc 3903   3.834   1.010   1.458  1.0380 -0.0783 -1.3812
   73Eth     Ho 3904   0.179   0.706   5.413 -1.6074 -3.3058  1.0075
   73Eth     Oh 3905   0.101   0.737   5.370  0.0264 -0.5500 -0.0633
   73Eth     Co 3906   0.133   0.876   5.335  0.3221  0.7082  1.1705
   73Eth    Hco 3907   0.195   0.871   5.245 -0.3660 -3.6255  0.8549
   73Eth    Hco 3908   0.186   0.927   5.416  1.2013  0.1969  0.9257
   73Eth     Ch 3909  -0.003   0.950   5.301  0.4595  0.3097 -0.6793
   73Eth    Hcc 3910   0.010   1.045   5.248 -1.1038 -0.6435 -2.8542
   73Eth    Hcc 3911  -0.065   0.975   5.387 -0.5616  0.9832 -1.5980
   73Eth    Hcc 3912  -0.063   0.892   5.230 -0.8236 -0.0503  0.6747
   74Eth     Ho 3913   3.927   3.402   1.426 -0.6991  1.3769 -0.1178
   74Eth     Oh 3914   4.008   3.415   1.381  0.0014  0.4601  0.8839
   74Eth     Co 3915   3.985   3.400   1.244  0.7522 -0.2268  0.1867
   74Eth    Hco 3916   3.967   3.489   1.184 -0.8783  0.5157  1.7152
   74Eth    Hco 3917   3.884   3.363   1.223  0.5064  2.1939 -3.3191
   74Eth     Ch 3918   4.086   3.306   1.169  0.0561 -0.0974  0.2446
   74Eth    Hcc 3919   4.042   3.295   1.070 -0.9804 -0.0843  0.6995
   74Eth    Hcc 3920   4.094   3.207   1.216 -0.8339 -1.5104 -2.5123
   74Eth    Hcc 3921   4.178   3.363   1.181  0.4404 -0.8682  1.0906
   75Eth     Ho 3922   1.235   3.655   1.385  1.5358 -1.1199  0.6058
   75Eth     Oh 3923   1.297   3.714   1.346 -0.1461  0.1634 -0.1838
   75Eth     Co 3924   1.402   3.641   1.294 -0.3242  0.5616 -0.5337
   75Eth    Hco 3925   1.378   3.609   1.192  0.1815  0.4772 -0.6274
   75Eth    Hco 3926   1.396   3.557   1.363 -0.2496  0.1314 -1.0441
   75Eth     Ch 3927   1.539   3.710   1.315 -0.3761  0.4125 -0.4727
   75Eth    Hcc 3928   1.543   3.764   1.409 -0.4480  0.6520 -0.6086
   75Eth    Hcc 3929   1.546   3.794   1.246 -1.2960  1.5208  0.7804
   75Eth    Hcc 3930   1.627   3.645   1.313 -0.2746  0.5639 -2.0797
   76Eth     Ho 3931   3.217   1.100   1.300 -0.6883  0.6687 -1.0397
   76Eth     Oh 3932   3.305   1.092   1.267 -0.4176  0.7247 -0.3370
   76Eth     Co 3933   3.323   1.222   1.227  0.2309 -0.4381 -0.4041
   76Eth    Hco 3934   3.249   1.252   1.152  0.9001 -0.5721 -1.1203
   76Eth    Hco 3935   3.418   1.238   1.176  0.6615  0.1581  0.5754
   76Eth     Ch 3936   3.323   1.313   1.337  0.1927 -0.5147  0.6715
   76Eth    Hcc 3937   3.388   1.399   1.320 -0.4143  0.4099  2.8548
   76Eth    Hcc 3938   3.371   1.269   1.424 -2.2547 -0.4665  2.0877
   76Eth    Hcc 3939   3.216   1.330   1.347  0.0380  0.4571 -2.1445
   77Eth     Ho 3940   3.000   2.389   2.091 -0.6032 -0.7258 -0.4507
   77Eth     Oh 3941   3.021   2.388   1.999 -0.3216  0.0637 -0.3984
   77Eth     Co 3942   2.909   2.414   1.925  0.2059  0.7251  1.0008
   77Eth    Hco 3943   2.819   2.391   1.982 -1.3206 -0.3089 -1.6932
   77Eth    Hco 3944   2.905   2.334   1.850 -2.2239  0.6760  1.1365
   77Eth     Ch 3945   2.930   2.542   1.851  0.3593 -0.3951  0.5803
   77Eth    Hcc 3946   3.002   2.538   1.769  1.0418 -0.7348  1.1866
   77Eth    Hcc 3947   2.932   2.635   1.907 -1.4329  0.0656 -0.1020
   77Eth    Hcc 3948   2.838   2.562   1.797  0.0586  0.0129  1.2438
   78Eth     Ho 3949   3.106   0.228   1.539 -1.9362  1.0185  2.2043
   78Eth     Oh 3950   3.114   0.317   1.512 -0.3648  0.4083  0.5476
   78Eth     Co 3951   3.245   0.324   1.443  0.1072 -0.5294 -0.3842
   78Eth    Hco 3952   3.264   0.232   1.388  1.6076 -0.4500 -0.0046
   78Eth    Hco 3953   3.327   0.330   1.514  0.1536 -3.7107 -0.0892
   78Eth     Ch 3954   3.261   0.442   1.342 -0.3930  0.4999  0.5454
   78Eth    Hcc 3955   3.356   0.439   1.288 -0.6703 -1.3752  0.1266
   78Eth    Hcc 3956   3.246   0.538   1.392 -0.3987  0.6740  0.2135
   78Eth    Hcc 3957   3.186   0.433   1.264  2.0894  0.5048 -1.9454
   79Eth     Ho 3958   2.260   1.126   6.628 -1.6991 -2.9008 -2.1180
   79Eth     Oh 3959   2.283   1.072   6.700 -0.1800  0.2341 -0.1335
   79Eth     Co 3960   2.165   1.001   6.743 -0.1080  0.1512 -0.5062
   79Eth    Hco 3961   2.103   0.948   6.671  1.4209 -2.6064  0.0978
   79Eth    Hco 3962   2.091   1.075   6.771  0.1706  0.8702 -1.6470
   79Eth     Ch 3963   2.198   0.897   6.853  0.0008  0.1811  0.6918
   79Eth    Hcc 3964   2.228   0.939   6.949 -0.7890 -0.0421  1.0349
   79Eth    Hcc 3965   2.254   0.807   6.829 -1.4840  0.0376 -2.5333
   79Eth    Hcc 3966   2.102   0.854   6.881 -0.7643  1.2587 -0.1793
   80Eth     Ho 3967   3.788   1.893   4.643 -0.5751 -0.2338 -0.9843
   80Eth     Oh 3968   3.832   1.976   4.631  0.2653 -0.5367 -0.0954
   80Eth     Co 3969   3.972   1.960   4.644 -0.0374 -0.2838  0.9804
   80Eth    Hco 3970   3.985   1.861   4.600  1.3000 -0.0919  0.9362
   80Eth    Hco 3971   3.984   1.954   4.752 -0.1094  0.2818  1.0204
   80Eth     Ch 3972   4.059   2.062   4.568 -0.2869 -0.6699  0.4874
   80Eth    Hcc 3973   4.026   2.156   4.613  0.9572  1.7096 -3.3293
   80Eth    Hcc 3974   4.038   2.057   4.461 -2.0465  1.0378  0.7189
   80Eth    Hcc 3975   4.162   2.041   4.597 -0.1452  0.9701  1.2042
   81Eth     Ho 3976   3.810   3.936   4.169  0.8003 -0.2461 -0.1213
   81Eth     Oh 3977   3.831   3.901   4.085 -0.1246 -0.1035 -0.4207
   81Eth     Co 3978   3.741   3.801   4.032 -0.0228  0.5971  0.2433
   81Eth    Hco 3979   3.656   3.850   3.985 -0.8399 -1.6190 -0.6640
   81Eth    Hco 3980   3.710   3.747   4.121 -0.9166  1.3493  0.3956
   81Eth     Ch 3981   3.830   3.716   3.943 -0.0232  0.2936 -0.5470
   81Eth    Hcc 3982   3.771   3.628   3.919  1.2707 -0.7801  0.1659
   81Eth    Hcc 3983   3.916   3.679   3.998 -0.3521  0.9178  0.3965
   81Eth    Hcc 3984   3.866   3.751   3.846  3.7274  3.8645  1.9347
   82Eth     Ho 3985   1.382   2.715   3.200  1.4957  1.9238 -0.0233
   82Eth     Oh 3986   1.456   2.657   3.214 -0.3898 -0.5621  0.0264
   82Eth     Co 3987   1.542   2.708   3.311  0.0998  0.2111  0.3430
   82Eth    Hco 3988   1.473   2.756   3.379 -0.9731 -0.2606 -0.3956
   82Eth    Hco 3989   1.595   2.790   3.261 -0.5586 -0.1812 -1.0365
   82Eth     Ch 3990   1.627   2.592   3.353 -0.4179 -0.5791 -0.6111
   82Eth    Hcc 3991   1.716   2.633   3.400  0.2800 -2.3210 -0.3765
   82Eth    Hcc 3992   1.656   2.527   3.271  1.0389  0.7723 -1.1754
   82Eth    Hcc 3993   1.571   2.528   3.421 -1.4208  0.2364 -0.6399
   83Eth     Ho 3994   3.547   2.772   6.776 -1.2011 -0.1464 -2.4828
   83Eth     Oh 3995   3.501   2.693   6.796  0.5999 -0.7081 -0.2057
   83Eth     Co 3996   3.548   2.615   6.902  0.2739 -0.5376  0.3133
   83Eth    Hco 3997   3.575   2.685   6.981  1.4995 -0.6692  0.0163
   83Eth    Hco 3998   3.645   2.577   6.869  0.3920 -0.2767  0.3519
   83Eth     Ch 3999   3.440   2.507   6.936 -0.0329  0.0770 -0.3595
   83Eth    Hcc 4000   3.483   2.427   6.995  0.4246  0.8605  0.3895
   83Eth    Hcc 4001   3.432   2.454   6.841 -1.8160 -2.4288  1.1565
   83Eth    Hcc 4002   3.337   2.532   6.961 -0.3870  1.9266 -3.3092
   84Eth     Ho 4003   1.956   3.324   6.858  0.9418  0.6149 -1.3221
   84Eth     Oh 4004   1.992   3.409   6.875 -0.0650  0.7406  0.2175
   84Eth     Co 4005   1.969   3.426   7.015  0.1506 -0.5033 -0.5651
   84Eth    Hco 4006   2.055   3.476   7.058 -0.8982 -0.4534  1.5637
   84Eth    Hco 4007   1.957   3.335   7.074  1.0048 -2.1639 -2.8622
   84Eth     Ch 4008   1.839   3.515   7.032  0.9191  0.0491 -0.3162
   84Eth    Hcc 4009   1.847   3.617   6.994 -0.4753  1.4263  2.9601
   84Eth    Hcc 4010   1.819   3.518   7.139 -1.0808 -0.7844 -0.6386
   84Eth    Hcc 4011   1.752   3.467   6.987  0.9552 -0.1486 -0.1736
   85Eth     Ho 4012   0.075   4.115   6.631  3.0026  0.9695 -0.1888
   85Eth     Oh 4013   0.049   4.203   6.609 -0.2229  0.0448 -0.3150
   85Eth     Co 4014   0.069   4.217   6.473  0.1705 -0.2852  0.2313
   85Eth    Hco 4015  -0.004   4.147   6.432  0.1216 -0.7328  1.0844
   85Eth    Hco 4016   0.172   4.187   6.454  0.9026  1.4955  1.2982
   85Eth     Ch 4017   0.036   4.364   6.425 -0.1610 -0.0055  0.6950
   85Eth    Hcc 4018   0.058   4.374   6.318  3.3029  0.3611  1.3568
   85Eth    Hcc 4019   0.106   4.435   6.470  0.2673 -0.8773  1.4281
   85Eth    Hcc 4020  -0.067   4.383   6.455 -0.5378 -0.2952 -0.4111
   86Eth     Ho 4021   2.562   3.160   4.451  0.8692 -0.0007  0.4952
   86Eth     Oh 4022   2.576   3.237   4.503  0.5374  0.2192  0.2633
   86Eth     Co 4023   2.718   3.254   4.497  0.7416 -0.0267  0.1367
   86Eth    Hco 4024   2.734   3.249   4.390 -2.7811  1.0934 -0.5346
   86Eth    Hco 4025   2.765   3.166   4.540 -1.1921 -1.4674 -0.6035
   86Eth     Ch 4026   2.769   3.394   4.538  0.1223  0.1935 -0.1529
   86Eth    Hcc 4027   2.721   3.469   4.475 -0.3961  1.1322  1.3343
   86Eth    Hcc 4028   2.874   3.407   4.515  0.3601  0.5723  1.0787
   86Eth    Hcc 4029   2.756   3.419   4.644 -1.2661 -0.0424 -0.2469
   87Eth     Ho 4030   1.283   2.998   3.917  0.3550 -0.7213 -0.9679
   87Eth     Oh 4031   1.352   3.005   3.980 -0.0873 -0.3070 -0.5204
   87Eth     Co 4032   1.354   3.139   4.022  0.4355  0.3003  0.5327
   87Eth    Hco 4033   1.258   3.187   4.041 -0.3630 -1.3722  0.7868
   87Eth    Hco 4034   1.391   3.187   3.931  0.2928 -1.2131 -0.3297
   87Eth     Ch 4035   1.460   3.162   4.130  0.2630  0.1780 -0.3073
   87Eth    Hcc 4036   1.482   3.269   4.128 -2.1792  0.6994 -0.2152
   87Eth    Hcc 4037   1.552   3.107   4.108 -1.5412 -2.1266 -2.3153
   87Eth    Hcc 4038   1.424   3.134   4.228 -0.5195  2.1613 -0.0036
   88Eth     Ho 4039   2.215   2.677   3.528 -0.4513 -1.0268 -1.3233
   88Eth     Oh 4040   2.308   2.671   3.515 -0.1719 -0.3342  0.2166
   88Eth     Co 4041   2.357   2.702   3.386  0.5973  0.0007 -0.4137
   88Eth    Hco 4042   2.273   2.757   3.342 -0.2784 -0.4203  0.6890
   88Eth    Hco 4043   2.372   2.607   3.334  1.3903  0.0634 -0.2989
   88Eth     Ch 4044   2.498   2.774   3.385  0.1635  0.8265  0.2891
   88Eth    Hcc 4045   2.494   2.854   3.459  2.4974  0.0756  1.2527
   88Eth    Hcc 4046   2.537   2.801   3.287 -0.0086 -0.0619 -0.0329
   88Eth    Hcc 4047   2.574   2.706   3.422 -0.4055  0.3534  0.5969
   89Eth     Ho 4048   1.025   2.635   1.352  0.2896 -0.3310  0.6016
   89Eth     Oh 4049   1.117   2.636   1.331  0.1185 -0.1759 -0.1332
   89Eth     Co 4050   1.139   2.528   1.252 -0.0391  0.2916 -0.0675
   89Eth    Hco 4051   1.082   2.552   1.162 -1.6722 -0.7734  0.6484
   89Eth    Hco 4052   1.084   2.450   1.305 -1.3960  1.1545 -0.1723
   89Eth     Ch 4053   1.292   2.521   1.237 -0.2317 -0.1501  0.4148
   89Eth    Hcc 4054   1.331   2.502   1.337 -0.0818 -2.0674  0.0067
   89Eth    Hcc 4055   1.349   2.601   1.190  3.2298 -2.3182  0.7814
   89Eth    Hcc 4056   1.320   2.438   1.172 -0.3768 -1.2828  1.7997
   90Eth     Ho 4057   1.919   1.239   5.609 -3.1058 -0.3728 -0.6715
   90Eth     Oh 4058   1.888   1.323   5.580 -0.7359  0.6776 -0.2873
   90Eth     Co 4059   1.924   1.336   5.441  0.7211  0.3050  0.6028
   90Eth    Hco 4060   1.893   1.251   5.380  1.6807  0.4030 -0.0242
   90Eth    Hco 4061   2.033   1.341   5.438  0.7259  1.2935  1.9298
   90Eth     Ch 4062   1.855   1.459   5.396  0.1075 -0.7658 -0.0743
   90Eth    Hcc 4063   1.887   1.554   5.440 -0.9623 -0.2785 -0.3329
   90Eth    Hcc 4064   1.747   1.456   5.412 -0.0173  0.1758 -0.6911
   90Eth    Hcc 4065   1.877   1.464   5.289  0.6410 -3.1816 -0.1018
   91Eth     Ho 4066   2.915   2.961   6.572  2.2363  1.1120 -0.7949
   91Eth     Oh 4067   2.956   2.935   6.653 -0.0130 -0.0563  0.0128
   91Eth     Co 4068   2.885   2.819   6.699 -0.4367 -0.3992 -0.0464
   91Eth    Hco 4069   2.936   2.732   6.658  1.5841  1.8638 -2.5051
   91Eth    Hco 4070   2.782   2.816   6.662 -0.0365  1.1777 -1.3576
   91Eth     Ch 4071   2.884   2.832   6.854  0.4671  0.1197  0.0335
   91Eth    Hcc 4072   2.839   2.748   6.908  0.3177  0.3561  0.2824
   91Eth    Hcc 4073   2.819   2.917   6.878  1.7087 -0.0415  4.4531
   91Eth    Hcc 4074   2.983   2.849   6.896  0.2256  0.8578  0.3225
   92Eth     Ho 4075   0.100   3.120   6.655 -1.5194 -1.3295 -1.3821
   92Eth     Oh 4076   0.035   3.110   6.722 -0.2277 -0.1496  0.0905
   92Eth     Co 4077   0.114   3.046   6.823  0.8870 -0.3513 -0.3200
   92Eth    Hco 4078   0.182   2.976   6.774  0.0769 -1.3823  0.0149
   92Eth    Hco 4079   0.042   2.984   6.877  2.3448 -1.3617  0.4816
   92Eth     Ch 4080   0.187   3.150   6.906  0.0366 -0.6716  0.0416
   92Eth    Hcc 4081   0.228   3.224   6.838 -3.4325  2.0661  0.7591
   92Eth    Hcc 4082   0.258   3.093   6.966 -0.8996 -0.2683  1.5755
   92Eth    Hcc 4083   0.117   3.208   6.967  2.2316  0.2354  1.7478
   93Eth     Ho 4084   3.007   3.533   1.514 -0.6800  1.1515 -0.4083
   93Eth     Oh 4085   2.953   3.513   1.439 -0.8478 -0.8810  0.2253
   93Eth     Co 4086   3.013   3.402   1.377 -0.0172  0.3133 -0.4870
   93Eth    Hco 4087   3.081   3.354   1.448 -1.1163 -0.7588 -0.1463
   93Eth    Hco 4088   3.069   3.445   1.294  1.1949  0.4476  0.3806
   93Eth     Ch 4089   2.916   3.300   1.323 -0.6349  0.1842 -0.5280
   93Eth    Hcc 4090   2.870   3.350   1.238  0.8631  3.6502  0.5913
   93Eth    Hcc 4091   2.840   3.287   1.400 -0.0690  2.7618  0.5348
   93Eth    Hcc 4092   2.953   3.202   1.294  0.0242  1.0859 -2.8160
   94Eth     Ho 4093   3.198   0.873   3.731  2.1830 -1.7536 -3.1752
   94Eth     Oh 4094   3.164   0.793   3.766  0.9934  0.0772  0.0964
   94Eth     Co 4095   3.032   0.777   3.711  0.0943  0.4247 -0.3694
   94Eth    Hco 4096   3.017   0.833   3.619  1.1756  0.2580 -0.6510
   94Eth    Hco 4097   2.960   0.819   3.781  0.7789 -1.4188  1.5196
   94Eth     Ch 4098   3.011   0.627   3.685 -0.4101  0.1955 -0.1262
   94Eth    Hcc 4099   2.997   0.571   3.778  0.0324  0.8190  0.3282
   94Eth    Hcc 4100   3.095   0.591   3.627 -0.5111 -1.5225  0.7735
   94Eth    Hcc 4101   2.918   0.609   3.631 -0.8854 -0.2838  0.8370
   95Eth     Ho 4102   1.482   2.045   3.065  0.8471 -0.5742 -0.3042
   95Eth     Oh 4103   1.405   1.992   3.071  0.0031  0.6364 -0.2161
   95Eth     Co 4104   1.331   2.020   3.189  0.3020  0.8536  0.1079
   95Eth    Hco 4105   1.320   2.129   3.189  0.9364  0.9290  1.2655
   95Eth    Hco 4106   1.400   2.004   3.272  0.3588  1.5631  0.2019
   95Eth     Ch 4107   1.192   1.956   3.202  0.0455 -0.3116  0.4299
   95Eth    Hcc 4108   1.186   1.847   3.195 -0.0379 -0.2905  0.1376
   95Eth    Hcc 4109   1.131   1.986   3.117 -0.1997 -1.6042  0.1311
   95Eth    Hcc 4110   1.132   1.996   3.284  3.2258  0.4409  2.4595
   96Eth     Ho 4111   2.130   0.555   1.892  0.7047 -0.1102 -2.4894
   96Eth     Oh 4112   2.097   0.635   1.855 -0.3255  0.8316  0.2944
   96Eth     Co 4113   1.972   0.609   1.802  0.4337 -0.0407  0.6337
   96Eth    Hco 4114   1.906   0.557   1.871 -0.1860 -0.1370 -0.0339
   96Eth    Hco 4115   1.985   0.564   1.704  1.4385  0.0165  0.7263
   96Eth     Ch 4116   1.911   0.743   1.792  0.1243  0.1820  0.2009
   96Eth    Hcc 4117   1.805   0.723   1.779 -0.0356  1.4461 -0.5535
   96Eth    Hcc 4118   1.947   0.796   1.703 -1.3796 -1.4620 -1.4130
   96Eth    Hcc 4119   1.937   0.804   1.878 -0.3799 -0.5982  0.9117
   97Eth     Ho 4120   3.734   4.062   1.301  0.8793  0.8760  2.4063
   97Eth     Oh 4121   3.655   4.057   1.352 -0.7389  0.0278 -0.0402
   97Eth     Co 4122   3.625   3.922   1.349  0.0209  0.2405 -0.4144
   97Eth    Hco 4123   3.673   3.855   1.421  1.5872 -0.1327 -1.7700
   97Eth    Hco 4124   3.666   3.884   1.255 -2.1662 -0.6431 -1.0464
   97Eth     Ch 4125   3.472   3.912   1.341  0.5864 -0.6398 -0.6170
   97Eth    Hcc 4126   3.427   3.962   1.256  0.6810 -1.0593 -0.9153
   97Eth    Hcc 4127   3.434   3.941   1.439 -0.1009 -1.2339 -0.7041
   97Eth    Hcc 4128   3.433   3.810   1.338  4.3069 -2.4461  4.3190
   98Eth     Ho 4129   2.659   2.188   6.767  0.5520 -1.3633 -1.5409
   98Eth     Oh 4130   2.573   2.152   6.773  0.5707 -1.1162  0.7792
   98Eth     Co 4131   2.532   2.164   6.911  0.0276 -0.3806 -0.2289
   98Eth    Hco 4132   2.561   2.260   6.954  1.2341 -0.2899 -1.2093
   98Eth    Hco 4133   2.579   2.086   6.972  2.6747  1.2027 -0.1550
   98Eth     Ch 4134   2.381   2.141   6.918 -0.0691 -0.2882 -0.2233
   98Eth    Hcc 4135   2.323   2.222   6.873 -0.2839  0.1614  0.8299
   98Eth    Hcc 4136   2.340   2.120   7.017 -1.1005  1.4631 -0.2539
   98Eth    Hcc 4137   2.357   2.045   6.873  2.2499 -1.2203  0.4475
   99Eth     Ho 4138   2.542   0.600   4.962 -0.3917 -2.1024  1.0752
   99Eth     Oh 4139   2.633   0.588   4.985 -0.0734 -0.6768  0.6442
   99Eth     Co 4140   2.680   0.680   5.082 -0.5212  0.4627  0.5293
   99Eth    Hco 4141   2.625   0.654   5.173  1.6612 -0.6666  1.5642
   99Eth    Hco 4142   2.652   0.781   5.051 -2.9942  0.0373  1.2628
   99Eth     Ch 4143   2.830   0.663   5.118  0.2146  0.1408 -0.8672
   99Eth    Hcc 4144   2.858   0.725   5.203 -1.9122 -0.6964  0.4792
   99Eth    Hcc 4145   2.884   0.700   5.030  0.6892 -1.2375 -1.1571
   99Eth    Hcc 4146   2.851   0.559   5.141 -1.8012 -0.3214 -1.0157
  100Eth     Ho 4147   3.281   1.962   6.911  0.4191  0.8559  0.3645
  100Eth     Oh 4148   3.320   1.950   6.996  0.0615 -0.3202  0.3707
  100Eth     Co 4149   3.311   2.070   7.073  0.4780  0.2546  0.2656
  100Eth    Hco 4150   3.321   2.158   7.011 -0.6997  1.3713  1.6254
  100Eth    Hco 4151   3.391   2.063   7.148  0.9086  2.7015  0.0521
  100Eth     Ch 4152   3.166   2.084   7.130 -0.2045 -0.1455  0.1528
  100Eth    Hcc 4153   3.168   2.163   7.205  0.1487  0.4090 -0.4381
  100Eth    Hcc 4154   3.144   1.988   7.178 -2.3586 -0.7432 -1.9229
  100Eth    Hcc 4155   3.097   2.121   7.053  0.5562 -1.4719 -1.2001
  101Eth     Ho 4156   1.436   0.919   1.284  0.0530  0.1198 -1.6312
  101Eth     Oh 4157   1.408   1.009   1.282  0.3462  0.2813  0.8340
  101Eth     Co 4158   1.507   1.083   1.216 -0.1708 -0.2846  0.1482
  101Eth    Hco 4159   1.523   1.035   1.120  0.7226 -0.1408  0.2154
  101Eth    Hco 4160   1.598   1.056   1.270 -1.3447 -3.6533  0.5858
  101Eth     Ch 4161   1.492   1.230   1.206 -0.8605 -0.2628  0.6587
  101Eth    Hcc 4162   1.585   1.251   1.152 -1.2968 -0.9191 -0.3823
  101Eth    Hcc 4163   1.491   1.283   1.301 -2.5812  0.2653  0.3678
  101Eth    Hcc 4164   1.406   1.271   1.153 -0.5614  0.0284  0.3916
  102Eth     Ho 4165   2.944   2.165   6.728 -0.1845 -0.8988  1.0880
  102Eth     Oh 4166   2.860   2.199   6.700  0.4467 -0.2722 -0.0651
  102Eth     Co 4167   2.847   2.179   6.568  0.1341 -0.2844  0.2459
  102Eth    Hco 4168   2.810   2.078   6.555  0.1034 -0.3243  0.6465
  102Eth    Hco 4169   2.946   2.169   6.523  0.8456  1.5712  1.3308
  102Eth     Ch 4170   2.757   2.282   6.503  0.3413 -0.4559 -0.3786
  102Eth    Hcc 4171   2.792   2.383   6.525 -1.8923  0.1487  0.5463
  102Eth    Hcc 4172   2.653   2.275   6.534  0.2104 -0.0834 -0.7307
  102Eth    Hcc 4173   2.751   2.263   6.396 -0.0207  0.5697 -0.5476
  103Eth     Ho 4174   3.370   4.097   7.137  0.1776  0.8652  0.6077
  103Eth     Oh 4175   3.297   4.147   7.108 -0.0673  0.0406 -0.2357
  103Eth     Co 4176   3.319   4.281   7.147  1.0949 -0.6256  0.0046
  103Eth    Hco 4177   3.409   4.319   7.100  0.1684 -0.4100 -1.6159
  103Eth    Hco 4178   3.338   4.288   7.254  1.1919 -1.9223  0.0820
  103Eth     Ch 4179   3.198   4.364   7.106 -0.4042 -0.3748  0.0267
  103Eth    Hcc 4180   3.210   4.465   7.145 -0.7815 -1.0519  1.9130
  103Eth    Hcc 4181   3.103   4.336   7.149  0.7571 -0.5159  2.5877
  103Eth    Hcc 4182   3.172   4.352   7.000  2.1675 -2.5202 -0.4197
  104Eth     Ho 4183   0.187   3.311   3.107 -1.9779  1.9747  1.5232
  104Eth     Oh 4184   0.277   3.326   3.129 -0.9798 -0.6907 -0.4699
  104Eth     Co 4185   0.354   3.247   3.049  0.4089  0.2465 -0.5350
  104Eth    Hco 4186   0.293   3.244   2.958 -2.3780  0.1621  1.2648
  104Eth    Hco 4187   0.353   3.144   3.085 -0.3919  0.4921  0.1554
  104Eth     Ch 4188   0.492   3.297   3.011  1.2698 -0.4420  0.4560
  104Eth    Hcc 4189   0.536   3.229   2.938  0.8628 -0.3478  0.1214
  104Eth    Hcc 4190   0.559   3.312   3.095  1.2140 -0.8113  0.5686
  104Eth    Hcc 4191   0.490   3.393   2.959 -0.1172 -1.1901 -0.9146
  105Eth     Ho 4192   2.172   3.397   1.409 -0.1333 -1.5471 -2.0446
  105Eth     Oh 4193   2.132   3.468   1.363  0.4868  0.0090 -0.2367
  105Eth     Co 4194   2.115   3.440   1.232 -0.2226 -0.0432  0.2865
  105Eth    Hco 4195   2.051   3.353   1.218  1.5810 -1.8928  3.2340
  105Eth    Hco 4196   2.213   3.415   1.191 -0.6224 -1.3710  0.1235
  105Eth     Ch 4197   2.049   3.551   1.155 -0.0750  0.6611  0.2312
  105Eth    Hcc 4198   1.942   3.558   1.172 -0.3452  0.2923 -1.2647
  105Eth    Hcc 4199   2.042   3.526   1.050  1.5296  0.1140  0.2410
  105Eth    Hcc 4200   2.109   3.642   1.155  1.4739 -0.3137  2.2795
  106Eth     Ho 4201   0.877   0.632   1.447  1.2296  3.2171 -1.6957
  106Eth     Oh 4202   0.965   0.598   1.454 -0.1774 -0.3864 -0.3685
  106Eth     Co 4203   0.969   0.483   1.370 -0.5637 -0.3351  0.1667
  106Eth    Hco 4204   0.912   0.502   1.279 -0.6853  1.0301  0.5237
  106Eth    Hco 4205   0.924   0.388   1.398 -0.5320 -0.2309  0.5719
  106Eth     Ch 4206   1.111   0.444   1.340  0.6954 -1.2880  0.3994
  106Eth    Hcc 4207   1.160   0.412   1.431  2.9563  2.4725  0.6272
  106Eth    Hcc 4208   1.162   0.528   1.293  0.6354 -0.7777  1.2568
  106Eth    Hcc 4209   1.121   0.367   1.263  0.3245  0.1940 -1.1824
  107Eth     Ho 4210   2.236   1.355   3.719  2.9749 -0.1328  0.3789
  107Eth     Oh 4211   2.236   1.308   3.800 -0.5279 -0.3226  0.3417
  107Eth     Co 4212   2.119   1.233   3.816  0.6201  0.1284  0.2000
  107Eth    Hco 4213   2.137   1.172   3.904  0.4781 -1.6514 -0.9619
  107Eth    Hco 4214   2.114   1.175   3.724 -0.1168 -1.7067  1.3655
  107Eth     Ch 4215   1.995   1.318   3.839  0.0710  0.8247 -0.3319
  107Eth    Hcc 4216   1.986   1.394   3.762  2.3604  2.6920  1.2015
  107Eth    Hcc 4217   1.994   1.389   3.921 -1.6857  1.1263 -0.5777
  107Eth    Hcc 4218   1.906   1.255   3.830 -0.4774  1.5101  0.2230
  108Eth     Ho 4219   3.863   1.797   3.380 -0.5113 -2.7721 -1.8026
  108Eth     Oh 4220   3.922   1.843   3.323  0.3324 -0.9072  0.4737
  108Eth     Co 4221   3.846   1.870   3.206  0.3383  0.2026 -0.8333
  108Eth    Hco 4222   3.762   1.923   3.250  2.3881  1.3565  1.8062
  108Eth    Hco 4223   3.824   1.768   3.171  1.8044 -0.6193  0.5933
  108Eth     Ch 4224   3.921   1.960   3.102  0.1242 -0.0991 -0.2450
  108Eth    Hcc 4225   3.856   1.990   3.021  0.1438 -0.9166 -0.5692
  108Eth    Hcc 4226   4.010   1.915   3.058 -0.2522  0.8667 -2.0307
  108Eth    Hcc 4227   3.954   2.058   3.138 -1.3756  0.7016 -1.0471
  109Eth     Ho 4228   2.176   3.481   6.844 -0.7249  1.0255 -2.6671
  109Eth     Oh 4229   2.261   3.516   6.822  0.2812  0.3208 -0.0843
  109Eth     Co 4230   2.274   3.637   6.889  0.0624 -1.2477 -0.3396
  109Eth    Hco 4231   2.316   3.624   6.988  1.7229  0.3201 -0.8072
  109Eth    Hco 4232   2.172   3.676   6.891  0.7287  0.4629  1.2228
  109Eth     Ch 4233   2.375   3.715   6.799  0.5187  0.2726 -0.5787
  109Eth    Hcc 4234   2.354   3.742   6.696 -1.3639 -1.4785 -0.6984
  109Eth    Hcc 4235   2.466   3.656   6.787  0.3685 -0.7848  2.8941
  109Eth    Hcc 4236   2.408   3.806   6.848  0.1206 -0.5914  1.3576
  110Eth     Ho 4237   1.002   1.312   5.774  1.2944  0.4486  1.1409
  110Eth     Oh 4238   0.977   1.388   5.824  0.3348  0.4152  0.7264
  110Eth     Co 4239   0.889   1.344   5.926 -0.2522  0.5058 -0.4069
  110Eth    Hco 4240   0.933   1.254   5.968 -0.3151  0.7852  0.2743
  110Eth    Hco 4241   0.788   1.318   5.895  0.2753 -0.0935 -1.6739
  110Eth     Ch 4242   0.869   1.446   6.044  0.3480  0.1982 -0.4694
  110Eth    Hcc 4243   0.803   1.523   6.004  1.5834  1.0043 -1.0097
  110Eth    Hcc 4244   0.963   1.495   6.071 -0.4381  0.1752  2.4208
  110Eth    Hcc 4245   0.833   1.402   6.137 -0.6606 -0.5433 -1.2076
  111Eth     Ho 4246   0.642   0.728   4.866 -1.8742  1.6874 -0.2891
  111Eth     Oh 4247   0.642   0.733   4.960 -0.1932 -0.2024 -0.1366
  111Eth     Co 4248   0.688   0.609   5.007  0.0475  0.5118  0.1959
  111Eth    Hco 4249   0.778   0.573   4.958 -1.0392  0.2781 -1.6631
  111Eth    Hco 4250   0.623   0.527   4.976  1.0551  0.1366 -0.9615
  111Eth     Ch 4251   0.696   0.602   5.158 -0.2227  0.1722 -0.2351
  111Eth    Hcc 4252   0.788   0.657   5.180 -0.4937  0.9932 -1.1020
  111Eth    Hcc 4253   0.717   0.498   5.182 -0.5502  0.4996  1.5072
  111Eth    Hcc 4254   0.614   0.630   5.224  1.1857  0.0824  1.5842
  112Eth     Ho 4255   1.047   0.606   6.862  1.1689  0.8795  4.0354
  112Eth     Oh 4256   0.979   0.546   6.883  0.1029  0.4383 -0.1973
  112Eth     Co 4257   1.011   0.482   7.011 -0.0217 -0.0209  0.2117
  112Eth    Hco 4258   0.991   0.565   7.079 -1.5697 -0.7747  0.7151
  112Eth    Hco 4259   1.114   0.448   7.015 -0.2458 -0.6507  0.7329
  112Eth     Ch 4260   0.934   0.352   7.039  0.0485  0.1588 -0.1275
  112Eth    Hcc 4261   0.825   0.359   7.043  0.1929  1.8121  1.8500
  112Eth    Hcc 4262   0.959   0.313   7.138  0.0988 -0.5781 -0.4296
  112Eth    Hcc 4263   0.968   0.274   6.971  1.2988 -0.3320  1.0316
  113Eth     Ho 4264   0.363   0.455   1.452  1.2714 -0.7372  0.1111
  113Eth     Oh 4265   0.387   0.542   1.425  0.3331 -0.5739 -0.2153
  113Eth     Co 4266   0.282   0.622   1.391  0.2500  0.3216 -0.3398
  113Eth    Hco 4267   0.222   0.626   1.482  1.0174  2.7098  0.0984
  113Eth    Hco 4268   0.238   0.564   1.309  2.4021  0.8652 -1.9451
  113Eth     Ch 4269   0.325   0.755   1.347  0.0812 -0.4042  0.2065
  113Eth    Hcc 4270   0.382   0.756   1.254 -1.0312 -2.4069 -0.5396
  113Eth    Hcc 4271   0.393   0.784   1.427  0.7887 -0.1149 -0.4886
  113Eth    Hcc 4272   0.245   0.827   1.333  1.1604  1.1407  1.8069
  114Eth     Ho 4273   2.604   3.904   2.880 -1.1838  0.9980 -0.9503
  114Eth     Oh 4274   2.670   3.939   2.824 -0.0553  0.4466  0.0165
  114Eth     Co 4275   2.587   3.985   2.717  0.2713 -0.3881 -0.2952
  114Eth    Hco 4276   2.508   4.049   2.757 -0.9575 -2.2922  0.4041
  114Eth    Hco 4277   2.531   3.904   2.671 -1.4456  2.0476 -2.7047
  114Eth     Ch 4278   2.671   4.046   2.606  0.0217 -0.0584 -0.2120
  114Eth    Hcc 4279   2.620   4.080   2.516 -0.4040  0.6098  0.2772
  114Eth    Hcc 4280   2.738   3.965   2.577  0.5520  0.1773  0.3362
  114Eth    Hcc 4281   2.728   4.131   2.643 -2.2096  0.9722  1.0411
  115Eth     Ho 4282   2.014   1.029   1.521  1.2240  0.7325 -2.6132
  115Eth     Oh 4283   1.941   1.004   1.467 -0.4056 -0.2287 -0.0797
  115Eth     Co 4284   1.997   1.026   1.345 -0.0110 -0.2903  0.5926
  115Eth    Hco 4285   2.077   0.953   1.351  0.9900  0.7295 -0.0700
  115Eth    Hco 4286   2.040   1.126   1.337  1.1629 -1.0123 -3.0556
  115Eth     Ch 4287   1.914   1.002   1.221  0.1329  0.3964  0.1858
  115Eth    Hcc 4288   1.979   0.977   1.137 -1.4353  0.9247 -1.2238
  115Eth    Hcc 4289   1.844   1.080   1.191 -0.1192 -0.2596 -0.9599
  115Eth    Hcc 4290   1.849   0.914   1.226 -3.8409  3.3196  2.6911
  116Eth     Ho 4291   2.215   1.647   3.693 -0.0493  0.3206 -0.3425
  116Eth     Oh 4292   2.141   1.596   3.668  0.1179 -0.3727  0.5573
  116Eth     Co 4293   2.035   1.686   3.684  0.6352  0.4225  0.4572
  116Eth    Hco 4294   2.082   1.761   3.749  0.2991  3.0239 -2.1648
  116Eth    Hco 4295   1.952   1.639   3.736 -0.9043  3.5636  0.9520
  116Eth     Ch 4296   1.982   1.759   3.560  0.3717  0.0462 -0.5269
  116Eth    Hcc 4297   2.065   1.806   3.506 -0.8017  1.6405 -0.9633
  116Eth    Hcc 4298   1.918   1.841   3.593  0.3717 -0.6418  1.2142
  116Eth    Hcc 4299   1.915   1.704   3.494 -1.1324 -0.0338  1.0619
  117Eth     Ho 4300   3.805   3.243   3.518  0.0876 -0.9256  0.3932
  117Eth     Oh 4301   3.825   3.310   3.581  0.0143 -0.2305 -0.3037
  117Eth     Co 4302   3.753   3.294   3.703  0.0305  0.4305  0.0479
  117Eth    Hco 4303   3.734   3.187   3.714 -0.0412  0.5720  1.4151
  117Eth    Hco 4304   3.651   3.330   3.696 -0.5169 -0.1991  3.8595
  117Eth     Ch 4305   3.832   3.339   3.830  0.2745  0.0954 -0.0119
  117Eth    Hcc 4306   3.885   3.257   3.878 -1.1495 -0.5123  0.5501
  117Eth    Hcc 4307   3.757   3.380   3.897 -1.1108 -3.0573  0.4400
  117Eth    Hcc 4308   3.899   3.425   3.825 -0.3755  0.6461  0.6076
  118Eth     Ho 4309   2.978   0.016   1.492  0.1191 -0.1834 -0.0127
  118Eth     Oh 4310   2.895   0.013   1.448  0.3179 -0.5417 -0.3618
  118Eth     Co 4311   2.898   0.099   1.333  0.0156 -0.2298 -1.3895
  118Eth    Hco 4312   3.004   0.102   1.306  0.2242 -1.0100 -0.6883
  118Eth    Hco 4313   2.875   0.203   1.356 -1.0310 -0.8056  0.2805
  118Eth     Ch 4314   2.798   0.047   1.233  0.3746  0.0068  0.0774
  118Eth    Hcc 4315   2.709   0.017   1.288  1.0422  0.1316  1.2236
  118Eth    Hcc 4316   2.843  -0.024   1.164  0.1887  0.0494 -0.0895
  118Eth    Hcc 4317   2.775   0.130   1.166 -0.2101  0.0799  0.3573
  119Eth     Ho 4318   0.124   1.631   6.684 -0.0074 -1.6033 -3.5810
  119Eth     Oh 4319   0.135   1.548   6.728 -0.1382  0.1234 -0.1021
  119Eth     Co 4320   0.198   1.574   6.853 -0.7041  0.8741 -0.8367
  119Eth    Hco 4321   0.134   1.598   6.938  0.4106  2.6337 -0.4457
  119Eth    Hco 4322   0.260   1.664   6.844 -0.9648  1.2243  0.7364
  119Eth     Ch 4323   0.296   1.459   6.894  1.5602  0.4710  0.6383
  119Eth    Hcc 4324   0.340   1.494   6.988  0.8208  0.9795  0.7959
  119Eth    Hcc 4325   0.373   1.422   6.826  1.5068  0.6828  0.4637
  119Eth    Hcc 4326   0.233   1.377   6.930  0.8521  1.1898  1.0550
  120Eth     Ho 4327   2.991   1.164   1.900 -2.0242  3.3638 -0.1216
  120Eth     Oh 4328   3.027   1.183   1.815 -0.1151 -0.0438 -0.1803
  120Eth     Co 4329   3.081   1.312   1.827 -0.9748  0.3658 -0.6334
  120Eth    Hco 4330   3.127   1.333   1.923  1.5789  0.4679 -1.8240
  120Eth    Hco 4331   3.003   1.388   1.816 -0.7502  0.5254 -1.1889
  120Eth     Ch 4332   3.180   1.337   1.712 -0.7328 -0.1830  0.3678
  120Eth    Hcc 4333   3.196   1.444   1.724  1.8438 -0.4661 -0.2505
  120Eth    Hcc 4334   3.144   1.331   1.609  0.4326  0.3175 -0.0772
  120Eth    Hcc 4335   3.270   1.280   1.734 -0.6200  0.4964  1.7049
  121Eth     Ho 4336   1.240   3.311   6.280  1.4417 -0.0854  0.6977
  121Eth     Oh 4337   1.292   3.272   6.213  0.3866 -0.3832  0.0344
  121Eth     Co 4338   1.423   3.273   6.260  0.3927 -0.3490  0.3760
  121Eth    Hco 4339   1.416   3.218   6.354  1.7397  1.6499  1.6660
  121Eth    Hco 4340   1.463   3.372   6.276 -0.5211  0.0638  0.1576
  121Eth     Ch 4341   1.516   3.193   6.170 -0.3696  0.1321  0.6991
  121Eth    Hcc 4342   1.603   3.160   6.225  1.0700  3.3679  0.4846
  121Eth    Hcc 4343   1.560   3.252   6.089  1.5739  0.3281  1.8729
  121Eth    Hcc 4344   1.478   3.104   6.118 -2.3804  1.6458 -0.5540
  122Eth     Ho 4345   1.523   0.331   6.432  0.2190 -0.5179  0.8006
  122Eth     Oh 4346   1.489   0.378   6.506 -0.1510  0.5929 -0.0670
  122Eth     Co 4347   1.514   0.283   6.613 -0.0828 -0.4950 -0.2177
  122Eth    Hco 4348   1.622   0.272   6.621  0.1092 -0.0369 -1.9233
  122Eth    Hco 4349   1.471   0.187   6.585 -2.7568  0.2986  1.0729
  122Eth     Ch 4350   1.456   0.325   6.751  0.5978  0.9791 -0.3333
  122Eth    Hcc 4351   1.469   0.246   6.824  1.2097  1.3175 -0.0714
  122Eth    Hcc 4352   1.350   0.344   6.734  0.8651  1.9272 -1.0456
  122Eth    Hcc 4353   1.511   0.410   6.791  0.5384  0.9862 -0.2676
  123Eth     Ho 4354   3.179   2.709   1.414 -1.4935  2.6088  0.5008
  123Eth     Oh 4355   3.093   2.694   1.448 -1.2188 -0.2114  0.0429
  123Eth     Co 4356   3.030   2.593   1.372 -0.5465 -0.0480 -0.1038
  123Eth    Hco 4357   3.070   2.493   1.392  2.1646  1.1328  0.5951
  123Eth    Hco 4358   3.045   2.605   1.265  1.9205  2.0737  0.4313
  123Eth     Ch 4359   2.889   2.587   1.436  0.1981 -0.6780 -0.1680
  123Eth    Hcc 4360   2.897   2.561   1.542  1.9477 -0.9917 -0.3466
  123Eth    Hcc 4361   2.826   2.502   1.409 -0.4897 -0.5222  0.9420
  123Eth    Hcc 4362   2.831   2.678   1.428 -0.1077 -0.9064 -0.6024
  124Eth     Ho 4363   1.130   4.057   2.835 -0.0201  1.3304 -0.9887
  124Eth     Oh 4364   1.053   4.100   2.868 -0.4649 -0.4799  0.4090
  124Eth     Co 4365   1.049   4.226   2.804  0.1075  0.8606 -0.0808
  124Eth    Hco 4366   1.035   4.208   2.697  2.6723 -0.6308 -0.2144
  124Eth    Hco 4367   1.153   4.260   2.803  0.3911 -0.0056  0.2058
  124Eth     Ch 4368   0.943   4.322   2.856 -0.4179 -0.3903 -0.1824
  124Eth    Hcc 4369   0.977   4.377   2.944 -2.9763  0.4121  0.3327
  124Eth    Hcc 4370   0.844   4.278   2.854 -0.4837 -0.3122  1.2949
  124Eth    Hcc 4371   0.935   4.407   2.788 -3.5836 -0.4398  0.0701
  125Eth     Ho 4372   2.680   3.444   6.788  0.9178 -1.4259  0.8753
  125Eth     Oh 4373   2.649   3.376   6.730  0.7834 -0.4543 -0.2170
  125Eth     Co 4374   2.655   3.263   6.802  0.4892 -0.1959 -0.1482
  125Eth    Hco 4375   2.603   3.269   6.898  0.4076  1.9904 -0.3076
  125Eth    Hco 4376   2.758   3.253   6.838 -0.0890 -0.9137  1.3360
  125Eth     Ch 4377   2.613   3.142   6.725  0.0930 -0.0218  0.0179
  125Eth    Hcc 4378   2.659   3.133   6.626 -2.0678  0.4781 -1.0466
  125Eth    Hcc 4379   2.507   3.138   6.699  0.2960 -1.0519 -0.7116
  125Eth    Hcc 4380   2.639   3.056   6.787 -2.7332 -0.2520  0.9365
  126Eth     Ho 4381   1.516   2.068   6.850  0.0513 -0.4888  0.3021
  126Eth     Oh 4382   1.557   1.990   6.816 -0.3155 -0.3532 -0.4777
  126Eth     Co 4383   1.689   1.978   6.876  0.2190  1.1474  0.0342
  126Eth    Hco 4384   1.688   1.958   6.984 -1.9700 -0.3336 -0.2320
  126Eth    Hco 4385   1.713   2.084   6.874 -0.0654  1.2151  0.1489
  126Eth     Ch 4386   1.773   1.890   6.789  0.2065 -0.3395  0.0069
  126Eth    Hcc 4387   1.761   1.917   6.685 -0.9919 -2.6076 -0.4548
  126Eth    Hcc 4388   1.737   1.787   6.789 -1.1047  0.0794  2.3990
  126Eth    Hcc 4389   1.877   1.890   6.824 -0.5180 -0.5274  2.2402
  127Eth     Ho 4390   1.608   0.724   5.286  0.2534  0.8297 -1.4151
  127Eth     Oh 4391   1.550   0.652   5.273  0.1272  0.6287  0.1407
  127Eth     Co 4392   1.455   0.660   5.375 -0.6387  0.2192  0.1040
  127Eth    Hco 4393   1.371   0.727   5.355 -0.2620  1.0199  1.1726
  127Eth    Hco 4394   1.496   0.681   5.473 -0.5522 -1.4056  0.4322
  127Eth     Ch 4395   1.384   0.518   5.382 -0.6428  0.8910  0.2111
  127Eth    Hcc 4396   1.296   0.520   5.446  0.8488 -1.8522  2.4398
  127Eth    Hcc 4397   1.443   0.433   5.416 -1.4136  0.4596  0.4724
  127Eth    Hcc 4398   1.354   0.494   5.280 -0.1537  2.6466 -0.3720
  128Eth     Ho 4399   3.700   3.247   1.394 -0.1129  0.5910 -1.1756
  128Eth     Oh 4400   3.732   3.162   1.371  0.0042  0.1426  0.6170
  128Eth     Co 4401   3.625   3.093   1.303 -0.0100  0.8973  0.3661
  128Eth    Hco 4402   3.606   3.132   1.202 -0.6693  0.1941  0.2137
  128Eth    Hco 4403   3.527   3.102   1.350  1.2299  0.3186  3.1639
  128Eth     Ch 4404   3.658   2.945   1.292 -0.3351 -0.3698  0.3159
  128Eth    Hcc 4405   3.673   2.889   1.385  0.7756  1.0326  0.9995
  128Eth    Hcc 4406   3.754   2.941   1.241 -1.0862  0.7507 -1.2046
  128Eth    Hcc 4407   3.588   2.891   1.228 -0.2602  0.3668 -0.3876
  129Eth     Ho 4408   1.869   0.292   6.736 -0.4729 -0.3116 -2.1704
  129Eth     Oh 4409   1.837   0.380   6.745  0.4862 -0.1312 -0.0831
  129Eth     Co 4410   1.864   0.409   6.882  0.4263 -0.5407  0.6653
  129Eth    Hco 4411   1.970   0.428   6.899  0.6464 -2.1003  1.1134
  129Eth    Hco 4412   1.843   0.314   6.931 -0.6675 -0.1401  1.0032
  129Eth     Ch 4413   1.780   0.516   6.942  0.1593  0.5019  0.1818
  129Eth    Hcc 4414   1.797   0.536   7.047  0.0706 -1.8615  0.6810
  129Eth    Hcc 4415   1.671   0.507   6.934  0.1467  0.9979 -0.2181
  129Eth    Hcc 4416   1.789   0.610   6.887 -0.4018  1.0287  0.9795
  130Eth     Ho 4417   2.039   0.740   1.392  0.7959 -0.2608  0.2152
  130Eth     Oh 4418   2.046   0.647   1.402 -0.4257 -0.3137  0.6638
  130Eth     Co 4419   1.919   0.600   1.381 -0.0584 -0.6038 -0.4667
  130Eth    Hco 4420   1.884   0.632   1.283  0.9995  0.7797 -0.4179
  130Eth    Hco 4421   1.853   0.644   1.455  2.3167 -0.6925  1.7942
  130Eth     Ch 4422   1.921   0.449   1.406 -0.1657 -0.6501  0.6524
  130Eth    Hcc 4423   1.959   0.417   1.503  3.9869  2.4933  0.1518
  130Eth    Hcc 4424   1.978   0.408   1.323 -0.2889 -0.2081  0.3475
  130Eth    Hcc 4425   1.826   0.396   1.398 -0.8651  0.7500 -0.5110
  131Eth     Ho 4426   2.421   1.048   6.824 -0.8459 -1.0541  2.6687
  131Eth     Oh 4427   2.504   1.078   6.855 -0.2411  0.4236 -0.1530
  131Eth     Co 4428   2.597   0.962   6.842 -0.0056 -0.4009 -0.2969
  131Eth    Hco 4429   2.581   0.945   6.735 -1.6314  0.5554 -0.2263
  131Eth    Hco 4430   2.572   0.874   6.900  2.0642  0.3097  1.7670
  131Eth     Ch 4431   2.735   1.011   6.882  0.4009  0.2247 -0.1785
  131Eth    Hcc 4432   2.733   1.011   6.991 -1.0769 -2.6149 -0.1522
  131Eth    Hcc 4433   2.761   1.105   6.833  1.0353 -0.3760 -0.9989
  131Eth    Hcc 4434   2.813   0.939   6.862  0.7526  0.1398  1.4005
  132Eth     Ho 4435   3.219   3.204   6.652  0.0111 -0.3950 -0.7161
  132Eth     Oh 4436   3.285   3.263   6.622 -0.2303  0.2812  0.0511
  132Eth     Co 4437   3.412   3.208   6.643  0.2501 -0.2134 -0.0805
  132Eth    Hco 4438   3.433   3.132   6.568  1.5103  1.6694 -1.6861
  132Eth    Hco 4439   3.401   3.160   6.740 -2.5967  0.5077 -0.0069
  132Eth     Ch 4440   3.523   3.308   6.654 -0.4763  0.2097 -0.6773
  132Eth    Hcc 4441   3.521   3.383   6.574 -0.3665  0.6852 -0.2357
  132Eth    Hcc 4442   3.617   3.254   6.659 -0.7933 -0.0891  3.0637
  132Eth    Hcc 4443   3.527   3.353   6.753 -0.2078 -0.5217 -0.3512
  133Eth     Ho 4444   0.740   3.418   6.928 -1.3714  0.4368  0.7688
  133Eth     Oh 4445   0.703   3.342   6.887 -0.4857  0.0302  0.7100
  133Eth     Co 4446   0.602   3.388   6.812  1.3476  0.2232  0.7152
  133Eth    Hco 4447   0.647   3.460   6.744 -1.1730  1.5480  0.3849
  133Eth    Hco 4448   0.544   3.449   6.881 -0.5970 -1.8944  0.9990
  133Eth     Ch 4449   0.538   3.280   6.738  0.2830  0.4462  0.3868
  133Eth    Hcc 4450   0.473   3.219   6.800 -0.9925  0.1421 -1.1909
  133Eth    Hcc 4451   0.603   3.210   6.686 -1.2171 -0.4772 -0.3069
  133Eth    Hcc 4452   0.474   3.327   6.662  0.5570  2.6739  1.5006
  134Eth     Ho 4453   3.475   1.774   1.624  1.1777  1.6453 -0.2234
  134Eth     Oh 4454   3.455   1.773   1.532 -0.5342 -0.9242  0.1510
  134Eth     Co 4455   3.365   1.673   1.504 -0.4371  0.0014 -0.0773
  134Eth    Hco 4456   3.274   1.680   1.563 -1.6228 -0.9239 -1.7403
  134Eth    Hco 4457   3.405   1.571   1.510 -1.0502 -0.2552 -0.2902
  134Eth     Ch 4458   3.319   1.698   1.364  0.2656  0.3987 -0.4859
  134Eth    Hcc 4459   3.301   1.804   1.350  0.0412  0.4806  0.3789
  134Eth    Hcc 4460   3.232   1.635   1.344 -0.9700  1.4531  1.4133
  134Eth    Hcc 4461   3.397   1.667   1.294 -1.3601 -2.1744 -1.2637
  135Eth     Ho 4462   1.287   1.262   6.721 -1.2561 -2.5658  1.2904
  135Eth     Oh 4463   1.351   1.246   6.788  0.5254 -0.5076  0.1158
  135Eth     Co 4464   1.281   1.153   6.873  0.5182  0.3926 -0.2769
  135Eth    Hco 4465   1.285   1.054   6.829  0.1163 -0.4958  1.6551
  135Eth    Hco 4466   1.174   1.172   6.862  0.0591  0.6474  3.9369
  135Eth     Ch 4467   1.319   1.162   7.021  0.1057 -0.0588  0.0097
  135Eth    Hcc 4468   1.327   1.268   7.045 -2.7040  0.0671  0.5867
  135Eth    Hcc 4469   1.413   1.111   7.041  0.9727  0.7308 -1.9544
  135Eth    Hcc 4470   1.244   1.122   7.090  0.1932 -0.2871 -0.0264
  136Eth     Ho 4471   1.000   1.649   1.398 -0.2565 -0.8514 -0.2900
  136Eth     Oh 4472   1.094   1.645   1.392 -0.2345 -0.2393 -0.4549
  136Eth     Co 4473   1.153   1.765   1.348 -0.1170  0.3425  0.2906
  136Eth    Hco 4474   1.131   1.847   1.415  0.8228  0.2662  0.6994
  136Eth    Hco 4475   1.129   1.781   1.243 -0.7649 -2.5497 -0.0593
  136Eth     Ch 4476   1.302   1.744   1.358 -0.6244  0.1221 -0.0697
  136Eth    Hcc 4477   1.346   1.668   1.294  1.3293  1.1125  0.0829
  136Eth    Hcc 4478   1.313   1.696   1.456 -2.0049 -2.6064 -1.1967
  136Eth    Hcc 4479   1.362   1.833   1.341  0.3537 -1.0799 -3.2756
  137Eth     Ho 4480   2.556   3.956   6.707  0.0228 -0.1950  1.0748
  137Eth     Oh 4481   2.494   4.027   6.697  0.5190  0.0159 -0.7391
  137Eth     Co 4482   2.543   4.113   6.794  0.6351  0.0919 -0.0081
  137Eth    Hco 4483   2.637   4.156   6.760  0.3073  0.3689 -0.5670
  137Eth    Hco 4484   2.580   4.050   6.875  1.7974 -0.2045 -0.7556
  137Eth     Ch 4485   2.436   4.217   6.834 -0.1840 -0.4297  0.0934
  137Eth    Hcc 4486   2.404   4.276   6.749  0.4543  0.3150  0.3622
  137Eth    Hcc 4487   2.469   4.283   6.914  0.7923  0.3027 -0.8891
  137Eth    Hcc 4488   2.354   4.153   6.866  0.4924 -1.3318  0.0619
  138Eth     Ho 4489   3.258   2.923   6.880 -2.5548 -1.9072  3.5079
  138Eth     Oh 4490   3.257   3.010   6.916  0.2046 -0.4483  0.2870
  138Eth     Co 4491   3.375   3.021   6.990 -0.7025 -0.0575  0.4617
  138Eth    Hco 4492   3.460   3.014   6.923 -0.7171 -0.7014  0.5110
  138Eth    Hco 4493   3.379   2.942   7.065 -0.1039  1.4618  2.0672
  138Eth     Ch 4494   3.388   3.152   7.069 -0.1632  0.4778 -0.3184
  138Eth    Hcc 4495   3.491   3.165   7.101 -0.4056  1.7342 -0.0275
  138Eth    Hcc 4496   3.320   3.154   7.154  1.0965 -1.4768  0.7684
  138Eth    Hcc 4497   3.356   3.234   7.004 -1.0398 -0.2147 -0.7677
  139Eth     Ho 4498   2.106   0.069   1.443  0.5073  0.5855 -0.6551
  139Eth     Oh 4499   2.131   0.048   1.355  0.5221 -0.1545 -0.4752
  139Eth     Co 4500   2.127   0.169   1.283 -0.6141 -0.0296  0.1571
  139Eth    Hco 4501   2.194   0.228   1.346  1.4113 -3.3487  1.2537
  139Eth    Hco 4502   2.021   0.190   1.269 -0.3811 -1.0505 -3.7401
  139Eth     Ch 4503   2.190   0.167   1.144  0.2093 -0.3303  0.1390
  139Eth    Hcc 4504   2.127   0.117   1.071  0.2003 -2.6542  1.6794
  139Eth    Hcc 4505   2.292   0.131   1.145  0.4490  0.2825  3.7484
  139Eth    Hcc 4506   2.202   0.267   1.103  0.1745  0.4297  1.9208
  140Eth     Ho 4507   2.481   4.010   1.628  0.7959 -0.6036 -0.2089
  140Eth     Oh 4508   2.436   4.025   1.710  0.2829  0.3334 -0.6475
  140Eth     Co 4509   2.473   4.151   1.762 -0.2702  0.1303  0.5127
  140Eth    Hco 4510   2.532   4.211   1.693 -1.8210  2.3320  1.0660
  140Eth    Hco 4511   2.547   4.135   1.840 -0.6533  0.6589  0.9922
  140Eth     Ch 4512   2.344   4.216   1.818  0.0364 -0.4235  0.6742
  140Eth    Hcc 4513   2.305   4.160   1.903 -0.2463 -0.6658  0.3896
  140Eth    Hcc 4514   2.261   4.204   1.747  0.2669 -1.5979  0.5886
  140Eth    Hcc 4515   2.355   4.316   1.859  1.9909 -1.0691  1.7578
  141Eth     Ho 4516   1.577   3.290   5.513  1.9905 -0.0600  2.1214
  141Eth     Oh 4517   1.549   3.201   5.521  0.6107  0.0755 -0.4709
  141Eth     Co 4518   1.410   3.201   5.488  0.0097  0.1405 -0.2743
  141Eth    Hco 4519   1.391   3.237   5.387 -3.0319 -1.4318 -0.2936
  141Eth    Hco 4520   1.345   3.258   5.554 -2.1357 -0.9788 -1.3784
  141Eth     Ch 4521   1.367   3.055   5.490  0.1603  0.2517  0.0025
  141Eth    Hcc 4522   1.434   3.004   5.422  1.1690  3.1771 -1.2805
  141Eth    Hcc 4523   1.264   3.053   5.453 -1.1310 -0.7191  3.4005
  141Eth    Hcc 4524   1.361   2.997   5.583 -0.3095 -0.2016 -0.3056
  142Eth     Ho 4525   0.949   3.129   1.480 -0.3197 -0.0403 -3.5878
  142Eth     Oh 4526   1.034   3.167   1.470  0.3931 -0.5898 -0.2096
  142Eth     Co 4527   1.021   3.244   1.357 -0.4267  0.3800  0.6732
  142Eth    Hco 4528   0.952   3.324   1.383 -2.6699 -0.3806 -2.6810
  142Eth    Hco 4529   0.979   3.202   1.266  2.0070 -0.4109 -0.1159
  142Eth     Ch 4530   1.157   3.313   1.337  0.0023  0.1036 -0.1055
  142Eth    Hcc 4531   1.193   3.369   1.424  0.4120  0.2285 -0.3542
  142Eth    Hcc 4532   1.156   3.381   1.252  0.6396  0.5321  0.2272
  142Eth    Hcc 4533   1.232   3.243   1.302 -0.2807 -0.9687  1.3669
  143Eth     Ho 4534   3.631   3.719   1.850 -1.0005 -1.1459  0.1956
  143Eth     Oh 4535   3.711   3.670   1.838  0.1733  0.6191  0.6826
  143Eth     Co 4536   3.759   3.709   1.710  0.1792 -0.6044 -0.4673
  143Eth    Hco 4537   3.747   3.816   1.699  1.4051 -0.4251 -0.1708
  143Eth    Hco 4538   3.694   3.672   1.630 -1.3266 -3.0146  1.7980
  143Eth     Ch 4539   3.910   3.682   1.698 -0.6158  0.0074  0.6650
  143Eth    Hcc 4540   3.950   3.728   1.608 -3.1866  1.8491  0.4192
  143Eth    Hcc 4541   3.923   3.575   1.684  0.5175  0.1619  0.4760
  143Eth    Hcc 4542   3.967   3.712   1.786  0.8449  0.1300 -0.3025
  144Eth     Ho 4543   3.865   2.857   3.021  0.3809  0.4280 -0.4622
  144Eth     Oh 4544   3.932   2.829   2.962 -0.2047 -0.6001 -0.6613
  144Eth     Co 4545   3.933   2.691   2.966 -0.2250  0.2055 -0.4281
  144Eth    Hco 4546   3.944   2.652   2.865  2.0901 -3.7154  1.1882
  144Eth    Hco 4547   3.847   2.648   3.017  0.7060 -1.7755 -0.4782
  144Eth     Ch 4548   4.055   2.652   3.042 -0.0976 -0.8001  0.8861
  144Eth    Hcc 4549   4.133   2.712   2.993 -0.5128  0.2318  1.4736
  144Eth    Hcc 4550   4.064   2.544   3.036 -1.1948 -0.7900 -1.3022
  144Eth    Hcc 4551   4.041   2.682   3.146  2.1207  0.0080  0.9823
  145Eth     Ho 4552   3.517   4.073   6.409 -0.6027  1.1387  0.8816
  145Eth     Oh 4553   3.584   4.123   6.366 -0.5787  0.6319  0.3242
  145Eth     Co 4554   3.517   4.225   6.293  0.4445  0.0566  0.2512
  145Eth    Hco 4555   3.448   4.272   6.364  0.7431 -0.1763  0.6967
  145Eth    Hco 4556   3.455   4.192   6.210  1.4435 -1.3994  0.0790
  145Eth     Ch 4557   3.609   4.323   6.226  0.0231  0.4531 -0.4526
  145Eth    Hcc 4558   3.689   4.279   6.165 -1.5376 -0.0468 -2.1791
  145Eth    Hcc 4559   3.654   4.376   6.309 -0.4904 -1.2795  0.9570
  145Eth    Hcc 4560   3.556   4.402   6.173 -0.8300  1.1503  1.4079
  146Eth     Ho 4561   0.936   2.767   4.573  1.6832 -1.5518  0.2002
  146Eth     Oh 4562   0.976   2.793   4.655  0.1994  0.6409  0.2550
  146Eth     Co 4563   1.098   2.847   4.613 -0.4639  0.7708 -0.2645
  146Eth    Hco 4564   1.088   2.913   4.526  1.6495  1.1618 -0.2249
  146Eth    Hco 4565   1.147   2.757   4.575 -0.5945  0.4656  0.2897
  146Eth     Ch 4566   1.157   2.913   4.740 -0.6074 -0.4290 -0.6692
  146Eth    Hcc 4567   1.142   2.848   4.827 -2.9486 -1.6802 -1.9650
  146Eth    Hcc 4568   1.098   3.002   4.758  0.5048 -0.4150  3.3859
  146Eth    Hcc 4569   1.263   2.938   4.732 -0.7816  0.1496 -1.0947
  147Eth     Ho 4570   2.345   2.366   1.201 -0.5468  2.2173  1.0553
  147Eth     Oh 4571   2.347   2.293   1.261  0.6907  0.7286 -0.7359
  147Eth     Co 4572   2.217   2.234   1.261 -0.1242 -0.3157 -0.1640
  147Eth    Hco 4573   2.190   2.175   1.174 -0.1886 -1.5849  0.7123
  147Eth    Hco 4574   2.144   2.315   1.267 -1.5331 -1.6121  0.3924
  147Eth     Ch 4575   2.227   2.131   1.377  0.7910  0.3631  0.6016
  147Eth    Hcc 4576   2.268   2.178   1.467 -0.3643 -0.7999  1.7443
  147Eth    Hcc 4577   2.293   2.047   1.356 -0.7610 -0.5424 -0.7385
  147Eth    Hcc 4578   2.128   2.098   1.408  0.4750 -1.3227 -2.0455
  148Eth     Ho 4579   2.671   1.196   5.620  0.8752 -2.0435 -0.8833
  148Eth     Oh 4580   2.676   1.265   5.557 -0.6336 -0.5382  0.5959
  148Eth     Co 4581   2.817   1.263   5.500  0.0332 -0.6595 -0.2627
  148Eth    Hco 4582   2.868   1.171   5.531  0.2829 -0.4796 -0.1392
  148Eth    Hco 4583   2.875   1.340   5.551  2.8164 -1.2250 -2.4057
  148Eth     Ch 4584   2.794   1.300   5.356  0.2265 -0.0460 -0.1293
  148Eth    Hcc 4585   2.728   1.225   5.312 -0.3918  0.9136 -0.8606
  148Eth    Hcc 4586   2.886   1.313   5.299 -0.3876 -0.3788 -1.2145
  148Eth    Hcc 4587   2.750   1.399   5.361 -1.5658 -0.8485  0.4002
  149Eth     Ho 4588   2.480   0.790   1.448 -2.4340  1.0593 -0.9773
  149Eth     Oh 4589   2.525   0.872   1.436  0.4362 -0.2385  0.3618
  149Eth     Co 4590   2.603   0.870   1.325 -1.1535 -0.3885  0.0814
  149Eth    Hco 4591   2.536   0.888   1.241  0.1504  1.7056 -0.5506
  149Eth    Hco 4592   2.643   0.769   1.314 -1.9613 -0.6489 -0.5758
  149Eth     Ch 4593   2.727   0.965   1.337 -0.1235 -0.1325 -0.1814
  149Eth    Hcc 4594   2.811   0.911   1.382  0.8579  0.6873 -1.0102
  149Eth    Hcc 4595   2.701   1.054   1.393 -1.4432  0.1012 -1.1412
  149Eth    Hcc 4596   2.746   0.991   1.233 -2.3374  1.8676 -0.1269
  150Eth     Ho 4597   2.937   3.673   1.372  0.0712 -1.0303 -2.2691
  150Eth     Oh 4598   2.910   3.760   1.349 -0.2918 -0.5018  0.0446
  150Eth     Co 4599   3.027   3.828   1.298  0.7087 -0.1289  0.4051
  150Eth    Hco 4600   2.996   3.906   1.227  1.1823 -0.6223 -0.3510
  150Eth    Hco 4601   3.093   3.757   1.248 -0.9349 -0.9519 -0.6524
  150Eth     Ch 4602   3.108   3.888   1.415 -0.1864  0.3681  0.0620
  150Eth    Hcc 4603   3.150   3.813   1.483  0.6319  1.9544  1.3433
  150Eth    Hcc 4604   3.040   3.947   1.476  2.5856  3.7187  0.0378
  150Eth    Hcc 4605   3.184   3.958   1.382  0.8965 -0.3428  0.9993
  151Eth     Ho 4606   3.976   1.446   1.406  0.2215 -1.7451  0.5241
  151Eth     Oh 4607   3.906   1.460   1.467 -0.1233 -0.7119 -0.1046
  151Eth     Co 4608   3.800   1.538   1.412 -0.9033  0.2199 -0.1171
  151Eth    Hco 4609   3.825   1.608   1.333 -1.0910  3.0597  2.2708
  151Eth    Hco 4610   3.756   1.596   1.494  1.6909 -0.0190  1.5091
  151Eth     Ch 4611   3.692   1.447   1.356  0.1940 -0.5435 -0.5894
  151Eth    Hcc 4612   3.616   1.516   1.322  0.3960 -0.1655 -0.2795
  151Eth    Hcc 4613   3.651   1.382   1.434 -0.2444 -0.2152 -0.5448
  151Eth    Hcc 4614   3.735   1.408   1.264  1.0779  1.1159 -0.8887
  152Sol     OW 4615   3.379   2.841   1.952 -0.2075  0.1471  0.3768
  152Sol     HW 4616   3.394   2.935   1.942  2.3669 -0.5306 -3.1680
  152Sol     HW 4617   3.430   2.817   2.030  0.3974  1.4241  0.3876
  152Sol     MW 4618   3.385   2.847   1.958 -0.6940 -0.5598 -0.5075
  153Sol     OW 4619   2.885   0.777   2.423  0.5617 -0.3884  0.3162
  153Sol     HW 4620   2.803   0.797   2.467  1.2495 -0.5265  1.7057
  153Sol     HW 4621   2.880   0.823   2.339 -0.8583 -0.2824  0.4544
  153Sol     MW 4622   2.877   0.783   2.419  0.0571  0.6031  0.2130
  154Sol     OW 4623   1.587   0.980   2.464  0.4568 -0.4851  0.0916
  154Sol     HW 4624   1.556   0.931   2.541  0.8559  1.7311  1.7229
  154Sol     HW 4625   1.679   0.999   2.484 -0.2891  2.9574  0.6695
  154Sol     MW 4626   1.593   0.977   2.473 -0.3865  0.2150  0.8346
  155Sol     OW 4627   2.207   2.483   6.806 -0.0557 -0.1555 -0.0561
  155Sol     HW 4628   2.226   2.417   6.739 -1.3322 -0.1961 -0.3855
  155Sol     HW 4629   2.125   2.524   6.778  0.1365  0.8024  0.7389
  155Sol     MW 4630   2.201   2.481   6.798 -0.1505 -0.0088 -0.1053
  156Sol     OW 4631   0.782   0.938   3.206  0.1824  0.4122  0.4494
  156Sol     HW 4632   0.761   1.032   3.200  0.8463  0.5918  0.8875
  156Sol     HW 4633   0.807   0.914   3.117  0.0854  0.6691  0.3496
  156Sol     MW 4634   0.782   0.945   3.198  0.0899  0.1768 -0.0312
  157Sol     OW 4635   2.649   3.633   2.799  0.4932 -0.1592 -0.3196
  157Sol     HW 4636   2.666   3.710   2.854  0.0119 -0.6622  0.5444
  157Sol     HW 4637   2.715   3.637   2.731  0.6522  0.8725 -0.1149
  157Sol     MW 4638   2.656   3.641   2.798  0.3389 -0.3636  0.0811
  158Sol     OW 4639   2.083   0.822   5.769 -0.1728  0.0924 -0.2135
  158Sol     HW 4640   2.078   0.757   5.839  1.1840 -2.7886 -2.6790
  158Sol     HW 4641   2.170   0.860   5.777  0.4646 -1.1561 -1.0811
  158Sol     MW 4642   2.090   0.820   5.776 -0.2775  0.4269 -0.2566
  159Sol     OW 4643   0.656   1.309   5.256  0.4337 -0.7305 -0.1188
  159Sol     HW 4644   0.746   1.340   5.265  0.4157 -0.2174 -1.6133
  159Sol     HW 4645   0.603   1.374   5.303  0.6314  0.1732 -1.1357
  159Sol     MW 4646   0.659   1.318   5.261 -0.9462 -0.3058 -0.3527
  160Sol     OW 4647   3.201   1.443   3.419 -0.2425  0.7866  0.0704
  160Sol     HW 4648   3.195   1.453   3.514  0.1292  2.0612 -0.0309
  160Sol     HW 4649   3.294   1.423   3.403 -0.7332 -1.7627  0.1586
  160Sol     MW 4650   3.209   1.442   3.426  0.2619 -0.6315 -0.0914
  161Sol     OW 4651   3.008   3.961   2.491 -0.5113 -0.1875  0.1561
  161Sol     HW 4652   3.062   3.977   2.413 -1.1089  1.3252  0.0415
  161Sol     HW 4653   3.058   3.998   2.563 -1.2012  0.8235  0.1120
  161Sol     MW 4654   3.017   3.965   2.490 -0.1438 -0.1800 -0.4462
  162Sol     OW 4655   1.681   0.981   2.831  0.5412  0.1736 -0.9577
  162Sol     HW 4656   1.751   0.995   2.895  0.0677 -0.4542 -0.2908
  162Sol     HW 4657   1.650   1.068   2.809  0.2295  0.3636  0.2104
  162Sol     MW 4658   1.684   0.990   2.835  0.3956  0.7402  0.1595
  163Sol     OW 4659   3.257   1.383   5.569 -0.2564 -0.7377 -0.4145
  163Sol     HW 4660   3.351   1.369   5.581 -0.1953 -0.4046 -0.5020
  163Sol     HW 4661   3.225   1.301   5.531 -0.5181 -1.9565  2.2735
  163Sol     MW 4662   3.262   1.374   5.567  0.0806  0.2543  0.3339
  164Sol     OW 4663   2.135   1.430   4.429  0.0070 -0.0219  0.3855
  164Sol     HW 4664   2.121   1.379   4.349  1.3192 -0.5840  0.4999
  164Sol     HW 4665   2.093   1.379   4.498 -0.3702  0.0241  0.1883
  164Sol     MW 4666   2.130   1.420   4.428  0.3786  0.2188 -0.3508
  165Sol     OW 4667   1.763   3.947   5.744  0.9323 -0.0668  0.1525
  165Sol     HW 4668   1.730   3.869   5.788  0.2687  0.2896  0.2817
  165Sol     HW 4669   1.697   3.968   5.678  0.9143  0.6298  0.3920
  165Sol     MW 4670   1.754   3.942   5.742  0.0274 -0.0864  0.1426
  166Sol     OW 4671   2.155   3.355   3.460  0.3526 -0.1780  0.0934
  166Sol     HW 4672   2.192   3.380   3.375  0.3343 -1.8409 -0.4173
  166Sol     HW 4673   2.067   3.324   3.440  0.0914  0.0863  0.8125
  166Sol     MW 4674   2.151   3.355   3.450  0.1684 -0.6383 -0.3621
  167Sol     OW 4675   1.236   0.773   2.939  0.1830  0.6329  0.0297
  167Sol     HW 4676   1.203   0.862   2.944 -0.8264  0.1579  1.9462
  167Sol     HW 4677   1.163   0.722   2.904  0.4890  0.4033 -0.2828
  167Sol     MW 4678   1.227   0.776   2.936 -0.4076  0.4960 -0.1598
  168Sol     OW 4679   2.990   1.714   4.122 -0.2485 -0.7731  0.6916
  168Sol     HW 4680   2.908   1.710   4.074  0.6461  1.1418 -1.0551
  168Sol     HW 4681   2.991   1.802   4.161  2.1045  0.2019 -1.4377
  168Sol     MW 4682   2.983   1.722   4.121 -0.1424  0.6070  0.3723
  169Sol     OW 4683   2.334   3.542   3.072 -0.1749  0.5173 -0.2654
  169Sol     HW 4684   2.409   3.492   3.104 -0.5964 -0.0605 -0.1730
  169Sol     HW 4685   2.323   3.514   2.981 -2.4436 -2.0668  0.7165
  169Sol     MW 4686   2.340   3.535   3.066 -0.3638 -0.4164 -0.8338
  170Sol     OW 4687   3.977   3.004   5.875  0.5639  0.4128  0.7162
  170Sol     HW 4688   4.065   3.038   5.858  0.6290  0.2637  0.7512
  170Sol     HW 4689   3.976   2.986   5.969  1.0382 -1.0962  0.4571
  170Sol     MW 4690   3.985   3.005   5.882 -0.0972  0.3991 -0.0285
  171Sol     OW 4691   1.208   4.110   3.698 -0.0982  0.2535 -0.1216
  171Sol     HW 4692   1.179   4.200   3.709 -0.1695  0.0955  1.0494
  171Sol     HW 4693   1.128   4.058   3.705 -0.3098  0.1960 -2.4763
  171Sol     MW 4694   1.198   4.113   3.699 -0.3785  0.1552  0.1744
  172Sol     OW 4695   3.743   0.217   2.976 -0.2331 -0.3719 -0.2496
  172Sol     HW 4696   3.770   0.126   2.965  0.2909 -0.3460  0.7273
  172Sol     HW 4697   3.669   0.228   2.917 -0.9332 -1.7212  0.3783
  172Sol     MW 4698   3.739   0.210   2.970  0.0910  0.4239  0.0812
  173Sol     OW 4699   2.176   1.811   5.738  0.0563  0.2236 -0.3060
  173Sol     HW 4700   2.243   1.805   5.670  0.3818 -1.1848  0.1216
  173Sol     HW 4701   2.196   1.740   5.799  0.7548  2.4522  2.1636
  173Sol     MW 4702   2.183   1.804   5.738  0.1970  0.8780  0.1784
  174Sol     OW 4703   2.919   1.854   3.054  0.1795  0.0025  0.0933
  174Sol     HW 4704   2.825   1.863   3.068  0.0769 -0.9091  0.0441
  174Sol     HW 4705   2.932   1.872   2.961  0.1568  0.9104  0.2690
  174Sol     MW 4706   2.912   1.856   3.047  0.7747 -0.3553 -0.1697
  175Sol     OW 4707   0.984   2.555   5.212  0.4047  0.4789 -0.0052
  175Sol     HW 4708   0.952   2.593   5.130 -2.1290 -1.1360  0.1632
  175Sol     HW 4709   0.949   2.614   5.280  0.6150  0.5805  0.0132
  175Sol     MW 4710   0.978   2.564   5.211 -0.1468  0.5575 -0.3120
  176Sol     OW 4711   0.328   2.736   3.804 -0.0675 -0.1896 -0.0691
  176Sol     HW 4712   0.337   2.798   3.876  1.2620  1.1469 -1.3596
  176Sol     HW 4713   0.255   2.770   3.751 -0.2880 -0.5363  0.0072
  176Sol     MW 4714   0.322   2.744   3.805  0.0450 -0.4658 -0.3045
  177Sol     OW 4715   3.987   0.610   4.164 -0.3520 -0.4058  0.5195
  177Sol     HW 4716   4.003   0.516   4.176  0.4815 -0.6898 -2.5930
  177Sol     HW 4717   3.896   0.615   4.135 -0.0421 -0.3318 -0.4254
  177Sol     MW 4718   3.980   0.602   4.163 -0.1917  0.0347  0.8174
  178Sol     OW 4719   1.573   3.841   5.176  0.1960  0.2377 -0.3136
  178Sol     HW 4720   1.644   3.810   5.120 -0.6336  2.6247 -2.8101
  178Sol     HW 4721   1.556   3.930   5.146 -2.2085  0.5679  1.8767
  178Sol     MW 4722   1.578   3.846   5.168  0.2888  0.2506 -0.0990
  179Sol     OW 4723   1.147   2.806   5.712  0.3315  0.7134  0.1866
  179Sol     HW 4724   1.075   2.787   5.772  0.7858 -1.2930  0.1249
  179Sol     HW 4725   1.152   2.902   5.710 -1.6427  0.8525  1.0040
  179Sol     MW 4726   1.141   2.813   5.717 -0.0299  0.2668 -0.1005
  180Sol     OW 4727   3.830   0.346   5.374  0.1016  0.1088 -0.3983
  180Sol     HW 4728   3.881   0.421   5.406  0.4739 -0.2691 -0.0962
  180Sol     HW 4729   3.856   0.274   5.431 -2.0345  0.3034  0.8874
  180Sol     MW 4730   3.836   0.347   5.382  0.6890 -0.5676  0.4173
  181Sol     OW 4731   3.557   1.931   3.019  0.4222 -0.3268 -0.3937
  181Sol     HW 4732   3.506   1.920   2.939  0.0492 -0.8367 -0.0868
  181Sol     HW 4733   3.611   2.008   3.002 -1.4112  1.0463 -0.2179
  181Sol     MW 4734   3.557   1.937   3.010  0.0676 -0.4387 -0.2558
  182Sol     OW 4735   0.828   3.914   5.558  0.2776  0.0580 -0.5647
  182Sol     HW 4736   0.776   3.966   5.497 -1.1552  0.3233  0.8580
  182Sol     HW 4737   0.764   3.856   5.601  1.2267  0.0007  0.8034
  182Sol     MW 4738   0.817   3.913   5.556  0.1614  0.2358 -0.2357
  183Sol     OW 4739   4.049   1.184   1.536 -0.7216 -0.1186  0.1756
  183Sol     HW 4740   3.976   1.228   1.578 -0.6694 -1.0288  1.2463
  183Sol     HW 4741   4.083   1.248   1.473 -0.4915  1.4567  1.8629
  183Sol     MW 4742   4.046   1.194   1.534 -0.2235 -0.6335  0.5534
  184Sol     OW 4743   1.169   3.718   1.838  0.0681  0.1516  0.2066
  184Sol     HW 4744   1.226   3.659   1.887  0.9050  1.1155  0.4311
  184Sol     HW 4745   1.117   3.661   1.782  0.8747 -0.7918  0.4035
  184Sol     MW 4746   1.170   3.708   1.838  0.4172  0.3791 -0.2615
  185Sol     OW 4747   1.209   3.612   6.863 -0.5876 -0.2468  0.0731
  185Sol     HW 4748   1.225   3.706   6.860 -0.2452 -0.3495 -2.9830
  185Sol     HW 4749   1.115   3.603   6.848 -0.7104 -0.3896  0.8924
  185Sol     MW 4750   1.202   3.619   6.862 -0.2555  0.1669  0.0314
  186Sol     OW 4751   3.856   4.013   2.075 -0.4417  0.6519 -0.1946
  186Sol     HW 4752   3.848   3.926   2.113 -1.9464  0.8337 -0.0738
  186Sol     HW 4753   3.951   4.029   2.070 -0.1116 -1.5114 -1.4280
  186Sol     MW 4754   3.864   4.007   2.078  0.4243  0.1514  0.0429
  187Sol     OW 4755   1.584   1.632   6.133 -0.4890  0.2425 -1.0086
  187Sol     HW 4756   1.562   1.584   6.213  0.3047 -0.5891 -1.2731
  187Sol     HW 4757   1.526   1.595   6.066  0.8777 -1.1592 -1.4566
  187Sol     MW 4758   1.577   1.624   6.135  0.0995 -0.8679 -0.3585
  188Sol     OW 4759   0.767   2.043   2.738  0.4273 -0.4546  0.1049
  188Sol     HW 4760   0.677   2.048   2.768 -1.0501 -0.6783 -3.9629
  188Sol     HW 4761   0.797   1.955   2.762 -0.3924 -0.3519  1.5139
  188Sol     MW 4762   0.762   2.036   2.743  0.0295  0.4549  0.6012
  189Sol     OW 4763   1.690   2.810   5.392  0.1236 -0.4023  0.4864
  189Sol     HW 4764   1.680   2.902   5.414  1.0610 -0.0953 -0.3463
  189Sol     HW 4765   1.683   2.764   5.476 -0.3344  0.4226  0.9020
  189Sol     MW 4766   1.689   2.814   5.402 -0.0469  0.0411  0.0545
  190Sol     OW 4767   0.782   2.763   2.472  0.0001  0.1834  0.4622
  190Sol     HW 4768   0.784   2.673   2.504 -0.2377 -0.0539 -0.1785
  190Sol     HW 4769   0.736   2.812   2.540  1.9732  0.2394  1.8198
  190Sol     MW 4770   0.778   2.760   2.481  0.1027  0.6257 -0.0234
  191Sol     OW 4771   1.801   1.522   4.180  0.2917  0.1856  0.4290
  191Sol     HW 4772   1.848   1.575   4.245  2.1682 -0.0227 -0.7045
  191Sol     HW 4773   1.794   1.435   4.220  2.3025 -0.2028  0.0113
  191Sol     MW 4774   1.805   1.519   4.190 -0.2040 -1.2829 -0.0045
  192Sol     OW 4775   3.084   0.083   3.907 -0.1493 -0.0836 -0.3327
  192Sol     HW 4776   3.038   0.026   3.968 -0.3225  0.5493  0.1387
  192Sol     HW 4777   3.173   0.048   3.903  0.1072  0.3711  0.9576
  192Sol     MW 4778   3.088   0.075   3.912  0.0165 -0.2953  0.1950
  193Sol     OW 4779   2.784   0.205   2.914 -0.4842 -0.1522 -0.2850
  193Sol     HW 4780   2.793   0.282   2.970 -1.7644  0.8835 -1.4857
  193Sol     HW 4781   2.696   0.211   2.877 -1.3503 -3.2227  1.0958
  193Sol     MW 4782   2.777   0.212   2.916  0.2331  0.2127  0.0160
  194Sol     OW 4783   2.068   3.535   4.829  0.2896  0.1427  0.7372
  194Sol     HW 4784   1.984   3.490   4.816 -0.1922  0.7725  1.6259
  194Sol     HW 4785   2.089   3.571   4.743  0.6783 -1.7524  0.0141
  194Sol     MW 4786   2.062   3.534   4.820 -0.3073 -0.2891 -0.0996
  195Sol     OW 4787   0.169   0.543   5.990  0.2866  0.3099 -0.1904
  195Sol     HW 4788   0.249   0.498   5.963 -0.1936  0.0475 -1.2310
  195Sol     HW 4789   0.194   0.594   6.067  1.3261 -0.1669 -0.2077
  195Sol     MW 4790   0.178   0.544   5.994 -0.1023 -0.7551  0.0916
  196Sol     OW 4791   3.889   1.513   4.131  0.0662 -0.2210  0.0794
  196Sol     HW 4792   3.813   1.553   4.090  0.0633  0.0594  0.3485
  196Sol     HW 4793   3.963   1.539   4.076  0.0554  0.1036  0.2153
  196Sol     MW 4794   3.889   1.519   4.123 -0.2020  0.6262 -0.5146
  197Sol     OW 4795   0.392   1.684   2.532  0.2105  0.6427  0.4942
  197Sol     HW 4796   0.346   1.603   2.507  0.4716  0.4542  0.6238
  197Sol     HW 4797   0.452   1.657   2.601  1.4995  0.6077 -0.6192
  197Sol     MW 4798   0.393   1.674   2.536  0.2450  0.4508 -0.8430
  198Sol     OW 4799   2.401   1.455   6.701  0.3001  0.3727 -0.3197
  198Sol     HW 4800   2.375   1.519   6.634 -0.0150 -0.4058 -0.9483
  198Sol     HW 4801   2.321   1.438   6.750  0.2412 -0.0290 -0.5598
  198Sol     MW 4802   2.392   1.460   6.699 -0.3387  0.0676 -0.3435
  199Sol     OW 4803   1.758   1.593   2.997  0.1189 -0.9320  0.0570
  199Sol     HW 4804   1.838   1.627   3.035 -1.4604  1.7554  1.1348
  199Sol     HW 4805   1.764   1.616   2.904  0.5485 -0.6080  0.1630
  199Sol     MW 4806   1.765   1.598   2.992  0.7224  0.5201 -0.0892
  200Sol     OW 4807   1.229   1.831   1.949 -0.3268 -0.0674  0.1335
  200Sol     HW 4808   1.191   1.744   1.937 -0.0015 -0.2807  0.6228
  200Sol     HW 4809   1.260   1.856   1.862  0.5148 -0.8877  0.1880
  200Sol     MW 4810   1.228   1.826   1.940  0.5205  0.0233 -0.2175
  201Sol     OW 4811   3.125   1.665   2.520  0.4756 -0.3953 -0.0402
  201Sol     HW 4812   3.130   1.712   2.437  0.1789  0.1992  0.2671
  201Sol     HW 4813   3.112   1.574   2.496 -2.2112  0.0945 -0.6498
  201Sol     MW 4814   3.124   1.661   2.511 -0.4907  0.5204 -0.4467
  202Sol     OW 4815   0.505   0.481   4.202 -0.2065  0.1569 -0.5632
  202Sol     HW 4816   0.519   0.574   4.219  3.1400 -0.1898 -0.9358
  202Sol     HW 4817   0.492   0.442   4.288  0.0950  0.7538 -0.2432
  202Sol     MW 4818   0.505   0.486   4.211 -0.2855 -0.4920 -0.1738
  203Sol     OW 4819   0.619   2.015   3.884  0.7818 -0.0437 -0.3134
  203Sol     HW 4820   0.674   2.055   3.951  1.9311 -0.4701 -0.9757
  203Sol     HW 4821   0.673   1.945   3.848  0.0877  0.0067 -1.4847
  203Sol     MW 4822   0.629   2.013   3.887  0.4727 -0.0461 -0.0623
  204Sol     OW 4823   0.104   2.015   3.774 -0.0561  0.2143 -0.0459
  204Sol     HW 4824   0.052   2.083   3.730 -0.7084  0.5353  1.2201
  204Sol     HW 4825   0.045   1.940   3.779 -0.1676  0.3544  0.7639
  204Sol     MW 4826   0.094   2.014   3.770 -0.4014 -0.6888 -0.5413
  205Sol     OW 4827   3.798   0.798   4.895  0.4979 -0.5308  0.2927
  205Sol     HW 4828   3.828   0.712   4.925 -1.0535 -0.6277  1.6807
  205Sol     HW 4829   3.780   0.846   4.976  0.6040  0.8309 -0.4852
  205Sol     MW 4830   3.799   0.794   4.905  0.0436  0.3528 -0.2254
  206Sol     OW 4831   3.696   0.739   2.550  0.1439  0.0924  0.7770
  206Sol     HW 4832   3.758   0.697   2.610  1.9143  2.1203  0.3914
  206Sol     HW 4833   3.711   0.696   2.466 -0.7214 -1.1306  1.2313
  206Sol     MW 4834   3.702   0.731   2.548  0.0005  0.7369 -0.3478
  207Sol     OW 4835   3.787   0.941   3.244 -0.1415 -0.0638  0.8062
  207Sol     HW 4836   3.838   0.904   3.316 -0.3247  0.9188  1.4503
  207Sol     HW 4837   3.834   0.914   3.165 -1.5128 -3.6253  1.1046
  207Sol     MW 4838   3.795   0.935   3.243 -0.5155  0.1590  0.1513
  208Sol     OW 4839   0.521   0.042   4.804 -0.3796 -0.0318 -0.2695
  208Sol     HW 4840   0.460   0.070   4.736 -0.4521  1.3249  0.3364
  208Sol     HW 4841   0.536  -0.051   4.786 -2.2679 -0.2761 -0.6975
  208Sol     MW 4842   0.517   0.036   4.797  0.0724 -0.2881 -0.1515
  209Sol     OW 4843   1.875   3.185   3.510  0.0830 -0.1215 -0.0725
  209Sol     HW 4844   1.925   3.191   3.591 -1.2122  0.7737  0.6687
  209Sol     HW 4845   1.855   3.275   3.487  1.5804 -0.2725 -2.1367
  209Sol     MW 4846   1.878   3.194   3.515 -0.2273 -0.3769 -0.2131
  210Sol     OW 4847   3.139   3.871   6.727  0.3242 -0.1249  0.4273
  210Sol     HW 4848   3.177   3.846   6.812  1.9511  0.6458 -0.0524
  210Sol     HW 4849   3.100   3.791   6.694  0.8047 -0.7484  1.3279
  210Sol     MW 4850   3.139   3.862   6.732 -0.1760  0.7817  0.3584
  211Sol     OW 4851   2.224   2.604   5.211 -0.1996 -0.0507 -0.2377
  211Sol     HW 4852   2.130   2.592   5.218 -0.2408  0.4131  0.0452
  211Sol     HW 4853   2.261   2.517   5.223 -0.4967  0.0401  1.3878
  211Sol     MW 4854   2.219   2.595   5.213  0.7772 -0.9269 -0.6898
  212Sol     OW 4855   2.126   1.050   5.293 -0.3049 -0.3704 -0.3612
  212Sol     HW 4856   2.053   1.031   5.352 -1.3928  0.0211 -1.5456
  212Sol     HW 4857   2.203   1.049   5.349 -1.4188  0.9388  1.2419
  212Sol     MW 4858   2.126   1.048   5.303 -0.0912  0.2344 -0.0087
  213Sol     OW 4859   3.982   0.068   6.021  0.3306 -0.0706  0.5440
  213Sol     HW 4860   3.910   0.031   5.970  0.4107  0.3482  0.1291
  213Sol     HW 4861   3.947   0.151   6.054  1.4432  1.2894 -1.6464
  213Sol     MW 4862   3.972   0.072   6.020 -0.5429  0.6359  0.0457
  214Sol     OW 4863   0.906   2.294   6.238 -0.3277  0.1481 -0.7158
  214Sol     HW 4864   0.967   2.337   6.178  1.2873 -1.1544 -0.0469
  214Sol     HW 4865   0.878   2.215   6.190 -1.1422  0.5183 -0.8449
  214Sol     MW 4866   0.909   2.291   6.228 -0.2361  0.0572  0.1747
  215Sol     OW 4867   0.073   4.105   2.719  0.2334 -0.0581 -0.2551
  215Sol     HW 4868   0.051   4.105   2.812  0.7213  0.8522 -0.1298
  215Sol     HW 4869   0.019   4.174   2.681  1.6892  1.1426 -0.2173
  215Sol     MW 4870   0.066   4.112   2.724 -0.0178 -0.1556 -0.0475
  216Sol     OW 4871   1.611   0.168   2.446  0.4737  0.2665 -0.5256
  216Sol     HW 4872   1.551   0.237   2.471  0.2248 -0.5881  1.2932
  216Sol     HW 4873   1.696   0.211   2.439  0.1767  0.9099 -0.2106
  216Sol     MW 4874   1.613   0.178   2.447  0.0989 -0.1531  0.3993
  217Sol     OW 4875   1.001   3.778   2.049 -0.5033 -0.8128 -0.0415
  217Sol     HW 4876   1.040   3.834   2.116 -1.5481  1.0996 -1.0071
  217Sol     HW 4877   1.074   3.755   1.992  0.0117 -0.7909  0.6026
  217Sol     MW 4878   1.011   3.781   2.050 -0.0120  0.4101 -0.3878
  218Sol     OW 4879   3.542   0.133   3.319  0.3443 -0.2845  0.9028
  218Sol     HW 4880   3.620   0.080   3.305 -1.2702 -2.1533 -1.5909
  218Sol     HW 4881   3.515   0.112   3.409  1.2666 -1.6064  0.8933
  218Sol     MW 4882   3.546   0.126   3.326 -0.3421 -0.0159  0.1334
  219Sol     OW 4883   0.275   0.260   2.724 -0.5389  0.3524 -0.1151
  219Sol     HW 4884   0.354   0.293   2.768 -0.7688 -1.4761  1.7676
  219Sol     HW 4885   0.304   0.241   2.635  0.6593  1.5027 -0.0036
  219Sol     MW 4886   0.285   0.261   2.720  0.2626 -0.1965 -0.1979
  220Sol     OW 4887   0.629   0.943   4.044 -0.2969  0.2245  0.1168
  220Sol     HW 4888   0.595   0.873   4.100 -1.0573  0.8949  0.4921
  220Sol     HW 4889   0.683   0.897   3.979  2.4615 -0.3926  2.7112
  220Sol     MW 4890   0.631   0.932   4.043  0.3986  0.3871 -0.6694
  221Sol     OW 4891   2.409   2.129   4.109 -0.2823  0.5445 -0.2521
  221Sol     HW 4892   2.374   2.188   4.176 -0.0267  0.9000 -0.4267
  221Sol     HW 4893   2.363   2.046   4.123  0.3543  0.3716  0.8715
  221Sol     MW 4894   2.402   2.127   4.116 -0.8088 -0.4533  0.1196
  222Sol     OW 4895   3.137   0.236   3.355  0.2467 -0.5098 -0.4159
  222Sol     HW 4896   3.106   0.145   3.364 -3.3538  0.6285 -0.5590
  222Sol     HW 4897   3.184   0.253   3.437  1.4370 -2.6466 -0.6150
  222Sol     MW 4898   3.139   0.229   3.363 -0.7450  0.3123 -0.2499
  223Sol     OW 4899   1.168   1.990   5.858  0.0664  0.4991  0.3439
  223Sol     HW 4900   1.145   1.995   5.765  3.1928  0.1287 -0.5173
  223Sol     HW 4901   1.235   2.057   5.870  0.8590 -0.5446  1.9489
  223Sol     MW 4902   1.172   1.996   5.851  0.2215  0.5469 -0.1367
  224Sol     OW 4903   0.056   3.343   4.035 -0.4587  0.6525 -0.6960
  224Sol     HW 4904   0.066   3.419   3.979  1.3961  0.9409 -0.0035
  224Sol     HW 4905   0.082   3.269   3.980  0.0749  0.7887 -0.6279
  224Sol     MW 4906   0.059   3.343   4.025  0.1218 -0.2938  0.1828
  225Sol     OW 4907   1.559   0.037   4.098  0.2528 -0.0738 -0.0373
  225Sol     HW 4908   1.575   0.131   4.090 -0.1308  0.1107  1.1884
  225Sol     HW 4909   1.510   0.014   4.020 -0.2820  0.8963  0.0032
  225Sol     MW 4910   1.556   0.043   4.091  0.7877 -0.3150  0.3687
  226Sol     OW 4911   2.164   2.412   3.388 -0.3732  0.0986 -0.1917
  226Sol     HW 4912   2.162   2.472   3.463  1.1298  0.4507 -0.4113
  226Sol     HW 4913   2.141   2.467   3.313  1.7521  0.5954 -0.5019
  226Sol     MW 4914   2.162   2.422   3.388 -0.4227  0.1881  1.0732
  227Sol     OW 4915   2.445   3.509   6.338 -0.7548 -0.3665 -0.1810
  227Sol     HW 4916   2.424   3.472   6.424  2.1224  0.9476  1.1516
  227Sol     HW 4917   2.378   3.575   6.323 -1.3771 -0.7235  0.9692
  227Sol     MW 4918   2.437   3.511   6.344 -0.0650 -0.1729 -0.0007
  228Sol     OW 4919   0.190   3.744   3.465  0.2031  0.4667  0.3141
  228Sol     HW 4920   0.280   3.758   3.496  0.3093 -1.0205  0.7011
  228Sol     HW 4921   0.136   3.754   3.543  0.2097 -0.4917  0.4437
  228Sol     MW 4922   0.194   3.746   3.475 -1.1745  0.6904  0.6596
  229Sol     OW 4923   3.216   3.388   5.225 -0.1299  0.0171 -0.0237
  229Sol     HW 4924   3.263   3.346   5.153 -1.0546 -0.4303 -0.3778
  229Sol     HW 4925   3.284   3.417   5.285  0.5881 -0.6578 -0.5096
  229Sol     MW 4926   3.226   3.387   5.224  0.0549 -0.2573 -0.1085
  230Sol     OW 4927   1.973   1.689   3.156 -0.8225  0.0870 -0.0427
  230Sol     HW 4928   2.047   1.697   3.095 -0.1112  2.1702  1.0594
  230Sol     HW 4929   2.003   1.629   3.223 -0.1055  0.9337  0.4046
  230Sol     MW 4930   1.982   1.685   3.156  0.3376  0.5351  0.1167
  231Sol     OW 4931   2.446   1.830   2.502 -0.2557  0.2163 -0.0974
  231Sol     HW 4932   2.398   1.896   2.453 -0.7582  0.2599  0.4468
  231Sol     HW 4933   2.405   1.747   2.478 -0.3698  0.2181  0.0870
  231Sol     MW 4934   2.438   1.829   2.496  0.2024 -0.6709 -0.1359
  232Sol     OW 4935   2.186   0.124   2.345  0.7367 -0.4323 -0.1645
  232Sol     HW 4936   2.219   0.043   2.306  1.6251  0.1273 -0.5811
  232Sol     HW 4937   2.093   0.125   2.321  0.6227 -1.5185  0.1840
  232Sol     MW 4938   2.181   0.117   2.339 -0.0915  0.1324 -0.1364
  233Sol     OW 4939   3.070   2.695   3.213 -0.7464 -0.4426 -0.0242
  233Sol     HW 4940   3.086   2.788   3.228 -0.6979 -0.6402  1.1929
  233Sol     HW 4941   2.974   2.688   3.206 -0.6391  0.0458 -2.6266
  233Sol     MW 4942   3.063   2.703   3.214  0.5494  0.5069 -0.3072
  234Sol     OW 4943   0.747   2.946   6.755  0.3740 -0.3043  0.5542
  234Sol     HW 4944   0.822   2.903   6.714 -0.3642 -0.8283 -0.2511
  234Sol     HW 4945   0.715   2.881   6.818  1.0633  0.2205  1.4597
  234Sol     MW 4946   0.751   2.936   6.757 -0.4593  0.8402  0.1145
  235Sol     OW 4947   3.672   0.783   5.359 -0.1738 -0.4877  0.1594
  235Sol     HW 4948   3.628   0.863   5.329  2.4534 -0.0145 -2.7106
  235Sol     HW 4949   3.730   0.813   5.429 -2.6677 -0.7496  2.4140
  235Sol     MW 4950   3.673   0.793   5.363  0.5980 -0.3154  0.0016
  236Sol     OW 4951   0.199   1.979   6.697 -0.1084  0.0448  0.1797
  236Sol     HW 4952   0.284   2.004   6.732 -0.0925 -0.5893  0.5958
  236Sol     HW 4953   0.209   1.986   6.602  0.8125 -1.2983  0.1640
  236Sol     MW 4954   0.207   1.982   6.691  0.3813  0.4415 -0.0033
  237Sol     OW 4955   1.992   1.057   2.761 -0.1130 -0.6313 -0.0342
  237Sol     HW 4956   2.016   0.980   2.811 -1.3015 -0.3372  1.0272
  237Sol     HW 4957   1.931   1.105   2.818  1.1817  1.4780 -0.3474
  237Sol     MW 4958   1.988   1.055   2.771  0.0254 -0.1693  0.6148
  238Sol     OW 4959   0.043   3.711   2.930 -0.1768 -0.1987  1.1626
  238Sol     HW 4960  -0.037   3.732   2.978 -0.1555  1.8155  0.3812
  238Sol     HW 4961   0.114   3.738   2.988 -0.1367  1.1223  0.5296
  238Sol     MW 4962   0.042   3.716   2.939  0.0726  0.3138  0.2588
  239Sol     OW 4963   1.607   1.278   5.635  0.2686 -0.2934 -0.1001
  239Sol     HW 4964   1.703   1.285   5.630  0.2252 -0.3096 -1.0279
  239Sol     HW 4965   1.588   1.186   5.615 -0.0421  0.1000 -1.7376
  239Sol     MW 4966   1.614   1.271   5.633 -0.3403  0.0639 -0.3267
  240Sol     OW 4967   3.348   3.722   2.668  0.0236  0.5002  0.3586
  240Sol     HW 4968   3.263   3.763   2.648 -0.1118 -0.7844 -1.8473
  240Sol     HW 4969   3.326   3.631   2.688  1.0705 -0.2995 -2.0730
  240Sol     MW 4970   3.338   3.717   2.668 -0.6845  0.1140  0.4862
  241Sol     OW 4971   2.060   3.400   5.454  0.0842 -0.2122 -0.3438
  241Sol     HW 4972   2.014   3.376   5.374  0.8119  3.0582 -1.8400
  241Sol     HW 4973   2.003   3.369   5.525 -1.5698 -1.3415 -2.1135
  241Sol     MW 4974   2.051   3.395   5.453  0.3037 -0.4848 -0.2414
  242Sol     OW 4975   0.096   0.967   6.045  0.7118 -0.1671  0.2696
  242Sol     HW 4976   0.181   0.924   6.041  0.0275 -1.4789 -0.4549
  242Sol     HW 4977   0.097   1.029   5.972  0.5185 -1.1754 -0.5944
  242Sol     MW 4978   0.104   0.969   6.038  0.0840  0.2757  0.5448
  243Sol     OW 4979   1.674   1.330   6.131 -1.0101  0.0692  0.7382
  243Sol     HW 4980   1.698   1.272   6.203 -1.0640 -0.5148  0.2907
  243Sol     HW 4981   1.592   1.372   6.160 -1.5324 -0.8653  0.6240
  243Sol     MW 4982   1.669   1.329   6.140 -0.7233 -0.6509  0.4334
  244Sol     OW 4983   0.096   2.950   4.466  0.3364 -0.0027 -0.0287
  244Sol     HW 4984   0.083   2.863   4.429 -0.8447  0.2934 -0.3189
  244Sol     HW 4985   0.089   2.937   4.561 -2.2331  0.1708 -0.1808
  244Sol     MW 4986   0.095   2.941   4.471 -0.1336 -0.2697 -0.0479
  245Sol     OW 4987   0.561   2.339   3.800 -0.1421 -0.2138 -0.2592
  245Sol     HW 4988   0.649   2.330   3.835 -0.2035 -0.5443 -0.1940
  245Sol     HW 4989   0.504   2.339   3.877 -0.2146 -0.1912 -0.3124
  245Sol     MW 4990   0.563   2.338   3.810 -0.5963  0.0571  0.2047
  246Sol     OW 4991   0.721   0.137   5.825 -0.1490 -0.0761  0.0146
  246Sol     HW 4992   0.635   0.157   5.789  0.2095  1.9182  0.2032
  246Sol     HW 4993   0.781   0.152   5.752  0.1859  0.1654  0.3348
  246Sol     MW 4994   0.719   0.140   5.815  0.1876 -0.2299  0.1278
  247Sol     OW 4995   3.122   1.120   2.546  0.5377 -0.6764 -0.2563
  247Sol     HW 4996   3.215   1.138   2.536  0.4963  0.4306  1.2286
  247Sol     HW 4997   3.087   1.120   2.457  1.4425  1.7271 -0.6399
  247Sol     MW 4998   3.127   1.121   2.537 -0.2802  0.2174  0.4783
  248Sol     OW 4999   0.978   4.171   5.896 -0.3097  0.3792 -0.0542
  248Sol     HW 5000   1.057   4.177   5.842 -0.4193  0.9538 -0.1548
  248Sol     HW 5001   0.944   4.261   5.898 -0.9945  0.1165 -0.0630
  248Sol     MW 5002   0.982   4.180   5.892 -0.1848 -0.1214 -0.5950
  249Sol     OW 5003   1.607   3.439   6.536  0.5110 -0.6414  0.7580
  249Sol     HW 5004   1.589   3.463   6.627 -3.6975  1.0035 -0.3758
  249Sol     HW 5005   1.604   3.343   6.535 -4.2239 -0.6500  1.6581
  249Sol     MW 5006   1.605   3.432   6.544 -1.0844 -0.5164 -0.2309
  250Sol     OW 5007   1.133   1.031   2.986 -0.5571  0.5544 -0.2685
  250Sol     HW 5008   1.046   0.991   2.987  0.3099 -1.4505 -1.3072
  250Sol     HW 5009   1.131   1.095   3.057 -1.8207 -1.7520  1.8535
  250Sol     MW 5010   1.125   1.033   2.992 -0.4118  0.1907  0.5859
  251Sol     OW 5011   1.930   0.289   6.158  0.1406  0.3608 -0.5114
  251Sol     HW 5012   1.872   0.227   6.202  2.3340 -1.4197 -0.0106
  251Sol     HW 5013   1.945   0.358   6.223  0.3829 -0.3445  0.1912
  251Sol     MW 5014   1.926   0.290   6.168  0.2204 -0.0386 -0.0355
  252Sol     OW 5015   0.286   1.546   1.467 -0.0257 -0.7720 -0.0678
  252Sol     HW 5016   0.365   1.601   1.462  0.0793 -0.9465 -0.3009
  252Sol     HW 5017   0.221   1.602   1.511 -0.1652 -0.1817 -1.0161
  252Sol     MW 5018   0.287   1.556   1.471  0.7996 -0.2436  0.5452
  253Sol     OW 5019   0.487   0.312   5.483  0.1303  0.9775 -0.1208
  253Sol     HW 5020   0.393   0.318   5.470 -0.1057 -0.8737  0.6208
  253Sol     HW 5021   0.521   0.285   5.398 -0.3989 -1.7950  0.5184
  253Sol     MW 5022   0.482   0.310   5.474 -0.0574 -0.1874 -0.0292
  254Sol     OW 5023   2.712   2.606   5.706 -0.2266  0.6436 -0.4733
  254Sol     HW 5024   2.760   2.612   5.624  0.5466  0.0571 -0.0722
  254Sol     HW 5025   2.778   2.621   5.774 -0.4948 -0.7389  0.1129
  254Sol     MW 5026   2.722   2.608   5.705 -0.1833  0.6923  0.1851
  255Sol     OW 5027   0.161   4.143   4.000  0.3868 -0.5859  0.1234
  255Sol     HW 5028   0.172   4.209   4.068 -0.7352  1.0315 -1.2045
  255Sol     HW 5029   0.118   4.070   4.044 -1.7884  1.0705  0.8280
  255Sol     MW 5030   0.158   4.142   4.010 -0.1635  0.0281  0.3242
  256Sol     OW 5031   2.640   0.819   3.653  0.0384 -0.1487 -0.2168
  256Sol     HW 5032   2.564   0.819   3.711  1.2610 -0.9881  1.4481
  256Sol     HW 5033   2.657   0.727   3.634  0.6913  0.0177 -0.4714
  256Sol     MW 5034   2.635   0.811   3.657 -0.1834 -0.5253 -0.0273
  257Sol     OW 5035   4.050   2.115   1.429 -0.2406 -0.1900 -0.1665
  257Sol     HW 5036   4.108   2.176   1.473 -1.9345  1.8703 -0.7275
  257Sol     HW 5037   4.072   2.123   1.336 -1.3602  0.5491 -0.3745
  257Sol     MW 5038   4.057   2.121   1.425  0.0481 -0.0367  0.1838
  258Sol     OW 5039   2.154   4.161   3.861 -0.7699  0.3586  0.1445
  258Sol     HW 5040   2.085   4.123   3.806 -0.5416  0.0153  0.0939
  258Sol     HW 5041   2.152   4.108   3.941 -0.2028 -0.0013 -0.0755
  258Sol     MW 5042   2.148   4.153   3.863 -0.6817  0.1253  0.2510
  259Sol     OW 5043   1.553   1.723   3.316  0.8222  1.4326  0.7074
  259Sol     HW 5044   1.619   1.791   3.300 -0.2739  2.4700  0.5185
  259Sol     HW 5045   1.518   1.701   3.230 -0.3683  2.2218  0.9679
  259Sol     MW 5046   1.556   1.727   3.307  0.0965  0.8686 -0.4092
  260Sol     OW 5047   2.668   1.361   3.307 -0.0323  0.1389 -0.1306
  260Sol     HW 5048   2.698   1.450   3.324 -0.0581  0.2277 -0.5273
  260Sol     HW 5049   2.645   1.361   3.214  0.6870 -0.4791 -0.3231
  260Sol     MW 5050   2.669   1.369   3.300 -0.0282 -0.1602  0.5010
  261Sol     OW 5051   4.000   3.596   6.096 -0.3279  0.0693  0.1176
  261Sol     HW 5052   4.040   3.667   6.045 -2.3101  0.8596 -0.3774
  261Sol     HW 5053   3.963   3.537   6.030 -0.3482 -0.4282  0.5737
  261Sol     MW 5054   4.000   3.597   6.086 -0.1503 -0.1737  0.2226
  262Sol     OW 5055   0.144   3.192   4.370  0.4842  1.0061 -0.4019
  262Sol     HW 5056   0.226   3.172   4.325  2.0336  2.3528  1.7180
  262Sol     HW 5057   0.116   3.109   4.407  0.5140  0.3992 -1.7157
  262Sol     MW 5058   0.149   3.183   4.369 -0.2305 -0.4383 -0.8461
  263Sol     OW 5059   2.294   3.774   3.188  0.5141  0.1062 -0.2630
  263Sol     HW 5060   2.305   3.687   3.151  2.4660  0.0557  0.3995
  263Sol     HW 5061   2.322   3.765   3.279 -3.4231  0.4168  1.0908
  263Sol     MW 5062   2.297   3.766   3.193 -0.2886  0.2048  0.2926
  264Sol     OW 5063   3.750   3.952   4.618 -0.1592  0.5395 -0.4217
  264Sol     HW 5064   3.710   4.038   4.624 -1.8634 -0.2802  0.2370
  264Sol     HW 5065   3.684   3.897   4.577  0.1732 -0.8986  0.9003
  264Sol     MW 5066   3.741   3.954   4.615 -0.7714  0.3542  0.6974
  265Sol     OW 5067   1.930   0.871   6.410 -0.1119  0.2366 -0.3922
  265Sol     HW 5068   1.887   0.792   6.441 -0.4666  0.5473 -0.0908
  265Sol     HW 5069   1.897   0.883   6.321 -0.4981  0.3602 -0.2353
  265Sol     MW 5070   1.923   0.865   6.405  0.1460 -0.1390 -0.2526
  266Sol     OW 5071   1.177   3.192   4.564  0.0620 -0.1128 -0.6706
  266Sol     HW 5072   1.114   3.264   4.554 -2.8391 -2.2301  1.5640
  266Sol     HW 5073   1.148   3.126   4.501  1.1661 -0.3801 -0.9072
  266Sol     MW 5074   1.169   3.193   4.558  0.7203 -0.1884  0.9048
  267Sol     OW 5075   3.481   3.539   3.184 -0.3448  0.5176 -0.6317
  267Sol     HW 5076   3.403   3.514   3.234  0.4002  1.0266  0.8167
  267Sol     HW 5077   3.490   3.471   3.117 -2.7290  1.0959 -1.6143
  267Sol     MW 5078   3.475   3.531   3.182 -0.0916  0.1395 -0.4873
  268Sol     OW 5079   2.346   2.110   2.124  0.0111  0.1097  0.1122
  268Sol     HW 5080   2.331   2.066   2.208  1.1180  1.0077  0.7935
  268Sol     HW 5081   2.400   2.049   2.074  0.0059 -0.0871  0.3480
  268Sol     MW 5082   2.349   2.101   2.127  0.1957 -0.1514  0.9244
  269Sol     OW 5083   4.017   2.721   5.282 -0.3626  0.4710  0.2759
  269Sol     HW 5084   4.044   2.688   5.196  0.0154  0.5038  0.3785
  269Sol     HW 5085   3.945   2.781   5.264 -0.1565  0.6213 -0.0344
  269Sol     MW 5086   4.013   2.723   5.273 -0.4932  0.0187  0.3335
  270Sol     OW 5087   2.808   0.044   3.628  0.3323 -0.2277 -0.0293
  270Sol     HW 5088   2.894   0.063   3.667  0.1270  0.2034  0.2135
  270Sol     HW 5089   2.753   0.022   3.703  0.3165 -0.8291 -0.2176
  270Sol     MW 5090   2.811   0.044   3.638  0.6871 -0.0341  0.1594
  271Sol     OW 5091   1.533   1.797   5.701  0.2964 -0.1530 -0.3030
  271Sol     HW 5092   1.582   1.775   5.780 -0.6458 -0.0393  0.3319
  271Sol     HW 5093   1.559   1.731   5.637 -0.5248 -1.5463  0.7690
  271Sol     MW 5094   1.539   1.789   5.703 -0.5436 -0.2534  0.1034
  272Sol     OW 5095   3.979   2.499   3.725 -0.4537 -0.3507  0.4560
  272Sol     HW 5096   3.907   2.436   3.730 -0.2337 -0.6930 -0.5474
  272Sol     HW 5097   3.946   2.568   3.666  0.6425 -1.3390 -1.3457
  272Sol     MW 5098   3.969   2.500   3.720 -0.2493 -0.4256  0.7565
  273Sol     OW 5099   0.049   2.590   5.044 -0.7764  0.1760  0.1272
  273Sol     HW 5100   0.134   2.582   5.002 -0.5695  1.3582  0.2839
  273Sol     HW 5101  -0.009   2.623   4.976 -0.7086  0.9869  0.4512
  273Sol     MW 5102   0.051   2.592   5.034 -0.0786  0.3519 -0.1884
  274Sol     OW 5103   0.196   0.184   5.237 -0.3073  0.2417 -0.3192
  274Sol     HW 5104   0.164   0.094   5.226 -0.5958  0.2467  0.4334
  274Sol     HW 5105   0.246   0.201   5.158 -1.7250  0.0303 -1.2844
  274Sol     MW 5106   0.197   0.177   5.229  0.3072  0.4724 -0.6026
  275Sol     OW 5107   2.055   2.316   4.615  0.0019  0.1270 -0.2012
  275Sol     HW 5108   2.045   2.411   4.606  1.9706  0.5816  2.0074
  275Sol     HW 5109   2.057   2.301   4.709 -1.3032 -2.2572 -0.5134
  275Sol     MW 5110   2.054   2.323   4.623  0.3851  0.2363  1.1019
  276Sol     OW 5111   2.479   0.520   6.255  0.0556  0.2665  0.7320
  276Sol     HW 5112   2.475   0.444   6.196  0.6715  0.9275 -0.1805
  276Sol     HW 5113   2.569   0.520   6.286 -0.4062 -0.3940  2.1264
  276Sol     MW 5114   2.487   0.513   6.252  0.4870 -0.0867 -0.2335
  277Sol     OW 5115   1.761   2.594   2.335 -0.0546  0.0785 -0.2080
  277Sol     HW 5116   1.723   2.678   2.360  0.4104  0.4728 -0.8190
  277Sol     HW 5117   1.794   2.608   2.246  1.0077 -0.4230  0.0935
  277Sol     MW 5118   1.761   2.603   2.329  0.0157 -0.3851  0.5490
  278Sol     OW 5119   0.556   1.151   2.330  0.0210  0.9005 -0.1315
  278Sol     HW 5120   0.489   1.149   2.398  0.0735  0.1638 -0.0971
  278Sol     HW 5121   0.610   1.074   2.347 -0.0032  0.6732 -1.0362
  278Sol     MW 5122   0.555   1.144   2.338  0.6932  0.6873  0.5162
  279Sol     OW 5123   0.716   2.092   3.128  0.2320  0.4503 -0.3485
  279Sol     HW 5124   0.736   2.009   3.170 -1.4333  0.6777  0.9376
  279Sol     HW 5125   0.776   2.097   3.054  0.8190 -1.5683 -0.0210
  279Sol     MW 5126   0.723   2.085   3.125  0.3623  0.7178  0.1915
  280Sol     OW 5127   1.208   3.459   4.310 -0.1378 -0.0163  0.2951
  280Sol     HW 5128   1.286   3.500   4.348 -1.1127  1.9109  0.3155
  280Sol     HW 5129   1.139   3.474   4.375 -0.6228 -1.3136  0.0844
  280Sol     MW 5130   1.209   3.464   4.319 -0.5503  0.5910 -0.5788
  281Sol     OW 5131   0.704   1.853   5.189  0.3331 -0.4003  0.2111
  281Sol     HW 5132   0.609   1.850   5.204  0.3625 -2.1147  0.0708
  281Sol     HW 5133   0.723   1.776   5.137  1.8542 -0.1793  0.4095
  281Sol     MW 5134   0.697   1.846   5.186 -0.5626 -0.4534 -0.3226
  282Sol     OW 5135   1.710   3.898   1.559 -0.2091 -0.0922  0.4734
  282Sol     HW 5136   1.729   3.979   1.606  1.3095 -0.5097  0.6297
  282Sol     HW 5137   1.625   3.870   1.592 -1.0394  1.7474 -0.0191
  282Sol     MW 5138   1.704   3.903   1.566 -0.2764  0.6464 -0.1526
  283Sol     OW 5139   3.965   2.709   1.889  0.1140  0.3895 -0.1135
  283Sol     HW 5140   4.028   2.640   1.910  1.4621  0.6237 -3.0631
  283Sol     HW 5141   3.892   2.694   1.948  1.2913 -2.2597  0.7607
  283Sol     MW 5142   3.964   2.702   1.896 -0.0259 -0.1120 -0.2226
  284Sol     OW 5143   1.029   0.739   5.456 -0.5754  0.1787  0.7283
  284Sol     HW 5144   1.039   0.788   5.374 -1.2036 -1.4860 -0.3638
  284Sol     HW 5145   0.936   0.745   5.476 -0.5092  0.1341  1.0429
  284Sol     MW 5146   1.022   0.744   5.450 -0.4080 -0.2711  0.3869
  285Sol     OW 5147   3.237   2.763   6.804 -0.1752 -0.1279 -0.0958
  285Sol     HW 5148   3.171   2.695   6.816 -0.9790  0.9991  2.0614
  285Sol     HW 5149   3.320   2.716   6.797 -0.5675 -1.3093  2.5943
  285Sol     MW 5150   3.239   2.753   6.804  0.1978  0.1070 -0.0873
  286Sol     OW 5151   3.716   1.763   5.648 -0.0734  0.3914  0.1920
  286Sol     HW 5152   3.764   1.846   5.644 -0.7424  0.8079  0.7225
  286Sol     HW 5153   3.699   1.750   5.741  1.9687 -1.4710  0.3557
  286Sol     MW 5154   3.719   1.770   5.656 -0.5694  0.1281 -0.4248
  287Sol     OW 5155   1.732   3.190   1.840 -0.2993  0.3611 -0.0418
  287Sol     HW 5156   1.730   3.115   1.782  4.2711  1.2117 -1.4861
  287Sol     HW 5157   1.687   3.259   1.792  1.3129  0.3615 -1.6044
  287Sol     MW 5158   1.728   3.190   1.831  0.3657  0.1417 -1.1169
  288Sol     OW 5159   2.551   3.209   1.825  0.1916  0.3977 -0.2776
  288Sol     HW 5160   2.490   3.252   1.884  0.1628  0.7188 -0.5394
  288Sol     HW 5161   2.625   3.184   1.880 -0.2628 -0.1683  0.0767
  288Sol     MW 5162   2.553   3.211   1.835  0.3473  0.3817 -0.0579
  289Sol     OW 5163   2.481   3.067   4.247 -0.4858  0.6554  0.4455
  289Sol     HW 5164   2.449   2.979   4.261  0.4247 -0.4215 -3.4330
  289Sol     HW 5165   2.404   3.117   4.218 -0.7455  0.8244  1.4162
  289Sol     MW 5166   2.472   3.064   4.245 -0.1578  0.1471  0.2205
  290Sol     OW 5167   0.837   3.116   3.118 -0.2156  0.2589  0.2691
  290Sol     HW 5168   0.796   3.042   3.163  0.1583  0.0928  0.3301
  290Sol     HW 5169   0.812   3.192   3.170 -1.0750  0.2446 -0.1106
  290Sol     MW 5170   0.831   3.116   3.126 -0.5836  0.3158  0.2316
  291Sol     OW 5171   2.937   2.022   3.374 -0.3577  0.1294 -0.4531
  291Sol     HW 5172   3.024   1.985   3.363 -0.4161 -0.1738  0.0729
  291Sol     HW 5173   2.908   1.990   3.459 -1.3670 -0.5678 -1.0457
  291Sol     MW 5174   2.942   2.016   3.380  0.4053 -0.2447 -0.0986
  292Sol     OW 5175   0.393   3.598   3.109  0.0578 -0.5243  0.1267
  292Sol     HW 5176   0.348   3.517   3.133  0.1265 -0.2452  1.2000
  292Sol     HW 5177   0.323   3.663   3.102  0.0295 -0.6190 -0.5096
  292Sol     MW 5178   0.383   3.596   3.110 -0.6131  0.2159 -0.1207
  293Sol     OW 5179   1.514   0.809   6.243  0.3700  0.1133 -0.0917
  293Sol     HW 5180   1.496   0.861   6.165  0.2349  0.9972  0.5180
  293Sol     HW 5181   1.548   0.726   6.209  2.3682  1.2796 -1.0447
  293Sol     MW 5182   1.515   0.806   6.233 -0.3535 -0.2825  0.5913
  294Sol     OW 5183   0.848   1.894   3.310 -0.9164  0.3321  0.2664
  294Sol     HW 5184   0.814   1.856   3.390 -2.4523  0.3889 -0.3422
  294Sol     HW 5185   0.931   1.848   3.294 -0.6070  0.3238  1.8567
  294Sol     MW 5186   0.853   1.887   3.316 -0.0238  0.1842  0.8028
  295Sol     OW 5187   4.002   1.789   3.784  0.2905  0.4333  0.1061
  295Sol     HW 5188   4.049   1.725   3.838 -2.7575 -1.5035  0.5828
  295Sol     HW 5189   3.929   1.818   3.839 -1.5200  0.1708 -2.0961
  295Sol     MW 5190   4.000   1.786   3.794  0.6964 -0.6048  0.2705
  296Sol     OW 5191   1.960   3.296   2.005 -0.2717 -0.5912 -0.0091
  296Sol     HW 5192   1.953   3.218   2.059  0.5761 -1.5054 -1.1907
  296Sol     HW 5193   1.879   3.296   1.953 -0.3075 -0.6324  0.0463
  296Sol     MW 5194   1.952   3.289   2.005  0.3313  0.0220  0.8455
  297Sol     OW 5195   3.018   1.974   4.230  0.2796 -0.2695 -0.1491
  297Sol     HW 5196   3.057   2.026   4.300 -1.8369  0.8185  0.2535
  297Sol     HW 5197   3.050   2.014   4.150 -0.5618  1.0913  0.1700
  297Sol     MW 5198   3.024   1.982   4.229 -0.1969 -0.2491 -0.3526
  298Sol     OW 5199   3.147   3.267   4.694 -0.1908  0.4742  0.5511
  298Sol     HW 5200   3.230   3.282   4.649  0.3863 -3.3538  0.2112
  298Sol     HW 5201   3.145   3.334   4.763  2.2242  1.8779 -0.6816
  298Sol     MW 5202   3.154   3.275   4.696 -0.0328  0.0178 -0.0339
  299Sol     OW 5203   0.959   2.039   4.712  0.2297  0.0938  0.5406
  299Sol     HW 5204   0.917   2.107   4.765  0.2175  0.0675  0.5650
  299Sol     HW 5205   0.946   1.959   4.762 -0.3238 -0.0343  0.2020
  299Sol     MW 5206   0.954   2.038   4.721  0.3255 -0.7321  0.2148
  300Sol     OW 5207   1.566   0.516   5.764 -0.1754  0.0541 -0.9767
  300Sol     HW 5208   1.613   0.477   5.837 -1.2291  0.6967  0.0524
  300Sol     HW 5209   1.633   0.530   5.697  0.5277 -1.9463 -0.7355
  300Sol     MW 5210   1.576   0.514   5.764 -0.2563 -0.3239  0.0669
  301Sol     OW 5211   2.884   4.117   5.955 -0.4463  0.0184  0.0691
  301Sol     HW 5212   2.815   4.183   5.945 -1.5855 -1.0906  0.5876
  301Sol     HW 5213   2.856   4.044   5.901 -0.0534 -0.7494  0.8910
  301Sol     MW 5214   2.876   4.117   5.949 -0.1808 -0.2364 -0.7218
  302Sol     OW 5215   2.223   0.249   6.654  0.7033  0.1713 -0.6924
  302Sol     HW 5216   2.186   0.166   6.624 -0.5511  0.6139 -0.3953
  302Sol     HW 5217   2.290   0.270   6.589  0.0571 -0.3696 -1.5425
  302Sol     MW 5218   2.226   0.243   6.646 -0.8620  0.1429 -0.6618
  303Sol     OW 5219   3.893   1.233   4.093  0.5727  0.7087  0.4974
  303Sol     HW 5220   3.884   1.193   4.007 -0.3034  0.5415  0.6673
  303Sol     HW 5221   3.877   1.326   4.078 -2.7567  0.2769  0.9826
  303Sol     MW 5222   3.891   1.238   4.084  0.1251  0.5065  0.1557
  304Sol     OW 5223   0.285   0.839   2.493  0.9355 -0.4286 -0.0063
  304Sol     HW 5224   0.238   0.903   2.439  0.8488 -0.9489 -0.5461
  304Sol     HW 5225   0.289   0.760   2.439  1.1615 -0.8386  0.6071
  304Sol     MW 5226   0.281   0.838   2.483 -0.0498 -0.0682 -0.0618
  305Sol     OW 5227   2.064   3.813   4.170  0.3255  0.7797 -0.2252
  305Sol     HW 5228   2.090   3.815   4.262  2.0225  1.2058 -0.6983
  305Sol     HW 5229   2.126   3.753   4.129 -1.0709 -0.2312 -0.9130
  305Sol     MW 5230   2.072   3.807   4.174  0.2275  0.1697 -0.4277
  306Sol     OW 5231   1.178   1.373   6.033  0.0957  0.1203 -0.1353
  306Sol     HW 5232   1.109   1.400   5.973  0.1578  2.3986  0.7695
  306Sol     HW 5233   1.254   1.427   6.009  0.3205  0.5706  1.5048
  306Sol     MW 5234   1.179   1.380   6.026 -0.5964 -0.1117 -0.1527
  307Sol     OW 5235   3.229   3.354   1.998  0.1755 -0.2148  0.2441
  307Sol     HW 5236   3.207   3.308   2.079 -0.8945  0.6284  0.4387
  307Sol     HW 5237   3.173   3.315   1.931 -0.3922  0.4609  0.3150
  307Sol     MW 5238   3.222   3.347   1.999 -0.4912 -0.3228  0.0249
  308Sol     OW 5239   0.958   0.528   5.922 -0.0446 -0.5019  0.2946
  308Sol     HW 5240   1.027   0.578   5.878  0.9081 -0.1625  2.1497
  308Sol     HW 5241   0.876   0.564   5.888  0.6657  0.5463 -0.3179
  308Sol     MW 5242   0.957   0.535   5.915 -0.1347  0.0976  0.7570
  309Sol     OW 5243   2.344   1.300   3.268  0.2872  0.7362 -0.1756
  309Sol     HW 5244   2.318   1.234   3.204 -0.9988  0.5439  0.5321
  309Sol     HW 5245   2.396   1.362   3.217 -1.0886  0.8351 -1.5167
  309Sol     MW 5246   2.346   1.299   3.257 -0.5524  0.2303 -0.2342
  310Sol     OW 5247   2.862   3.884   3.951  0.1778 -0.3499  0.4887
  310Sol     HW 5248   2.837   3.808   4.003 -0.9341  0.9408  1.8622
  310Sol     HW 5249   2.936   3.853   3.898  1.5452 -1.6182  3.0296
  310Sol     MW 5250   2.867   3.874   3.951 -0.4572  0.2362 -0.0750
  311Sol     OW 5251   0.607   2.083   2.105 -0.1410 -0.2995  0.2924
  311Sol     HW 5252   0.551   2.130   2.167 -0.3670  1.8771 -1.5038
  311Sol     HW 5253   0.658   2.023   2.159 -1.5477  0.3470  2.3812
  311Sol     MW 5254   0.607   2.082   2.115 -0.1227  0.0330 -0.2035
  312Sol     OW 5255   0.362   2.243   6.417  0.3018 -0.2863  0.0657
  312Sol     HW 5256   0.294   2.176   6.413  0.5101 -0.4180 -1.4701
  312Sol     HW 5257   0.437   2.203   6.372  0.3669  1.0490 -1.0142
  312Sol     MW 5258   0.363   2.233   6.413  0.7755  0.5164  0.4597
  313Sol     OW 5259   0.078   3.559   3.888 -0.1612  0.4089 -0.3507
  313Sol     HW 5260   0.158   3.599   3.855  0.6456  0.7613  1.9535
  313Sol     HW 5261   0.012   3.628   3.880  0.6846  1.4664  1.3695
  313Sol     MW 5262   0.079   3.569   3.884  0.3046  0.0223  0.1022
  314Sol     OW 5263   0.507   0.591   5.920 -0.0411 -0.0300 -0.6971
  314Sol     HW 5264   0.545   0.513   5.961 -0.3350  0.0742 -0.2159
  314Sol     HW 5265   0.443   0.556   5.857  2.1870 -0.2598 -2.9211
  314Sol     MW 5266   0.505   0.581   5.918  0.3459 -0.2827  0.0148
  315Sol     OW 5267   1.105   1.135   1.985  0.0531 -0.0470 -0.1798
  315Sol     HW 5268   1.052   1.079   2.042 -0.5249  1.0080  0.3271
  315Sol     HW 5269   1.179   1.161   2.040  1.4528 -2.0188 -1.0752
  315Sol     MW 5270   1.107   1.132   1.995  0.2706  0.2646 -0.3036
  316Sol     OW 5271   2.354   1.866   3.575  0.1419 -0.6753 -0.0222
  316Sol     HW 5272   2.353   1.838   3.666  0.2471  1.6409  0.7259
  316Sol     HW 5273   2.332   1.959   3.578  0.6471 -0.4445 -2.3093
  316Sol     MW 5274   2.352   1.872   3.583  0.2163 -0.1416 -0.6347
  317Sol     OW 5275   0.475   1.555   3.462 -0.0351 -1.0776 -0.4079
  317Sol     HW 5276   0.441   1.531   3.376 -2.0774  1.5324 -0.4163
  317Sol     HW 5277   0.464   1.650   3.466  0.8582 -1.0504  2.3801
  317Sol     MW 5278   0.471   1.561   3.455  0.7797  0.2675 -0.0688
  318Sol     OW 5279   3.074   3.153   6.767  0.4456 -0.0687  0.1139
  318Sol     HW 5280   3.122   3.085   6.816  0.5118 -1.2254 -1.5207
  318Sol     HW 5281   3.001   3.106   6.727  0.0233  1.0016 -0.3749
  318Sol     MW 5282   3.072   3.143   6.768  0.0939 -0.0259 -0.4855
  319Sol     OW 5283   0.236   0.968   3.427  0.4454 -0.2552 -0.1911
  319Sol     HW 5284   0.316   0.941   3.471  1.4562  1.8183 -0.7234
  319Sol     HW 5285   0.172   0.978   3.497  1.3479  0.5517  0.5133
  319Sol     MW 5286   0.237   0.966   3.437  0.2790 -0.0832  0.3206
  320Sol     OW 5287   2.942   3.101   4.114  0.0475  0.0658 -0.7367
  320Sol     HW 5288   3.017   3.042   4.106  1.0323  1.3444 -1.2031
  320Sol     HW 5289   2.883   3.058   4.175  1.2459 -0.8886 -0.2362
  320Sol     MW 5290   2.943   3.092   4.118  0.0199 -0.1270 -0.0945
  321Sol     OW 5291   2.696   4.069   3.845 -0.1785  0.0272  0.0936
  321Sol     HW 5292   2.768   4.009   3.861  0.4996  0.9928  0.6917
  321Sol     HW 5293   2.619   4.013   3.840  0.4036 -0.8605  0.9590
  321Sol     MW 5294   2.695   4.059   3.846 -0.3128 -0.2372 -0.1741
  322Sol     OW 5295   0.185   3.412   4.634  0.0324 -0.2857  1.0621
  322Sol     HW 5296   0.134   3.493   4.645 -0.2330 -0.6697  2.8292
  322Sol     HW 5297   0.152   3.374   4.552 -2.8516 -0.7086  2.3506
  322Sol     MW 5298   0.177   3.416   4.627 -0.3041 -0.2261  0.0815
  323Sol     OW 5299   0.796   0.932   1.757  0.7923 -0.7902 -0.2764
  323Sol     HW 5300   0.786   0.965   1.667  1.5320 -1.6997 -0.6917
  323Sol     HW 5301   0.756   1.000   1.811  0.0459 -0.3822 -1.3171
  323Sol     MW 5302   0.791   0.941   1.753 -0.0303 -0.1804 -0.1415
  324Sol     OW 5303   3.952   1.151   4.912 -0.7327 -0.0459  0.1481
  324Sol     HW 5304   3.930   1.232   4.959 -0.8374  0.0649 -0.0900
  324Sol     HW 5305   3.884   1.089   4.938 -1.4552  0.3505 -0.7333
  324Sol     MW 5306   3.944   1.153   4.918  0.2362  0.4748  0.1289
  325Sol     OW 5307   1.777   0.352   3.395  0.2626  0.5842  0.1639
  325Sol     HW 5308   1.754   0.417   3.462 -1.6875  1.0432 -0.9223
  325Sol     HW 5309   1.863   0.381   3.364  1.3139  0.2350  2.5897
  325Sol     MW 5310   1.783   0.361   3.398  0.3267  0.3125  0.0441
  326Sol     OW 5311   0.683   1.644   2.978  0.8510  0.0148  0.3544
  326Sol     HW 5312   0.599   1.680   3.006 -0.0384 -1.7255 -0.0164
  326Sol     HW 5313   0.732   1.720   2.945 -1.2190  0.7749 -1.0312
  326Sol     MW 5314   0.680   1.654   2.978 -0.8660 -0.0902 -0.3008
  327Sol     OW 5315   0.795   2.937   5.105  0.6362  0.6889 -0.2954
  327Sol     HW 5316   0.781   2.923   5.011 -0.0543 -0.1703 -0.0727
  327Sol     HW 5317   0.885   2.908   5.121  1.1937  2.0442 -0.9221
  327Sol     MW 5318   0.802   2.933   5.098 -0.6826 -0.3857 -0.3452
  328Sol     OW 5319   0.228   2.331   4.454 -0.1096 -0.2405 -0.2757
  328Sol     HW 5320   0.133   2.336   4.440 -0.2723 -0.0296  0.8390
  328Sol     HW 5321   0.253   2.247   4.415 -0.5766  0.1682 -1.5003
  328Sol     MW 5322   0.221   2.324   4.449 -1.0413 -0.2735  0.0486
  329Sol     OW 5323   2.424   0.709   3.253 -0.1364 -0.1887 -0.1451
  329Sol     HW 5324   2.375   0.684   3.331  1.9901 -1.7743  0.7453
  329Sol     HW 5325   2.471   0.789   3.279  0.8620 -0.9224  0.3575
  329Sol     MW 5326   2.424   0.714   3.262  0.0603 -0.1254 -0.4143
  330Sol     OW 5327   0.769   0.965   1.493  0.4851 -0.5364 -0.1460
  330Sol     HW 5328   0.786   0.890   1.436 -0.0315 -1.6326  1.1217
  330Sol     HW 5329   0.853   1.010   1.498  1.2770 -2.0362  0.5053
  330Sol     MW 5330   0.778   0.962   1.488 -0.7153 -0.5086 -0.1495
  331Sol     OW 5331   2.428   2.375   3.975  0.4996  0.7533 -0.0098
  331Sol     HW 5332   2.432   2.285   4.007 -0.7797  1.2921  1.7497
  331Sol     HW 5333   2.404   2.427   4.052 -0.5148  2.3774 -1.3862
  331Sol     MW 5334   2.426   2.372   3.985 -0.3909 -0.3397  0.0429
  332Sol     OW 5335   1.509   1.512   4.186 -0.7721 -0.7498  0.0095
  332Sol     HW 5336   1.490   1.444   4.122  0.2023 -0.2182 -0.8421
  332Sol     HW 5337   1.603   1.506   4.202 -0.2231  1.9657 -1.8845
  332Sol     MW 5338   1.516   1.506   4.182  0.0595  0.1623 -0.2893
  333Sol     OW 5339   0.663   2.664   4.097 -0.1941  0.1867  0.2070
  333Sol     HW 5340   0.650   2.758   4.108  2.4515  0.4751  1.3236
  333Sol     HW 5341   0.736   2.657   4.034  1.5495 -1.0156  2.2837
  333Sol     MW 5342   0.668   2.672   4.092  0.1806  0.1744  0.1501
  334Sol     OW 5343   2.224   3.637   4.035  0.6884  0.7590 -0.2648
  334Sol     HW 5344   2.291   3.705   4.042  1.4266 -0.0035  0.2474
  334Sol     HW 5345   2.231   3.588   4.117  0.4283 -0.1782 -0.7960
  334Sol     MW 5346   2.230   3.639   4.043 -0.1525 -0.6855  0.3308
  335Sol     OW 5347   0.039   3.667   4.644 -0.0077  0.2747 -0.3904
  335Sol     HW 5348   0.044   3.735   4.576 -0.8416 -0.5784 -1.3121
  335Sol     HW 5349   0.083   3.706   4.719  1.0874  1.1664 -1.4743
  335Sol     MW 5350   0.043   3.677   4.645 -0.3893  0.6296  0.3743
  336Sol     OW 5351   1.660   2.124   1.844  0.2595  0.8173 -0.5042
  336Sol     HW 5352   1.738   2.148   1.794  0.8484  1.4795  0.7014
  336Sol     HW 5353   1.627   2.207   1.878 -0.9222  0.5242 -0.9403
  336Sol     MW 5354   1.664   2.134   1.843  0.1286 -0.2613  0.3579
  337Sol     OW 5355   0.813   3.212   4.767 -0.3235 -0.4642 -0.0860
  337Sol     HW 5356   0.904   3.236   4.787 -0.2265  0.5791 -1.6730
  337Sol     HW 5357   0.807   3.120   4.791  1.3042 -0.6689 -0.3960
  337Sol     MW 5358   0.821   3.206   4.771  0.4951  0.0836  0.3270
  338Sol     OW 5359   3.841   0.836   5.572 -0.0308 -0.1558  0.3385
  338Sol     HW 5360   3.819   0.832   5.665  0.5210 -1.1286  0.4373
  338Sol     HW 5361   3.882   0.922   5.561 -1.3525  0.5330  0.6991
  338Sol     MW 5362   3.843   0.843   5.579 -0.1647  0.4498 -0.0498
  339Sol     OW 5363   3.587   0.853   3.921 -0.1428 -0.4824 -0.4700
  339Sol     HW 5364   3.676   0.841   3.889 -0.1673 -2.5913  0.1680
  339Sol     HW 5365   3.590   0.823   4.012 -1.2608  0.4362 -0.1153
  339Sol     MW 5366   3.595   0.849   3.927 -0.1136 -0.8248 -0.3110
  340Sol     OW 5367   3.126   2.056   4.005  0.2426 -0.1435 -0.2513
  340Sol     HW 5368   3.092   2.020   3.923 -0.2527  0.5381 -0.3483
  340Sol     HW 5369   3.204   2.105   3.979  0.7925 -0.9501 -0.1480
  340Sol     MW 5370   3.130   2.057   3.995  0.5166  0.3182  0.2445
  341Sol     OW 5371   1.030   1.013   5.344  0.3017 -0.3667  0.0664
  341Sol     HW 5372   1.036   1.107   5.360  1.3254 -0.6604  1.4749
  341Sol     HW 5373   0.943   1.001   5.304 -0.3616  0.9942  1.0569
  341Sol     MW 5374   1.023   1.021   5.342  0.1854  0.2639  0.4390
  342Sol     OW 5375   1.822   3.484   5.082 -0.3185 -0.6247 -0.2343
  342Sol     HW 5376   1.812   3.578   5.067 -0.0287 -0.4780  0.4738
  342Sol     HW 5377   1.819   3.446   4.994 -0.3150  0.0576 -0.5376
  342Sol     MW 5378   1.821   3.489   5.073  0.1538  0.1517  0.4663
  343Sol     OW 5379   2.639   1.745   2.181  0.1504  0.0423 -0.0703
  343Sol     HW 5380   2.661   1.769   2.271  2.2684  0.3620 -0.6360
  343Sol     HW 5381   2.594   1.661   2.189 -1.0570  0.8060  1.3912
  343Sol     MW 5382   2.637   1.740   2.190 -0.7985 -0.6882 -0.7601
  344Sol     OW 5383   0.370   0.963   1.769  0.0204  0.5074 -0.1737
  344Sol     HW 5384   0.317   0.886   1.751 -0.4222  1.0741 -1.3073
  344Sol     HW 5385   0.412   0.985   1.686 -0.5539  2.0168 -0.0909
  344Sol     MW 5386   0.369   0.958   1.760 -0.2650  0.4052 -0.0598
  345Sol     OW 5387   2.286   3.048   2.891  0.5014 -0.2175  0.3547
  345Sol     HW 5388   2.352   3.094   2.942  0.2787 -0.4712  0.8741
  345Sol     HW 5389   2.228   3.117   2.859  1.0524  0.0107 -0.1539
  345Sol     MW 5390   2.286   3.058   2.892 -0.2471  0.2385 -0.7912
  346Sol     OW 5391   1.191   2.945   2.000  0.1683  0.4704  0.8017
  346Sol     HW 5392   1.280   2.974   1.983 -0.4847  2.1736  0.2131
  346Sol     HW 5393   1.201   2.872   2.061  1.9319  0.8821  1.0368
  346Sol     MW 5394   1.200   2.941   2.004 -0.4919  0.5738 -0.0388
  347Sol     OW 5395   0.827   2.499   2.574 -0.8728 -0.2387  0.0867
  347Sol     HW 5396   0.848   2.426   2.516 -2.3520 -4.1325  4.2085
  347Sol     HW 5397   0.903   2.508   2.631  0.5310  3.5027 -2.1589
  347Sol     MW 5398   0.836   2.494   2.574 -0.0474  0.2076 -0.2646
  348Sol     OW 5399   3.593   4.164   4.630 -0.2479 -0.0221 -0.0262
  348Sol     HW 5400   3.504   4.132   4.615 -0.3153 -0.1483  0.6427
  348Sol     HW 5401   3.587   4.258   4.612  0.0371 -0.4149 -2.3603
  348Sol     MW 5402   3.584   4.170   4.627  0.3421  0.3158 -0.2271
  349Sol     OW 5403   2.194   4.047   4.125  0.1460  0.1700  0.1409
  349Sol     HW 5404   2.272   4.044   4.180 -0.6354 -0.9619  1.1931
  349Sol     HW 5405   2.160   3.958   4.126 -1.3567  0.7250 -0.0243
  349Sol     MW 5406   2.198   4.039   4.130  0.6398 -0.3667 -0.1767
  350Sol     OW 5407   2.067   2.341   5.399 -0.3104 -0.2061  0.0957
  350Sol     HW 5408   2.074   2.429   5.434 -0.8304  0.0221 -0.3770
  350Sol     HW 5409   2.121   2.288   5.458 -0.0529  0.4095  0.4199
  350Sol     MW 5410   2.073   2.344   5.407 -0.3452 -0.3180 -0.5303
  351Sol     OW 5411   2.411   3.563   5.938  0.2830 -0.3915 -0.3932
  351Sol     HW 5412   2.337   3.507   5.962  0.2476 -0.8569 -1.5341
  351Sol     HW 5413   2.436   3.533   5.850  0.0428  1.6352 -1.1700
  351Sol     MW 5414   2.407   3.555   5.932  0.3467 -0.6831 -0.4935
  352Sol     OW 5415   3.076   1.090   1.422 -0.1262  0.6292 -0.2996
  352Sol     HW 5416   3.004   1.139   1.461  2.0999  0.6084  4.1537
  352Sol     HW 5417   3.057   0.998   1.443  1.8351  0.7397  2.2745
  352Sol     MW 5418   3.068   1.086   1.427 -0.4968 -0.4805 -0.6722
  353Sol     OW 5419   1.649   4.062   3.770 -0.1067  0.1262 -0.9856
  353Sol     HW 5420   1.619   3.972   3.784 -1.5902  0.6399 -0.6882
  353Sol     HW 5421   1.622   4.082   3.680 -1.6334  0.9459 -0.3650
  353Sol     MW 5422   1.644   4.055   3.763 -0.0980  0.1630  0.4138
  354Sol     OW 5423   1.571   1.617   5.248  0.5009  0.1065 -0.1521
  354Sol     HW 5424   1.619   1.665   5.316 -1.9134 -0.7179  2.2188
  354Sol     HW 5425   1.511   1.680   5.210  1.7139  0.5162 -1.4594
  354Sol     MW 5426   1.570   1.627   5.251 -0.0905  0.4338 -0.0433
  355Sol     OW 5427   2.891   0.912   3.235 -0.5630 -0.3691 -0.2831
  355Sol     HW 5428   2.941   0.844   3.280  1.7887  1.3403 -0.2028
  355Sol     HW 5429   2.838   0.952   3.305 -1.2052 -1.4363 -0.1483
  355Sol     MW 5430   2.891   0.910   3.246 -0.3521 -0.4848 -0.3438
  356Sol     OW 5431   2.725   1.671   6.389 -0.4997  0.1228 -0.2503
  356Sol     HW 5432   2.794   1.714   6.338  0.0284 -0.7609 -0.2839
  356Sol     HW 5433   2.755   1.676   6.479 -0.9653  0.8039 -0.1298
  356Sol     MW 5434   2.734   1.675   6.392 -0.2857 -0.1384 -0.5061
  357Sol     OW 5435   3.530   2.779   2.165  0.3129  0.2265  0.1287
  357Sol     HW 5436   3.617   2.741   2.158 -0.7547 -2.2716 -0.2218
  357Sol     HW 5437   3.524   2.810   2.255  1.3819 -0.0534  0.2962
  357Sol     MW 5438   3.537   2.779   2.172  0.0774  0.4981  0.7181
  358Sol     OW 5439   0.398   3.454   2.589 -0.2201  0.5790 -0.2319
  358Sol     HW 5440   0.335   3.383   2.574 -1.0097  1.1669  0.3182
  358Sol     HW 5441   0.451   3.455   2.509 -1.2957  0.4901 -0.9492
  358Sol     MW 5442   0.397   3.447   2.580  0.1782 -0.6275  0.3095
  359Sol     OW 5443   3.249   2.725   1.749 -0.6388  0.7998  0.5050
  359Sol     HW 5444   3.307   2.768   1.811  0.6077  0.9292 -0.7330
  359Sol     HW 5445   3.243   2.635   1.781  0.4125  0.7346  0.5398
  359Sol     MW 5446   3.254   2.720   1.757 -0.2061  0.3422 -0.0321
  360Sol     OW 5447   2.400   2.755   4.250  0.1304 -0.4226 -0.9450
  360Sol     HW 5448   2.319   2.741   4.299  0.9031  0.1075  0.5404
  360Sol     HW 5449   2.373   2.760   4.159 -1.4975 -0.3793 -0.4743
  360Sol     MW 5450   2.391   2.754   4.246 -0.0703 -0.1311 -0.3529
  361Sol     OW 5451   2.125   1.223   6.083  0.5277 -0.0780 -0.2365
  361Sol     HW 5452   2.108   1.134   6.052  0.4463  0.1674 -0.9060
  361Sol     HW 5453   2.050   1.243   6.139 -0.3685  0.2419 -1.5435
  361Sol     MW 5454   2.116   1.216   6.086 -0.1040 -0.0314  0.3907
  362Sol     OW 5455   1.038   2.637   1.905  0.1614  0.2391 -0.0159
  362Sol     HW 5456   1.129   2.620   1.881 -0.3365 -0.6297 -1.3665
  362Sol     HW 5457   1.029   2.732   1.900  0.7952  0.2689 -0.6140
  362Sol     MW 5458   1.046   2.644   1.903 -0.0817 -0.6087  0.0970
  363Sol     OW 5459   3.033   2.775   5.249 -0.0136 -0.3872 -0.0261
  363Sol     HW 5460   3.096   2.778   5.321 -1.4609 -1.9778  1.3339
  363Sol     HW 5461   2.997   2.864   5.245  1.8667  0.3859 -0.4491
  363Sol     MW 5462   3.035   2.783   5.255  0.4495  0.4271  0.0737
  364Sol     OW 5463   0.416   3.284   3.372 -0.0128 -0.3785 -0.2633
  364Sol     HW 5464   0.376   3.201   3.397 -3.3875  1.1426 -0.3465
  364Sol     HW 5465   0.379   3.305   3.287  0.9562  1.1130 -0.3544
  364Sol     MW 5466   0.409   3.279   3.367  0.1886  0.4762 -0.2078
  365Sol     OW 5467   2.782   3.955   1.467  0.2958  0.0884 -0.0940
  365Sol     HW 5468   2.833   3.892   1.415 -1.6280  0.2233 -2.2052
  365Sol     HW 5469   2.816   4.040   1.440 -1.1892  0.1955 -1.7524
  365Sol     MW 5470   2.790   3.957   1.460  0.8565  0.6630 -0.2577
  366Sol     OW 5471   2.759   2.374   6.048  0.4638  0.6039 -0.6681
  366Sol     HW 5472   2.734   2.294   6.095  1.7559  0.1999 -0.6405
  366Sol     HW 5473   2.721   2.363   5.961  2.3952 -1.0382 -1.3459
  366Sol     MW 5474   2.754   2.365   6.044  0.0796  0.1735 -0.0508
  367Sol     OW 5475   1.171   2.393   4.252 -1.0276 -0.6188  0.3340
  367Sol     HW 5476   1.121   2.463   4.293  0.4966  0.0626  1.0846
  367Sol     HW 5477   1.249   2.384   4.307 -0.3836 -1.7201 -0.7393
  367Sol     MW 5478   1.174   2.398   4.260 -0.0476 -0.0995  0.0998
  368Sol     OW 5479   3.439   3.537   5.393 -0.2714 -0.0898  0.4298
  368Sol     HW 5480   3.459   3.623   5.431  1.6913 -0.0696 -0.6024
  368Sol     HW 5481   3.513   3.518   5.336 -1.4029 -1.8099 -0.5137
  368Sol     MW 5482   3.447   3.543   5.391 -0.2531  0.6498  0.4182
  369Sol     OW 5483   2.475   1.999   6.560  0.0985 -0.4912  0.0566
  369Sol     HW 5484   2.514   2.046   6.634  1.6588  0.5145 -1.3845
  369Sol     HW 5485   2.545   1.992   6.496 -2.1247  1.5289 -2.6891
  369Sol     MW 5486   2.485   2.002   6.561  0.2982  0.7375 -0.2213
  370Sol     OW 5487   1.495   1.817   4.861 -0.5529  0.0259 -0.3268
  370Sol     HW 5488   1.481   1.823   4.955  1.0377 -1.9240  0.0677
  370Sol     HW 5489   1.549   1.894   4.840 -2.0779  1.2384  0.0744
  370Sol     MW 5490   1.499   1.825   4.867 -0.0386  0.5231 -0.3878
  371Sol     OW 5491   2.267   3.001   3.589 -0.5930  0.2852  0.4881
  371Sol     HW 5492   2.266   3.029   3.497  0.0654  2.1355  1.0144
  371Sol     HW 5493   2.304   2.913   3.586 -3.1357 -0.7944 -1.2753
  371Sol     MW 5494   2.270   2.995   3.580  0.0791 -0.0558 -0.3029
  372Sol     OW 5495   3.334   2.986   2.645  0.1580 -0.2729  0.7329
  372Sol     HW 5496   3.401   3.053   2.662 -0.8535  0.9944 -0.2608
  372Sol     HW 5497   3.264   3.032   2.599 -0.7789 -1.9070  0.4810
  372Sol     MW 5498   3.334   2.996   2.642 -0.1048 -0.1684 -0.2819
  373Sol     OW 5499   0.011   0.964   4.002  0.1450  0.1064  0.6841
  373Sol     HW 5500  -0.067   0.962   3.947  1.3047 -0.0867 -0.9905
  373Sol     HW 5501   0.068   1.029   3.961  1.9005 -1.5540  0.4087
  373Sol     MW 5502   0.009   0.969   3.994  0.0817 -0.3196  0.0231
  374Sol     OW 5503   3.406   1.114   2.537 -0.6411 -0.2205 -0.6744
  374Sol     HW 5504   3.484   1.165   2.557 -0.7630  0.8122 -2.7231
  374Sol     HW 5505   3.423   1.028   2.576  0.2811  0.8445  1.3353
  374Sol     MW 5506   3.415   1.111   2.542  0.7480  0.1069  0.6714
  375Sol     OW 5507   2.830   0.309   3.837  0.1680 -0.1295 -0.2823
  375Sol     HW 5508   2.819   0.227   3.885 -0.4865 -0.2520 -0.6333
  375Sol     HW 5509   2.904   0.293   3.779  0.0378 -0.4728 -0.3544
  375Sol     MW 5510   2.836   0.300   3.836  0.5806  0.6266 -0.2454
  376Sol     OW 5511   0.744   0.902   6.493 -0.8163  0.4390 -0.0706
  376Sol     HW 5512   0.698   0.821   6.473 -0.8571  0.2379  0.8168
  376Sol     HW 5513   0.829   0.893   6.449 -1.4842  0.6708 -1.4217
  376Sol     MW 5514   0.748   0.894   6.488 -0.0194 -0.2769 -0.0191
  377Sol     OW 5515   2.177   1.929   2.708  0.2513 -0.2530  0.1028
  377Sol     HW 5516   2.224   2.005   2.743 -0.3456 -0.5444  1.5957
  377Sol     HW 5517   2.100   1.921   2.765 -0.8900 -0.5934 -1.4684
  377Sol     MW 5518   2.174   1.935   2.717 -0.7525 -0.1074  0.1233
  378Sol     OW 5519   3.526   0.094   1.403 -0.1104  0.0043  0.2882
  378Sol     HW 5520   3.497   0.094   1.494 -1.4070 -1.9425 -0.0880
  378Sol     HW 5521   3.565   0.007   1.391  2.0008  1.0061 -0.4358
  378Sol     MW 5522   3.527   0.086   1.410  0.2041  0.1951  0.0794
  379Sol     OW 5523   3.624   2.915   5.472  0.7372  0.4267  0.3962
  379Sol     HW 5524   3.674   2.833   5.461  1.4528  1.0144 -0.8691
  379Sol     HW 5525   3.691   2.982   5.485  0.2463  1.0995 -0.4745
  379Sol     MW 5526   3.635   2.914   5.472  0.2428  0.7396 -0.0009
  380Sol     OW 5527   3.725   2.261   2.748 -0.2673 -0.1938 -0.5026
  380Sol     HW 5528   3.813   2.230   2.729 -0.0014  1.0595 -1.4145
  380Sol     HW 5529   3.671   2.226   2.677  0.0770  1.5563 -1.6670
  380Sol     MW 5530   3.728   2.255   2.740  0.7999  0.0620  0.3737
  381Sol     OW 5531   3.478   1.814   6.685  0.1464  0.4458  0.2369
  381Sol     HW 5532   3.562   1.809   6.639 -0.3586  1.0295 -0.7557
  381Sol     HW 5533   3.480   1.739   6.745  1.9675  1.2559  1.2414
  381Sol     MW 5534   3.486   1.807   6.686 -0.5663  0.2107 -0.1583
  382Sol     OW 5535   1.158   1.061   3.482  0.2541  0.0261 -0.1766
  382Sol     HW 5536   1.076   1.015   3.500  1.4308 -1.6691  0.9868
  382Sol     HW 5537   1.215   1.038   3.555  1.0883  2.9420  0.1840
  382Sol     MW 5538   1.155   1.055   3.490 -0.1987  0.2605  0.1617
  383Sol     OW 5539   1.338   2.928   3.166  0.3402 -0.2701  0.2031
  383Sol     HW 5540   1.255   2.970   3.188 -0.3986 -1.4186 -0.3052
  383Sol     HW 5541   1.404   2.977   3.215 -0.6106  0.7968  0.4407
  383Sol     MW 5542   1.337   2.936   3.172 -0.1220 -0.1642 -0.1973
  384Sol     OW 5543   3.636   3.771   2.353  0.1591 -0.5455 -0.5002
  384Sol     HW 5544   3.630   3.864   2.377  0.2792 -0.9210  0.9719
  384Sol     HW 5545   3.554   3.753   2.308 -0.9823 -0.3794  1.4772
  384Sol     MW 5546   3.628   3.778   2.351  0.1788 -0.1780 -0.2229
  385Sol     OW 5547   2.100   0.348   2.707 -0.3303  0.0662  0.4320
  385Sol     HW 5548   2.114   0.261   2.669 -0.6475  0.2760 -0.1795
  385Sol     HW 5549   2.188   0.382   2.722 -0.2002 -0.0728 -0.0029
  385Sol     MW 5550   2.109   0.343   2.705 -0.0995  0.3255 -0.2311
  386Sol     OW 5551   1.208   3.369   6.505  0.1689  0.2047  0.1303
  386Sol     HW 5552   1.257   3.451   6.497  1.0378 -0.2556  0.5561
  386Sol     HW 5553   1.273   3.306   6.535 -0.8051 -0.3241  1.1540
  386Sol     MW 5554   1.218   3.371   6.507  1.0408 -0.4239  0.7709
  387Sol     OW 5555   2.483   1.512   2.228 -0.0412 -0.2845  0.1732
  387Sol     HW 5556   2.542   1.463   2.286  0.9226  0.3000 -0.3087
  387Sol     HW 5557   2.464   1.451   2.157  0.2729 -0.3439  0.1409
  387Sol     MW 5558   2.487   1.502   2.227  0.1907 -0.6996  0.6105
  388Sol     OW 5559   3.965   3.223   2.427 -0.4837 -0.0849  0.3476
  388Sol     HW 5560   3.895   3.161   2.405 -1.7597  1.5312 -0.2257
  388Sol     HW 5561   3.937   3.306   2.388  1.8453  0.5547 -0.0370
  388Sol     MW 5562   3.956   3.225   2.421 -0.9682  0.0771  0.0581
  389Sol     OW 5563   3.540   0.839   5.620 -0.2759 -0.1162  0.4534
  389Sol     HW 5564   3.578   0.826   5.707  0.7495  0.3233  0.0772
  389Sol     HW 5565   3.562   0.760   5.571  2.1582  1.0596 -0.4636
  389Sol     MW 5566   3.545   0.831   5.623 -0.4866  0.4948  0.4931
  390Sol     OW 5567   2.095   0.839   4.438 -0.2851 -0.2635 -0.1202
  390Sol     HW 5568   2.135   0.841   4.351  1.5832  3.5568  0.7761
  390Sol     HW 5569   2.001   0.842   4.420  0.0965  2.3975 -2.0310
  390Sol     MW 5570   2.090   0.839   4.428  0.2635 -0.3072  0.0185
  391Sol     OW 5571   2.633   1.928   6.335 -0.7950  0.3969 -0.3658
  391Sol     HW 5572   2.662   1.849   6.380  0.5292  0.3823 -1.1960
  391Sol     HW 5573   2.582   1.896   6.260  0.1107  0.2994 -0.9517
  391Sol     MW 5574   2.631   1.918   6.332 -0.7381 -0.4777  0.0289
  392Sol     OW 5575   2.341   3.174   5.007  0.2034  0.5771 -0.0139
  392Sol     HW 5576   2.345   3.107   4.938  2.8104 -0.5124  1.1456
  392Sol     HW 5577   2.328   3.125   5.088 -1.5243  1.7647  0.4654
  392Sol     MW 5578   2.340   3.164   5.008 -0.5247 -0.2621 -0.1956
  393Sol     OW 5579   3.009   0.394   4.500  0.3858  0.2854 -0.5611
  393Sol     HW 5580   2.986   0.427   4.587 -2.1613  0.5570 -1.2846
  393Sol     HW 5581   3.021   0.473   4.447  2.1851  0.1233 -0.4008
  393Sol     MW 5582   3.008   0.404   4.503 -0.4733 -0.0914 -0.6695
  394Sol     OW 5583   0.916   2.297   5.285 -0.3472  0.6393  0.0209
  394Sol     HW 5584   0.996   2.261   5.325 -0.8077 -0.0192  0.3588
  394Sol     HW 5585   0.932   2.391   5.280  0.0782  0.6200  0.9445
  394Sol     MW 5586   0.925   2.302   5.288 -0.6505 -0.1455 -0.1759
  395Sol     OW 5587   0.477   1.018   1.521  0.0991  0.0834  0.2047
  395Sol     HW 5588   0.483   1.113   1.528  3.6366 -0.1463  1.3501
  395Sol     HW 5589   0.568   0.989   1.512 -0.9416 -3.1806 -0.4681
  395Sol     MW 5590   0.486   1.024   1.521  0.3062 -0.6518  0.4266
  396Sol     OW 5591   0.832   2.071   2.484  0.3807  0.4908  0.0041
  396Sol     HW 5592   0.809   2.072   2.577 -2.2340 -0.8325 -0.5772
  396Sol     HW 5593   0.927   2.082   2.483  0.1904  3.0601  2.6910
  396Sol     MW 5594   0.838   2.072   2.492  0.1939  0.4231  0.1110
  397Sol     OW 5595   1.225   1.717   5.358  0.5387  0.0575  0.0721
  397Sol     HW 5596   1.245   1.752   5.444  0.6747 -0.6481  0.3282
  397Sol     HW 5597   1.276   1.636   5.352  0.9955  0.4093 -0.8996
  397Sol     MW 5598   1.231   1.713   5.365 -0.1290  0.3129 -0.5214
  398Sol     OW 5599   2.458   0.545   1.386 -0.1064 -0.0407  0.3711
  398Sol     HW 5600   2.397   0.578   1.453 -1.0355  1.2257 -1.0520
  398Sol     HW 5601   2.437   0.452   1.378 -1.2461  0.1910  0.5442
  398Sol     MW 5602   2.450   0.540   1.392  0.0136  0.1129 -0.5192
  399Sol     OW 5603   3.572   0.299   4.957  0.1623 -0.3776  0.3908
  399Sol     HW 5604   3.478   0.317   4.949  0.8863  4.3441  0.8769
  399Sol     HW 5605   3.584   0.271   5.047 -0.6642  0.1980  0.6907
  399Sol     MW 5606   3.565   0.298   4.964  0.1746 -0.1075 -0.0764
  400Sol     OW 5607   1.417   3.892   4.066 -0.1202 -0.5802  0.7832
  400Sol     HW 5608   1.334   3.845   4.060 -0.9485  0.9986 -0.5320
  400Sol     HW 5609   1.393   3.984   4.054  1.8070 -0.1027  0.4972
  400Sol     MW 5610   1.407   3.896   4.064  0.3445 -0.0991  0.1597
  401Sol     OW 5611   3.631   1.103   6.295  0.7720  0.2734 -0.2451
  401Sol     HW 5612   3.580   1.048   6.235  0.8192 -0.9729  0.8226
  401Sol     HW 5613   3.565   1.141   6.353  1.0812 -2.2607  1.8819
  401Sol     MW 5614   3.620   1.101   6.295  0.0034  0.5045  0.5742
  402Sol     OW 5615   1.486   3.305   1.132 -0.1487  0.3914 -0.4348
  402Sol     HW 5616   1.487   3.214   1.161  0.5007  0.7680  0.7402
  402Sol     HW 5617   1.449   3.301   1.044  1.3264 -1.1782 -0.9981
  402Sol     MW 5618   1.483   3.296   1.127 -0.2839 -0.5359 -1.2404
  403Sol     OW 5619   4.004   2.438   4.441  0.1288 -0.0673 -0.7355
  403Sol     HW 5620   3.930   2.470   4.493 -0.8091  1.4978 -2.9722
  403Sol     HW 5621   3.967   2.369   4.386  0.5812 -0.0215 -1.0983
  403Sol     MW 5622   3.994   2.435   4.441  0.7727  0.4046  0.3846
  404Sol     OW 5623   1.379   0.611   1.500 -0.0449 -0.3522 -0.2584
  404Sol     HW 5624   1.341   0.569   1.578  0.5512 -2.9994 -1.3355
  404Sol     HW 5625   1.317   0.680   1.477 -0.6607 -0.0888  2.0627
  404Sol     MW 5626   1.370   0.614   1.505 -0.1322  0.2476  0.1984
  405Sol     OW 5627   0.903   3.390   5.952  0.8045 -0.0934 -0.3050
  405Sol     HW 5628   0.939   3.475   5.930  0.0861  0.3251  0.0925
  405Sol     HW 5629   0.878   3.352   5.868  0.5483  0.3568 -0.4349
  405Sol     MW 5630   0.904   3.394   5.943 -0.2984  0.2583 -0.4005
  406Sol     OW 5631   2.520   3.861   3.034  0.5632 -0.7933  0.3939
  406Sol     HW 5632   2.585   3.877   3.102  0.4514  1.3057  0.0454
  406Sol     HW 5633   2.446   3.820   3.080  0.4272  0.7278  1.5848
  406Sol     MW 5634   2.519   3.859   3.044 -0.5726 -0.1877 -0.2775
  407Sol     OW 5635   2.106   1.227   4.203  0.0985 -0.0069 -0.3061
  407Sol     HW 5636   2.141   1.139   4.209  0.8080  0.2887 -0.0823
  407Sol     HW 5637   2.011   1.215   4.194  0.3688 -0.8672 -2.4868
  407Sol     MW 5638   2.100   1.218   4.202  0.9077 -0.4190  0.0342
  408Sol     OW 5639   3.511   2.970   3.801 -0.4392 -0.3132 -0.1372
  408Sol     HW 5640   3.497   3.023   3.723  1.0402 -1.0867 -0.9543
  408Sol     HW 5641   3.554   2.891   3.768 -0.9192 -1.1771  1.3008
  408Sol     MW 5642   3.514   2.968   3.791  0.0126  0.0179  0.0235
  409Sol     OW 5643   0.219   0.511   3.859  0.5091  0.1661 -0.5029
  409Sol     HW 5644   0.207   0.601   3.889 -0.6168  0.2181 -1.0813
  409Sol     HW 5645   0.144   0.494   3.802  0.1070 -1.5098  0.4897
  409Sol     MW 5646   0.211   0.518   3.857  1.2138  0.4930  0.2464
  410Sol     OW 5647   2.848   2.176   5.257  0.3993  0.1645  0.2048
  410Sol     HW 5648   2.923   2.189   5.316  0.0787 -1.6114  1.0317
  410Sol     HW 5649   2.800   2.259   5.261  1.7639  0.9710  0.4460
  410Sol     MW 5650   2.851   2.185   5.263  0.6227 -0.0077  0.0762
  411Sol     OW 5651   1.946   2.921   3.845  0.0624 -0.1082  1.0109
  411Sol     HW 5652   1.931   2.868   3.766 -1.5069  0.8653  0.6226
  411Sol     HW 5653   1.969   3.008   3.811 -1.0751  0.4386  1.5903
  411Sol     MW 5654   1.946   2.924   3.834  0.3312  0.3263 -0.4202
  412Sol     OW 5655   0.917   0.871   5.914 -0.0995 -0.5586  0.1330
  412Sol     HW 5656   0.869   0.905   5.989 -0.0436  3.0335 -1.3591
  412Sol     HW 5657   1.008   0.866   5.944  0.2955  2.9206 -0.2278
  412Sol     MW 5658   0.921   0.874   5.923  0.2682 -0.0053  0.2090
  413Sol     OW 5659   1.736   1.986   5.948 -0.1792 -0.1712 -0.0690
  413Sol     HW 5660   1.725   1.908   5.894 -0.7178 -0.8644  1.0373
  413Sol     HW 5661   1.687   1.968   6.028 -0.8499  1.5596 -0.0615
  413Sol     MW 5662   1.731   1.978   5.950 -0.0130 -0.3885 -0.5846
  414Sol     OW 5663   1.059   2.555   2.749 -0.1354 -0.1566  0.1018
  414Sol     HW 5664   0.994   2.617   2.782  1.6929  1.3771  0.8696
  414Sol     HW 5665   1.142   2.584   2.786  1.1509 -1.5805 -1.5488
  414Sol     MW 5666   1.061   2.563   2.755 -0.6026 -0.0088  0.0303
  415Sol     OW 5667   3.015   3.660   6.586 -0.0468 -0.5290  0.4659
  415Sol     HW 5668   2.937   3.607   6.573 -0.5645 -0.1013  1.6877
  415Sol     HW 5669   3.008   3.731   6.522 -0.9024 -0.2408  0.8702
  415Sol     MW 5670   3.007   3.662   6.579  0.0328 -0.2835  0.2701
  416Sol     OW 5671   3.247   2.505   1.889  0.0312  0.1224 -0.1178
  416Sol     HW 5672   3.161   2.477   1.919 -0.3277  2.1658  0.8033
  416Sol     HW 5673   3.300   2.511   1.969  1.3227 -1.9482 -0.7514
  416Sol     MW 5674   3.244   2.503   1.899 -0.1782  0.3127 -0.3235
  417Sol     OW 5675   2.057   1.838   1.866 -0.1969 -0.1771 -0.0769
  417Sol     HW 5676   2.112   1.789   1.927 -1.2846 -2.5818 -0.9449
  417Sol     HW 5677   2.101   1.828   1.781 -0.4613  0.2857 -0.2697
  417Sol     MW 5678   2.066   1.832   1.863 -0.4327  0.3058 -0.6190
  418Sol     OW 5679   2.202   2.672   4.480 -0.9073 -0.6519  0.0480
  418Sol     HW 5680   2.152   2.611   4.535 -2.2657 -1.4012 -1.9639
  418Sol     HW 5681   2.153   2.676   4.399 -0.3301  2.4859 -0.1827
  418Sol     MW 5682   2.194   2.667   4.478 -0.1912  0.3094  0.4202
  419Sol     OW 5683   2.531   0.204   2.801  0.1666 -0.1561 -0.0345
  419Sol     HW 5684   2.498   0.287   2.767  1.4715 -0.4728 -2.1578
  419Sol     HW 5685   2.493   0.137   2.743  0.9602 -0.8652  0.2509
  419Sol     MW 5686   2.524   0.205   2.793 -0.3922  0.1414 -0.5102
  420Sol     OW 5687   2.556   3.894   4.452  0.6678 -0.8863  0.1239
  420Sol     HW 5688   2.610   3.845   4.514  0.4803  0.1758  1.1396
  420Sol     HW 5689   2.487   3.833   4.427 -0.0976 -0.8514  2.0894
  420Sol     MW 5690   2.555   3.884   4.455 -0.6303  0.2424  0.3066
  421Sol     OW 5691   0.822   3.953   5.848 -0.7364  0.1639 -0.0737
  421Sol     HW 5692   0.820   3.946   5.752 -1.4490  2.2681 -0.2443
  421Sol     HW 5693   0.860   4.039   5.865 -1.3793  0.1535  1.5148
  421Sol     MW 5694   0.825   3.960   5.841 -0.2791  0.3122 -0.1800
  422Sol     OW 5695   1.032   0.723   3.791 -0.1416 -0.3871  0.1072
  422Sol     HW 5696   1.029   0.649   3.852 -1.5903  0.6650  1.3426
  422Sol     HW 5697   1.058   0.684   3.708 -1.9309 -2.4815  0.4747
  422Sol     MW 5698   1.034   0.713   3.789  0.3661  0.2384 -0.6235
  423Sol     OW 5699   2.556   2.088   4.745 -0.4192 -0.1325 -0.4491
  423Sol     HW 5700   2.518   2.002   4.726  0.4642 -0.7411  0.5095
  423Sol     HW 5701   2.623   2.071   4.810  1.0315  1.0343 -1.5998
  423Sol     MW 5702   2.558   2.079   4.749  0.2147 -0.3725 -0.0226
  424Sol     OW 5703   1.972   2.880   2.613 -0.1617  0.3799  0.1496
  424Sol     HW 5704   1.980   2.971   2.640 -0.1055 -0.8148  4.6542
  424Sol     HW 5705   1.880   2.870   2.589 -0.3170  1.4851  0.2749
  424Sol     MW 5706   1.965   2.887   2.613  0.1904  0.2236 -0.3836
  425Sol     OW 5707   0.429   1.841   5.204  0.0422 -0.1724  0.0334
  425Sol     HW 5708   0.357   1.890   5.165 -0.2359 -0.3602  0.3044
  425Sol     HW 5709   0.425   1.755   5.161  1.4575  0.5301 -1.5217
  425Sol     MW 5710   0.422   1.837   5.197  0.1567 -0.0298  0.1951
  426Sol     OW 5711   1.976   0.172   5.075 -0.2968 -0.2135  0.0414
  426Sol     HW 5712   2.031   0.134   5.007 -0.6177 -1.8228  0.6706
  426Sol     HW 5713   2.037   0.195   5.145 -0.1996 -0.2540 -0.0293
  426Sol     MW 5714   1.986   0.171   5.075  0.4109 -0.2326 -0.6092
  427Sol     OW 5715   2.069   2.261   2.950 -0.5433 -1.0723 -0.2900
  427Sol     HW 5716   2.053   2.329   3.016  0.6266 -0.5444 -0.5209
  427Sol     HW 5717   1.999   2.272   2.886  0.3965  0.8358 -1.0317
  427Sol     MW 5718   2.062   2.268   2.950  0.1969 -0.4308  0.1005
  428Sol     OW 5719   0.524   1.737   5.812 -0.4156  0.3591 -0.4179
  428Sol     HW 5720   0.433   1.737   5.842 -0.8153  1.5002 -1.5870
  428Sol     HW 5721   0.526   1.800   5.740  1.9098  2.4155  1.3703
  428Sol     MW 5722   0.516   1.743   5.808 -0.1392  0.8454  0.4988
  429Sol     OW 5723   0.970   2.681   4.977  0.4094 -0.6522  0.0222
  429Sol     HW 5724   0.964   2.752   4.913  1.7322 -0.4158  0.1337
  429Sol     HW 5725   0.978   2.602   4.923 -0.2793 -0.6412 -0.1006
  429Sol     MW 5726   0.970   2.680   4.966  0.3907  0.1941  0.1703
  430Sol     OW 5727   0.217   1.468   2.520  0.1250  0.4089 -0.2868
  430Sol     HW 5728   0.212   1.437   2.610 -0.0372  1.6440  0.1420
  430Sol     HW 5729   0.252   1.394   2.471 -1.4191 -0.8687  0.4894
  430Sol     MW 5730   0.220   1.459   2.524  0.3431 -0.5984  0.0817
  431Sol     OW 5731   2.311   2.933   5.624  0.1658 -0.0155 -0.0401
  431Sol     HW 5732   2.365   2.862   5.659  2.4674  0.4474 -2.4351
  431Sol     HW 5733   2.351   3.012   5.660  1.5264  0.3652 -2.2902
  431Sol     MW 5734   2.320   2.934   5.630  0.0546  0.2068 -0.7543
  432Sol     OW 5735   0.955   1.373   6.693  0.2015  0.0111 -0.4014
  432Sol     HW 5736   0.905   1.360   6.613 -0.8413  1.0451  0.0537
  432Sol     HW 5737   0.898   1.339   6.763 -0.3661  2.1715  0.2330
  432Sol     MW 5738   0.945   1.369   6.692 -0.2297 -0.4091 -0.3721
  433Sol     OW 5739   1.012   2.561   4.382  0.2898  0.1588  0.0297
  433Sol     HW 5740   1.017   2.650   4.347  0.8748  1.0729  2.3040
  433Sol     HW 5741   0.928   2.528   4.352  0.6529  0.9750 -1.9765
  433Sol     MW 5742   1.005   2.566   4.376  0.0344  0.2033  0.3050
  434Sol     OW 5743   0.441   1.298   1.572 -0.1699  0.1677 -0.1604
  434Sol     HW 5744   0.373   1.277   1.636  0.3305 -1.1506 -0.0413
  434Sol     HW 5745   0.413   1.380   1.532 -0.8974  0.5759  1.1805
  434Sol     MW 5746   0.433   1.303   1.574 -0.2333  0.7974 -0.3343
  435Sol     OW 5747   3.159   0.343   2.267 -0.0725 -0.0770 -0.0244
  435Sol     HW 5748   3.248   0.324   2.298 -0.8443 -1.7310  1.2652
  435Sol     HW 5749   3.116   0.384   2.342 -0.4278  0.6655 -0.6305
  435Sol     MW 5750   3.163   0.345   2.277 -0.0236  0.0728  0.2919
  436Sol     OW 5751   1.208   0.952   4.142  0.0629 -0.8689  0.2524
  436Sol     HW 5752   1.198   1.023   4.206  1.6027  0.5928 -1.0660
  436Sol     HW 5753   1.191   0.994   4.058  1.2513 -2.0072 -0.5657
  436Sol     MW 5754   1.206   0.962   4.141  0.4111  0.1331 -0.6303
  437Sol     OW 5755   3.529   0.659   1.490 -0.3228  0.2864 -0.3479
  437Sol     HW 5756   3.452   0.712   1.467 -1.4667 -0.5652  1.3559
  437Sol     HW 5757   3.514   0.635   1.581  2.3482  0.6848  0.2248
  437Sol     MW 5758   3.520   0.662   1.496 -0.1750 -0.2317 -0.1311
  438Sol     OW 5759   2.509   3.927   5.622  0.2020 -0.8201  0.0274
  438Sol     HW 5760   2.580   3.875   5.661  0.4005  2.0004  3.6967
  438Sol     HW 5761   2.554   3.996   5.574 -0.0705 -1.2941 -0.9179
  438Sol     MW 5762   2.520   3.928   5.621 -0.5415 -0.2488 -0.3877
  439Sol     OW 5763   0.508   2.630   1.693 -0.0473  0.3243  0.0052
  439Sol     HW 5764   0.497   2.568   1.765 -0.8579  1.4619  0.8855
  439Sol     HW 5765   0.594   2.669   1.709  0.2032 -0.1304 -0.2120
  439Sol     MW 5766   0.515   2.628   1.701  0.3593  0.3700  0.1167
  440Sol     OW 5767   2.373   0.699   1.984 -0.5797 -0.2572 -0.2363
  440Sol     HW 5768   2.294   0.753   1.987  0.7131  1.6451  0.3530
  440Sol     HW 5769   2.341   0.609   1.989 -2.6351  0.5336  1.5492
  440Sol     MW 5770   2.363   0.696   1.985  0.6536 -0.4975  0.1112
  441Sol     OW 5771   0.655   3.840   4.954  0.0228  0.3238  0.2872
  441Sol     HW 5772   0.725   3.871   4.896 -0.1109  0.4233  0.1779
  441Sol     HW 5773   0.586   3.810   4.895 -0.6742  1.6794  0.3775
  441Sol     MW 5774   0.655   3.840   4.944  0.0959  0.7901  0.1761
  442Sol     OW 5775   1.182   4.094   6.667  0.8707 -0.5307  0.4004
  442Sol     HW 5776   1.147   4.065   6.583 -0.3431 -0.9209  1.0396
  442Sol     HW 5777   1.163   4.023   6.727 -1.0916  1.0672  1.7237
  442Sol     MW 5778   1.178   4.085   6.665  0.1440 -0.5657  0.5257
  443Sol     OW 5779   3.474   2.583   1.450  0.6021 -0.2597 -0.2888
  443Sol     HW 5780   3.436   2.527   1.518  0.8503 -0.4930 -0.3438
  443Sol     HW 5781   3.559   2.610   1.485 -0.5498  2.0940  0.8180
  443Sol     MW 5782   3.478   2.580   1.459 -0.1342 -0.0977 -0.0043
  444Sol     OW 5783   3.183   3.534   6.071  0.7446  0.2370 -0.0555
  444Sol     HW 5784   3.154   3.596   6.004 -2.7624  1.3888  2.3652
  444Sol     HW 5785   3.167   3.448   6.033 -2.2995  0.8686 -0.3045
  444Sol     MW 5786   3.179   3.532   6.062 -0.4169  0.3173  0.3872
  445Sol     OW 5787   0.785   3.100   1.825 -0.3168 -0.0016  0.2245
  445Sol     HW 5788   0.756   3.122   1.913  0.3832  0.2667  0.3931
  445Sol     HW 5789   0.855   3.035   1.839 -0.6656 -0.4624 -0.1602
  445Sol     MW 5790   0.789   3.096   1.834 -0.2683  0.0588 -0.0374
  446Sol     OW 5791   1.036   2.446   4.844 -0.3393  0.0201  0.7830
  446Sol     HW 5792   1.014   2.446   4.750  0.5413 -0.5180  0.5653
  446Sol     HW 5793   0.996   2.366   4.878  0.0804 -0.2343  0.6815
  446Sol     MW 5794   1.030   2.439   4.838 -0.3287  0.6738 -0.1514
  447Sol     OW 5795   0.070   3.827   5.993 -0.1345  0.4736  0.2009
  447Sol     HW 5796   0.163   3.843   6.006 -0.7180  3.5502  0.8539
  447Sol     HW 5797   0.026   3.890   6.050 -2.6427  0.6133 -1.7897
  447Sol     MW 5798   0.074   3.834   5.999 -0.2198 -0.1765 -0.0830
  448Sol     OW 5799   2.989   1.656   5.317 -0.7348  0.3322  0.4404
  448Sol     HW 5800   3.037   1.737   5.303 -0.5706  0.5939  2.4571
  448Sol     HW 5801   2.897   1.682   5.319 -0.5637  0.8505  3.4526
  448Sol     MW 5802   2.985   1.665   5.316  0.1271 -0.9038  0.0941
  449Sol     OW 5803   2.344   3.810   3.453 -0.3666 -0.0619 -0.3453
  449Sol     HW 5804   2.345   3.904   3.438  1.6434  0.6871  3.6550
  449Sol     HW 5805   2.256   3.792   3.486 -0.6123  0.4934 -0.6923
  449Sol     MW 5806   2.336   3.816   3.455  0.2918 -0.2230  0.1623
  450Sol     OW 5807   0.852   1.552   3.178  0.3368  0.3105 -0.3624
  450Sol     HW 5808   0.786   1.588   3.119  0.0563  0.0474 -0.2068
  450Sol     HW 5809   0.935   1.566   3.132  0.1214  0.1281 -0.8101
  450Sol     MW 5810   0.853   1.557   3.169  0.7565  0.7103  0.0490
  451Sol     OW 5811   2.983   3.566   3.051 -0.1878 -0.2827 -0.0089
  451Sol     HW 5812   3.020   3.559   2.963 -0.3051 -1.0781 -0.0027
  451Sol     HW 5813   2.902   3.515   3.046  0.3367 -1.2233  0.8456
  451Sol     MW 5814   2.979   3.561   3.043 -0.0384  0.3469 -0.1760
  452Sol     OW 5815   3.708   2.122   5.458 -0.4448 -0.3575 -0.2790
  452Sol     HW 5816   3.766   2.090   5.527 -1.1066  2.1135  1.5094
  452Sol     HW 5817   3.620   2.104   5.490 -0.7423 -0.1634 -0.9734
  452Sol     MW 5818   3.706   2.117   5.467 -0.5636  0.4734 -0.1095
  453Sol     OW 5819   1.068   3.516   4.799  0.2435 -0.2122  0.3401
  453Sol     HW 5820   0.989   3.539   4.848 -0.3870 -1.6569  0.0331
  453Sol     HW 5821   1.079   3.422   4.815  1.6212 -0.1162 -0.0247
  453Sol     MW 5822   1.062   3.510   4.805  0.1841  0.6026 -0.0291
  454Sol     OW 5823   3.667   4.078   2.760 -0.0612 -0.0094 -0.2144
  454Sol     HW 5824   3.581   4.121   2.766  0.3919  0.8099  0.5052
  454Sol     HW 5825   3.648   3.986   2.774 -0.7943  0.2081  0.2729
  454Sol     MW 5826   3.657   4.074   2.762 -0.4406  0.0149  0.0324
  455Sol     OW 5827   3.376   1.449   4.769  0.1553  0.1719 -0.7179
  455Sol     HW 5828   3.420   1.448   4.684 -2.7063  0.6102 -2.2625
  455Sol     HW 5829   3.308   1.382   4.762 -0.5851  0.7193  0.9720
  455Sol     MW 5830   3.374   1.443   4.761 -0.0000 -0.6461  0.2465
  456Sol     OW 5831   2.052   1.927   2.320  0.0030 -0.5167 -0.3172
  456Sol     HW 5832   2.099   1.854   2.280  0.5665 -0.7725  0.8055
  456Sol     HW 5833   1.970   1.933   2.270  1.1496 -0.1414 -2.1987
  456Sol     MW 5834   2.049   1.921   2.312 -0.1952 -0.2842 -0.2857
  457Sol     OW 5835   2.445   3.909   3.837 -1.0050  0.1870 -0.1059
  457Sol     HW 5836   2.408   3.879   3.919  0.8122 -0.9553  0.3290
  457Sol     HW 5837   2.476   3.830   3.793 -0.3933  0.9467 -1.0888
  457Sol     MW 5838   2.445   3.899   3.840  0.2917  0.0609  0.5073
  458Sol     OW 5839   1.000   4.094   3.367 -0.1433  0.5169 -0.4947
  458Sol     HW 5840   0.920   4.057   3.331 -0.2588  0.8247 -0.5591
  458Sol     HW 5841   0.970   4.157   3.433  0.0619  0.0945  0.0026
  458Sol     MW 5842   0.990   4.097   3.370  0.3134 -0.4270 -0.1406
  459Sol     OW 5843   0.679   1.380   2.524  0.1138 -0.8594  0.0817
  459Sol     HW 5844   0.630   1.371   2.442 -1.0547 -1.3364  0.8254
  459Sol     HW 5845   0.722   1.295   2.536  0.6607 -0.6355 -0.2693
  459Sol     MW 5846   0.678   1.372   2.518 -0.0645  0.2136  0.3934
  460Sol     OW 5847   2.056   1.738   6.024 -0.3280  0.6836  0.2502
  460Sol     HW 5848   2.013   1.797   5.963 -1.4707 -0.7722 -0.3808
  460Sol     HW 5849   1.998   1.662   6.029 -0.6758  1.0835  3.7277
  460Sol     MW 5850   2.047   1.736   6.019  0.0334 -0.3887 -0.1628
  461Sol     OW 5851   2.191   1.811   1.626  0.4296 -0.4685 -0.5785
  461Sol     HW 5852   2.205   1.729   1.578 -2.0280  0.1751 -2.4847
  461Sol     HW 5853   2.259   1.870   1.594  0.8662 -1.0737 -0.7836
  461Sol     MW 5854   2.198   1.809   1.619 -0.6201  0.2107 -0.0753
  462Sol     OW 5855   1.340   1.380   4.357 -0.1188 -0.0289 -0.2171
  462Sol     HW 5856   1.392   1.435   4.298 -2.4520  1.4434 -0.9667
  462Sol     HW 5857   1.392   1.375   4.437  0.5915  2.5057 -0.4803
  462Sol     MW 5858   1.349   1.385   4.359  0.3592 -0.3126 -0.3401
  463Sol     OW 5859   2.589   3.076   3.293 -0.3897 -0.1243  0.1616
  463Sol     HW 5860   2.641   3.151   3.264 -0.5940 -0.1295 -0.2110
  463Sol     HW 5861   2.650   3.024   3.346 -0.6005  0.9770  1.5270
  463Sol     MW 5862   2.599   3.078   3.296 -0.3827  0.2934  0.4926
  464Sol     OW 5863   2.179   1.265   6.484  0.0496 -0.4526  0.3511
  464Sol     HW 5864   2.255   1.285   6.430  0.0159 -1.7663 -0.2125
  464Sol     HW 5865   2.155   1.348   6.524 -0.1523  0.6384 -1.9566
  464Sol     MW 5866   2.183   1.274   6.482 -0.1002  0.2889  0.3363
  465Sol     OW 5867   0.916   2.328   2.341 -0.4325 -0.1655  0.2220
  465Sol     HW 5868   0.873   2.244   2.354 -0.2666 -0.2840  0.0100
  465Sol     HW 5869   0.997   2.307   2.294 -1.1603  0.2667 -1.2554
  465Sol     MW 5870   0.919   2.319   2.338 -0.0090  0.8405  0.1295
  466Sol     OW 5871   3.372   2.536   4.925  0.0496  0.4502  0.8041
  466Sol     HW 5872   3.343   2.445   4.913  0.8001  0.4852 -1.6753
  466Sol     HW 5873   3.299   2.588   4.890  0.6596  0.7143 -0.0821
  466Sol     MW 5874   3.363   2.532   4.920 -0.5551  0.1219 -0.0297
  467Sol     OW 5875   1.953   1.811   6.305  0.3879 -0.3067  0.1432
  467Sol     HW 5876   2.032   1.827   6.357  0.1586  0.6522  0.2073
  467Sol     HW 5877   1.947   1.887   6.247 -0.7135 -0.1727  0.4234
  467Sol     MW 5878   1.960   1.820   6.305 -0.3357 -0.4167  0.0802
  468Sol     OW 5879   1.267   1.783   5.609 -1.7613  0.0569 -0.1194
  468Sol     HW 5880   1.345   1.783   5.665 -0.3670 -2.0919 -1.9586
  468Sol     HW 5881   1.206   1.725   5.655 -1.7907  0.7049  0.6734
  468Sol     MW 5882   1.268   1.777   5.618 -0.1605  0.1512  0.0260
  469Sol     OW 5883   0.169   3.144   5.795 -0.2844  0.1727 -0.3930
  469Sol     HW 5884   0.168   3.239   5.783 -1.6958  0.2611  0.3374
  469Sol     HW 5885   0.155   3.108   5.708 -1.0111  0.6502 -0.4751
  469Sol     MW 5886   0.168   3.150   5.786  0.5577  0.0173  0.2459
  470Sol     OW 5887   1.922   1.901   5.625  0.0284  0.2499  0.4047
  470Sol     HW 5888   1.891   1.991   5.636 -2.8640 -0.8724  2.1286
  470Sol     HW 5889   1.989   1.889   5.692 -0.3994  0.8117  0.9407
  470Sol     MW 5890   1.925   1.908   5.632  0.3038 -0.1965  0.3162
  471Sol     OW 5891   2.209   1.760   2.177  0.9166  0.2729 -0.1795
  471Sol     HW 5892   2.247   1.716   2.253  0.6062  1.0573  0.4318
  471Sol     HW 5893   2.216   1.696   2.106 -0.6218 -1.1970  0.9834
  471Sol     MW 5894   2.213   1.751   2.177 -0.0443 -0.3307  0.0073
  472Sol     OW 5895   2.792   1.976   1.802 -0.0828  0.0493 -0.3730
  472Sol     HW 5896   2.863   1.956   1.742  1.0728  1.2200  0.5752
  472Sol     HW 5897   2.772   1.892   1.844 -0.4091 -0.6219 -1.8471
  472Sol     MW 5898   2.796   1.966   1.801 -0.2854  0.0662 -0.3299
  473Sol     OW 5899   3.882   3.858   4.370  0.8210 -0.1875 -0.0522
  473Sol     HW 5900   3.969   3.873   4.407  1.6649 -0.9896 -1.6847
  473Sol     HW 5901   3.823   3.910   4.425  2.0594 -1.2615  2.3776
  473Sol     MW 5902   3.884   3.864   4.379  0.0724  0.2825  0.2010
  474Sol     OW 5903   2.603   0.488   2.202 -0.3411  0.7040 -0.0784
  474Sol     HW 5904   2.552   0.447   2.272 -0.8877 -1.2866 -1.5801
  474Sol     HW 5905   2.692   0.493   2.236 -0.7380  0.3881  1.0158
  474Sol     MW 5906   2.606   0.484   2.211 -0.2075  0.0876  0.0901
  475Sol     OW 5907   3.137   2.900   4.014 -0.0085 -0.2458 -0.2669
  475Sol     HW 5908   3.182   2.944   3.942 -0.0648 -0.4395 -0.4189
  475Sol     HW 5909   3.105   2.818   3.977 -2.3479  0.8347 -0.7463
  475Sol     MW 5910   3.138   2.897   4.004  0.4822 -0.9396  0.3898
  476Sol     OW 5911   2.443   0.115   4.230 -0.6661  0.2715 -0.0480
  476Sol     HW 5912   2.536   0.095   4.240 -0.5651  1.1206  0.7944
  476Sol     HW 5913   2.426   0.106   4.136 -0.2096 -1.9135  0.0506
  476Sol     MW 5914   2.450   0.112   4.223 -0.5275 -0.1646  0.6932
  477Sol     OW 5915   0.218   1.964   5.059 -0.0453  0.7664 -0.1981
  477Sol     HW 5916   0.185   1.921   4.980  1.4019  0.6695 -0.7675
  477Sol     HW 5917   0.193   2.055   5.049  1.7749  1.1391 -1.7196
  477Sol     MW 5918   0.213   1.968   5.051 -0.3576  0.1857  0.2636
  478Sol     OW 5919   0.931   2.045   6.701 -0.1692 -0.7739 -0.6682
  478Sol     HW 5920   0.936   2.102   6.777  0.6137 -1.1303 -0.4448
  478Sol     HW 5921   0.980   2.091   6.632 -1.5645 -0.0738 -1.2074
  478Sol     MW 5922   0.936   2.054   6.701 -0.4174  0.3366 -0.1785
  479Sol     OW 5923   1.699   2.552   4.337 -0.6402 -0.5116  0.2621
  479Sol     HW 5924   1.728   2.471   4.379  0.1088  0.8128  2.3885
  479Sol     HW 5925   1.622   2.579   4.386 -0.9695  0.0016 -0.5217
  479Sol     MW 5926   1.695   2.547   4.345  0.9675  0.0730  0.3929
  480Sol     OW 5927   2.773   1.682   3.936  0.0391  0.2929  0.2250
  480Sol     HW 5928   2.728   1.637   3.864  0.6811  0.0638 -0.0371
  480Sol     HW 5929   2.723   1.762   3.949  0.8645  1.1471 -1.5875
  480Sol     MW 5930   2.765   1.685   3.931 -0.6347  0.1792 -0.4906
  481Sol     OW 5931   3.215   2.228   1.439 -0.0187  0.2252  0.5826
  481Sol     HW 5932   3.255   2.291   1.498  0.0355  0.3586  0.4045
  481Sol     HW 5933   3.252   2.144   1.464  1.1133  0.4764 -0.2219
  481Sol     MW 5934   3.222   2.226   1.447 -0.0853 -0.1673 -0.5587
  482Sol     OW 5935   2.167   2.801   3.968  0.4181  0.1910  0.1534
  482Sol     HW 5936   2.227   2.873   3.948 -0.1390  0.4469 -0.6750
  482Sol     HW 5937   2.082   2.832   3.933  0.0439 -0.5955  0.3700
  482Sol     MW 5938   2.165   2.811   3.963  0.0471  0.1146 -0.5312
  483Sol     OW 5939   3.958   0.330   4.035  0.0635 -0.3269  0.1202
  483Sol     HW 5940   4.023   0.300   4.099 -0.1269  1.0562  0.9802
  483Sol     HW 5941   3.891   0.262   4.036  1.6166 -1.9351 -1.0072
  483Sol     MW 5942   3.958   0.321   4.041  0.1880 -0.7039  0.1983
  484Sol     OW 5943   0.993   2.874   6.624  0.1554 -0.3302  0.1135
  484Sol     HW 5944   1.034   2.943   6.571 -0.1702  0.7845  1.2781
  484Sol     HW 5945   0.965   2.808   6.561  1.0695  0.2950 -0.9644
  484Sol     MW 5946   0.994   2.874   6.614  0.0689 -0.2736  0.3200
  485Sol     OW 5947   3.391   1.343   3.792  0.0344 -0.2423  0.6689
  485Sol     HW 5948   3.301   1.349   3.759  0.5323 -0.7535 -0.8180
  485Sol     HW 5949   3.382   1.307   3.880 -1.3011  0.7885  0.9707
  485Sol     MW 5950   3.382   1.341   3.796 -0.3971  0.2842  0.6813
  486Sol     OW 5951   1.666   1.058   5.324  0.1571  0.4189  0.4534
  486Sol     HW 5952   1.689   1.128   5.264 -1.5339  0.1696 -0.4930
  486Sol     HW 5953   1.573   1.070   5.342  0.4949  0.1644  2.6031
  486Sol     MW 5954   1.660   1.065   5.321 -0.2310  0.5276 -0.0991
  487Sol     OW 5955   2.709   2.937   2.619 -0.0116  0.2868 -0.6084
  487Sol     HW 5956   2.614   2.937   2.632  0.0578  1.4723 -0.0749
  487Sol     HW 5957   2.738   2.853   2.653 -1.0078 -0.5534 -1.7804
  487Sol     MW 5958   2.703   2.929   2.623  0.2871  0.1284 -0.4975
  488Sol     OW 5959   3.925   0.853   1.999  0.2474 -0.4180  0.2147
  488Sol     HW 5960   3.839   0.862   1.959  0.8726  0.2389 -1.0121
  488Sol     HW 5961   3.916   0.778   2.058 -1.3421  0.0707  0.6200
  488Sol     MW 5962   3.917   0.847   2.001  0.4447  0.0653 -0.0259
  489Sol     OW 5963   2.717   2.337   5.503 -0.2732  0.2909  0.1775
  489Sol     HW 5964   2.772   2.393   5.449 -0.6145  0.5457  0.0951
  489Sol     HW 5965   2.627   2.365   5.484 -0.4347 -0.1367  0.2926
  489Sol     MW 5966   2.714   2.344   5.496  0.0933 -0.1986  0.0756
  490Sol     OW 5967   3.371   2.167   3.988  0.1930  0.9194 -0.4417
  490Sol     HW 5968   3.363   2.250   3.941 -0.5232  1.0078 -0.1729
  490Sol     HW 5969   3.402   2.192   4.075  0.2968  0.8698 -0.4637
  490Sol     MW 5970   3.373   2.177   3.992 -0.2371 -0.1272  0.0756
  491Sol     OW 5971   3.541   1.182   2.893 -0.5221 -0.4901 -0.2250
  491Sol     HW 5972   3.589   1.197   2.974 -0.6068  0.5094 -0.3495
  491Sol     HW 5973   3.519   1.089   2.894 -1.1961 -0.3236  1.2633
  491Sol     MW 5974   3.544   1.175   2.900  0.4472 -0.0515 -0.3073
  492Sol     OW 5975   0.936   2.387   4.592 -0.3260 -0.3331 -0.1418
  492Sol     HW 5976   0.959   2.445   4.519 -0.5831 -1.4909 -1.1620
  492Sol     HW 5977   0.993   2.311   4.581 -0.8833 -0.8401  0.4322
  492Sol     MW 5978   0.943   2.385   4.584  0.7664 -0.2059 -0.2478
  493Sol     OW 5979   1.403   0.839   6.496 -0.4510  0.3377  0.0764
  493Sol     HW 5980   1.467   0.873   6.558 -1.8521  0.7583  1.3109
  493Sol     HW 5981   1.446   0.846   6.411  1.2959  0.2281  0.9255
  493Sol     MW 5982   1.413   0.843   6.494 -0.2926  0.3504  0.4127
  494Sol     OW 5983   1.261   2.577   4.066 -0.1090 -0.3597 -1.1610
  494Sol     HW 5984   1.296   2.518   4.000  0.1656 -1.6798  0.1329
  494Sol     HW 5985   1.249   2.522   4.143  0.6846  1.3873  0.2531
  494Sol     MW 5986   1.263   2.566   4.067  0.5965 -0.5587  0.0714
  495Sol     OW 5987   3.612   3.125   2.068  0.3533 -0.0712 -0.3720
  495Sol     HW 5988   3.631   3.216   2.092  0.0394 -0.2662  0.6640
  495Sol     HW 5989   3.548   3.132   1.997  1.1313  0.5287 -1.0122
  495Sol     MW 5990   3.608   3.134   2.064 -0.5365  0.4355  0.0517
  496Sol     OW 5991   3.858   3.427   4.156 -0.5276  0.5355  0.5180
  496Sol     HW 5992   3.920   3.363   4.121 -0.4649  1.2166 -0.6615
  496Sol     HW 5993   3.772   3.385   4.148 -0.2707 -0.2118  1.6848
  496Sol     MW 5994   3.856   3.417   4.152 -0.1432 -0.0585  0.5392
  497Sol     OW 5995   3.408   0.374   1.976  0.0450  0.0320 -0.1482
  497Sol     HW 5996   3.366   0.456   2.001 -0.2360  0.5462 -2.2458
  497Sol     HW 5997   3.347   0.306   2.004 -0.8463  0.6465 -0.5923
  497Sol     MW 5998   3.399   0.375   1.981  1.0412  0.6803 -0.2726
  498Sol     OW 5999   3.294   3.915   2.030  0.4137 -0.5316  0.3706
  498Sol     HW 6000   3.258   3.826   2.028  0.8045 -0.6663 -0.5578
  498Sol     HW 6001   3.302   3.934   2.124 -0.9323 -0.9563  0.5859
  498Sol     MW 6002   3.292   3.908   2.038 -0.6384  0.1206  0.1543
  499Sol     OW 6003   1.025   1.660   3.395 -0.2129 -0.4996  0.5711
  499Sol     HW 6004   1.113   1.668   3.359 -0.2682  0.3438  0.6018
  499Sol     HW 6005   0.977   1.609   3.330 -0.5845  1.8755 -1.0912
  499Sol     MW 6006   1.029   1.656   3.386 -0.0729  0.0450  0.2720
  500Sol     OW 6007   3.699   4.152   5.113 -0.4432 -0.1127 -0.5074
  500Sol     HW 6008   3.682   4.235   5.158  0.5222 -0.2239  0.0855
  500Sol     HW 6009   3.639   4.152   5.038 -1.3830  0.5199  0.2279
  500Sol     MW 6010   3.692   4.159   5.111  0.1484 -0.3531 -0.0783
  501Sol     OW 6011   2.773   2.951   6.111 -0.0543 -0.0465  0.2039
  501Sol     HW 6012   2.708   2.884   6.090 -0.7425 -0.0363  2.1971
  501Sol     HW 6013   2.845   2.934   6.050 -1.0167 -1.4040 -0.5936
  501Sol     MW 6014   2.774   2.943   6.103 -0.1810  0.2768  0.6281
  502Sol     OW 6015   0.204   1.172   5.526  0.0888 -0.0755  0.1330
  502Sol     HW 6016   0.235   1.262   5.529 -0.3913  0.1211 -0.9098
  502Sol     HW 6017   0.111   1.179   5.504  0.0974 -0.8313 -0.1574
  502Sol     MW 6018   0.198   1.181   5.525 -0.1402 -0.5515 -0.1568
  503Sol     OW 6019   3.053   2.829   6.377 -0.3863  0.5849  0.5370
  503Sol     HW 6020   2.968   2.855   6.413 -0.0641 -0.9642  2.4808
  503Sol     HW 6021   3.061   2.736   6.398  0.1473 -0.2352 -2.9810
  503Sol     MW 6022   3.046   2.823   6.382  0.2897  0.3261  0.6819
  504Sol     OW 6023   1.825   1.635   2.074 -0.3917  0.0013 -0.1920
  504Sol     HW 6024   1.802   1.727   2.087  1.2248  0.4757 -0.5439
  504Sol     HW 6025   1.856   1.631   1.983  1.3334 -0.5002  0.4021
  504Sol     MW 6026   1.825   1.643   2.067  0.1511  0.0696  0.6034
  505Sol     OW 6027   3.722   3.074   3.420 -0.3281 -0.0166 -0.4934
  505Sol     HW 6028   3.637   3.065   3.463  1.0561  2.8072  3.1688
  505Sol     HW 6029   3.713   3.151   3.364  0.3122  1.4970  1.4229
  505Sol     MW 6030   3.714   3.080   3.419  0.2041 -0.8346  0.0427
  506Sol     OW 6031   2.130   0.078   2.638  0.4170 -0.7530  0.4541
  506Sol     HW 6032   2.168   0.004   2.687  0.9579 -0.6128  0.2375
  506Sol     HW 6033   2.181   0.082   2.558  0.5886  0.0609  0.6050
  506Sol     MW 6034   2.138   0.071   2.636  0.4488  0.1613 -0.4924
  507Sol     OW 6035   1.582   0.150   3.631  0.3427  0.2247 -0.9023
  507Sol     HW 6036   1.644   0.103   3.576 -2.3622 -2.5592 -1.7196
  507Sol     HW 6037   1.504   0.161   3.576 -1.3934 -0.0981  1.4079
  507Sol     MW 6038   1.580   0.147   3.621 -0.2050 -0.4298 -0.0816
  508Sol     OW 6039   3.334   1.243   4.030  0.2027  0.2274  0.1912
  508Sol     HW 6040   3.316   1.154   4.001  0.2021  0.7207 -1.3682
  508Sol     HW 6041   3.419   1.238   4.074 -0.4360 -0.7892  1.3226
  508Sol     MW 6042   3.340   1.235   4.031 -0.0712  0.5397  0.1148
  509Sol     OW 6043   1.959   0.296   1.751 -0.1038 -0.4723 -0.1536
  509Sol     HW 6044   1.890   0.278   1.815  0.9589 -1.8508  0.6255
  509Sol     HW 6045   1.942   0.236   1.679  1.1286 -1.8674  0.6946
  509Sol     MW 6046   1.951   0.289   1.750 -0.0114  0.2563  0.3923
  510Sol     OW 6047   2.738   0.049   2.309 -0.5381 -0.2910 -0.1264
  510Sol     HW 6048   2.749  -0.046   2.301 -1.0692 -0.3851  0.2591
  510Sol     HW 6049   2.827   0.082   2.322 -0.3755 -0.7529 -0.0557
  510Sol     MW 6050   2.747   0.043   2.309  0.0301  0.0656  0.0683
  511Sol     OW 6051   2.311   1.285   2.925 -0.4360 -0.2022 -0.0179
  511Sol     HW 6052   2.278   1.212   2.978 -0.3736  0.8202  1.4438
  511Sol     HW 6053   2.242   1.351   2.928 -0.0195  0.2575 -0.4292
  511Sol     MW 6054   2.302   1.284   2.930  0.3340 -0.1132  0.1230
  512Sol     OW 6055   0.686   3.268   3.794 -0.4273  0.1148 -0.2334
  512Sol     HW 6056   0.598   3.231   3.787 -0.8550  1.4634 -2.6494
  512Sol     HW 6057   0.739   3.199   3.833 -2.3956 -0.9717  0.5561
  512Sol     MW 6058   0.683   3.259   3.797  0.6072 -0.4011  0.7347
  513Sol     OW 6059   1.356   2.070   4.618  0.2390 -0.1047  0.0983
  513Sol     HW 6060   1.367   2.098   4.709 -1.8581  0.7664  0.1361
  513Sol     HW 6061   1.290   2.131   4.583 -0.1086 -1.3937 -1.5449
  513Sol     MW 6062   1.351   2.078   4.623 -0.4190  0.1834  0.1592
  514Sol     OW 6063   0.304   1.430   5.602 -0.3715  0.0280  0.4577
  514Sol     HW 6064   0.236   1.488   5.635  0.3699  0.3049  1.5209
  514Sol     HW 6065   0.343   1.391   5.680 -0.3220 -1.2890 -0.2093
  514Sol     MW 6066   0.302   1.432   5.612 -0.5604  0.2829 -0.2870
  515Sol     OW 6067   3.772   2.863   5.134  0.1981 -0.4162 -0.3439
  515Sol     HW 6068   3.749   2.838   5.045  0.5730  0.9971 -0.8489
  515Sol     HW 6069   3.782   2.958   5.131  0.2483 -0.3524  1.1963
  515Sol     MW 6070   3.771   2.869   5.126 -0.8504 -0.5157 -0.0137
  516Sol     OW 6071   0.240   3.326   1.680  0.0560  0.4135 -0.6727
  516Sol     HW 6072   0.281   3.320   1.766  0.2914  0.5519 -0.7721
  516Sol     HW 6073   0.222   3.419   1.668  0.0924  0.4053 -0.8016
  516Sol     MW 6074   0.242   3.334   1.686 -0.0267  0.3863 -0.4392
  517Sol     OW 6075   3.325   2.411   3.888  0.7230 -0.4053 -0.8507
  517Sol     HW 6076   3.368   2.496   3.893 -1.7436  0.7994  1.4836
  517Sol     HW 6077   3.263   2.420   3.815  1.3586 -0.6252 -1.4139
  517Sol     MW 6078   3.323   2.420   3.882  0.3871  0.1678 -0.2579
  518Sol     OW 6079   0.118   2.218   5.095 -0.5695 -0.1572  0.3322
  518Sol     HW 6080   0.191   2.272   5.125 -0.6003 -1.0245  2.0901
  518Sol     HW 6081   0.061   2.213   5.172 -0.2953 -3.1057  0.3722
  518Sol     MW 6082   0.119   2.223   5.105  0.4425  0.4566 -0.1031
  519Sol     OW 6083   3.288   0.472   6.021  0.6343  0.4788 -0.6546
  519Sol     HW 6084   3.208   0.446   6.066  1.7614 -1.3905  0.3499
  519Sol     HW 6085   3.263   0.548   5.969 -1.9354 -0.4533 -0.8522
  519Sol     MW 6086   3.278   0.477   6.021  0.2728  0.4439 -1.0547
  520Sol     OW 6087   0.136   3.079   6.464  0.8685  0.0395 -0.1121
  520Sol     HW 6088   0.153   3.173   6.467 -1.0918  0.4427 -1.1420
  520Sol     HW 6089   0.133   3.058   6.370 -1.7800 -0.4518  0.0439
  520Sol     MW 6090   0.138   3.085   6.456  0.0286 -0.0131  0.0596
  521Sol     OW 6091   1.257   0.315   1.973  0.3692  0.4931 -0.1371
  521Sol     HW 6092   1.310   0.293   1.896  2.0792  1.2241  0.7955
  521Sol     HW 6093   1.243   0.409   1.967 -1.4332  0.2115 -0.7226
  521Sol     MW 6094   1.261   0.321   1.966  0.5225 -0.3183 -1.0973
  522Sol     OW 6095   2.284   3.820   2.373  0.0906  0.1834 -0.8980
  522Sol     HW 6096   2.368   3.825   2.327  0.2069 -0.2962 -0.7341
  522Sol     HW 6097   2.239   3.901   2.348  1.3358  1.3126  0.4460
  522Sol     MW 6098   2.288   3.828   2.366 -0.2037 -0.0270  0.7503
  523Sol     OW 6099   0.690   0.384   2.004 -0.9711  0.1666 -0.3368
  523Sol     HW 6100   0.619   0.445   1.982 -0.2205  0.8320 -0.9449
  523Sol     HW 6101   0.765   0.416   1.954 -0.2871 -0.6401  0.1665
  523Sol     MW 6102   0.690   0.392   1.997  0.1945  0.2909 -0.2834
  524Sol     OW 6103   1.572   3.625   6.762 -0.4865 -0.0399 -0.4744
  524Sol     HW 6104   1.518   3.702   6.780  0.8373  0.7452  0.2143
  524Sol     HW 6105   1.520   3.552   6.795 -0.3913  0.8800  1.8804
  524Sol     MW 6106   1.562   3.625   6.767  0.5824 -0.1735  0.7560
  525Sol     OW 6107   1.738   1.342   3.149 -0.3079 -0.4233  0.6573
  525Sol     HW 6108   1.768   1.426   3.113 -2.7356  0.7850  1.3699
  525Sol     HW 6109   1.782   1.335   3.233 -1.8955  1.2954  1.6641
  525Sol     MW 6110   1.744   1.349   3.153  0.4845  0.2219 -0.2148
  526Sol     OW 6111   3.240   0.598   5.344  0.0137  0.8429  0.7336
  526Sol     HW 6112   3.303   0.533   5.312  0.0906  0.9369  0.6952
  526Sol     HW 6113   3.240   0.666   5.278  0.9719  1.5574  1.4578
  526Sol     MW 6114   3.245   0.598   5.335 -0.2347  0.0763  0.0032
  527Sol     OW 6115   2.939   2.208   1.413  0.4104 -0.2807  0.1704
  527Sol     HW 6116   2.907   2.198   1.324 -1.5166  1.4976  0.5989
  527Sol     HW 6117   3.034   2.212   1.405  0.2937 -0.9403 -1.6987
  527Sol     MW 6118   2.944   2.208   1.405 -0.4500  0.6386  0.6133
  528Sol     OW 6119   1.818   4.119   1.714 -0.2993 -0.0856  0.3217
  528Sol     HW 6120   1.747   4.178   1.739 -1.2484 -1.3974  0.7581
  528Sol     HW 6121   1.842   4.075   1.795  0.6076 -0.0828  0.0578
  528Sol     MW 6122   1.814   4.120   1.723 -0.9559  0.5639 -0.1645
  529Sol     OW 6123   1.962   4.031   5.294  0.3611 -0.1424 -0.3181
  529Sol     HW 6124   1.890   4.088   5.267 -0.4750 -1.1124 -0.1829
  529Sol     HW 6125   1.921   3.946   5.310  1.4664 -0.5934  0.2184
  529Sol     MW 6126   1.952   4.028   5.293  0.2887 -0.4402  0.0239
  530Sol     OW 6127   3.758   0.543   1.406 -0.4590  0.0314 -0.1606
  530Sol     HW 6128   3.674   0.587   1.420 -0.7069  0.0367 -1.6115
  530Sol     HW 6129   3.823   0.606   1.437 -0.8363  1.2526 -1.7775
  530Sol     MW 6130   3.756   0.552   1.410  0.0022 -0.3549 -0.3087
  531Sol     OW 6131   1.713   3.119   5.316  0.3633  0.0733  0.3038
  531Sol     HW 6132   1.671   3.177   5.380 -0.6883  1.5799 -1.7030
  531Sol     HW 6133   1.798   3.159   5.301  0.2738  0.1987  0.1283
  531Sol     MW 6134   1.717   3.128   5.321 -0.6007  0.4846  0.0065
  532Sol     OW 6135   2.749   0.055   6.452  0.2264  0.0225 -0.1691
  532Sol     HW 6136   2.661   0.017   6.451  0.6696 -1.1086  1.2979
  532Sol     HW 6137   2.796   0.007   6.384  0.3673 -1.0760  0.6828
  532Sol     MW 6138   2.745   0.047   6.446  0.1963  0.1578 -0.4263
  533Sol     OW 6139   0.243   0.015   3.604 -0.4994  0.7602  0.0102
  533Sol     HW 6140   0.232  -0.012   3.513 -2.6693  0.9971  0.1742
  533Sol     HW 6141   0.336   0.037   3.612  0.3905 -2.3718 -1.2844
  533Sol     MW 6142   0.250   0.015   3.597  0.2858 -0.1782 -0.5524
  534Sol     OW 6143   3.793   0.022   3.262  0.3488 -0.1549 -0.0989
  534Sol     HW 6144   3.834  -0.052   3.307  0.7420 -0.5946 -1.1418
  534Sol     HW 6145   3.779  -0.010   3.172 -2.6438 -0.1495  0.3089
  534Sol     MW 6146   3.796   0.012   3.258  0.0161  0.3280  0.0552
  535Sol     OW 6147   3.881   1.425   3.510  0.9484  0.0994  0.5319
  535Sol     HW 6148   3.805   1.472   3.476  0.3091  1.0350  3.0797
  535Sol     HW 6149   3.921   1.384   3.434  0.4674  3.2840 -1.5193
  535Sol     MW 6150   3.877   1.426   3.500  0.5206  0.3073  0.2727
  536Sol     OW 6151   3.375   2.710   2.641 -0.5382  0.1181 -0.6246
  536Sol     HW 6152   3.346   2.801   2.652  0.4563  0.3559  0.0428
  536Sol     HW 6153   3.309   2.659   2.687  0.3037  0.6976  1.2927
  536Sol     MW 6154   3.366   2.714   2.646 -0.0154 -0.0012  0.0850
  537Sol     OW 6155   2.740   3.435   2.968 -0.8730  0.2897 -0.6915
  537Sol     HW 6156   2.687   3.493   2.913  0.4982  1.8693 -0.3425
  537Sol     HW 6157   2.770   3.367   2.907  0.8812  2.1827 -1.9949
  537Sol     MW 6158   2.738   3.434   2.957  0.4095 -0.1775  0.7498
  538Sol     OW 6159   2.732   3.123   3.563  0.1078 -0.2708  0.1003
  538Sol     HW 6160   2.784   3.059   3.611 -0.0004 -0.5423 -0.1438
  538Sol     HW 6161   2.796   3.186   3.530  0.1004  0.3329  1.2331
  538Sol     MW 6162   2.742   3.123   3.564  0.8210 -0.5423  0.0596
  539Sol     OW 6163   3.049   0.790   1.501  0.4714  0.2084  0.2073
  539Sol     HW 6164   3.025   0.702   1.473 -0.0118  0.0786  1.0358
  539Sol     HW 6165   3.049   0.786   1.596  0.8563  0.9973  0.2452
  539Sol     MW 6166   3.047   0.782   1.507  0.2080 -0.6347 -0.1755
  540Sol     OW 6167   0.419   0.793   5.720  1.1030  0.2406 -0.3080
  540Sol     HW 6168   0.434   0.879   5.681 -0.9873  0.8057  0.0592
  540Sol     HW 6169   0.367   0.746   5.655 -0.5985  0.4488  0.8665
  540Sol     MW 6170   0.415   0.797   5.711 -1.1262  0.0018  0.4389
  541Sol     OW 6171   0.730   1.488   1.613  0.0444  0.1617  0.1117
  541Sol     HW 6172   0.697   1.406   1.652 -1.6312  1.6995  2.0392
  541Sol     HW 6173   0.813   1.503   1.656 -0.8180  0.7472  1.6155
  541Sol     MW 6174   0.734   1.482   1.620 -0.0026  0.4637 -0.2150
  542Sol     OW 6175   1.149   0.934   6.565  0.2308 -0.5972 -0.7385
  542Sol     HW 6176   1.240   0.907   6.556  0.1545 -0.2518 -2.9337
  542Sol     HW 6177   1.150   1.028   6.547 -0.5952 -0.6516 -1.0916
  542Sol     MW 6178   1.157   0.940   6.562  0.0350 -0.2238 -0.3754
  543Sol     OW 6179   3.690   0.863   5.873  0.0485 -1.0606 -0.3684
  543Sol     HW 6180   3.766   0.841   5.926 -0.1126  0.9930  0.7632
  543Sol     HW 6181   3.615   0.839   5.927 -0.1082 -1.4498 -0.7602
  543Sol     MW 6182   3.690   0.859   5.882 -0.0515  0.1293 -0.0649
  544Sol     OW 6183   3.533   0.351   2.885 -0.1301  0.3584 -0.2550
  544Sol     HW 6184   3.587   0.429   2.874 -0.8052  0.7335 -0.9713
  544Sol     HW 6185   3.503   0.355   2.976 -0.2595  0.9910 -0.3274
  544Sol     MW 6186   3.535   0.358   2.892  0.2669  0.2939  0.0008
  545Sol     OW 6187   0.507   3.998   5.120 -0.6955  0.6771  0.4243
  545Sol     HW 6188   0.550   3.939   5.059 -0.9869  0.5740  0.3199
  545Sol     HW 6189   0.425   3.954   5.144  0.5480 -0.4411  2.8058
  545Sol     MW 6190   0.503   3.989   5.117 -0.3824  0.3905 -0.1386
  546Sol     OW 6191   2.337   3.372   2.846  0.0297  0.2735  0.2019
  546Sol     HW 6192   2.403   3.380   2.777 -0.7382 -2.9200 -0.9640
  546Sol     HW 6193   2.265   3.428   2.816  0.8341  1.1550 -0.1299
  546Sol     MW 6194   2.337   3.378   2.837  0.1138 -0.2652  0.7754
  547Sol     OW 6195   0.184   3.347   6.525 -0.3808  0.4867  0.3530
  547Sol     HW 6196   0.255   3.390   6.477 -0.1937  0.7198  0.8372
  547Sol     HW 6197   0.191   3.380   6.615  0.4050 -1.2946  0.9874
  547Sol     MW 6198   0.191   3.353   6.529 -0.1365 -0.3228  0.0273
  548Sol     OW 6199   0.947   3.957   3.703 -0.0398 -0.2543 -0.2257
  548Sol     HW 6200   0.976   3.868   3.683  0.5068 -0.0524 -0.3453
  548Sol     HW 6201   0.876   3.974   3.641  0.3540 -0.3346 -0.6987
  548Sol     MW 6202   0.943   3.950   3.695 -0.4956  0.0567  0.2772
  549Sol     OW 6203   3.026   2.764   2.472 -0.0959  0.3884  0.2739
  549Sol     HW 6204   3.056   2.773   2.563  0.2937  1.5385  0.0407
  549Sol     HW 6205   3.083   2.697   2.435  1.9763  2.2749 -0.0479
  549Sol     MW 6206   3.034   2.759   2.477 -0.0942 -0.1938 -0.0678
  550Sol     OW 6207   1.726   0.756   3.645  0.4379 -0.0600 -0.2226
  550Sol     HW 6208   1.771   0.673   3.661 -0.9788 -0.9371 -0.6931
  550Sol     HW 6209   1.677   0.741   3.564 -1.0222  0.7241  0.5027
  550Sol     MW 6210   1.726   0.747   3.639  0.1854 -0.4413  0.1790
  551Sol     OW 6211   2.107   0.766   5.480  0.4962 -0.6889  0.4053
  551Sol     HW 6212   2.081   0.793   5.569 -0.8748  0.4027 -0.2955
  551Sol     HW 6213   2.110   0.848   5.431  0.7824 -1.3469 -0.6709
  551Sol     MW 6214   2.105   0.776   5.484  0.5231  0.2456  0.0391
  552Sol     OW 6215   3.396   3.312   5.015 -0.2670 -0.0121  0.4042
  552Sol     HW 6216   3.453   3.285   5.088 -0.0891  0.2618  0.3626
  552Sol     HW 6217   3.390   3.234   4.960 -2.8272 -1.2298  2.2578
  552Sol     MW 6218   3.401   3.302   5.017  0.0669 -0.5519 -0.5743
  553Sol     OW 6219   2.810   1.950   3.597 -0.0664 -0.3674  0.2063
  553Sol     HW 6220   2.756   1.886   3.549  0.0315 -0.3234  0.0394
  553Sol     HW 6221   2.750   2.022   3.616 -0.3962 -0.8633  1.1085
  553Sol     MW 6222   2.800   1.951   3.595 -0.7148  0.3205  0.0179
  554Sol     OW 6223   1.238   1.209   1.672  0.0486 -0.0451  0.0955
  554Sol     HW 6224   1.250   1.264   1.594 -2.2629  0.9126  0.3781
  554Sol     HW 6225   1.149   1.228   1.701 -0.0177 -2.3306  1.4885
  554Sol     MW 6226   1.231   1.216   1.668  0.1902 -0.1621 -0.4083
  555Sol     OW 6227   0.109   3.894   6.314 -0.1500 -0.4766  0.5212
  555Sol     HW 6228   0.147   3.820   6.267 -1.8786 -0.1480 -1.4475
  555Sol     HW 6229   0.061   3.943   6.247 -0.7421  1.2880  2.1928
  555Sol     MW 6230   0.109   3.892   6.304 -0.1310  1.0919  0.3206
  556Sol     OW 6231   3.589   2.418   5.693  0.6654 -0.1306  0.3131
  556Sol     HW 6232   3.626   2.490   5.744 -1.2302 -0.3532  2.0484
  556Sol     HW 6233   3.577   2.455   5.606 -0.9292  1.8964  1.3674
  556Sol     MW 6234   3.591   2.428   5.690 -1.0097  0.6984 -0.4866
  557Sol     OW 6235   3.232   2.362   6.432 -0.0502  0.0357  0.1194
  557Sol     HW 6236   3.313   2.405   6.460  0.4554 -0.0159 -1.2358
  557Sol     HW 6237   3.259   2.274   6.406 -0.4195  0.2196 -0.9421
  557Sol     MW 6238   3.242   2.358   6.432  0.5502 -0.4124  0.3341
  558Sol     OW 6239   2.621   1.294   6.715 -0.0102  0.1702 -0.1619
  558Sol     HW 6240   2.593   1.224   6.775 -1.2846  0.5334 -0.3062
  558Sol     HW 6241   2.540   1.341   6.695  0.3046 -0.3069 -2.6516
  558Sol     MW 6242   2.611   1.292   6.719 -0.7827  0.4764  0.2206
  559Sol     OW 6243   2.582   2.132   4.457  0.1301  0.4583  0.0424
  559Sol     HW 6244   2.508   2.072   4.450  1.7592 -1.4618 -1.3076
  559Sol     HW 6245   2.605   2.132   4.550  0.9770 -2.1237 -0.1346
  559Sol     MW 6246   2.577   2.127   4.464 -0.0916  0.2207  0.4463
  560Sol     OW 6247   0.713   2.756   2.195 -0.2686 -0.0355 -0.3793
  560Sol     HW 6248   0.710   2.776   2.289 -4.0761 -2.2233  0.0875
  560Sol     HW 6249   0.759   2.672   2.190  3.3519  1.8509 -0.9719
  560Sol     MW 6250   0.717   2.750   2.203  0.2505  0.0457  0.3064
  561Sol     OW 6251   2.150   1.690   4.710 -0.1026  0.1387 -1.1676
  561Sol     HW 6252   2.106   1.646   4.783  0.3549  0.8605 -0.4356
  561Sol     HW 6253   2.219   1.630   4.683 -0.5621 -0.3277 -1.2995
  561Sol     MW 6254   2.152   1.681   4.714 -0.2750 -0.3696 -0.0879
  562Sol     OW 6255   0.878   2.580   3.893 -0.2043 -0.7482  0.5277
  562Sol     HW 6256   0.938   2.627   3.951  0.2832  0.3784 -0.8677
  562Sol     HW 6257   0.934   2.525   3.839 -0.6222 -1.4341  0.7757
  562Sol     MW 6258   0.888   2.579   3.894  0.2270  0.5518  1.1391
  563Sol     OW 6259   2.739   1.400   4.343 -0.0779  0.1362 -0.5487
  563Sol     HW 6260   2.824   1.433   4.314 -1.2812  2.2405 -1.7538
  563Sol     HW 6261   2.678   1.425   4.274 -1.9962  0.1579  1.1026
  563Sol     MW 6262   2.741   1.405   4.335  0.1805  0.0112 -0.0393
  564Sol     OW 6263   3.077   0.782   1.766 -0.3290 -0.2032 -0.8039
  564Sol     HW 6264   2.995   0.795   1.814 -0.0282 -1.1647  0.0012
  564Sol     HW 6265   3.097   0.689   1.778  0.7750 -0.0171 -1.1571
  564Sol     MW 6266   3.072   0.775   1.772 -0.1126  0.7413 -0.0701
  565Sol     OW 6267   1.393   1.528   5.938 -0.0717 -0.4601  0.0269
  565Sol     HW 6268   1.408   1.510   5.846 -0.5533 -0.3738 -0.0667
  565Sol     HW 6269   1.332   1.602   5.939  1.0278  0.4727  0.4083
  565Sol     MW 6270   1.389   1.533   5.930  0.0103  0.4669  0.3889
  566Sol     OW 6271   1.846   1.233   3.381  0.7010  0.1156  0.1915
  566Sol     HW 6272   1.775   1.213   3.442 -0.0432  1.6569 -0.1446
  566Sol     HW 6273   1.904   1.293   3.430  1.4864 -0.7061  0.2780
  566Sol     MW 6274   1.845   1.237   3.391  0.3492 -0.1543  0.4193
  567Sol     OW 6275   4.037   2.274   6.421  0.3822 -0.1084  0.2919
  567Sol     HW 6276   4.057   2.258   6.513 -0.2497 -1.4354  0.2189
  567Sol     HW 6277   4.044   2.369   6.411  4.0015 -0.2743  0.8304
  567Sol     MW 6278   4.039   2.281   6.429 -0.3511  0.4796 -0.6922
  568Sol     OW 6279   1.705   0.255   5.418 -0.0219  0.2893 -0.0622
  568Sol     HW 6280   1.707   0.326   5.353  0.0341 -0.7144 -1.1848
  568Sol     HW 6281   1.774   0.277   5.480  0.9977  0.4557 -1.2354
  568Sol     MW 6282   1.711   0.264   5.417  0.2260 -0.0045 -0.3142
  569Sol     OW 6283   1.578   2.482   6.471  0.3072 -0.3512 -0.1186
  569Sol     HW 6284   1.660   2.504   6.516 -0.5183  0.1969  1.1301
  569Sol     HW 6285   1.510   2.526   6.521 -0.8568 -1.5231 -0.6247
  569Sol     MW 6286   1.579   2.488   6.480  0.6049  0.3143 -0.4010
  570Sol     OW 6287   1.289   0.156   5.491  0.3521 -0.2920 -0.2622
  570Sol     HW 6288   1.314   0.230   5.547 -1.5878  0.5982 -0.5368
  570Sol     HW 6289   1.326   0.178   5.406  0.5503 -0.0833 -0.1265
  570Sol     MW 6290   1.295   0.165   5.489 -0.0980  0.3912 -0.1976
  571Sol     OW 6291   0.156   0.735   2.760  0.2677  0.0284 -0.1407
  571Sol     HW 6292   0.204   0.691   2.690  0.7002 -0.9812  0.7893
  571Sol     HW 6293   0.196   0.822   2.766  0.6681 -0.1147 -0.6992
  571Sol     MW 6294   0.164   0.739   2.754 -0.0943 -0.0173 -0.3705
  572Sol     OW 6295   1.057   2.196   1.895  0.5246  0.2726 -0.4545
  572Sol     HW 6296   1.138   2.214   1.847  0.1175  0.8067 -0.9629
  572Sol     HW 6297   1.085   2.173   1.983  1.2077  1.0188 -0.4707
  572Sol     MW 6298   1.067   2.196   1.898 -0.2741  0.1754  0.1086
  573Sol     OW 6299   0.204   1.723   3.574 -0.0822  0.3940  0.1058
  573Sol     HW 6300   0.279   1.760   3.622  1.0079 -0.8728 -0.5878
  573Sol     HW 6301   0.128   1.746   3.627  0.8521  1.2459  1.1030
  573Sol     MW 6302   0.204   1.728   3.583 -0.0490 -0.0278 -0.4682
  574Sol     OW 6303   2.776   3.917   5.789 -0.3291  0.2015 -0.2274
  574Sol     HW 6304   2.733   3.856   5.849 -0.2644  1.1537  0.7828
  574Sol     HW 6305   2.856   3.872   5.763 -0.7105 -0.5179 -0.1800
  574Sol     MW 6306   2.779   3.907   5.792 -0.1625  0.4947 -0.6631
  575Sol     OW 6307   0.366   0.139   3.867  0.0848 -0.3470 -0.0179
  575Sol     HW 6308   0.386   0.177   3.953 -1.2374  2.1611 -0.7835
  575Sol     HW 6309   0.278   0.101   3.879  0.4815 -1.2271  0.1205
  575Sol     MW 6310   0.360   0.139   3.876  0.0239  1.1605  0.0004
  576Sol     OW 6311   3.548   3.054   1.616  0.3447 -0.0314  0.2610
  576Sol     HW 6312   3.631   3.017   1.588  0.3061 -0.1719  0.3336
  576Sol     HW 6313   3.484   2.985   1.601 -0.0866  0.7586 -1.6570
  576Sol     MW 6314   3.550   3.045   1.612  0.1470  0.8870 -0.2204
  577Sol     OW 6315   3.835   3.433   5.500  0.5274  0.1702 -0.0045
  577Sol     HW 6316   3.917   3.456   5.456  0.5098  0.1619 -0.0409
  577Sol     HW 6317   3.827   3.499   5.570  0.7336 -0.0245  0.2058
  577Sol     MW 6318   3.842   3.441   5.503 -0.5396  0.0230 -0.0917
  578Sol     OW 6319   2.972   2.739   2.182 -0.0028 -0.3465  0.6431
  578Sol     HW 6320   2.932   2.803   2.241 -4.1197 -0.5354 -1.7505
  578Sol     HW 6321   2.919   2.660   2.194  0.4511 -1.0364 -1.6920
  578Sol     MW 6322   2.963   2.738   2.189 -1.0070  0.0813  0.1196
  579Sol     OW 6323   0.991   3.409   6.284 -0.7788 -0.1958 -0.3212
  579Sol     HW 6324   0.939   3.416   6.364 -0.1405 -0.3081  0.1005
  579Sol     HW 6325   1.021   3.498   6.266  0.0585 -0.3747  0.2121
  579Sol     MW 6326   0.989   3.417   6.289  0.6208  0.0382 -0.4536
  580Sol     OW 6327   1.050   0.273   6.595  0.3623 -0.1026  0.7918
  580Sol     HW 6328   0.989   0.345   6.613  0.2686  0.7655 -2.7142
  580Sol     HW 6329   1.060   0.229   6.680  0.1055  3.7746  2.9769
  580Sol     MW 6330   1.045   0.276   6.604 -0.0446  0.2370  0.2955
  581Sol     OW 6331   3.653   3.063   6.256  0.1892 -0.5807 -0.1526
  581Sol     HW 6332   3.655   3.033   6.347 -0.3520  0.5693  0.2426
  581Sol     HW 6333   3.679   3.155   6.260  0.3137 -0.5678 -1.1780
  581Sol     MW 6334   3.655   3.068   6.265 -0.2320  0.1518 -0.2101
  582Sol     OW 6335   1.098   0.056   4.683 -0.4800 -0.1988 -0.4224
  582Sol     HW 6336   1.101   0.134   4.627 -1.3485 -0.0358 -0.2512
  582Sol     HW 6337   1.126  -0.015   4.626  1.4154  0.3887 -0.2805
  582Sol     MW 6338   1.101   0.057   4.673 -0.3347 -0.5175 -0.6096
  583Sol     OW 6339   0.386   2.222   1.244 -0.1488  0.1871  0.0520
  583Sol     HW 6340   0.480   2.213   1.252  0.1649  2.3661 -0.8392
  583Sol     HW 6341   0.361   2.285   1.311 -0.6552  1.2221 -1.0829
  583Sol     MW 6342   0.392   2.227   1.250 -0.0737  0.7150 -0.1768
  584Sol     OW 6343   3.240   2.942   2.896  0.0262 -0.5504 -0.2654
  584Sol     HW 6344   3.280   2.959   2.811  2.0290 -1.6719  0.4110
  584Sol     HW 6345   3.157   2.899   2.875 -0.2604  0.6777 -1.6832
  584Sol     MW 6346   3.236   2.939   2.887  0.3988 -0.5232  0.1479
  585Sol     OW 6347   1.696   0.676   2.323 -0.3958 -0.0555 -0.1864
  585Sol     HW 6348   1.774   0.685   2.377 -0.2493 -0.3692 -0.3430
  585Sol     HW 6349   1.713   0.728   2.245 -0.9508  1.0791  0.4446
  585Sol     MW 6350   1.704   0.681   2.321 -0.0577  0.1137 -0.1000
  586Sol     OW 6351   4.055   4.062   2.968  0.1367 -0.3815  0.6352
  586Sol     HW 6352   4.137   4.084   3.013  0.1637 -1.8470  1.3285
  586Sol     HW 6353   4.039   3.970   2.990 -0.6066 -0.7128 -1.1933
  586Sol     MW 6354   4.061   4.056   2.974 -0.0872 -0.4763 -0.0767
  587Sol     OW 6355   2.505   0.692   1.748  0.1868  0.3090  0.3519
  587Sol     HW 6356   2.452   0.716   1.823 -0.0371 -0.0124  0.2960
  587Sol     HW 6357   2.443   0.659   1.683  0.5122 -0.6366  0.5123
  587Sol     MW 6358   2.495   0.692   1.749 -0.2316 -0.0482 -0.6789
  588Sol     OW 6359   3.184   1.832   3.127  0.5404 -0.3421  0.6587
  588Sol     HW 6360   3.212   1.748   3.092  0.5633 -0.1912  0.3113
  588Sol     HW 6361   3.089   1.834   3.112  0.4346 -0.5873  1.2684
  588Sol     MW 6362   3.178   1.825   3.123 -0.0178  0.7620  0.3509
  589Sol     OW 6363   0.587   0.673   4.692  0.1055  0.3588  0.5853
  589Sol     HW 6364   0.512   0.661   4.634 -0.3930 -0.3144  1.3586
  589Sol     HW 6365   0.641   0.596   4.678 -0.4412 -0.2365  1.6192
  589Sol     MW 6366   0.585   0.665   4.686  0.0976  0.7093  0.0439
  590Sol     OW 6367   1.625   1.927   2.369  0.2136  0.2162  0.2544
  590Sol     HW 6368   1.595   2.014   2.340  0.5446  0.5005  0.7524
  590Sol     HW 6369   1.572   1.865   2.320  0.5530  0.7017 -0.7343
  590Sol     MW 6370   1.618   1.930   2.362  0.2332 -0.1354 -0.1010
  591Sol     OW 6371   1.831   1.049   4.047 -0.0297 -0.4253  0.8208
  591Sol     HW 6372   1.767   0.999   4.097 -0.7763  1.4256  1.7746
  591Sol     HW 6373   1.790   1.135   4.035  1.3757  0.0928 -0.4447
  591Sol     MW 6374   1.822   1.053   4.050 -0.5057 -0.0165 -0.8246
  592Sol     OW 6375   3.992   4.020   6.125 -0.2763 -0.5078  0.1308
  592Sol     HW 6376   3.901   4.014   6.156  1.0958 -0.9107  4.4594
  592Sol     HW 6377   4.003   4.111   6.099 -2.1067 -0.6380 -1.2202
  592Sol     MW 6378   3.985   4.027   6.125 -0.2936 -0.2227 -0.2891
  593Sol     OW 6379   3.990   1.753   5.060  0.0250 -0.0627  0.2380
  593Sol     HW 6380   4.041   1.781   4.984 -0.6005 -2.2617 -1.0547
  593Sol     HW 6381   3.905   1.796   5.048  0.3623  0.6426  0.3901
  593Sol     MW 6382   3.987   1.759   5.052  0.3777 -0.2806  0.4106
  594Sol     OW 6383   0.922   2.246   6.895 -0.2272 -0.1561  0.2238
  594Sol     HW 6384   0.982   2.201   6.955  0.2957 -1.1212 -1.0121
  594Sol     HW 6385   0.883   2.315   6.949 -0.8148 -1.8823  2.0866
  594Sol     MW 6386   0.924   2.248   6.906 -0.4294  0.3116  0.6974
  595Sol     OW 6387   1.067   1.970   5.590  0.0940 -0.0992 -0.4865
  595Sol     HW 6388   1.133   1.903   5.571  1.2911  0.8364  0.2541
  595Sol     HW 6389   1.001   1.925   5.642  1.1193 -0.6064  0.3946
  595Sol     MW 6390   1.067   1.960   5.593  0.2585 -0.1425  0.5575
  596Sol     OW 6391   3.627   1.815   2.090 -0.1783  0.4812  0.1639
  596Sol     HW 6392   3.582   1.738   2.122  0.4478  0.6056  1.3602
  596Sol     HW 6393   3.691   1.836   2.158  0.3189  1.4769 -0.5938
  596Sol     MW 6394   3.628   1.810   2.099  0.5651  0.3414 -0.4644
  597Sol     OW 6395   1.298   3.478   2.667 -0.0181 -0.1645 -0.3157
  597Sol     HW 6396   1.288   3.460   2.574  2.2115 -1.1145 -0.4150
  597Sol     HW 6397   1.334   3.566   2.670 -1.0660  0.2670 -0.2984
  597Sol     MW 6398   1.300   3.484   2.659 -0.0095  0.0031  0.2367
  598Sol     OW 6399   3.556   1.937   3.719 -0.2844  0.3391  0.2185
  598Sol     HW 6400   3.492   1.874   3.753  0.2627 -0.5575 -0.3673
  598Sol     HW 6401   3.507   2.018   3.708 -1.0345 -0.0181  0.8943
  598Sol     MW 6402   3.546   1.938   3.721  0.4454 -0.1203 -0.6877
  599Sol     OW 6403   0.290   2.724   5.857  0.4499  0.1660 -0.3888
  599Sol     HW 6404   0.344   2.672   5.917  1.2780  0.8753 -0.5153
  599Sol     HW 6405   0.211   2.671   5.845 -0.1943  0.4931  2.1464
  599Sol     MW 6406   0.288   2.714   5.861 -0.1597 -0.2133  0.5712
  600Sol     OW 6407   1.028   3.407   4.528 -0.3531 -0.8861 -0.0144
  600Sol     HW 6408   0.937   3.418   4.499 -0.4398  0.4890  0.7170
  600Sol     HW 6409   1.035   3.462   4.606  1.2138 -0.6885 -0.2771
  600Sol     MW 6410   1.020   3.413   4.533  0.0676 -0.0318 -0.2884
  601Sol     OW 6411   1.537   4.080   4.674 -0.4867 -0.4006  0.8214
  601Sol     HW 6412   1.549   4.141   4.601  0.0812 -0.4322  0.8872
  601Sol     HW 6413   1.450   4.042   4.659  0.1460 -1.3802 -0.5726
  601Sol     MW 6414   1.530   4.082   4.666 -0.9623  0.9403 -0.2801
  602Sol     OW 6415   2.108   3.829   4.450 -0.3006 -0.0863 -0.5418
  602Sol     HW 6416   2.195   3.788   4.452 -0.0914  0.3751 -0.2060
  602Sol     HW 6417   2.126   3.923   4.445 -0.7774  0.0592  0.3389
  602Sol     MW 6418   2.118   3.834   4.450  0.3958 -0.0243 -0.2491
  603Sol     OW 6419   1.343   3.006   3.504 -0.0786  0.2168  0.7240
  603Sol     HW 6420   1.405   3.009   3.430 -0.9697 -2.0333 -0.1449
  603Sol     HW 6421   1.326   3.098   3.524  1.5584  0.8638 -0.7092
  603Sol     MW 6422   1.347   3.015   3.499 -0.0204 -0.4507 -0.2752
  604Sol     OW 6423   3.335   3.084   4.333  0.6731 -0.3584 -0.0966
  604Sol     HW 6424   3.332   2.995   4.298  0.6539 -0.6211  0.5702
  604Sol     HW 6425   3.387   3.132   4.269 -0.0335 -0.6453 -0.9008
  604Sol     MW 6426   3.339   3.080   4.324 -0.0071 -0.4926  0.0532
  605Sol     OW 6427   3.001   3.463   2.330 -0.3040  0.2613  0.2018
  605Sol     HW 6428   3.078   3.415   2.362  0.1408 -0.2591 -1.5837
  605Sol     HW 6429   2.970   3.412   2.255 -1.6070  1.1816  0.0948
  605Sol     MW 6430   3.005   3.454   2.326 -0.5513 -0.4260  0.0175
  606Sol     OW 6431   1.229   4.074   5.223  0.1925 -0.0455  0.4804
  606Sol     HW 6432   1.196   4.070   5.133 -0.9752  2.9844  0.7083
  606Sol     HW 6433   1.320   4.101   5.214  0.1560 -0.0148  0.1893
  606Sol     MW 6434   1.234   4.076   5.214 -0.2674  0.1363 -0.1688
  607Sol     OW 6435   0.662   3.720   6.224 -0.1329 -0.7939 -0.0627
  607Sol     HW 6436   0.634   3.656   6.157 -1.0971 -0.0122 -0.4175
  607Sol     HW 6437   0.686   3.798   6.173  2.0160 -1.1964  0.2931
  607Sol     MW 6438   0.661   3.721   6.213  0.2117  0.3016 -0.0528
  608Sol     OW 6439   3.331   3.577   5.811  0.4253 -0.1986  0.8204
  608Sol     HW 6440   3.383   3.621   5.878  1.6448  0.0562 -0.2788
  608Sol     HW 6441   3.320   3.488   5.842  4.3023 -1.1890 -0.4441
  608Sol     MW 6442   3.335   3.573   5.819  0.2149  0.2286  0.8670
  609Sol     OW 6443   0.107   4.106   5.177  0.2554  0.4417  0.0833
  609Sol     HW 6444   0.061   4.093   5.260 -0.6669  1.1279 -0.3092
  609Sol     HW 6445   0.125   4.018   5.146 -0.0028  0.1695  0.6825
  609Sol     MW 6446   0.104   4.097   5.182 -0.1622  0.2485 -0.1125
  610Sol     OW 6447   1.146   0.095   6.368 -0.1840 -0.0592  0.5565
  610Sol     HW 6448   1.148   0.148   6.288  2.0999  0.4016  0.9068
  610Sol     HW 6449   1.099   0.150   6.431 -0.0191  0.5046  0.1991
  610Sol     MW 6450   1.142   0.105   6.366  0.0630  0.2950  0.3552
  611Sol     OW 6451   1.563   0.743   1.318  0.1523 -0.2418  0.5482
  611Sol     HW 6452   1.622   0.775   1.385  0.4614 -2.0720  1.1681
  611Sol     HW 6453   1.491   0.701   1.366  0.4692 -1.7343 -0.2182
  611Sol     MW 6454   1.562   0.742   1.328  0.0080  0.9036  0.0697
  612Sol     OW 6455   3.862   2.005   5.982  0.3692 -0.5543 -0.6056
  612Sol     HW 6456   3.844   1.931   6.039  2.0833  0.0401  0.7585
  612Sol     HW 6457   3.803   2.074   6.014 -0.2905 -0.9202 -1.0280
  612Sol     MW 6458   3.855   2.005   5.990  0.5105 -0.1053  0.0148
  613Sol     OW 6459   0.569   2.617   3.743  0.0326 -0.7282  0.2066
  613Sol     HW 6460   0.490   2.651   3.784  0.9534  1.0916  0.5243
  613Sol     HW 6461   0.586   2.534   3.788 -0.6823 -0.2574  1.3652
  613Sol     MW 6462   0.563   2.613   3.750 -0.5368 -0.1326  0.0549
  614Sol     OW 6463   0.323   0.406   2.045 -0.1501  0.2834  0.0813
  614Sol     HW 6464   0.367   0.473   1.993 -0.5945  0.3080 -0.2646
  614Sol     HW 6465   0.230   0.421   2.029 -0.3221  0.7382  1.4411
  614Sol     MW 6466   0.319   0.413   2.039  0.0070 -0.8591  0.1499
  615Sol     OW 6467   1.877   1.505   6.043  0.3539  0.1868 -0.9590
  615Sol     HW 6468   1.930   1.492   6.122  1.8263 -0.6966 -2.0823
  615Sol     HW 6469   1.798   1.452   6.058  0.8097 -0.2928 -0.2582
  615Sol     MW 6470   1.874   1.499   6.052 -0.6336  0.4454  0.1057
  616Sol     OW 6471   0.103   1.630   3.317  0.1795 -0.4415 -0.2116
  616Sol     HW 6472   0.038   1.688   3.278 -0.5091 -1.9955 -1.4455
  616Sol     HW 6473   0.156   1.687   3.373 -0.6091  1.3101 -1.2170
  616Sol     MW 6474   0.102   1.640   3.319 -0.2978 -0.2379 -0.4433
  617Sol     OW 6475   1.467   0.942   2.090 -0.3569  0.2265 -0.2415
  617Sol     HW 6476   1.420   0.940   2.174 -0.9209  1.5748 -0.5122
  617Sol     HW 6477   1.457   1.032   2.059  2.5098  0.6021 -0.2423
  617Sol     MW 6478   1.462   0.950   2.095 -0.1292  0.6238  0.4934
  618Sol     OW 6479   3.544   1.442   5.991 -0.1356 -0.9006  0.3646
  618Sol     HW 6480   3.587   1.417   5.910  0.8513  2.1218 -0.0963
  618Sol     HW 6481   3.606   1.418   6.060  1.1633  0.9851 -0.1232
  618Sol     MW 6482   3.554   1.437   5.990 -0.8850  0.2570 -0.7491
  619Sol     OW 6483   0.417   3.631   2.841 -0.0674 -0.3172  0.1275
  619Sol     HW 6484   0.378   3.570   2.778 -2.3518  1.7825 -0.6053
  619Sol     HW 6485   0.384   3.602   2.926 -1.0454 -0.2115 -0.2047
  619Sol     MW 6486   0.410   3.623   2.843  0.4336 -0.8250  0.2112
  620Sol     OW 6487   0.610   1.933   4.897 -0.5882  0.1306 -0.3899
  620Sol     HW 6488   0.649   2.007   4.945  0.8776 -0.8372 -0.0640
  620Sol     HW 6489   0.520   1.960   4.881 -0.1230  1.9210 -0.1066
  620Sol     MW 6490   0.606   1.942   4.900  0.0451  0.7938  0.3465
  621Sol     OW 6491   0.578   2.165   3.534 -0.5073  0.4336 -0.1257
  621Sol     HW 6492   0.526   2.086   3.550  0.6720 -0.5405 -1.0116
  621Sol     HW 6493   0.569   2.216   3.614 -1.8161 -0.2998  0.2097
  621Sol     MW 6494   0.572   2.162   3.542 -0.2532 -0.3350 -0.1782
  622Sol     OW 6495   0.375   2.391   3.997 -0.3805 -0.4922  0.2653
  622Sol     HW 6496   0.394   2.463   4.058  0.8106  0.9697 -1.8034
  622Sol     HW 6497   0.292   2.416   3.956  0.9090  0.5830 -1.7259
  622Sol     MW 6498   0.369   2.400   3.999  0.2547  0.0648 -0.2107
  623Sol     OW 6499   1.183   2.827   6.045  0.3564  0.0883  0.2402
  623Sol     HW 6500   1.207   2.920   6.038  0.4728  0.0852  0.5822
  623Sol     HW 6501   1.202   2.805   6.136  1.8851 -0.7127 -0.2699
  623Sol     MW 6502   1.187   2.834   6.052 -0.4695  0.2347 -0.0693
  624Sol     OW 6503   3.960   2.223   1.734 -0.3062 -0.2595 -0.1761
  624Sol     HW 6504   3.906   2.245   1.810 -0.3342  0.1052 -0.3006
  624Sol     HW 6505   3.955   2.127   1.728 -0.2661 -0.2915  0.3055
  624Sol     MW 6506   3.955   2.216   1.740 -0.2364 -0.1363 -0.3708
  625Sol     OW 6507   1.847   2.686   3.088  0.1256  0.4838  0.2167
  625Sol     HW 6508   1.877   2.762   3.137  0.8825  1.2604 -1.3974
  625Sol     HW 6509   1.884   2.698   3.000 -0.1336 -1.5019 -0.1975
  625Sol     MW 6510   1.853   2.694   3.084 -0.0833  0.4701 -0.2940
  626Sol     OW 6511   0.406   0.437   5.226  0.2607 -0.0169  0.1856
  626Sol     HW 6512   0.469   0.364   5.230 -1.5453 -1.7198 -1.3769
  626Sol     HW 6513   0.403   0.462   5.134 -1.7895 -0.3782  0.1303
  626Sol     MW 6514   0.412   0.432   5.218  1.4542 -0.0713 -0.4985
  627Sol     OW 6515   0.281   3.042   3.424 -0.6453 -0.0274  0.4976
  627Sol     HW 6516   0.217   3.014   3.359 -1.2604 -0.2210  1.1752
  627Sol     HW 6517   0.264   2.986   3.500 -0.1318  0.3955  0.9345
  627Sol     MW 6518   0.274   3.034   3.425  0.3732 -0.1256 -0.3511
  628Sol     OW 6519   0.437   3.261   1.477  0.1378 -0.3394  0.2742
  628Sol     HW 6520   0.397   3.231   1.395 -1.0670  2.9049 -0.4211
  628Sol     HW 6521   0.364   3.267   1.539  0.6344 -0.4112  0.8756
  628Sol     MW 6522   0.427   3.259   1.475  0.2831  0.0532  0.4434
  629Sol     OW 6523   2.271   1.855   5.094  0.6643  0.0745  0.1667
  629Sol     HW 6524   2.208   1.871   5.024  0.2489 -0.8127  0.3276
  629Sol     HW 6525   2.326   1.784   5.061  1.7710  1.0316 -0.0879
  629Sol     MW 6526   2.270   1.850   5.085  0.1173 -0.0567 -0.2782
  630Sol     OW 6527   3.763   1.890   3.890  0.0299  0.3422  0.0814
  630Sol     HW 6528   3.697   1.925   3.830  0.1318 -0.5961 -0.5885
  630Sol     HW 6529   3.724   1.810   3.925  0.3025  0.4582  0.6558
  630Sol     MW 6530   3.754   1.886   3.887  0.2979  0.2940  0.3378
  631Sol     OW 6531   1.455   1.453   6.309  0.1011  0.2154 -0.3722
  631Sol     HW 6532   1.413   1.368   6.319  0.2078  0.1086 -0.8313
  631Sol     HW 6533   1.390   1.516   6.341  0.7500 -0.1649  1.8451
  631Sol     MW 6534   1.446   1.451   6.313 -0.5371  0.0663 -0.0686
  632Sol     OW 6535   1.414   3.707   6.099 -0.2264 -0.4474 -0.2817
  632Sol     HW 6536   1.478   3.676   6.162 -1.9293 -1.6336  0.9310
  632Sol     HW 6537   1.398   3.798   6.123  1.5848  0.1129 -1.1195
  632Sol     MW 6538   1.418   3.712   6.107 -0.0055 -0.6524 -0.6210
  633Sol     OW 6539   3.892   1.533   6.695 -0.1135 -0.1051  0.7497
  633Sol     HW 6540   3.833   1.510   6.766  0.1999  0.5743  1.2420
  633Sol     HW 6541   3.977   1.546   6.738 -0.4613  2.8158  0.6476
  633Sol     MW 6542   3.895   1.532   6.705  0.4759  0.4337 -0.1470
  634Sol     OW 6543   3.636   4.028   2.492  0.5519  0.0962  0.0944
  634Sol     HW 6544   3.665   4.040   2.582  3.5811 -0.1856 -0.7596
  634Sol     HW 6545   3.707   4.065   2.439 -1.2955  0.5277 -2.1806
  634Sol     MW 6546   3.645   4.032   2.495 -0.0872  0.0876  0.1853
  635Sol     OW 6547   3.561   3.962   3.408 -0.3273  0.5005  0.1692
  635Sol     HW 6548   3.584   3.971   3.316  0.5968 -0.1518  0.3295
  635Sol     HW 6549   3.488   3.900   3.408  0.0511  0.0479 -0.0843
  635Sol     MW 6550   3.557   3.957   3.400  0.3661  0.1129 -0.0373
  636Sol     OW 6551   1.055   0.120   1.999  0.0723  0.2450  0.0033
  636Sol     HW 6552   1.142   0.160   2.004  0.9653 -1.3074 -2.0637
  636Sol     HW 6553   0.998   0.179   2.047  1.6547  3.0487 -1.4212
  636Sol     MW 6554   1.058   0.129   2.003 -0.0564 -0.4178  0.1198
  637Sol     OW 6555   2.225   3.382   1.619 -0.7033 -0.2243 -0.7778
  637Sol     HW 6556   2.173   3.458   1.645 -1.0013 -0.3127 -1.1100
  637Sol     HW 6557   2.199   3.314   1.681 -0.0938  0.0764 -0.1891
  637Sol     MW 6558   2.218   3.383   1.627 -0.9002 -0.2224  0.1015
  638Sol     OW 6559   0.363   1.358   4.469 -0.0090  0.0871  0.3877
  638Sol     HW 6560   0.299   1.343   4.538 -2.1019 -0.3160 -1.5511
  638Sol     HW 6561   0.418   1.429   4.501 -1.1443  0.1260  2.3035
  638Sol     MW 6562   0.362   1.363   4.478 -0.2227 -0.0484  0.0820
  639Sol     OW 6563   1.324   2.419   4.474  0.0995 -0.1660 -0.1209
  639Sol     HW 6564   1.294   2.377   4.554 -0.9607  0.2232 -0.3144
  639Sol     HW 6565   1.377   2.493   4.504 -2.2552  1.4220  0.2627
  639Sol     MW 6566   1.326   2.422   4.484 -0.4197  0.0334 -0.0252
  640Sol     OW 6567   2.533   3.552   4.795 -0.6779 -0.0629 -0.4684
  640Sol     HW 6568   2.457   3.495   4.807 -1.5215  0.9965 -0.7498
  640Sol     HW 6569   2.555   3.582   4.883 -0.3363 -0.6657 -0.3408
  640Sol     MW 6570   2.528   3.549   4.804  0.4445 -0.0631  0.3697
  641Sol     OW 6571   3.443   0.032   2.798  0.0544 -0.1350  0.3949
  641Sol     HW 6572   3.456   0.009   2.890  1.6836  0.6017  0.3626
  641Sol     HW 6573   3.352   0.060   2.793  0.5050  1.7616  2.2062
  641Sol     MW 6574   3.436   0.032   2.806 -0.3060 -0.1525  1.1567
  642Sol     OW 6575   1.280   3.930   5.534  0.4357 -0.8796 -0.0642
  642Sol     HW 6576   1.236   3.897   5.456  1.3037 -0.5820 -0.6852
  642Sol     HW 6577   1.371   3.942   5.507  0.5591  0.0583  0.7379
  642Sol     MW 6578   1.284   3.928   5.525 -0.3736 -0.3698 -0.6790
  643Sol     OW 6579   0.487   3.343   5.927  0.0704 -0.4095 -0.0246
  643Sol     HW 6580   0.502   3.261   5.975 -0.8179 -0.2108  0.6016
  643Sol     HW 6581   0.469   3.315   5.837 -0.9450 -0.9699  0.3356
  643Sol     MW 6582   0.486   3.333   5.924 -0.4991  0.3653  0.3763
  644Sol     OW 6583   1.807   1.048   6.618  0.1539 -0.8736  0.1035
  644Sol     HW 6584   1.858   1.125   6.645 -2.2650  0.9255 -0.2240
  644Sol     HW 6585   1.867   0.998   6.562  1.9011  0.5979  0.6158
  644Sol     MW 6586   1.817   1.051   6.615 -0.2712 -0.5796 -0.2261
  645Sol     OW 6587   3.699   1.692   4.660 -0.5041  0.2162  0.5658
  645Sol     HW 6588   3.642   1.687   4.737 -2.6566 -0.1668 -0.9915
  645Sol     HW 6589   3.781   1.651   4.688 -0.9561  0.8608  2.8976
  645Sol     MW 6590   3.701   1.688   4.669 -0.1930 -0.1863 -0.1027
  646Sol     OW 6591   1.278   0.660   2.305 -0.5322  0.1645 -0.3506
  646Sol     HW 6592   1.274   0.755   2.314 -0.5005  0.3442 -2.1023
  646Sol     HW 6593   1.347   0.633   2.366 -0.0814  1.3306 -0.3385
  646Sol     MW 6594   1.284   0.666   2.311  0.8337  0.0587 -0.1340
  647Sol     OW 6595   0.349   3.915   6.092 -0.2544  1.1128  0.0179
  647Sol     HW 6596   0.377   3.973   6.162  0.9129 -1.3850  1.6937
  647Sol     HW 6597   0.430   3.877   6.058 -1.0478 -0.2466 -0.3971
  647Sol     MW 6598   0.359   3.917   6.095  0.1817 -0.6867  0.8475
  648Sol     OW 6599   4.014   0.489   2.824  0.5603 -0.1681 -0.8293
  648Sol     HW 6600   4.039   0.400   2.849 -0.7447 -0.1183  0.7407
  648Sol     HW 6601   4.072   0.546   2.874  0.6990 -0.1227 -1.0410
  648Sol     MW 6602   4.021   0.486   2.831  0.5922  0.4440 -0.3459
  649Sol     OW 6603   3.929   0.087   2.653 -0.7740 -0.2630 -0.4705
  649Sol     HW 6604   3.978   0.121   2.578  0.1856 -0.2445  0.1553
  649Sol     HW 6605   3.840   0.075   2.620 -0.7862  1.4417 -1.1216
  649Sol     MW 6606   3.926   0.089   2.643  0.3889  0.2404  0.0738
  650Sol     OW 6607   3.176   1.856   5.336 -0.1192  0.7217 -0.2908
  650Sol     HW 6608   3.225   1.778   5.309 -2.0174 -0.9534  0.9720
  650Sol     HW 6609   3.218   1.928   5.288  1.8694 -1.0080 -1.2489
  650Sol     MW 6610   3.184   1.855   5.329  0.1190  0.5078 -0.1552
  651Sol     OW 6611   1.661   0.573   6.639  0.2913 -0.7763  0.1009
  651Sol     HW 6612   1.728   0.525   6.688  0.4861 -0.7430 -0.1332
  651Sol     HW 6613   1.600   0.505   6.609  2.1994 -1.2701 -2.8450
  651Sol     MW 6614   1.661   0.563   6.641 -0.2806 -0.0890 -0.5172
  652Sol     OW 6615   3.744   0.811   1.687 -0.3845  0.0670 -0.0122
  652Sol     HW 6616   3.655   0.818   1.653 -0.5113  0.7015  0.4420
  652Sol     HW 6617   3.750   0.879   1.755  0.7635  0.7448 -0.7564
  652Sol     MW 6618   3.737   0.818   1.690  0.8772  0.8170  0.0479
  653Sol     OW 6619   2.312   3.291   1.984  0.2481 -0.0441  0.5584
  653Sol     HW 6620   2.253   3.228   1.943 -0.1734  1.2474 -0.8562
  653Sol     HW 6621   2.309   3.368   1.927 -1.1254  2.2063  3.5319
  653Sol     MW 6622   2.306   3.293   1.975 -0.4629 -0.7480 -0.4352
  654Sol     OW 6623   0.581   3.630   3.948  0.3045 -0.4763  0.2621
  654Sol     HW 6624   0.630   3.609   4.028 -0.6303 -0.7161  0.7760
  654Sol     HW 6625   0.527   3.705   3.972  2.2608  1.4163 -1.0387
  654Sol     MW 6626   0.581   3.635   3.958 -0.2357 -0.5237  0.3034
  655Sol     OW 6627   0.537   0.406   3.799  0.0879 -0.3698  0.3186
  655Sol     HW 6628   0.498   0.491   3.818 -0.7899 -0.4014 -1.2545
  655Sol     HW 6629   0.463   0.349   3.778  0.6719 -1.5174  1.2740
  655Sol     MW 6630   0.527   0.408   3.799 -0.9737 -0.9510  0.6046
  656Sol     OW 6631   2.515   0.310   2.015  0.5059 -0.9225  0.0647
  656Sol     HW 6632   2.596   0.261   2.004  0.3265 -1.1884 -0.0605
  656Sol     HW 6633   2.537   0.379   2.078  1.2090 -0.1240 -1.0315
  656Sol     MW 6634   2.524   0.312   2.020  0.0782 -0.0156  0.0830
  657Sol     OW 6635   0.523   0.834   2.631 -0.5234 -0.5098  0.1672
  657Sol     HW 6636   0.448   0.841   2.571  0.2686 -2.1134 -1.0616
  657Sol     HW 6637   0.516   0.747   2.668 -0.7878  0.3363  2.1918
  657Sol     MW 6638   0.516   0.827   2.629 -0.2840 -0.5418  0.5977
  658Sol     OW 6639   3.405   0.335   6.364  0.5446  0.0247  0.2903
  658Sol     HW 6640   3.464   0.358   6.436 -1.4089  0.5158  1.8138
  658Sol     HW 6641   3.412   0.408   6.303  0.3770  0.8380  1.2217
  658Sol     MW 6642   3.411   0.344   6.365  0.1853 -0.1610  0.4999
  659Sol     OW 6643   1.707   2.810   5.969 -0.0892 -0.2592 -0.4630
  659Sol     HW 6644   1.749   2.811   5.883  1.4343  1.6107  0.2732
  659Sol     HW 6645   1.617   2.836   5.952 -0.7550 -3.2398 -1.9153
  659Sol     MW 6646   1.703   2.812   5.960 -0.0163 -1.1551 -1.0528
  660Sol     OW 6647   2.455   1.377   5.423 -0.4533  0.0857  0.0224
  660Sol     HW 6648   2.384   1.346   5.479 -0.8870  0.9482 -0.0457
  660Sol     HW 6649   2.533   1.332   5.456 -1.0454 -0.9548  0.0196
  660Sol     MW 6650   2.456   1.370   5.431  0.3938  0.5073  0.3383
  661Sol     OW 6651   1.017   1.558   2.255 -0.1141 -0.1869  0.1789
  661Sol     HW 6652   0.960   1.621   2.298 -1.1126 -2.2362  1.9385
  661Sol     HW 6653   0.969   1.532   2.176 -0.1883  0.4358  0.0173
  661Sol     MW 6654   1.008   1.561   2.252 -0.5907  0.3029  0.4329
  662Sol     OW 6655   2.667   2.263   5.766 -0.7006 -0.0372 -0.0289
  662Sol     HW 6656   2.723   2.190   5.791  0.9337  1.3279  0.3582
  662Sol     HW 6657   2.704   2.294   5.683 -0.9374  0.8050  0.1764
  662Sol     MW 6658   2.675   2.259   5.761 -0.2611  0.9682  0.3384
  663Sol     OW 6659   2.040   2.368   2.177 -0.2233  0.8123 -0.1996
  663Sol     HW 6660   2.119   2.399   2.134 -0.2789 -1.2180 -1.8426
  663Sol     HW 6661   2.063   2.363   2.270  1.3131  1.0250 -0.5544
  663Sol     MW 6662   2.049   2.370   2.182 -0.1651  0.1820  0.0553
  664Sol     OW 6663   3.665   0.543   5.215  0.1103  0.6167  0.0435
  664Sol     HW 6664   3.721   0.480   5.261  0.3210  0.3398 -0.5900
  664Sol     HW 6665   3.674   0.624   5.265  1.3918  0.6882 -0.2839
  664Sol     MW 6666   3.671   0.544   5.224  0.1531 -0.0055 -0.0417
  665Sol     OW 6667   1.399   0.319   5.686  0.4949  0.3373 -0.0443
  665Sol     HW 6668   1.437   0.407   5.686  0.5433  0.3155  0.1339
  665Sol     HW 6669   1.385   0.298   5.778 -0.7717  0.7077 -0.1383
  665Sol     MW 6670   1.401   0.325   5.694  0.6081 -0.1080 -0.2457
  666Sol     OW 6671   2.798   3.865   1.719 -0.3966 -0.2703  0.0878
  666Sol     HW 6672   2.800   3.891   1.627  0.7232 -1.6936 -0.3097
  666Sol     HW 6673   2.738   3.790   1.721  2.6597 -2.8418 -0.2345
  666Sol     MW 6674   2.793   3.860   1.711 -0.1044  0.5381 -0.0064
  667Sol     OW 6675   1.458   3.885   4.341  0.1626 -0.4616 -0.2302
  667Sol     HW 6676   1.449   3.892   4.246 -0.5458 -0.5119 -0.1732
  667Sol     HW 6677   1.539   3.933   4.361 -0.7744  1.3524 -0.6312
  667Sol     MW 6678   1.464   3.890   4.334  0.3189 -0.2457  0.3631
  668Sol     OW 6679   1.199   0.931   3.742 -0.2937  0.2454  0.3333
  668Sol     HW 6680   1.175   1.015   3.779  0.2289  0.7992 -0.5662
  668Sol     HW 6681   1.127   0.873   3.766 -1.7400  1.4841 -0.9195
  668Sol     MW 6682   1.191   0.933   3.747  0.1189 -0.2070 -0.2574
  669Sol     OW 6683   2.031   2.344   1.559 -0.1428  0.4010 -0.1244
  669Sol     HW 6684   2.009   2.437   1.556  0.1160  0.4839  0.5063
  669Sol     HW 6685   2.120   2.341   1.594 -0.3875 -0.1211  0.4572
  669Sol     MW 6686   2.037   2.352   1.562 -0.2392  0.4215 -0.1137
  670Sol     OW 6687   3.932   0.378   2.283 -0.2876  0.2717 -0.2034
  670Sol     HW 6688   3.866   0.372   2.214  0.2878  2.8932 -1.0274
  670Sol     HW 6689   4.002   0.430   2.245  0.4800  0.9302  2.0379
  670Sol     MW 6690   3.932   0.382   2.273 -0.1182 -0.7359 -0.0421
  671Sol     OW 6691   3.108   2.177   2.350 -0.6450  0.3175  0.4310
  671Sol     HW 6692   3.203   2.175   2.337 -0.7278 -1.4692 -0.0222
  671Sol     HW 6693   3.072   2.166   2.262 -1.2396 -2.0923  0.9360
  671Sol     MW 6694   3.114   2.175   2.341 -0.0619  0.4468 -0.3627
  672Sol     OW 6695   0.214   2.723   1.775 -0.1830 -0.6128 -0.7776
  672Sol     HW 6696   0.213   2.810   1.734 -0.7513 -0.5144 -0.5576
  672Sol     HW 6697   0.307   2.702   1.784 -0.0453 -0.1194 -1.0253
  672Sol     MW 6698   0.223   2.729   1.772 -0.6647 -0.1625  0.9956
  673Sol     OW 6699   1.088   2.934   3.418 -0.0554 -0.1418  0.4763
  673Sol     HW 6700   1.064   2.969   3.332 -0.9925  0.0262  0.7983
  673Sol     HW 6701   1.171   2.976   3.439  0.0047  0.0803 -0.1983
  673Sol     MW 6702   1.093   2.941   3.412  0.0273 -0.1587 -0.5583
  674Sol     OW 6703   2.190   3.804   5.281 -0.0525 -0.5532  0.5891
  674Sol     HW 6704   2.141   3.735   5.325 -2.1123  0.3617 -0.2200
  674Sol     HW 6705   2.151   3.810   5.194  2.0164 -0.3200 -0.3415
  674Sol     MW 6706   2.182   3.799   5.277 -0.2672  0.9161 -0.4191
  675Sol     OW 6707   2.337   0.913   5.769 -0.1524  0.0954 -0.3006
  675Sol     HW 6708   2.350   0.913   5.864  0.4229  0.9533 -0.3717
  675Sol     HW 6709   2.393   0.842   5.737 -0.4369 -0.2705  0.0104
  675Sol     MW 6710   2.343   0.907   5.775  0.3443  0.5592  0.1775
  676Sol     OW 6711   0.237   1.760   2.300 -0.3891  0.3800 -0.2673
  676Sol     HW 6712   0.261   1.808   2.220 -0.5220  0.0244 -0.5208
  676Sol     HW 6713   0.321   1.745   2.344 -0.2374 -0.0168 -0.6785
  676Sol     MW 6714   0.247   1.763   2.296  0.4397 -0.8222 -0.5406
  677Sol     OW 6715   4.002   4.019   3.345 -0.0198  0.1226 -0.2655
  677Sol     HW 6716   4.098   4.015   3.339 -0.1510 -3.3763 -1.0299
  677Sol     HW 6717   3.983   4.009   3.438  0.3450  1.4690 -0.0303
  677Sol     MW 6718   4.009   4.018   3.352 -0.4659 -0.0209 -0.0505
  678Sol     OW 6719   0.201   0.637   3.452 -0.4735  0.3773 -0.5986
  678Sol     HW 6720   0.193   0.690   3.531  0.2213  0.3403 -0.5031
  678Sol     HW 6721   0.121   0.585   3.450  0.2936 -0.9237  1.0364
  678Sol     MW 6722   0.193   0.637   3.459 -0.2402  0.1902  0.3449
  679Sol     OW 6723   0.755   0.692   5.768  0.3522  0.0429 -0.1866
  679Sol     HW 6724   0.805   0.759   5.813  0.1390  0.1187 -0.0609
  679Sol     HW 6725   0.670   0.693   5.811  0.3659 -0.3419 -0.1484
  679Sol     MW 6726   0.752   0.698   5.776  0.2569  0.1665 -0.2220
  680Sol     OW 6727   0.773   2.978   4.407 -0.1716  0.1198 -0.0653
  680Sol     HW 6728   0.851   2.966   4.354  0.8129 -0.3879  1.4796
  680Sol     HW 6729   0.739   2.890   4.421 -0.7379  0.2950 -0.3108
  680Sol     MW 6730   0.777   2.969   4.404  0.6336  0.0375 -0.4292
  681Sol     OW 6731   1.441   1.540   6.765  0.0874 -0.2651  0.7271
  681Sol     HW 6732   1.392   1.597   6.824  0.2711  1.0251 -0.3216
  681Sol     HW 6733   1.402   1.454   6.776 -3.2392  0.9342 -0.9176
  681Sol     MW 6734   1.433   1.538   6.771  0.3760 -0.0124 -0.2017
  682Sol     OW 6735   4.045   1.644   2.253  0.1664  0.6378 -0.0432
  682Sol     HW 6736   4.132   1.674   2.277  0.4731 -1.2190  1.2625
  682Sol     HW 6737   4.050   1.628   2.159  1.6268 -0.7055  0.2486
  682Sol     MW 6738   4.053   1.645   2.247  0.1497 -0.1812  0.4542
  683Sol     OW 6739   0.042   1.016   3.661 -0.1608  0.1886 -0.2781
  683Sol     HW 6740   0.088   1.072   3.722  0.6723 -1.6100  0.7956
  683Sol     HW 6741  -0.034   1.067   3.633 -0.5364  1.0795  2.2243
  683Sol     MW 6742   0.039   1.025   3.664 -0.4695  0.5700  0.8475
  684Sol     OW 6743   0.087   0.806   1.846 -0.5564 -0.8008  0.5390
  684Sol     HW 6744   0.020   0.825   1.912 -1.6015 -2.4369 -0.0436
  684Sol     HW 6745   0.053   0.845   1.765 -0.5617 -1.1899  0.3551
  684Sol     MW 6746   0.078   0.811   1.845 -0.5261 -0.5091  0.6047
  685Sol     OW 6747   1.310   0.175   4.351  0.6408 -0.6002 -0.6333
  685Sol     HW 6748   1.384   0.116   4.360  1.6818  0.1916 -3.3261
  685Sol     HW 6749   1.293   0.178   4.256 -0.3142  2.2596 -0.4352
  685Sol     MW 6750   1.315   0.170   4.343  0.0484  0.4635 -0.3581
  686Sol     OW 6751   0.952   1.496   5.020 -0.0924 -0.0802 -0.0204
  686Sol     HW 6752   0.977   1.526   4.933 -1.8268  0.9144 -0.1828
  686Sol     HW 6753   0.956   1.574   5.075 -1.8963 -0.0859  0.1481
  686Sol     MW 6754   0.955   1.506   5.017 -0.2431 -0.2886 -0.0366
  687Sol     OW 6755   2.535   1.276   1.591 -0.4447  0.6463 -0.0310
  687Sol     HW 6756   2.617   1.277   1.541 -0.2535 -0.2425  0.2518
  687Sol     HW 6757   2.477   1.220   1.541  0.3902 -1.8800  1.7019
  687Sol     MW 6758   2.537   1.271   1.582  0.0891  0.7093  0.4043
  688Sol     OW 6759   3.079   4.159   4.884 -0.2942 -0.5486  0.6886
  688Sol     HW 6760   3.124   4.221   4.827  0.6340  0.1763  2.1535
  688Sol     HW 6761   3.148   4.103   4.918 -0.7282 -0.5973  1.5294
  688Sol     MW 6762   3.089   4.160   4.882 -0.8186 -0.1739  0.7212
  689Sol     OW 6763   0.721   2.779   6.185  0.6346  0.8697  0.3101
  689Sol     HW 6764   0.731   2.858   6.239  0.0328  0.1067  1.5699
  689Sol     HW 6765   0.782   2.791   6.112  0.8604  2.2971  0.7288
  689Sol     MW 6766   0.728   2.787   6.183  0.1625  0.1757  0.0296
  690Sol     OW 6767   0.378   0.661   4.521  0.4287 -0.5990 -1.0189
  690Sol     HW 6768   0.310   0.720   4.554 -0.9748 -1.8040 -1.6982
  690Sol     HW 6769   0.421   0.711   4.451  0.8192  0.4757 -0.0456
  690Sol     MW 6770   0.376   0.671   4.518  0.5296 -0.0223 -0.7871
  691Sol     OW 6771   3.599   1.733   5.928 -0.2175  0.2263 -0.0653
  691Sol     HW 6772   3.560   1.653   5.963 -1.8196  1.1137  0.2140
  691Sol     HW 6773   3.663   1.760   5.995 -0.9065  0.1112  0.6471
  691Sol     MW 6774   3.602   1.729   5.937 -0.2969  0.2649 -0.0949
  692Sol     OW 6775   2.853   2.309   3.843  0.3229 -0.4207 -0.3635
  692Sol     HW 6776   2.893   2.259   3.914  0.8271 -0.8038 -0.9035
  692Sol     HW 6777   2.793   2.370   3.886  2.8527  1.4815  0.6252
  692Sol     MW 6778   2.851   2.310   3.853 -0.2710 -0.0703  0.1062
  693Sol     OW 6779   1.932   1.232   6.295  0.4360 -0.0481 -0.2334
  693Sol     HW 6780   1.951   1.325   6.303  0.2301 -0.1570  1.7407
  693Sol     HW 6781   2.010   1.189   6.330 -0.5594 -0.5756  1.3652
  693Sol     MW 6782   1.940   1.236   6.299  0.2635 -0.3253 -0.7231
  694Sol     OW 6783   1.084   1.287   5.099  0.5946  0.5406  0.3468
  694Sol     HW 6784   1.039   1.368   5.075  2.0376  0.9402 -1.1051
  694Sol     HW 6785   1.169   1.293   5.055  0.6147 -1.8813  0.0026
  694Sol     MW 6786   1.088   1.295   5.093 -0.5358  0.3572 -0.7717
  695Sol     OW 6787   1.687   2.436   5.144 -0.3488  0.1921  0.3617
  695Sol     HW 6788   1.632   2.360   5.158  0.2882 -0.1228  1.2088
  695Sol     HW 6789   1.730   2.420   5.060 -0.1968 -0.3924  0.5503
  695Sol     MW 6790   1.686   2.428   5.138  0.1170  0.0605  0.0076
  696Sol     OW 6791   1.062   0.877   6.812 -0.0459  0.1221 -0.5714
  696Sol     HW 6792   1.114   0.803   6.846 -0.4416 -0.3152 -0.9215
  696Sol     HW 6793   1.103   0.898   6.729 -0.7147 -0.5304 -1.0733
  696Sol     MW 6794   1.071   0.872   6.808  0.1466  0.0581 -0.3657
  697Sol     OW 6795   1.844   4.178   4.029  0.2167 -0.0466 -0.0507
  697Sol     HW 6796   1.750   4.195   4.022  0.1320 -1.1782 -1.8099
  697Sol     HW 6797   1.885   4.253   3.986  0.1094  0.1552  0.1951
  697Sol     MW 6798   1.839   4.186   4.025  0.6547 -1.1687 -0.2959
  698Sol     OW 6799   2.312   3.831   6.013  0.5411  0.1664  0.3763
  698Sol     HW 6800   2.329   3.752   5.963  0.3569  0.2623  0.1590
  698Sol     HW 6801   2.339   3.903   5.955  3.8789  0.1658  1.8272
  698Sol     MW 6802   2.315   3.831   6.003  0.0313  0.5703  0.2086
  699Sol     OW 6803   2.152   2.902   6.417 -0.2523  0.5738 -0.4267
  699Sol     HW 6804   2.225   2.964   6.414  0.1122  0.1055 -1.1774
  699Sol     HW 6805   2.075   2.956   6.430  0.1253  1.1464 -0.5668
  699Sol     MW 6806   2.152   2.912   6.418 -0.8129 -0.1192  0.1495
  700Sol     OW 6807   1.659   1.325   4.773  0.7482 -0.3045 -0.3143
  700Sol     HW 6808   1.654   1.417   4.750 -0.1446 -0.3281 -0.2107
  700Sol     HW 6809   1.697   1.324   4.861  3.0992 -0.1617 -1.2896
  700Sol     MW 6810   1.662   1.333   4.779  0.4563  0.2323  0.1334
  701Sol     OW 6811   2.707   3.721   4.609 -0.4228 -0.8140 -0.5818
  701Sol     HW 6812   2.639   3.660   4.639 -0.8130  0.0768  0.3609
  701Sol     HW 6813   2.788   3.688   4.647 -0.9727  0.5506  1.8452
  701Sol     MW 6814   2.708   3.712   4.615  0.1267 -0.5698 -0.3432
  702Sol     OW 6815   1.923   1.297   6.700 -0.0306  0.2499 -0.4268
  702Sol     HW 6816   1.960   1.353   6.631  1.4987 -0.1012  0.0896
  702Sol     HW 6817   1.848   1.347   6.733  0.0972  1.0782 -1.3429
  702Sol     MW 6818   1.919   1.307   6.697  0.6171  0.3757  0.0597
  703Sol     OW 6819   1.467   1.309   3.063  0.1645  1.0818 -0.0252
  703Sol     HW 6820   1.557   1.301   3.094  0.2932  0.3147 -0.5978
  703Sol     HW 6821   1.414   1.266   3.131  0.2395  1.3376  0.2002
  703Sol     MW 6822   1.470   1.305   3.072 -0.3663 -0.2572 -0.2067
  704Sol     OW 6823   1.898   2.995   6.393 -0.1522  1.0915 -0.2532
  704Sol     HW 6824   1.853   2.916   6.424 -0.8502  1.8653  0.7314
  704Sol     HW 6825   1.884   2.995   6.298  0.3996 -0.2987 -0.3492
  704Sol     MW 6826   1.893   2.988   6.387  0.2854 -0.4068  0.3656
  705Sol     OW 6827   3.291   1.610   4.242  0.5734  0.1267 -0.1322
  705Sol     HW 6828   3.287   1.618   4.337 -1.0686 -0.0285 -0.1728
  705Sol     HW 6829   3.237   1.534   4.222  1.0114  0.0766 -1.1852
  705Sol     MW 6830   3.286   1.604   4.248 -0.0412 -0.1018 -0.0161
  706Sol     OW 6831   0.879   2.761   2.926  0.1116  0.2720 -0.4769
  706Sol     HW 6832   0.786   2.754   2.907  0.1551 -2.2526  0.1009
  706Sol     HW 6833   0.890   2.722   3.012  2.1530 -2.6333 -1.9349
  706Sol     MW 6834   0.872   2.757   2.932 -0.7585 -0.2210  0.3308
  707Sol     OW 6835   3.408   1.623   5.016  0.3635  0.3395  0.5424
  707Sol     HW 6836   3.406   1.535   4.977 -0.7328  1.4617 -2.0557
  707Sol     HW 6837   3.486   1.623   5.071  0.8644 -1.9849 -0.1227
  707Sol     MW 6838   3.415   1.615   5.017 -0.5606  0.3816 -0.7104
  708Sol     OW 6839   3.780   2.458   4.609 -0.1145  0.1534  0.4306
  708Sol     HW 6840   3.711   2.500   4.661 -1.0600  0.1168 -0.7531
  708Sol     HW 6841   3.746   2.371   4.590  0.1822  0.1897 -0.2971
  708Sol     MW 6842   3.770   2.454   4.612  0.2957 -0.0475 -0.1942
  709Sol     OW 6843   3.906   3.433   5.901  0.2370  0.0492 -0.1685
  709Sol     HW 6844   3.839   3.475   5.847 -0.7142 -0.6703  0.4112
  709Sol     HW 6845   3.888   3.339   5.893  0.7144 -0.1178  0.5737
  709Sol     MW 6846   3.898   3.428   5.896 -0.2552  1.0783  0.1607
  710Sol     OW 6847   2.062   1.494   6.555  0.1884  0.1532 -0.3218
  710Sol     HW 6848   2.146   1.537   6.534 -0.0553  0.6357 -0.3307
  710Sol     HW 6849   2.000   1.567   6.560  0.0532 -0.0545  1.1755
  710Sol     MW 6850   2.064   1.505   6.553 -0.0602  0.3912 -0.2999
  711Sol     OW 6851   3.077   4.116   5.778  0.3131  0.5660  0.1158
  711Sol     HW 6852   3.150   4.168   5.811 -0.7636  0.9094  1.9739
  711Sol     HW 6853   3.007   4.128   5.842 -0.6009 -1.6137 -0.4259
  711Sol     MW 6854   3.078   4.121   5.786 -0.2066  0.4735 -0.0516
  712Sol     OW 6855   3.984   0.220   5.752  0.0010 -0.2872  0.0450
  712Sol     HW 6856   3.992   0.172   5.834 -0.8963  1.0233  0.9169
  712Sol     HW 6857   4.043   0.295   5.762  0.5742 -0.6076 -0.8744
  712Sol     MW 6858   3.990   0.223   5.760 -0.2289  0.3432  0.6960
  713Sol     OW 6859   0.451   3.959   6.478  0.2027 -0.3394  0.1698
  713Sol     HW 6860   0.439   3.995   6.390  0.5338 -3.2535 -1.1440
  713Sol     HW 6861   0.527   4.006   6.513 -0.9139  1.9827 -0.4470
  713Sol     MW 6862   0.457   3.966   6.473  0.1466  0.2837  0.3046
  714Sol     OW 6863   1.478   0.922   3.653  0.0071 -0.3409 -0.1675
  714Sol     HW 6864   1.537   0.851   3.676  0.3524 -0.3897 -1.1728
  714Sol     HW 6865   1.396   0.900   3.696 -0.2768 -2.0331 -1.5256
  714Sol     MW 6866   1.476   0.914   3.659 -0.4260  0.9242 -0.3928
  715Sol     OW 6867   1.632   2.223   2.992  0.0764 -0.1577  0.4792
  715Sol     HW 6868   1.699   2.204   3.058  0.9405  3.1003  0.5911
  715Sol     HW 6869   1.581   2.296   3.028  0.5316  1.6572 -2.3804
  715Sol     MW 6870   1.633   2.228   3.001 -0.0047 -0.1263 -0.4095
  716Sol     OW 6871   2.420   2.456   6.533  0.3554  0.4898  0.2091
  716Sol     HW 6872   2.346   2.504   6.497  0.4145 -2.5142 -4.3509
  716Sol     HW 6873   2.382   2.377   6.572  0.9000  0.1409  0.0551
  716Sol     MW 6874   2.410   2.453   6.533 -0.1386 -0.3231 -0.2504
  717Sol     OW 6875   1.947   1.257   1.778 -0.2386  0.1978  0.5422
  717Sol     HW 6876   1.886   1.196   1.819  0.1871 -0.6158 -0.0289
  717Sol     HW 6877   1.891   1.324   1.738 -0.7154  0.0090  0.8945
  717Sol     MW 6878   1.936   1.258   1.778  0.0163  0.1396 -0.0478
  718Sol     OW 6879   2.395   2.608   5.816  0.0792  0.1145  0.1666
  718Sol     HW 6880   2.465   2.619   5.751  1.4158 -0.1152  1.5179
  718Sol     HW 6881   2.381   2.514   5.821  0.4780  0.0795  0.7060
  718Sol     MW 6882   2.400   2.601   5.811  0.2380  0.3039 -0.5817
  719Sol     OW 6883   2.925   3.855   6.436 -0.2862  0.2656 -0.4507
  719Sol     HW 6884   2.833   3.828   6.433 -0.4781  0.7045  1.0652
  719Sol     HW 6885   2.925   3.932   6.493  1.2079 -0.4933  0.5891
  719Sol     MW 6886   2.917   3.859   6.441  0.2742  0.0115 -0.1622
  720Sol     OW 6887   0.875   1.064   6.772 -0.3271  0.8781 -0.6237
  720Sol     HW 6888   0.868   1.032   6.682 -1.0641  0.1388 -0.3046
  720Sol     HW 6889   0.931   1.000   6.816 -0.3893  0.9654 -0.4155
  720Sol     MW 6890   0.880   1.056   6.768 -0.6340  0.3788  0.9449
  721Sol     OW 6891   3.690   2.194   4.570 -0.3394  0.7412  0.1065
  721Sol     HW 6892   3.631   2.140   4.517 -0.8207  0.8588  0.5117
  721Sol     HW 6893   3.756   2.133   4.602 -0.2080  0.6186 -0.3998
  721Sol     MW 6894   3.691   2.184   4.568 -0.6928 -0.1676 -0.4735
  722Sol     OW 6895   3.049   1.562   5.559  0.0587 -0.1941  0.5130
  722Sol     HW 6896   3.120   1.498   5.550  0.7784  0.7000 -0.3244
  722Sol     HW 6897   3.018   1.576   5.469 -1.4119 -0.8205  0.9089
  722Sol     MW 6898   3.053   1.558   5.550  0.7135  0.0723  0.3790
  723Sol     OW 6899   1.919   1.596   5.706 -0.0088  0.3508  0.0838
  723Sol     HW 6900   1.925   1.687   5.677 -0.2573 -0.4251 -2.5081
  723Sol     HW 6901   1.899   1.547   5.626 -1.1038 -1.8287  1.6606
  723Sol     MW 6902   1.917   1.600   5.696  0.2064  0.3745 -0.3975
  724Sol     OW 6903   1.669   0.940   4.933  0.1203 -0.0032  0.1055
  724Sol     HW 6904   1.686   0.892   5.014 -0.4836 -1.2932 -0.5060
  724Sol     HW 6905   1.577   0.966   4.940 -0.1159 -0.6638 -0.4207
  724Sol     MW 6906   1.662   0.938   4.941  0.0821 -0.0809 -0.1989
  725Sol     OW 6907   1.831   1.674   1.800 -0.1836 -0.5604 -0.1481
  725Sol     HW 6908   1.911   1.727   1.794 -0.0019 -0.8249 -0.0783
  725Sol     HW 6909   1.767   1.732   1.840  0.5515 -0.9897  1.7059
  725Sol     MW 6910   1.833   1.684   1.803  0.3249 -0.1235  0.1837
  726Sol     OW 6911   3.162   3.590   5.065 -0.1235 -0.2041  0.2137
  726Sol     HW 6912   3.197   3.512   5.108  0.3155 -0.5592 -0.7632
  726Sol     HW 6913   3.083   3.559   5.021  0.1746 -0.1572 -0.3628
  726Sol     MW 6914   3.158   3.580   5.065  0.2225  0.3823 -0.1474
  727Sol     OW 6915   3.883   0.145   6.722 -0.0144 -0.3052  0.0245
  727Sol     HW 6916   3.836   0.069   6.688  1.6629 -1.7185  0.7426
  727Sol     HW 6917   3.976   0.125   6.706  0.3724  2.7618 -2.1331
  727Sol     MW 6918   3.887   0.136   6.718  0.3148 -0.3277 -0.1424
  728Sol     OW 6919   2.925   3.189   6.180  0.4521 -0.6263 -0.0168
  728Sol     HW 6920   2.918   3.216   6.088 -0.8999  0.0176  0.2637
  728Sol     HW 6921   2.856   3.123   6.191  2.2050 -2.5145 -0.0800
  728Sol     MW 6922   2.918   3.185   6.173  0.0581 -0.3815 -0.1195
  729Sol     OW 6923   3.007   0.951   5.100  0.2632 -0.1448  0.4502
  729Sol     HW 6924   3.023   0.938   5.007 -0.9604 -0.8882  0.3306
  729Sol     HW 6925   2.935   1.014   5.105  0.5517  0.1551  0.8948
  729Sol     MW 6926   3.002   0.955   5.092  0.2617 -0.3917 -0.0117
  730Sol     OW 6927   3.114   3.878   5.944  0.4808 -0.3832 -0.3317
  730Sol     HW 6928   3.081   3.967   5.936 -0.4911 -0.8941 -2.1869
  730Sol     HW 6929   3.094   3.853   6.035  1.8868  1.7039  0.5723
  730Sol     MW 6930   3.109   3.883   5.952 -0.1707  0.2098 -0.1452
  731Sol     OW 6931   2.195   0.123   4.916 -0.3324  0.9822 -0.3987
  731Sol     HW 6932   2.240   0.055   4.966 -1.3568  0.6264  0.0676
  731Sol     HW 6933   2.225   0.110   4.826 -2.8705 -2.1730 -0.9042
  731Sol     MW 6934   2.202   0.116   4.912  0.4171 -0.9609  0.0226
  732Sol     OW 6935   0.488   0.289   4.445 -0.5977 -0.2342 -0.3919
  732Sol     HW 6936   0.494   0.194   4.439  0.4232 -0.1442 -0.8436
  732Sol     HW 6937   0.398   0.306   4.472  0.1254 -1.4675  2.9971
  732Sol     MW 6938   0.480   0.282   4.447  0.3692 -0.3810 -0.1832
  733Sol     OW 6939   0.823   0.090   5.220 -0.0961  0.4273 -0.8167
  733Sol     HW 6940   0.851   0.109   5.130  0.4254 -1.1938 -1.0031
  733Sol     HW 6941   0.904   0.079   5.269 -0.3650  2.4422  0.1258
  733Sol     MW 6942   0.832   0.091   5.216  0.0691  0.6561 -0.0870
  734Sol     OW 6943   0.694   0.695   1.706 -0.1895  0.6250 -0.2194
  734Sol     HW 6944   0.727   0.779   1.740 -1.4662  0.7457  0.7315
  734Sol     HW 6945   0.609   0.684   1.748 -0.4127 -0.7338 -1.0212
  734Sol     MW 6946   0.689   0.702   1.713 -0.0163 -0.6694 -0.3545
  735Sol     OW 6947   1.538   0.350   3.301 -0.3702 -0.1071  0.1934
  735Sol     HW 6948   1.528   0.403   3.222  0.7114 -2.2286 -1.4205
  735Sol     HW 6949   1.633   0.350   3.317 -0.4268 -1.0011  0.5464
  735Sol     MW 6950   1.546   0.355   3.296 -0.3701  0.2803 -0.2026
  736Sol     OW 6951   1.175   1.219   6.577  0.5986  0.1122  0.1302
  736Sol     HW 6952   1.116   1.254   6.644  0.4337 -1.9228  1.0937
  736Sol     HW 6953   1.156   1.272   6.499 -2.0336 -0.0302  0.6092
  736Sol     MW 6954   1.168   1.227   6.576 -0.4255 -0.3139  0.0922
  737Sol     OW 6955   3.283   4.063   6.436  0.0103 -0.2473  0.3487
  737Sol     HW 6956   3.339   3.990   6.461  1.2548  0.5853  0.0154
  737Sol     HW 6957   3.264   4.109   6.518  1.6094  0.7262  0.1926
  737Sol     MW 6958   3.286   4.061   6.445  0.4179 -0.7032 -0.0402
  738Sol     OW 6959   1.401   0.765   4.781 -0.3188  0.2093  0.0281
  738Sol     HW 6960   1.415   0.726   4.867  0.1536  0.4990  0.0816
  738Sol     HW 6961   1.317   0.811   4.789 -0.3353  0.1332  0.2966
  738Sol     MW 6962   1.395   0.766   4.789  0.2058  0.1624  1.0111
  739Sol     OW 6963   2.261   1.019   5.519 -0.4447 -0.5385 -0.3892
  739Sol     HW 6964   2.268   0.952   5.587  0.2762 -0.7026 -0.6182
  739Sol     HW 6965   2.241   1.100   5.566  0.7236 -0.5228  0.0913
  739Sol     MW 6966   2.260   1.020   5.529 -0.1710 -0.0962 -0.5561
  740Sol     OW 6967   0.374   0.761   3.230 -0.6589  0.8084  0.2285
  740Sol     HW 6968   0.295   0.764   3.285 -0.4026 -2.7072  0.8684
  740Sol     HW 6969   0.437   0.816   3.275 -2.1698  2.2858  0.6012
  740Sol     MW 6970   0.372   0.766   3.239 -0.1572  0.8404  0.1059
  741Sol     OW 6971   2.466   3.149   3.686  0.0709 -0.0546  0.3366
  741Sol     HW 6972   2.544   3.155   3.630 -0.5055 -0.7706 -0.5431
  741Sol     HW 6973   2.400   3.107   3.631 -0.9162  0.4606  1.1126
  741Sol     MW 6974   2.467   3.146   3.676 -0.0579 -0.5260  0.3595
  742Sol     OW 6975   0.068   2.936   3.263  0.3961 -0.1588  0.1041
  742Sol     HW 6976   0.083   2.959   3.172  0.8380  2.6935  0.8745
  742Sol     HW 6977  -0.023   2.904   3.265  0.3811 -0.2276 -1.3070
  742Sol     MW 6978   0.061   2.935   3.255 -0.1135 -0.2461 -0.3570
  743Sol     OW 6979   1.122   4.071   1.961 -0.0771  0.2445  0.1756
  743Sol     HW 6980   1.115   4.016   2.038 -0.1595 -0.7150 -0.5055
  743Sol     HW 6981   1.091   4.157   1.990  0.1065 -0.0494  1.2579
  743Sol     MW 6982   1.118   4.074   1.970  0.0707 -0.5274 -0.1331
  744Sol     OW 6983   1.818   2.195   6.563  0.0654 -0.1189  0.5732
  744Sol     HW 6984   1.769   2.150   6.495  1.0826  1.9001 -1.5643
  744Sol     HW 6985   1.898   2.144   6.573  0.0868 -0.2063 -0.0220
  744Sol     MW 6986   1.821   2.187   6.558  0.0524  0.5033  0.4000
  745Sol     OW 6987   3.501   1.141   1.817 -0.3601 -0.0420 -0.9529
  745Sol     HW 6988   3.421   1.130   1.868 -1.2814  0.2467 -2.2975
  745Sol     HW 6989   3.485   1.092   1.736 -0.7102  3.0688 -2.8689
  745Sol     MW 6990   3.492   1.136   1.814 -0.2120 -0.8475  0.4270
  746Sol     OW 6991   0.413   4.040   4.072  0.5228  0.4420 -0.2825
  746Sol     HW 6992   0.473   4.034   3.997  0.5429  0.1352 -0.2454
  746Sol     HW 6993   0.340   4.093   4.041 -0.2270 -0.9797 -1.0336
  746Sol     MW 6994   0.412   4.044   4.062 -0.2834  0.1601  0.1152
  747Sol     OW 6995   2.651   2.284   4.237  0.5459  0.4804 -0.3249
  747Sol     HW 6996   2.637   2.222   4.309  0.3125 -1.0850 -1.6874
  747Sol     HW 6997   2.581   2.349   4.248 -0.2857 -0.4722  0.0987
  747Sol     MW 6998   2.643   2.284   4.245  0.4110 -0.2346  0.5700
  748Sol     OW 6999   3.562   0.833   2.191  0.3833  0.3645 -0.2291
  748Sol     HW 7000   3.541   0.755   2.243  0.2975  2.8517  3.6604
  748Sol     HW 7001   3.493   0.838   2.125 -0.4837 -1.9318  0.4661
  748Sol     MW 7002   3.554   0.826   2.190 -0.5254  0.5001  0.5550
  749Sol     OW 7003   3.986   2.409   5.976  0.5282  0.1639 -0.0256
  749Sol     HW 7004   3.938   2.347   5.922  1.6688 -0.2696 -0.5501
  749Sol     HW 7005   4.003   2.484   5.919  0.3864  0.3595  0.1866
  749Sol     MW 7006   3.983   2.410   5.966  0.3963 -0.2928  0.1342
  750Sol     OW 7007   3.057   0.251   6.067  0.4301  0.2218  0.0642
  750Sol     HW 7008   2.972   0.252   6.111  0.3052  1.0292 -0.1809
  750Sol     HW 7009   3.121   0.244   6.138  0.1425 -0.8714  0.2164
  750Sol     MW 7010   3.055   0.251   6.078  0.1684  0.4108 -0.0045
  751Sol     OW 7011   3.716   4.072   5.507  0.3678 -0.2238 -0.1427
  751Sol     HW 7012   3.756   4.027   5.582  2.2534 -0.1098 -1.0521
  751Sol     HW 7013   3.691   4.002   5.447 -0.7404 -0.2888  0.3762
  751Sol     MW 7014   3.717   4.062   5.508 -0.3564  0.1976  0.1146
  752Sol     OW 7015   0.270   1.119   5.119  0.1050  0.2931 -0.0825
  752Sol     HW 7016   0.291   1.200   5.165 -1.9603  0.0235  1.3713
  752Sol     HW 7017   0.354   1.072   5.113  0.9033  1.5729  0.9330
  752Sol     MW 7018   0.280   1.122   5.122  0.1619  0.1462  0.4354
  753Sol     OW 7019   1.703   3.497   2.957 -0.0999 -0.2610  1.6715
  753Sol     HW 7020   1.665   3.576   2.918 -0.4745 -0.3128  1.9198
  753Sol     HW 7021   1.628   3.451   2.995 -0.1925 -1.8287 -0.3328
  753Sol     MW 7022   1.693   3.500   2.957 -0.2471 -0.6421  0.7868
  754Sol     OW 7023   1.312   1.764   2.936 -0.3221 -0.2153 -0.0228
  754Sol     HW 7024   1.329   1.846   2.981 -0.3881 -0.1979 -0.0296
  754Sol     HW 7025   1.389   1.710   2.955  0.0307  0.0889 -0.5758
  754Sol     MW 7026   1.321   1.766   2.942 -0.1532  0.2190 -0.9701
  755Sol     OW 7027   2.289   4.112   5.061  0.3185 -0.2536  0.3401
  755Sol     HW 7028   2.252   4.042   5.006  1.4515 -1.2042  0.7713
  755Sol     HW 7029   2.356   4.068   5.113  1.7149  1.3580 -0.0729
  755Sol     MW 7030   2.292   4.101   5.061 -0.0041  0.0761 -0.3509
  756Sol     OW 7031   3.167   3.220   3.365  0.0854 -0.2295 -0.0812
  756Sol     HW 7032   3.184   3.278   3.291 -2.7047  1.3179  0.4468
  756Sol     HW 7033   3.210   3.264   3.439 -0.5038  0.2637 -0.0276
  756Sol     MW 7034   3.173   3.230   3.365  0.3218  0.4429  0.1017
  757Sol     OW 7035   3.138   1.896   1.883  0.6064  0.3295 -0.2497
  757Sol     HW 7036   3.100   1.855   1.961 -0.0582  0.9616 -0.2338
  757Sol     HW 7037   3.157   1.986   1.910  0.4118  0.5377 -0.8019
  757Sol     MW 7038   3.136   1.901   1.892 -0.4259 -0.0844  0.1017
  758Sol     OW 7039   3.264   2.761   5.408  0.0159 -0.0629  0.4871
  758Sol     HW 7040   3.286   2.714   5.327 -0.2255  0.8260 -0.0966
  758Sol     HW 7041   3.259   2.692   5.474 -0.7401 -0.9399 -0.4480
  758Sol     MW 7042   3.265   2.750   5.406  0.6664 -0.1086 -0.1071
  759Sol     OW 7043   1.533   0.500   3.056 -0.3022 -0.4170 -0.4969
  759Sol     HW 7044   1.550   0.420   3.005 -1.6124 -0.4235 -0.9613
  759Sol     HW 7045   1.574   0.570   3.005  0.5333 -0.7373 -0.2773
  759Sol     MW 7046   1.538   0.499   3.047  0.5688  0.1792  0.9334
  760Sol     OW 7047   1.024   1.024   1.525 -0.4305  0.0232 -1.1057
  760Sol     HW 7048   1.077   1.077   1.466 -1.0606  0.1883 -1.5323
  760Sol     HW 7049   1.071   1.025   1.608  0.8569 -0.8213 -1.8038
  760Sol     MW 7050   1.033   1.029   1.527  0.5822  0.0730  0.2500
  761Sol     OW 7051   2.976   1.315   3.082  0.3716  0.2449  0.0791
  761Sol     HW 7052   2.925   1.240   3.050  0.6067 -0.8271  2.1303
  761Sol     HW 7053   2.930   1.392   3.047  0.0626 -0.8437 -1.9616
  761Sol     MW 7054   2.967   1.315   3.076 -0.9512  0.3303 -0.2952
  762Sol     OW 7055   3.239   3.532   6.712 -0.1856  0.2045 -0.0830
  762Sol     HW 7056   3.172   3.564   6.651 -1.1703 -0.3552  0.7025
  762Sol     HW 7057   3.252   3.440   6.687 -0.3359  0.0719  0.3238
  762Sol     MW 7058   3.235   3.527   6.704 -0.1514 -0.0863  0.1455
  763Sol     OW 7059   1.176   1.341   3.094 -0.7103  0.1798  0.3829
  763Sol     HW 7060   1.097   1.291   3.074 -1.9217  0.9465  3.0914
  763Sol     HW 7061   1.224   1.285   3.155  1.4212 -0.7505 -2.0325
  763Sol     MW 7062   1.173   1.331   3.097 -0.3562 -1.0728 -0.1048
  764Sol     OW 7063   3.258   3.239   1.638  0.3698  0.4758 -0.3499
  764Sol     HW 7064   3.266   3.185   1.559 -1.2492 -1.8635  1.0371
  764Sol     HW 7065   3.183   3.203   1.685  2.2081  0.8415  3.0357
  764Sol     MW 7066   3.252   3.231   1.635 -0.5522 -0.2584 -0.1195
  765Sol     OW 7067   0.936   3.299   5.188 -0.3628  0.4019  0.4044
  765Sol     HW 7068   0.959   3.390   5.205 -1.5348  0.5363  1.2998
  765Sol     HW 7069   0.864   3.304   5.125 -2.1394  0.1825  2.3909
  765Sol     MW 7070   0.932   3.307   5.184  0.2731  0.1530  0.2999
  766Sol     OW 7071   2.342   1.637   3.383  0.3895  0.1225 -0.1596
  766Sol     HW 7072   2.257   1.596   3.363  0.4918 -0.8492  1.3110
  766Sol     HW 7073   2.320   1.716   3.430  0.2841  0.2314 -0.3885
  766Sol     MW 7074   2.332   1.640   3.385  0.5200 -0.3271  0.1324
  767Sol     OW 7075   2.468   2.423   5.430 -0.3538  0.1086 -0.3444
  767Sol     HW 7076   2.401   2.393   5.491 -2.3404  0.4654 -2.2894
  767Sol     HW 7077   2.466   2.519   5.438  1.3500  0.0716  1.0163
  767Sol     MW 7078   2.462   2.429   5.437 -0.1035 -0.6605  0.0248
  768Sol     OW 7079   3.455   0.952   5.331 -0.0313 -0.2698  0.3909
  768Sol     HW 7080   3.395   0.941   5.404 -1.7118 -0.5668 -1.0124
  768Sol     HW 7081   3.446   1.044   5.305  0.8094 -0.0780  0.7614
  768Sol     MW 7082   3.449   0.959   5.335  0.4754 -0.0694 -0.6513
  769Sol     OW 7083   3.268   3.561   3.849 -0.5344  0.0367  0.7721
  769Sol     HW 7084   3.275   3.595   3.938  0.5915 -3.5334  2.1692
  769Sol     HW 7085   3.249   3.468   3.861 -2.6796 -0.0696 -2.7780
  769Sol     MW 7086   3.267   3.555   3.858  0.5211 -0.2954 -0.2081
  770Sol     OW 7087   0.242   2.726   3.225 -0.1320  0.1206 -0.1247
  770Sol     HW 7088   0.191   2.806   3.206 -0.2023  0.2299  0.5336
  770Sol     HW 7089   0.193   2.683   3.295  0.6111  0.1556  0.4177
  770Sol     MW 7090   0.233   2.729   3.229  0.3416 -0.4374 -0.1778
  771Sol     OW 7091   0.084   1.199   5.822  0.5675 -0.0184  0.0566
  771Sol     HW 7092   0.151   1.265   5.804 -0.0602  0.5227 -0.3254
  771Sol     HW 7093   0.072   1.155   5.738  0.7057 -0.3563  0.2150
  771Sol     MW 7094   0.089   1.201   5.812  0.0622 -0.6735  0.1925
  772Sol     OW 7095   2.895   1.689   2.640  0.1857  0.2314 -0.3171
  772Sol     HW 7096   2.980   1.685   2.596  1.1927  0.1636  1.5398
  772Sol     HW 7097   2.866   1.598   2.645 -0.2708  0.3147 -1.4685
  772Sol     MW 7098   2.900   1.681   2.637  0.7797  0.3269 -0.2401
  773Sol     OW 7099   3.200   1.273   4.493  0.8081  0.6439  0.5158
  773Sol     HW 7100   3.193   1.326   4.414  2.2978  0.7367  0.4491
  773Sol     HW 7101   3.291   1.245   4.496  0.7757  0.6751  2.2358
  773Sol     MW 7102   3.207   1.275   4.487  0.1982  0.3429  1.1100
  774Sol     OW 7103   1.337   2.296   5.255 -0.0919 -0.4029 -0.0119
  774Sol     HW 7104   1.281   2.256   5.320  0.7127  0.4745  1.2425
  774Sol     HW 7105   1.295   2.379   5.233  1.4600  0.9806  2.0715
  774Sol     MW 7106   1.328   2.300   5.259 -0.9093 -0.5499  0.0068
  775Sol     OW 7107   1.385   2.400   3.908  0.5317  0.5821 -0.2557
  775Sol     HW 7108   1.437   2.408   3.829  2.7815  0.3184  1.1525
  775Sol     HW 7109   1.433   2.338   3.963 -1.2417  0.3549  1.1149
  775Sol     MW 7110   1.394   2.395   3.906  0.0136  0.5064 -1.0883
  776Sol     OW 7111   3.810   0.077   4.027 -0.5576 -0.1422 -0.4146
  776Sol     HW 7112   3.718   0.094   4.004 -0.2557  1.9013 -0.2645
  776Sol     HW 7113   3.812   0.084   4.122 -0.7618 -3.0468 -0.1672
  776Sol     MW 7114   3.802   0.079   4.033 -0.4362  0.2068  0.1889
  777Sol     OW 7115   2.741   1.564   4.567 -0.0498 -0.3191 -0.0541
  777Sol     HW 7116   2.765   1.507   4.494 -0.9488 -0.4287 -0.2673
  777Sol     HW 7117   2.815   1.557   4.627  1.0190  0.3375 -1.2773
  777Sol     MW 7118   2.750   1.558   4.566 -0.2178  0.2059  0.1310
  778Sol     OW 7119   0.569   0.793   3.044 -0.0462 -0.3213 -0.1889
  778Sol     HW 7120   0.602   0.710   3.011 -0.0736 -0.2415 -0.4169
  778Sol     HW 7121   0.490   0.769   3.093  0.2236 -0.4854  0.1653
  778Sol     MW 7122   0.565   0.783   3.045  0.1760 -0.7344 -0.2615
  779Sol     OW 7123   3.197   3.038   1.408  0.1555  0.4638 -0.0941
  779Sol     HW 7124   3.244   2.969   1.456  0.2040  1.7580  1.7796
  779Sol     HW 7125   3.110   3.001   1.393  0.8692 -0.8566 -1.0705
  779Sol     MW 7126   3.194   3.028   1.411 -0.1219  0.3144  0.1250
  780Sol     OW 7127   0.856   1.159   2.557 -0.0877  0.1400  0.1990
  780Sol     HW 7128   0.894   1.229   2.610  0.7734  0.0072 -0.2334
  780Sol     HW 7129   0.909   1.082   2.579 -0.6045 -0.2260  0.1720
  780Sol     MW 7130   0.864   1.158   2.564 -0.1154  0.8550  0.3599
  781Sol     OW 7131   1.533   2.429   2.347  0.4124 -0.3382 -0.5510
  781Sol     HW 7132   1.502   2.413   2.436  0.6291 -0.7012 -0.5411
  781Sol     HW 7133   1.610   2.486   2.358  0.0736  0.1231 -0.5447
  781Sol     MW 7134   1.537   2.433   2.356  0.1851  0.0478 -0.1934
  782Sol     OW 7135   1.290   1.608   6.484 -0.0629 -0.9706  0.0572
  782Sol     HW 7136   1.314   1.566   6.566  1.4948 -0.3715 -0.0809
  782Sol     HW 7137   1.274   1.700   6.508  2.7908 -0.2447 -0.6977
  782Sol     MW 7138   1.290   1.613   6.493  0.3001 -0.4438  0.4701
  783Sol     OW 7139   1.897   0.158   4.688  0.0507  0.1760  0.2563
  783Sol     HW 7140   1.920   0.067   4.668 -0.7652 -0.3511  1.6278
  783Sol     HW 7141   1.981   0.204   4.688  0.6530 -0.8832  1.0379
  783Sol     MW 7142   1.907   0.154   4.686 -0.2952  0.1513  0.3814
  784Sol     OW 7143   1.786   2.760   6.972  0.2044 -0.4044 -0.3385
  784Sol     HW 7144   1.741   2.833   7.016 -0.6102 -1.1932  0.1392
  784Sol     HW 7145   1.782   2.688   7.034  1.1277 -0.8350 -0.7656
  784Sol     MW 7146   1.782   2.760   6.981  0.4825 -0.1506 -0.3630
  785Sol     OW 7147   2.345   2.862   5.931 -0.3431  0.1260  0.2309
  785Sol     HW 7148   2.426   2.898   5.895 -1.0545 -0.1795 -1.7621
  785Sol     HW 7149   2.358   2.767   5.926 -0.6781  0.0805  0.2565
  785Sol     MW 7150   2.354   2.857   5.927 -0.3592 -0.0742 -0.1197
  786Sol     OW 7151   3.123   1.497   6.436  0.3216 -0.2708 -0.2061
  786Sol     HW 7152   3.098   1.586   6.462 -0.9486 -1.4491  2.7173
  786Sol     HW 7153   3.196   1.475   6.493  0.9061 -0.9966 -1.2152
  786Sol     MW 7154   3.128   1.503   6.443 -0.2124  0.5660 -0.2800
  787Sol     OW 7155   0.125   1.123   2.106  0.2588  0.1959 -0.1154
  787Sol     HW 7156   0.059   1.106   2.038 -0.2420  0.6859  0.2444
  787Sol     HW 7157   0.096   1.204   2.148  1.3715  0.6853 -0.2776
  787Sol     MW 7158   0.116   1.128   2.104  0.1956 -1.5506  0.2200
  788Sol     OW 7159   3.136   2.499   5.513  0.0332  0.5550  0.1433
  788Sol     HW 7160   3.056   2.547   5.491 -0.3947 -0.2534 -0.0649
  788Sol     HW 7161   3.174   2.549   5.585 -0.4255  1.1910 -0.0444
  788Sol     MW 7162   3.132   2.508   5.517 -0.1573  0.2702 -0.1899
  789Sol     OW 7163   1.370   1.664   3.883  0.0989  0.2047  0.1763
  789Sol     HW 7164   1.344   1.718   3.809  2.3728 -1.4729 -1.9559
  789Sol     HW 7165   1.376   1.725   3.956 -1.7104  1.9980 -1.1020
  789Sol     MW 7166   1.368   1.674   3.883 -0.4874 -0.1452  0.1097
  790Sol     OW 7167   3.175   1.274   4.752 -0.2662  0.2968 -0.3785
  790Sol     HW 7168   3.098   1.314   4.793  0.5689  2.1482 -0.5748
  790Sol     HW 7169   3.163   1.291   4.659 -0.2228 -0.5043 -0.5329
  790Sol     MW 7170   3.167   1.279   4.747  0.5819 -0.0711  0.1173
  791Sol     OW 7171   0.523   1.796   6.500  0.1073 -0.0911  0.1749
  791Sol     HW 7172   0.568   1.818   6.581  0.8688 -1.4582  0.1369
  791Sol     HW 7173   0.546   1.868   6.440  0.8297  0.1111  0.6860
  791Sol     MW 7174   0.529   1.805   6.502  0.3846  0.0588 -0.2970
  792Sol     OW 7175   0.503   3.544   3.694 -0.0120 -0.4162 -0.1533
  792Sol     HW 7176   0.418   3.502   3.683 -0.3539  0.0934  0.4982
  792Sol     HW 7177   0.505   3.571   3.786  0.0541  1.2833 -0.6283
  792Sol     MW 7178   0.496   3.543   3.701 -0.3676 -0.4097 -0.0724
  793Sol     OW 7179   1.514   1.107   4.645 -0.5026 -0.1284  0.0778
  793Sol     HW 7180   1.528   1.188   4.695 -0.0529 -0.0467 -0.1825
  793Sol     HW 7181   1.600   1.065   4.642 -0.3464  0.2837 -1.3671
  793Sol     MW 7182   1.523   1.110   4.649  0.3205 -0.4385  0.2040
  794Sol     OW 7183   1.486   0.864   5.779 -0.5919  0.3722 -0.0338
  794Sol     HW 7184   1.578   0.840   5.787 -0.6159  0.4162  0.3645
  794Sol     HW 7185   1.438   0.782   5.794 -0.5722  0.0419 -1.6924
  794Sol     MW 7186   1.490   0.855   5.781 -0.3700  0.2670 -0.2056
  795Sol     OW 7187   2.528   0.193   3.546  0.2646  0.3294 -0.3098
  795Sol     HW 7188   2.621   0.202   3.568 -0.0996  0.5124  1.2251
  795Sol     HW 7189   2.495   0.129   3.609  0.2091 -2.9388 -3.4999
  795Sol     MW 7190   2.534   0.188   3.554 -0.4791 -0.2860 -0.1739
  796Sol     OW 7191   1.440   3.803   2.257  0.1790 -0.0442  0.0925
  796Sol     HW 7192   1.409   3.889   2.227 -1.1136 -0.4706  0.1796
  796Sol     HW 7193   1.511   3.824   2.319  0.1026  0.9478 -0.1431
  796Sol     MW 7194   1.444   3.813   2.260 -0.5481  0.5151  0.3442
  797Sol     OW 7195   2.341   3.006   5.224  0.1829 -0.0235 -0.0561
  797Sol     HW 7196   2.262   2.956   5.243 -0.8181  1.4084 -0.3575
  797Sol     HW 7197   2.327   3.091   5.267  0.5744  1.0241 -1.9166
  797Sol     MW 7198   2.332   3.010   5.230  0.4695 -0.2006 -0.0161
  798Sol     OW 7199   2.989   0.319   2.768  0.4325  0.5099 -0.3445
  798Sol     HW 7200   3.008   0.370   2.846 -1.2553  0.6092  0.0198
  798Sol     HW 7201   2.898   0.289   2.779  1.0548 -1.7707 -0.9932
  798Sol     MW 7202   2.982   0.321   2.776  0.1280  0.4053  0.2948
  799Sol     OW 7203   0.659   1.172   6.444 -0.6801  0.1405  0.3334
  799Sol     HW 7204   0.687   1.083   6.464 -1.2780  0.1291  1.1149
  799Sol     HW 7205   0.596   1.162   6.373 -1.1114 -0.0975  0.7512
  799Sol     MW 7206   0.656   1.163   6.439 -0.9628 -0.1167 -0.2017
  800Sol     OW 7207   3.734   3.693   4.853  0.2876  0.3362  0.6280
  800Sol     HW 7208   3.753   3.647   4.771 -1.4899  1.4278 -0.4434
  800Sol     HW 7209   3.649   3.735   4.837 -0.7723 -0.6016  3.5298
  800Sol     MW 7210   3.728   3.693   4.844  0.0867 -0.0836 -0.2713
  801Sol     OW 7211   0.336   0.430   5.765 -0.3172 -0.6141 -0.2176
  801Sol     HW 7212   0.358   0.476   5.683 -0.7069 -0.0924 -0.0273
  801Sol     HW 7213   0.241   0.428   5.767 -0.3418  0.9109  1.0732
  801Sol     MW 7214   0.330   0.434   5.758  0.1006 -0.0617  0.3500
  802Sol     OW 7215   3.564   0.469   6.018 -0.1325  0.2758  0.1637
  802Sol     HW 7216   3.604   0.440   5.935 -0.1178 -0.2538  0.3579
  802Sol     HW 7217   3.472   0.444   6.010 -0.7916  2.8773 -0.9358
  802Sol     MW 7218   3.560   0.465   6.010  0.1363  0.2856  0.1714
  803Sol     OW 7219   3.239   3.397   2.463  0.0282  0.7092  0.1089
  803Sol     HW 7220   3.208   3.306   2.463 -0.5369  0.8943 -0.5454
  803Sol     HW 7221   3.319   3.395   2.411  0.3894  0.4599  0.6790
  803Sol     MW 7222   3.243   3.388   2.458 -0.3973 -0.0115  0.8890
  804Sol     OW 7223   0.066   2.232   2.936  0.0397 -0.8213  0.3781
  804Sol     HW 7224   0.108   2.303   2.888  0.8341 -1.7111 -0.2760
  804Sol     HW 7225   0.040   2.270   3.019  0.5185  0.2120  0.0572
  804Sol     MW 7226   0.067   2.242   2.939  0.2338  0.2256 -0.6644
  805Sol     OW 7227   3.196   2.514   6.096  0.0279  0.2855  0.0962
  805Sol     HW 7228   3.219   2.607   6.101 -0.5765  0.4683 -0.3413
  805Sol     HW 7229   3.101   2.513   6.112  0.1209 -0.3055  0.5939
  805Sol     MW 7230   3.189   2.522   6.098 -0.5352  0.4638  0.1932
  806Sol     OW 7231   0.728   2.415   6.391  0.3928 -0.6950  0.5339
  806Sol     HW 7232   0.728   2.374   6.478  1.3161 -0.5845  0.5856
  806Sol     HW 7233   0.805   2.379   6.348 -0.2153 -0.9614 -0.3462
  806Sol     MW 7234   0.735   2.408   6.395 -0.2561 -0.2937  0.0735
  807Sol     OW 7235   2.158   2.794   6.682  0.2223  0.2324  0.2444
  807Sol     HW 7236   2.242   2.819   6.719  0.1221 -0.9078  1.2680
  807Sol     HW 7237   2.157   2.833   6.595  0.7500  2.3844  1.1676
  807Sol     MW 7238   2.165   2.800   6.678  0.5849  0.0824  0.5083
  808Sol     OW 7239   0.687   2.873   3.226  0.0006 -0.9454 -0.1586
  808Sol     HW 7240   0.609   2.861   3.280  0.2105  1.0162  0.6313
  808Sol     HW 7241   0.732   2.789   3.229 -1.1600 -1.5401  0.8668
  808Sol     MW 7242   0.684   2.865   3.231  0.1983 -0.4805  0.2423
  809Sol     OW 7243   0.440   3.972   3.056 -0.4569  0.4824 -0.2991
  809Sol     HW 7244   0.447   4.067   3.063  2.6078  0.2141  1.7241
  809Sol     HW 7245   0.511   3.947   2.997 -0.1585 -0.6312  0.5021
  809Sol     MW 7246   0.447   3.978   3.052  0.0020 -0.0324  0.5733
  810Sol     OW 7247   3.166   2.272   6.704  0.5219 -0.5093  0.1915
  810Sol     HW 7248   3.195   2.328   6.632  1.2875 -1.7339 -0.4659
  810Sol     HW 7249   3.228   2.199   6.704 -1.6346 -2.4082 -0.2467
  810Sol     MW 7250   3.174   2.270   6.698 -0.2204  0.6390  0.6459
  811Sol     OW 7251   0.534   3.490   2.353 -0.0541 -0.3395 -0.1373
  811Sol     HW 7252   0.515   3.575   2.315  1.0285 -0.1059 -0.1821
  811Sol     HW 7253   0.556   3.434   2.279 -0.2824 -0.5288 -0.0642
  811Sol     MW 7254   0.534   3.493   2.343 -0.4180  0.5848 -0.5016
  812Sol     OW 7255   2.447   1.181   5.807  0.0905 -0.0110  0.0524
  812Sol     HW 7256   2.398   1.102   5.785 -1.0043  0.2638  1.4201
  812Sol     HW 7257   2.455   1.179   5.902 -0.0418  1.5754  0.1149
  812Sol     MW 7258   2.443   1.174   5.813 -0.2477 -0.1709  1.0481
  813Sol     OW 7259   2.981   1.115   4.457  0.7340  0.0213 -0.0601
  813Sol     HW 7260   3.052   1.179   4.468  1.3027 -0.2827 -1.6657
  813Sol     HW 7261   3.026   1.031   4.448  0.3139  0.0047 -2.5656
  813Sol     MW 7262   2.991   1.114   4.457  0.5211  0.6207 -0.0576
  814Sol     OW 7263   3.718   2.212   6.098  0.2502 -0.0646 -0.2488
  814Sol     HW 7264   3.723   2.296   6.144 -2.9892  0.6388 -1.0806
  814Sol     HW 7265   3.646   2.222   6.036 -0.2923 -3.4853 -0.2904
  814Sol     MW 7266   3.712   2.220   6.097 -0.5302  0.5223 -0.6876
  815Sol     OW 7267   2.790   3.008   5.670  0.0524 -0.1586  0.8821
  815Sol     HW 7268   2.784   3.096   5.633 -0.0892 -0.5465 -0.0518
  815Sol     HW 7269   2.815   2.953   5.595 -0.2989 -0.9722  1.3618
  815Sol     MW 7270   2.792   3.011   5.660  0.2428  0.8056  0.2978
  816Sol     OW 7271   0.624   3.448   3.447  0.0938 -0.2287 -0.0378
  816Sol     HW 7272   0.553   3.388   3.421 -1.0904  1.5993 -1.1098
  816Sol     HW 7273   0.610   3.462   3.541 -0.7658 -0.1642 -0.1685
  816Sol     MW 7274   0.616   3.444   3.453 -0.4225  0.1388 -0.2842
  817Sol     OW 7275   1.218   3.105   6.006  0.2314 -0.6483 -0.6998
  817Sol     HW 7276   1.307   3.070   5.999  0.8830  1.0023 -1.1182
  817Sol     HW 7277   1.221   3.161   6.084 -1.2530 -2.7665  0.9421
  817Sol     MW 7278   1.226   3.107   6.012  0.4656 -0.0911  0.0675
  818Sol     OW 7279   2.862   2.259   3.151  0.1989  0.1474  0.1066
  818Sol     HW 7280   2.808   2.180   3.162 -0.1579  0.3206 -0.3706
  818Sol     HW 7281   2.895   2.278   3.239  1.8545 -1.6376 -0.0744
  818Sol     MW 7282   2.860   2.254   3.160 -0.0799  0.5895  0.7789
  819Sol     OW 7283   2.227   4.052   6.625  0.2915 -0.6958  0.2441
  819Sol     HW 7284   2.179   3.974   6.654 -0.6018  0.5254  2.1619
  819Sol     HW 7285   2.315   4.039   6.661  0.3932 -1.2187 -0.1801
  819Sol     MW 7286   2.231   4.044   6.631 -0.5048 -0.3281  0.1495
  820Sol     OW 7287   3.651   3.567   6.373 -0.1569 -0.4080 -0.3221
  820Sol     HW 7288   3.723   3.574   6.436  0.5806 -1.2081 -1.0781
  820Sol     HW 7289   3.572   3.578   6.426  0.4957 -0.1660  0.6075
  820Sol     MW 7290   3.650   3.569   6.384  0.3112  0.0498 -0.8412
  821Sol     OW 7291   0.034   2.616   5.751 -0.3551 -0.0648 -0.2699
  821Sol     HW 7292  -0.037   2.679   5.743 -0.1318  0.2150 -0.0751
  821Sol     HW 7293   0.030   2.564   5.671  0.3221  1.0911 -1.0709
  821Sol     MW 7294   0.027   2.617   5.743 -0.3340 -0.7290 -0.2622
  822Sol     OW 7295   1.517   2.966   4.417  0.2998 -0.0933 -0.1737
  822Sol     HW 7296   1.556   2.947   4.502 -0.6771 -1.9076 -0.1214
  822Sol     HW 7297   1.583   2.938   4.354  0.8803  0.9300 -0.0387
  822Sol     MW 7298   1.527   2.962   4.419  0.2038  0.1465  0.1686
  823Sol     OW 7299   1.850   3.983   1.965  0.7177 -0.1394  0.3235
  823Sol     HW 7300   1.761   4.000   1.998  0.6225  2.4343 -1.1401
  823Sol     HW 7301   1.906   4.002   2.040  0.1182 -0.3268  0.8297
  823Sol     MW 7302   1.847   3.986   1.975  0.4605  0.0010 -0.0016
  824Sol     OW 7303   1.926   2.680   5.328  0.2673 -0.1567 -0.5032
  824Sol     HW 7304   1.967   2.646   5.408  1.2919 -0.9357 -1.3494
  824Sol     HW 7305   1.846   2.723   5.359  0.7930 -0.2014  0.9741
  824Sol     MW 7306   1.922   2.680   5.338  0.1894 -0.1885  0.1897
  825Sol     OW 7307   1.989   2.448   3.780 -0.1856 -0.0084  0.0622
  825Sol     HW 7308   1.907   2.443   3.828  0.2886 -1.3519  0.7646
  825Sol     HW 7309   2.056   2.454   3.848  0.3655  0.0938 -0.4835
  825Sol     MW 7310   1.988   2.448   3.790 -0.0052  0.0505 -0.1664
  826Sol     OW 7311   1.787   3.764   5.028 -0.0714 -0.2520 -0.0561
  826Sol     HW 7312   1.881   3.780   5.038 -0.1295  0.2944 -0.3417
  826Sol     HW 7313   1.773   3.758   4.934 -0.1035 -1.7822  0.0310
  826Sol     MW 7314   1.795   3.765   5.021  0.7383 -0.1574 -0.1792
  827Sol     OW 7315   1.951   1.676   4.900  0.7801 -0.2477  0.1752
  827Sol     HW 7316   1.984   1.755   4.942  0.1669 -0.7504  1.6377
  827Sol     HW 7317   1.862   1.699   4.871  0.8001 -0.2327  0.1257
  827Sol     MW 7318   1.946   1.685   4.902  0.6856 -0.0902 -0.1954
  828Sol     OW 7319   1.116   2.205   4.542 -0.4934  0.2705  0.1598
  828Sol     HW 7320   1.068   2.139   4.592 -0.3637  1.6651  2.1902
  828Sol     HW 7321   1.089   2.191   4.452 -1.2475 -1.8815  0.6847
  828Sol     MW 7322   1.110   2.198   4.539  0.1457 -0.3167 -0.3035
  829Sol     OW 7323   1.211   1.398   4.747  0.0187 -0.1263  0.1550
  829Sol     HW 7324   1.272   1.456   4.701 -0.2349  0.1536  0.1709
  829Sol     HW 7325   1.183   1.336   4.679 -0.2315  0.1880 -0.0321
  829Sol     MW 7326   1.214   1.398   4.737 -0.0430  0.1775  0.0514
  830Sol     OW 7327   2.762   2.760   4.041 -0.0467  0.1811 -0.4181
  830Sol     HW 7328   2.690   2.756   3.978 -0.3935  0.3333 -0.0346
  830Sol     HW 7329   2.836   2.723   3.994 -0.3800 -0.0012 -0.8114
  830Sol     MW 7330   2.762   2.756   4.031  0.2048 -0.2418 -0.5818
  831Sol     OW 7331   3.410   1.208   5.277 -0.2508  0.1712 -0.3594
  831Sol     HW 7332   3.362   1.266   5.220 -1.0257  0.6414  0.7656
  831Sol     HW 7333   3.484   1.260   5.309  1.5876 -0.8074 -2.7759
  831Sol     MW 7334   3.413   1.218   5.275 -0.2748  0.3836 -0.0617
  832Sol     OW 7335   1.315   3.772   5.278 -0.2733  0.0591  0.2180
  832Sol     HW 7336   1.251   3.830   5.236  2.7447  4.6419  1.6297
  832Sol     HW 7337   1.398   3.793   5.237  1.2269 -2.0000  2.0709
  832Sol     MW 7338   1.316   3.779   5.271  0.8903  0.9418 -0.1931
  833Sol     OW 7339   3.134   3.592   1.630  0.1897  0.3197  0.3563
  833Sol     HW 7340   3.156   3.535   1.703  2.5807  0.4160 -0.2682
  833Sol     HW 7341   3.099   3.671   1.671  0.6730  0.0170  1.3597
  833Sol     MW 7342   3.132   3.594   1.640 -0.3672  0.3822  0.4046
  834Sol     OW 7343   2.198   0.638   6.252 -0.4223  0.2197  0.3398
  834Sol     HW 7344   2.140   0.562   6.254 -0.0000 -0.1809 -1.6681
  834Sol     HW 7345   2.267   0.618   6.316 -0.8174 -0.6659  0.4905
  834Sol     MW 7346   2.199   0.630   6.258 -0.4277  0.0617  0.0752
  835Sol     OW 7347   3.585   2.578   4.743 -0.0683  0.3500  0.1506
  835Sol     HW 7348   3.505   2.615   4.706 -1.1887  0.1509  2.2855
  835Sol     HW 7349   3.556   2.500   4.790  1.6062 -0.5746 -0.3188
  835Sol     MW 7350   3.575   2.574   4.744 -0.2510  0.3830  0.3215
  836Sol     OW 7351   2.948   2.122   2.591  0.1996  0.3624  0.0797
  836Sol     HW 7352   2.859   2.109   2.559  0.2881 -2.0417  0.7152
  836Sol     HW 7353   2.998   2.148   2.514 -0.9080  1.0308 -0.4195
  836Sol     MW 7354   2.944   2.123   2.581 -0.1191  0.4705 -0.2783
  837Sol     OW 7355   3.153   1.732   6.865 -0.7542  0.1653  0.0149
  837Sol     HW 7356   3.111   1.790   6.801 -0.0838  2.1135  1.2964
  837Sol     HW 7357   3.212   1.790   6.914  0.4941 -1.7639  0.8274
  837Sol     MW 7358   3.154   1.743   6.863  0.0462  0.1345 -0.0370
  838Sol     OW 7359   3.373   2.638   5.192  0.0365 -0.8204 -0.4391
  838Sol     HW 7360   3.362   2.587   5.111  1.8152  0.0694 -1.2624
  838Sol     HW 7361   3.395   2.726   5.162  1.8470 -0.7507  1.0141
  838Sol     MW 7362   3.374   2.641   5.182  0.5362 -0.2138  0.2533
  839Sol     OW 7363   3.083   2.918   2.021  0.2548  0.0540  0.2751
  839Sol     HW 7364   3.173   2.887   2.007  0.8968  1.4769  1.1261
  839Sol     HW 7365   3.041   2.849   2.073  0.2704 -1.5010 -1.7457
  839Sol     MW 7366   3.087   2.909   2.025 -0.1326 -0.7201  0.2013
  840Sol     OW 7367   3.167   2.615   4.244 -0.5935  0.5884  0.1047
  840Sol     HW 7368   3.105   2.682   4.272 -1.4862  0.6743 -1.9815
  840Sol     HW 7369   3.120   2.565   4.177  1.3638  0.2728 -1.0762
  840Sol     MW 7370   3.157   2.617   4.240 -1.0344  0.6020  0.0719
  841Sol     OW 7371   0.857   3.612   4.969 -0.1030 -0.7007 -0.6397
  841Sol     HW 7372   0.786   3.554   4.997 -0.1041 -0.1581  0.4990
  841Sol     HW 7373   0.842   3.694   5.016  0.8255 -0.3147 -0.9912
  841Sol     MW 7374   0.850   3.614   4.976  0.1470 -0.0481  0.5443
  842Sol     OW 7375   3.135   1.520   2.283 -0.2828 -0.2724 -0.2302
  842Sol     HW 7376   3.069   1.469   2.236 -1.8526 -1.3992  3.0062
  842Sol     HW 7377   3.218   1.495   2.243 -1.5972 -0.3401 -3.0500
  842Sol     MW 7378   3.137   1.513   2.275  0.3692  0.1043 -0.2893
  843Sol     OW 7379   2.010   2.100   4.147  0.0976  0.0192  0.5288
  843Sol     HW 7380   2.099   2.067   4.140 -0.6826 -2.3048  1.1221
  843Sol     HW 7381   1.992   2.100   4.241 -0.5029  0.5601  0.4184
  843Sol     MW 7382   2.016   2.097   4.155 -0.4098 -0.7100  0.3327
  844Sol     OW 7383   3.963   1.390   2.438  0.1098  0.0458 -0.1093
  844Sol     HW 7384   4.019   1.436   2.376 -0.8930 -0.0671 -1.1260
  844Sol     HW 7385   4.017   1.319   2.472  1.6145  1.8477  1.3516
  844Sol     MW 7386   3.973   1.388   2.436 -0.2968 -0.6507  0.0332
  845Sol     OW 7387   0.948   3.564   2.194  0.0624 -0.0685  0.2647
  845Sol     HW 7388   0.958   3.654   2.161  0.6401 -0.0414  0.5052
  845Sol     HW 7389   1.026   3.550   2.248 -0.2478 -0.5633  0.5838
  845Sol     MW 7390   0.956   3.571   2.196 -0.3588  0.2073  0.4428
  846Sol     OW 7391   3.350   1.626   5.334 -0.2191  0.6445  0.7343
  846Sol     HW 7392   3.338   1.541   5.375 -0.0036  0.6066  0.7234
  846Sol     HW 7393   3.426   1.663   5.379 -0.2829  0.8099  0.7061
  846Sol     MW 7394   3.356   1.622   5.341  0.2803 -0.0527  0.2529
  847Sol     OW 7395   3.122   3.696   3.592  0.0007 -0.0334  0.2301
  847Sol     HW 7396   3.187   3.635   3.627 -0.0766  0.6535  1.6224
  847Sol     HW 7397   3.101   3.753   3.666 -2.2030 -0.2525 -0.1949
  847Sol     MW 7398   3.126   3.696   3.602 -0.4750 -0.0715 -1.0626
  848Sol     OW 7399   1.688   1.112   6.335  0.3944 -0.6261 -0.0415
  848Sol     HW 7400   1.676   1.032   6.284  2.1701  0.2842 -1.9228
  848Sol     HW 7401   1.783   1.129   6.332  0.1946  0.9083  1.3340
  848Sol     MW 7402   1.696   1.106   6.330 -0.0882 -0.1389 -0.0313
  849Sol     OW 7403   3.769   0.558   1.825  0.2750 -0.2478 -0.2533
  849Sol     HW 7404   3.850   0.530   1.783  0.6323 -0.1413  0.3502
  849Sol     HW 7405   3.742   0.636   1.777 -0.2245 -1.0774 -1.3490
  849Sol     MW 7406   3.774   0.562   1.817 -0.0941  0.5043 -0.0506
  850Sol     OW 7407   1.959   3.099   4.469 -0.0607 -0.0369 -0.2828
  850Sol     HW 7408   1.926   3.032   4.529  0.8844 -0.5586 -0.3250
  850Sol     HW 7409   1.901   3.173   4.481 -1.4299 -1.0467 -0.5990
  850Sol     MW 7410   1.951   3.099   4.476  0.3815  0.4028 -0.9116
  851Sol     OW 7411   3.487   1.700   3.169 -0.3086 -0.3883  0.5261
  851Sol     HW 7412   3.412   1.654   3.133 -0.6087 -0.0574  0.7192
  851Sol     HW 7413   3.501   1.774   3.110 -0.8954  0.2403  1.1456
  851Sol     MW 7414   3.481   1.703   3.161  0.1888  1.0511  0.0296
  852Sol     OW 7415   0.401   4.194   2.356  0.3472  0.4824 -0.2087
  852Sol     HW 7416   0.371   4.147   2.278  0.6748  0.3779 -0.2717
  852Sol     HW 7417   0.495   4.206   2.342  0.4003  0.4925  0.1543
  852Sol     MW 7418   0.407   4.191   2.348  0.8011  0.3155 -0.2326
  853Sol     OW 7419   3.971   0.577   5.522  0.1162 -0.6015 -0.2084
  853Sol     HW 7420   4.057   0.587   5.481  0.7296 -0.7520  1.0108
  853Sol     HW 7421   3.942   0.667   5.538  0.3929 -0.5574  0.0648
  853Sol     MW 7422   3.976   0.586   5.520  0.0839 -0.3321  0.0031
  854Sol     OW 7423   3.427   4.183   1.925  0.1738  0.0015 -0.5048
  854Sol     HW 7424   3.349   4.237   1.942 -0.0382 -0.0244 -1.3799
  854Sol     HW 7425   3.408   4.100   1.969 -0.2590  0.0274 -0.6343
  854Sol     MW 7426   3.418   4.181   1.931 -0.3484 -0.7574  0.2755
  855Sol     OW 7427   3.405   3.123   1.890 -0.0309 -0.1648  0.0803
  855Sol     HW 7428   3.436   3.082   1.809 -1.8632 -0.8715 -0.2945
  855Sol     HW 7429   3.359   3.201   1.861  1.1741  0.7582  0.6137
  855Sol     MW 7430   3.404   3.126   1.880  0.0743  0.5192 -0.1378
  856Sol     OW 7431   3.296   3.626   1.979 -0.0617  0.2899  0.0013
  856Sol     HW 7432   3.258   3.539   1.986 -1.0885  0.6521 -1.0893
  856Sol     HW 7433   3.360   3.619   1.908 -2.1853  1.1393 -2.0503
  856Sol     MW 7434   3.299   3.618   1.973  0.1023  0.4228 -0.0426
  857Sol     OW 7435   0.607   4.010   4.525 -0.1027 -0.1116  0.1743
  857Sol     HW 7436   0.663   3.961   4.586  0.4604 -1.9223 -1.7449
  857Sol     HW 7437   0.658   4.087   4.502  1.2635 -1.2926 -0.8477
  857Sol     MW 7438   0.617   4.013   4.529 -0.4082 -0.1399  0.3107
  858Sol     OW 7439   3.738   3.913   5.270 -0.2383  0.1730 -0.4581
  858Sol     HW 7440   3.722   3.988   5.213  0.0942  0.1901 -0.5292
  858Sol     HW 7441   3.772   3.846   5.211  1.9935  0.8311  0.0371
  858Sol     MW 7442   3.739   3.914   5.260  0.0403 -0.5032  0.1141
  859Sol     OW 7443   1.218   1.310   5.638  0.2736  0.4857 -0.1237
  859Sol     HW 7444   1.238   1.218   5.656  1.3261  0.6002 -0.6458
  859Sol     HW 7445   1.174   1.309   5.553  2.2521  0.6371 -1.1983
  859Sol     MW 7446   1.216   1.302   5.632  0.2354 -0.7077  0.4458
  860Sol     OW 7447   2.134   2.694   2.000  0.1349  0.2316 -0.0134
  860Sol     HW 7448   2.207   2.633   2.009  0.4798  0.6139 -0.2079
  860Sol     HW 7449   2.133   2.743   2.083  0.2519  0.3925 -0.1065
  860Sol     MW 7450   2.140   2.693   2.009 -0.4679 -0.0202  0.1165
  861Sol     OW 7451   3.213   1.615   4.525 -0.6286 -0.4615 -0.1757
  861Sol     HW 7452   3.285   1.561   4.559  0.6139  1.6453  0.5955
  861Sol     HW 7453   3.144   1.606   4.591 -0.5602 -1.3347 -0.2081
  861Sol     MW 7454   3.213   1.609   4.534 -0.1601 -0.5342 -0.3727
  862Sol     OW 7455   1.781   4.153   2.582  0.2657  0.1214 -0.5404
  862Sol     HW 7456   1.857   4.135   2.526  0.9225  1.2609 -0.0428
  862Sol     HW 7457   1.724   4.208   2.528  0.0948 -0.2194 -0.7019
  862Sol     MW 7458   1.783   4.157   2.572 -0.3145 -0.1295  0.1725
  863Sol     OW 7459   1.556   3.897   1.863 -0.2701  0.3066 -0.2019
  863Sol     HW 7460   1.564   3.840   1.940  1.1113  0.5668 -0.1542
  863Sol     HW 7461   1.509   3.844   1.799  1.1965 -0.9728 -0.2386
  863Sol     MW 7462   1.552   3.887   1.864  0.0373 -0.0178  0.2904
  864Sol     OW 7463   2.920   1.766   6.226 -0.2859  0.5227  0.2320
  864Sol     HW 7464   2.962   1.705   6.165 -1.2087  0.7569 -0.6423
  864Sol     HW 7465   2.838   1.790   6.184 -0.5851  1.2796  1.2243
  864Sol     MW 7466   2.917   1.762   6.217  0.4724 -0.2734 -0.4107
  865Sol     OW 7467   3.701   1.369   2.332 -0.0655  0.0239 -0.3329
  865Sol     HW 7468   3.779   1.390   2.382 -0.5596  1.0096  0.0425
  865Sol     HW 7469   3.732   1.318   2.257  0.6426 -1.7758  1.1573
  865Sol     MW 7470   3.710   1.366   2.330 -0.1002  0.1312  0.4428
  866Sol     OW 7471   2.507   0.781   6.219 -0.8174 -0.1794 -0.1509
  866Sol     HW 7472   2.493   0.687   6.234  1.6717 -0.3177  1.5132
  866Sol     HW 7473   2.505   0.820   6.306 -0.3666  1.1046 -0.7074
  866Sol     MW 7474   2.505   0.776   6.228 -0.2187  0.1031 -0.8630
  867Sol     OW 7475   0.833   1.518   1.976  1.0576  0.1237 -0.1337
  867Sol     HW 7476   0.748   1.502   1.935  0.8178 -0.3205  0.5327
  867Sol     HW 7477   0.865   1.598   1.934  1.4592 -1.0939 -2.2111
  867Sol     MW 7478   0.829   1.524   1.969  0.0832 -0.1311  0.5427
  868Sol     OW 7479   0.552   3.129   2.698  0.4621 -0.1462 -0.5770
  868Sol     HW 7480   0.466   3.093   2.718  1.2434 -3.2028 -2.4021
  868Sol     HW 7481   0.609   3.097   2.768  0.7020 -0.7033 -1.0148
  868Sol     MW 7482   0.550   3.123   2.706 -0.7990  0.3445  0.1338
  869Sol     OW 7483   0.886   3.561   6.816 -0.4461  0.3505 -0.7457
  869Sol     HW 7484   0.917   3.525   6.733  0.7618  3.4097 -1.7039
  869Sol     HW 7485   0.836   3.639   6.791 -1.1948  0.5665  1.3352
  869Sol     MW 7486   0.884   3.565   6.807  0.0664  0.3022 -0.2695
  870Sol     OW 7487   2.659   0.437   4.482 -0.2986  0.3585  0.5398
  870Sol     HW 7488   2.720   0.412   4.551 -0.1192  0.0214  0.2604
  870Sol     HW 7489   2.702   0.410   4.401  0.1103  1.9747  0.1969
  870Sol     MW 7490   2.668   0.433   4.481 -0.0347  0.4698 -0.5064
  871Sol     OW 7491   0.501   2.301   2.771  0.3698  0.8790 -0.5233
  871Sol     HW 7492   0.569   2.340   2.825  0.6599 -0.7869  0.3592
  871Sol     HW 7493   0.521   2.207   2.771 -2.8387  0.1355  1.1087
  871Sol     MW 7494   0.509   2.296   2.776  0.5375 -0.8499  0.5523
  872Sol     OW 7495   2.196   0.615   3.652 -0.6092 -0.1064 -0.4733
  872Sol     HW 7496   2.127   0.620   3.719  0.9326  0.4141  1.1250
  872Sol     HW 7497   2.239   0.530   3.668 -0.4293 -0.1174 -1.0020
  872Sol     MW 7498   2.194   0.608   3.660 -0.0872  0.1143  0.1099
  873Sol     OW 7499   3.700   1.601   2.866 -0.0669 -0.0692 -0.0155
  873Sol     HW 7500   3.608   1.589   2.887 -0.6324  1.0989 -1.7042
  873Sol     HW 7501   3.708   1.573   2.775  1.4548 -1.1133  0.4272
  873Sol     MW 7502   3.693   1.598   2.860 -0.2712 -0.4509 -0.0938
  874Sol     OW 7503   3.260   0.802   5.134  0.2736  0.0488  0.1260
  874Sol     HW 7504   3.333   0.859   5.160  0.5157 -0.1506 -0.1160
  874Sol     HW 7505   3.187   0.862   5.121  0.6604  0.3723 -0.6290
  874Sol     MW 7506   3.260   0.812   5.135 -0.0757  0.5809 -0.3548
  875Sol     OW 7507   0.211   0.450   1.693 -0.5403  0.5185 -0.0760
  875Sol     HW 7508   0.119   0.449   1.720 -0.8238  0.3712 -1.0543
  875Sol     HW 7509   0.217   0.384   1.624  0.1172  1.1093 -0.5923
  875Sol     MW 7510   0.203   0.444   1.689  0.1300  0.0315 -0.2887
  876Sol     OW 7511   0.594   1.328   1.821 -0.5402  0.1051  0.1395
  876Sol     HW 7512   0.530   1.350   1.888 -2.3241 -0.8180 -1.2182
  876Sol     HW 7513   0.545   1.331   1.739  1.5183  0.9011 -1.1220
  876Sol     MW 7514   0.584   1.331   1.819  0.0520  0.2712 -0.6570
  877Sol     OW 7515   1.428   3.662   3.195  0.2367  0.5300 -0.0708
  877Sol     HW 7516   1.375   3.698   3.266 -0.4638 -1.0721  0.2254
  877Sol     HW 7517   1.508   3.715   3.196 -0.0278  0.9275  1.5042
  877Sol     MW 7518   1.431   3.670   3.201  0.0593 -0.2031  1.0737
  878Sol     OW 7519   2.123   0.311   5.272  0.4003 -0.5755  0.0600
  878Sol     HW 7520   2.207   0.266   5.267  1.0342  0.6032 -0.0733
  878Sol     HW 7521   2.128   0.362   5.353 -0.6139 -1.3289  0.6160
  878Sol     MW 7522   2.131   0.311   5.279 -0.2640 -0.0486 -0.6608
  879Sol     OW 7523   3.766   1.474   2.603  0.2233  0.1086 -0.8298
  879Sol     HW 7524   3.851   1.451   2.567  0.2970  1.8079 -1.7786
  879Sol     HW 7525   3.712   1.396   2.587  1.3311 -0.6396 -1.0339
  879Sol     MW 7526   3.769   1.465   2.598  0.5095  0.0371  0.2008
  880Sol     OW 7527   1.068   2.888   5.283  0.6757 -0.0466 -0.1644
  880Sol     HW 7528   1.139   2.925   5.230  1.1354 -0.2488  0.3065
  880Sol     HW 7529   1.036   2.961   5.335  1.8836 -0.3953  1.0949
  880Sol     MW 7530   1.072   2.898   5.283  0.5519  0.5199  0.4967
  881Sol     OW 7531   1.157   1.137   3.903 -0.2183  0.2017  0.0257
  881Sol     HW 7532   1.157   1.226   3.867  0.7832  0.2611  0.1431
  881Sol     HW 7533   1.072   1.128   3.944  1.2750  2.8167  4.0751
  881Sol     MW 7534   1.150   1.144   3.903  0.0755  0.5725  0.7137
  882Sol     OW 7535   2.616   1.949   4.135  0.1709  0.0116  0.1478
  882Sol     HW 7536   2.572   2.033   4.146  0.0481  0.0458 -0.6181
  882Sol     HW 7537   2.657   1.933   4.220  0.0888  0.7837  0.3385
  882Sol     MW 7538   2.616   1.955   4.144 -0.3156 -0.1399 -0.3865
  883Sol     OW 7539   2.052   0.650   4.935  0.3318  0.5667 -0.4148
  883Sol     HW 7540   2.074   0.562   4.904 -0.0384  1.2208 -2.5516
  883Sol     HW 7541   2.086   0.709   4.868 -0.2176  2.0241  0.5632
  883Sol     MW 7542   2.057   0.647   4.927  0.3279  0.1037 -0.1901
  884Sol     OW 7543   3.781   1.859   3.591  0.3660  0.1292 -0.4188
  884Sol     HW 7544   3.841   1.808   3.645  0.0775  0.8457  0.6011
  884Sol     HW 7545   3.708   1.881   3.650  0.6189  1.9345 -0.7413
  884Sol     MW 7546   3.780   1.857   3.601  0.3203  0.3868  0.7302
  885Sol     OW 7547   3.857   1.865   2.231  0.5121  0.6059  0.7913
  885Sol     HW 7548   3.899   1.781   2.216 -0.1362 -0.3060  3.8657
  885Sol     HW 7549   3.922   1.917   2.278  0.3375  1.3005  0.2863
  885Sol     MW 7550   3.867   1.862   2.234  0.0059 -0.1624 -0.5180
  886Sol     OW 7551   1.757   1.174   1.984  0.0670  0.7957 -0.1735
  886Sol     HW 7552   1.682   1.143   1.933 -0.2566  1.5728 -0.1781
  886Sol     HW 7553   1.726   1.254   2.026  0.5278  0.4982  0.7571
  886Sol     MW 7554   1.747   1.178   1.983  0.4121 -0.5422  0.5252
  887Sol     OW 7555   2.542   3.160   2.307 -0.1442 -0.4030  0.1245
  887Sol     HW 7556   2.605   3.092   2.284 -0.3348 -0.5290 -0.0252
  887Sol     HW 7557   2.463   3.136   2.258 -0.4646 -0.5271  0.7028
  887Sol     MW 7558   2.540   3.151   2.301 -0.3757 -0.0512  0.5940
  888Sol     OW 7559   1.530   3.067   3.294  0.0437 -0.9543 -0.3617
  888Sol     HW 7560   1.544   3.155   3.257  0.4571 -1.7494 -2.1574
  888Sol     HW 7561   1.615   3.042   3.329 -0.3868 -0.1340  1.3201
  888Sol     MW 7562   1.538   3.073   3.294  0.4488 -0.1882 -0.0140
  889Sol     OW 7563   1.360   0.729   4.214  0.3737  0.1063  0.6123
  889Sol     HW 7564   1.288   0.789   4.195  0.2997 -0.3144 -0.5120
  889Sol     HW 7565   1.329   0.644   4.182  0.3129 -0.6200  2.5471
  889Sol     MW 7566   1.351   0.726   4.209 -0.0695  0.3070 -0.1043
  890Sol     OW 7567   2.489   1.206   4.254 -0.5470  0.1360  0.0464
  890Sol     HW 7568   2.449   1.237   4.173 -0.2299  1.7184  0.4716
  890Sol     HW 7569   2.558   1.146   4.226  0.0443  1.2409 -0.9004
  890Sol     MW 7570   2.491   1.203   4.244 -0.0976  0.3189 -0.0356
  891Sol     OW 7571   1.431   3.707   4.962  0.7569 -0.3350 -0.3009
  891Sol     HW 7572   1.470   3.754   5.036  2.5238 -0.4455 -1.1381
  891Sol     HW 7573   1.437   3.615   4.986 -1.5699 -0.2636  0.7822
  891Sol     MW 7574   1.435   3.703   4.971 -0.0929  0.0900  0.0080
  892Sol     OW 7575   0.299   3.728   5.310  0.2127 -0.3611  0.4817
  892Sol     HW 7576   0.304   3.633   5.323 -0.8103 -0.3008  1.4083
  892Sol     HW 7577   0.373   3.763   5.360  1.6513 -0.7843 -1.3052
  892Sol     MW 7578   0.306   3.723   5.316 -0.3439  0.6784  0.1259
  893Sol     OW 7579   0.018   0.536   4.716 -0.4043  0.0880 -0.0892
  893Sol     HW 7580   0.106   0.497   4.709 -0.0531  0.8124  0.2126
  893Sol     HW 7581  -0.035   0.468   4.758  0.5922  0.5318  1.9303
  893Sol     MW 7582   0.022   0.526   4.719 -0.7238  0.4116 -0.1399
  894Sol     OW 7583   2.537   2.863   3.905  0.1293  0.8966 -0.1708
  894Sol     HW 7584   2.457   2.915   3.908  1.1386  2.5718 -1.8397
  894Sol     HW 7585   2.608   2.926   3.912  1.3503 -0.4456 -0.1078
  894Sol     MW 7586   2.536   2.873   3.906 -0.1976 -0.0335 -0.5218
  895Sol     OW 7587   1.517   3.206   4.964  0.1966  0.3599 -0.3002
  895Sol     HW 7588   1.497   3.161   5.046 -3.2599 -1.3588 -1.9700
  895Sol     HW 7589   1.480   3.294   4.975  0.6596  0.4785  0.3389
  895Sol     MW 7590   1.511   3.210   4.972 -0.7648  0.3473  0.4423
  896Sol     OW 7591   3.222   1.995   5.003 -0.2585 -0.2455  0.2457
  896Sol     HW 7592   3.264   2.036   4.928  0.4495 -1.9175 -0.2926
  896Sol     HW 7593   3.281   2.012   5.076 -0.5174  0.6313  0.2565
  896Sol     MW 7594   3.231   2.000   5.003 -0.1664 -0.0700  0.3257
  897Sol     OW 7595   0.228   3.116   4.972 -0.9098  0.2966  0.0292
  897Sol     HW 7596   0.150   3.065   4.992 -0.9425 -0.4602 -1.8662
  897Sol     HW 7597   0.221   3.135   4.878  2.4487 -2.0904 -0.8088
  897Sol     MW 7598   0.221   3.113   4.965  0.2671  0.1007 -0.0443
  898Sol     OW 7599   1.317   1.221   2.158 -0.1086  0.2940 -0.1756
  898Sol     HW 7600   1.393   1.206   2.214 -1.1849 -0.8009  1.0099
  898Sol     HW 7601   1.252   1.262   2.216 -0.3037  1.5977 -1.2743
  898Sol     MW 7602   1.318   1.224   2.168 -0.0686  0.3591 -0.0934
  899Sol     OW 7603   0.036   1.773   6.612 -0.4449  0.1061 -0.4461
  899Sol     HW 7604   0.082   1.773   6.528 -2.0955  0.4219 -1.3796
  899Sol     HW 7605   0.055   1.858   6.650  1.8669 -0.7532  0.4046
  899Sol     MW 7606   0.042   1.780   6.608 -0.8104 -0.2966 -0.0354
  900Sol     OW 7607   1.153   1.159   4.331  0.0395 -0.6189  0.0881
  900Sol     HW 7608   1.061   1.174   4.352  0.0377  0.2169 -0.5072
  900Sol     HW 7609   1.194   1.246   4.338  0.9344 -1.0965  1.0842
  900Sol     MW 7610   1.149   1.168   4.334 -0.1810 -0.2921  0.2400
  901Sol     OW 7611   1.076   0.630   2.526 -1.0515 -0.1819 -0.4701
  901Sol     HW 7612   1.071   0.540   2.558 -1.9980 -0.3179 -0.9626
  901Sol     HW 7613   1.152   0.631   2.467  0.3951 -0.0479  1.3615
  901Sol     MW 7614   1.082   0.622   2.523  0.2727 -0.1857 -0.1303
  902Sol     OW 7615   1.976   3.223   5.662  0.3283 -0.1102  0.7759
  902Sol     HW 7616   2.059   3.238   5.707  0.3603 -0.3863  0.8100
  902Sol     HW 7617   1.909   3.233   5.730  0.3728 -0.4666  0.8746
  902Sol     MW 7618   1.977   3.225   5.673 -0.6114  0.1798  0.1160
  903Sol     OW 7619   3.100   3.516   2.820  0.0525  0.5222  0.5871
  903Sol     HW 7620   3.195   3.507   2.809 -0.2483 -0.4990 -1.4195
  903Sol     HW 7621   3.077   3.591   2.766 -0.2588  0.8894  1.2289
  903Sol     MW 7622   3.106   3.522   2.814 -0.4462  0.8963  0.6494
  904Sol     OW 7623   1.126   0.252   2.394 -0.5643  0.3023  0.1290
  904Sol     HW 7624   1.199   0.209   2.350 -1.4672 -0.2750 -0.8069
  904Sol     HW 7625   1.085   0.306   2.326 -0.3973  1.4277  0.9019
  904Sol     MW 7626   1.129   0.253   2.384  0.0594  0.0208  0.2020
  905Sol     OW 7627   3.867   3.783   2.218 -0.9674 -0.5226 -0.3246
  905Sol     HW 7628   3.939   3.789   2.281 -2.0718  0.9902  0.8248
  905Sol     HW 7629   3.788   3.773   2.271 -2.0855  2.2577 -1.3389
  905Sol     MW 7630   3.866   3.783   2.228  0.5453  0.5637  0.5349
  906Sol     OW 7631   1.040   0.550   6.417  0.1461 -0.0735 -0.3894
  906Sol     HW 7632   0.972   0.549   6.485  1.0522  1.4076  0.5710
  906Sol     HW 7633   1.120   0.523   6.462  0.3549 -1.1058 -1.3518
  906Sol     MW 7634   1.041   0.547   6.427 -0.3606  0.1612 -0.4752
  907Sol     OW 7635   1.159   1.364   6.325 -0.1336  0.4539 -0.1482
  907Sol     HW 7636   1.173   1.369   6.230  0.6070 -1.5016 -0.1523
  907Sol     HW 7637   1.152   1.456   6.353  0.1710  1.0625 -2.0063
  907Sol     MW 7638   1.159   1.373   6.319 -0.0606  0.9556 -0.5923
  908Sol     OW 7639   2.852   4.147   3.212  0.4015 -0.2491  0.0422
  908Sol     HW 7640   2.804   4.066   3.197 -0.8675  0.5210 -0.1116
  908Sol     HW 7641   2.881   4.175   3.125 -0.2706  0.1377 -0.0580
  908Sol     MW 7642   2.850   4.143   3.203 -0.3741 -0.0661 -0.2293
  909Sol     OW 7643   2.591   2.854   5.788  0.0738 -0.7361 -0.5948
  909Sol     HW 7644   2.628   2.776   5.746  1.1985 -0.8872  0.6516
  909Sol     HW 7645   2.645   2.926   5.757  2.9293 -1.2146  2.9075
  909Sol     MW 7646   2.599   2.853   5.782  1.0349 -0.5013 -0.4393
  910Sol     OW 7647   0.308   4.015   5.837 -0.8467 -0.1141 -0.6783
  910Sol     HW 7648   0.400   4.027   5.815 -0.5022  0.0152  0.7648
  910Sol     HW 7649   0.306   4.015   5.933 -2.2910 -0.5454 -0.6936
  910Sol     MW 7650   0.316   4.016   5.844  0.2854  0.2961 -0.5043
  911Sol     OW 7651   3.633   2.910   2.913  0.1745  0.2864 -0.3938
  911Sol     HW 7652   3.672   2.992   2.881 -0.5335  0.6752 -0.2643
  911Sol     HW 7653   3.643   2.849   2.839  0.5771  0.5289 -0.5415
  911Sol     MW 7654   3.637   2.912   2.903 -0.1705 -0.3688  0.0750
  912Sol     OW 7655   1.242   2.967   1.517 -0.6471 -0.1939 -0.1352
  912Sol     HW 7656   1.215   2.875   1.526 -0.1439 -0.5657 -2.1643
  912Sol     HW 7657   1.162   3.013   1.492 -0.2421 -0.6506 -2.3544
  912Sol     MW 7658   1.233   2.963   1.516  0.4391  0.1284  0.9011
  913Sol     OW 7659   1.697   0.428   3.672  0.0555 -0.3380 -0.3851
  913Sol     HW 7660   1.697   0.332   3.674  1.9505 -0.3542  0.5031
  913Sol     HW 7661   1.611   0.453   3.705  0.4349 -1.7300  1.7213
  913Sol     MW 7662   1.689   0.421   3.675  0.5769  0.2252 -0.0365
  914Sol     OW 7663   3.508   2.604   6.032  0.1939  0.1742  0.0717
  914Sol     HW 7664   3.476   2.518   6.060 -1.6294  0.7701 -0.1378
  914Sol     HW 7665   3.498   2.660   6.109  0.0107  0.5456 -0.2187
  914Sol     MW 7666   3.504   2.601   6.042  0.0886  0.1130 -0.5747
  915Sol     OW 7667   0.950   3.482   6.566 -0.1994 -0.0697  0.4018
  915Sol     HW 7668   0.968   3.576   6.556  1.3160 -0.2745  1.1330
  915Sol     HW 7669   1.029   3.439   6.536  0.1521 -1.0212  2.6065
  915Sol     MW 7670   0.958   3.487   6.563  0.3485 -0.1473 -0.0684
  916Sol     OW 7671   0.829   1.715   1.433  0.3489  0.1399 -0.1187
  916Sol     HW 7672   0.844   1.689   1.523 -0.3796 -0.6149 -0.2073
  916Sol     HW 7673   0.823   1.810   1.435  0.8172  0.1526  0.5497
  916Sol     MW 7674   0.830   1.721   1.441 -0.2427  1.0355  0.8398
  917Sol     OW 7675   1.900   0.275   5.614  0.2283 -0.4121 -0.0182
  917Sol     HW 7676   1.983   0.317   5.639 -0.7714  1.5740  0.0842
  917Sol     HW 7677   1.868   0.235   5.695 -0.9261  2.4180  1.0140
  917Sol     MW 7678   1.904   0.275   5.624 -0.0416 -0.6798  0.4771
  918Sol     OW 7679   1.420   1.188   3.659 -0.6293  0.0331 -0.2362
  918Sol     HW 7680   1.486   1.222   3.719 -1.3119 -1.7284  1.5606
  918Sol     HW 7681   1.446   1.097   3.644 -0.8443  0.2574 -2.1019
  918Sol     MW 7682   1.428   1.183   3.663 -0.2217 -0.2611 -0.3116
  919Sol     OW 7683   2.649   2.095   2.595 -0.0836 -0.2077  0.0080
  919Sol     HW 7684   2.622   2.070   2.683  0.8158 -1.0560  0.0506
  919Sol     HW 7685   2.595   2.041   2.537  0.3130 -0.6748  0.0675
  919Sol     MW 7686   2.642   2.088   2.598  0.4817  0.3183 -0.0697
  920Sol     OW 7687   0.978   2.382   5.747 -0.0584 -0.1552 -0.2838
  920Sol     HW 7688   0.938   2.303   5.710 -1.3374 -0.1830  1.1163
  920Sol     HW 7689   0.918   2.453   5.723  1.1555  0.4344 -1.6521
  920Sol     MW 7690   0.969   2.381   5.741 -0.2958 -0.0507 -0.3861
  921Sol     OW 7691   1.779   3.544   1.735  0.2076 -0.2353 -0.1527
  921Sol     HW 7692   1.815   3.623   1.776 -0.0506 -0.2430  0.0901
  921Sol     HW 7693   1.829   3.535   1.654 -0.1544  0.5022 -0.4666
  921Sol     MW 7694   1.787   3.550   1.731 -0.5144  0.4599 -0.3681
  922Sol     OW 7695   1.481   3.219   4.545  0.3166 -0.0157  0.0390
  922Sol     HW 7696   1.518   3.160   4.479 -1.3262  1.7640 -2.5320
  922Sol     HW 7697   1.391   3.189   4.557  0.7602 -0.6729  1.9380
  922Sol     MW 7698   1.476   3.211   4.540 -0.2435  0.0870  0.5516
  923Sol     OW 7699   0.785   3.661   4.640  0.1542  0.0899 -0.4208
  923Sol     HW 7700   0.786   3.614   4.557 -1.3225  0.2685 -0.5390
  923Sol     HW 7701   0.773   3.592   4.706 -2.4957  0.3033 -0.6251
  923Sol     MW 7702   0.784   3.651   4.639 -0.2496  0.1277  0.2425
  924Sol     OW 7703   1.563   2.786   6.757  0.2145 -0.1115  0.1535
  924Sol     HW 7704   1.653   2.787   6.788  0.5010 -1.0062 -0.6316
  924Sol     HW 7705   1.512   2.753   6.832  0.3775  1.5044  0.9836
  924Sol     MW 7706   1.566   2.783   6.767  0.4194  0.2375  0.2673
  925Sol     OW 7707   0.002   2.554   6.432  0.5187 -0.1810 -0.3386
  925Sol     HW 7708  -0.090   2.544   6.456  0.7827 -1.3631  0.2015
  925Sol     HW 7709   0.047   2.575   6.514  0.6471  0.9877 -0.7008
  925Sol     MW 7710  -0.002   2.555   6.441  0.2699 -0.4104 -0.2651
  926Sol     OW 7711   3.520   3.208   2.691  0.6307  0.0408 -0.0934
  926Sol     HW 7712   3.597   3.242   2.646  1.6425  0.7123  2.0738
  926Sol     HW 7713   3.553   3.180   2.777 -1.7673  1.6399  1.4096
  926Sol     MW 7714   3.530   3.208   2.695 -0.5823 -0.6013 -0.0498
  927Sol     OW 7715   3.332   2.875   4.570  0.0928 -0.3881 -0.0029
  927Sol     HW 7716   3.412   2.915   4.605  0.8968 -0.7107 -1.4198
  927Sol     HW 7717   3.288   2.947   4.524 -0.0960 -0.3604  0.2250
  927Sol     MW 7718   3.335   2.885   4.569  0.0758  0.6776  0.4269
  928Sol     OW 7719   2.645   2.602   6.564 -0.2370  0.4073 -0.9588
  928Sol     HW 7720   2.568   2.545   6.566 -0.6821  0.9319 -2.2890
  928Sol     HW 7721   2.703   2.566   6.631 -1.4708 -0.2259 -0.2045
  928Sol     MW 7722   2.643   2.593   6.570  0.0598 -0.5383 -0.2951
  929Sol     OW 7723   1.125   1.606   3.107  0.0699 -0.0884 -0.5093
  929Sol     HW 7724   1.191   1.662   3.066  0.1439 -0.7620 -1.3199
  929Sol     HW 7725   1.155   1.517   3.089  1.5283 -0.4685  3.2529
  929Sol     MW 7726   1.134   1.603   3.102 -0.1032 -0.4075  0.0231
  930Sol     OW 7727   2.043   2.956   5.558  0.0672 -0.3327 -0.2950
  930Sol     HW 7728   2.121   2.939   5.611  0.6398 -0.1537 -1.0690
  930Sol     HW 7729   2.030   3.050   5.565 -1.3693 -0.6360  1.5912
  930Sol     MW 7730   2.049   2.963   5.563  0.8307 -0.4062 -0.1542
  931Sol     OW 7731   2.462   0.844   4.120 -0.1631 -0.0135  0.2696
  931Sol     HW 7732   2.457   0.852   4.215  0.0434 -0.3493  0.3101
  931Sol     HW 7733   2.545   0.885   4.095 -0.7865  1.1680  0.1033
  931Sol     MW 7734   2.469   0.848   4.126 -0.1457  0.5753 -0.0781
  932Sol     OW 7735   0.297   2.055   4.364 -0.1361  0.0951  0.0774
  932Sol     HW 7736   0.348   2.078   4.287  1.6022 -1.5629  0.7099
  932Sol     HW 7737   0.219   2.011   4.330  0.2055  0.1479 -0.7663
  932Sol     MW 7738   0.294   2.053   4.354 -0.0488 -0.1806 -0.7237
  933Sol     OW 7739   1.792   0.696   4.275 -0.5104  0.2260  0.3521
  933Sol     HW 7740   1.789   0.760   4.346  0.4156 -0.5770  1.1250
  933Sol     HW 7741   1.717   0.718   4.219 -0.0331  2.1452  0.4571
  933Sol     MW 7742   1.785   0.703   4.276  0.4701  0.2595  0.2886
  934Sol     OW 7743   0.774   3.924   2.320 -0.7463 -0.0624  0.0629
  934Sol     HW 7744   0.731   4.003   2.287  2.5141  0.7070 -2.6225
  934Sol     HW 7745   0.707   3.855   2.312 -3.4639  2.2248  1.9831
  934Sol     MW 7746   0.764   3.925   2.316  0.0252 -0.2654  0.5706
  935Sol     OW 7747   0.510   2.193   3.282  0.8247  0.3928  0.1594
  935Sol     HW 7748   0.593   2.174   3.237  1.0918  1.3454  0.2303
  935Sol     HW 7749   0.532   2.190   3.375  0.9104  1.1511  0.1723
  935Sol     MW 7750   0.519   2.191   3.286 -0.5978  0.2520 -0.6174
  936Sol     OW 7751   1.710   0.586   2.668  0.7213  0.0972 -0.6468
  936Sol     HW 7752   1.635   0.604   2.612 -1.6998 -2.2993  1.6890
  936Sol     HW 7753   1.739   0.498   2.641  0.5320 -0.4101  0.8005
  936Sol     MW 7754   1.706   0.579   2.660 -0.2605 -0.6217 -0.1842
  937Sol     OW 7755   1.561   3.957   5.513  0.3786  0.4978  0.3523
  937Sol     HW 7756   1.556   4.050   5.490  2.3817  0.5175 -0.1086
  937Sol     HW 7757   1.640   3.925   5.469 -0.4450 -1.5069  0.2617
  937Sol     MW 7758   1.568   3.962   5.507  0.2589 -0.2120  0.2477
  938Sol     OW 7759   0.976   3.336   3.546 -0.4251 -0.3296  0.0040
  938Sol     HW 7760   0.920   3.309   3.474 -1.1005 -0.6964  0.6615
  938Sol     HW 7761   0.916   3.372   3.611  0.3403  1.5207 -0.2897
  938Sol     MW 7762   0.966   3.337   3.545 -0.0866 -0.3374  0.0694
  939Sol     OW 7763   2.389   0.142   5.859 -0.5563  0.0978 -0.1622
  939Sol     HW 7764   2.432   0.193   5.790 -2.5390 -0.3983 -1.8043
  939Sol     HW 7765   2.392   0.052   5.828 -3.0287  0.0920 -0.4740
  939Sol     MW 7766   2.393   0.138   5.850  0.3627  0.2483  0.1021
  940Sol     OW 7767   1.766   3.220   5.861 -0.3847 -0.4661 -0.4264
  940Sol     HW 7768   1.710   3.293   5.887 -0.5684 -0.3152 -1.2426
  940Sol     HW 7769   1.707   3.157   5.821 -0.1474 -0.8455 -0.1825
  940Sol     MW 7770   1.756   3.221   5.860 -0.6643  0.3764 -0.1507
  941Sol     OW 7771   0.390   3.148   3.763 -0.1084 -0.4063  0.0045
  941Sol     HW 7772   0.368   3.204   3.689  1.1569  0.5235  0.3124
  941Sol     HW 7773   0.413   3.064   3.724 -1.8359 -0.6861 -0.4717
  941Sol     MW 7774   0.390   3.146   3.753  0.7878 -0.0999 -0.2073
  942Sol     OW 7775   0.901   0.139   4.272 -0.3942 -0.2808  0.4795
  942Sol     HW 7776   0.849   0.126   4.192  2.1999  1.0603 -1.4688
  942Sol     HW 7777   0.921   0.233   4.272 -0.4515 -0.2500  2.8018
  942Sol     MW 7778   0.898   0.146   4.265 -0.1420 -0.0159 -0.0699
  943Sol     OW 7779   3.526   1.565   6.372  0.3775 -0.3507  0.7093
  943Sol     HW 7780   3.576   1.628   6.321 -0.3990  0.1093  0.5267
  943Sol     HW 7781   3.545   1.481   6.331  1.3160 -0.2350  0.8821
  943Sol     MW 7782   3.532   1.563   6.364  0.2149 -0.0808  0.0077
  944Sol     OW 7783   1.671   1.427   2.043 -0.6073 -0.0592  0.4229
  944Sol     HW 7784   1.585   1.454   2.076 -1.1591  1.3136 -2.0025
  944Sol     HW 7785   1.729   1.500   2.067 -0.5457 -0.0745  0.3187
  944Sol     MW 7786   1.668   1.436   2.048 -0.1062 -0.0894  0.2396
  945Sol     OW 7787   1.509   3.835   3.796 -0.6572  0.2513 -0.1258
  945Sol     HW 7788   1.489   3.842   3.890  0.7951  0.6108  0.1690
  945Sol     HW 7789   1.430   3.798   3.758 -2.1377  2.2224  0.9043
  945Sol     MW 7790   1.500   3.832   3.801  0.5238  0.1828  0.2416
  946Sol     OW 7791   2.134   3.535   2.785 -0.3443  0.0782  1.0080
  946Sol     HW 7792   2.164   3.619   2.751 -0.6175 -0.4426 -0.5522
  946Sol     HW 7793   2.070   3.558   2.853 -1.7577  1.1328 -0.6478
  946Sol     MW 7794   2.131   3.545   2.788 -0.1733 -0.0368 -0.6540
  947Sol     OW 7795   2.291   3.229   4.115 -0.1399 -0.1475  0.0889
  947Sol     HW 7796   2.293   3.318   4.151  1.9832  0.6428 -1.8806
  947Sol     HW 7797   2.211   3.192   4.150 -0.8475  2.3853  1.3267
  947Sol     MW 7798   2.284   3.234   4.122 -0.7925  0.2816  0.2803
  948Sol     OW 7799   3.756   1.773   6.607 -0.1815 -0.5364  0.0454
  948Sol     HW 7800   3.802   1.693   6.632  1.0520 -0.0249 -0.5408
  948Sol     HW 7801   3.819   1.843   6.623 -0.4733  0.1105 -1.4983
  948Sol     MW 7802   3.766   1.772   6.611 -0.3883 -0.6133 -0.2674
  949Sol     OW 7803   0.210   1.216   6.375 -0.4408 -0.0421 -0.5593
  949Sol     HW 7804   0.205   1.295   6.321  0.9753 -0.4140 -1.2503
  949Sol     HW 7805   0.238   1.247   6.460 -2.1947  0.4869 -0.1591
  949Sol     MW 7806   0.212   1.226   6.377  0.1437 -0.4586 -0.4526
  950Sol     OW 7807   3.710   3.180   4.128  0.2477 -0.4877  0.0068
  950Sol     HW 7808   3.709   3.115   4.058 -0.7617 -0.3693 -0.0933
  950Sol     HW 7809   3.788   3.159   4.179  1.5765  0.0666 -1.7424
  950Sol     MW 7810   3.717   3.172   4.126  0.6248  0.3871  0.3421
  951Sol     OW 7811   2.359   3.014   6.163 -0.2257 -0.2669  0.4751
  951Sol     HW 7812   2.361   3.109   6.151 -2.6660 -0.0306  1.5977
  951Sol     HW 7813   2.360   2.979   6.074 -0.0986  0.8295  0.0368
  951Sol     MW 7814   2.359   3.019   6.154 -0.0351 -0.2874  0.2223
  952Sol     OW 7815   3.638   3.312   1.700 -0.2756  0.5452 -0.1819
  952Sol     HW 7816   3.610   3.225   1.673 -1.4805  0.9821 -0.3855
  952Sol     HW 7817   3.716   3.297   1.753 -0.6987 -0.6904  0.1112
  952Sol     MW 7818   3.642   3.303   1.702  0.1425  0.8616  0.6126
  953Sol     OW 7819   3.553   0.384   5.563  0.0648 -0.2901 -0.2840
  953Sol     HW 7820   3.634   0.380   5.512 -0.4909  0.1878 -1.2129
  953Sol     HW 7821   3.519   0.294   5.562  0.0970 -0.2971 -0.6905
  953Sol     MW 7822   3.557   0.376   5.558 -0.2376 -0.4430  0.2418
  954Sol     OW 7823   1.474   2.974   6.557 -0.0899 -0.6286 -0.5741
  954Sol     HW 7824   1.475   2.917   6.479 -2.0353 -2.0488  0.3741
  954Sol     HW 7825   1.519   2.923   6.624  2.5799  1.0555 -1.0057
  954Sol     MW 7826   1.478   2.964   6.556 -0.7682 -0.5107 -0.1430
  955Sol     OW 7827   3.558   3.600   2.529  0.1449  0.3084  0.6775
  955Sol     HW 7828   3.476   3.629   2.569 -0.5394 -0.3950 -0.2202
  955Sol     HW 7829   3.581   3.671   2.469 -1.0406 -0.5630 -0.8198
  955Sol     MW 7830   3.553   3.609   2.527 -0.3964  0.1574 -0.2351
  956Sol     OW 7831   3.911   0.651   2.183  0.0474 -0.3012  0.2305
  956Sol     HW 7832   3.993   0.638   2.231  0.0954  0.7551  0.4519
  956Sol     HW 7833   3.842   0.635   2.247  0.0446 -2.8394 -0.3811
  956Sol     MW 7834   3.913   0.649   2.193 -0.4124  0.0221  0.0833
  957Sol     OW 7835   3.593   0.478   4.757 -0.3345 -0.1586 -0.1704
  957Sol     HW 7836   3.521   0.538   4.776  0.2151  0.5776 -0.3885
  957Sol     HW 7837   3.609   0.432   4.840  0.3791  1.2313  0.4671
  957Sol     MW 7838   3.588   0.479   4.766  0.5103 -0.6636 -0.1728
  958Sol     OW 7839   3.018   3.719   2.648 -0.1717 -0.5403 -0.7707
  958Sol     HW 7840   3.017   3.759   2.561 -0.6471 -0.3888 -0.7004
  958Sol     HW 7841   2.987   3.789   2.706 -1.8735 -1.2743 -0.7611
  958Sol     MW 7842   3.015   3.729   2.646 -0.0470 -0.2359  0.3014
  959Sol     OW 7843   3.348   1.495   2.088  0.5224 -0.1437 -0.1458
  959Sol     HW 7844   3.348   1.410   2.045  0.8480 -0.4119  0.3809
  959Sol     HW 7845   3.435   1.502   2.127 -0.6371 -1.0695  2.7628
  959Sol     MW 7846   3.356   1.488   2.087  0.3879  0.0348 -0.2970
  960Sol     OW 7847   0.007   2.949   4.995 -0.1477 -0.0463  0.6992
  960Sol     HW 7848   0.065   2.876   4.975  0.7535  0.7817  0.2747
  960Sol     HW 7849  -0.065   2.940   4.932 -0.1373 -0.6685  0.7713
  960Sol     MW 7850   0.005   2.942   4.988  0.2637  0.7502  0.5675
  961Sol     OW 7851   0.112   2.378   2.351 -0.0847 -0.1814 -0.4505
  961Sol     HW 7852   0.195   2.427   2.351 -0.0337 -0.2675 -0.2860
  961Sol     HW 7853   0.117   2.323   2.429 -1.1579  1.2641  0.6534
  961Sol     MW 7854   0.120   2.378   2.358 -0.2843 -0.2260 -0.5378
  962Sol     OW 7855   0.847   1.836   3.582  0.0385 -0.1170 -0.0069
  962Sol     HW 7856   0.942   1.824   3.575  0.2324  0.7732  0.9523
  962Sol     HW 7857   0.834   1.872   3.670 -0.9347  2.3272 -1.1002
  962Sol     MW 7858   0.855   1.838   3.590 -0.2781  0.0882  0.5129
  963Sol     OW 7859   2.022   2.276   5.132  0.1954 -0.1856 -0.0310
  963Sol     HW 7860   2.055   2.278   5.222 -0.9633 -1.6032  0.4332
  963Sol     HW 7861   1.946   2.218   5.135 -1.6659  2.0790 -1.3202
  963Sol     MW 7862   2.018   2.271   5.141  0.1395 -0.0143 -0.7598
  964Sol     OW 7863   1.612   2.193   5.294 -0.1863 -0.5219  0.1584
  964Sol     HW 7864   1.537   2.252   5.292  1.3871  1.4922 -0.4588
  964Sol     HW 7865   1.666   2.225   5.366  1.1310 -0.6365 -0.7576
  964Sol     MW 7866   1.610   2.201   5.300  0.6296 -0.3094 -0.4781
  965Sol     OW 7867   0.167   1.637   4.279 -0.4198 -0.0287  0.1691
  965Sol     HW 7868   0.218   1.639   4.360  0.1863  0.0622 -0.2097
  965Sol     HW 7869   0.223   1.591   4.217 -0.6702  0.3593 -0.3435
  965Sol     MW 7870   0.177   1.633   4.281  0.5786  0.6846 -0.6469
  966Sol     OW 7871   0.108   0.980   4.947 -0.4182  0.4155 -0.6948
  966Sol     HW 7872   0.027   1.022   4.919 -0.1493  1.4379  0.0355
  966Sol     HW 7873   0.151   1.045   5.003  0.6052 -0.3549 -0.5709
  966Sol     MW 7874   0.104   0.989   4.950 -0.3730  0.4051 -0.2075
  967Sol     OW 7875   3.611   2.655   3.733 -0.7783 -0.5182  0.0476
  967Sol     HW 7876   3.567   2.650   3.817 -2.2840 -2.1676 -0.8174
  967Sol     HW 7877   3.655   2.570   3.724  1.0686  0.4082  0.0621
  967Sol     MW 7878   3.611   2.647   3.740 -0.4152 -0.3112 -0.0746
  968Sol     OW 7879   0.615   2.830   5.654  0.0302  0.5601  0.0842
  968Sol     HW 7880   0.613   2.742   5.691 -0.4634  0.3679 -0.3905
  968Sol     HW 7881   0.708   2.854   5.653 -0.0497  1.1147  2.7020
  968Sol     MW 7882   0.623   2.825   5.658 -0.3633  0.5431  0.0605
  969Sol     OW 7883   2.243   4.014   2.732  0.1805  0.3071 -0.0818
  969Sol     HW 7884   2.236   3.920   2.718 -0.0363  0.3763 -0.4616
  969Sol     HW 7885   2.265   4.024   2.825  0.6003 -0.1297 -0.1316
  969Sol     MW 7886   2.245   4.007   2.739  0.0677 -0.1059  0.0276
  970Sol     OW 7887   3.488   3.968   6.786  0.5882  0.1209  0.1113
  970Sol     HW 7888   3.476   3.886   6.833 -1.6348 -1.0013 -2.3262
  970Sol     HW 7889   3.429   4.030   6.829  0.0974 -0.3528  0.1254
  970Sol     MW 7890   3.482   3.966   6.794 -0.2812  0.1349  0.1284
  971Sol     OW 7891   3.380   2.890   3.373  0.2241  0.1582  0.2890
  971Sol     HW 7892   3.452   2.850   3.421  0.2450  0.6112  0.6278
  971Sol     HW 7893   3.416   2.907   3.286  0.0035 -1.2208 -0.0833
  971Sol     MW 7894   3.389   2.888   3.369 -0.0346  0.7253 -0.3776
  972Sol     OW 7895   1.902   2.224   1.777  0.3806  1.2151  0.5552
  972Sol     HW 7896   1.920   2.247   1.686  0.1789 -0.6997  0.0115
  972Sol     HW 7897   1.987   2.204   1.814  0.1501 -1.2336 -0.1512
  972Sol     MW 7898   1.911   2.224   1.772  0.1229 -0.4556  0.3241
  973Sol     OW 7899   2.454   2.207   6.127 -0.2203  0.5703 -0.5631
  973Sol     HW 7900   2.531   2.151   6.124 -0.2260  0.5980 -1.2201
  973Sol     HW 7901   2.479   2.280   6.184  0.1528  0.4573 -0.5849
  973Sol     MW 7902   2.463   2.209   6.132 -0.3102  0.2673 -0.1619
  974Sol     OW 7903   2.843   0.307   5.243 -0.4393 -0.5332 -0.1869
  974Sol     HW 7904   2.754   0.335   5.221 -0.0673  0.5876 -0.3009
  974Sol     HW 7905   2.884   0.384   5.282  0.7036 -0.8253 -0.7718
  974Sol     MW 7906   2.839   0.317   5.244 -0.1977  0.1574 -0.2196
  975Sol     OW 7907   2.812   0.208   5.748  0.5224  0.1805 -0.2148
  975Sol     HW 7908   2.871   0.279   5.771  0.3734  0.3729 -0.4235
  975Sol     HW 7909   2.869   0.140   5.712  0.7372 -0.0657  0.5925
  975Sol     MW 7910   2.822   0.208   5.747 -0.1971  0.4177 -0.3643
  976Sol     OW 7911   0.769   0.247   3.649  0.4111  0.5438  0.3750
  976Sol     HW 7912   0.781   0.309   3.577  0.7120  1.1541  0.9395
  976Sol     HW 7913   0.824   0.281   3.719 -1.7576  1.3340  1.7424
  976Sol     MW 7914   0.775   0.256   3.649 -0.2984 -0.1259 -0.2781
  977Sol     OW 7915   2.110   3.929   1.440 -0.0576 -0.7007 -0.1463
  977Sol     HW 7916   2.099   3.990   1.367 -2.8689  1.8360  2.2678
  977Sol     HW 7917   2.041   3.863   1.426  0.3478 -1.0382 -0.5615
  977Sol     MW 7918   2.102   3.929   1.432  0.0656 -0.0581  0.0168
  978Sol     OW 7919   3.899   2.263   5.295  0.6771  0.4556 -0.2072
  978Sol     HW 7920   3.845   2.214   5.356  1.0780  0.2583 -0.0106
  978Sol     HW 7921   3.837   2.316   5.245  0.2590 -0.1664 -0.3453
  978Sol     MW 7922   3.888   2.264   5.296  0.8920  0.0894 -0.0155
  979Sol     OW 7923   3.995   4.011   4.749  0.0780  0.2829 -0.2319
  979Sol     HW 7924   3.924   3.966   4.703 -0.4244 -0.0360  0.8382
  979Sol     HW 7925   3.952   4.056   4.822  0.9869  0.0083  0.4882
  979Sol     MW 7926   3.985   4.011   4.752 -0.1553 -0.1478  0.5548
  980Sol     OW 7927   3.044   1.190   3.366  0.1745  0.0780 -0.3195
  980Sol     HW 7928   2.972   1.216   3.308  0.0280 -0.5297 -0.4124
  980Sol     HW 7929   3.092   1.271   3.383 -1.1798  0.6966  0.6305
  980Sol     MW 7930   3.042   1.200   3.362 -0.1948  0.2457  0.5164
  981Sol     OW 7931   1.354   1.756   4.158  0.0951  0.4259  0.2297
  981Sol     HW 7932   1.398   1.672   4.144  0.6662  0.6621  0.5866
  981Sol     HW 7933   1.267   1.733   4.190  0.0788 -0.0361 -0.1320
  981Sol     MW 7934   1.350   1.747   4.159  0.5889  0.1371  0.1545
  982Sol     OW 7935   0.259   4.104   5.581 -0.3724 -0.2945  0.2712
  982Sol     HW 7936   0.340   4.152   5.561 -1.4962  2.5737  2.1927
  982Sol     HW 7937   0.288   4.029   5.633  1.1093  0.3390  0.3962
  982Sol     MW 7938   0.269   4.102   5.584  0.4019  0.2273 -0.8983
  983Sol     OW 7939   3.216   0.661   6.616  0.3981  0.4850 -0.8161
  983Sol     HW 7940   3.201   0.596   6.548  0.3293 -0.3551 -0.0013
  983Sol     HW 7941   3.293   0.630   6.663 -1.3889 -0.6439  1.4824
  983Sol     MW 7942   3.221   0.653   6.614 -0.4442 -0.3562  0.5517
  984Sol     OW 7943   1.891   2.579   2.065  0.0346  0.3170  0.0866
  984Sol     HW 7944   1.968   2.628   2.036 -0.2395  0.0609 -1.0755
  984Sol     HW 7945   1.926   2.495   2.094  0.1320  0.0078 -0.9254
  984Sol     MW 7946   1.901   2.576   2.065 -0.5781 -0.1710 -0.8716
  985Sol     OW 7947   1.737   0.369   5.977  0.2221 -0.0834 -0.7292
  985Sol     HW 7948   1.802   0.332   6.036 -0.1714  0.8141  0.2958
  985Sol     HW 7949   1.718   0.299   5.914 -1.0146 -1.8668  1.5617
  985Sol     MW 7950   1.741   0.359   5.976  0.6242 -0.3677 -0.6453
  986Sol     OW 7951   3.885   0.341   4.798 -0.1819  0.0858 -0.4537
  986Sol     HW 7952   3.935   0.308   4.873  0.5309  1.4294 -0.3165
  986Sol     HW 7953   3.811   0.388   4.837 -0.6123 -0.4413 -0.6279
  986Sol     MW 7954   3.883   0.342   4.808  0.2949  0.3221  0.4568
  987Sol     OW 7955   3.647   1.781   4.412  0.3429 -0.1064 -0.2022
  987Sol     HW 7956   3.629   1.718   4.342  2.4380 -0.2947 -0.5998
  987Sol     HW 7957   3.661   1.726   4.490  0.0330  0.0005 -0.0678
  987Sol     MW 7958   3.647   1.770   4.413  0.2775  0.3885  0.2107
  988Sol     OW 7959   2.543   2.975   6.473  0.2726 -0.0543 -0.2333
  988Sol     HW 7960   2.536   2.908   6.405  1.0406 -0.9454  0.5565
  988Sol     HW 7961   2.470   3.034   6.455 -0.4242 -1.1038 -0.9267
  988Sol     MW 7962   2.536   2.975   6.465  0.2605  0.1590 -0.2559
  989Sol     OW 7963   1.408   1.171   6.348 -0.4816 -0.6306  0.1450
  989Sol     HW 7964   1.368   1.173   6.435  1.1584  1.6709  0.8996
  989Sol     HW 7965   1.493   1.128   6.362  0.3203  0.8385 -0.0352
  989Sol     MW 7966   1.412   1.167   6.357  0.3456  0.2016 -0.7756
  990Sol     OW 7967   0.673   4.195   2.284  0.5916  0.0482 -0.1599
  990Sol     HW 7968   0.757   4.206   2.330  1.1727 -1.9030 -0.7067
  990Sol     HW 7969   0.691   4.225   2.195  0.4708  0.3830 -0.0743
  990Sol     MW 7970   0.682   4.199   2.280  0.3424  0.0243 -0.0926
  991Sol     OW 7971   3.694   2.248   3.939  0.3328  0.1799  0.1126
  991Sol     HW 7972   3.678   2.320   4.000 -0.1786  1.6706 -1.7224
  991Sol     HW 7973   3.671   2.169   3.989  1.8766  1.1793  2.4832
  991Sol     MW 7974   3.690   2.247   3.949 -0.3149  0.2638 -0.2376
  992Sol     OW 7975   1.582   3.368   1.672  0.6733  0.4567 -0.6177
  992Sol     HW 7976   1.641   3.441   1.691  0.0983  1.1522 -1.4262
  992Sol     HW 7977   1.622   3.324   1.597  2.2228 -1.4560  1.2979
  992Sol     MW 7978   1.591   3.371   1.667 -0.2455  0.0653  0.3597
  993Sol     OW 7979   1.484   4.106   5.146  0.1769 -0.2060  0.3405
  993Sol     HW 7980   1.499   4.158   5.067  1.3924 -1.5874 -0.3518
  993Sol     HW 7981   1.563   4.119   5.199 -0.4561  0.3855  1.1561
  993Sol     MW 7982   1.492   4.112   5.144  0.0393 -0.1453  0.7963
  994Sol     OW 7983   1.324   1.059   5.684  0.1051 -0.4464 -0.0647
  994Sol     HW 7984   1.391   1.000   5.719  0.0408 -1.0335 -0.8882
  994Sol     HW 7985   1.241   1.014   5.702  0.1362 -1.3081 -1.9456
  994Sol     MW 7986   1.322   1.049   5.688  0.1357 -0.0345  0.1428
  995Sol     OW 7987   3.733   1.864   5.045 -0.2719 -0.1940 -0.7407
  995Sol     HW 7988   3.702   1.938   5.097 -0.8668 -0.7296 -0.3414
  995Sol     HW 7989   3.676   1.862   4.969 -1.3902 -1.3339  0.1168
  995Sol     MW 7990   3.725   1.871   5.043 -1.3472  0.4513  0.7410
  996Sol     OW 7991   1.520   0.750   6.853  0.3548 -0.0713 -0.0175
  996Sol     HW 7992   1.593   0.688   6.848 -0.0599 -0.4621 -1.2346
  996Sol     HW 7993   1.553   0.829   6.811  0.2659 -0.0694 -0.0842
  996Sol     MW 7994   1.529   0.751   6.849  0.1315  1.1599  0.4761
  997Sol     OW 7995   1.442   3.726   5.661  0.3251  0.1014  0.0619
  997Sol     HW 7996   1.397   3.775   5.592 -0.2875 -0.7808 -0.1800
  997Sol     HW 7997   1.530   3.711   5.625  0.1154 -0.0584 -0.3990
  997Sol     MW 7998   1.446   3.729   5.651  0.2868 -0.9279  0.0029
  998Sol     OW 7999   1.170   0.772   1.448  0.2949 -0.0761 -0.3737
  998Sol     HW 8000   1.102   0.705   1.451  0.4320 -0.1849  0.2986
  998Sol     HW 8001   1.127   0.853   1.477  0.3782 -0.0874 -0.2143
  998Sol     MW 8002   1.160   0.774   1.451  0.2165  0.3941  0.5364
  999Sol     OW 8003   1.178   1.619   1.688 -0.1410 -0.1578  0.2677
  999Sol     HW 8004   1.266   1.654   1.702  0.4904 -2.1638  1.5113
  999Sol     HW 8005   1.184   1.573   1.604 -0.8282  2.1147 -1.0967
  999Sol     MW 8006   1.187   1.618   1.681  0.1381 -0.7585 -0.4388
 1000Sol     OW 8007   0.191   3.139   4.708  0.5221  0.6035  0.1133
 1000Sol     HW 8008   0.180   3.233   4.690 -0.1742  0.5070  0.0470
 1000Sol     HW 8009   0.102   3.104   4.710  0.8089 -0.1639 -0.4319
 1000Sol     MW 8010   0.182   3.145   4.707  0.5505 -0.5329  0.2248
 1001Sol     OW 8011   0.176   2.480   3.844 -0.5633  0.1705  0.0280
 1001Sol     HW 8012   0.212   2.565   3.869 -0.3444  0.5927 -1.6441
 1001Sol     HW 8013   0.083   2.496   3.832 -0.4150  0.3523 -0.9526
 1001Sol     MW 8014   0.171   2.489   3.845  0.2469  0.7736 -0.2307
 1002Sol     OW 8015   3.363   2.405   1.618 -0.0414  0.0971 -0.5041
 1002Sol     HW 8016   3.309   2.473   1.658  0.4743  0.6926 -0.8094
 1002Sol     HW 8017   3.364   2.334   1.682  0.2823  0.7953  0.2727
 1002Sol     MW 8018   3.358   2.405   1.627 -0.3354 -0.1399  0.0355
 1003Sol     OW 8019   3.853   1.382   6.438  0.2844  0.3990 -0.2060
 1003Sol     HW 8020   3.867   1.410   6.529  0.7475 -0.4361 -0.0227
 1003Sol     HW 8021   3.851   1.287   6.442  0.5435  0.3528 -1.1164
 1003Sol     MW 8022   3.854   1.376   6.447  0.1303  0.0696 -0.0695
 1004Sol     OW 8023   3.159   3.373   3.143  0.2834 -0.4276  0.5129
 1004Sol     HW 8024   3.091   3.434   3.117  1.0343  0.3678  0.3997
 1004Sol     HW 8025   3.182   3.326   3.062 -0.0432 -0.6169  0.5287
 1004Sol     MW 8026   3.155   3.374   3.133 -0.3012 -0.3180 -0.5912
 1005Sol     OW 8027   3.411   0.615   2.317  0.0576  0.0742 -0.0360
 1005Sol     HW 8028   3.365   0.612   2.401 -0.9929 -0.4543 -0.6274
 1005Sol     HW 8029   3.351   0.575   2.255  0.7980  0.5339 -1.0636
 1005Sol     MW 8030   3.402   0.611   2.319 -0.5044  0.0390  0.1342
 1006Sol     OW 8031   3.648   0.216   5.214  0.0847  0.0052 -0.3184
 1006Sol     HW 8032   3.720   0.249   5.267  0.7118 -0.1188 -1.0901
 1006Sol     HW 8033   3.574   0.210   5.275  0.6853  0.2642  0.4390
 1006Sol     MW 8034   3.647   0.219   5.224 -0.2929  0.1932  0.4997
 1007Sol     OW 8035   3.154   0.067   5.261 -0.8698  0.3729  0.2324
 1007Sol     HW 8036   3.208   0.012   5.204  1.8695  2.5355  0.6221
 1007Sol     HW 8037   3.099   0.118   5.201  0.5571  1.1784 -0.4220
 1007Sol     MW 8038   3.154   0.067   5.250  0.5410  0.0920 -0.1876
 1008Sol     OW 8039   0.420   1.335   4.828  0.0774  0.5980  0.2014
 1008Sol     HW 8040   0.465   1.308   4.908 -0.7534  0.4476  0.6188
 1008Sol     HW 8041   0.417   1.257   4.773 -0.1418  0.4780  0.3874
 1008Sol     MW 8042   0.424   1.326   4.830 -0.5552  0.1047 -0.1209
 1009Sol     OW 8043   1.600   3.103   2.431  0.2939  0.2549  0.1475
 1009Sol     HW 8044   1.652   3.180   2.452 -0.7254  0.7606  0.8332
 1009Sol     HW 8045   1.550   3.084   2.510 -0.6877 -0.1217 -0.5402
 1009Sol     MW 8046   1.600   3.108   2.440  0.7917 -0.4083  0.2103
 1010Sol     OW 8047   2.807   0.310   4.270  0.3566  0.1409  0.2192
 1010Sol     HW 8048   2.884   0.312   4.328  0.2478  1.1391  0.3465
 1010Sol     HW 8049   2.823   0.382   4.209 -0.0106 -0.2797 -0.3638
 1010Sol     MW 8050   2.816   0.317   4.270 -0.3345  0.4480 -1.2876
 1011Sol     OW 8051   0.098   2.087   4.041 -0.3177  0.5031  0.2743
 1011Sol     HW 8052   0.085   2.004   4.088  0.1874  0.0162 -0.4252
 1011Sol     HW 8053   0.105   2.061   3.949  0.3957  1.2693  0.1095
 1011Sol     MW 8054   0.098   2.077   4.037  0.4469 -0.4419 -0.4476
 1012Sol     OW 8055   2.936   1.378   2.143 -0.3459  0.8143  0.0419
 1012Sol     HW 8056   2.897   1.357   2.058  0.3739 -0.8328  0.1081
 1012Sol     HW 8057   2.861   1.403   2.198 -0.9111  1.0341 -0.8150
 1012Sol     MW 8058   2.925   1.379   2.140 -0.4215 -0.1645 -0.4916
 1013Sol     OW 8059   0.511   0.970   2.009 -0.8317  0.4882 -0.1210
 1013Sol     HW 8060   0.472   0.939   1.928  0.1084 -1.1859  0.0241
 1013Sol     HW 8061   0.454   1.040   2.039 -0.9583  1.4177 -2.4257
 1013Sol     MW 8062   0.503   0.973   2.005 -0.4734 -0.0477  0.7640
 1014Sol     OW 8063   3.149   3.156   2.205 -0.4556 -0.7344 -0.0559
 1014Sol     HW 8064   3.221   3.169   2.267 -1.8352  0.3454  1.3570
 1014Sol     HW 8065   3.157   3.064   2.178  1.9095 -0.4074 -0.5218
 1014Sol     MW 8066   3.156   3.149   2.208 -0.5653 -0.4261 -0.5736
 1015Sol     OW 8067   1.288   0.731   4.489 -0.2234  0.5121 -0.3763
 1015Sol     HW 8068   1.372   0.714   4.533 -0.6967 -2.4657 -0.5742
 1015Sol     HW 8069   1.302   0.701   4.399 -0.7073  2.4271 -1.1182
 1015Sol     MW 8070   1.297   0.727   4.485  0.6483  0.0707 -0.6686
 1016Sol     OW 8071   2.271   2.281   5.585 -0.1406 -0.0654  0.0759
 1016Sol     HW 8072   2.313   2.199   5.561  2.4918  1.4364 -0.6118
 1016Sol     HW 8073   2.287   2.289   5.679  0.8252  0.3119 -0.1119
 1016Sol     MW 8074   2.276   2.274   5.591  0.4745  0.6886 -0.5347
 1017Sol     OW 8075   2.004   2.622   1.566  0.4214 -0.0345 -0.3497
 1017Sol     HW 8076   2.069   2.677   1.523  1.8686 -2.1955 -0.9878
 1017Sol     HW 8077   2.029   2.625   1.659 -0.9735  2.2881  0.0011
 1017Sol     MW 8078   2.012   2.627   1.571 -0.1503 -0.4085 -0.4366
 1018Sol     OW 8079   1.116   0.363   5.013  0.6048  0.6718  0.1519
 1018Sol     HW 8080   1.209   0.342   5.025  0.2439 -1.4035 -0.4287
 1018Sol     HW 8081   1.113   0.416   4.934  1.1678 -0.5211 -0.6893
 1018Sol     MW 8082   1.124   0.366   5.007 -0.5173 -0.5867  0.3105
 1019Sol     OW 8083   1.005   2.816   4.274  0.2874 -0.2599 -0.5238
 1019Sol     HW 8084   1.005   2.821   4.179  1.9396 -1.0774 -0.5944
 1019Sol     HW 8085   1.085   2.861   4.301 -0.2813  0.1698  0.4941
 1019Sol     MW 8086   1.012   2.820   4.268  0.5055 -0.2715  0.0275
 1020Sol     OW 8087   0.566   2.989   5.265 -0.0046  0.0826 -0.5948
 1020Sol     HW 8088   0.609   3.035   5.337 -1.6718  0.3747  0.2303
 1020Sol     HW 8089   0.635   2.978   5.200  1.3103  0.5946  0.6709
 1020Sol     MW 8090   0.576   2.992   5.266 -0.4184 -0.1364 -0.0595
 1021Sol     OW 8091   0.557   0.048   6.062  0.3322 -0.1566  0.1074
 1021Sol     HW 8092   0.645   0.067   6.093  0.1036 -0.7612  1.1409
 1021Sol     HW 8093   0.557   0.076   5.970  1.6879 -0.4523  0.0094
 1021Sol     MW 8094   0.565   0.052   6.056 -0.1860  0.1612 -0.2941
 1022Sol     OW 8095   1.507   3.030   1.241  0.2569  1.0657 -0.3386
 1022Sol     HW 8096   1.436   2.967   1.231  0.0440  1.3146 -0.4213
 1022Sol     HW 8097   1.581   2.979   1.273  0.4747  0.5323 -1.6460
 1022Sol     MW 8098   1.507   3.020   1.243 -0.0609 -0.7765 -0.0907
 1023Sol     OW 8099   1.138   4.049   3.135 -0.5083 -0.6231 -0.0952
 1023Sol     HW 8100   1.088   4.083   3.208 -0.6901 -1.4731  0.1819
 1023Sol     HW 8101   1.073   4.026   3.069 -0.3101  0.6385 -0.7394
 1023Sol     MW 8102   1.128   4.050   3.135 -0.7466  0.4326  0.1153
 1024Sol     OW 8103   0.487   3.763   4.354  0.1986  0.2565 -0.4727
 1024Sol     HW 8104   0.567   3.815   4.360  0.2947  0.0256  0.4191
 1024Sol     HW 8105   0.440   3.784   4.435 -0.1988 -0.3207 -0.5527
 1024Sol     MW 8106   0.490   3.769   4.362  0.4920  0.2874 -0.9119
 1025Sol     OW 8107   1.185   1.996   3.872  0.1138 -0.1555 -0.1213
 1025Sol     HW 8108   1.148   2.064   3.815 -0.3955 -1.1188 -0.9571
 1025Sol     HW 8109   1.189   1.918   3.817 -1.2925 -1.3657  1.4348
 1025Sol     MW 8110   1.182   1.995   3.862 -0.1306 -0.4650  0.2669
 1026Sol     OW 8111   1.097   0.584   4.847  0.6159  0.0630 -0.1196
 1026Sol     HW 8112   1.109   0.614   4.937 -1.5259 -1.7898  0.8278
 1026Sol     HW 8113   1.065   0.660   4.800  1.1963  0.8973  0.8146
 1026Sol     MW 8114   1.096   0.593   4.851 -0.4173 -0.5655 -0.0455
 1027Sol     OW 8115   3.299   2.004   6.726 -0.2133  0.0163  0.3821
 1027Sol     HW 8116   3.366   1.935   6.724  1.4828  1.5872  1.3766
 1027Sol     HW 8117   3.222   1.964   6.686  1.0414 -2.1365  0.0497
 1027Sol     MW 8118   3.298   1.994   6.722  0.4303  0.7163 -0.3392
 1028Sol     OW 8119   1.816   2.582   4.073  0.0944 -0.6178 -0.1278
 1028Sol     HW 8120   1.789   2.568   4.163 -0.8294 -0.0285 -0.3015
 1028Sol     HW 8121   1.767   2.660   4.045  0.9221 -0.3613 -0.9045
 1028Sol     MW 8122   1.809   2.588   4.078  0.1842 -0.1083 -0.9237
 1029Sol     OW 8123   0.264   3.892   5.055 -0.7480 -0.5185 -0.2381
 1029Sol     HW 8124   0.281   3.800   5.077  0.6152 -0.4036 -0.7887
 1029Sol     HW 8125   0.253   3.892   4.960 -1.5293 -0.2249 -0.1509
 1029Sol     MW 8126   0.264   3.884   5.049  0.2785 -0.2994 -0.2417
 1030Sol     OW 8127   2.040   3.250   6.505 -0.0781 -0.1345  0.2077
 1030Sol     HW 8128   1.986   3.323   6.476  2.3076  1.0379 -1.4420
 1030Sol     HW 8129   2.002   3.224   6.589 -0.7362  3.2952  1.0433
 1030Sol     MW 8130   2.032   3.254   6.510 -0.6610  0.1020 -0.0005
 1031Sol     OW 8131   1.033   3.166   2.733 -0.0750 -0.5808  0.4408
 1031Sol     HW 8132   1.077   3.165   2.648  0.4474  2.4704  0.6181
 1031Sol     HW 8133   1.091   3.218   2.789 -2.5339  1.1872  1.4350
 1031Sol     MW 8134   1.042   3.171   2.730 -0.1264  0.1468  0.8114
 1032Sol     OW 8135   0.830   2.149   3.474 -0.6758 -0.1261  0.2394
 1032Sol     HW 8136   0.824   2.078   3.410 -0.8277  0.1976 -0.1102
 1032Sol     HW 8137   0.744   2.150   3.516 -1.8996  2.0910 -2.1720
 1032Sol     MW 8138   0.822   2.143   3.472 -0.0104  0.0157  0.1915
 1033Sol     OW 8139   3.713   2.612   5.863  0.3320  0.5714  0.7242
 1033Sol     HW 8140   3.633   2.616   5.914 -0.1312 -0.7498  0.1311
 1033Sol     HW 8141   3.781   2.590   5.926 -0.4844 -2.6234  0.5589
 1033Sol     MW 8142   3.712   2.610   5.873 -0.3554  0.2514 -0.8079
 1034Sol     OW 8143   2.387   0.025   1.414  0.3826  0.1492  0.2945
 1034Sol     HW 8144   2.298   0.036   1.382  1.5753  0.1001 -3.1779
 1034Sol     HW 8145   2.402  -0.069   1.413  1.1041  0.2693 -0.9613
 1034Sol     MW 8146   2.380   0.018   1.411  0.1529  0.3939 -0.3954
 1035Sol     OW 8147   0.011   3.471   3.618 -0.1119 -0.3374 -0.2403
 1035Sol     HW 8148   0.009   3.481   3.713  2.3163  0.1900 -0.2132
 1035Sol     HW 8149  -0.047   3.397   3.601 -0.3515 -0.6231  1.6763
 1035Sol     MW 8150   0.006   3.465   3.625  0.5201 -0.1242 -0.2982
 1036Sol     OW 8151   2.477   3.436   3.975 -0.1511  0.8364 -0.0296
 1036Sol     HW 8152   2.407   3.455   3.912 -0.7246 -0.7828  0.0867
 1036Sol     HW 8153   2.456   3.349   4.008  1.1071  0.9567  1.1291
 1036Sol     MW 8154   2.469   3.430   3.972  0.2847  0.1264 -0.3632
 1037Sol     OW 8155   3.345   2.787   5.903  0.4442  0.1691 -0.0795
 1037Sol     HW 8156   3.419   2.740   5.941 -2.0225 -3.5271  0.3899
 1037Sol     HW 8157   3.295   2.818   5.979  0.3085  0.7188 -0.3894
 1037Sol     MW 8158   3.347   2.786   5.913 -0.1757  0.1180 -0.2004
 1038Sol     OW 8159   2.287   0.355   3.223 -0.4458 -0.0102 -0.3640
 1038Sol     HW 8160   2.331   0.386   3.302 -2.6939  0.7043  0.6465
 1038Sol     HW 8161   2.338   0.279   3.196  1.1709  0.5639  0.9822
 1038Sol     MW 8162   2.295   0.351   3.228 -0.0298 -0.1663  0.2025
 1039Sol     OW 8163   0.635   1.490   5.748  0.4241 -1.7415 -0.3918
 1039Sol     HW 8164   0.566   1.549   5.780  0.8949 -0.7539 -1.1414
 1039Sol     HW 8165   0.700   1.489   5.818  2.2792  1.7932 -1.9115
 1039Sol     MW 8166   0.634   1.495   5.757  0.3690 -0.0612 -0.0399
 1040Sol     OW 8167   2.769   2.462   6.781  0.1408 -0.4138  0.0714
 1040Sol     HW 8168   2.788   2.368   6.778  0.8486 -0.2399 -0.6823
 1040Sol     HW 8169   2.732   2.475   6.869  3.1846 -0.7969  1.4687
 1040Sol     MW 8170   2.767   2.454   6.789  0.2244  0.3307 -0.3526
 1041Sol     OW 8171   2.693   3.477   5.387 -0.2812 -0.0258 -0.1688
 1041Sol     HW 8172   2.762   3.440   5.332 -0.5107 -0.3388 -0.2411
 1041Sol     HW 8173   2.717   3.570   5.396 -1.2540  0.4532 -2.3175
 1041Sol     MW 8174   2.702   3.482   5.383  0.5777  0.0688 -0.4871
 1042Sol     OW 8175   2.803   1.840   4.757  0.0290 -0.3700 -0.8254
 1042Sol     HW 8176   2.767   1.917   4.801  0.4592 -0.6469  0.0244
 1042Sol     HW 8177   2.784   1.767   4.816  2.9094 -0.3690  0.1642
 1042Sol     MW 8178   2.798   1.840   4.766 -0.3052 -0.4124  1.0601
 1043Sol     OW 8179   2.328   2.572   6.207  0.0525 -0.0912 -0.0271
 1043Sol     HW 8180   2.279   2.549   6.287  0.4726 -2.5777 -0.4452
 1043Sol     HW 8181   2.406   2.516   6.210  0.8939  0.9871 -1.3653
 1043Sol     MW 8182   2.330   2.564   6.215  0.0604 -0.0531  0.2531
 1044Sol     OW 8183   3.771   3.587   4.383 -0.1742  0.0564  0.1798
 1044Sol     HW 8184   3.775   3.520   4.314 -1.6118 -1.3648  1.4286
 1044Sol     HW 8185   3.820   3.661   4.347  0.4804 -1.2400 -1.7069
 1044Sol     MW 8186   3.776   3.587   4.373  0.1197  0.6972  0.3698
 1045Sol     OW 8187   3.876   0.999   4.478 -0.2764  0.0381  0.2971
 1045Sol     HW 8188   3.781   0.995   4.492 -0.2373 -0.8957  0.3701
 1045Sol     HW 8189   3.889   0.961   4.391 -0.1206  1.7591 -0.4357
 1045Sol     MW 8190   3.868   0.995   4.471  0.8113  0.3840 -0.1278
 1046Sol     OW 8191   3.259   1.035   3.690  0.2598  0.3827  0.3595
 1046Sol     HW 8192   3.168   1.065   3.686  0.0777 -0.1996  0.1122
 1046Sol     HW 8193   3.301   1.077   3.615  0.4165  1.3710  0.9879
 1046Sol     MW 8194   3.254   1.041   3.683 -0.2588 -0.4490 -0.0694
 1047Sol     OW 8195   0.943   1.588   6.354  0.8490  0.0757 -0.0853
 1047Sol     HW 8196   0.852   1.614   6.343  1.0214  1.0623  0.8487
 1047Sol     HW 8197   0.939   1.493   6.368  0.1434 -0.2572 -2.2398
 1047Sol     MW 8198   0.935   1.582   6.354 -0.6725  0.0746  0.1577
 1048Sol     OW 8199   0.824   3.843   3.321  0.3974 -0.6122 -0.0064
 1048Sol     HW 8200   0.729   3.840   3.333  0.3373  0.6834 -0.0357
 1048Sol     HW 8201   0.836   3.877   3.232  0.8894 -1.3604 -0.2295
 1048Sol     MW 8202   0.816   3.846   3.314  0.1093  0.2685 -0.5409
 1049Sol     OW 8203   2.522   0.634   4.703 -0.3638 -0.1821  0.7177
 1049Sol     HW 8204   2.582   0.561   4.703  0.7384  0.7074  0.1636
 1049Sol     HW 8205   2.486   0.636   4.614  1.8532  1.7237 -0.2030
 1049Sol     MW 8206   2.524   0.628   4.695  0.0908  0.0368 -0.4570
 1050Sol     OW 8207   1.042   2.770   4.010  0.0435  0.2621  0.1906
 1050Sol     HW 8208   1.119   2.721   4.039  0.4789 -0.0585 -1.4681
 1050Sol     HW 8209   1.072   2.819   3.934 -0.3948  3.1022  1.7448
 1050Sol     MW 8210   1.052   2.770   4.006  0.7210 -0.3446 -0.1765
 1051Sol     OW 8211   1.849   3.371   4.840  0.3741  0.1394 -0.1396
 1051Sol     HW 8212   1.772   3.355   4.785  0.7583 -0.7969 -0.4137
 1051Sol     HW 8213   1.891   3.285   4.848  2.1834  0.8955 -1.1887
 1051Sol     MW 8214   1.846   3.362   4.836 -0.3932  0.1612  0.4243
 1052Sol     OW 8215   2.123   4.099   4.449  0.1604  0.2508  0.5522
 1052Sol     HW 8216   2.159   4.187   4.459  0.6058  0.1422 -0.0920
 1052Sol     HW 8217   2.044   4.112   4.395  1.9422 -0.1265 -2.2332
 1052Sol     MW 8218   2.119   4.108   4.445  0.4825 -0.0664 -0.0078
 1053Sol     OW 8219   1.250   2.069   5.085 -0.1139 -0.2445 -0.1577
 1053Sol     HW 8220   1.303   1.993   5.108 -0.5525 -0.9924 -1.5376
 1053Sol     HW 8221   1.276   2.137   5.147  2.1463 -0.7205 -0.5664
 1053Sol     MW 8222   1.257   2.068   5.093  0.4737 -0.4021 -0.2933
 1054Sol     OW 8223   2.637   2.486   7.010  0.0109 -1.1034 -0.6429
 1054Sol     HW 8224   2.572   2.533   6.958 -1.0604 -1.1991  0.5812
 1054Sol     HW 8225   2.638   2.530   7.094  2.1173 -0.6265 -0.8862
 1054Sol     MW 8226   2.631   2.494   7.013 -0.0428  0.1183 -1.1723
 1055Sol     OW 8227   0.425   0.156   1.938  0.1915 -0.1380  0.1256
 1055Sol     HW 8228   0.383   0.134   1.854 -1.4061  2.0793  0.2717
 1055Sol     HW 8229   0.390   0.243   1.959  2.2702  0.2773  2.0192
 1055Sol     MW 8230   0.418   0.162   1.932  0.9347 -0.5604  0.6617
 1056Sol     OW 8231   0.692   4.027   5.335  0.5222 -0.0377 -0.3956
 1056Sol     HW 8232   0.744   4.104   5.314 -2.2310  1.6699 -1.2137
 1056Sol     HW 8233   0.647   4.005   5.253 -0.5802 -1.0346  0.4516
 1056Sol     MW 8234   0.692   4.032   5.325  0.6705  0.2092  0.2890
 1057Sol     OW 8235   3.142   2.256   2.760  0.1859  0.2577  0.4356
 1057Sol     HW 8236   3.070   2.200   2.731 -0.9914  1.2027  1.5190
 1057Sol     HW 8237   3.139   2.252   2.855  0.0555  2.2263  0.5176
 1057Sol     MW 8238   3.135   2.250   2.766 -0.2484  0.2814  0.1376
 1058Sol     OW 8239   1.005   0.082   3.913  0.8178 -0.1099  0.3422
 1058Sol     HW 8240   1.004  -0.013   3.902  0.0807  0.1170 -1.6796
 1058Sol     HW 8241   1.071   0.097   3.982  1.8365 -1.9853 -0.1756
 1058Sol     MW 8242   1.011   0.075   3.919  0.3769  0.8509 -0.0564
 1059Sol     OW 8243   1.942   0.942   3.651 -0.0935  0.0252  0.0022
 1059Sol     HW 8244   1.876   0.873   3.646 -0.6989  0.5604  0.6772
 1059Sol     HW 8245   1.984   0.940   3.565 -0.7082 -0.5869 -0.2896
 1059Sol     MW 8246   1.940   0.935   3.643 -0.9030  0.2056 -0.0952
 1060Sol     OW 8247   1.902   4.181   4.322  0.0950  0.0507  0.3771
 1060Sol     HW 8248   1.901   4.191   4.227  0.7818 -1.3683  0.2054
 1060Sol     HW 8249   1.846   4.252   4.354 -1.7498 -0.6616 -1.1924
 1060Sol     MW 8250   1.897   4.189   4.316  0.4892  0.3270  0.3721
 1061Sol     OW 8251   3.793   2.690   6.126 -0.1126  0.0602 -0.0838
 1061Sol     HW 8252   3.719   2.739   6.162 -0.0250  1.9286 -2.2830
 1061Sol     HW 8253   3.870   2.740   6.154  0.1091 -0.0690 -0.4595
 1061Sol     MW 8254   3.793   2.699   6.132  0.5946  0.1655 -0.4425
 1062Sol     OW 8255   3.656   0.428   3.146 -0.3808 -0.0814  0.0736
 1062Sol     HW 8256   3.654   0.348   3.095  1.2307 -0.1269  0.0602
 1062Sol     HW 8257   3.739   0.470   3.122 -1.3241  1.7158 -0.1190
 1062Sol     MW 8258   3.664   0.425   3.139  0.0155  0.8418 -0.6013
 1063Sol     OW 8259   0.656   2.860   2.689 -0.3707 -0.2003 -0.0575
 1063Sol     HW 8260   0.672   2.951   2.712 -1.1950  0.2320 -1.1626
 1063Sol     HW 8261   0.648   2.815   2.773 -2.0263  1.1215  0.5331
 1063Sol     MW 8262   0.656   2.864   2.698 -0.4144 -1.1562 -0.3890
 1064Sol     OW 8263   2.893   2.212   4.126  0.0572  0.4796  0.4047
 1064Sol     HW 8264   2.884   2.130   4.174 -2.5759  0.6086  0.1773
 1064Sol     HW 8265   2.815   2.262   4.149  0.3314  1.8504 -1.5366
 1064Sol     MW 8266   2.885   2.210   4.133 -0.0075 -0.1393  0.0461
 1065Sol     OW 8267   2.197   0.923   6.350 -0.2906 -0.3944 -0.0467
 1065Sol     HW 8268   2.234   0.837   6.331 -0.3904 -0.3847 -0.2803
 1065Sol     HW 8269   2.109   0.905   6.382 -0.1776 -0.4018  0.2619
 1065Sol     MW 8270   2.192   0.914   6.351  0.4411 -0.0275  0.3145
 1066Sol     OW 8271   3.521   3.859   4.269 -0.4002 -0.3943 -0.5777
 1066Sol     HW 8272   3.523   3.830   4.360 -2.4630 -0.7586 -0.6407
 1066Sol     HW 8273   3.567   3.943   4.270 -0.3655 -0.4256  0.7874
 1066Sol     MW 8274   3.525   3.864   4.277 -0.1795  0.4373 -0.4148
 1067Sol     OW 8275   3.839   2.210   6.872 -0.8015  0.2291 -0.4602
 1067Sol     HW 8276   3.801   2.267   6.939  0.9063 -1.1435  1.7566
 1067Sol     HW 8277   3.784   2.132   6.874  1.0157 -1.0479  1.5277
 1067Sol     MW 8278   3.831   2.208   6.878 -0.0339 -0.4606 -0.1163
 1068Sol     OW 8279   2.566   0.748   2.177 -0.3229  0.3223  0.0913
 1068Sol     HW 8280   2.496   0.739   2.113  0.3081 -0.0100 -0.5562
 1068Sol     HW 8281   2.586   0.658   2.203 -2.8665  0.5959  3.2739
 1068Sol     MW 8282   2.562   0.739   2.174  0.4305  0.3460 -0.5245
 1069Sol     OW 8283   0.018   3.267   3.083  0.0039  0.6231 -0.3626
 1069Sol     HW 8284  -0.073   3.297   3.081 -0.3634 -0.4207  0.1884
 1069Sol     HW 8285   0.014   3.175   3.059  0.8782  0.4864 -0.0200
 1069Sol     MW 8286   0.009   3.262   3.081 -0.3474 -0.2188  0.5712
 1070Sol     OW 8287   0.217   3.816   3.148  0.3334  0.2566  0.1982
 1070Sol     HW 8288   0.235   3.807   3.242  0.2671 -0.5855  0.1297
 1070Sol     HW 8289   0.292   3.867   3.115 -0.1609  1.4466  0.8805
 1070Sol     MW 8290   0.226   3.820   3.154 -0.2875  0.1136  0.3867
 1071Sol     OW 8291   2.476   0.774   2.777 -0.1395 -0.6679  0.2943
 1071Sol     HW 8292   2.408   0.780   2.710 -0.2989 -2.0331  0.3225
 1071Sol     HW 8293   2.533   0.703   2.746  1.6996  0.9173 -0.1107
 1071Sol     MW 8294   2.475   0.769   2.768  0.7089 -0.0027 -0.8428
 1072Sol     OW 8295   2.213   1.601   6.935 -0.2464  0.2253 -0.3796
 1072Sol     HW 8296   2.215   1.510   6.908 -1.6343  0.5490 -1.6549
 1072Sol     HW 8297   2.202   1.598   7.030 -0.5560 -0.9399 -0.4473
 1072Sol     MW 8298   2.212   1.593   6.941  0.4984  0.1437 -1.3280
 1073Sol     OW 8299   0.760   2.116   4.089 -0.3376 -0.1673  0.3242
 1073Sol     HW 8300   0.721   2.111   4.177  1.2168 -2.5220  0.9434
 1073Sol     HW 8301   0.842   2.067   4.097  0.1228  0.1258 -2.2971
 1073Sol     MW 8302   0.764   2.111   4.098 -0.4275  0.2119 -0.3611
 1074Sol     OW 8303   2.675   3.807   5.146 -0.5005 -0.5575 -0.5157
 1074Sol     HW 8304   2.675   3.724   5.099 -2.6639  0.2217 -1.9471
 1074Sol     HW 8305   2.690   3.783   5.238  0.0616 -2.3999 -1.0712
 1074Sol     MW 8306   2.676   3.798   5.150 -0.4974  0.4904 -0.0704
 1075Sol     OW 8307   0.227   0.119   4.185 -0.3226  0.3517  0.0353
 1075Sol     HW 8308   0.258   0.196   4.138  0.5710 -0.3707 -0.5843
 1075Sol     HW 8309   0.303   0.089   4.235 -0.1534 -1.0679 -1.0129
 1075Sol     MW 8310   0.237   0.123   4.185  0.3223 -0.1327 -0.4038
 1076Sol     OW 8311   1.178   1.188   1.347  0.4309 -0.3831 -0.3164
 1076Sol     HW 8312   1.258   1.136   1.358  1.8858  1.6461 -0.8840
 1076Sol     HW 8313   1.161   1.188   1.253  0.0014 -0.4780 -0.2407
 1076Sol     MW 8314   1.184   1.184   1.340  0.3561  0.0752  0.3021
 1077Sol     OW 8315   0.116   2.470   6.203 -0.2161 -0.6768  0.1899
 1077Sol     HW 8316   0.036   2.452   6.154 -1.1625  1.7745  0.7466
 1077Sol     HW 8317   0.086   2.496   6.290  0.9573  2.9887 -0.4058
 1077Sol     MW 8318   0.106   2.471   6.206  0.1010  0.3059  0.6273
 1078Sol     OW 8319   0.882   3.366   2.574  0.1375 -0.9182 -0.2944
 1078Sol     HW 8320   0.804   3.337   2.622  0.1838 -2.6175 -1.1941
 1078Sol     HW 8321   0.848   3.427   2.508 -0.2023 -0.3043  0.4335
 1078Sol     MW 8322   0.872   3.369   2.573 -0.4010  0.2646  0.3559
 1079Sol     OW 8323   1.966   4.095   4.680  0.4348  0.6167 -0.4388
 1079Sol     HW 8324   2.029   4.076   4.610  0.0975  0.6224 -0.7429
 1079Sol     HW 8325   1.892   4.038   4.662  1.0827 -0.6705  0.9248
 1079Sol     MW 8326   1.965   4.089   4.672 -1.1325 -0.9598  0.0375
 1080Sol     OW 8327   0.679   1.594   6.414 -0.2577 -0.1736  0.3133
 1080Sol     HW 8328   0.674   1.529   6.483 -0.3489 -0.6662 -0.1511
 1080Sol     HW 8329   0.635   1.671   6.450 -0.2448 -0.4066  0.8239
 1080Sol     MW 8330   0.675   1.595   6.423  0.0804  0.4457 -0.4830
 1081Sol     OW 8331   3.359   0.280   3.176 -0.6292  0.0572  0.0115
 1081Sol     HW 8332   3.434   0.238   3.218 -0.5748 -1.2575 -1.3819
 1081Sol     HW 8333   3.285   0.261   3.234 -0.1998 -0.0234  0.5421
 1081Sol     MW 8334   3.359   0.275   3.185 -0.2724 -0.5585  0.2600
 1082Sol     OW 8335   3.447   3.573   4.601  0.2960 -0.0858  0.2580
 1082Sol     HW 8336   3.412   3.495   4.557 -1.8013  0.8211  0.2540
 1082Sol     HW 8337   3.415   3.566   4.691 -0.2629  0.9777  0.1502
 1082Sol     MW 8338   3.441   3.565   4.605 -0.6686 -0.2529  0.2184
 1083Sol     OW 8339   1.154   0.704   5.118  0.3618  0.0543  0.4601
 1083Sol     HW 8340   1.239   0.666   5.095  0.1828 -1.0238  1.5790
 1083Sol     HW 8341   1.175   0.780   5.172  0.6269  0.1137  0.2758
 1083Sol     MW 8342   1.163   0.707   5.120 -0.2535  0.2295  0.0008
 1084Sol     OW 8343   2.843   2.045   5.741  0.1820  0.2494  0.5534
 1084Sol     HW 8344   2.930   2.080   5.722  0.9774 -0.5309  2.5656
 1084Sol     HW 8345   2.798   2.044   5.657  2.4590 -0.2619 -0.6855
 1084Sol     MW 8346   2.847   2.048   5.732 -0.4213 -0.0110  0.4000
 1085Sol     OW 8347   1.548   1.223   2.309 -0.4330 -0.0764  0.0594
 1085Sol     HW 8348   1.641   1.227   2.285 -0.2931 -0.0199  0.6253
 1085Sol     HW 8349   1.535   1.132   2.338 -0.7845 -0.3631 -0.9624
 1085Sol     MW 8350   1.555   1.215   2.309 -0.0655 -0.1660  0.2148
 1086Sol     OW 8351   3.644   3.530   2.820 -0.0762  0.2000 -0.1903
 1086Sol     HW 8352   3.685   3.476   2.753  0.9836 -0.2539  0.8068
 1086Sol     HW 8353   3.641   3.618   2.782 -1.9185 -0.5512 -1.8729
 1086Sol     MW 8354   3.647   3.533   2.811  0.1482  0.9372  0.1079
 1087Sol     OW 8355   0.651   0.725   6.123 -0.6118 -0.4191  0.0970
 1087Sol     HW 8356   0.706   0.659   6.165  0.3339  0.4051  0.1961
 1087Sol     HW 8357   0.590   0.676   6.069  0.1398 -1.3595  0.0998
 1087Sol     MW 8358   0.651   0.715   6.122 -0.1974  0.1534 -0.1576
 1088Sol     OW 8359   0.952   1.701   6.609 -0.4999 -0.6274 -0.1109
 1088Sol     HW 8360   0.942   1.625   6.667 -2.2427 -1.7285 -1.8205
 1088Sol     HW 8361   0.986   1.665   6.527 -1.2510  0.4543 -0.9091
 1088Sol     MW 8362   0.954   1.691   6.607 -0.0912  0.4247  0.0843
 1089Sol     OW 8363   1.015   2.176   3.724  0.1120 -0.1060 -0.1602
 1089Sol     HW 8364   0.941   2.223   3.762 -1.4755 -2.6817  0.0525
 1089Sol     HW 8365   0.987   2.153   3.635  1.1238 -0.0622 -0.5053
 1089Sol     MW 8366   1.006   2.178   3.719  0.0094  0.0695 -0.6722
 1090Sol     OW 8367   3.819   3.619   5.689 -0.3743 -0.3291  0.2878
 1090Sol     HW 8368   3.740   3.646   5.643 -0.4909 -1.5290 -0.2471
 1090Sol     HW 8369   3.863   3.700   5.712 -0.8651  0.3094 -0.9819
 1090Sol     MW 8370   3.816   3.628   5.687 -0.2157 -0.4391  0.2518
 1091Sol     OW 8371   2.923   2.570   6.108 -0.2497  0.4625 -0.2850
 1091Sol     HW 8372   2.872   2.616   6.176  0.3450 -0.2545  0.6619
 1091Sol     HW 8373   2.870   2.494   6.087 -0.8907  1.1916 -1.3290
 1091Sol     MW 8374   2.913   2.568   6.113  0.6580  0.3587 -0.5531
 1092Sol     OW 8375   1.168   2.464   3.152 -0.1953  0.1440  0.6012
 1092Sol     HW 8376   1.153   2.540   3.208  1.9096  0.7928  0.3455
 1092Sol     HW 8377   1.238   2.416   3.196 -0.7104 -1.0176  0.1579
 1092Sol     MW 8378   1.173   2.467   3.161  0.2725  0.4607 -0.4383
 1093Sol     OW 8379   1.954   3.058   5.099  0.6460 -0.2081 -0.0351
 1093Sol     HW 8380   1.880   3.000   5.082 -0.5838  0.1235  3.7907
 1093Sol     HW 8381   2.014   3.005   5.152  1.7876  0.5009 -0.5858
 1093Sol     MW 8382   1.953   3.048   5.102 -0.2939 -0.0476 -0.2424
 1094Sol     OW 8383   3.074   0.922   2.850  0.3880 -0.0800  0.7140
 1094Sol     HW 8384   3.092   0.874   2.931  2.8121 -1.0955 -0.4060
 1094Sol     HW 8385   3.045   0.855   2.789  0.0728  0.4708  0.2548
 1094Sol     MW 8386   3.073   0.912   2.852  0.3198  0.4105 -0.2138
 1095Sol     OW 8387   2.680   1.373   5.840  0.7819 -0.3491  0.0012
 1095Sol     HW 8388   2.635   1.302   5.794  1.2389 -0.8256  0.2840
 1095Sol     HW 8389   2.718   1.426   5.770  0.3180 -0.2964 -0.2147
 1095Sol     MW 8390   2.679   1.371   5.829  0.4461  0.0906 -0.7628
 1096Sol     OW 8391   2.232   2.286   6.610  0.2974 -0.2353  0.1781
 1096Sol     HW 8392   2.200   2.205   6.650  0.0521  0.9794  2.5266
 1096Sol     HW 8393   2.158   2.318   6.557 -0.7984  0.1601  1.9035
 1096Sol     MW 8394   2.222   2.282   6.609 -0.5266 -0.5590  0.1292
 1097Sol     OW 8395   1.633   2.999   3.734 -0.1985 -0.4768  0.3279
 1097Sol     HW 8396   1.572   2.949   3.679  0.7924 -1.2221 -0.1218
 1097Sol     HW 8397   1.631   3.087   3.698 -0.5733 -0.6425 -0.0607
 1097Sol     MW 8398   1.628   3.002   3.726 -0.4130  0.1283  0.0265
 1098Sol     OW 8399   1.727   3.953   4.366 -0.1204 -0.1700 -0.4112
 1098Sol     HW 8400   1.777   4.031   4.341  0.1921 -0.2079  0.0797
 1098Sol     HW 8401   1.752   3.937   4.457  0.5719 -1.4134 -0.7964
 1098Sol     MW 8402   1.734   3.958   4.372  0.7420 -0.2667  0.1995
 1099Sol     OW 8403   3.752   1.800   1.853  0.5017 -0.2493 -0.2727
 1099Sol     HW 8404   3.692   1.738   1.811 -0.4722  0.5212 -0.0260
 1099Sol     HW 8405   3.717   1.811   1.942  0.9910  0.2209 -0.1359
 1099Sol     MW 8406   3.743   1.795   1.858  0.5995 -0.0098  0.0775
 1100Sol     OW 8407   3.610   4.042   1.695 -0.2059  0.0367  0.6645
 1100Sol     HW 8408   3.669   4.070   1.765  0.4016 -1.9740  0.9716
 1100Sol     HW 8409   3.641   4.089   1.618  1.0366 -0.0577  1.0948
 1100Sol     MW 8410   3.618   4.049   1.694  0.3321 -0.0808 -0.3273
 1101Sol     OW 8411   0.378   3.886   4.595  0.2829  0.0512 -0.3495
 1101Sol     HW 8412   0.405   3.837   4.673 -1.5462 -0.6263 -0.1232
 1101Sol     HW 8413   0.454   3.940   4.574  1.1160 -0.3931  1.3978
 1101Sol     MW 8414   0.387   3.887   4.600 -0.5821 -0.4146  0.2381
 1102Sol     OW 8415   2.628   0.541   3.650  0.2869 -0.6984 -0.0866
 1102Sol     HW 8416   2.590   0.510   3.733  0.4207 -0.6938 -0.0227
 1102Sol     HW 8417   2.680   0.468   3.618  2.2929  0.1527  1.1151
 1102Sol     MW 8418   2.629   0.532   3.655  0.4403  0.3188 -0.0167
 1103Sol     OW 8419   0.918   3.948   4.418 -0.4519  0.0192 -0.4214
 1103Sol     HW 8420   0.949   3.916   4.503  1.8490  1.5991 -0.5954
 1103Sol     HW 8421   0.857   4.018   4.440 -0.4128 -0.0593 -0.0610
 1103Sol     MW 8422   0.915   3.952   4.428 -1.1328 -0.6786 -0.3508
 1104Sol     OW 8423   0.745   2.334   6.666  0.0916  0.2922  0.3944
 1104Sol     HW 8424   0.797   2.319   6.745 -0.5178  3.1250  1.3759
 1104Sol     HW 8425   0.658   2.357   6.699 -0.4267  0.5650 -1.1341
 1104Sol     MW 8426   0.742   2.335   6.676  0.3811  0.5685  0.0492
 1105Sol     OW 8427   2.108   2.418   2.434 -0.2637 -0.5807  0.2213
 1105Sol     HW 8428   2.185   2.468   2.407  0.9891 -2.5546  0.0538
 1105Sol     HW 8429   2.046   2.484   2.464  0.2213  1.3183 -2.7296
 1105Sol     MW 8430   2.109   2.428   2.434 -0.4646  0.1675  0.2158
 1106Sol     OW 8431   3.701   2.529   1.639  0.1216  0.0109 -0.2773
 1106Sol     HW 8432   3.708   2.454   1.580  0.6701 -0.4857  0.3945
 1106Sol     HW 8433   3.777   2.583   1.617 -0.5889  0.6566 -1.1487
 1106Sol     MW 8434   3.709   2.527   1.632 -0.6171  0.2288 -0.2415
 1107Sol     OW 8435   0.481   0.545   3.515  0.1289 -0.2250  0.3134
 1107Sol     HW 8436   0.396   0.590   3.517  0.4637  0.4205 -0.1331
 1107Sol     HW 8437   0.504   0.534   3.607 -1.4756 -2.3760  0.5237
 1107Sol     MW 8438   0.475   0.548   3.523 -0.0764  0.4562 -0.3283
 1108Sol     OW 8439   1.228   2.819   6.327 -0.2519  0.1739  0.1110
 1108Sol     HW 8440   1.154   2.766   6.357 -1.3223  0.4568 -1.9719
 1108Sol     HW 8441   1.201   2.909   6.343 -0.0724  0.2483 -0.0029
 1108Sol     MW 8442   1.219   2.822   6.331  0.3362  0.6028 -0.0989
 1109Sol     OW 8443   0.434   3.101   6.318  0.1709  0.0265 -0.0477
 1109Sol     HW 8444   0.365   3.037   6.301 -0.6714  0.8476  0.2555
 1109Sol     HW 8445   0.493   3.056   6.379 -0.7046 -0.2747  0.5970
 1109Sol     MW 8446   0.433   3.091   6.322  0.2444 -0.3245 -0.2947
 1110Sol     OW 8447   0.150   3.858   1.500 -0.1591  0.5849  0.4897
 1110Sol     HW 8448   0.107   3.932   1.458 -2.7125 -0.8121  0.5675
 1110Sol     HW 8449   0.148   3.788   1.435 -0.0182 -0.1976  1.3089
 1110Sol     MW 8450   0.146   3.858   1.490  0.3645 -0.3513  0.6100
 1111Sol     OW 8451   3.238   3.016   3.803 -0.0851 -0.7359 -0.0893
 1111Sol     HW 8452   3.331   2.991   3.800 -0.3149 -1.5877 -0.2595
 1111Sol     HW 8453   3.199   2.975   3.726 -0.5446 -0.1088 -0.1980
 1111Sol     MW 8454   3.243   3.010   3.796  0.4345  0.1343  0.7470
 1112Sol     OW 8455   2.335   1.476   4.602  0.0526  0.2444 -0.4254
 1112Sol     HW 8456   2.263   1.456   4.542 -0.3183  0.1720  0.0435
 1112Sol     HW 8457   2.397   1.405   4.590 -0.4424 -0.2538 -0.0608
 1112Sol     MW 8458   2.334   1.468   4.596  0.9881  0.3606 -0.2094
 1113Sol     OW 8459   1.823   3.408   3.332 -0.2966  0.5799  0.4041
 1113Sol     HW 8460   1.732   3.430   3.351  0.3993  2.5194  1.6183
 1113Sol     HW 8461   1.866   3.492   3.318  1.3458 -0.2960  0.0412
 1113Sol     MW 8462   1.819   3.417   3.333  0.6627  0.3864 -0.5436
 1114Sol     OW 8463   2.346   2.155   4.914  0.3740 -0.4980 -0.1820
 1114Sol     HW 8464   2.430   2.141   4.869  1.5357  1.0329  1.4296
 1114Sol     HW 8465   2.365   2.137   5.006 -1.2624 -0.8461  0.0885
 1114Sol     MW 8466   2.356   2.152   4.918 -0.0424 -0.5584 -0.3858
 1115Sol     OW 8467   1.438   2.362   2.593 -0.1107  0.1543  0.6841
 1115Sol     HW 8468   1.344   2.369   2.578 -0.3087 -1.6055  1.0297
 1115Sol     HW 8469   1.452   2.413   2.673 -0.4934  1.7352 -0.2170
 1115Sol     MW 8470   1.431   2.367   2.599 -0.0057 -0.3712  0.5753
 1116Sol     OW 8471   2.047   3.926   2.155  0.1504 -0.2499  0.3856
 1116Sol     HW 8472   2.115   3.889   2.098 -1.9309 -1.5438 -1.3230
 1116Sol     HW 8473   1.983   3.856   2.164 -2.7311  2.1236 -0.9676
 1116Sol     MW 8474   2.047   3.917   2.151 -0.3054 -0.3430 -0.0505
 1117Sol     OW 8475   0.111   0.632   3.000  0.1209  0.8136 -0.0160
 1117Sol     HW 8476   0.117   0.679   2.916 -0.2261  0.5836 -0.1736
 1117Sol     HW 8477   0.200   0.605   3.019 -0.2453 -2.1305 -2.0472
 1117Sol     MW 8478   0.119   0.634   2.994  0.3262  0.0602 -0.4480
 1118Sol     OW 8479   0.801   3.563   2.413  0.1415 -0.2381 -0.4344
 1118Sol     HW 8480   0.710   3.571   2.385 -0.2176  0.3292  0.8507
 1118Sol     HW 8481   0.851   3.561   2.332 -0.8029  2.2764 -1.1288
 1118Sol     MW 8482   0.798   3.564   2.403 -0.6077 -0.2172  0.0576
 1119Sol     OW 8483   2.103   3.079   4.229 -0.2823  1.0535 -0.1554
 1119Sol     HW 8484   2.057   3.092   4.312 -1.2649 -0.2700 -0.4717
 1119Sol     HW 8485   2.063   3.000   4.192  2.5934 -0.4605 -0.2035
 1119Sol     MW 8486   2.095   3.073   4.233 -0.0420  0.7830 -0.0548
 1120Sol     OW 8487   1.290   0.575   6.529  0.3191  0.0856 -0.1882
 1120Sol     HW 8488   1.338   0.654   6.505  0.8457 -0.4352 -0.8449
 1120Sol     HW 8489   1.350   0.503   6.511  0.3452 -0.3926  1.6992
 1120Sol     MW 8490   1.300   0.575   6.526  0.3455 -0.2310  0.0893
 1121Sol     OW 8491   1.758   2.890   4.947 -0.1705 -0.0605 -0.1678
 1121Sol     HW 8492   1.789   2.811   4.903 -4.4174 -1.7172 -0.4642
 1121Sol     HW 8493   1.754   2.956   4.878 -0.1015 -0.6743 -0.7635
 1121Sol     MW 8494   1.760   2.889   4.937 -0.6133 -0.0996 -0.2333
 1122Sol     OW 8495   3.045   2.856   4.405 -0.7888  0.5395 -0.3250
 1122Sol     HW 8496   3.033   2.913   4.482  0.4169  1.6368 -0.9270
 1122Sol     HW 8497   2.977   2.885   4.343 -0.0632  1.4692 -0.7017
 1122Sol     MW 8498   3.038   2.864   4.407  0.7006 -0.3472  0.6105
 1123Sol     OW 8499   3.362   2.132   3.685  0.3053  0.2452 -0.5634
 1123Sol     HW 8500   3.384   2.142   3.778  0.4788 -2.6130 -0.2362
 1123Sol     HW 8501   3.296   2.199   3.668  0.3796  0.8964  1.6083
 1123Sol     MW 8502   3.358   2.139   3.692  0.2534  0.3284  0.3362
 1124Sol     OW 8503   1.423   1.441   3.487 -0.3329 -0.2943 -0.4601
 1124Sol     HW 8504   1.410   1.355   3.527 -0.3543  1.3008  3.1509
 1124Sol     HW 8505   1.518   1.453   3.487 -0.4404  0.9471  2.0420
 1124Sol     MW 8506   1.431   1.434   3.491 -0.0848 -0.3513  0.9243
 1125Sol     OW 8507   3.583   0.692   2.957 -0.3976 -0.0320  0.5376
 1125Sol     HW 8508   3.575   0.776   2.912 -4.1611 -0.0806  0.9050
 1125Sol     HW 8509   3.645   0.642   2.905  0.5561  2.3478 -0.6798
 1125Sol     MW 8510   3.588   0.695   2.949  0.3490 -0.3869 -0.3667
 1126Sol     OW 8511   3.418   0.428   5.227 -0.2773  0.0122  0.2405
 1126Sol     HW 8512   3.503   0.464   5.204 -0.5558 -0.5043 -1.6219
 1126Sol     HW 8513   3.436   0.368   5.300  1.2801 -1.7807 -1.5695
 1126Sol     MW 8514   3.427   0.426   5.232 -0.3847  0.4389  0.3490
 1127Sol     OW 8515   0.322   2.943   5.138 -0.1642 -0.3207 -0.1521
 1127Sol     HW 8516   0.272   3.004   5.083 -2.4982 -1.4802  0.6547
 1127Sol     HW 8517   0.390   2.997   5.177 -1.4424  1.5281 -0.4148
 1127Sol     MW 8518   0.324   2.953   5.136 -0.0728  0.2216 -0.1888
 1128Sol     OW 8519   0.890   3.227   4.166 -0.2368  0.1802 -0.0844
 1128Sol     HW 8520   0.894   3.281   4.087 -1.0014  0.4506  0.0586
 1128Sol     HW 8521   0.879   3.137   4.134 -0.4869  0.2840 -0.2913
 1128Sol     MW 8522   0.889   3.224   4.156 -0.1308 -0.1723  0.2672
 1129Sol     OW 8523   1.969   3.580   2.973  0.5278 -0.0520 -0.6017
 1129Sol     HW 8524   1.877   3.562   2.990  0.5026  0.4933 -0.1615
 1129Sol     HW 8525   1.988   3.660   3.021  0.8463  0.6740 -1.9263
 1129Sol     MW 8526   1.963   3.585   2.979 -0.3032  0.2168  0.7910
 1130Sol     OW 8527   2.673   2.475   3.941  1.2248  0.7563  0.0428
 1130Sol     HW 8528   2.689   2.474   4.036 -0.5343  2.0878  0.3725
 1130Sol     HW 8529   2.591   2.426   3.931  0.4752  2.1244 -0.5952
 1130Sol     MW 8530   2.667   2.470   3.949 -0.8771 -0.2046  0.8115
 1131Sol     OW 8531   1.578   2.624   6.129  0.0153  0.3760  0.0326
 1131Sol     HW 8532   1.626   2.678   6.066  0.1444  2.1543  1.6108
 1131Sol     HW 8533   1.491   2.614   6.090  0.4704  0.4129 -1.0149
 1131Sol     MW 8534   1.575   2.628   6.119 -0.4043 -0.5611 -0.1009
 1132Sol     OW 8535   0.708   2.415   2.918  0.0290  1.4122  0.1564
 1132Sol     HW 8536   0.662   2.387   2.997 -0.1676  0.6555 -0.2287
 1132Sol     HW 8537   0.799   2.392   2.932  0.0254  1.4493  0.2386
 1132Sol     MW 8538   0.712   2.411   2.926  0.0891 -0.0196 -0.1299
 1133Sol     OW 8539   0.068   0.490   6.472  0.7183  0.1883  0.1096
 1133Sol     HW 8540  -0.024   0.491   6.445  0.8524  0.4059 -0.3595
 1133Sol     HW 8541   0.078   0.568   6.526  0.6820  0.2999 -0.0430
 1133Sol     MW 8542   0.061   0.497   6.474  0.4187 -0.6221  0.3137
 1134Sol     OW 8543   3.637   1.333   4.128  0.0080 -0.3136  0.0522
 1134Sol     HW 8544   3.706   1.269   4.146  2.8050  2.6917  0.4115
 1134Sol     HW 8545   3.645   1.351   4.035  1.3681  1.7712  0.5219
 1134Sol     MW 8546   3.644   1.329   4.122  0.0267 -0.2375 -0.6531
 1135Sol     OW 8547   1.018   3.574   4.130  0.2858 -0.2528  0.9633
 1135Sol     HW 8548   1.030   3.501   4.069  2.9086  1.2911 -0.4569
 1135Sol     HW 8549   1.080   3.557   4.201  0.0763  0.0197  1.2153
 1135Sol     MW 8550   1.025   3.566   4.131  0.0925 -0.7453  0.2882
 1136Sol     OW 8551   3.566   2.137   1.400  0.1099  0.1537  0.4393
 1136Sol     HW 8552   3.564   2.203   1.330  1.1438 -1.6808 -1.3597
 1136Sol     HW 8553   3.624   2.175   1.466  0.0800  1.3920 -0.2268
 1136Sol     MW 8554   3.571   2.147   1.400 -0.1197  0.3362  0.4223
 1137Sol     OW 8555   1.720   1.111   3.608  0.4466  0.8035 -0.1003
 1137Sol     HW 8556   1.788   1.048   3.632  0.3345  0.2082 -1.3082
 1137Sol     HW 8557   1.640   1.059   3.603  0.3960  0.9814 -1.3285
 1137Sol     MW 8558   1.719   1.101   3.610  0.4193  0.4400  0.1422
 1138Sol     OW 8559   3.333   4.131   3.937 -0.1371 -0.1442  0.1595
 1138Sol     HW 8560   3.320   4.122   3.842 -2.8828 -0.1958  0.4771
 1138Sol     HW 8561   3.304   4.047   3.972 -1.3407  0.6785  1.1847
 1138Sol     MW 8562   3.329   4.123   3.931 -0.1587  0.8106  0.6272
 1139Sol     OW 8563   2.409   0.293   1.506 -0.2030 -0.1051 -0.0231
 1139Sol     HW 8564   2.458   0.292   1.589 -0.7056  1.1582  0.2944
 1139Sol     HW 8565   2.424   0.206   1.469 -0.1777 -0.7695  1.5085
 1139Sol     MW 8566   2.415   0.285   1.510 -0.3824  0.3062 -0.4917
 1140Sol     OW 8567   1.750   3.677   4.748 -0.2724  0.2857  0.7541
 1140Sol     HW 8568   1.825   3.651   4.694  0.3796 -2.2081  2.7531
 1140Sol     HW 8569   1.677   3.623   4.716 -1.4596  3.1351 -1.5961
 1140Sol     MW 8570   1.750   3.670   4.740 -0.1319 -0.4329 -0.0274
 1141Sol     OW 8571   2.094   2.581   5.538 -0.4670  0.1104  0.3700
 1141Sol     HW 8572   2.069   2.611   5.625  1.2341 -1.6642  1.5248
 1141Sol     HW 8573   2.178   2.624   5.521 -0.3310 -0.2775  0.0423
 1141Sol     MW 8574   2.099   2.587   5.544 -0.2415 -0.4527  0.3678
 1142Sol     OW 8575   2.724   0.118   3.991 -0.2353 -0.4053 -0.0828
 1142Sol     HW 8576   2.788   0.087   4.055 -1.6100 -0.7689  1.1496
 1142Sol     HW 8577   2.694   0.038   3.947 -1.8784 -0.5827  1.2974
 1142Sol     MW 8578   2.727   0.108   3.993  0.3833 -0.1006  0.7502
 1143Sol     OW 8579   3.893   3.872   3.155 -0.3032 -0.2783 -0.1210
 1143Sol     HW 8580   3.885   3.788   3.200 -0.3664 -1.0202 -1.4889
 1143Sol     HW 8581   3.932   3.931   3.220 -0.5248 -1.2830  0.9344
 1143Sol     MW 8582   3.896   3.870   3.165  0.0199 -0.1691 -0.0384
 1144Sol     OW 8583   2.709   2.043   3.228 -0.3740  0.1670  0.1862
 1144Sol     HW 8584   2.790   2.018   3.272  1.3473  2.0110 -1.8492
 1144Sol     HW 8585   2.664   1.960   3.212  1.8817 -1.0173 -0.1335
 1144Sol     MW 8586   2.712   2.033   3.230  0.5592 -0.3956  0.4654
 1145Sol     OW 8587   0.090   3.774   2.268 -0.2624  0.7296 -0.8990
 1145Sol     HW 8588   0.117   3.689   2.233 -2.8288 -0.5662  0.1569
 1145Sol     HW 8589   0.143   3.785   2.346 -1.3854 -0.9387  0.1475
 1145Sol     MW 8590   0.097   3.767   2.272 -0.2197  0.6471  0.2716
 1146Sol     OW 8591   3.519   2.635   3.979 -0.6778 -0.1195  0.0739
 1146Sol     HW 8592   3.536   2.706   4.041  1.6965  1.1742 -1.9623
 1146Sol     HW 8593   3.542   2.555   4.028  1.7467  0.9166  0.7148
 1146Sol     MW 8594   3.523   2.634   3.989 -0.3750  0.0013 -0.1703
 1147Sol     OW 8595   3.618   2.602   3.285 -0.6924 -0.1555  0.1073
 1147Sol     HW 8596   3.579   2.633   3.203  0.6172 -0.5593 -0.6790
 1147Sol     HW 8597   3.636   2.509   3.269  0.1846 -0.0713  0.6200
 1147Sol     MW 8598   3.616   2.596   3.276 -0.2906  0.1637  0.7340
 1148Sol     OW 8599   1.750   0.224   4.918 -0.0709 -0.9848 -0.1568
 1148Sol     HW 8600   1.786   0.187   4.837 -0.1026 -0.8600 -0.2280
 1148Sol     HW 8601   1.826   0.228   4.978  0.1073 -0.4167 -0.4153
 1148Sol     MW 8602   1.760   0.221   4.917 -0.4890  0.5043 -0.6596
 1149Sol     OW 8603   1.176   2.413   2.541 -0.2932  0.1152 -0.0921
 1149Sol     HW 8604   1.139   2.464   2.612 -0.2320  0.4862 -0.3255
 1149Sol     HW 8605   1.121   2.335   2.536 -0.6460  0.3586 -0.0153
 1149Sol     MW 8606   1.168   2.410   2.547  0.2578  0.5323  0.5747
 1150Sol     OW 8607   1.600   1.870   2.643  0.1260 -0.1898 -0.1049
 1150Sol     HW 8608   1.578   1.951   2.690 -0.4030 -1.0568  1.1713
 1150Sol     HW 8609   1.592   1.893   2.551 -2.8539  0.4540  0.2797
 1150Sol     MW 8610   1.598   1.880   2.639  0.2831 -0.7015 -0.1195
 1151Sol     OW 8611   0.838   4.030   3.095  0.2614  0.1928 -0.8154
 1151Sol     HW 8612   0.821   4.124   3.103  0.8928  0.3181 -0.9153
 1151Sol     HW 8613   0.783   4.002   3.021 -0.1827  0.4172 -0.5711
 1151Sol     MW 8614   0.831   4.036   3.089 -0.4048 -0.6472  0.1567
 1152Sol     OW 8615   0.602   3.015   2.122 -0.5101 -0.4947 -0.2263
 1152Sol     HW 8616   0.622   3.046   2.210  2.6609  1.9957 -1.7068
 1152Sol     HW 8617   0.645   2.930   2.117  0.2412 -0.1563  0.2974
 1152Sol     MW 8618   0.608   3.010   2.129  0.0855 -0.3650  0.7941
 1153Sol     OW 8619   3.338   0.978   3.965 -0.1296 -0.3505 -0.1322
 1153Sol     HW 8620   3.413   0.921   3.949  0.2168  0.0209  0.1718
 1153Sol     HW 8621   3.315   1.012   3.879 -0.3118 -0.9195 -0.3102
 1153Sol     MW 8622   3.343   0.976   3.956  0.1502  0.1228 -0.7859
 1154Sol     OW 8623   3.430   3.502   1.763 -0.3646  0.0661 -0.4445
 1154Sol     HW 8624   3.490   3.427   1.771 -1.2051 -0.4856  0.8718
 1154Sol     HW 8625   3.470   3.558   1.696  2.2798  0.3540  1.3162
 1154Sol     MW 8626   3.439   3.500   1.758  0.8112  0.6419  0.4373
 1155Sol     OW 8627   2.927   1.568   2.967 -0.4645  0.5700  0.2723
 1155Sol     HW 8628   3.002   1.547   2.912 -0.1469  0.9739  0.5548
 1155Sol     HW 8629   2.928   1.664   2.973 -1.1414  0.5948  0.0747
 1155Sol     MW 8630   2.934   1.575   2.962  0.4009 -0.2901  0.6283
 1156Sol     OW 8631   0.047   0.237   3.611  0.0625 -0.1273 -0.0272
 1156Sol     HW 8632   0.113   0.168   3.615 -0.9640 -1.1071  0.3375
 1156Sol     HW 8633  -0.029   0.195   3.569 -0.8213  0.5682  0.8561
 1156Sol     MW 8634   0.046   0.227   3.608  0.4942 -0.2792 -1.1626
 1157Sol     OW 8635   4.029   1.331   6.230  0.1071  0.4202  1.0470
 1157Sol     HW 8636   4.068   1.250   6.264 -0.7802  0.1954  1.5307
 1157Sol     HW 8637   3.970   1.360   6.299 -0.1359  1.0873  0.5615
 1157Sol     MW 8638   4.027   1.326   6.239  0.6413 -0.2398 -0.3249
 1158Sol     OW 8639   1.582   1.928   6.169  0.4415  0.4561 -0.0437
 1158Sol     HW 8640   1.495   1.967   6.161  0.4636  1.2267  2.8550
 1158Sol     HW 8641   1.567   1.834   6.165 -0.5979  0.5671  0.9242
 1158Sol     MW 8642   1.573   1.923   6.168 -0.5400  0.3879  0.2944
 1159Sol     OW 8643   3.733   2.376   3.665 -0.2720 -0.1532 -0.3478
 1159Sol     HW 8644   3.704   2.326   3.742  1.9459 -0.5209  0.2674
 1159Sol     HW 8645   3.736   2.311   3.594  2.4514 -0.9317  0.4125
 1159Sol     MW 8646   3.730   2.365   3.666  0.3865  0.0548 -0.2434
 1160Sol     OW 8647   3.352   1.223   6.096  0.4773  0.0115 -0.1928
 1160Sol     HW 8648   3.400   1.141   6.086 -0.7290 -0.7485  0.2309
 1160Sol     HW 8649   3.410   1.289   6.058  1.4966 -1.0142 -0.4467
 1160Sol     MW 8650   3.362   1.222   6.092 -0.0260  0.4020 -0.3036
 1161Sol     OW 8651   2.569   1.293   3.055 -0.1183  0.4580 -0.1466
 1161Sol     HW 8652   2.589   1.200   3.063  0.6237  0.4830 -1.4266
 1161Sol     HW 8653   2.488   1.296   3.004 -0.2322  0.4999  0.0397
 1161Sol     MW 8654   2.564   1.285   3.051 -0.0530  0.0537  0.2854
 1162Sol     OW 8655   0.307   0.344   4.069  0.1936  0.5371 -0.5834
 1162Sol     HW 8656   0.368   0.405   4.110  3.0560 -1.4512 -1.7575
 1162Sol     HW 8657   0.269   0.394   3.997 -0.2422  2.0604  0.6559
 1162Sol     MW 8658   0.309   0.354   4.066 -0.8233 -0.2333 -0.1707
 1163Sol     OW 8659   3.306   1.530   6.081 -0.5953  0.1334 -0.2463
 1163Sol     HW 8660   3.384   1.486   6.047 -0.4138  0.3798 -0.1572
 1163Sol     HW 8661   3.279   1.588   6.009 -2.8996 -2.6414 -1.7346
 1163Sol     MW 8662   3.310   1.532   6.071  0.5051 -0.3082  0.0119
 1164Sol     OW 8663   2.174   0.959   4.185  0.4786  0.1124  0.1055
 1164Sol     HW 8664   2.264   0.934   4.165  0.6009  1.1571 -0.6875
 1164Sol     HW 8665   2.122   0.921   4.113  0.3444 -0.0813  0.3040
 1164Sol     MW 8666   2.177   0.953   4.176 -0.1980 -0.0463  0.2470
 1165Sol     OW 8667   2.837   3.978   4.697 -0.5533 -0.2733  0.6739
 1165Sol     HW 8668   2.790   3.895   4.698  0.0001 -0.5899  1.6807
 1165Sol     HW 8669   2.788   4.035   4.756 -0.2803 -0.2627  0.8938
 1165Sol     MW 8670   2.828   3.976   4.702  0.0458 -0.1115 -0.2986
 1166Sol     OW 8671   3.251   2.767   6.191 -0.2690  0.1146 -0.5133
 1166Sol     HW 8672   3.336   2.792   6.229  0.9641 -1.5603 -2.0822
 1166Sol     HW 8673   3.188   2.780   6.262  1.4945  0.1206  1.0856
 1166Sol     MW 8674   3.253   2.771   6.201 -0.0616 -0.1004 -0.5189
 1167Sol     OW 8675   1.327   3.444   5.058 -0.5834  0.4829  0.0641
 1167Sol     HW 8676   1.316   3.463   5.151 -1.8480  1.5399 -0.2950
 1167Sol     HW 8677   1.276   3.364   5.044 -2.7919  1.8954 -0.2843
 1167Sol     MW 8678   1.321   3.438   5.065  0.1583 -0.3602  0.2614
 1168Sol     OW 8679   3.541   3.015   4.782  0.2497  0.2713  0.8641
 1168Sol     HW 8680   3.550   3.088   4.721  0.4148 -2.2822 -2.3539
 1168Sol     HW 8681   3.457   3.029   4.825 -0.4883  1.4710 -0.9235
 1168Sol     MW 8682   3.535   3.023   4.780  0.6384 -0.2468 -0.0569
 1169Sol     OW 8683   2.913   3.380   5.238  0.5917  0.2996  0.2962
 1169Sol     HW 8684   2.913   3.366   5.143  1.0965 -2.4678  0.6630
 1169Sol     HW 8685   3.003   3.407   5.258  0.3685  1.3353 -0.0473
 1169Sol     MW 8686   2.921   3.381   5.231 -0.1389  0.3568 -0.3890
 1170Sol     OW 8687   2.550   2.438   6.280  0.5294 -0.1882 -0.7487
 1170Sol     HW 8688   2.533   2.444   6.374  0.6922  1.0068 -0.7951
 1170Sol     HW 8689   2.628   2.491   6.266 -0.0158  0.3825 -1.7052
 1170Sol     MW 8690   2.555   2.443   6.287 -0.0149 -0.4830 -0.0301
 1171Sol     OW 8691   0.582   2.665   6.463  0.1281 -0.2532  0.8585
 1171Sol     HW 8692   0.536   2.673   6.379  0.4160  0.0756  0.7309
 1171Sol     HW 8693   0.654   2.604   6.446 -0.6888 -1.3384  1.2427
 1171Sol     MW 8694   0.584   2.661   6.454 -0.3684  0.1929  0.3769
 1172Sol     OW 8695   3.873   0.199   4.551  0.1450 -0.4212  0.0153
 1172Sol     HW 8696   3.866   0.247   4.634  0.7380  0.0979 -0.2305
 1172Sol     HW 8697   3.951   0.145   4.561  0.5000  0.0086 -0.3822
 1172Sol     MW 8698   3.879   0.199   4.559 -0.5387 -0.8658 -0.1545
 1173Sol     OW 8699   0.362   0.609   2.306  0.1650 -0.1617 -0.2045
 1173Sol     HW 8700   0.386   0.516   2.311  1.8631  0.3107  0.8035
 1173Sol     HW 8701   0.438   0.651   2.267 -0.2130  0.9415  0.2426
 1173Sol     MW 8702   0.371   0.604   2.303  0.1988 -0.1587  0.2805
 1174Sol     OW 8703   3.675   0.045   3.721 -0.5646 -0.0676  0.6154
 1174Sol     HW 8704   3.732  -0.005   3.779  1.0070  1.9557  0.8678
 1174Sol     HW 8705   3.602   0.071   3.778 -1.6087 -2.3735  0.3745
 1174Sol     MW 8706   3.673   0.043   3.731  0.2086  0.7729  0.0672
 1175Sol     OW 8707   0.005   0.346   4.346 -0.0620 -0.4959  0.4083
 1175Sol     HW 8708  -0.003   0.400   4.424  0.6942 -0.4453  0.4473
 1175Sol     HW 8709   0.091   0.305   4.352  0.7949  0.9625 -1.3127
 1175Sol     MW 8710   0.012   0.347   4.353 -0.1954 -0.3583 -0.1240
 1176Sol     OW 8711   1.095   0.947   1.775  0.2942  0.3361 -0.2489
 1176Sol     HW 8712   1.103   1.014   1.842  0.8811 -1.1999  1.2668
 1176Sol     HW 8713   1.004   0.919   1.780  0.0279  1.0624 -0.9392
 1176Sol     MW 8714   1.088   0.950   1.782  0.2759 -0.8165 -0.0285
 1177Sol     OW 8715   0.119   2.940   1.632  0.3346 -0.3960  0.1317
 1177Sol     HW 8716   0.061   2.943   1.709 -1.4950 -2.1374 -1.1478
 1177Sol     HW 8717   0.112   3.028   1.595  0.8862  0.3291  1.6793
 1177Sol     MW 8718   0.113   2.949   1.636  0.2416  0.3903  0.2204
 1178Sol     OW 8719   2.464   2.795   6.274  0.2031 -0.7367  0.9513
 1178Sol     HW 8720   2.415   2.869   6.240  0.1595 -0.0851  2.3855
 1178Sol     HW 8721   2.404   2.720   6.266 -0.3200 -0.3152  0.9298
 1178Sol     MW 8722   2.455   2.795   6.271  0.1724 -0.4801  0.0614
 1179Sol     OW 8723   0.975   2.712   6.382 -0.3364  0.6914 -0.2973
 1179Sol     HW 8724   0.920   2.761   6.320 -0.9201 -0.7343 -0.9220
 1179Sol     HW 8725   0.917   2.647   6.420  1.2031 -1.7029 -1.9310
 1179Sol     MW 8726   0.965   2.711   6.380  0.1944 -0.2213 -0.4410
 1180Sol     OW 8727   1.547   2.240   4.051 -0.1274  0.2442  0.5337
 1180Sol     HW 8728   1.542   2.147   4.028  1.4289 -0.5135  2.9200
 1180Sol     HW 8729   1.537   2.241   4.147 -0.7940  2.6064  0.4680
 1180Sol     MW 8730   1.546   2.232   4.058 -0.8089  0.6152  0.1119
 1181Sol     OW 8731   1.711   1.959   3.895 -0.0443 -0.1720  0.2380
 1181Sol     HW 8732   1.619   1.936   3.904  0.3021 -2.4775 -1.5877
 1181Sol     HW 8733   1.755   1.875   3.879  2.1250  1.0984 -0.6642
 1181Sol     MW 8734   1.707   1.949   3.895  0.3074  0.1403 -0.2058
 1182Sol     OW 8735   1.859   0.978   2.514  0.7390  0.0564 -0.2000
 1182Sol     HW 8736   1.867   0.883   2.509  1.2460  0.1078 -0.4206
 1182Sol     HW 8737   1.836   0.996   2.605 -0.9435 -0.3832 -0.5160
 1182Sol     MW 8738   1.858   0.971   2.522 -0.5163 -0.6911  0.3863
 1183Sol     OW 8739   1.960   0.523   5.176  0.2986 -0.0572  0.1715
 1183Sol     HW 8740   1.991   0.548   5.089 -1.2331 -1.4426 -0.8038
 1183Sol     HW 8741   2.023   0.457   5.206  1.3139  1.0502  0.4839
 1183Sol     MW 8742   1.968   0.519   5.171 -0.1166  0.3658 -0.2673
 1184Sol     OW 8743   3.703   2.329   3.263  0.2279  0.4228 -0.2210
 1184Sol     HW 8744   3.680   2.278   3.341  1.0075  1.0000  0.4002
 1184Sol     HW 8745   3.714   2.263   3.194  1.4465 -0.2903  0.6267
 1184Sol     MW 8746   3.702   2.319   3.264  0.1461 -0.0943  0.1256
 1185Sol     OW 8747   2.248   1.092   3.108 -0.0732  0.1954  0.3859
 1185Sol     HW 8748   2.161   1.073   3.143 -1.6546  0.7756 -3.0309
 1185Sol     HW 8749   2.290   1.006   3.100 -1.3132 -0.3516 -0.3656
 1185Sol     MW 8750   2.244   1.083   3.110 -0.5985  0.2515  0.1023
 1186Sol     OW 8751   3.694   3.463   5.261 -0.1158  0.3518 -0.1178
 1186Sol     HW 8752   3.755   3.527   5.225  0.6049 -1.0329 -1.3675
 1186Sol     HW 8753   3.732   3.438   5.346  2.2603 -2.1576 -1.8479
 1186Sol     MW 8754   3.703   3.467   5.266  0.3224  0.1939  0.0354
 1187Sol     OW 8755   1.751   1.179   5.086  0.3912  0.3874 -0.5744
 1187Sol     HW 8756   1.847   1.183   5.078  0.2448  1.7053 -1.8518
 1187Sol     HW 8757   1.726   1.101   5.038  0.7719  0.4508 -0.8829
 1187Sol     MW 8758   1.758   1.173   5.081  0.1725  0.1992  0.0337
 1188Sol     OW 8759   2.900   0.722   5.556 -0.0427 -0.6793 -0.1028
 1188Sol     HW 8760   2.929   0.799   5.507 -1.5247  0.3643  0.6487
 1188Sol     HW 8761   2.893   0.751   5.647  0.2547 -1.9361  0.3393
 1188Sol     MW 8762   2.902   0.731   5.560  0.7954  0.3382  0.0315
 1189Sol     OW 8763   1.846   1.386   2.786 -0.3418 -0.9119 -0.4041
 1189Sol     HW 8764   1.765   1.362   2.830 -1.0731  2.1767  0.0203
 1189Sol     HW 8765   1.818   1.433   2.708  1.0286  1.6801  0.6210
 1189Sol     MW 8766   1.836   1.388   2.783  0.3516 -1.2910  0.9956
 1190Sol     OW 8767   3.260   0.690   5.834  0.6311 -0.6220 -0.2069
 1190Sol     HW 8768   3.195   0.759   5.822  1.0585 -0.1149  0.3821
 1190Sol     HW 8769   3.289   0.668   5.745 -1.1687 -1.6628 -0.5694
 1190Sol     MW 8770   3.257   0.694   5.825  0.4018  0.8103  0.1271
 1191Sol     OW 8771   2.440   3.495   5.298  0.1672 -0.6030 -0.5257
 1191Sol     HW 8772   2.402   3.551   5.366  1.4776  0.7057 -0.8595
 1191Sol     HW 8773   2.530   3.479   5.327  0.3838 -0.9729 -1.3913
 1191Sol     MW 8774   2.444   3.498   5.307  0.1028 -0.3388  1.1475
 1192Sol     OW 8775   3.944   0.876   4.234 -0.2267 -0.0147  0.3960
 1192Sol     HW 8776   3.963   0.922   4.152 -0.7998  0.0830  0.3203
 1192Sol     HW 8777   3.974   0.787   4.218 -4.8294 -1.3304 -1.7024
 1192Sol     MW 8778   3.949   0.873   4.225  0.0252 -0.3226  0.0963
 1193Sol     OW 8779   0.331   1.395   6.579 -0.4086  0.4761  0.3072
 1193Sol     HW 8780   0.267   1.454   6.618  0.3717  1.5559 -0.0287
 1193Sol     HW 8781   0.327   1.316   6.633 -1.6585  0.7247  0.5874
 1193Sol     MW 8782   0.325   1.393   6.587  0.0140 -0.1974  0.1558
 1194Sol     OW 8783   0.692   3.156   1.521 -0.3247 -0.1638 -0.2018
 1194Sol     HW 8784   0.681   3.126   1.611  0.7565 -0.2157 -0.0820
 1194Sol     HW 8785   0.605   3.188   1.496 -0.4846  0.4263  1.0696
 1194Sol     MW 8786   0.683   3.156   1.527 -0.0618 -0.5909 -0.6484
 1195Sol     OW 8787   0.804   3.104   5.932 -0.3898  0.4215  0.4063
 1195Sol     HW 8788   0.837   3.183   5.974 -0.5893  0.0247  1.3184
 1195Sol     HW 8789   0.713   3.098   5.961 -0.7126  0.4820 -0.5800
 1195Sol     MW 8790   0.799   3.111   5.938  0.3817 -0.3736 -0.1519
 1196Sol     OW 8791   0.003   0.500   2.013 -0.2843  0.4543  0.1910
 1196Sol     HW 8792  -0.048   0.569   2.056  0.6581  0.8169  0.7413
 1196Sol     HW 8793  -0.022   0.506   1.921  0.4498  2.1296  0.0782
 1196Sol     MW 8794  -0.004   0.507   2.009  0.2071  0.0177 -0.3585
 1197Sol     OW 8795   1.015   0.250   3.267 -0.6370  0.6354 -0.1255
 1197Sol     HW 8796   1.008   0.175   3.326 -0.0448 -0.5873 -1.5730
 1197Sol     HW 8797   1.074   0.310   3.312  0.0081 -0.3891  0.4212
 1197Sol     MW 8798   1.020   0.249   3.276 -0.3466 -0.2515 -0.0654
 1198Sol     OW 8799   1.335   4.178   2.999  0.1711  0.2520 -0.0135
 1198Sol     HW 8800   1.272   4.124   3.046  0.0247  0.6029  0.1943
 1198Sol     HW 8801   1.325   4.152   2.907 -0.6411  0.6762 -0.0502
 1198Sol     MW 8802   1.328   4.171   2.995  0.1246 -0.5594  0.1346
 1199Sol     OW 8803   1.286   0.924   2.271  0.3720  0.0845 -0.0897
 1199Sol     HW 8804   1.201   0.939   2.230  0.7302  0.5347 -0.6835
 1199Sol     HW 8805   1.295   0.995   2.335  1.7728  2.0818 -2.4259
 1199Sol     MW 8806   1.279   0.932   2.273  0.0659  0.4565  0.6132
 1200Sol     OW 8807   2.311   3.721   6.260 -0.4204 -0.2522 -0.5018
 1200Sol     HW 8808   2.344   3.799   6.305 -0.8592 -0.8464  0.8664
 1200Sol     HW 8809   2.311   3.745   6.167 -1.1290  1.5864 -0.0473
 1200Sol     MW 8810   2.314   3.730   6.256 -0.4074 -0.0168 -0.4626
 1201Sol     OW 8811   2.707   0.434   4.781 -0.2305 -0.6003 -0.3239
 1201Sol     HW 8812   2.700   0.488   4.860  1.8461  0.5934 -0.9084
 1201Sol     HW 8813   2.661   0.353   4.803 -3.5710  1.4194  0.5132
 1201Sol     MW 8814   2.702   0.432   4.790 -0.1376 -0.0318  0.0464
 1202Sol     OW 8815   3.401   0.165   5.374  0.4423  0.3797 -0.5305
 1202Sol     HW 8816   3.314   0.144   5.342  0.3820  1.2991 -0.9758
 1202Sol     HW 8817   3.405   0.126   5.462  0.2238 -1.2073 -1.2030
 1202Sol     MW 8818   3.394   0.160   5.379  0.1240  0.0016  0.1880
 1203Sol     OW 8819   3.479   3.064   3.557  0.0135 -0.1024  0.2486
 1203Sol     HW 8820   3.424   3.010   3.500 -0.9020  1.3088 -0.2428
 1203Sol     HW 8821   3.435   3.150   3.558 -1.2166 -0.6612  4.7600
 1203Sol     MW 8822   3.470   3.067   3.552  0.0537  0.2305  0.5505
 1204Sol     OW 8823   1.673   2.310   6.766 -0.5551  0.5754 -1.0062
 1204Sol     HW 8824   1.699   2.399   6.740  0.9803 -0.0884 -1.7875
 1204Sol     HW 8825   1.708   2.254   6.697 -1.1547 -0.6815 -0.2950
 1204Sol     MW 8826   1.678   2.313   6.758 -0.9545  0.4536 -0.5533
 1205Sol     OW 8827   2.142   0.295   4.378  0.1976 -0.1454 -0.5364
 1205Sol     HW 8828   2.125   0.232   4.309 -0.1982 -0.6601  0.0277
 1205Sol     HW 8829   2.237   0.290   4.393  0.4679  0.7838 -1.8089
 1205Sol     MW 8830   2.149   0.289   4.373 -0.3865  1.0150 -0.2077
 1206Sol     OW 8831   2.329   0.895   6.050  0.0407 -0.2351 -0.3543
 1206Sol     HW 8832   2.363   0.860   6.133 -0.7915  0.1536  0.1602
 1206Sol     HW 8833   2.234   0.899   6.063 -0.1759 -0.9008 -1.6056
 1206Sol     MW 8834   2.324   0.892   6.059  0.2982  0.5290 -0.0949
 1207Sol     OW 8835   1.334   3.465   5.996  0.1326  0.7145  0.1627
 1207Sol     HW 8836   1.380   3.536   6.041  3.4431 -1.0433 -0.3198
 1207Sol     HW 8837   1.318   3.400   6.065  1.8289 -0.3264 -0.3944
 1207Sol     MW 8838   1.336   3.465   6.006 -0.0643  0.2295 -0.5136
 1208Sol     OW 8839   2.724   2.887   1.854 -0.0100  0.3252 -0.0154
 1208Sol     HW 8840   2.715   2.816   1.917 -0.8379  0.5517  0.1230
 1208Sol     HW 8841   2.805   2.867   1.807  0.3563 -0.0931  0.7938
 1208Sol     MW 8842   2.731   2.879   1.855 -0.1565 -0.2866 -0.2466
 1209Sol     OW 8843   2.204   0.274   5.657  0.0015  0.2819 -0.0461
 1209Sol     HW 8844   2.208   0.351   5.600  1.1704 -0.3734 -0.8622
 1209Sol     HW 8845   2.254   0.207   5.611 -0.6848 -0.8624  0.8369
 1209Sol     MW 8846   2.209   0.275   5.648  0.0449 -0.3207  0.4498
 1210Sol     OW 8847   3.556   1.203   4.928  0.2018  0.3286 -0.3523
 1210Sol     HW 8848   3.619   1.221   4.858 -1.5927  1.4675 -1.7316
 1210Sol     HW 8849   3.487   1.268   4.915 -0.7968 -0.2657  1.7149
 1210Sol     MW 8850   3.556   1.211   4.921  0.3068  0.5624  0.3336
 1211Sol     OW 8851   1.932   3.941   3.477  0.2926 -0.1933 -0.2851
 1211Sol     HW 8852   2.003   3.878   3.486  2.6574  2.2332 -1.2815
 1211Sol     HW 8853   1.924   3.981   3.564  2.3775  1.7572 -0.9328
 1211Sol     MW 8854   1.938   3.939   3.485 -0.6106  0.0512 -0.3706
 1212Sol     OW 8855   0.074   0.585   2.312 -0.2278  0.1128 -0.0364
 1212Sol     HW 8856   0.074   0.583   2.408  0.0966  0.3771 -0.0293
 1212Sol     HW 8857   0.162   0.557   2.288 -0.8679 -1.7862 -0.3041
 1212Sol     MW 8858   0.082   0.582   2.318  0.0230 -0.0738  0.0625
 1213Sol     OW 8859   0.697   0.198   2.609  0.6669  0.0341 -0.2768
 1213Sol     HW 8860   0.670   0.275   2.560  1.2660 -0.2283 -1.0306
 1213Sol     HW 8861   0.776   0.167   2.564  0.9351 -0.5017  0.5472
 1213Sol     MW 8862   0.702   0.202   2.601 -0.1395  0.0842  0.5240
 1214Sol     OW 8863   1.571   3.284   3.068  0.2524  0.1138 -0.1208
 1214Sol     HW 8864   1.605   3.208   3.021  0.3688  1.4466 -2.2618
 1214Sol     HW 8865   1.494   3.311   3.018 -0.0837  1.1127  0.9097
 1214Sol     MW 8866   1.567   3.279   3.059 -0.2273  0.6650  0.3525
 1215Sol     OW 8867   0.627   0.376   6.007  0.0220  0.0263 -0.0111
 1215Sol     HW 8868   0.699   0.398   6.066  1.4645  2.0830 -2.4306
 1215Sol     HW 8869   0.667   0.323   5.939 -0.7487  1.0641 -1.2949
 1215Sol     MW 8870   0.637   0.373   6.007 -0.4713  0.4690 -0.2438
 1216Sol     OW 8871   3.791   4.144   2.985  0.3377 -1.1810  0.5308
 1216Sol     HW 8872   3.751   4.125   2.899  0.7068  2.1162 -0.4473
 1216Sol     HW 8873   3.882   4.116   2.976  0.8883  0.8782 -0.8965
 1216Sol     MW 8874   3.795   4.140   2.976 -0.1596 -0.2001  0.0311
 1217Sol     OW 8875   2.446   3.666   3.681 -0.3575 -0.2216 -0.3082
 1217Sol     HW 8876   2.401   3.582   3.694  1.8173 -1.5671 -1.1558
 1217Sol     HW 8877   2.392   3.712   3.617 -1.0936 -1.3415 -0.5092
 1217Sol     MW 8878   2.437   3.663   3.677  0.8519  0.3186  0.3170
 1218Sol     OW 8879   0.607   1.928   6.252  0.1944 -0.5777 -0.1484
 1218Sol     HW 8880   0.686   1.979   6.273 -1.2810  1.5403  0.4852
 1218Sol     HW 8881   0.541   1.994   6.231 -0.9253 -2.3734 -2.4794
 1218Sol     MW 8882   0.608   1.939   6.252 -0.2374  0.1346 -0.7001
 1219Sol     OW 8883   0.546   4.011   3.329 -0.4462  0.1134  0.6131
 1219Sol     HW 8884   0.609   4.082   3.336  0.8834 -0.9203 -0.3963
 1219Sol     HW 8885   0.551   3.984   3.237 -0.6830 -1.4798  1.0549
 1219Sol     MW 8886   0.552   4.015   3.321  0.4845  0.0299 -0.3882
 1220Sol     OW 8887   1.752   2.940   1.313 -0.2976  0.5485 -0.0263
 1220Sol     HW 8888   1.760   2.873   1.380 -1.9167  0.4105  0.0450
 1220Sol     HW 8889   1.838   2.983   1.312 -0.2980  0.6565  2.2304
 1220Sol     MW 8890   1.761   2.938   1.319 -0.0881 -0.4181  0.0120
 1221Sol     OW 8891   3.143   1.467   3.695 -0.1141  0.0513 -0.3374
 1221Sol     HW 8892   3.082   1.398   3.721 -0.5117 -0.0258 -1.4416
 1221Sol     HW 8893   3.109   1.546   3.737  1.7731 -0.8324  3.0580
 1221Sol     MW 8894   3.134   1.468   3.701 -0.3598 -0.1492 -0.5577
 1222Sol     OW 8895   1.907   2.554   2.593 -0.2599 -0.4235  0.5065
 1222Sol     HW 8896   1.856   2.589   2.520  0.3874 -0.5313 -0.0021
 1222Sol     HW 8897   1.863   2.473   2.617 -1.0402  0.1060  0.8694
 1222Sol     MW 8898   1.899   2.550   2.589  0.5485 -0.4174  0.1803
 1223Sol     OW 8899   3.363   0.572   5.601  0.1217  0.6391 -0.5424
 1223Sol     HW 8900   3.316   0.592   5.520 -0.2635  1.5964 -0.0900
 1223Sol     HW 8901   3.438   0.520   5.573  0.2946  1.4305 -1.5743
 1223Sol     MW 8902   3.366   0.569   5.591 -0.0648  0.1995  0.3672
 1224Sol     OW 8903   1.496   1.536   1.560 -0.1908  0.4052  0.0775
 1224Sol     HW 8904   1.421   1.490   1.523  0.5485 -0.1673 -0.7118
 1224Sol     HW 8905   1.512   1.492   1.643  2.3782 -2.7884 -1.9983
 1224Sol     MW 8906   1.491   1.528   1.564 -0.4040 -0.5865  0.7152
 1225Sol     OW 8907   3.986   3.974   3.632 -0.9078 -0.2201 -0.8572
 1225Sol     HW 8908   3.950   4.008   3.715 -0.6610 -1.7769 -0.1032
 1225Sol     HW 8909   4.076   4.006   3.630 -0.8854 -0.2578 -0.4802
 1225Sol     MW 8910   3.991   3.980   3.639 -0.4238 -0.2087  0.0680
 1226Sol     OW 8911   0.079   2.585   2.187 -0.2817  0.0694 -0.0457
 1226Sol     HW 8912   0.019   2.645   2.232 -0.3938  0.0629 -0.1897
 1226Sol     HW 8913   0.072   2.503   2.236  0.0764  0.2562  0.3209
 1226Sol     MW 8914   0.073   2.583   2.196  0.1490 -0.2229 -0.3404
 1227Sol     OW 8915   3.017   3.478   4.858 -0.4327 -0.2755 -0.1022
 1227Sol     HW 8916   2.983   3.536   4.790 -0.1233  0.1685  0.1134
 1227Sol     HW 8917   2.943   3.422   4.881 -1.1411  0.9296  0.6370
 1227Sol     MW 8918   3.007   3.479   4.854  0.0415 -0.8411  0.2488
 1228Sol     OW 8919   0.448   1.461   2.013 -0.5895 -0.1879 -0.6018
 1228Sol     HW 8920   0.359   1.467   1.978 -0.8996 -0.2073  0.1632
 1228Sol     HW 8921   0.450   1.376   2.057  0.2271 -0.7713 -1.7340
 1228Sol     MW 8922   0.440   1.454   2.014  0.1273  0.5508  0.4706
 1229Sol     OW 8923   3.073   1.676   3.331  0.3774 -0.1026  0.0632
 1229Sol     HW 8924   3.143   1.722   3.284  1.4189  0.4688  2.1262
 1229Sol     HW 8925   3.110   1.591   3.352 -0.9022 -1.2404 -2.1179
 1229Sol     MW 8926   3.083   1.673   3.329  0.4589 -0.3375 -0.2839
 1230Sol     OW 8927   3.918   0.731   3.380  0.4208  0.3678 -0.0245
 1230Sol     HW 8928   3.921   0.647   3.334  0.6395 -0.7846  2.0438
 1230Sol     HW 8929   3.864   0.714   3.457 -0.9518  2.5880 -0.4429
 1230Sol     MW 8930   3.913   0.722   3.383 -0.0967 -0.3855 -0.2790
 1231Sol     OW 8931   3.348   1.482   6.982  0.3198  0.5046  0.0237
 1231Sol     HW 8932   3.258   1.489   6.951 -0.0801  2.1977  1.4715
 1231Sol     HW 8933   3.348   1.403   7.037  0.0063 -0.1226 -0.8720
 1231Sol     MW 8934   3.340   1.475   6.984  0.1835  0.0997  0.5131
 1232Sol     OW 8935   2.176   2.942   3.128 -0.9132 -0.0383  0.7215
 1232Sol     HW 8936   2.224   2.991   3.194 -2.9402  1.4741  1.1230
 1232Sol     HW 8937   2.206   2.977   3.044 -0.1188 -0.2557  0.9195
 1232Sol     MW 8938   2.183   2.950   3.126 -0.4418 -0.3223 -0.5692
 1233Sol     OW 8939   0.346   3.447   5.352 -0.5319  0.6833  0.1676
 1233Sol     HW 8940   0.285   3.432   5.424 -0.5126  0.9345  0.2369
 1233Sol     HW 8941   0.304   3.408   5.276 -0.4712  0.2595  0.3522
 1233Sol     MW 8942   0.337   3.442   5.352 -0.4212 -0.0321 -0.1696
 1234Sol     OW 8943   0.535   2.951   1.756 -0.2708  0.4976  0.0996
 1234Sol     HW 8944   0.570   2.911   1.676 -0.6226  0.4334 -0.0235
 1234Sol     HW 8945   0.609   2.952   1.817 -0.0550  0.3658 -0.1592
 1234Sol     MW 8946   0.545   2.948   1.754  0.0107  0.4165  0.1801
 1235Sol     OW 8947   3.269   0.601   2.579  0.4303 -0.3944  0.2541
 1235Sol     HW 8948   3.283   0.608   2.673 -0.5420  0.7931  0.3191
 1235Sol     HW 8949   3.201   0.666   2.560  1.1101 -0.1475 -1.3750
 1235Sol     MW 8950   3.264   0.607   2.586  0.2379  0.7097 -0.0369
 1236Sol     OW 8951   1.811   0.151   3.159 -0.9582  0.3386  0.0290
 1236Sol     HW 8952   1.849   0.074   3.201  0.1881 -0.3617 -2.2347
 1236Sol     HW 8953   1.783   0.207   3.232 -0.2832 -1.4532  1.6971
 1236Sol     MW 8954   1.812   0.149   3.169  0.1313  0.2646 -0.3956
 1237Sol     OW 8955   1.635   0.072   2.972 -0.5469 -0.1389  0.5632
 1237Sol     HW 8956   1.546   0.077   3.008 -0.7966  1.4376 -0.1930
 1237Sol     HW 8957   1.692   0.098   3.044 -0.7273 -0.6994  0.9145
 1237Sol     MW 8958   1.632   0.075   2.982 -0.1448 -0.3619 -0.3899
 1238Sol     OW 8959   0.008   4.157   5.675  0.0411 -0.0992  0.4896
 1238Sol     HW 8960   0.098   4.132   5.652 -0.0359 -0.5589  0.6886
 1238Sol     HW 8961   0.009   4.253   5.674  0.1827 -0.0967 -0.9133
 1238Sol     MW 8962   0.016   4.163   5.673  0.7802  0.2827  0.4989
 1239Sol     OW 8963   3.061   2.525   2.957 -0.6210 -0.0153 -0.5519
 1239Sol     HW 8964   3.087   2.578   3.033 -0.2860  0.4263 -0.9693
 1239Sol     HW 8965   2.975   2.490   2.981 -0.4184 -0.0629  0.1234
 1239Sol     MW 8966   3.056   2.527   2.966  0.3779 -0.1127  0.7267
 1240Sol     OW 8967   3.940   2.425   3.384 -0.0509  0.0054 -0.1285
 1240Sol     HW 8968   3.868   2.407   3.324  1.4161 -1.0458 -1.6275
 1240Sol     HW 8969   4.019   2.400   3.335  1.1852 -0.8268  2.2116
 1240Sol     MW 8970   3.941   2.421   3.374 -0.2886  0.1687  0.3052
 1241Sol     OW 8971   2.445   2.606   6.858 -0.2816  0.4600  0.2430
 1241Sol     HW 8972   2.450   2.680   6.797 -1.3944  0.5830  0.2801
 1241Sol     HW 8973   2.360   2.566   6.839 -1.2916  1.3372  2.6697
 1241Sol     MW 8974   2.438   2.609   6.851  0.0198 -0.6831 -0.2238
 1242Sol     OW 8975   3.316   1.104   3.325  0.4063 -0.2745 -0.6329
 1242Sol     HW 8976   3.232   1.075   3.362 -0.1945  2.2134  0.0647
 1242Sol     HW 8977   3.292   1.170   3.260  1.8325  1.0491  0.1409
 1242Sol     MW 8978   3.306   1.108   3.323  0.0545  0.1080 -0.2897
 1243Sol     OW 8979   0.282   4.038   3.350  0.6516 -0.2375  0.3836
 1243Sol     HW 8980   0.375   4.036   3.328  0.0263 -2.5937 -2.3184
 1243Sol     HW 8981   0.241   4.081   3.276 -0.4139  1.0495  1.6996
 1243Sol     MW 8982   0.287   4.042   3.342 -0.6301 -0.2352 -0.1937
 1244Sol     OW 8983   3.153   3.868   5.049  0.0871 -0.2616 -0.3823
 1244Sol     HW 8984   3.086   3.886   5.115 -2.1753 -1.3562 -2.2962
 1244Sol     HW 8985   3.177   3.777   5.064 -0.4733 -0.5310 -1.0689
 1244Sol     MW 8986   3.149   3.862   5.056 -0.7613 -0.5191 -0.0270
 1245Sol     OW 8987   0.307   2.971   5.969  0.2801 -0.6461  0.1742
 1245Sol     HW 8988   0.281   3.041   5.908  2.4845 -0.1367 -0.2586
 1245Sol     HW 8989   0.288   2.890   5.921 -0.0698 -0.2883 -0.3050
 1245Sol     MW 8990   0.303   2.970   5.959  0.0120 -0.1139  0.1534
 1246Sol     OW 8991   3.777   0.984   2.826  0.2632  0.3304 -0.1111
 1246Sol     HW 8992   3.706   0.930   2.861  2.3171 -2.2644  0.2674
 1246Sol     HW 8993   3.784   0.958   2.734 -0.4433  1.8990 -0.6213
 1246Sol     MW 8994   3.772   0.977   2.821  0.1796  0.1991  0.0951
 1247Sol     OW 8995   0.277   3.722   3.776 -0.0738  0.0076 -0.1827
 1247Sol     HW 8996   0.359   3.702   3.729  0.6145 -0.1944  1.0880
 1247Sol     HW 8997   0.263   3.815   3.758  1.0957  0.3435  0.5885
 1247Sol     MW 8998   0.283   3.729   3.770  0.2023  0.1069 -0.0092
 1248Sol     OW 8999   2.798   3.458   5.679 -0.7768  0.1053  0.2516
 1248Sol     HW 9000   2.875   3.496   5.639 -1.1286  0.0198 -0.5245
 1248Sol     HW 9001   2.778   3.382   5.624  0.2860 -1.5816  2.1228
 1248Sol     MW 9002   2.803   3.454   5.670 -1.0489  0.2357  0.5707
 1249Sol     OW 9003   3.117   1.478   6.832 -0.1351 -0.1202  0.1931
 1249Sol     HW 9004   3.111   1.573   6.844 -0.0763 -0.3072  1.8540
 1249Sol     HW 9005   3.038   1.455   6.783 -0.5646  0.6809  0.4939
 1249Sol     MW 9006   3.109   1.484   6.828  0.1115 -0.2560  0.8333
 1250Sol     OW 9007   0.159   2.197   1.788 -0.6556  0.7647  0.5308
 1250Sol     HW 9008   0.185   2.248   1.864 -1.4657 -0.0479  1.3665
 1250Sol     HW 9009   0.067   2.220   1.774 -0.4797  0.9996 -0.2787
 1250Sol     MW 9010   0.153   2.204   1.794  0.0732 -0.1932 -0.0658
 1251Sol     OW 9011   2.722   1.452   2.354 -0.0332  0.0038  0.0260
 1251Sol     HW 9012   2.711   1.547   2.359  2.2264  0.3751 -1.3243
 1251Sol     HW 9013   2.722   1.424   2.446 -1.5491  1.1978  0.4049
 1251Sol     MW 9014   2.721   1.458   2.363 -0.1978 -0.2105 -0.0419
 1252Sol     OW 9015   1.756   0.208   4.465  0.9313 -0.2510  0.1078
 1252Sol     HW 9016   1.739   0.303   4.464  2.3411  0.0044 -0.4523
 1252Sol     HW 9017   1.809   0.194   4.543 -3.2539 -1.3390  2.9253
 1252Sol     MW 9018   1.759   0.215   4.472  0.0110  0.0438  0.0502
 1253Sol     OW 9019   3.682   0.955   1.925  0.5479  0.3688 -0.4522
 1253Sol     HW 9020   3.634   1.030   1.890 -1.1857 -0.8687 -0.7507
 1253Sol     HW 9021   3.623   0.915   1.988  1.4294 -0.8037 -0.3473
 1253Sol     MW 9022   3.673   0.959   1.927 -0.5854 -0.1004  0.4686
 1254Sol     OW 9023   1.032   1.276   3.623  0.6496  0.1694  0.0819
 1254Sol     HW 9024   1.092   1.233   3.563  0.4145  1.2673 -0.9538
 1254Sol     HW 9025   0.946   1.242   3.601  0.4679  1.1343 -0.7139
 1254Sol     MW 9026   1.030   1.269   3.616  0.0718  0.4972  0.1169
 1255Sol     OW 9027   0.896   1.627   3.886  0.3256 -0.2046 -0.0348
 1255Sol     HW 9028   0.907   1.545   3.934 -0.6924  0.2065  0.9050
 1255Sol     HW 9029   0.939   1.611   3.802 -0.9521 -2.1511 -0.3544
 1255Sol     MW 9030   0.901   1.618   3.883  0.1871 -0.2240  0.7498
 1256Sol     OW 9031   1.438   1.896   2.072 -0.5408  0.0432 -0.2759
 1256Sol     HW 9032   1.440   1.992   2.067  0.0736 -0.0701 -2.7643
 1256Sol     HW 9033   1.353   1.872   2.035 -0.3464 -0.4126 -0.4324
 1256Sol     MW 9034   1.431   1.903   2.068 -0.5952  0.0167  0.2985
 1257Sol     OW 9035   1.103   3.867   6.783  0.2480  0.8258 -0.4190
 1257Sol     HW 9036   1.019   3.908   6.802  0.4513  1.2139 -0.3541
 1257Sol     HW 9037   1.091   3.825   6.698 -1.0337 -1.9108  1.0579
 1257Sol     MW 9038   1.095   3.867   6.777 -0.0713 -0.1018  0.6204
 1258Sol     OW 9039   2.913   1.303   6.426  0.0319 -0.1045  0.1138
 1258Sol     HW 9040   2.991   1.352   6.400  0.5863 -0.7395  0.5672
 1258Sol     HW 9041   2.844   1.336   6.369  0.3215  1.4506  0.6216
 1258Sol     MW 9042   2.914   1.310   6.419 -0.0773 -0.6215 -0.3885
 1259Sol     OW 9043   3.557   0.792   3.216  0.1598  0.1782  0.1241
 1259Sol     HW 9044   3.572   0.747   3.132  1.5762 -0.1734  0.5538
 1259Sol     HW 9045   3.633   0.850   3.226  0.4050 -0.3649  1.5340
 1259Sol     MW 9046   3.565   0.793   3.209  0.7802  0.3044  0.3898
 1260Sol     OW 9047   2.922   4.061   6.679  0.4633  0.4493  0.0857
 1260Sol     HW 9048   3.013   4.035   6.692 -0.0783 -0.6679  1.7796
 1260Sol     HW 9049   2.920   4.154   6.704  1.5242  1.0282 -1.8749
 1260Sol     MW 9050   2.930   4.067   6.682  0.6430 -0.1622  0.4508
 1261Sol     OW 9051   1.906   2.302   6.133  0.2327  0.4152  0.5364
 1261Sol     HW 9052   1.821   2.329   6.169  1.2942  1.8514  2.0129
 1261Sol     HW 9053   1.930   2.371   6.072 -0.9117 -1.3474 -2.0191
 1261Sol     MW 9054   1.900   2.310   6.131 -0.2459  0.5282 -0.3302
 1262Sol     OW 9055   0.299   2.382   5.164 -0.1157 -0.5125  0.0039
 1262Sol     HW 9056   0.382   2.342   5.191 -1.1011 -1.0640  2.3700
 1262Sol     HW 9057   0.258   2.408   5.246 -1.1732  2.0434 -1.2865
 1262Sol     MW 9058   0.303   2.381   5.174  0.0292  0.3007  0.1279
 1263Sol     OW 9059   0.727   4.112   1.801 -0.4789 -0.6689  0.3063
 1263Sol     HW 9060   0.727   4.185   1.863 -0.2207  0.0781 -0.5605
 1263Sol     HW 9061   0.750   4.036   1.854 -1.4669 -0.2508  1.3653
 1263Sol     MW 9062   0.729   4.112   1.811  0.0157 -0.0165 -0.4606
 1264Sol     OW 9063   0.763   0.438   3.437 -0.0053 -0.0439 -0.0702
 1264Sol     HW 9064   0.690   0.494   3.464  0.0808 -0.1969  0.4699
 1264Sol     HW 9065   0.841   0.491   3.452  0.0031  0.1243 -0.6613
 1264Sol     MW 9066   0.763   0.448   3.440  0.3267  0.8679  0.2138
 1265Sol     OW 9067   3.878   1.501   4.730  0.9054  0.9099 -0.5484
 1265Sol     HW 9068   3.949   1.485   4.667 -0.4567 -2.8971 -1.2239
 1265Sol     HW 9069   3.917   1.482   4.815  0.5286 -2.2488 -1.0023
 1265Sol     MW 9070   3.888   1.498   4.732  0.6731  0.8417 -0.2985
 1266Sol     OW 9071   3.103   3.884   4.775 -0.1165 -0.3170 -0.5067
 1266Sol     HW 9072   3.131   3.904   4.864 -0.5647  0.5304 -0.5436
 1266Sol     HW 9073   3.025   3.938   4.762  0.1448 -0.1692 -1.5349
 1266Sol     MW 9074   3.098   3.891   4.782  0.3708  0.2926 -0.4595
 1267Sol     OW 9075   0.636   3.064   2.441 -0.2626  0.1761 -0.5201
 1267Sol     HW 9076   0.618   3.093   2.530  0.5407 -2.5131  0.5471
 1267Sol     HW 9077   0.714   3.114   2.415 -1.6325  2.3920 -0.4629
 1267Sol     MW 9078   0.642   3.071   2.446  0.0278 -0.4302 -0.2711
 1268Sol     OW 9079   2.919   1.341   4.890 -0.0871  0.0010  0.7745
 1268Sol     HW 9080   2.868   1.269   4.929 -0.7145  0.4887  0.8693
 1268Sol     HW 9081   2.934   1.401   4.963  2.5941 -1.2131  1.2736
 1268Sol     MW 9082   2.916   1.340   4.900 -0.0289 -0.1216  0.0567
 1269Sol     OW 9083   1.243   0.242   3.056  0.2976 -0.1189  0.1721
 1269Sol     HW 9084   1.192   0.242   3.137 -1.9586 -1.8623 -1.1907
 1269Sol     HW 9085   1.255   0.149   3.036 -0.1472  0.2866 -2.0652
 1269Sol     MW 9086   1.239   0.233   3.061 -0.0917  0.0888  0.2309
 1270Sol     OW 9087   0.289   3.669   6.208  0.2754  0.3498  0.1154
 1270Sol     HW 9088   0.320   3.653   6.297 -2.3671  0.3344  1.0858
 1270Sol     HW 9089   0.329   3.753   6.184  0.7053  0.5575  1.4693
 1270Sol     MW 9090   0.295   3.676   6.214 -0.0317 -1.0503 -0.2342
 1271Sol     OW 9091   3.844   0.600   3.621  0.0834  0.2849 -0.1275
 1271Sol     HW 9092   3.890   0.547   3.686  1.9793  3.2164  1.0780
 1271Sol     HW 9093   3.752   0.598   3.649  0.3681 -1.1129  0.7620
 1271Sol     MW 9094   3.840   0.595   3.630 -0.2130 -0.0529 -0.7728
 1272Sol     OW 9095   1.054   0.383   2.644 -0.3431  0.1832 -0.3704
 1272Sol     HW 9096   1.130   0.374   2.701 -0.8225 -1.3611  0.0642
 1272Sol     HW 9097   1.073   0.326   2.570 -1.0596 -0.1884 -0.2703
 1272Sol     MW 9098   1.062   0.377   2.643 -0.5064 -0.1713 -0.0577
 1273Sol     OW 9099   2.660   2.389   4.974 -0.1073  0.9224  0.4540
 1273Sol     HW 9100   2.666   2.326   4.902 -1.3130 -0.6755  1.7104
 1273Sol     HW 9101   2.631   2.470   4.933 -0.0017  0.2564 -0.9772
 1273Sol     MW 9102   2.658   2.390   4.964 -0.6633 -0.0247 -0.2108
 1274Sol     OW 9103   1.262   2.640   2.945  0.1964 -0.4695 -0.4859
 1274Sol     HW 9104   1.240   2.565   3.000 -0.8240 -0.2358 -0.5780
 1274Sol     HW 9105   1.197   2.706   2.967 -1.2653 -0.9354 -3.1502
 1274Sol     MW 9106   1.254   2.639   2.952  0.3707 -0.2864  0.0403
 1275Sol     OW 9107   1.853   2.190   2.113 -0.2959 -0.4890  0.1319
 1275Sol     HW 9108   1.920   2.250   2.148 -1.3703  0.2352  0.9763
 1275Sol     HW 9109   1.835   2.224   2.025 -0.0758 -0.2659  0.1710
 1275Sol     MW 9110   1.858   2.199   2.108  0.1925 -0.2328 -0.4623
 1276Sol     OW 9111   3.545   2.692   6.474  0.0006 -0.3636  0.1867
 1276Sol     HW 9112   3.458   2.719   6.503 -0.3681 -0.4663 -0.8084
 1276Sol     HW 9113   3.601   2.768   6.489 -0.4453 -0.0015  0.0142
 1276Sol     MW 9114   3.542   2.701   6.478 -0.8169  0.4105  0.4048
 1277Sol     OW 9115   1.152   0.492   3.360  0.0205 -0.3320 -0.4072
 1277Sol     HW 9116   1.196   0.541   3.291 -1.6086  1.0317 -0.4974
 1277Sol     HW 9117   1.222   0.470   3.422  0.9020  1.3891 -0.7652
 1277Sol     MW 9118   1.162   0.494   3.359  0.3812 -0.1347  0.0200
 1278Sol     OW 9119   0.771   1.838   2.160  0.0410 -0.0452  0.0895
 1278Sol     HW 9120   0.757   1.822   2.253 -1.8990  1.1555  0.0475
 1278Sol     HW 9121   0.694   1.800   2.117  0.7079 -0.2180 -0.9836
 1278Sol     MW 9122   0.763   1.833   2.164  0.4062  1.0909 -0.5708
 1279Sol     OW 9123   1.387   2.251   6.834 -0.4931  0.0279 -0.5169
 1279Sol     HW 9124   1.346   2.240   6.749  2.4051 -5.0695 -1.4943
 1279Sol     HW 9125   1.479   2.270   6.814 -0.0775  0.2455  1.4581
 1279Sol     MW 9126   1.392   2.252   6.825 -0.2234  0.0173  0.2994
 1280Sol     OW 9127   0.801   1.391   4.614 -0.2089 -0.4873 -0.3455
 1280Sol     HW 9128   0.764   1.342   4.688  0.1444 -2.3972 -1.3815
 1280Sol     HW 9129   0.736   1.458   4.595  0.0944  0.5944  2.2414
 1280Sol     MW 9130   0.792   1.392   4.619 -0.1020 -0.0189  0.2342
 1281Sol     OW 9131   1.501   3.051   1.536 -0.0988 -0.8388  0.1666
 1281Sol     HW 9132   1.509   3.053   1.440  0.0108  2.4272  0.1862
 1281Sol     HW 9133   1.408   3.061   1.553  0.0759  0.5816  0.3850
 1281Sol     MW 9134   1.494   3.052   1.529 -0.5272  0.0628  0.5428
 1282Sol     OW 9135   1.640   4.005   2.756 -0.1944  0.2172  0.0233
 1282Sol     HW 9136   1.547   4.028   2.749  0.2921  1.8150 -1.5082
 1282Sol     HW 9137   1.679   4.041   2.676  1.7105 -0.6277  0.5633
 1282Sol     MW 9138   1.635   4.010   2.748  0.1977 -0.5617 -0.1573
 1283Sol     OW 9139   2.832   4.085   6.229 -0.6444 -0.4206  0.2908
 1283Sol     HW 9140   2.854   4.096   6.137 -0.5616 -0.4475  0.3072
 1283Sol     HW 9141   2.754   4.031   6.229 -0.7306 -0.2961  0.2290
 1283Sol     MW 9142   2.827   4.081   6.221 -0.7203  0.0902 -0.6955
 1284Sol     OW 9143   3.559   1.582   2.249 -0.1740 -0.4753 -0.2513
 1284Sol     HW 9144   3.613   1.507   2.274  0.0070 -0.7856 -1.5257
 1284Sol     HW 9145   3.515   1.608   2.330  2.3856  0.2017  0.9510
 1284Sol     MW 9146   3.560   1.577   2.259  0.0956  0.4893 -0.0172
 1285Sol     OW 9147   1.114   3.946   2.214  0.4567  0.4662  0.2828
 1285Sol     HW 9148   1.198   3.991   2.219  0.1830  1.1034 -0.6429
 1285Sol     HW 9149   1.082   3.944   2.304  1.7729 -0.3889  0.7311
 1285Sol     MW 9150   1.119   3.950   2.223 -0.2429 -0.0793  1.0394
 1286Sol     OW 9151   2.288   2.478   2.060  0.3211 -0.3793 -0.1207
 1286Sol     HW 9152   2.348   2.406   2.044 -0.5149 -1.2314  0.5235
 1286Sol     HW 9153   2.339   2.542   2.109  0.3716 -1.6373  1.5219
 1286Sol     MW 9154   2.298   2.478   2.063  0.2454 -0.3253 -0.1368
 1287Sol     OW 9155   1.581   3.700   2.045  0.2553 -0.0418  0.1754
 1287Sol     HW 9156   1.525   3.747   2.108 -1.1852  1.4786 -2.1520
 1287Sol     HW 9157   1.521   3.640   2.001  1.0317 -0.3697 -0.4343
 1287Sol     MW 9158   1.570   3.699   2.047 -0.3691  0.1060  0.1813
 1288Sol     OW 9159   3.246   3.991   3.209  0.0564 -0.5416  0.0668
 1288Sol     HW 9160   3.219   3.940   3.133 -0.7852  0.3399 -0.2383
 1288Sol     HW 9161   3.311   4.053   3.175 -0.9313  0.4068 -0.0984
 1288Sol     MW 9162   3.250   3.992   3.199  0.4127  0.4213 -0.5157
 1289Sol     OW 9163   2.301   2.252   2.546 -0.6252 -0.6146 -0.2946
 1289Sol     HW 9164   2.224   2.296   2.512 -0.1845  0.7793  0.4865
 1289Sol     HW 9165   2.273   2.213   2.628 -0.6229 -0.4960 -0.2372
 1289Sol     MW 9166   2.292   2.252   2.550 -0.1430  0.3753  0.0957
 1290Sol     OW 9167   2.301   2.610   4.930 -0.1049  0.0541 -0.6656
 1290Sol     HW 9168   2.281   2.620   5.023 -3.7349  0.9086 -1.4645
 1290Sol     HW 9169   2.263   2.526   4.906  0.1754  0.1753 -1.5486
 1290Sol     MW 9170   2.296   2.604   4.936 -0.2770  0.2736  0.2453
 1291Sol     OW 9171   1.907   0.335   2.938  0.1736  0.1078  0.0201
 1291Sol     HW 9172   1.982   0.311   2.884 -0.4406  0.7323 -1.1424
 1291Sol     HW 9173   1.887   0.257   2.989  0.2662 -0.7741 -1.2690
 1291Sol     MW 9174   1.912   0.326   2.937  0.1325  0.3510 -0.7462
 1292Sol     OW 9175   2.593   4.181   5.516  0.1287 -0.2208  0.3568
 1292Sol     HW 9176   2.615   4.211   5.427 -1.4294 -0.2663 -0.0619
 1292Sol     HW 9177   2.655   4.226   5.573  0.9396  0.0504 -0.7333
 1292Sol     MW 9178   2.600   4.188   5.513  0.1212 -0.5739 -0.1397
 1293Sol     OW 9179   0.885   2.237   4.902  0.2823 -0.2001  0.1779
 1293Sol     HW 9180   0.794   2.264   4.914 -0.0075 -0.6440 -0.9057
 1293Sol     HW 9181   0.905   2.182   4.978 -1.8184 -3.8313 -1.7263
 1293Sol     MW 9182   0.879   2.234   4.910  0.1000 -0.2883  0.9309
 1294Sol     OW 9183   1.445   4.149   2.453 -0.4109 -0.3634  0.2739
 1294Sol     HW 9184   1.497   4.226   2.429  0.3123 -0.6239  1.0062
 1294Sol     HW 9185   1.510   4.082   2.475 -1.0145 -1.5062 -1.3165
 1294Sol     MW 9186   1.455   4.150   2.452 -0.1132  0.8983 -0.7661
 1295Sol     OW 9187   0.438   2.218   2.266  0.4428  0.5136 -0.1369
 1295Sol     HW 9188   0.359   2.164   2.277  1.5754 -0.9925  0.8808
 1295Sol     HW 9189   0.415   2.302   2.306 -0.8289  0.2822 -0.3565
 1295Sol     MW 9190   0.428   2.220   2.271  0.4910 -0.3086  0.1540
 1296Sol     OW 9191   3.489   3.722   6.025 -0.5388 -0.0881 -0.6651
 1296Sol     HW 9192   3.582   3.718   6.045 -0.9012 -3.0356  0.6480
 1296Sol     HW 9193   3.446   3.702   6.108 -2.2984 -1.2277 -1.8283
 1296Sol     MW 9194   3.493   3.720   6.034 -0.6506 -0.5676  0.5137
 1297Sol     OW 9195   2.095   0.132   4.151  0.0647  0.2612  0.1299
 1297Sol     HW 9196   2.105   0.041   4.125 -0.5413  0.5343 -1.0714
 1297Sol     HW 9197   2.127   0.182   4.077  0.1437  1.0350  0.6807
 1297Sol     MW 9198   2.099   0.128   4.142 -0.5838 -0.4216 -0.0285
 1298Sol     OW 9199   3.545   3.833   2.796 -0.0028  0.0060 -0.5781
 1298Sol     HW 9200   3.512   3.811   2.883 -0.9244 -1.3418 -1.2589
 1298Sol     HW 9201   3.475   3.807   2.736  0.5315  1.1421 -1.7100
 1298Sol     MW 9202   3.536   3.829   2.798  0.5278  0.1753 -0.3581
 1299Sol     OW 9203   3.591   3.771   4.493  0.2061  0.4529 -0.2670
 1299Sol     HW 9204   3.639   3.700   4.451 -1.0965 -0.0616 -0.9406
 1299Sol     HW 9205   3.527   3.727   4.550  0.1066  1.1025  0.1360
 1299Sol     MW 9206   3.589   3.760   4.494 -0.0801 -0.3860  0.9627
 1300Sol     OW 9207   1.570   4.103   1.388 -0.3380 -0.2689 -0.1167
 1300Sol     HW 9208   1.630   4.030   1.403 -0.4098 -0.1803  0.6109
 1300Sol     HW 9209   1.483   4.068   1.407 -0.5756 -0.5320 -1.6355
 1300Sol     MW 9210   1.568   4.093   1.391  0.0028  0.4559  0.4570
 1301Sol     OW 9211   1.886   0.968   4.769  0.1064  0.3238 -0.0298
 1301Sol     HW 9212   1.967   0.999   4.812 -0.1656  0.2178  0.5662
 1301Sol     HW 9213   1.820   0.973   4.838  0.1235 -1.9085  0.1688
 1301Sol     MW 9214   1.888   0.971   4.779 -0.0919  0.3070 -0.6976
 1302Sol     OW 9215   1.718   2.911   1.681  0.0469 -0.1977 -0.1135
 1302Sol     HW 9216   1.733   2.835   1.625  0.6013 -0.6520  0.6266
 1302Sol     HW 9217   1.641   2.954   1.644 -0.5313 -1.3687 -0.2886
 1302Sol     MW 9218   1.712   2.908   1.673  0.1461 -0.0556  0.5221
 1303Sol     OW 9219   2.700   3.915   3.234  0.0166  0.0666 -0.1002
 1303Sol     HW 9220   2.779   3.862   3.244 -0.6423 -1.0541 -0.7601
 1303Sol     HW 9221   2.674   3.937   3.324  1.2647  0.7210  0.1023
 1303Sol     MW 9222   2.704   3.912   3.243  0.3678  0.3482  0.4833
 1304Sol     OW 9223   0.676   0.946   4.675 -0.2658 -0.2666  0.2079
 1304Sol     HW 9224   0.611   0.991   4.622  0.4202  0.6074  0.0819
 1304Sol     HW 9225   0.657   0.853   4.665 -1.2053 -0.0301 -0.1829
 1304Sol     MW 9226   0.669   0.942   4.670  0.1497 -0.5864  0.3056
 1305Sol     OW 9227   2.508   3.508   5.686  0.2521 -0.9841  0.6358
 1305Sol     HW 9228   2.453   3.554   5.623  2.0213 -0.0015 -0.2463
 1305Sol     HW 9229   2.598   3.522   5.654  1.1103 -1.4023  2.7593
 1305Sol     MW 9230   2.512   3.513   5.677 -0.9762  0.4438  0.2665
 1306Sol     OW 9231   0.349   1.196   2.543  0.4711  0.2492  0.1032
 1306Sol     HW 9232   0.392   1.202   2.629  0.2843 -1.6348  0.3457
 1306Sol     HW 9233   0.287   1.123   2.552 -2.0376  2.2379 -0.5849
 1306Sol     MW 9234   0.348   1.190   2.551 -0.2536  0.0226  0.3846
 1307Sol     OW 9235   1.620   1.442   5.047  0.1014  0.1490 -0.0790
 1307Sol     HW 9236   1.613   1.499   5.123 -0.2227 -1.3987  1.0607
 1307Sol     HW 9237   1.654   1.359   5.081  0.0554 -0.5260 -1.6253
 1307Sol     MW 9238   1.622   1.440   5.057  0.0569 -0.0239 -0.7182
 1308Sol     OW 9239   3.840   2.863   3.273  0.4300 -0.0370 -0.3256
 1308Sol     HW 9240   3.806   2.923   3.338  0.4416 -0.0736 -0.2855
 1308Sol     HW 9241   3.763   2.814   3.243  0.3914  0.1270 -0.4921
 1308Sol     MW 9242   3.830   2.864   3.276 -0.0568 -0.0555 -0.1882
 1309Sol     OW 9243   2.074   1.484   5.080 -0.4302  0.0032  0.1987
 1309Sol     HW 9244   2.015   1.542   5.033 -1.2509 -1.5461 -0.7158
 1309Sol     HW 9245   2.149   1.473   5.021  0.9387  2.1421  1.4457
 1309Sol     MW 9246   2.076   1.488   5.071 -0.0974 -0.1556 -0.4430
 1310Sol     OW 9247   1.683   3.061   2.942 -0.4557  0.5775  0.4606
 1310Sol     HW 9248   1.722   2.991   2.995 -0.6374  0.0780 -0.0592
 1310Sol     HW 9249   1.596   3.028   2.920 -0.7338  1.1888  0.6402
 1310Sol     MW 9250   1.679   3.052   2.945 -0.4740 -0.7701 -0.5317
 1311Sol     OW 9251   1.865   0.123   3.579 -0.3252 -0.3219 -0.1279
 1311Sol     HW 9252   1.862   0.210   3.541 -0.0232 -0.1568  0.2184
 1311Sol     HW 9253   1.833   0.065   3.510  1.0498 -0.1395 -0.9548
 1311Sol     MW 9254   1.862   0.126   3.570  0.1414  0.5768 -0.1739
 1312Sol     OW 9255   1.549   2.133   2.750 -0.4000  0.3826 -0.3243
 1312Sol     HW 9256   1.566   2.158   2.840 -1.0055 -0.9853  0.1780
 1312Sol     HW 9257   1.499   2.206   2.714 -1.3038  0.3338  0.8278
 1312Sol     MW 9258   1.546   2.142   2.754 -0.0593  0.2370 -0.0772
 1313Sol     OW 9259   1.758   2.326   4.460  0.1593  0.3642 -0.5632
 1313Sol     HW 9260   1.690   2.262   4.442  1.0155 -0.4372 -0.9686
 1313Sol     HW 9261   1.840   2.279   4.447  0.7993  1.4724 -0.6166
 1313Sol     MW 9262   1.760   2.316   4.457  0.0047  0.5927  0.5074
 1314Sol     OW 9263   3.053   2.239   5.461 -0.0056  0.0257  0.3397
 1314Sol     HW 9264   3.095   2.188   5.531  1.5687 -0.8096 -1.1647
 1314Sol     HW 9265   3.071   2.330   5.483 -0.0631 -0.2070  1.3560
 1314Sol     MW 9266   3.058   2.243   5.469 -0.0915  0.0572  0.4936
 1315Sol     OW 9267   3.530   1.600   6.836 -0.6883 -0.5395 -0.2344
 1315Sol     HW 9268   3.590   1.539   6.794  0.4455 -0.5730  1.4093
 1315Sol     HW 9269   3.467   1.544   6.882 -0.1494 -0.4775  0.5788
 1315Sol     MW 9270   3.529   1.590   6.836 -0.1358  0.6704 -0.6324
 1316Sol     OW 9271   0.511   2.029   2.807  1.4588 -0.9165 -0.0151
 1316Sol     HW 9272   0.468   2.017   2.723  1.9554  1.1603 -0.5976
 1316Sol     HW 9273   0.452   1.987   2.870 -0.8356  0.7972 -0.9570
 1316Sol     MW 9274   0.502   2.024   2.805 -0.2283  0.9766 -0.7716
 1317Sol     OW 9275   0.556   0.413   6.294 -0.2872  0.1622 -0.1599
 1317Sol     HW 9276   0.460   0.416   6.295 -0.3919 -2.1917  0.7880
 1317Sol     HW 9277   0.578   0.381   6.207 -0.4752 -1.1568  0.2593
 1317Sol     MW 9278   0.549   0.410   6.287 -0.1839  0.3405  0.1983
 1318Sol     OW 9279   3.840   0.186   3.521  0.1401 -0.2056 -0.0163
 1318Sol     HW 9280   3.768   0.198   3.584  0.6559  1.1513  0.3297
 1318Sol     HW 9281   3.813   0.111   3.469  0.1542 -2.0135  2.4643
 1318Sol     MW 9282   3.831   0.180   3.522  0.1768 -0.2873 -0.2262
 1319Sol     OW 9283   2.761   3.660   2.284  0.2701 -0.3410 -0.3088
 1319Sol     HW 9284   2.696   3.591   2.275 -0.7761  0.6854 -0.8052
 1319Sol     HW 9285   2.761   3.680   2.378  1.6062 -1.9639  0.0648
 1319Sol     MW 9286   2.755   3.656   2.292  0.1101 -0.1440 -0.1062
 1320Sol     OW 9287   3.552   2.534   5.405  0.2057 -0.0586  0.1096
 1320Sol     HW 9288   3.507   2.571   5.329 -0.3566 -0.6335  0.1667
 1320Sol     HW 9289   3.644   2.560   5.392  0.5049 -1.9598 -1.8857
 1320Sol     MW 9290   3.556   2.540   5.397 -0.0723  0.1531 -0.2712
 1321Sol     OW 9291   2.349   4.068   3.372 -0.2958  0.3551 -0.0392
 1321Sol     HW 9292   2.297   4.046   3.295  0.0575  1.5829 -0.6411
 1321Sol     HW 9293   2.322   4.157   3.395 -0.4362 -0.0237  1.2888
 1321Sol     MW 9294   2.342   4.074   3.367  0.6349 -0.3398  0.3954
 1322Sol     OW 9295   1.928   0.058   2.817  0.0525 -0.4063 -0.6170
 1322Sol     HW 9296   1.846   0.021   2.784  0.5589 -1.3648 -0.8129
 1322Sol     HW 9297   1.984   0.064   2.740  0.8907 -1.7126 -0.1245
 1322Sol     MW 9298   1.926   0.055   2.807  0.1242  0.3727  0.6086
 1323Sol     OW 9299   0.514   1.251   4.268  0.2665  0.2415 -0.0930
 1323Sol     HW 9300   0.471   1.306   4.334 -0.3494 -2.1327  1.5376
 1323Sol     HW 9301   0.447   1.236   4.201 -0.0122  0.2845  0.1796
 1323Sol     MW 9302   0.504   1.255   4.267 -0.0874  0.4695 -0.0315
 1324Sol     OW 9303   3.243   1.021   1.802  0.5507 -0.5975  0.4362
 1324Sol     HW 9304   3.176   1.089   1.796  2.3226  1.1717  0.1541
 1324Sol     HW 9305   3.200   0.942   1.770 -0.9032  0.8670 -1.3063
 1324Sol     MW 9306   3.233   1.020   1.799 -0.8756 -0.4581  0.6973
 1325Sol     OW 9307   1.885   0.518   4.672  0.3916  0.1081 -0.5639
 1325Sol     HW 9308   1.837   0.569   4.737 -0.4938 -0.7238 -0.5492
 1325Sol     HW 9309   1.817   0.488   4.611  0.7111 -2.0649  0.1092
 1325Sol     MW 9310   1.875   0.520   4.672  0.0207 -0.0311 -0.4609
 1326Sol     OW 9311   1.886   3.680   3.308 -0.2458  0.2902  0.4062
 1326Sol     HW 9312   1.796   3.707   3.290  0.1000  1.7416  0.7948
 1326Sol     HW 9313   1.939   3.730   3.246  0.2516 -0.9513 -0.1756
 1326Sol     MW 9314   1.883   3.687   3.301 -0.1502 -0.0480 -0.9818
 1327Sol     OW 9315   1.616   1.611   6.562 -0.5013 -0.3436 -0.0463
 1327Sol     HW 9316   1.586   1.552   6.493 -0.5503 -0.0674 -0.2655
 1327Sol     HW 9317   1.578   1.576   6.643 -1.1045 -0.2172 -0.2692
 1327Sol     MW 9318   1.610   1.603   6.563  0.2986  0.5731  0.0730
 1328Sol     OW 9319   3.803   3.070   2.257 -0.0504  0.2735  0.5265
 1328Sol     HW 9320   3.774   2.990   2.302 -0.7344  1.5074  2.3632
 1328Sol     HW 9321   3.758   3.069   2.173  0.2765 -1.4689  0.3504
 1328Sol     MW 9322   3.797   3.062   2.254  0.0936 -0.0738  0.1602
 1329Sol     OW 9323   2.958   0.953   5.401 -0.6672  0.3237 -0.0297
 1329Sol     HW 9324   2.988   0.943   5.310 -0.6743  1.6101 -0.1795
 1329Sol     HW 9325   3.007   1.028   5.434 -0.5084 -0.2707  1.1088
 1329Sol     MW 9326   2.965   0.959   5.396 -0.1544 -0.1498 -0.4521
 1330Sol     OW 9327   0.910   1.489   5.364 -0.0510 -0.4314  0.4005
 1330Sol     HW 9328   0.911   1.558   5.298 -1.6037 -0.7499  0.0111
 1330Sol     HW 9329   0.905   1.536   5.448 -0.7322 -0.0469  0.1551
 1330Sol     MW 9330   0.909   1.499   5.366 -0.1900 -0.1803 -0.6358
 1331Sol     OW 9331   2.942   0.028   5.567  0.0289 -0.5283 -0.1744
 1331Sol     HW 9332   2.991   0.107   5.543 -0.7225 -0.3275 -1.0804
 1331Sol     HW 9333   3.004  -0.025   5.616  0.6453  0.4769  0.1390
 1331Sol     MW 9334   2.952   0.030   5.569 -0.1352 -0.5859  0.1740
 1332Sol     OW 9335   2.048   2.951   5.929 -0.2273 -0.1488  0.7449
 1332Sol     HW 9336   1.993   3.010   5.981 -1.3024  1.3079 -1.9730
 1332Sol     HW 9337   2.118   2.924   5.990 -1.5700  1.2760  3.0025
 1332Sol     MW 9338   2.049   2.953   5.939  0.4858 -1.0501 -0.4142
 1333Sol     OW 9339   0.767   2.749   1.820 -0.4729 -0.0999  0.1191
 1333Sol     HW 9340   0.842   2.796   1.783 -1.1757  1.3538  0.5130
 1333Sol     HW 9341   0.805   2.674   1.866  0.7673  0.9128  0.7538
 1333Sol     MW 9342   0.777   2.746   1.820 -0.2500  0.4049  0.2039
 1334Sol     OW 9343   0.193   2.222   6.065  0.6017 -0.5043 -0.1323
 1334Sol     HW 9344   0.153   2.178   6.140  1.1081 -1.0989 -0.2077
 1334Sol     HW 9345   0.175   2.314   6.079 -1.2568 -0.7907 -0.4252
 1334Sol     MW 9346   0.188   2.226   6.073  0.3272 -0.5865  0.0624
 1335Sol     OW 9347   1.779   3.911   4.615  0.5227  0.1678 -0.1153
 1335Sol     HW 9348   1.695   3.950   4.640 -0.2576 -0.7695 -1.2429
 1335Sol     HW 9349   1.775   3.822   4.652  0.5986 -0.2102 -1.0089
 1335Sol     MW 9350   1.771   3.906   4.621 -0.4552 -0.2288  0.2113
 1336Sol     OW 9351   3.797   2.664   5.458 -0.3595  0.2317 -0.1163
 1336Sol     HW 9352   3.820   2.700   5.544 -0.2197 -2.6562  1.0850
 1336Sol     HW 9353   3.881   2.648   5.415 -0.2375 -3.3631  1.3600
 1336Sol     MW 9354   3.806   2.666   5.461  0.2690 -0.1113 -0.3129
 1337Sol     OW 9355   0.612   2.318   4.979 -0.0423  0.6653  0.0306
 1337Sol     HW 9356   0.619   2.288   5.070  1.5558 -0.0647 -0.3273
 1337Sol     HW 9357   0.653   2.405   4.980  2.1902 -0.3520 -0.4674
 1337Sol     MW 9358   0.617   2.323   4.988 -1.1006 -0.1508  0.3922
 1338Sol     OW 9359   1.676   0.712   2.920 -0.0987 -0.1593  0.0063
 1338Sol     HW 9360   1.685   0.671   2.834 -0.0376 -0.6073  0.2224
 1338Sol     HW 9361   1.677   0.806   2.902 -0.5340 -0.2552 -0.5267
 1338Sol     MW 9362   1.677   0.717   2.911 -0.2527  0.3373  0.1988
 1339Sol     OW 9363   1.326   3.875   6.421 -0.5828  0.3838 -0.3108
 1339Sol     HW 9364   1.369   3.881   6.335 -3.6156 -2.8178 -2.1910
 1339Sol     HW 9365   1.240   3.916   6.407 -0.9288  0.2655  1.3736
 1339Sol     MW 9366   1.322   3.879   6.412 -0.3432 -0.0444 -0.0934
 1340Sol     OW 9367   2.400   0.300   4.431  0.1871  0.1794  0.1009
 1340Sol     HW 9368   2.405   0.238   4.358  1.1900  0.3695  0.0063
 1340Sol     HW 9369   2.486   0.342   4.433  0.2758 -0.0389  1.5749
 1340Sol     MW 9370   2.408   0.298   4.425 -0.4739  0.3639 -0.1452
 1341Sol     OW 9371   0.136   2.601   6.654 -0.3229 -0.1545  0.7712
 1341Sol     HW 9372   0.186   2.520   6.665 -0.3154 -0.1486  0.7790
 1341Sol     HW 9373   0.200   2.667   6.631  0.1217  0.5563  3.7936
 1341Sol     MW 9374   0.146   2.599   6.653 -0.2941  0.0832 -0.3570
 1342Sol     OW 9375   3.785   4.157   1.866  0.4330  0.0523 -0.0330
 1342Sol     HW 9376   3.817   4.104   1.938  3.1535 -0.0202 -1.1996
 1342Sol     HW 9377   3.752   4.237   1.907 -0.2415 -0.9577  1.4332
 1342Sol     MW 9378   3.785   4.159   1.876 -0.2236  0.2925 -0.7667
 1343Sol     OW 9379   2.976   0.412   2.488  0.1618  0.0433 -0.4776
 1343Sol     HW 9380   2.985   0.493   2.537 -1.9575  0.6921 -1.1001
 1343Sol     HW 9381   2.973   0.344   2.555 -4.6714  1.0766  0.5622
 1343Sol     MW 9382   2.977   0.413   2.498  0.1204  0.6550 -0.2117
 1344Sol     OW 9383   1.441   2.564   5.578 -0.1156 -0.2208 -0.3875
 1344Sol     HW 9384   1.428   2.616   5.499  0.2869 -0.4538 -0.6116
 1344Sol     HW 9385   1.373   2.497   5.575  1.0761 -1.3982 -1.5181
 1344Sol     MW 9386   1.434   2.562   5.571  0.2524 -0.1718 -0.0693
 1345Sol     OW 9387   2.731   1.301   3.972 -0.2816 -0.0286  0.4527
 1345Sol     HW 9388   2.671   1.226   3.967 -1.1335  0.7002 -0.4733
 1345Sol     HW 9389   2.676   1.376   3.949  0.8294  0.7447  0.3260
 1345Sol     MW 9390   2.720   1.301   3.970  0.6458 -0.4044  0.1129
 1346Sol     OW 9391   3.149   0.532   4.158  0.0095 -0.0147  0.7621
 1346Sol     HW 9392   3.122   0.552   4.248 -1.5392 -0.1692  0.3480
 1346Sol     HW 9393   3.067   0.529   4.109  0.9330  1.1746 -0.8891
 1346Sol     MW 9394   3.140   0.533   4.162  0.2910 -1.1445 -0.1562
 1347Sol     OW 9395   1.203   1.265   2.841 -0.3924  0.1125 -0.3268
 1347Sol     HW 9396   1.220   1.319   2.918  0.9387 -0.4216 -0.2413
 1347Sol     HW 9397   1.181   1.179   2.875 -1.8048  0.3834 -0.4923
 1347Sol     MW 9398   1.202   1.262   2.851 -0.0841 -0.1794 -0.1502
 1348Sol     OW 9399   1.111   0.114   6.817  0.2548  0.5356 -0.0976
 1348Sol     HW 9400   1.142   0.040   6.764 -0.2571  0.0460  0.2817
 1348Sol     HW 9401   1.180   0.128   6.882 -0.2793 -0.5078  0.7044
 1348Sol     MW 9402   1.120   0.108   6.818  0.0288 -1.0822  0.0318
 1349Sol     OW 9403   1.126   2.190   5.432 -0.3633 -0.0822  0.9521
 1349Sol     HW 9404   1.155   2.254   5.496 -0.5232 -0.6069  1.5528
 1349Sol     HW 9405   1.099   2.114   5.484  0.9027 -1.0703  0.2172
 1349Sol     MW 9406   1.126   2.189   5.442 -0.3664  0.0433  0.5845
 1350Sol     OW 9407   3.754   0.691   7.008  0.4559 -0.3001  0.9144
 1350Sol     HW 9408   3.714   0.607   6.984  0.7963 -0.4406  0.8303
 1350Sol     HW 9409   3.788   0.676   7.096  1.2559 -0.5129  0.5706
 1350Sol     MW 9410   3.753   0.682   7.013  0.0806  0.2276 -0.0313
 1351Sol     OW 9411   3.190   1.836   3.542  0.1868 -0.1346  0.4652
 1351Sol     HW 9412   3.129   1.784   3.489  2.0952 -0.1865 -1.7622
 1351Sol     HW 9413   3.276   1.813   3.507  1.1993  3.0062  0.8022
 1351Sol     MW 9414   3.192   1.829   3.534  0.0514 -0.6314 -0.1899
 1352Sol     OW 9415   2.195   0.495   5.477  0.0497  0.0765  0.8089
 1352Sol     HW 9416   2.289   0.507   5.467 -0.1318  1.2541  0.4250
 1352Sol     HW 9417   2.158   0.583   5.463 -1.1323 -0.4603  0.4889
 1352Sol     MW 9418   2.200   0.504   5.474 -0.7038  0.4413  0.5592
 1353Sol     OW 9419   2.041   2.605   3.561  0.8304  0.0812  0.1098
 1353Sol     HW 9420   2.023   2.536   3.625 -0.3501 -0.9814 -1.3431
 1353Sol     HW 9421   1.982   2.676   3.584 -1.1359 -1.1353 -1.0881
 1353Sol     MW 9422   2.034   2.605   3.568 -0.2309 -0.5211 -0.2231
 1354Sol     OW 9423   0.165   2.795   4.801  0.0378 -0.3185 -0.0205
 1354Sol     HW 9424   0.198   2.708   4.822 -0.1999 -0.3429  0.2532
 1354Sol     HW 9425   0.233   2.834   4.744 -0.0444 -0.8257 -0.4686
 1354Sol     MW 9426   0.174   2.791   4.798  0.0622 -0.2418 -0.0726
 1355Sol     OW 9427   0.392   3.375   6.310 -0.3614  0.4842 -0.2675
 1355Sol     HW 9428   0.383   3.399   6.218  1.5540  0.1823 -0.5499
 1355Sol     HW 9429   0.403   3.280   6.309 -0.3824  0.4757  0.2854
 1355Sol     MW 9430   0.392   3.368   6.302 -0.6547  0.0035 -0.0133
 1356Sol     OW 9431   0.555   0.952   3.336 -0.1436 -0.2858  0.5228
 1356Sol     HW 9432   0.551   1.047   3.326 -0.4366 -0.3422  0.0606
 1356Sol     HW 9433   0.636   0.926   3.292  0.0673 -0.2191  0.8780
 1356Sol     MW 9434   0.562   0.958   3.331 -0.0243 -0.2654  0.0588
 1357Sol     OW 9435   4.037   0.154   2.363 -0.1531 -0.3254 -0.0594
 1357Sol     HW 9436   3.994   0.237   2.345  1.1589  0.2854 -0.4339
 1357Sol     HW 9437   4.130   0.175   2.368  0.3640 -2.0316 -1.7633
 1357Sol     MW 9438   4.042   0.163   2.362  1.2078  0.1425  0.3689
 1358Sol     OW 9439   3.700   0.277   1.483  0.1919 -0.2686  0.4675
 1358Sol     HW 9440   3.649   0.211   1.435  0.0440 -0.4657  0.8827
 1358Sol     HW 9441   3.709   0.350   1.423  1.3892 -1.1454 -0.4410
 1358Sol     MW 9442   3.696   0.277   1.473  0.0377  0.9459  0.4478
 1359Sol     OW 9443   0.442   0.841   6.296 -0.2151 -0.3392 -0.3951
 1359Sol     HW 9444   0.526   0.811   6.260  0.9011  0.3626  1.5571
 1359Sol     HW 9445   0.433   0.930   6.263  0.2941 -0.0664  0.1962
 1359Sol     MW 9446   0.449   0.846   6.290 -0.0489  0.0333 -0.6230
 1360Sol     OW 9447   1.373   2.729   5.350  0.0271  0.7868  0.4083
 1360Sol     HW 9448   1.329   2.809   5.320  0.4081  0.6691 -0.4892
 1360Sol     HW 9449   1.445   2.717   5.288 -1.5131 -1.6457 -0.9902
 1360Sol     MW 9450   1.375   2.736   5.342  0.4247 -0.2052  0.0275
 1361Sol     OW 9451   0.964   0.038   1.735  0.3615 -0.3252  0.0494
 1361Sol     HW 9452   0.885  -0.013   1.753 -1.9760  2.7364 -1.0799
 1361Sol     HW 9453   0.989   0.074   1.820 -0.9364  0.6830  0.0232
 1361Sol     MW 9454   0.959   0.037   1.744 -0.0347 -0.5694  0.1814
 1362Sol     OW 9455   2.830   2.177   1.171  0.2676  0.1322 -0.2867
 1362Sol     HW 9456   2.851   2.165   1.078  0.1743  1.6677 -0.5071
 1362Sol     HW 9457   2.737   2.155   1.177  0.4658 -0.7874 -0.3880
 1362Sol     MW 9458   2.824   2.174   1.163  1.3052  0.2037 -0.0059
 1363Sol     OW 9459   1.976   3.026   1.617  0.4383 -0.1722  0.5036
 1363Sol     HW 9460   1.892   2.993   1.649 -0.4275 -0.9382 -2.4035
 1363Sol     HW 9461   2.042   2.971   1.659 -0.4412  0.6729  3.0963
 1363Sol     MW 9462   1.974   3.018   1.624  0.2173  0.6244  0.0509
 1364Sol     OW 9463   3.244   3.902   4.266  0.0096  0.0272 -0.1738
 1364Sol     HW 9464   3.234   3.996   4.250 -0.5794  0.3684  2.0173
 1364Sol     HW 9465   3.338   3.890   4.281 -0.0457  0.4419  0.5152
 1364Sol     MW 9466   3.252   3.909   4.266 -0.2650 -0.6794  0.6461
 1365Sol     OW 9467   3.832   0.543   4.993 -0.3305  0.5527 -0.2004
 1365Sol     HW 9468   3.909   0.518   5.044 -0.2032  0.7098 -0.3110
 1365Sol     HW 9469   3.761   0.548   5.057 -0.3194  0.0901 -0.1488
 1365Sol     MW 9470   3.833   0.541   5.003 -0.1453  0.3520  0.4568
 1366Sol     OW 9471   4.046   3.524   5.373 -0.1324  0.4514 -0.1666
 1366Sol     HW 9472   4.051   3.619   5.362  0.1455  0.4390 -0.1575
 1366Sol     HW 9473   4.070   3.488   5.287 -0.5514  0.3923 -0.2607
 1366Sol     MW 9474   4.049   3.529   5.364 -0.5718  0.4355  0.1609
 1367Sol     OW 9475   1.723   1.854   4.202  0.6423 -0.2150  0.3922
 1367Sol     HW 9476   1.723   1.868   4.107  0.5680 -3.6390 -0.1656
 1367Sol     HW 9477   1.813   1.828   4.222  1.0303  1.8647  1.5433
 1367Sol     MW 9478   1.731   1.853   4.195 -0.0418  0.0736 -0.1118
 1368Sol     OW 9479   1.684   4.024   6.199  0.2598  0.5489 -0.2768
 1368Sol     HW 9480   1.729   3.941   6.212  1.0340  1.1529  0.9499
 1368Sol     HW 9481   1.705   4.050   6.109  1.3176  0.2100 -0.1242
 1368Sol     MW 9482   1.690   4.019   6.192  0.6918 -0.6943 -0.2117
 1369Sol     OW 9483   0.104   3.491   2.524 -0.2717  0.1426 -0.0810
 1369Sol     HW 9484   0.157   3.571   2.519  1.1406 -0.7644  0.1129
 1369Sol     HW 9485   0.102   3.469   2.617  1.0626 -1.1753 -0.3595
 1369Sol     MW 9486   0.109   3.496   2.532  0.4380  0.2869  0.5893
 1370Sol     OW 9487   2.832   2.939   3.348 -0.0407  0.0237  0.1215
 1370Sol     HW 9488   2.915   2.965   3.310  0.0292 -1.7572 -0.9942
 1370Sol     HW 9489   2.826   2.988   3.430  1.1876  1.6341 -0.7404
 1370Sol     MW 9490   2.839   2.946   3.352  0.7821  0.2552  0.3772
 1371Sol     OW 9491   0.861   3.045   3.901 -0.4873  0.2647 -0.1654
 1371Sol     HW 9492   0.946   3.003   3.889 -0.9907 -0.3762 -1.6959
 1371Sol     HW 9493   0.799   2.986   3.858 -1.6968  0.7764  0.8351
 1371Sol     MW 9494   0.863   3.036   3.896  0.2625  0.2076 -0.8396
 1372Sol     OW 9495   2.885   1.063   3.003 -0.4006  0.4651  0.0186
 1372Sol     HW 9496   2.894   1.019   3.087  2.1587  1.2100  0.1800
 1372Sol     HW 9497   2.953   1.025   2.948  0.4088  2.5954 -0.5336
 1372Sol     MW 9498   2.892   1.056   3.006  0.1015 -0.3189  0.1952
 1373Sol     OW 9499   3.713   3.386   2.589 -0.0818  0.2898  0.2485
 1373Sol     HW 9500   3.646   3.450   2.563  0.3031  0.3791 -0.5476
 1373Sol     HW 9501   3.794   3.436   2.595  0.0841  0.0144  0.3213
 1373Sol     MW 9502   3.714   3.396   2.587 -0.6158 -0.2742 -0.7876
 1374Sol     OW 9503   4.001   2.860   2.243  0.1570  0.3976 -0.0890
 1374Sol     HW 9504   3.959   2.945   2.257  0.1575  0.2046  1.1890
 1374Sol     HW 9505   4.074   2.878   2.184  1.2514  1.6150  1.5851
 1374Sol     MW 9506   4.004   2.869   2.239 -0.4324  0.3717  0.5440
 1375Sol     OW 9507   3.352   3.453   2.705  0.4507  0.4410 -0.3045
 1375Sol     HW 9508   3.307   3.431   2.623  0.4805 -0.9606  0.0368
 1375Sol     HW 9509   3.416   3.382   2.717  1.9654  1.8055 -0.1925
 1375Sol     MW 9510   3.354   3.445   2.699 -0.0110 -0.4837  0.4316
 1376Sol     OW 9511   0.136   0.761   3.705 -0.1249  0.0178 -0.3404
 1376Sol     HW 9512   0.099   0.847   3.684 -2.3594 -0.8326 -0.0548
 1376Sol     HW 9513   0.153   0.765   3.799 -3.0108 -0.7995  0.2796
 1376Sol     MW 9514   0.134   0.769   3.711 -0.3208  0.4560 -0.0096
 1377Sol     OW 9515   2.988   0.278   1.887 -0.4002  0.2293  0.0900
 1377Sol     HW 9516   2.964   0.255   1.797  0.5906  0.9590 -0.3771
 1377Sol     HW 9517   2.936   0.220   1.942 -1.6105  0.3230 -0.9438
 1377Sol     MW 9518   2.982   0.271   1.884  0.7783 -0.0012 -0.6953
 1378Sol     OW 9519   3.406   3.294   4.553  0.1383  0.3091  0.4671
 1378Sol     HW 9520   3.373   3.234   4.486 -1.8864 -0.3969  2.0363
 1378Sol     HW 9521   3.497   3.267   4.566  0.2355 -0.2521 -1.2001
 1378Sol     MW 9522   3.411   3.286   4.548 -0.6944  0.5268 -0.3728
 1379Sol     OW 9523   1.362   1.768   2.317 -0.0771 -0.8222 -0.1662
 1379Sol     HW 9524   1.370   1.811   2.232 -3.7257 -0.3454 -0.3612
 1379Sol     HW 9525   1.339   1.678   2.297 -0.3510 -0.8534  0.2742
 1379Sol     MW 9526   1.360   1.764   2.308 -0.0138 -0.0771 -0.0760
 1380Sol     OW 9527   2.817   0.874   2.173 -0.3538 -0.4298 -0.1753
 1380Sol     HW 9528   2.728   0.840   2.161 -0.4225  0.4416 -2.3229
 1380Sol     HW 9529   2.806   0.953   2.225 -0.5854 -1.6311  1.6114
 1380Sol     MW 9530   2.808   0.878   2.176 -0.0212 -0.0184 -0.6189
 1381Sol     OW 9531   1.026   2.546   3.514 -0.1650  0.4206  0.1169
 1381Sol     HW 9532   1.042   2.479   3.581 -0.7462  0.9661  0.8076
 1381Sol     HW 9533   1.009   2.626   3.564  0.3835  1.0537 -0.7001
 1381Sol     MW 9534   1.026   2.547   3.525  0.2255  0.0781 -0.8101
 1382Sol     OW 9535   0.064   3.194   2.213 -0.3901 -0.1006  0.4565
 1382Sol     HW 9536   0.015   3.247   2.150  0.9993  1.7763  0.9118
 1382Sol     HW 9537   0.005   3.185   2.288  0.2315  2.9469  1.3918
 1382Sol     MW 9538   0.054   3.198   2.214 -0.1225  0.2605  0.0501
 1383Sol     OW 9539   2.240   0.516   2.975 -0.2198 -0.5228 -0.7663
 1383Sol     HW 9540   2.276   0.487   3.059 -0.0485 -0.4231 -0.8057
 1383Sol     HW 9541   2.212   0.606   2.991 -0.9584 -0.7770 -0.5797
 1383Sol     MW 9542   2.240   0.521   2.984 -0.1224 -0.1039  0.5740
 1384Sol     OW 9543   1.062   3.900   4.647  0.5051  0.1973  0.1334
 1384Sol     HW 9544   1.107   3.833   4.697  0.8403  0.0981 -0.2958
 1384Sol     HW 9545   1.130   3.938   4.591 -0.4498 -1.7284 -2.4006
 1384Sol     MW 9546   1.072   3.898   4.646 -0.7055  0.2923 -0.4575
 1385Sol     OW 9547   0.546   3.679   3.319 -0.1740  0.0288 -0.1075
 1385Sol     HW 9548   0.583   3.598   3.354 -0.4101  0.4749  1.2030
 1385Sol     HW 9549   0.496   3.651   3.243  1.5092 -0.7881 -0.9354
 1385Sol     MW 9550   0.545   3.669   3.316 -0.7124 -0.1135  0.5028
 1386Sol     OW 9551   0.547   0.917   5.348 -0.6543 -0.0807 -0.7319
 1386Sol     HW 9552   0.483   0.883   5.285  0.8596 -2.8691 -0.8541
 1386Sol     HW 9553   0.619   0.950   5.294  0.0256 -1.1934 -0.5259
 1386Sol     MW 9554   0.548   0.917   5.337  0.1057 -0.3913  0.0973
 1387Sol     OW 9555   3.705   2.904   6.782 -0.3445  0.3150  0.1751
 1387Sol     HW 9556   3.755   2.977   6.819 -0.8832 -0.0756  1.7174
 1387Sol     HW 9557   3.770   2.835   6.769 -0.0118  0.7223 -0.3633
 1387Sol     MW 9558   3.716   2.904   6.784  0.6680  0.3410 -1.1511
 1388Sol     OW 9559   2.567   4.164   4.543  0.7211 -0.2254  0.1452
 1388Sol     HW 9560   2.621   4.196   4.471  1.1717 -1.8171 -0.2544
 1388Sol     HW 9561   2.549   4.072   4.520 -0.9476 -0.1192  0.9874
 1388Sol     MW 9562   2.570   4.158   4.535  0.0127  0.7362  0.3636
 1389Sol     OW 9563   2.556   1.604   5.498 -0.1928  0.0228  0.0632
 1389Sol     HW 9564   2.623   1.573   5.559  0.1052  0.6287  0.0515
 1389Sol     HW 9565   2.519   1.524   5.461 -1.2379 -0.3878  1.9507
 1389Sol     MW 9566   2.559   1.594   5.500 -0.4965 -0.2973  0.3711
 1390Sol     OW 9567   0.704   3.689   1.748  0.7637  0.3225 -0.2866
 1390Sol     HW 9568   0.630   3.656   1.799  0.7439 -0.3882 -0.7614
 1390Sol     HW 9569   0.749   3.610   1.718  0.5013  0.7198 -1.7674
 1390Sol     MW 9570   0.702   3.679   1.750  0.6231  0.0755  0.4372
 1391Sol     OW 9571   3.453   1.216   2.287 -0.0147 -0.0774  0.2814
 1391Sol     HW 9572   3.431   1.165   2.365  0.6727  0.2862  0.7237
 1391Sol     HW 9573   3.512   1.284   2.319  0.3287  0.0347 -0.5722
 1391Sol     MW 9574   3.457   1.218   2.297  0.8455 -0.3405 -0.2794
 1392Sol     OW 9575   1.392   0.465   3.501 -0.3596  0.0616 -0.5976
 1392Sol     HW 9576   1.430   0.501   3.582 -1.1462  1.8001 -0.9737
 1392Sol     HW 9577   1.468   0.447   3.445  0.0694  1.0806 -0.3658
 1392Sol     MW 9578   1.403   0.467   3.504  0.3186 -0.0267 -0.0231
 1393Sol     OW 9579   4.019   3.432   5.080 -0.0563  0.6047  0.3245
 1393Sol     HW 9580   3.929   3.404   5.064  0.5688 -0.6705 -1.0484
 1393Sol     HW 9581   4.032   3.507   5.022 -0.4721  1.3066  1.1194
 1393Sol     MW 9582   4.012   3.436   5.073  0.5621 -0.5912  0.5432
 1394Sol     OW 9583   0.728   3.163   5.486  0.2764 -0.3026  0.1050
 1394Sol     HW 9584   0.678   3.153   5.567  0.5237  0.0079  0.2961
 1394Sol     HW 9585   0.693   3.243   5.446 -0.8261 -1.2239 -0.7990
 1394Sol     MW 9586   0.720   3.170   5.490  0.0176 -0.2837  0.2578
 1395Sol     OW 9587   0.059   1.919   1.968 -0.2169  0.2732  0.1625
 1395Sol     HW 9588   0.030   1.960   1.886 -0.2283 -0.7680 -0.3597
 1395Sol     HW 9589   0.007   1.840   1.975  0.7872 -0.3686  0.4529
 1395Sol     MW 9590   0.052   1.916   1.961 -0.2520  0.2066  0.0387
 1396Sol     OW 9591   3.337   0.345   3.955 -0.0032  0.1577 -0.4142
 1396Sol     HW 9592   3.242   0.359   3.951 -0.3134 -1.7602  0.0482
 1396Sol     HW 9593   3.373   0.418   3.904 -1.8032 -0.0436 -2.0424
 1396Sol     MW 9594   3.332   0.353   3.950  0.2428  0.5468 -0.0579
 1397Sol     OW 9595   3.611   2.789   3.473 -0.4357  0.6792  0.0338
 1397Sol     HW 9596   3.586   2.742   3.553  1.5035 -1.3310 -0.4771
 1397Sol     HW 9597   3.612   2.721   3.405 -0.2852  2.0104 -1.3068
 1397Sol     MW 9598   3.609   2.778   3.474  0.2848 -0.7033  0.3057
 1398Sol     OW 9599   3.027   3.327   6.390  0.1964 -0.0254 -0.0274
 1398Sol     HW 9600   3.079   3.256   6.427 -0.2898 -0.5112 -0.2805
 1398Sol     HW 9601   2.976   3.286   6.320 -0.4629  0.4721  0.1556
 1398Sol     MW 9602   3.027   3.317   6.387  0.0260  0.6162  0.4619
 1399Sol     OW 9603   0.411   1.697   3.064 -0.1920 -0.1261  0.1297
 1399Sol     HW 9604   0.359   1.753   3.007  1.2874  0.1001 -1.0279
 1399Sol     HW 9605   0.432   1.752   3.139 -0.1125  0.3652 -0.2464
 1399Sol     MW 9606   0.408   1.707   3.065  0.0620 -0.3708  0.2962
 1400Sol     OW 9607   0.987   4.006   3.958 -0.2305 -0.1592 -0.1562
 1400Sol     HW 9608   0.961   3.991   3.867 -1.5103  0.0086  0.1709
 1400Sol     HW 9609   0.925   3.954   4.009 -0.5536  1.0364  0.6876
 1400Sol     MW 9610   0.979   4.000   3.954 -0.2530  0.6939 -0.7902
 1401Sol     OW 9611   1.489   0.610   2.489 -0.4515  0.4577 -0.5161
 1401Sol     HW 9612   1.546   0.651   2.424 -1.2473  1.4727 -0.5844
 1401Sol     HW 9613   1.482   0.519   2.460 -0.7795  0.8923 -1.8454
 1401Sol     MW 9614   1.493   0.605   2.480  0.4371  0.0973  0.2085
 1402Sol     OW 9615   0.849   0.485   6.625  0.3610  0.3899  0.3655
 1402Sol     HW 9616   0.790   0.412   6.643 -1.1007  1.3614 -0.3833
 1402Sol     HW 9617   0.886   0.508   6.710 -0.8064  0.1644  0.9329
 1402Sol     MW 9618   0.847   0.481   6.634  0.2905 -0.0473  0.2099
 1403Sol     OW 9619   0.902   1.991   1.799 -0.4710  0.1790  0.0125
 1403Sol     HW 9620   0.815   2.015   1.828 -0.0927  0.9843  0.4841
 1403Sol     HW 9621   0.960   2.054   1.842  0.2762  0.0689 -0.8315
 1403Sol     MW 9622   0.900   1.999   1.806 -0.1071 -0.7268 -0.2693
 1404Sol     OW 9623   0.549   3.099   6.048  0.5208 -0.2648 -0.2793
 1404Sol     HW 9624   0.470   3.050   6.022  0.9413 -0.8346 -0.4935
 1404Sol     HW 9625   0.548   3.096   6.143  0.0512  0.1069 -0.2660
 1404Sol     MW 9626   0.541   3.094   6.054  0.0922  0.3149  0.3972
 1405Sol     OW 9627   3.617   3.948   3.143 -0.5393 -0.1191 -0.1534
 1405Sol     HW 9628   3.563   3.874   3.114 -1.0240  0.7180 -1.4501
 1405Sol     HW 9629   3.705   3.927   3.111  0.0386 -1.6584  2.2716
 1405Sol     MW 9630   3.620   3.939   3.137  1.1658  0.0865  0.5800
 1406Sol     OW 9631   2.273   1.282   5.616 -0.4042 -0.1041  0.3368
 1406Sol     HW 9632   2.345   1.280   5.678 -0.4295 -0.7488  0.3506
 1406Sol     HW 9633   2.197   1.311   5.668 -0.3359 -0.2346  0.5086
 1406Sol     MW 9634   2.272   1.284   5.626 -0.2277  0.1097  1.0706
 1407Sol     OW 9635   2.472   0.436   5.459  0.6010  0.7553 -0.4975
 1407Sol     HW 9636   2.490   0.390   5.542 -1.3594 -1.5503 -1.3009
 1407Sol     HW 9637   2.531   0.511   5.461  0.4775  0.8661  3.0860
 1407Sol     MW 9638   2.479   0.439   5.467  0.1614 -0.0472 -0.5279
 1408Sol     OW 9639   2.316   4.054   5.798  0.1056 -0.3388  0.0854
 1408Sol     HW 9640   2.383   4.010   5.745 -0.0353  0.0807 -0.4462
 1408Sol     HW 9641   2.234   4.011   5.774  0.2861 -1.4557  1.3883
 1408Sol     MW 9642   2.315   4.046   5.791  0.0038  0.1768 -0.2283
 1409Sol     OW 9643   2.776   3.974   2.319  0.5204 -0.2287  0.0962
 1409Sol     HW 9644   2.784   3.910   2.249 -2.4949 -0.4714 -0.0621
 1409Sol     HW 9645   2.844   3.949   2.382  1.2710 -1.8204 -1.3062
 1409Sol     MW 9646   2.783   3.966   2.318  0.1212  0.0034  0.0982
 1410Sol     OW 9647   2.645   1.576   3.021 -0.1990 -0.2166 -0.3924
 1410Sol     HW 9648   2.601   1.539   2.945 -0.6191  2.7961 -1.6834
 1410Sol     HW 9649   2.738   1.574   2.997  0.0571 -2.6401  0.5918
 1410Sol     MW 9650   2.650   1.572   3.012  0.0387 -0.1297 -0.2716
 1411Sol     OW 9651   0.750   0.827   5.505 -0.1158  0.5647 -0.2948
 1411Sol     HW 9652   0.679   0.878   5.466 -0.2428  0.2880 -0.4251
 1411Sol     HW 9653   0.720   0.808   5.594 -1.3219 -1.7270 -1.1592
 1411Sol     MW 9654   0.741   0.830   5.509  0.5525 -0.1117 -0.0693
 1412Sol     OW 9655   3.498   3.350   2.999  0.3994 -0.1058 -0.5415
 1412Sol     HW 9656   3.503   3.413   2.927 -0.7873  0.0633 -0.4952
 1412Sol     HW 9657   3.433   3.286   2.970  1.6263 -1.3478 -0.6091
 1412Sol     MW 9658   3.492   3.350   2.990 -0.0386  1.0759 -0.2654
 1413Sol     OW 9659   1.243   1.767   6.016 -0.1049 -0.1580 -0.5549
 1413Sol     HW 9660   1.220   1.818   5.939 -0.8010 -0.2058 -0.3785
 1413Sol     HW 9661   1.266   1.832   6.082 -0.4108 -0.0947 -0.5131
 1413Sol     MW 9662   1.243   1.777   6.015 -0.6153 -0.6463  0.4579
 1414Sol     OW 9663   3.396   4.115   2.532 -0.1833 -0.0445  0.4116
 1414Sol     HW 9664   3.411   4.194   2.585  0.8932 -0.3133  0.5140
 1414Sol     HW 9665   3.483   4.083   2.512 -0.5815 -0.0471 -1.3998
 1414Sol     MW 9666   3.405   4.120   2.535 -0.1769  0.4869 -0.0374
 1415Sol     OW 9667   3.672   0.736   6.756  0.1494 -0.4124 -0.1344
 1415Sol     HW 9668   3.730   0.708   6.686  1.8338 -2.3314  1.9377
 1415Sol     HW 9669   3.717   0.712   6.836 -2.6678 -0.2099  1.6088
 1415Sol     MW 9670   3.681   0.732   6.757 -0.3571  0.3966  0.2852
 1416Sol     OW 9671   0.952   0.523   4.014 -0.4622 -0.1155  0.1398
 1416Sol     HW 9672   0.969   0.610   4.051 -2.4553  0.0723  0.6434
 1416Sol     HW 9673   0.869   0.496   4.053  1.1774 -3.1789  1.6960
 1416Sol     MW 9674   0.946   0.528   4.021  0.5204 -0.2821 -0.7933
 1417Sol     OW 9675   1.054   3.184   1.966  0.4764 -0.5724 -0.0168
 1417Sol     HW 9676   1.071   3.091   1.982  0.9177 -0.4846  0.0260
 1417Sol     HW 9677   1.079   3.198   1.874 -1.0375 -0.8351 -0.4853
 1417Sol     MW 9678   1.058   3.177   1.959 -0.4968  0.2873  0.0890
 1418Sol     OW 9679   2.711   0.182   3.285  0.0754 -0.1629 -0.2682
 1418Sol     HW 9680   2.721   0.200   3.378  2.1743  0.4350 -0.5680
 1418Sol     HW 9681   2.764   0.104   3.270  0.2680  0.1123 -1.0573
 1418Sol     MW 9682   2.717   0.177   3.292  0.4270  0.8400  0.3556
 1419Sol     OW 9683   2.928   3.777   3.244 -0.0778 -0.0375 -0.4547
 1419Sol     HW 9684   2.959   3.719   3.174  2.7015  1.0732 -0.2058
 1419Sol     HW 9685   2.910   3.718   3.318 -4.3934 -1.3974 -2.4255
 1419Sol     MW 9686   2.929   3.766   3.245 -0.2877 -0.2393  0.3161
 1420Sol     OW 9687   2.327   0.629   4.472  0.0305 -0.0944 -0.1881
 1420Sol     HW 9688   2.324   0.556   4.410  0.5464  0.4252 -0.8394
 1420Sol     HW 9689   2.249   0.619   4.525  0.3701 -1.4438  0.0914
 1420Sol     MW 9690   2.320   0.621   4.471  0.1261  0.3514 -0.3024
 1421Sol     OW 9691   3.853   2.962   4.495 -0.2806  0.0360  0.2222
 1421Sol     HW 9692   3.815   2.882   4.461  0.2335 -0.4955  0.8721
 1421Sol     HW 9693   3.892   3.005   4.419  0.7551 -1.0788  0.1133
 1421Sol     MW 9694   3.853   2.959   4.485  0.2708 -0.4178 -0.1697
 1422Sol     OW 9695   2.316   3.385   3.722 -0.5719  0.1794  0.5700
 1422Sol     HW 9696   2.390   3.327   3.706 -0.4994  0.8580 -1.8206
 1422Sol     HW 9697   2.259   3.373   3.646 -2.4399  0.4139  1.8787
 1422Sol     MW 9698   2.317   3.379   3.714 -0.2510  0.3715 -0.8553
 1423Sol     OW 9699   0.733   3.542   2.954 -0.0446 -0.0111  0.2942
 1423Sol     HW 9700   0.665   3.569   3.016  1.2859 -2.5334  2.9675
 1423Sol     HW 9701   0.691   3.476   2.899 -0.6222  0.6992 -0.1288
 1423Sol     MW 9702   0.723   3.539   2.955 -0.5525  0.1025  0.3230
 1424Sol     OW 9703   0.118   1.401   4.959 -0.2288  0.2174  0.1070
 1424Sol     HW 9704   0.168   1.340   5.013 -0.8894 -0.5707 -0.1564
 1424Sol     HW 9705   0.185   1.455   4.916  0.3019  0.7110  1.5391
 1424Sol     MW 9706   0.129   1.401   4.960 -0.1702 -0.0415  0.1501
 1425Sol     OW 9707   0.740   0.991   6.076  0.2987 -0.2744 -0.0809
 1425Sol     HW 9708   0.689   1.023   6.001  0.5163 -0.1361 -0.1717
 1425Sol     HW 9709   0.688   0.919   6.111 -0.2672  0.2682  0.2116
 1425Sol     MW 9710   0.730   0.988   6.072 -0.4340  0.3904  0.1351
 1426Sol     OW 9711   0.450   1.052   5.572  0.2609 -0.3557 -0.3490
 1426Sol     HW 9712   0.370   1.104   5.565  0.8668  0.6163 -0.1600
 1426Sol     HW 9713   0.471   1.028   5.482 -0.3310 -0.7349 -0.3821
 1426Sol     MW 9714   0.445   1.055   5.564 -0.4034 -0.3015  0.3105
 1427Sol     OW 9715   3.142   0.590   4.979  0.1981 -0.1162  0.2295
 1427Sol     HW 9716   3.217   0.530   4.975 -0.2797 -1.0808  3.8838
 1427Sol     HW 9717   3.160   0.645   5.056 -2.7750 -0.2936  1.1205
 1427Sol     MW 9718   3.151   0.590   4.986  0.4279 -0.1328 -0.2255
 1428Sol     OW 9719   1.393   4.112   1.912  0.1104  0.3440 -0.4121
 1428Sol     HW 9720   1.301   4.088   1.899 -0.3378  1.0964  1.1547
 1428Sol     HW 9721   1.442   4.031   1.896 -0.8964 -0.2628 -0.4666
 1428Sol     MW 9722   1.389   4.103   1.910 -0.1326 -0.1515 -0.2465
 1429Sol     OW 9723   1.341   1.435   2.367 -0.2282  0.2185 -0.1203
 1429Sol     HW 9724   1.414   1.382   2.397  1.1170  1.2629 -1.4812
 1429Sol     HW 9725   1.286   1.447   2.444  0.8833 -0.8183  0.8412
 1429Sol     MW 9726   1.342   1.431   2.376  0.0268  0.0005  0.5560
 1430Sol     OW 9727   3.649   3.169   4.581 -0.0969 -0.5364  0.1418
 1430Sol     HW 9728   3.700   3.101   4.537 -0.7607  0.9381 -3.0341
 1430Sol     HW 9729   3.713   3.215   4.636  0.8905 -2.0373  0.2670
 1430Sol     MW 9730   3.659   3.167   4.582  0.1344  0.1831  0.2738
 1431Sol     OW 9731   3.246   0.387   3.582 -0.0794 -0.3298 -0.2206
 1431Sol     HW 9732   3.340   0.390   3.598 -0.2090 -0.7473  0.6586
 1431Sol     HW 9733   3.229   0.459   3.521  0.6219  0.5531  0.6109
 1431Sol     MW 9734   3.253   0.393   3.578 -0.3749 -0.2709  0.7793
 1432Sol     OW 9735   3.456   1.333   3.396 -0.1745 -0.5634 -0.2397
 1432Sol     HW 9736   3.432   1.249   3.358  0.5439  0.1394 -2.3458
 1432Sol     HW 9737   3.508   1.376   3.328 -0.1642  1.4078  0.9639
 1432Sol     MW 9738   3.459   1.330   3.387  0.8839  0.2048 -0.3348
 1433Sol     OW 9739   1.212   3.327   2.149  0.2086  0.6240 -0.3878
 1433Sol     HW 9740   1.270   3.256   2.175  1.2840  1.6613  0.1100
 1433Sol     HW 9741   1.140   3.284   2.102 -0.3632 -1.0075  1.8983
 1433Sol     MW 9742   1.211   3.317   2.147 -0.2833 -0.4260  0.3539
 1434Sol     OW 9743   3.106   2.081   5.690  0.4698  0.3004  0.3350
 1434Sol     HW 9744   3.114   1.986   5.679  1.6400  0.2468  1.5803
 1434Sol     HW 9745   3.165   2.102   5.761 -0.5910  1.8361  0.7836
 1434Sol     MW 9746   3.112   2.074   5.695  0.1378  0.2088 -0.0943
 1435Sol     OW 9747   1.303   1.684   3.420 -0.3607  0.6681 -0.4309
 1435Sol     HW 9748   1.319   1.597   3.454  0.2984  1.0583  0.2674
 1435Sol     HW 9749   1.381   1.705   3.369  0.6827  1.8902  1.5855
 1435Sol     MW 9750   1.311   1.678   3.419 -0.6202  0.0478  0.0296
 1436Sol     OW 9751   1.168   0.860   5.995  0.4914 -0.2304 -0.1905
 1436Sol     HW 9752   1.190   0.954   5.996 -2.1801  0.4309  0.1388
 1436Sol     HW 9753   1.198   0.829   6.081  0.5405  0.5422  0.0845
 1436Sol     MW 9754   1.173   0.866   6.003 -0.1369 -0.5706 -0.2524
 1437Sol     OW 9755   3.667   0.553   4.092  0.7641  0.3208  0.7652
 1437Sol     HW 9756   3.587   0.599   4.118  0.5350  0.7176 -0.5831
 1437Sol     HW 9757   3.689   0.498   4.167 -2.0062 -1.4530  0.3310
 1437Sol     MW 9758   3.662   0.553   4.101  0.5721 -0.1926 -0.0509
 1438Sol     OW 9759   3.453   3.567   3.521 -0.6389  0.1977 -0.3709
 1438Sol     HW 9760   3.547   3.582   3.515 -0.3228 -0.6277  2.0607
 1438Sol     HW 9761   3.413   3.648   3.487  0.9117  0.5085 -1.5097
 1438Sol     MW 9762   3.458   3.576   3.517  0.1653  0.6132  0.2744
 1439Sol     OW 9763   2.239   2.950   4.545 -0.1536 -0.1688 -0.7279
 1439Sol     HW 9764   2.211   2.865   4.510 -1.1881 -0.3367  0.4640
 1439Sol     HW 9765   2.163   3.007   4.535  0.6734  0.7304 -1.8838
 1439Sol     MW 9766   2.230   2.947   4.541 -0.2196  0.0406 -0.4791
 1440Sol     OW 9767   1.229   0.750   6.224  0.9004 -0.4449  0.3539
 1440Sol     HW 9768   1.322   0.764   6.239  1.2427 -2.0884 -0.1151
 1440Sol     HW 9769   1.201   0.693   6.295  0.4239 -0.5595  0.0788
 1440Sol     MW 9770   1.235   0.746   6.232  0.3154  0.3148  0.3474
 1441Sol     OW 9771   0.209   2.455   5.425 -0.0474  0.1191 -0.5792
 1441Sol     HW 9772   0.121   2.458   5.463  0.6791 -2.8246  1.5686
 1441Sol     HW 9773   0.256   2.527   5.467 -0.9681  0.6696 -0.4798
 1441Sol     MW 9774   0.206   2.461   5.432  0.2838  0.4632 -0.1974
 1442Sol     OW 9775   3.461   3.707   1.590 -0.5648  0.2979  0.3094
 1442Sol     HW 9776   3.468   3.756   1.672 -1.2618  1.6653 -0.4353
 1442Sol     HW 9777   3.366   3.698   1.575 -0.4525  0.8624 -0.8091
 1442Sol     MW 9778   3.453   3.711   1.596  0.0980  0.0910  0.0671
 1443Sol     OW 9779   0.922   1.232   3.039  0.0016  0.0021 -0.3376
 1443Sol     HW 9780   0.865   1.192   3.104 -0.0552  1.5676  0.5971
 1443Sol     HW 9781   0.863   1.275   2.978  0.0817 -0.8531 -1.0213
 1443Sol     MW 9782   0.912   1.232   3.039  0.3266 -0.5224  0.4732
 1444Sol     OW 9783   1.539   0.020   4.387 -0.3986 -0.4560  0.0997
 1444Sol     HW 9784   1.594   0.093   4.416 -0.6175 -0.7783  1.3653
 1444Sol     HW 9785   1.546   0.021   4.291  0.1252  0.8069  0.1416
 1444Sol     MW 9786   1.544   0.027   4.381  0.4372  0.1687  0.0492
 1445Sol     OW 9787   3.998   3.353   2.007  0.3122  0.1682 -0.3631
 1445Sol     HW 9788   3.990   3.448   1.998  1.8727  0.4605  1.0657
 1445Sol     HW 9789   3.983   3.320   1.918 -1.3780  1.6470 -0.6586
 1445Sol     MW 9790   3.996   3.359   1.998 -0.3539 -0.7341  0.2171
 1446Sol     OW 9791   2.846   1.684   6.654  0.6076 -0.1976  0.0536
 1446Sol     HW 9792   2.752   1.702   6.659  0.7597  1.0618 -1.5228
 1446Sol     HW 9793   2.855   1.597   6.695 -1.1722 -0.1635  0.5874
 1446Sol     MW 9794   2.838   1.677   6.658  0.2621 -0.3845 -0.1755
 1447Sol     OW 9795   0.634   3.613   6.476 -0.5802 -0.1580 -0.6191
 1447Sol     HW 9796   0.664   3.524   6.463  0.4097  0.2414 -1.1360
 1447Sol     HW 9797   0.655   3.658   6.393 -2.0321  0.2819 -0.7577
 1447Sol     MW 9798   0.639   3.609   6.467 -0.0394  0.3471 -0.4404
 1448Sol     OW 9799   1.439   0.642   5.030 -0.9038 -0.4159  0.2718
 1448Sol     HW 9800   1.499   0.578   4.991 -1.3072 -0.2629 -0.6279
 1448Sol     HW 9801   1.482   0.670   5.110  0.2285 -0.3049 -0.3581
 1448Sol     MW 9802   1.448   0.639   5.033 -0.0621 -0.1605 -0.1196
 1449Sol     OW 9803   1.081   4.116   4.989 -0.6139  0.2854  0.4045
 1449Sol     HW 9804   1.033   4.034   5.000 -0.9212  0.4097  0.0004
 1449Sol     HW 9805   1.108   4.116   4.897  1.0238 -0.2541  0.8632
 1449Sol     MW 9806   1.079   4.108   4.982 -0.3545 -0.3465 -0.4765
 1450Sol     OW 9807   0.280   3.387   3.620 -0.1781  0.5738  0.1341
 1450Sol     HW 9808   0.186   3.390   3.632 -0.0773 -0.2682  1.1942
 1450Sol     HW 9809   0.292   3.354   3.531 -0.8897  1.1599 -0.1746
 1450Sol     MW 9810   0.273   3.384   3.613 -0.0006 -0.7364  0.1526
 1451Sol     OW 9811   0.061   2.051   5.892 -0.5107 -0.1064  0.4976
 1451Sol     HW 9812   0.098   2.130   5.933  0.6623 -1.1378  1.4625
 1451Sol     HW 9813  -0.020   2.035   5.939  1.0603 -1.5523  2.7971
 1451Sol     MW 9814   0.057   2.057   5.900  0.2509 -0.7409 -0.7439
 1452Sol     OW 9815   1.987   1.055   3.226 -0.2497 -0.2016  0.3743
 1452Sol     HW 9816   2.032   1.005   3.294 -0.3228  0.0375  0.5984
 1452Sol     HW 9817   1.936   1.120   3.274  0.5394  0.6637  0.0606
 1452Sol     MW 9818   1.987   1.057   3.236 -0.4952  0.1313  0.1790
 1453Sol     OW 9819   1.583   3.713   5.897 -0.4640  0.6005 -0.1497
 1453Sol     HW 9820   1.523   3.741   5.966 -1.5772 -0.0987 -0.8142
 1453Sol     HW 9821   1.533   3.723   5.816  0.2459 -0.1957 -0.6979
 1453Sol     MW 9822   1.573   3.716   5.895 -0.0808 -0.1280  0.2849
 1454Sol     OW 9823   2.104   1.412   5.813  0.0848  0.6135  0.1667
 1454Sol     HW 9824   2.067   1.382   5.896  0.1646 -0.6378 -0.2507
 1454Sol     HW 9825   2.040   1.476   5.781 -1.6485 -1.3867 -0.4481
 1454Sol     MW 9826   2.095   1.415   5.818  0.7840  0.5452 -0.0857
 1455Sol     OW 9827   1.377   4.161   6.444  0.1429 -0.4476  0.2354
 1455Sol     HW 9828   1.294   4.208   6.452  0.9314  0.6705  2.0175
 1455Sol     HW 9829   1.355   4.070   6.462 -0.6947 -0.1650  0.6673
 1455Sol     MW 9830   1.367   4.157   6.446  0.4462  0.1981  0.2605
 1456Sol     OW 9831   2.177   1.713   2.960 -0.2149 -0.2216 -0.1024
 1456Sol     HW 9832   2.256   1.691   3.008  0.1117 -0.3064 -0.6794
 1456Sol     HW 9833   2.207   1.736   2.872 -0.9429 -1.4661 -0.6932
 1456Sol     MW 9834   2.186   1.713   2.956 -0.0013  0.0950  0.1853
 1457Sol     OW 9835   0.678   0.161   6.398 -0.4321  0.1907 -0.2061
 1457Sol     HW 9836   0.722   0.210   6.468 -0.6588 -0.3405  0.3058
 1457Sol     HW 9837   0.593   0.205   6.388  0.4456  1.6223 -1.6352
 1457Sol     MW 9838   0.674   0.170   6.403  0.7360  0.0867 -0.4587
 1458Sol     OW 9839   1.486   0.716   3.933  0.7721  0.3670  0.0352
 1458Sol     HW 9840   1.569   0.760   3.948  0.7656  0.6979 -0.8531
 1458Sol     HW 9841   1.419   0.781   3.957  0.7704 -0.1419  1.4165
 1458Sol     MW 9842   1.487   0.726   3.936  0.2039  0.3253  0.1894
 1459Sol     OW 9843   1.915   3.269   4.111  0.2782 -0.1700  0.7065
 1459Sol     HW 9844   1.956   3.325   4.044 -1.2282  0.8378  0.6180
 1459Sol     HW 9845   1.983   3.204   4.132  1.7443  1.1580  0.1860
 1459Sol     MW 9846   1.925   3.268   4.106 -0.3535  0.3154  0.0965
 1460Sol     OW 9847   0.967   2.282   3.000 -0.3408  0.4463  0.3435
 1460Sol     HW 9848   1.021   2.324   3.067 -1.2834  0.2532  1.2429
 1460Sol     HW 9849   1.030   2.232   2.947  0.6243  1.9613  0.0172
 1460Sol     MW 9850   0.978   2.281   3.001  0.0578 -0.2726 -0.1547
 1461Sol     OW 9851   0.503   3.599   1.891 -0.9955  0.0883 -0.5508
 1461Sol     HW 9852   0.435   3.532   1.884 -1.9958  0.8852  1.1543
 1461Sol     HW 9853   0.555   3.573   1.968 -1.3808  1.2283  0.1193
 1461Sol     MW 9854   0.502   3.591   1.897  0.4846 -0.1330 -0.5691
 1462Sol     OW 9855   0.394   4.185   4.354 -0.3532 -0.4979  0.0570
 1462Sol     HW 9856   0.485   4.163   4.332 -0.2776 -1.2942  1.1067
 1462Sol     HW 9857   0.376   4.135   4.433 -0.9972  1.3552  1.1170
 1462Sol     MW 9858   0.401   4.179   4.359 -0.3947 -0.3223  0.6733
 1463Sol     OW 9859   3.409   2.138   2.663  0.1054  0.2060  0.0863
 1463Sol     HW 9860   3.473   2.153   2.593 -1.3422  1.0614 -1.0757
 1463Sol     HW 9861   3.335   2.195   2.641 -1.7336 -1.9547  0.5250
 1463Sol     MW 9862   3.408   2.144   2.655  0.2376 -0.4718  0.2131
 1464Sol     OW 9863   0.589   0.320   1.572  0.3785 -0.1863 -0.4294
 1464Sol     HW 9864   0.603   0.246   1.513  0.6621 -0.2790 -0.2470
 1464Sol     HW 9865   0.497   0.342   1.561  0.1132 -1.0292  0.0535
 1464Sol     MW 9866   0.582   0.316   1.566  0.2004 -0.4003  0.0326
 1465Sol     OW 9867   2.696   1.133   6.145  0.0917  0.1929 -0.2544
 1465Sol     HW 9868   2.754   1.189   6.093  0.9580 -0.3494  0.1211
 1465Sol     HW 9869   2.695   1.173   6.232  0.6388 -0.3193 -0.0106
 1465Sol     MW 9870   2.701   1.142   6.148  0.3841  0.3709  0.1305
 1466Sol     OW 9871   0.426   0.048   3.004  0.3820  0.1821 -0.2082
 1466Sol     HW 9872   0.477   0.037   2.923  0.0098  2.4981 -0.7838
 1466Sol     HW 9873   0.477   0.108   3.057  1.5646 -2.7631  2.1644
 1466Sol     MW 9874   0.435   0.052   3.001 -0.4593  0.0248 -0.3064
 1467Sol     OW 9875   0.963   3.033   5.522  0.6299  0.0759 -0.0928
 1467Sol     HW 9876   0.953   2.984   5.604 -2.4874  1.0817  0.1765
 1467Sol     HW 9877   0.877   3.070   5.505  0.5906 -1.8906 -5.0028
 1467Sol     MW 9878   0.954   3.032   5.528  0.7363  0.1764 -0.2149
 1468Sol     OW 9879   2.431   2.964   2.676  0.2370 -0.1819 -0.2032
 1468Sol     HW 9880   2.362   2.960   2.610  1.1403  0.2589 -1.1918
 1468Sol     HW 9881   2.386   2.987   2.757 -0.8124 -0.1847 -0.7859
 1468Sol     MW 9882   2.421   2.966   2.677  0.4308  0.1267  0.1963
 1469Sol     OW 9883   0.884   2.646   1.464 -0.4447 -0.0296 -0.2319
 1469Sol     HW 9884   0.925   2.662   1.550 -0.5447  1.6023 -0.4723
 1469Sol     HW 9885   0.872   2.551   1.461  1.7682 -0.3760  0.5576
 1469Sol     MW 9886   0.887   2.639   1.472  0.2779 -0.1166  0.3905
 1470Sol     OW 9887   3.847   0.482   6.328 -1.1370 -0.0715 -0.1836
 1470Sol     HW 9888   3.764   0.507   6.287 -1.2012  0.3713  0.2073
 1470Sol     HW 9889   3.908   0.471   6.255 -0.9618  1.7781 -0.3373
 1470Sol     MW 9890   3.845   0.483   6.318  0.7291  0.0557 -0.2995
 1471Sol     OW 9891   2.995   2.164   5.033  0.3490 -0.8189  0.0761
 1471Sol     HW 9892   3.067   2.101   5.027  0.4666 -0.8296  1.3449
 1471Sol     HW 9893   2.954   2.144   5.117 -2.1025 -1.8352 -1.3094
 1471Sol     MW 9894   2.998   2.157   5.040  0.1025 -0.3221  0.0157
 1472Sol     OW 9895   0.739   1.795   2.430  0.3406 -0.1454 -0.0966
 1472Sol     HW 9896   0.656   1.757   2.460 -0.1557  2.0336  1.3949
 1472Sol     HW 9897   0.736   1.886   2.460  2.6540  0.3595 -1.2884
 1472Sol     MW 9898   0.731   1.800   2.435  0.0415  0.4876  0.2409
 1473Sol     OW 9899   0.672   0.660   1.439 -0.8989 -0.1004  0.1300
 1473Sol     HW 9900   0.667   0.666   1.535  0.1414  1.2899  0.1094
 1473Sol     HW 9901   0.582   0.639   1.412 -1.2109 -0.4603  1.3962
 1473Sol     MW 9902   0.663   0.659   1.445 -0.4739  0.0012  0.0112
 1474Sol     OW 9903   0.839   0.574   2.303  0.0448  0.3684 -0.2533
 1474Sol     HW 9904   0.849   0.637   2.232  0.9346  0.9098  0.3307
 1474Sol     HW 9905   0.922   0.580   2.351  0.4271 -1.7666 -0.6034
 1474Sol     MW 9906   0.847   0.581   2.301  0.1780 -0.1932  0.3513
 1475Sol     OW 9907   1.761   0.559   5.582  0.1563  0.5501 -0.5311
 1475Sol     HW 9908   1.835   0.498   5.591 -0.8121 -1.1740 -3.4969
 1475Sol     HW 9909   1.780   0.608   5.503 -0.4228  2.2259  0.3553
 1475Sol     MW 9910   1.769   0.558   5.576 -0.1591 -0.2152  0.2708
 1476Sol     OW 9911   2.626   2.911   4.946 -0.1835  0.5415 -0.6288
 1476Sol     HW 9912   2.543   2.922   4.899 -0.0077 -0.1207 -1.0947
 1476Sol     HW 9913   2.641   2.817   4.948  0.3976  0.6364 -0.2580
 1476Sol     MW 9914   2.620   2.904   4.942  0.3264  0.3454  0.5394
 1477Sol     OW 9915   3.927   1.317   5.970 -0.7544 -0.1093  0.1964
 1477Sol     HW 9916   4.005   1.283   5.926 -0.3671  1.1210 -0.0652
 1477Sol     HW 9917   3.951   1.321   6.062 -0.7495 -0.3775  0.2090
 1477Sol     MW 9918   3.936   1.314   5.974  0.3802 -0.6090  0.4028
 1478Sol     OW 9919   0.778   1.178   3.520  0.3665 -0.0000 -0.2249
 1478Sol     HW 9920   0.746   1.184   3.610 -2.4374  0.3634 -1.2038
 1478Sol     HW 9921   0.758   1.263   3.481 -1.0917 -1.1026 -1.9849
 1478Sol     MW 9922   0.773   1.186   3.524 -0.2815  0.2555 -0.3037
 1479Sol     OW 9923   2.929   4.040   4.338  0.2892 -0.0139 -0.2918
 1479Sol     HW 9924   2.966   4.052   4.425 -2.3316  0.4297  0.8266
 1479Sol     HW 9925   2.896   3.950   4.339 -0.1406  0.1370 -0.6465
 1479Sol     MW 9926   2.929   4.033   4.346  0.7315  0.1208 -0.2468
 1480Sol     OW 9927   0.224   1.212   1.721  0.3652  0.0210 -0.1610
 1480Sol     HW 9928   0.141   1.198   1.675  0.7623  0.4772 -1.0304
 1480Sol     HW 9929   0.257   1.124   1.738  1.6570 -0.2047 -3.4250
 1480Sol     MW 9930   0.220   1.203   1.719 -0.3788 -0.1470 -0.1618
 1481Sol     OW 9931   1.530   3.320   3.551  0.3781 -0.4322 -0.8855
 1481Sol     HW 9932   1.508   3.400   3.598  2.7288 -0.0886 -0.3299
 1481Sol     HW 9933   1.515   3.341   3.459  1.1790  0.7075 -0.7548
 1481Sol     MW 9934   1.526   3.329   3.547 -0.4252 -0.8737 -0.1514
 1482Sol     OW 9935   3.840   0.098   4.291 -0.1691  0.1113 -0.0655
 1482Sol     HW 9936   3.809   0.121   4.379 -2.1889 -1.3843 -0.3394
 1482Sol     HW 9937   3.933   0.078   4.303 -0.6565 -1.1649  1.9813
 1482Sol     MW 9938   3.845   0.098   4.300  0.2886  0.5326 -0.0767
 1483Sol     OW 9939   3.238   0.209   4.439 -0.0777 -0.6704  0.5492
 1483Sol     HW 9940   3.157   0.260   4.444  0.3064 -0.1202  1.4333
 1483Sol     HW 9941   3.295   0.261   4.383  0.2289 -0.2386  1.2533
 1483Sol     MW 9942   3.236   0.219   4.435 -0.8374  0.0807  0.3601
 1484Sol     OW 9943   2.883   1.420   6.721  0.2579 -0.5759 -0.4407
 1484Sol     HW 9944   2.878   1.388   6.631 -0.0870 -0.0294 -0.6169
 1484Sol     HW 9945   2.815   1.372   6.768 -1.3380  1.0047 -1.0527
 1484Sol     MW 9946   2.876   1.413   6.717  0.4959 -0.3565 -0.1438
 1485Sol     OW 9947   3.543   1.577   4.238 -0.4852  0.1203 -0.5188
 1485Sol     HW 9948   3.585   1.495   4.211  0.4808  0.8344 -1.2468
 1485Sol     HW 9949   3.450   1.556   4.245 -0.1138 -1.3016  0.3372
 1485Sol     MW 9950   3.539   1.568   4.236  0.2629 -0.0604 -0.4346
 1486Sol     OW 9951   1.846   3.570   5.824  0.1188  0.1426  0.1289
 1486Sol     HW 9952   1.940   3.584   5.812 -0.0816  0.1512 -1.4527
 1486Sol     HW 9953   1.818   3.644   5.877  1.1167 -0.2242  1.2132
 1486Sol     MW 9954   1.852   3.578   5.828 -0.3445  0.0361  0.5052
 1487Sol     OW 9955   3.376   3.907   5.855 -0.5240 -0.4494 -0.3226
 1487Sol     HW 9956   3.415   3.844   5.915 -0.0445 -1.5084 -1.6970
 1487Sol     HW 9957   3.282   3.898   5.869 -0.4241 -0.8654  0.0967
 1487Sol     MW 9958   3.371   3.900   5.861 -0.6759  0.5213 -0.3055
 1488Sol     OW 9959   2.815   3.472   6.533  0.4966 -0.3296  0.2772
 1488Sol     HW 9960   2.873   3.398   6.553 -0.2809 -1.2848 -0.9137
 1488Sol     HW 9961   2.748   3.469   6.602 -0.5004 -1.8064 -0.7107
 1488Sol     MW 9962   2.814   3.465   6.541  0.0440 -0.2753 -0.3298
 1489Sol     OW 9963   0.751   0.189   4.743 -0.1176 -0.0791 -0.1850
 1489Sol     HW 9964   0.811   0.189   4.817 -0.3703 -0.5827  0.0206
 1489Sol     HW 9965   0.679   0.132   4.770 -0.9241  0.8975 -0.2344
 1489Sol     MW 9966   0.750   0.184   4.752 -0.4894 -0.3035 -0.0873
 1490Sol     OW 9967   0.083   2.498   1.909  0.6775 -0.4907  0.0686
 1490Sol     HW 9968   0.133   2.553   1.849  0.3187  0.8211  0.9469
 1490Sol     HW 9969   0.109   2.528   1.996  1.6104 -2.7587  0.5927
 1490Sol     MW 9970   0.090   2.506   1.912  0.0615  0.3494  0.0198
 1491Sol     OW 9971   3.661   0.968   3.536  0.1679 -0.3474  0.1899
 1491Sol     HW 9972   3.615   0.886   3.554  1.3953 -0.8883  0.8682
 1491Sol     HW 9973   3.606   1.036   3.576 -0.0839 -0.9740  0.9031
 1491Sol     MW 9974   3.652   0.967   3.541  0.1152  0.0813  0.0990
 1492Sol     OW 9975   1.815   1.905   2.175 -0.6434  0.3780 -0.2418
 1492Sol     HW 9976   1.814   1.993   2.139 -2.1753  0.3031 -0.4197
 1492Sol     HW 9977   1.759   1.910   2.253  0.0593 -0.2082  0.3133
 1492Sol     MW 9978   1.810   1.913   2.179 -0.2429 -0.1835 -0.6702
 1493Sol     OW 9979   0.901   1.168   5.652 -0.0263  1.3324 -0.0030
 1493Sol     HW 9980   0.909   1.185   5.558  0.8365  0.5727 -0.0738
 1493Sol     HW 9981   0.965   1.099   5.669  0.5522  2.1686  1.3244
 1493Sol     MW 9982   0.908   1.163   5.645  0.4990 -0.0849  0.1206
 1494Sol     OW 9983   1.379   0.175   3.435 -0.1185 -0.5003 -0.0998
 1494Sol     HW 9984   1.394   0.091   3.391 -0.9047 -1.4082  1.3257
 1494Sol     HW 9985   1.425   0.239   3.381  1.4300 -2.0003 -0.5960
 1494Sol     MW 9986   1.384   0.173   3.426  0.3232 -0.1967  0.6502
 1495Sol     OW 9987   1.786   1.186   4.542 -0.8496 -0.2582  0.9870
 1495Sol     HW 9988   1.878   1.171   4.560 -1.5461 -2.4582  2.8449
 1495Sol     HW 9989   1.763   1.264   4.594 -0.0352  0.3831  0.3996
 1495Sol     MW 9990   1.792   1.192   4.548  0.7055 -0.0074 -0.1821
 1496Sol     OW 9991   0.359   2.665   5.555 -0.0431  0.0130 -0.0546
 1496Sol     HW 9992   0.328   2.705   5.636  1.6800 -0.4771  0.8755
 1496Sol     HW 9993   0.332   2.726   5.486  2.5250  2.8265  1.3258
 1496Sol     MW 9994   0.354   2.674   5.556 -0.0885  0.2578 -1.2178
 1497Sol     OW 9995   1.968   0.603   3.849  0.8257 -0.1500 -0.1665
 1497Sol     HW 9996   1.964   0.691   3.887  0.2399  0.3072 -1.2618
 1497Sol     HW 9997   1.906   0.552   3.900  0.4040  0.3369 -0.1887
 1497Sol     MW 9998   1.962   0.606   3.857 -0.5410  0.3816  0.1349
 1498Sol     OW 9999   0.718   0.881   2.422  0.3544 -0.2718 -0.4482
 1498Sol     HW10000   0.653   0.867   2.490  1.0856  1.6597  0.6945
 1498Sol     HW10001   0.801   0.890   2.470  0.7651  1.8839 -1.4743
 1498Sol     MW10002   0.720   0.881   2.432  0.1313 -0.8565 -0.6804
 1499Sol     OW10003   2.949   3.057   5.258 -0.1026 -0.2508 -0.1971
 1499Sol     HW10004   3.035   3.073   5.219 -0.1673  0.6146  0.0031
 1499Sol     HW10005   2.894   3.127   5.223 -0.2482  0.3339  1.1800
 1499Sol     MW10006   2.952   3.065   5.251  0.4054 -0.5833 -0.2511
 1500Sol     OW10007   2.860   0.546   2.257  0.2698  0.2280 -0.0921
 1500Sol     HW10008   2.870   0.637   2.284 -0.7796  0.5075 -0.6140
 1500Sol     HW10009   2.890   0.495   2.333  0.2354  1.0021  0.4498
 1500Sol     MW10010   2.864   0.549   2.266 -0.0756  0.3773  0.1889
 1501Sol     OW10011   2.097   2.900   5.299 -0.1110 -0.8653  0.7087
 1501Sol     HW10012   2.075   2.913   5.391 -0.0018 -1.1140  0.7702
 1501Sol     HW10013   2.039   2.829   5.270 -1.7484  0.7288 -0.0162
 1501Sol     MW10014   2.090   2.895   5.304  0.0047  0.5216 -0.3931
 1502Sol     OW10015   0.977   1.380   2.693  0.3149 -0.4414  0.3603
 1502Sol     HW10016   1.054   1.334   2.727  0.0266 -1.3723 -0.2006
 1502Sol     HW10017   1.010   1.435   2.623  0.6818  0.3000  1.1055
 1502Sol     MW10018   0.987   1.380   2.690 -0.8751  0.4858  0.1126
 1503Sol     OW10019   0.238   1.822   6.115  0.0365  0.1111 -0.0975
 1503Sol     HW10020   0.265   1.911   6.137  2.0298 -0.2384 -1.0433
 1503Sol     HW10021   0.235   1.777   6.200 -1.2177  1.1306  0.4110
 1503Sol     MW10022   0.240   1.826   6.125 -0.0148  0.6842  0.1617
 1504Sol     OW10023   2.468   0.901   4.852 -0.0298  0.0175  0.2790
 1504Sol     HW10024   2.563   0.914   4.848  0.0345 -0.5769 -0.2842
 1504Sol     HW10025   2.453   0.823   4.799 -1.0252  1.1174 -1.0878
 1504Sol     MW10026   2.475   0.896   4.847 -0.2777 -0.1407  0.7263
 1505Sol     OW10027   3.720   2.976   3.974 -0.1855  0.5101 -0.5692
 1505Sol     HW10028   3.684   2.917   4.040  1.1020  1.1285  0.7318
 1505Sol     HW10029   3.652   2.983   3.907 -1.0888 -0.9723  0.1745
 1505Sol     MW10030   3.711   2.971   3.974  0.5268  0.2383  0.3295
 1506Sol     OW10031   0.254   0.516   6.704 -0.1015 -0.6434 -0.4301
 1506Sol     HW10032   0.299   0.595   6.673 -0.2026 -0.2798  0.3194
 1506Sol     HW10033   0.190   0.496   6.636  2.0016 -1.8753 -2.0940
 1506Sol     MW10034   0.253   0.521   6.695 -0.1816  0.5400 -0.2922
 1507Sol     OW10035   3.855   3.958   5.717 -0.2124  0.3345  0.3948
 1507Sol     HW10036   3.826   4.009   5.792  2.6787 -0.7524  2.3555
 1507Sol     HW10037   3.942   3.993   5.696  1.0326 -2.4233  0.6359
 1507Sol     MW10038   3.860   3.965   5.722 -0.0687 -0.4387  0.4496
 1508Sol     OW10039   2.700   0.056   5.278 -0.4640 -0.4161 -0.4439
 1508Sol     HW10040   2.747   0.138   5.269  1.1084 -1.0299  1.7758
 1508Sol     HW10041   2.727   0.003   5.203 -2.0366  1.2956 -2.2863
 1508Sol     MW10042   2.706   0.059   5.271  0.2619 -0.0673  0.2942
 1509Sol     OW10043   1.667   1.618   4.832  0.3251  0.4402 -0.0161
 1509Sol     HW10044   1.604   1.689   4.848  0.9723  1.1292 -0.4826
 1509Sol     HW10045   1.646   1.552   4.898 -0.4463  0.9582  0.2663
 1509Sol     MW10046   1.659   1.619   4.839  0.2729 -0.5547 -0.1231
 1510Sol     OW10047   0.745   3.621   5.397  0.0951 -0.2521  0.0328
 1510Sol     HW10048   0.724   3.582   5.482  1.4619 -0.0417  0.4748
 1510Sol     HW10049   0.713   3.712   5.404 -1.4508 -0.7497 -0.3515
 1510Sol     MW10050   0.740   3.626   5.405 -0.3785 -0.2102 -0.4568
 1511Sol     OW10051   0.116   3.454   5.832 -0.5427  0.7219 -0.6191
 1511Sol     HW10052   0.172   3.436   5.908  0.8106 -1.8441 -2.1518
 1511Sol     HW10053   0.027   3.446   5.865  0.0275  0.4249  0.8683
 1511Sol     MW10054   0.113   3.452   5.842 -0.1797 -0.2077  0.0640
 1512Sol     OW10055   2.765   1.443   2.665 -0.1657  0.4712  0.2546
 1512Sol     HW10056   2.688   1.435   2.721 -0.6147  0.2742 -0.3828
 1512Sol     HW10057   2.807   1.357   2.668  0.2600  0.6991  0.9265
 1512Sol     MW10058   2.762   1.435   2.670 -0.2941  0.5888  0.6284
 1513Sol     OW10059   1.403   1.849   5.172 -0.1848  0.4290  0.1994
 1513Sol     HW10060   1.444   1.907   5.236 -0.9416 -0.6668  1.7079
 1513Sol     HW10061   1.336   1.803   5.221 -0.9324 -0.2781 -1.4513
 1513Sol     MW10062   1.401   1.850   5.182 -0.3245  0.1173 -0.2802
 1514Sol     OW10063   2.142   3.294   4.643  0.6424  0.1661  0.8530
 1514Sol     HW10064   2.100   3.231   4.701  0.1504  0.6093  0.9815
 1514Sol     HW10065   2.214   3.329   4.695  3.0697 -2.7535 -0.3848
 1514Sol     MW10066   2.145   3.292   4.653  0.2279 -0.0620 -0.5480
 1515Sol     OW10067   3.055   4.126   4.566 -0.0894  0.7228  0.6364
 1515Sol     HW10068   3.065   4.207   4.616 -1.3948  0.2600  1.6771
 1515Sol     HW10069   2.987   4.077   4.612 -2.2176  0.8055 -2.2778
 1515Sol     MW10070   3.050   4.129   4.575  0.5224  0.7927  0.1381
 1516Sol     OW10071   0.706   1.588   5.001 -0.0149  0.2478  0.1994
 1516Sol     HW10072   0.795   1.554   5.016 -0.2128 -0.1259  0.5480
 1516Sol     HW10073   0.699   1.594   4.906 -0.2377 -1.4236  0.1006
 1516Sol     MW10074   0.714   1.585   4.994  0.0886  0.1840 -0.6938
 1517Sol     OW10075   3.843   2.915   3.613  0.2167 -0.5251 -0.3051
 1517Sol     HW10076   3.862   2.829   3.577  1.0679 -0.2235 -0.5907
 1517Sol     HW10077   3.758   2.939   3.576 -0.1156 -1.3154 -0.0731
 1517Sol     MW10078   3.837   2.909   3.607 -0.2334 -0.9917 -0.1449
 1518Sol     OW10079   0.474   0.956   5.064 -0.2631 -0.2121  0.2870
 1518Sol     HW10080   0.399   0.944   5.006 -1.3972 -1.6034  1.9855
 1518Sol     HW10081   0.537   0.890   5.035  0.4149  1.0909 -1.2739
 1518Sol     MW10082   0.473   0.949   5.056  0.0264 -0.4852 -0.0819
 1519Sol     OW10083   0.301   1.550   4.050 -0.3334  0.8739  0.1024
 1519Sol     HW10084   0.356   1.481   4.013  0.5634  0.5825  1.9134
 1519Sol     HW10085   0.354   1.629   4.044 -1.0731  1.2774 -1.2934
 1519Sol     MW10086   0.311   1.551   4.047  0.2566 -0.3924 -0.1882
 1520Sol     OW10087   0.406   3.140   4.502  0.8723 -0.2703  0.1398
 1520Sol     HW10088   0.481   3.186   4.540  1.1581  0.6339 -1.4690
 1520Sol     HW10089   0.336   3.151   4.566  2.1204 -1.2030  1.7090
 1520Sol     MW10090   0.407   3.145   4.511  0.4260  0.5629  0.8590
 1521Sol     OW10091   1.095   3.060   6.416 -0.3985  0.1507  0.2528
 1521Sol     HW10092   1.109   3.143   6.463  0.1080  0.4508 -0.4193
 1521Sol     HW10093   1.040   3.085   6.342 -2.4871 -0.5899  1.5219
 1521Sol     MW10094   1.091   3.070   6.414  0.3495 -0.5158  0.4215
 1522Sol     OW10095   0.850   0.048   6.839 -0.1056  0.0708  0.2310
 1522Sol     HW10096   0.845  -0.047   6.826  0.6900  0.1877 -0.9951
 1522Sol     HW10097   0.941   0.071   6.819 -0.5301  1.2304 -0.4303
 1522Sol     MW10098   0.857   0.042   6.836  0.2881  0.2581 -0.2938
 1523Sol     OW10099   3.015   0.460   6.422 -0.4716 -0.0310  0.1573
 1523Sol     HW10100   3.036   0.381   6.373 -1.9504  0.3987 -1.2049
 1523Sol     HW10101   3.014   0.529   6.356 -1.9860  0.6488  0.8780
 1523Sol     MW10102   3.017   0.459   6.411 -0.5717  0.1890 -0.6489
 1524Sol     OW10103   1.780   3.466   6.135 -0.1942 -0.2648 -0.8402
 1524Sol     HW10104   1.734   3.440   6.055  0.5486 -0.9787 -1.0398
 1524Sol     HW10105   1.872   3.447   6.117 -0.0598 -0.7178  0.3040
 1524Sol     MW10106   1.784   3.462   6.126 -0.3953  0.0428 -0.0144
 1525Sol     OW10107   0.797   0.959   5.173  0.8776 -0.3024 -0.2732
 1525Sol     HW10108   0.840   0.996   5.096 -0.3422  0.1163 -0.7673
 1525Sol     HW10109   0.800   0.864   5.158 -0.8267 -0.1636 -1.6680
 1525Sol     MW10110   0.801   0.954   5.165  1.0324 -0.2770  0.9312
 1526Sol     OW10111   2.422   1.741   2.783  0.7696 -0.2091 -0.2026
 1526Sol     HW10112   2.399   1.768   2.694 -0.4870  1.0416  0.4766
 1526Sol     HW10113   2.495   1.797   2.807 -0.0835  0.7393  0.2134
 1526Sol     MW10114   2.426   1.748   2.777 -0.3853 -0.5559 -0.4245
 1527Sol     OW10115   3.322   3.009   5.448 -0.1651 -0.7355 -0.7235
 1527Sol     HW10116   3.366   2.998   5.533 -1.4393  0.7561  0.1762
 1527Sol     HW10117   3.294   2.921   5.423 -0.5003 -1.0881  0.8262
 1527Sol     MW10118   3.323   3.000   5.454 -0.0961  0.2705  0.5417
 1528Sol     OW10119   2.612   2.054   1.407  0.4065 -0.6990  0.5657
 1528Sol     HW10120   2.693   2.007   1.427  0.2458 -0.4264  1.8948
 1528Sol     HW10121   2.618   2.135   1.457  0.1938  0.2306 -0.8809
 1528Sol     MW10122   2.620   2.057   1.413  0.7625  0.1497 -0.6870
 1529Sol     OW10123   3.130   0.966   4.817 -0.2074 -0.6061 -0.0563
 1529Sol     HW10124   3.055   0.909   4.798 -1.1023  0.1037  1.2885
 1529Sol     HW10125   3.099   1.054   4.794 -0.1207 -0.1843  1.4193
 1529Sol     MW10126   3.121   0.969   4.813  0.0798  0.0843 -0.4824
 1530Sol     OW10127   3.859   0.303   6.050 -0.0992  0.3848  0.0871
 1530Sol     HW10128   3.775   0.305   6.004  0.8250  1.1981 -1.6033
 1530Sol     HW10129   3.886   0.395   6.056  1.2074  0.0436 -0.3966
 1530Sol     MW10130   3.854   0.311   6.047 -0.0213 -0.3601  0.1549
 1531Sol     OW10131   2.088   3.712   6.412  0.0615 -0.2944 -0.3057
 1531Sol     HW10132   2.047   3.626   6.426 -0.9675  0.4623  1.3816
 1531Sol     HW10133   2.152   3.696   6.343  0.4777 -2.6248  0.5736
 1531Sol     MW10134   2.090   3.703   6.407 -0.1847 -0.5692  0.1923
 1532Sol     OW10135   3.298   2.821   6.519  0.1210 -0.2146 -0.0900
 1532Sol     HW10136   3.273   2.820   6.612  2.3048 -1.4591  0.5190
 1532Sol     HW10137   3.217   2.844   6.473 -0.9524  0.6228  2.1308
 1532Sol     MW10138   3.288   2.823   6.523  0.0081  0.6087  0.5049
 1533Sol     OW10139   2.104   3.743   3.539 -0.2720  0.1751  0.0002
 1533Sol     HW10140   2.085   3.708   3.626 -2.2960 -0.2883 -0.6070
 1533Sol     HW10141   2.045   3.696   3.480  0.5456  1.0135 -1.5202
 1533Sol     MW10142   2.097   3.736   3.542 -0.5851 -0.0708  0.3729
 1534Sol     OW10143   0.725   0.844   3.817  0.2012  0.4654  0.0271
 1534Sol     HW10144   0.814   0.820   3.789  0.0530 -0.7107  0.5549
 1534Sol     HW10145   0.678   0.859   3.734  0.7804  0.6836 -0.2654
 1534Sol     MW10146   0.729   0.843   3.807 -0.6930 -0.6425  0.5598
 1535Sol     OW10147   1.563   0.273   6.264  0.0439  0.2464 -0.1499
 1535Sol     HW10148   1.645   0.228   6.241  0.1102  0.9768 -1.3768
 1535Sol     HW10149   1.494   0.218   6.226  0.1074  0.9651 -1.3402
 1535Sol     MW10150   1.564   0.264   6.258 -0.9805 -0.1271 -0.0590
 1536Sol     OW10151   2.516   1.495   3.937  0.1443  0.2337 -0.6840
 1536Sol     HW10152   2.425   1.468   3.948  0.6134 -0.7745  0.8169
 1536Sol     HW10153   2.538   1.541   4.018  1.2192 -0.2290 -0.7044
 1536Sol     MW10154   2.510   1.497   3.945  0.5361 -0.3733  0.2365
 1537Sol     OW10155   0.262   2.333   4.719 -0.2070 -0.0305  0.3329
 1537Sol     HW10156   0.263   2.316   4.624 -0.1403 -0.7168  0.4499
 1537Sol     HW10157   0.175   2.303   4.747  0.1629 -0.8178  0.6572
 1537Sol     MW10158   0.254   2.328   4.713  0.2287 -0.0722 -0.2105
 1538Sol     OW10159   3.171   0.524   1.700 -0.1112  0.6152  0.2763
 1538Sol     HW10160   3.138   0.493   1.616  1.2820 -0.5496  0.1270
 1538Sol     HW10161   3.132   0.465   1.764 -0.3909  0.8779  0.3453
 1538Sol     MW10162   3.165   0.516   1.698  0.0381  0.1724  0.5320
 1539Sol     OW10163   0.657   1.083   5.750 -0.2525 -0.6935 -0.2260
 1539Sol     HW10164   0.590   1.095   5.682  0.9150 -0.7128 -1.4140
 1539Sol     HW10165   0.725   1.145   5.726  0.8772 -1.8197  0.0373
 1539Sol     MW10166   0.657   1.090   5.741  0.2593  0.1449  0.2209
 1540Sol     OW10167   2.022   0.641   2.681 -0.0133  0.7269 -0.9295
 1540Sol     HW10168   2.032   0.547   2.695  0.2192  0.7001 -1.2590
 1540Sol     HW10169   1.994   0.676   2.766 -0.3800  0.3218 -0.8831
 1540Sol     MW10170   2.020   0.636   2.689  0.2129  0.3454 -0.4644
 1541Sol     OW10171   0.897   0.600   4.471  0.1463 -0.1347 -0.1472
 1541Sol     HW10172   0.848   0.531   4.515  0.2494 -1.0199 -1.4035
 1541Sol     HW10173   0.942   0.556   4.399 -0.3641  1.3453 -1.4099
 1541Sol     MW10174   0.896   0.590   4.469  0.9616 -0.1842 -0.5268
 1542Sol     OW10175   3.983   1.662   1.989 -0.4722 -0.4660  0.0748
 1542Sol     HW10176   3.911   1.710   1.948  0.5493  0.6898 -0.3846
 1542Sol     HW10177   4.018   1.607   1.919  0.5024  0.6219 -0.3146
 1542Sol     MW10178   3.980   1.661   1.979 -0.2970 -0.2358  0.5075
 1543Sol     OW10179   2.981   4.190   2.898  0.3497  0.5475  0.2166
 1543Sol     HW10180   3.055   4.217   2.953  0.5510 -0.0386  0.2374
 1543Sol     HW10181   2.924   4.267   2.894 -0.1484  0.2909  2.0491
 1543Sol     MW10182   2.983   4.199   2.903  0.8294  0.5875  1.0148
 1544Sol     OW10183   1.923   3.908   3.956  0.3109  0.5369  0.4372
 1544Sol     HW10184   1.958   3.870   4.037  0.4419 -0.9687 -0.3137
 1544Sol     HW10185   1.868   3.980   3.986  0.8309  0.3713  1.8413
 1544Sol     MW10186   1.921   3.911   3.966  0.3642 -0.3878 -0.0908
 1545Sol     OW10187   0.038   2.007   2.297 -0.4437 -0.2226  0.0266
 1545Sol     HW10188   0.048   2.047   2.210 -0.5769  0.0606  0.1405
 1545Sol     HW10189   0.103   1.936   2.299 -0.1458  0.0439 -0.1458
 1545Sol     MW10190   0.045   2.004   2.289 -0.9958  0.4851  0.2637
 1546Sol     OW10191   2.484   2.448   2.492 -0.1617 -0.3701 -0.2747
 1546Sol     HW10192   2.550   2.438   2.561 -0.9073 -0.9887  0.3530
 1546Sol     HW10193   2.426   2.373   2.503  0.1269 -0.8989 -2.0492
 1546Sol     MW10194   2.485   2.440   2.499  0.5164  0.0614 -0.3100
 1547Sol     OW10195   0.838   1.782   2.795 -0.5343 -0.4921 -0.2463
 1547Sol     HW10196   0.797   1.724   2.731 -0.0003  0.3001 -1.3177
 1547Sol     HW10197   0.931   1.777   2.775 -0.2388 -1.1218  1.2170
 1547Sol     MW10198   0.842   1.776   2.787 -0.1688  0.5142 -0.9033
 1548Sol     OW10199   0.854   3.200   2.354 -0.2575  0.5952  0.0587
 1548Sol     HW10200   0.877   3.243   2.437 -0.2903  0.4400  0.1491
 1548Sol     HW10201   0.937   3.169   2.318 -0.1434  1.4067 -0.3845
 1548Sol     MW10202   0.863   3.201   2.358  0.2569  0.1417 -0.8607
 1549Sol     OW10203   3.007   0.113   2.253  0.0506 -0.6515 -0.4378
 1549Sol     HW10204   3.080   0.063   2.287  0.2853  0.0201  0.0737
 1549Sol     HW10205   3.037   0.204   2.255 -0.6813 -0.4021 -0.5066
 1549Sol     MW10206   3.016   0.117   2.257 -0.6601  0.0086  0.3006
 1550Sol     OW10207   1.345   1.467   5.376 -0.1275 -0.0875  0.2531
 1550Sol     HW10208   1.424   1.507   5.338 -1.0586 -0.0473 -1.7501
 1550Sol     HW10209   1.378   1.397   5.432  1.3530  0.3754 -0.0102
 1550Sol     MW10210   1.355   1.464   5.377  0.4316 -0.3879 -0.0593
 1551Sol     OW10211   3.284   3.095   4.878  0.3173 -0.1999 -0.5068
 1551Sol     HW10212   3.232   3.048   4.943  2.2021 -0.4373  0.8624
 1551Sol     HW10213   3.219   3.142   4.825 -1.3181 -0.9154  0.8164
 1551Sol     MW10214   3.273   3.095   4.879 -0.2645 -0.1129 -0.1978
 1552Sol     OW10215   2.919   3.619   2.016  0.3036 -0.4771 -0.6492
 1552Sol     HW10216   2.918   3.525   2.028  1.9659 -0.5242 -0.7436
 1552Sol     HW10217   2.935   3.655   2.103 -2.9959 -0.1415 -0.1317
 1552Sol     MW10218   2.920   3.614   2.025 -0.0082 -0.0701  0.3868
 1553Sol     OW10219   0.101   2.997   3.002 -0.1862 -1.1690  0.7213
 1553Sol     HW10220   0.154   3.002   2.923 -0.0005 -0.2711  0.9045
 1553Sol     HW10221   0.025   2.945   2.976 -1.2214  0.9590 -0.6820
 1553Sol     MW10222   0.099   2.993   2.993 -0.4065  0.4579  0.2020
 1554Sol     OW10223   0.487   2.172   5.292  0.1308 -0.5796 -0.0289
 1554Sol     HW10224   0.526   2.112   5.228  0.5324  0.6762 -0.9894
 1554Sol     HW10225   0.550   2.173   5.364 -0.1088 -1.6667  0.2099
 1554Sol     MW10226   0.496   2.167   5.293 -0.1826 -0.7502  0.5543
 1555Sol     OW10227   1.530   0.596   2.002  0.1605  0.7019 -0.4667
 1555Sol     HW10228   1.458   0.602   1.939  0.0045 -1.9555 -0.6286
 1555Sol     HW10229   1.585   0.671   1.983 -1.7916  1.9464 -1.3536
 1555Sol     MW10230   1.528   0.603   1.995  0.4265  0.7220 -0.1303
 1556Sol     OW10231   2.564   2.240   3.330  0.0585 -0.2666 -0.0681
 1556Sol     HW10232   2.584   2.300   3.258  2.6472  0.1549  0.9520
 1556Sol     HW10233   2.615   2.161   3.311 -0.8398 -0.9471  0.2711
 1556Sol     MW10234   2.570   2.238   3.322 -0.3053 -0.0932 -0.2976
 1557Sol     OW10235   2.657   1.721   3.484 -0.0091  0.1458 -0.5681
 1557Sol     HW10236   2.681   1.681   3.401  0.9581 -2.1780  0.7806
 1557Sol     HW10237   2.563   1.736   3.477  0.0266 -0.2241 -1.9907
 1557Sol     MW10238   2.651   1.718   3.476  0.0977  0.0494  0.0224
 1558Sol     OW10239   2.766   3.067   3.891 -0.0888 -0.0058  0.1144
 1558Sol     HW10240   2.837   3.061   3.954  0.3522 -1.8481 -0.5211
 1558Sol     HW10241   2.745   3.160   3.886 -0.4009  0.1331  3.2477
 1558Sol     MW10242   2.770   3.074   3.896  0.3736  0.0231 -0.1080
 1559Sol     OW10243   2.438   3.139   5.769  0.6897 -0.2898  0.3716
 1559Sol     HW10244   2.489   3.151   5.849  0.4761 -2.1346  0.8011
 1559Sol     HW10245   2.495   3.170   5.699  2.7532 -3.0383  0.7558
 1559Sol     MW10246   2.448   3.143   5.769 -0.4122  0.3868  0.0297
 1560Sol     OW10247   2.549   1.942   2.020 -1.0184 -0.3268  0.3037
 1560Sol     HW10248   2.573   1.884   2.092  1.3271 -0.8474 -0.8323
 1560Sol     HW10249   2.546   1.885   1.943 -0.9683  0.6506 -0.4290
 1560Sol     MW10250   2.551   1.932   2.020 -0.0191 -0.2204  0.1708
 1561Sol     OW10251   1.126   0.562   2.069  0.2457 -0.1890  0.1335
 1561Sol     HW10252   1.185   0.590   2.139 -0.2652 -1.5328  1.1006
 1561Sol     HW10253   1.084   0.643   2.040  1.0454  0.4851  0.8264
 1561Sol     MW10254   1.128   0.572   2.072 -0.2770 -0.1402 -0.3939
 1562Sol     OW10255   1.579   1.291   2.796 -0.1406  0.2639  0.3199
 1562Sol     HW10256   1.525   1.323   2.868 -0.0480 -0.5307  0.7432
 1562Sol     HW10257   1.516   1.253   2.735 -0.4564  2.8371 -1.0733
 1562Sol     MW10258   1.568   1.291   2.797  0.2479 -0.6853  0.6514
 1563Sol     OW10259   0.136   2.974   2.076  0.3710  0.2152 -0.1494
 1563Sol     HW10260   0.117   3.055   2.124 -1.8005 -0.1702 -0.2852
 1563Sol     HW10261   0.228   2.982   2.052  0.2913  2.5070  0.1246
 1563Sol     MW10262   0.142   2.982   2.078  0.4704  0.4110  0.0236
 1564Sol     OW10263   3.122   1.116   6.003  0.0248  0.1348  0.1382
 1564Sol     HW10264   3.051   1.180   5.999 -0.5487 -0.5049  0.1116
 1564Sol     HW10265   3.200   1.169   6.025  0.0829  1.2135 -2.5428
 1564Sol     MW10266   3.123   1.127   6.005  0.1962 -0.4957 -0.4681
 1565Sol     OW10267   3.306   2.475   4.447  0.5631 -0.0730  0.3217
 1565Sol     HW10268   3.257   2.522   4.379  0.8231  1.5135  1.1884
 1565Sol     HW10269   3.364   2.417   4.398 -0.8941 -0.6439 -0.7478
 1565Sol     MW10270   3.307   2.474   4.436  0.4223  0.0297 -0.2334
 1566Sol     OW10271   2.918   3.012   2.430 -0.2275 -0.3910  0.5254
 1566Sol     HW10272   2.838   3.006   2.483 -0.2851  0.9072  0.5935
 1566Sol     HW10273   2.957   2.925   2.437 -1.2353 -0.8115  1.1227
 1566Sol     MW10274   2.914   3.003   2.436 -0.0557 -0.4575  0.3179
 1567Sol     OW10275   0.426   1.010   4.412 -0.2606 -0.1844  0.3563
 1567Sol     HW10276   0.458   1.093   4.377  0.9770 -0.7548  0.1062
 1567Sol     HW10277   0.333   1.010   4.392  0.2115  0.0187 -1.9123
 1567Sol     MW10278   0.421   1.017   4.407  0.2417 -0.5045  0.0277
 1568Sol     OW10279   1.177   3.088   6.867  0.1004 -0.0121 -0.6932
 1568Sol     HW10280   1.089   3.119   6.843  0.7754  1.0233 -1.8580
 1568Sol     HW10281   1.163   3.041   6.950 -1.4709  0.5770 -0.5920
 1568Sol     MW10282   1.168   3.087   6.873  0.5153  0.7604  0.2692
 1569Sol     OW10283   3.522   0.710   3.501  0.4171  0.3737 -0.3072
 1569Sol     HW10284   3.524   0.744   3.412 -2.9660 -0.7491 -0.9090
 1569Sol     HW10285   3.579   0.633   3.499 -0.3537 -0.1712 -1.7692
 1569Sol     MW10286   3.527   0.706   3.493  1.2032  0.1558 -0.6092
 1570Sol     OW10287   3.081   1.070   2.077  0.2751  0.3308 -0.6605
 1570Sol     HW10288   2.996   1.071   2.122  0.7299  0.1518  0.2052
 1570Sol     HW10289   3.116   0.983   2.093  1.2733  0.8797  0.2259
 1570Sol     MW10290   3.076   1.062   2.083 -0.6762 -0.2208  0.0580
 1571Sol     OW10291   3.485   2.890   5.234  0.1325  0.5444  0.1956
 1571Sol     HW10292   3.576   2.889   5.203 -0.2970 -0.7433 -1.0452
 1571Sol     HW10293   3.493   2.888   5.329  1.4115 -3.2301  0.0942
 1571Sol     MW10294   3.494   2.889   5.240 -0.7987  0.5773  0.0837
 1572Sol     OW10295   1.195   3.191   5.062 -0.6883 -0.1858  0.8675
 1572Sol     HW10296   1.105   3.195   5.095 -1.7219  0.0570 -1.8748
 1572Sol     HW10297   1.213   3.097   5.054 -1.2482 -0.2305  0.0298
 1572Sol     MW10298   1.188   3.183   5.064 -0.6394 -0.3666 -0.2372
 1573Sol     OW10299   3.845   2.046   5.684  0.0742  0.0292  0.3735
 1573Sol     HW10300   3.914   1.999   5.637 -0.0977  0.1192  0.0334
 1573Sol     HW10301   3.854   2.016   5.775  0.6570  0.1550  0.3634
 1573Sol     MW10302   3.852   2.039   5.688  0.1294 -0.2938 -1.0068
 1574Sol     OW10303   1.199   3.215   2.966  0.0149  0.0817 -0.1782
 1574Sol     HW10304   1.138   3.288   2.958 -0.2129 -0.0035  0.7502
 1574Sol     HW10305   1.152   3.150   3.018  0.8081 -0.0938  0.3244
 1574Sol     MW10306   1.189   3.216   2.970  0.4313 -0.2654 -0.4482
 1575Sol     OW10307   1.574   0.541   6.199  0.2473 -0.8813 -0.1691
 1575Sol     HW10308   1.595   0.451   6.223  0.2088 -0.0287  3.3870
 1575Sol     HW10309   1.483   0.538   6.172 -1.1136 -1.2837  4.1378
 1575Sol     MW10310   1.568   0.533   6.199 -0.5126  0.2498 -0.3928
 1576Sol     OW10311   0.406   1.140   3.706 -0.2246 -0.5858 -0.2846
 1576Sol     HW10312   0.370   1.219   3.666  1.8206  0.9513  0.8100
 1576Sol     HW10313   0.450   1.171   3.785  0.1659 -2.8937  0.4508
 1576Sol     MW10314   0.407   1.149   3.710 -0.1843  0.3233  0.5465
 1577Sol     OW10315   0.037   3.209   1.557 -0.5390  0.1228 -0.2189
 1577Sol     HW10316   0.098   3.249   1.619 -0.3952 -0.5665  0.0867
 1577Sol     HW10317   0.030   3.272   1.486 -0.6011  0.8596  0.4343
 1577Sol     MW10318   0.042   3.218   1.556  0.2453 -0.6728  0.1651
 1578Sol     OW10319   1.553   1.412   1.786 -0.3955  0.3157 -0.1464
 1578Sol     HW10320   1.581   1.441   1.873  0.4221 -0.6784 -0.0613
 1578Sol     HW10321   1.500   1.334   1.803 -1.6812  1.0997 -0.4374
 1578Sol     MW10322   1.551   1.407   1.795 -0.3769 -0.4133 -0.3224
 1579Sol     OW10323   3.378   0.262   2.379 -0.6385 -0.4136 -0.0762
 1579Sol     HW10324   3.395   0.266   2.473  0.3972 -2.1338 -0.1612
 1579Sol     HW10325   3.465   0.249   2.339 -1.2240 -1.2349 -1.1326
 1579Sol     MW10326   3.388   0.261   2.383  0.5217  0.5832  0.7551
 1580Sol     OW10327   2.854   3.767   4.366  0.2491  0.0320  0.3113
 1580Sol     HW10328   2.945   3.740   4.379  0.3946  0.7225  0.7355
 1580Sol     HW10329   2.809   3.736   4.444  0.3903  0.8992  0.7377
 1580Sol     MW10330   2.858   3.762   4.374  0.6262  0.4155 -0.6367
 1581Sol     OW10331   2.028   0.377   2.094 -0.3547 -0.1597  0.2149
 1581Sol     HW10332   1.951   0.354   2.042  0.9100 -1.9027 -0.9468
 1581Sol     HW10333   2.102   0.366   2.033  0.9568 -0.2187  1.7896
 1581Sol     MW10334   2.028   0.374   2.083  0.0469  0.2762 -0.0860
 1582Sol     OW10335   0.356   0.886   5.994  0.0113 -0.7803  0.1275
 1582Sol     HW10336   0.365   0.858   5.903 -0.2130 -2.1083  0.5068
 1582Sol     HW10337   0.396   0.816   6.045 -0.6542 -0.4710  1.0909
 1582Sol     MW10338   0.360   0.877   5.990 -0.3250 -0.3794  0.0322
 1583Sol     OW10339   2.566   3.203   2.671 -0.2088 -0.0362  0.0056
 1583Sol     HW10340   2.579   3.231   2.580  0.5128 -1.5322 -0.3545
 1583Sol     HW10341   2.525   3.117   2.664 -0.8713  0.1834  1.1112
 1583Sol     MW10342   2.563   3.198   2.662 -0.1511  0.0895  0.0983
 1584Sol     OW10343   2.044   1.937   4.951  0.0935  0.3487 -0.0243
 1584Sol     HW10344   1.979   1.988   4.999 -0.0530  1.1859 -1.1004
 1584Sol     HW10345   2.055   1.983   4.868  2.5171  0.5634  0.3727
 1584Sol     MW10346   2.039   1.946   4.947 -0.4277 -0.0782 -0.3353
 1585Sol     OW10347   3.253   1.181   2.838 -0.1680  0.2332  0.5208
 1585Sol     HW10348   3.319   1.171   2.769 -2.1362  0.0213 -1.4100
 1585Sol     HW10349   3.219   1.092   2.851 -1.5407  0.6529 -0.0571
 1585Sol     MW10350   3.256   1.172   2.833  1.2568 -0.1643  0.4145
 1586Sol     OW10351   1.633   2.536   3.022  0.0681 -0.0929 -0.0204
 1586Sol     HW10352   1.591   2.582   3.095 -1.1556 -2.5763  0.9121
 1586Sol     HW10353   1.725   2.563   3.027 -0.4938  1.8072  0.8011
 1586Sol     MW10354   1.637   2.543   3.029 -0.2086  0.1123  0.2168
 1587Sol     OW10355   1.534   1.018   6.644  0.0769 -0.0184 -0.1430
 1587Sol     HW10356   1.621   1.017   6.606 -0.5166 -0.0985 -1.5362
 1587Sol     HW10357   1.523   1.107   6.677  0.2967  0.2848 -0.8875
 1587Sol     MW10358   1.540   1.026   6.644 -0.4926 -0.2777 -0.1225
 1588Sol     OW10359   2.362   0.609   4.955 -0.8223  0.1326  0.5235
 1588Sol     HW10360   2.294   0.542   4.961  1.2142 -2.2055 -1.4583
 1588Sol     HW10361   2.377   0.619   4.861 -1.1365  3.4808  0.7643
 1588Sol     MW10362   2.357   0.604   4.947 -0.0414 -0.4687  0.1587
 1589Sol     OW10363   0.583   2.367   6.146 -0.5632  0.1157 -0.1814
 1589Sol     HW10364   0.643   2.393   6.216 -0.7261  0.2089 -0.0756
 1589Sol     HW10365   0.637   2.320   6.083 -0.2371  0.8161 -0.4281
 1589Sol     MW10366   0.593   2.365   6.147  0.3026 -0.1581  0.6455
 1590Sol     OW10367   3.014   2.674   3.915  0.0571 -0.3955 -0.0525
 1590Sol     HW10368   2.965   2.678   3.833  0.6859  0.8016 -0.3785
 1590Sol     HW10369   3.033   2.581   3.926 -0.4451 -0.6263 -1.0246
 1590Sol     MW10370   3.011   2.666   3.908  0.6325 -0.3067  0.2136
 1591Sol     OW10371   2.359   1.493   1.718  0.1520  0.2159  0.2679
 1591Sol     HW10372   2.301   1.519   1.647 -1.4212 -0.1995  1.3864
 1591Sol     HW10373   2.403   1.414   1.686  0.7522  1.0197 -0.9090
 1591Sol     MW10374   2.358   1.488   1.709 -0.1856  0.1602  0.1585
 1592Sol     OW10375   0.182   0.089   5.928 -0.2570 -0.4040 -0.1577
 1592Sol     HW10376   0.089   0.076   5.947 -0.4587  0.5493 -0.4681
 1592Sol     HW10377   0.207   0.011   5.879 -1.0985 -0.2709 -0.8076
 1592Sol     MW10378   0.176   0.081   5.926 -0.5046  0.4809 -0.0033
 1593Sol     OW10379   3.064   2.721   2.750 -0.5179 -0.4256 -0.2390
 1593Sol     HW10380   3.093   2.661   2.819 -1.0372  1.2410  1.4603
 1593Sol     HW10381   2.969   2.719   2.754 -0.5370  1.2752  0.5296
 1593Sol     MW10382   3.058   2.716   2.756 -0.2013 -1.0255 -0.0325
 1594Sol     OW10383   1.440   1.004   4.403  0.1202 -0.0356  0.0176
 1594Sol     HW10384   1.368   0.941   4.410  0.6365 -0.5105  1.1313
 1594Sol     HW10385   1.465   1.023   4.493  2.2014 -0.8314 -0.3506
 1594Sol     MW10386   1.436   1.000   4.411 -0.5536  0.3313 -0.3782
 1595Sol     OW10387   0.206   3.730   2.530 -0.3176  0.2882  0.3256
 1595Sol     HW10388   0.288   3.780   2.531 -0.0477 -0.1644  1.9047
 1595Sol     HW10389   0.150   3.775   2.593 -0.5138 -0.6766  0.8466
 1595Sol     MW10390   0.209   3.738   2.535 -0.1986 -0.2829 -0.5096
 1596Sol     OW10391   0.200   2.697   2.735  0.3702  0.3317 -0.4055
 1596Sol     HW10392   0.206   2.608   2.769 -0.0587 -0.1182 -1.4884
 1596Sol     HW10393   0.284   2.712   2.690  0.3504  0.3911 -0.4234
 1596Sol     MW10394   0.208   2.691   2.734 -0.0027  0.4715 -0.0352
 1597Sol     OW10395   0.146   3.722   4.221  0.1395 -0.4287  0.0534
 1597Sol     HW10396   0.217   3.754   4.165 -0.5569  0.3525 -0.3884
 1597Sol     HW10397   0.156   3.627   4.220 -0.1885 -0.4699 -1.8478
 1597Sol     MW10398   0.153   3.716   4.216 -0.2775 -0.3279 -0.0849
 1598Sol     OW10399   2.004   2.124   4.428 -0.2458  0.6111 -0.2458
 1598Sol     HW10400   2.022   2.192   4.493 -1.8649  0.7794  0.0502
 1598Sol     HW10401   2.023   2.042   4.474  0.7282  0.8165 -0.2751
 1598Sol     MW10402   2.007   2.123   4.438  0.1967  0.1198 -0.4859
 1599Sol     OW10403   1.829   2.105   4.728 -0.3194 -0.1753 -0.1900
 1599Sol     HW10404   1.850   2.015   4.705  0.1814 -0.3774  1.0136
 1599Sol     HW10405   1.736   2.102   4.751 -0.1927 -0.4898  0.3010
 1599Sol     MW10406   1.822   2.096   4.728 -0.1095 -0.2618 -0.4997
 1600Sol     OW10407   1.528   2.731   2.615  0.4597  0.2464  0.2471
 1600Sol     HW10408   1.550   2.673   2.687 -0.1780 -0.9431 -0.5051
 1600Sol     HW10409   1.448   2.775   2.643  1.6434  1.7581  1.3675
 1600Sol     MW10410   1.523   2.730   2.624  0.0663  0.0293  0.3675
 1601Sol     OW10411   2.299   3.399   4.845  0.2277 -0.1800 -0.5946
 1601Sol     HW10412   2.309   3.319   4.895 -0.1882 -0.5671 -1.1251
 1601Sol     HW10413   2.208   3.426   4.860  0.3650  0.1915 -0.4195
 1601Sol     MW10414   2.292   3.395   4.851  0.2511 -0.1480  0.6528
 1602Sol     OW10415   2.597   1.995   5.908  0.2658 -0.8270 -0.3413
 1602Sol     HW10416   2.535   1.961   5.973 -0.1524 -0.7111 -0.6790
 1602Sol     HW10417   2.564   1.961   5.824  0.3812 -0.3626 -0.5738
 1602Sol     MW10418   2.588   1.989   5.906  0.1323  0.5523 -0.7319
 1603Sol     OW10419   3.906   3.249   1.772  0.1100 -0.3660  0.3723
 1603Sol     HW10420   3.940   3.241   1.682 -1.5946 -0.6630 -0.2598
 1603Sol     HW10421   3.926   3.164   1.812 -1.0381 -1.0413 -0.4253
 1603Sol     MW10422   3.911   3.240   1.767  0.3428 -0.5313 -0.0118
 1604Sol     OW10423   2.886   1.362   3.727  0.0178 -0.1492 -0.1250
 1604Sol     HW10424   2.857   1.329   3.813 -2.3230 -1.6601 -1.4178
 1604Sol     HW10425   2.821   1.429   3.705 -0.7943 -1.4268 -1.7240
 1604Sol     MW10426   2.877   1.365   3.733 -0.3778 -0.4293  0.4614
 1605Sol     OW10427   0.396   0.155   6.429  0.3144 -0.5301  0.3946
 1605Sol     HW10428   0.413   0.179   6.520 -0.1801  0.7590  0.1511
 1605Sol     HW10429   0.334   0.220   6.398  1.3608 -0.2632 -1.2024
 1605Sol     MW10430   0.392   0.163   6.434  0.2333 -0.1520 -0.5642
 1606Sol     OW10431   2.211   1.125   2.085 -0.1928  0.1770  0.2314
 1606Sol     HW10432   2.181   1.034   2.085 -0.6584  0.3315 -0.1197
 1606Sol     HW10433   2.228   1.145   2.177 -0.2736 -0.2021  0.3285
 1606Sol     MW10434   2.210   1.118   2.093 -0.0576  0.2240 -0.3458
 1607Sol     OW10435   3.067   2.518   6.837 -0.1447 -0.3010 -0.2543
 1607Sol     HW10436   2.973   2.514   6.817 -0.2537  1.7855 -0.2951
 1607Sol     HW10437   3.102   2.437   6.800 -1.8390 -0.8397 -0.7621
 1607Sol     MW10438   3.061   2.510   6.832  0.1539  0.2310  0.1922
 1608Sol     OW10439   3.641   2.068   6.317 -0.6121 -0.1577  0.8950
 1608Sol     HW10440   3.699   2.104   6.250  0.0200 -3.4256 -0.3834
 1608Sol     HW10441   3.564   2.037   6.269 -0.9619 -0.8810  1.9009
 1608Sol     MW10442   3.639   2.068   6.307  0.2055  0.2378 -0.4683
 1609Sol     OW10443   0.320   1.393   3.608  0.8972  0.4191 -0.0679
 1609Sol     HW10444   0.382   1.452   3.566 -0.6751  0.1685 -2.8485
 1609Sol     HW10445   0.249   1.383   3.544 -0.8291 -1.2326  2.0251
 1609Sol     MW10446   0.319   1.398   3.599  0.2876  0.1851 -0.1601
 1610Sol     OW10447   3.275   2.568   3.352  0.1110  0.3679 -0.1420
 1610Sol     HW10448   3.352   2.594   3.303  0.3742  2.8959  1.4923
 1610Sol     HW10449   3.201   2.601   3.301  0.3358  1.8649  0.4532
 1610Sol     MW10450   3.275   2.573   3.343 -0.6622 -0.5296 -0.7976
 1611Sol     OW10451   0.064   1.164   2.770  0.2078 -0.2050 -0.6567
 1611Sol     HW10452   0.087   1.103   2.841  1.1190 -0.1210 -0.8725
 1611Sol     HW10453   0.129   1.234   2.777 -0.0810  0.1152 -1.1938
 1611Sol     MW10454   0.072   1.165   2.777  0.0300  0.1830 -0.7488
 1612Sol     OW10455   3.052   1.950   1.641  0.2619  0.2832 -0.3407
 1612Sol     HW10456   3.097   1.909   1.715 -0.1606  0.7020  0.1520
 1612Sol     HW10457   3.120   1.998   1.595  0.1498  1.6882  0.9383
 1612Sol     MW10458   3.062   1.950   1.643  0.1499  0.3592  0.2329
 1613Sol     OW10459   3.422   2.006   6.163  0.2002 -0.2610  0.1678
 1613Sol     HW10460   3.371   2.048   6.093  2.9432  0.4585 -1.4898
 1613Sol     HW10461   3.388   1.917   6.167 -1.4888  0.3172 -0.5666
 1613Sol     MW10462   3.414   2.002   6.157 -0.1338  0.3668 -0.6934
 1614Sol     OW10463   1.556   2.196   6.016 -0.2682  0.4431  0.3489
 1614Sol     HW10464   1.623   2.131   5.994 -0.4368  0.4103 -0.0658
 1614Sol     HW10465   1.573   2.217   6.108 -0.8646 -0.9705  0.8055
 1614Sol     MW10466   1.564   2.192   6.023 -0.2942  0.2142  0.3222
 1615Sol     OW10467   2.861   2.922   3.679 -0.2569 -0.0064 -0.4931
 1615Sol     HW10468   2.815   2.967   3.749  0.1820 -0.0793 -0.1608
 1615Sol     HW10469   2.832   2.831   3.686  0.7412 -0.2572  0.3702
 1615Sol     MW10470   2.854   2.918   3.686  0.1525  0.4228  0.5173
 1616Sol     OW10471   2.350   0.562   6.522  0.0179  0.0716 -0.1537
 1616Sol     HW10472   2.420   0.587   6.582 -1.1375  1.0212  0.8332
 1616Sol     HW10473   2.269   0.579   6.571 -0.9592  0.9694 -2.0164
 1616Sol     MW10474   2.349   0.566   6.532  0.1236  0.1483 -0.8926
 1617Sol     OW10475   1.792   0.628   6.405  0.3173 -0.1193 -0.0945
 1617Sol     HW10476   1.746   0.620   6.489  0.3487  2.0127  0.1685
 1617Sol     HW10477   1.727   0.602   6.339 -0.2563 -0.1523  0.4818
 1617Sol     MW10478   1.782   0.625   6.406  0.8924  0.0179 -0.1385
 1618Sol     OW10479   3.167   1.364   4.255  0.0831 -0.0948 -0.5895
 1618Sol     HW10480   3.076   1.388   4.236  0.8204  2.0752 -1.5659
 1618Sol     HW10481   3.183   1.286   4.202 -0.7256  0.4736 -1.6841
 1618Sol     MW10482   3.160   1.359   4.248  0.3362 -0.8559 -0.4090
 1619Sol     OW10483   0.029   4.170   4.294 -0.2976 -0.5940 -0.4567
 1619Sol     HW10484   0.025   4.088   4.244  0.2696 -0.7276 -0.2841
 1619Sol     HW10485   0.087   4.226   4.243 -1.7903  0.2089 -1.3068
 1619Sol     MW10486   0.034   4.167   4.285 -0.1638 -0.6314  0.1072
 1620Sol     OW10487   1.907   0.592   3.044 -0.2395  0.3210  0.6013
 1620Sol     HW10488   1.828   0.635   3.012 -0.9098 -1.7707 -0.5932
 1620Sol     HW10489   1.910   0.508   2.999  2.6299  0.3169  0.6741
 1620Sol     MW10490   1.901   0.588   3.037 -0.7770 -0.0202  0.4926
 1621Sol     OW10491   0.462   1.048   3.023 -0.4512 -0.2840  0.2112
 1621Sol     HW10492   0.455   1.071   3.116 -0.4963 -0.2299  0.1944
 1621Sol     HW10493   0.518   0.970   3.021  2.7035  1.8590  0.0268
 1621Sol     MW10494   0.467   1.043   3.031 -0.1297  0.4768  0.2806
 1622Sol     OW10495   3.332   1.705   1.881 -0.0059 -0.5102  0.6640
 1622Sol     HW10496   3.327   1.639   1.951  0.3077  0.8618  2.0016
 1622Sol     HW10497   3.250   1.753   1.887 -0.2031 -0.7197 -0.2668
 1622Sol     MW10498   3.324   1.703   1.888  0.8922 -0.8152 -0.9448
 1623Sol     OW10499   3.011   3.679   5.283 -1.0505 -0.4094  0.6321
 1623Sol     HW10500   3.000   3.771   5.260  2.0541  0.1927  1.3051
 1623Sol     HW10501   3.045   3.639   5.203  0.1490 -0.4093  1.1389
 1623Sol     MW10502   3.013   3.684   5.274  0.0613 -0.3601  0.6001
 1624Sol     OW10503   3.412   0.840   2.603  0.1086 -0.2950 -0.0760
 1624Sol     HW10504   3.484   0.797   2.558  0.1137 -1.7576  1.3044
 1624Sol     HW10505   3.335   0.788   2.580 -0.1283 -0.1553  0.4047
 1624Sol     MW10506   3.411   0.831   2.597  0.4146 -0.2844  0.8432
 1625Sol     OW10507   3.937   1.470   5.043 -0.2843  0.1737  0.2099
 1625Sol     HW10508   3.948   1.557   5.080 -0.0298  0.5340 -0.7088
 1625Sol     HW10509   4.024   1.444   5.014 -0.3833 -0.3283  0.3496
 1625Sol     MW10510   3.946   1.475   5.044  0.0726 -0.7289 -0.2142
 1626Sol     OW10511   1.901   3.115   6.095 -0.1301  0.5462  0.0820
 1626Sol     HW10512   1.852   3.151   6.021 -0.2126  3.4466  1.4825
 1626Sol     HW10513   1.968   3.181   6.114  1.8993 -1.5948  0.6357
 1626Sol     MW10514   1.903   3.124   6.090 -0.2253  0.1270  0.3203
 1627Sol     OW10515   2.108   1.132   4.848 -0.1381 -0.0181  0.1395
 1627Sol     HW10516   2.199   1.157   4.834  1.5400 -4.8498  1.4431
 1627Sol     HW10517   2.090   1.157   4.939 -1.0979  3.4083 -0.9171
 1627Sol     MW10518   2.114   1.136   4.855  0.4453 -0.0401  0.5373
 1628Sol     OW10519   1.936   3.255   3.110 -0.3093  0.7759 -0.2336
 1628Sol     HW10520   1.900   3.278   3.024  0.1554  0.5251 -0.5001
 1628Sol     HW10521   1.880   3.300   3.173  0.4991  2.5116 -0.7327
 1628Sol     MW10522   1.928   3.261   3.108 -0.3566  0.1805  0.6916
 1629Sol     OW10523   0.395   3.881   1.602 -0.3202  0.0546 -0.3851
 1629Sol     HW10524   0.374   3.882   1.695 -0.0535 -0.6735 -0.3112
 1629Sol     HW10525   0.312   3.859   1.558 -0.2760 -0.3287 -0.2720
 1629Sol     MW10526   0.386   3.879   1.606 -0.0411 -0.2658  0.2179
 1630Sol     OW10527   2.480   1.446   3.598  0.2885  0.2232 -0.4789
 1630Sol     HW10528   2.439   1.473   3.516 -0.0842  0.4997 -0.2078
 1630Sol     HW10529   2.518   1.361   3.580 -0.7147 -0.2014 -0.6482
 1630Sol     MW10530   2.479   1.441   3.589 -0.5265  0.5933  0.2320
 1631Sol     OW10531   1.674   4.129   3.472  0.2448  0.0381  0.4845
 1631Sol     HW10532   1.746   4.083   3.428  0.6265 -0.3346  1.4721
 1631Sol     HW10533   1.601   4.122   3.411  0.2034 -2.1636  0.7182
 1631Sol     MW10534   1.674   4.124   3.463 -0.7214 -0.3053  0.5846
 1632Sol     OW10535   1.989   1.874   4.553  1.3048 -0.2177  0.3708
 1632Sol     HW10536   2.039   1.817   4.613  0.5751  0.4983  1.6878
 1632Sol     HW10537   1.927   1.815   4.510  2.8457 -1.0075 -0.8172
 1632Sol     MW10538   1.988   1.864   4.555  0.4713 -0.1584 -0.3738
 1633Sol     OW10539   3.894   0.562   3.102 -0.3463  0.2634 -0.0030
 1633Sol     HW10540   3.987   0.551   3.085 -0.2490  1.2686 -0.1423
 1633Sol     HW10541   3.876   0.654   3.082 -1.5929 -0.1885 -1.0322
 1633Sol     MW10542   3.901   0.569   3.099  1.0692 -0.0628  0.1758
 1634Sol     OW10543   3.367   0.336   2.629  0.1490 -0.2017 -0.0941
 1634Sol     HW10544   3.437   0.328   2.694  0.4191 -0.3871 -0.4061
 1634Sol     HW10545   3.347   0.429   2.626  0.2469 -0.1720  0.1350
 1634Sol     MW10546   3.371   0.344   2.635 -0.1536  0.5117 -0.2611
 1635Sol     OW10547   0.528   0.173   3.536  0.2045  0.1113 -0.1309
 1635Sol     HW10548   0.504   0.248   3.481 -1.1088  0.4605  0.8971
 1635Sol     HW10549   0.601   0.205   3.590 -1.3522  1.1641  1.3964
 1635Sol     MW10550   0.532   0.182   3.536 -0.6523 -0.4381  0.2666
 1636Sol     OW10551   3.837   3.291   4.754 -0.1870  0.5903  0.6833
 1636Sol     HW10552   3.806   3.316   4.841  5.3118 -1.0858  3.3479
 1636Sol     HW10553   3.853   3.375   4.710 -0.1832  1.5362  2.4327
 1636Sol     MW10554   3.836   3.301   4.758  0.5695 -0.1184 -0.2195
 1637Sol     OW10555   1.802   1.444   1.667  0.1610 -0.0542  0.3291
 1637Sol     HW10556   1.819   1.524   1.717 -0.1449 -0.3552  0.9097
 1637Sol     HW10557   1.716   1.414   1.696  0.2118 -0.5200  0.0113
 1637Sol     MW10558   1.796   1.448   1.674 -0.3875  0.3468  0.1718
 1638Sol     OW10559   3.102   2.787   4.904  0.3164 -0.2390  0.5969
 1638Sol     HW10560   3.142   2.744   4.828  0.2162  1.0145 -0.1699
 1638Sol     HW10561   3.051   2.717   4.946  0.5238 -0.9900 -0.3752
 1638Sol     MW10562   3.101   2.777   4.901  0.2364 -0.1570  0.5703
 1639Sol     OW10563   2.698   1.751   2.445  0.1642 -0.3967  0.1782
 1639Sol     HW10564   2.618   1.784   2.485 -1.4299 -0.4466 -2.8181
 1639Sol     HW10565   2.763   1.753   2.515 -1.7572  2.1690  1.9681
 1639Sol     MW10566   2.696   1.754   2.455 -0.6889  0.2924 -0.6364
 1640Sol     OW10567   1.491   4.096   3.246  0.2959 -0.6415  0.0618
 1640Sol     HW10568   1.404   4.076   3.278  0.8908 -1.3606  1.2736
 1640Sol     HW10569   1.478   4.127   3.156 -1.1626 -1.0199  0.1419
 1640Sol     MW10570   1.482   4.097   3.241  0.3186 -0.0619  0.0976
 1641Sol     OW10571   1.511   2.220   4.408  0.2557  0.1091 -0.3149
 1641Sol     HW10572   1.481   2.147   4.462  0.4888 -0.0652 -0.4203
 1641Sol     HW10573   1.435   2.278   4.402  0.9442  1.3750  2.3163
 1641Sol     MW10574   1.502   2.219   4.412 -0.6930  0.3649  0.4643
 1642Sol     OW10575   1.073   3.734   6.557  0.4152 -0.0327  0.2567
 1642Sol     HW10576   1.055   3.776   6.473  1.2781 -0.3097 -0.0732
 1642Sol     HW10577   1.167   3.717   6.555  0.6672  1.0923  1.7965
 1642Sol     MW10578   1.080   3.736   6.549 -0.0484 -0.2619  0.2292
 1643Sol     OW10579   3.001   0.568   2.030  0.4181  0.1415  0.0084
 1643Sol     HW10580   2.975   0.554   2.121  1.6140  2.8611  0.7901
 1643Sol     HW10581   2.974   0.487   1.986 -2.9759  0.0102  2.1382
 1643Sol     MW10582   2.996   0.559   2.034 -0.1157 -0.6832  0.1687
 1644Sol     OW10583   0.762   3.600   4.173  0.2153  0.2803  0.1855
 1644Sol     HW10584   0.849   3.562   4.162  0.3689  0.5799  0.3799
 1644Sol     HW10585   0.776   3.695   4.170 -0.1231  0.3278  0.0603
 1644Sol     MW10586   0.771   3.605   4.171  0.1790 -0.3294 -0.4838
 1645Sol     OW10587   0.985   0.363   5.544  0.1241  0.0784  0.3354
 1645Sol     HW10588   0.910   0.415   5.573  1.2715  2.2701 -0.4873
 1645Sol     HW10589   0.986   0.374   5.449  1.1897 -0.3337  0.2938
 1645Sol     MW10590   0.979   0.369   5.538  0.6068 -0.4130  0.0935
 1646Sol     OW10591   0.976   2.171   6.463  0.3907 -0.5326 -0.4715
 1646Sol     HW10592   0.968   2.219   6.380  0.0314  0.9258  0.3834
 1646Sol     HW10593   0.923   2.092   6.450 -0.5053  0.1818 -1.2788
 1646Sol     MW10594   0.971   2.169   6.454  0.1343  0.7221  0.1622
 1647Sol     OW10595   0.707   0.989   2.762 -0.5797  0.1758 -0.2559
 1647Sol     HW10596   0.732   1.051   2.693 -0.2877  0.5891  0.2176
 1647Sol     HW10597   0.678   0.911   2.714 -1.4258  0.8568 -0.8661
 1647Sol     MW10598   0.707   0.987   2.751  0.1764  0.3130  0.1464
 1648Sol     OW10599   3.424   2.249   2.926 -0.1371  0.5644  0.4860
 1648Sol     HW10600   3.341   2.223   2.966 -1.2819  3.2281 -0.0133
 1648Sol     HW10601   3.427   2.202   2.843 -1.1356  0.4099  0.5307
 1648Sol     MW10602   3.417   2.243   2.922 -0.1169 -0.9402  0.1082
 1649Sol     OW10603   3.856   2.306   5.732  0.5721 -0.2014  0.0035
 1649Sol     HW10604   3.841   2.211   5.733  0.1686 -0.1368  1.8477
 1649Sol     HW10605   3.773   2.343   5.702  0.7991 -0.4372 -0.9268
 1649Sol     MW10606   3.848   2.300   5.729 -0.4725 -0.6659  0.1333
 1650Sol     OW10607   3.981   2.895   6.128  0.2463  0.1101 -0.9154
 1650Sol     HW10608   3.956   2.979   6.166 -0.2011 -1.4962  2.5788
 1650Sol     HW10609   4.075   2.887   6.146  0.2447 -0.2229 -1.0366
 1650Sol     MW10610   3.987   2.902   6.133  0.0778  0.1417  0.0332
 1651Sol     OW10611   2.657   0.096   5.956  0.2767  0.3528  0.3455
 1651Sol     HW10612   2.565   0.092   5.928  0.4555 -2.6994  0.0529
 1651Sol     HW10613   2.702   0.144   5.887 -0.7352  0.0716 -0.5151
 1651Sol     MW10614   2.652   0.100   5.948  0.2936 -0.0623 -0.1685
 1652Sol     OW10615   1.698   3.633   5.591 -0.4675  0.0032  0.2387
 1652Sol     HW10616   1.692   3.559   5.531 -2.4626 -0.8885  1.4802
 1652Sol     HW10617   1.745   3.599   5.667  1.3403  0.9023 -0.4480
 1652Sol     MW10618   1.702   3.624   5.592 -0.3789  0.2100  0.2524
 1653Sol     OW10619   0.063   0.700   4.940  0.6282 -0.5102 -0.1756
 1653Sol     HW10620   0.021   0.685   4.856 -2.0056  1.2283  0.7584
 1653Sol     HW10621   0.080   0.794   4.942  1.1078 -0.6135  1.0050
 1653Sol     MW10622   0.060   0.707   4.933  0.2877 -0.9739  0.5471
 1654Sol     OW10623   1.431   3.765   1.659 -0.1978 -0.0760  0.1239
 1654Sol     HW10624   1.392   3.777   1.573  0.1081 -0.0500 -0.0116
 1654Sol     HW10625   1.357   3.768   1.720 -0.4424 -0.3421 -0.1585
 1654Sol     MW10626   1.421   3.766   1.657 -0.0725  0.0999 -0.0690
 1655Sol     OW10627   1.548   2.766   1.858  0.2043 -0.2594 -0.0317
 1655Sol     HW10628   1.576   2.764   1.950  1.3485  1.1450 -0.3256
 1655Sol     HW10629   1.615   2.819   1.814  0.2686 -1.8418 -1.8894
 1655Sol     MW10630   1.557   2.771   1.862  0.5743 -0.2376 -0.2217
 1656Sol     OW10631   3.162   1.123   5.444 -0.4900 -0.0758 -0.1819
 1656Sol     HW10632   3.211   1.076   5.512 -1.3358  0.3727  0.7635
 1656Sol     HW10633   3.226   1.138   5.374  0.4492 -0.3978  0.5909
 1656Sol     MW10634   3.172   1.120   5.444  0.3650  0.2010 -0.0206
 1657Sol     OW10635   3.328   0.005   6.819 -0.6147  0.0311 -0.3453
 1657Sol     HW10636   3.281   0.049   6.748 -0.2816  1.3112  0.2081
 1657Sol     HW10637   3.265   0.003   6.892 -0.2136  0.7260  0.0292
 1657Sol     MW10638   3.318   0.009   6.819 -0.3896  0.0907 -0.3463
 1658Sol     OW10639   1.077   0.278   6.152 -0.1161 -0.3517 -0.4193
 1658Sol     HW10640   1.139   0.351   6.160  0.1858 -0.5257 -1.1080
 1658Sol     HW10641   1.078   0.257   6.059  0.1828 -1.5711 -0.1404
 1658Sol     MW10642   1.083   0.283   6.145  0.6354 -0.6122  0.3935
 1659Sol     OW10643   1.097   3.999   1.659 -0.2699  0.4971  0.3444
 1659Sol     HW10644   1.052   4.082   1.667  0.0354  0.7542 -0.4605
 1659Sol     HW10645   1.111   3.969   1.749 -2.5309  0.1266  0.5895
 1659Sol     MW10646   1.095   4.004   1.667  0.5857  0.0501  0.5232
 1660Sol     OW10647   0.123   0.731   3.989  0.1718  0.3161  0.0001
 1660Sol     HW10648   0.078   0.816   3.997  2.0217  1.0861  2.9431
 1660Sol     HW10649   0.076   0.673   4.049 -0.9943 -0.7676 -1.8968
 1660Sol     MW10650   0.115   0.734   3.995 -0.1427 -0.2884  0.3926
 1661Sol     OW10651   0.597   1.384   6.627  0.3865 -0.5092 -0.6417
 1661Sol     HW10652   0.514   1.420   6.597  1.2917  0.4842 -1.9966
 1661Sol     HW10653   0.611   1.306   6.573  0.9593  0.0449 -1.2901
 1661Sol     MW10654   0.591   1.380   6.620 -0.0484 -0.6142  0.0694
 1662Sol     OW10655   2.001   2.393   4.134  0.5687 -0.0761  0.1140
 1662Sol     HW10656   1.991   2.307   4.093 -1.5548  0.5580 -0.7558
 1662Sol     HW10657   1.938   2.449   4.089  0.6199  1.4977  1.9286
 1662Sol     MW10658   1.995   2.390   4.126  0.5380  0.1600 -0.2223
 1663Sol     OW10659   1.237   0.470   4.085  0.1066 -0.5421  0.1234
 1663Sol     HW10660   1.259   0.379   4.108  1.1628 -0.8126 -1.8504
 1663Sol     HW10661   1.152   0.463   4.041 -0.6294 -0.3524  1.4958
 1663Sol     MW10662   1.232   0.461   4.083 -0.5347  0.1786  0.4243
 1664Sol     OW10663   1.869   1.036   5.717  0.1215  0.3252  0.8139
 1664Sol     HW10664   1.824   0.952   5.727 -0.3104  0.4868  0.2060
 1664Sol     HW10665   1.851   1.083   5.799 -1.1997  0.5699  0.3938
 1664Sol     MW10666   1.863   1.033   5.726 -0.7508 -0.6425  0.2225
 1665Sol     OW10667   0.472   2.512   1.943  0.0871 -0.5483 -0.2523
 1665Sol     HW10668   0.482   2.574   2.015 -1.3337 -0.5983  0.0028
 1665Sol     HW10669   0.541   2.447   1.956  1.0409  0.5016 -0.0350
 1665Sol     MW10670   0.479   2.512   1.950  0.0813 -0.1642  0.3036
 1666Sol     OW10671   2.785   0.869   6.124  0.4406 -0.6722  0.4297
 1666Sol     HW10672   2.767   0.962   6.133  0.9248 -0.5840  0.4919
 1666Sol     HW10673   2.702   0.826   6.148  0.8329 -0.3245  2.4925
 1666Sol     MW10674   2.776   0.873   6.127 -0.2985 -0.9360 -0.2321
 1667Sol     OW10675   1.351   0.824   1.839  0.0258  0.0371 -0.1395
 1667Sol     HW10676   1.264   0.853   1.813  0.0322  0.3953  0.2346
 1667Sol     HW10677   1.363   0.859   1.928  0.1727 -0.8118  0.1789
 1667Sol     MW10678   1.345   0.830   1.845  0.2348  0.1289  0.0799
 1668Sol     OW10679   3.373   2.342   5.437 -0.3881  0.3360  0.4615
 1668Sol     HW10680   3.453   2.390   5.417 -0.0286  0.2034  1.5671
 1668Sol     HW10681   3.321   2.402   5.490 -0.7817  0.2174  0.2123
 1668Sol     MW10682   3.375   2.351   5.440  0.1562  0.4928 -0.5899
 1669Sol     OW10683   0.979   1.527   4.752 -0.2311 -0.3995 -0.1031
 1669Sol     HW10684   1.062   1.483   4.736 -0.0323  0.2415 -0.8238
 1669Sol     HW10685   0.914   1.474   4.705 -0.3899 -1.4998  1.3239
 1669Sol     MW10686   0.980   1.518   4.747 -0.3841  0.2339  0.0915
 1670Sol     OW10687   1.232   2.177   6.581 -0.6886 -0.8555 -0.0129
 1670Sol     HW10688   1.147   2.168   6.536  0.0530  0.5883 -1.7640
 1670Sol     HW10689   1.294   2.195   6.511  0.5061  1.5634  1.5819
 1670Sol     MW10690   1.230   2.178   6.570 -1.1522 -0.4436  0.0908
 1671Sol     OW10691   2.886   1.005   6.404  0.5019 -0.1052  0.2249
 1671Sol     HW10692   2.968   0.975   6.366 -0.1136  0.6740 -1.8256
 1671Sol     HW10693   2.904   1.094   6.433  0.4711 -0.0355  0.0337
 1671Sol     MW10694   2.895   1.010   6.403 -0.0996  0.0648 -0.4544
 1672Sol     OW10695   0.257   0.680   6.201 -0.4480 -0.5742  0.5140
 1672Sol     HW10696   0.279   0.605   6.256  0.6502 -0.5250  0.1617
 1672Sol     HW10697   0.312   0.751   6.234  0.8917 -0.7820 -1.1816
 1672Sol     MW10698   0.264   0.679   6.209  0.2844 -0.1690 -0.5813
 1673Sol     OW10699   2.557   1.489   6.053 -0.7851  0.0150  0.0669
 1673Sol     HW10700   2.466   1.460   6.045 -0.0412 -2.4662  0.0730
 1673Sol     HW10701   2.599   1.460   5.971 -0.1341  1.7490 -0.2477
 1673Sol     MW10702   2.553   1.484   6.045  0.4586  0.0447  0.2234
 1674Sol     OW10703   3.438   1.766   3.432  0.0622 -0.2193 -0.4681
 1674Sol     HW10704   3.476   1.694   3.483  2.6104  1.2672 -0.1808
 1674Sol     HW10705   3.478   1.758   3.345  0.5673  0.9595 -0.3620
 1674Sol     MW10706   3.445   1.759   3.429 -0.0200 -0.3015  0.5708
 1675Sol     OW10707   2.726   2.958   2.223  0.7512  0.5659  0.2852
 1675Sol     HW10708   2.745   2.870   2.190  0.7173  0.7417 -0.2042
 1675Sol     HW10709   2.799   2.977   2.283  0.4747 -0.0087  0.8155
 1675Sol     MW10710   2.734   2.952   2.226  0.5616  0.6725  0.2268
 1676Sol     OW10711   3.740   3.141   5.141  0.3564  0.0931  0.2547
 1676Sol     HW10712   3.665   3.142   5.201 -0.3244 -1.1381 -0.5787
 1676Sol     HW10713   3.737   3.227   5.098 -1.3873 -0.4869 -0.7862
 1676Sol     MW10714   3.733   3.149   5.143  0.2945  0.1535 -0.1070
 1677Sol     OW10715   0.389   3.565   5.031 -0.1596 -0.5073  0.4601
 1677Sol     HW10716   0.470   3.547   5.078  0.5418 -0.4978 -0.7379
 1677Sol     HW10717   0.334   3.489   5.048  0.5467 -1.0528  0.3060
 1677Sol     MW10718   0.391   3.557   5.037 -0.0657 -0.1007  0.2083
 1678Sol     OW10719   0.714   2.721   4.458  0.3638 -0.0479  0.3443
 1678Sol     HW10720   0.648   2.695   4.523 -1.1679  0.9196 -0.8004
 1678Sol     HW10721   0.750   2.638   4.426  0.3515 -0.5625  1.6228
 1678Sol     MW10722   0.711   2.711   4.461 -0.3151  0.2452 -0.2604
 1679Sol     OW10723   3.469   1.485   4.523  0.3001  0.0637 -0.4480
 1679Sol     HW10724   3.468   1.390   4.510  0.7094 -0.1560  1.1033
 1679Sol     HW10725   3.548   1.514   4.479  0.1981 -0.3139 -0.8877
 1679Sol     MW10726   3.476   1.479   4.518  0.2275  0.5397 -0.6549
 1680Sol     OW10727   0.415   0.345   3.347  0.0829 -0.0746  0.4831
 1680Sol     HW10728   0.326   0.349   3.311  0.4032  1.2198 -0.2017
 1680Sol     HW10729   0.430   0.433   3.382  1.1119 -0.2796  0.5608
 1680Sol     MW10730   0.408   0.354   3.347 -0.5529 -0.0543  0.1000
 1681Sol     OW10731   1.889   3.801   6.231  0.6556  0.1924 -0.1540
 1681Sol     HW10732   1.807   3.764   6.266  0.9817  0.1813  0.6236
 1681Sol     HW10733   1.951   3.792   6.304  1.0860  1.0881 -0.4141
 1681Sol     MW10734   1.887   3.797   6.241  0.6007  0.0235  0.0909
 1682Sol     OW10735   2.055   3.829   6.651 -0.3627  0.7090  0.3177
 1682Sol     HW10736   2.091   3.797   6.568 -0.9545 -0.3900  0.4806
 1682Sol     HW10737   2.001   3.757   6.684 -1.0090  1.5432  1.1259
 1682Sol     MW10738   2.053   3.820   6.646  0.3893  0.6044  0.4183
 1683Sol     OW10739   0.983   2.161   4.283 -0.3267 -0.4058 -0.0835
 1683Sol     HW10740   0.996   2.092   4.218  0.6124 -0.1286 -0.1973
 1683Sol     HW10741   1.025   2.238   4.246 -0.0083 -0.1743  0.7342
 1683Sol     MW10742   0.988   2.162   4.274  0.0393 -0.0011 -0.1348
 1684Sol     OW10743   1.498   2.244   3.467  0.1566 -0.0677 -0.3151
 1684Sol     HW10744   1.547   2.165   3.489  0.8793  0.2976 -0.6109
 1684Sol     HW10745   1.489   2.291   3.550 -0.3819 -0.5163 -0.1159
 1684Sol     MW10746   1.501   2.241   3.477  0.4671  0.2103 -0.6280
 1685Sol     OW10747   2.246   1.408   4.055  0.0251  0.0060  0.5615
 1685Sol     HW10748   2.196   1.350   4.113  1.0105 -0.1843  1.2230
 1685Sol     HW10749   2.223   1.378   3.967 -1.0456 -0.0675  0.8499
 1685Sol     MW10750   2.239   1.400   4.052 -0.1104 -0.0389 -0.1950
 1686Sol     OW10751   2.488   3.185   2.987 -0.1192 -0.3612  0.5055
 1686Sol     HW10752   2.460   3.255   2.928  0.1429  0.1065  0.9277
 1686Sol     HW10753   2.504   3.230   3.070  0.5769 -0.8399  0.6328
 1686Sol     MW10754   2.487   3.195   2.989 -0.3176 -0.5460 -0.0004
 1687Sol     OW10755   0.675   3.462   6.105  0.6083  0.2125  0.2615
 1687Sol     HW10756   0.622   3.416   6.040  0.4550 -1.7197  1.6959
 1687Sol     HW10757   0.766   3.439   6.082  0.4608 -2.4002  2.0519
 1687Sol     MW10758   0.679   3.455   6.097  1.0243 -0.1270 -0.0679
 1688Sol     OW10759   1.411   1.077   5.379 -0.4050  0.9189 -0.9665
 1688Sol     HW10760   1.351   1.030   5.322 -0.5309  0.1149 -0.1854
 1688Sol     HW10761   1.375   1.066   5.467  0.8942  0.3752 -0.4799
 1688Sol     MW10762   1.403   1.071   5.382 -0.9513  0.0105  0.2885
 1689Sol     OW10763   3.321   0.599   2.865  0.0949  0.2127  0.6548
 1689Sol     HW10764   3.304   0.550   2.945  1.5251  0.7827  1.3108
 1689Sol     HW10765   3.409   0.634   2.875 -0.1878  1.3691 -0.6110
 1689Sol     MW10766   3.327   0.598   2.873 -0.2514 -0.0258 -0.2949
 1690Sol     OW10767   2.805   2.419   2.958  0.1871 -0.2988  0.2673
 1690Sol     HW10768   2.805   2.370   2.875 -0.5003 -1.4789  0.9421
 1690Sol     HW10769   2.823   2.352   3.025  0.1582  0.5424  1.1234
 1690Sol     MW10770   2.807   2.408   2.957  0.4576  0.2909  0.0416
 1691Sol     OW10771   3.006   2.848   1.765 -0.1573 -0.2475 -0.1136
 1691Sol     HW10772   3.081   2.794   1.741  0.3294  0.3866 -0.0197
 1691Sol     HW10773   3.034   2.895   1.843  0.2699  1.8947 -1.5276
 1691Sol     MW10774   3.015   2.847   1.770  0.0982 -0.0627 -0.1910
 1692Sol     OW10775   1.028   0.447   1.692 -0.1930  0.2509 -0.4197
 1692Sol     HW10776   1.016   0.499   1.613 -0.5322 -0.1171 -0.6121
 1692Sol     HW10777   1.020   0.356   1.663  0.6422  0.0840 -0.1244
 1692Sol     MW10778   1.026   0.443   1.682 -0.4633 -0.1910  0.3688
 1693Sol     OW10779   2.185   1.321   6.837  1.5485 -0.6850 -0.6554
 1693Sol     HW10780   2.092   1.320   6.816  1.9044 -0.5306 -2.2921
 1693Sol     HW10781   2.219   1.240   6.799  2.0046 -0.9713  0.3387
 1693Sol     MW10782   2.180   1.313   6.832 -0.6122  0.0421  0.0840
 1694Sol     OW10783   1.659   1.999   3.535 -0.2567  0.1939  0.3356
 1694Sol     HW10784   1.722   2.058   3.576 -0.2523 -0.3397  1.1182
 1694Sol     HW10785   1.705   1.964   3.459  0.1598  0.3164  0.5272
 1694Sol     MW10786   1.669   2.001   3.532  0.2265 -0.0396  0.2868
 1695Sol     OW10787   3.005   3.783   5.689 -0.2754 -0.5199 -0.0344
 1695Sol     HW10788   3.018   3.703   5.638  3.3953 -0.0974  0.0657
 1695Sol     HW10789   3.053   3.768   5.770  0.2156  1.6462  0.1133
 1695Sol     MW10790   3.011   3.775   5.692 -0.1905 -0.1747 -0.2778
 1696Sol     OW10791   3.588   2.258   4.912  0.5200 -0.5052  0.5706
 1696Sol     HW10792   3.669   2.208   4.905  0.5704 -0.9339  3.4822
 1696Sol     HW10793   3.607   2.326   4.977 -2.0553 -1.9438  2.9323
 1696Sol     MW10794   3.597   2.260   4.918  0.2268 -0.5020 -0.5371
 1697Sol     OW10795   1.602   3.428   5.924  0.1049  0.0001  0.0769
 1697Sol     HW10796   1.511   3.405   5.905  0.3110 -0.3227 -0.5124
 1697Sol     HW10797   1.603   3.524   5.922 -0.2741  0.0163  0.3473
 1697Sol     MW10798   1.594   3.435   5.922 -1.0016 -0.3929  0.1438
 1698Sol     OW10799   2.405   3.828   4.094  0.3725 -0.0885 -0.1189
 1698Sol     HW10800   2.426   3.907   4.145  1.4881 -0.1307 -0.5024
 1698Sol     HW10801   2.457   3.759   4.136 -0.4506 -0.5874  0.0908
 1698Sol     MW10802   2.412   3.829   4.103 -0.0796 -0.0435 -0.2081
 1699Sol     OW10803   1.788   3.825   5.337 -0.1110  0.4009 -0.0947
 1699Sol     HW10804   1.824   3.738   5.352  0.4098  0.8417  1.3400
 1699Sol     HW10805   1.707   3.810   5.289 -0.6620 -0.9661  1.2322
 1699Sol     MW10806   1.784   3.816   5.334  0.0901  0.1262 -0.5002
 1700Sol     OW10807   3.729   3.185   5.524  0.2763 -0.6206  0.1578
 1700Sol     HW10808   3.711   3.165   5.616  1.8900  0.0167  0.6410
 1700Sol     HW10809   3.765   3.274   5.526  0.3624 -0.6168 -1.0862
 1700Sol     MW10810   3.731   3.191   5.533  0.2615 -0.1298  0.1622
 1701Sol     OW10811   1.399   1.519   4.593 -0.1552  0.1492  0.1051
 1701Sol     HW10812   1.355   1.572   4.526  0.5721  0.4514 -0.1447
 1701Sol     HW10813   1.489   1.553   4.594  0.5302 -1.6130 -0.6053
 1701Sol     MW10814   1.403   1.527   4.587  0.4937 -0.1701  1.1263
 1702Sol     OW10815   1.113   2.448   3.779  0.1049  0.0563  0.4697
 1702Sol     HW10816   1.109   2.352   3.782  0.2933 -0.0540 -1.9295
 1702Sol     HW10817   1.197   2.469   3.819  0.4806 -0.8393  0.1643
 1702Sol     MW10818   1.120   2.441   3.783  0.2419  0.4833  0.3015
 1703Sol     OW10819   0.301   2.383   6.645  0.0875  0.2376 -0.3844
 1703Sol     HW10820   0.333   2.359   6.558  1.9515  0.0303  0.3295
 1703Sol     HW10821   0.243   2.311   6.670 -0.1866  0.1340 -1.3243
 1703Sol     MW10822   0.299   2.374   6.640  0.0669  0.5846 -0.1722
 1704Sol     OW10823   3.380   0.759   4.431  0.0579  0.3939  0.4061
 1704Sol     HW10824   3.474   0.767   4.445 -0.0615 -0.1492  1.6895
 1704Sol     HW10825   3.357   0.676   4.474 -0.6884 -0.4504 -1.5855
 1704Sol     MW10826   3.386   0.752   4.436  0.3373 -0.4491 -0.4279
 1705Sol     OW10827   2.629   1.159   6.458  0.3063 -0.1205 -0.0931
 1705Sol     HW10828   2.615   1.222   6.528 -1.9787 -1.3915  0.6399
 1705Sol     HW10829   2.711   1.115   6.481 -0.4163 -0.5267  1.7827
 1705Sol     MW10830   2.635   1.161   6.466  0.1551 -0.1502 -0.0183
 1706Sol     OW10831   3.162   0.112   3.068 -0.1330 -0.4755  0.0620
 1706Sol     HW10832   3.252   0.142   3.081 -0.1644  0.3549 -1.5316
 1706Sol     HW10833   3.115   0.190   3.040 -1.0867 -1.1571 -0.2470
 1706Sol     MW10834   3.166   0.122   3.067  0.2694 -0.6032 -0.1916
 1707Sol     OW10835   3.618   3.749   5.497  0.2658  0.3970  0.1189
 1707Sol     HW10836   3.540   3.802   5.513 -0.0383  0.2630 -0.8732
 1707Sol     HW10837   3.656   3.784   5.417  0.0097 -0.9144 -0.6016
 1707Sol     MW10838   3.614   3.757   5.491 -0.4336 -0.0310 -0.6367
 1708Sol     OW10839   3.791   2.564   6.532  0.1990 -0.2497  0.3558
 1708Sol     HW10840   3.770   2.485   6.581  0.7821  0.9158  2.5435
 1708Sol     HW10841   3.707   2.608   6.518 -0.0281 -0.8479 -0.1555
 1708Sol     MW10842   3.782   2.561   6.535 -0.3050  0.1179 -0.8053
 1709Sol     OW10843   1.728   0.169   5.813 -0.1162 -0.3229  0.2972
 1709Sol     HW10844   1.636   0.147   5.824  0.2667 -2.0240  0.2986
 1709Sol     HW10845   1.775   0.087   5.832  1.3933  0.5437  0.4172
 1709Sol     MW10846   1.724   0.160   5.815  0.1904  0.0805  0.0213
 1710Sol     OW10847   1.484   2.647   4.495  0.3078  0.1441  0.7762
 1710Sol     HW10848   1.494   2.705   4.419 -2.3795 -0.1177  0.2102
 1710Sol     HW10849   1.511   2.701   4.569 -0.9924  1.7599  0.1052
 1710Sol     MW10850   1.488   2.657   4.494  0.7290  0.5099  0.7643
 1711Sol     OW10851   1.370   0.169   1.763  0.0407  0.1272 -0.3051
 1711Sol     HW10852   1.391   0.087   1.809 -0.0331 -0.5137 -1.4035
 1711Sol     HW10853   1.454   0.214   1.754 -0.2641  1.3824  2.5557
 1711Sol     MW10854   1.379   0.166   1.767  0.3647  0.1445  0.1091
 1712Sol     OW10855   0.802   3.518   3.793  0.2702  0.5622 -0.6603
 1712Sol     HW10856   0.739   3.582   3.826  1.4683  1.4003  0.0444
 1712Sol     HW10857   0.752   3.437   3.782 -0.7148  0.9665  0.7739
 1712Sol     MW10858   0.792   3.516   3.795  0.2994 -0.4309 -0.5249
 1713Sol     OW10859   3.913   2.759   3.930  0.1047 -0.4152 -0.1214
 1713Sol     HW10860   3.859   2.837   3.936  0.7752 -0.0454  1.2375
 1713Sol     HW10861   3.897   2.725   3.842 -0.4293  1.0760 -0.6014
 1713Sol     MW10862   3.907   2.763   3.923  0.1001 -0.2665 -0.1365
 1714Sol     OW10863   1.896   3.513   6.472  0.5209  0.3728 -0.1600
 1714Sol     HW10864   1.913   3.541   6.562  1.5678 -1.3312  0.2067
 1714Sol     HW10865   1.802   3.497   6.469  0.5636 -0.1169  0.8146
 1714Sol     MW10866   1.889   3.514   6.479 -0.3874 -0.2815  0.4530
 1715Sol     OW10867   1.350   3.182   6.657 -0.1892 -0.3743 -0.0654
 1715Sol     HW10868   1.387   3.102   6.619 -0.7384 -0.9218  0.5295
 1715Sol     HW10869   1.299   3.151   6.732  0.9652  0.6882  1.1871
 1715Sol     MW10870   1.349   3.172   6.660 -0.0177  0.3712  0.1985
 1716Sol     OW10871   1.451   2.014   5.406 -0.1473  0.2470  0.0867
 1716Sol     HW10872   1.500   2.091   5.377 -0.1565 -0.0615 -0.7634
 1716Sol     HW10873   1.448   2.022   5.501  0.7870  0.7290  0.0823
 1716Sol     MW10874   1.455   2.022   5.412  0.2585 -0.3656  0.5845
 1717Sol     OW10875   3.122   3.358   5.874 -0.8338  0.1328  0.1981
 1717Sol     HW10876   3.158   3.302   5.805 -0.7434  0.7743 -0.2765
 1717Sol     HW10877   3.027   3.343   5.870 -1.1033  2.0846 -1.7800
 1717Sol     MW10878   3.117   3.352   5.868  0.3640 -0.1982  0.5453
 1718Sol     OW10879   3.803   2.396   2.232 -0.1836  0.1217  0.3821
 1718Sol     HW10880   3.721   2.348   2.232 -0.1448  0.0518  0.1361
 1718Sol     HW10881   3.834   2.390   2.141 -0.9627  1.9670 -0.0270
 1718Sol     MW10882   3.799   2.391   2.224  0.2064 -0.0355 -0.2916
 1719Sol     OW10883   3.255   0.131   5.863  0.2190 -0.0317  0.0310
 1719Sol     HW10884   3.241   0.197   5.795 -0.5585  0.9335  1.1024
 1719Sol     HW10885   3.217   0.169   5.942  1.1987 -1.0948  1.0435
 1719Sol     MW10886   3.250   0.140   5.864  0.2991 -0.1308  0.1908
 1720Sol     OW10887   2.175   0.353   6.015 -0.0373 -0.2087 -0.4266
 1720Sol     HW10888   2.214   0.300   5.946  0.0915  0.8530 -1.1838
 1720Sol     HW10889   2.085   0.320   6.022 -0.2203  0.0300 -1.4789
 1720Sol     MW10890   2.170   0.345   6.009 -0.0218  0.4717 -0.0657
 1721Sol     OW10891   0.406   2.067   6.130  0.5078  0.4773  0.1782
 1721Sol     HW10892   0.349   2.142   6.115 -0.1077 -0.2884 -1.4877
 1721Sol     HW10893   0.454   2.056   6.047  0.1205 -1.3352  0.1631
 1721Sol     MW10894   0.405   2.073   6.121 -0.2512  0.5424 -0.6326
 1722Sol     OW10895   2.294   0.725   5.205 -0.2581  0.2068 -0.0111
 1722Sol     HW10896   2.202   0.745   5.185  0.0334  1.0469 -0.5581
 1722Sol     HW10897   2.328   0.690   5.123  0.1092  0.6276 -0.0380
 1722Sol     MW10898   2.289   0.724   5.196 -0.2298  0.1634 -0.4831
 1723Sol     OW10899   3.905   2.698   6.740 -0.0467  0.4516 -0.2836
 1723Sol     HW10900   3.875   2.669   6.653  0.0590 -0.2806 -0.0817
 1723Sol     HW10901   3.999   2.680   6.740  0.1845  1.6294 -0.4744
 1723Sol     MW10902   3.910   2.694   6.732  0.8717 -0.5488  0.0020
 1724Sol     OW10903   1.610   0.462   4.920  0.0372 -0.0679  0.0327
 1724Sol     HW10904   1.662   0.382   4.922 -1.7265 -1.2125  0.7675
 1724Sol     HW10905   1.675   0.532   4.914  1.7214 -1.3964  1.9308
 1724Sol     MW10906   1.621   0.461   4.920  0.3710 -0.0855  0.2780
 1725Sol     OW10907   2.974   0.510   4.753 -0.1448 -0.1260  0.0304
 1725Sol     HW10908   2.899   0.516   4.811 -0.0958  0.7725  0.0058
 1725Sol     HW10909   3.049   0.535   4.807 -0.4074  3.1011 -1.0409
 1725Sol     MW10910   2.974   0.512   4.763  0.6621  0.0731 -0.4625
 1726Sol     OW10911   3.945   0.272   1.586  0.0124 -0.1640 -0.0726
 1726Sol     HW10912   3.871   0.288   1.528  0.9278 -0.6806 -1.4147
 1726Sol     HW10913   3.916   0.201   1.644  0.5204 -2.6149 -2.6725
 1726Sol     MW10914   3.936   0.267   1.586  0.0233 -0.3485 -0.0429
 1727Sol     OW10915   1.307   0.456   6.032 -0.4569 -0.0606  0.4454
 1727Sol     HW10916   1.321   0.516   5.959 -0.6099  0.0104  0.4743
 1727Sol     HW10917   1.344   0.373   6.002 -0.4390 -0.0090  0.3229
 1727Sol     MW10918   1.312   0.454   6.023 -0.3698 -0.0504  0.0281
 1728Sol     OW10919   1.480   4.176   5.776 -0.6098  0.0153 -0.4824
 1728Sol     HW10920   1.539   4.202   5.705  1.4067 -1.1055  0.7286
 1728Sol     HW10921   1.398   4.153   5.733  1.2038 -2.5779 -2.6981
 1728Sol     MW10922   1.478   4.176   5.766 -0.1836  0.4683 -0.0960
 1729Sol     OW10923   3.079   2.569   6.467 -0.5110  0.7221 -0.6330
 1729Sol     HW10924   3.072   2.547   6.559 -0.1267  3.3195  0.0635
 1729Sol     HW10925   3.129   2.497   6.428 -0.8630 -0.4868  1.1284
 1729Sol     MW10926   3.083   2.560   6.471 -0.2559  0.1888 -0.3491
 1730Sol     OW10927   2.129   0.855   2.072 -0.1299 -0.6177 -0.1784
 1730Sol     HW10928   2.049   0.895   2.106  0.3715 -1.9559  2.7124
 1730Sol     HW10929   2.101   0.812   1.991 -1.0946  3.7042 -2.3100
 1730Sol     MW10930   2.119   0.855   2.068  0.4796 -0.2286  0.0249
 1731Sol     OW10931   1.000   3.382   3.934  0.1361  0.2118  0.0152
 1731Sol     HW10932   0.935   3.432   3.885 -1.1624 -2.3056 -0.9140
 1731Sol     HW10933   1.071   3.368   3.871  0.0414  0.0292 -0.0528
 1731Sol     MW10934   1.000   3.386   3.924 -0.3623  0.1252  0.2340
 1732Sol     OW10935   1.216   4.156   5.691 -0.3586 -0.0106 -0.4809
 1732Sol     HW10936   1.224   4.076   5.640  1.7442 -0.3605  0.3267
 1732Sol     HW10937   1.209   4.226   5.626  0.1079 -0.6467 -1.2198
 1732Sol     MW10938   1.216   4.155   5.681 -0.9537  0.4091  0.2245
 1733Sol     OW10939   2.187   4.039   5.437  0.0573 -0.3539 -0.2792
 1733Sol     HW10940   2.237   3.987   5.374  0.8277  0.0262  0.0177
 1733Sol     HW10941   2.099   4.042   5.400  0.0060 -1.8262 -0.3307
 1733Sol     MW10942   2.183   4.034   5.428  0.1280 -0.0935 -0.2818
 1734Sol     OW10943   3.444   3.300   4.142 -0.4874 -0.0160  0.5562
 1734Sol     HW10944   3.446   3.395   4.128 -0.1337 -0.1398 -0.2393
 1734Sol     HW10945   3.517   3.266   4.091 -2.4446 -1.0359 -1.6862
 1734Sol     MW10946   3.450   3.305   4.136  0.2217  0.3875  0.6408
 1735Sol     OW10947   1.958   1.943   2.876 -0.2854  0.0517  0.8186
 1735Sol     HW10948   1.992   1.927   2.964  1.0911 -0.7235  0.1548
 1735Sol     HW10949   1.893   1.874   2.862 -0.0906 -0.1674  1.0055
 1735Sol     MW10950   1.955   1.935   2.883  0.6074  0.7293 -0.1381
 1736Sol     OW10951   3.873   1.342   1.708  0.1006 -0.2517  0.2765
 1736Sol     HW10952   3.785   1.349   1.746  0.1461  1.9980  0.0779
 1736Sol     HW10953   3.863   1.374   1.618  1.1592  0.2397  0.3261
 1736Sol     MW10954   3.864   1.346   1.703 -0.1441  0.0207 -0.5198
 1737Sol     OW10955   2.068   3.762   5.020 -0.4379 -0.0321 -0.1075
 1737Sol     HW10956   2.088   3.839   4.966  1.7508  0.5217  1.4555
 1737Sol     HW10957   2.060   3.691   4.957  0.0279  1.0007 -1.3586
 1737Sol     MW10958   2.069   3.763   5.009 -0.0537  0.2160  0.5018
 1738Sol     OW10959   2.901   3.299   3.408  0.1949 -0.2744 -0.0046
 1738Sol     HW10960   2.918   3.391   3.430 -0.0716  0.1247 -1.4303
 1738Sol     HW10961   2.985   3.266   3.378  0.8727 -1.1759  2.6999
 1738Sol     MW10962   2.910   3.305   3.408 -0.8091  0.2314  0.2058
 1739Sol     OW10963   3.745   2.132   3.482 -0.5246  0.2163  0.0724
 1739Sol     HW10964   3.663   2.120   3.434  0.9713 -1.7256 -2.1126
 1739Sol     HW10965   3.763   2.046   3.521  0.9448  0.3303 -0.3030
 1739Sol     MW10966   3.740   2.123   3.481  0.0964 -0.5173  0.1805
 1740Sol     OW10967   0.449   3.874   2.513  0.3423  0.0479  0.1820
 1740Sol     HW10968   0.514   3.849   2.579 -0.9087  0.3053  1.5360
 1740Sol     HW10969   0.408   3.953   2.548 -0.8991 -0.2696 -0.5312
 1740Sol     MW10970   0.451   3.879   2.522  0.0131 -0.2169 -0.0633
 1741Sol     OW10971   2.847   3.236   5.544  0.6876  0.0521 -0.0360
 1741Sol     HW10972   2.851   3.235   5.449 -0.1115  0.2019 -0.0735
 1741Sol     HW10973   2.939   3.227   5.572  0.9950  0.6986 -0.8161
 1741Sol     MW10974   2.856   3.235   5.538 -0.8224  0.3768  0.1581
 1742Sol     OW10975   3.596   2.164   2.187 -0.3002 -0.1697  0.0335
 1742Sol     HW10976   3.662   2.103   2.152 -0.9979 -0.6969 -0.3771
 1742Sol     HW10977   3.513   2.130   2.154 -0.8123  0.2644  0.8847
 1742Sol     MW10978   3.595   2.155   2.181 -0.6197 -0.0565 -0.5071
 1743Sol     OW10979   3.026   3.541   5.555  0.7685 -0.0142 -0.8631
 1743Sol     HW10980   3.010   3.567   5.464  2.0769  0.9277 -0.8421
 1743Sol     HW10981   3.118   3.515   5.557  0.9737  0.7334  0.3588
 1743Sol     MW10982   3.033   3.541   5.547  0.1007  0.0926  0.1234
 1744Sol     OW10983   2.425   2.479   4.230 -0.1920  0.0614 -0.1491
 1744Sol     HW10984   2.348   2.442   4.274 -0.3350 -0.8762 -1.1513
 1744Sol     HW10985   2.411   2.574   4.232 -0.4303  0.0097  1.3699
 1744Sol     MW10986   2.417   2.484   4.234 -0.2286 -0.0259 -0.2803
 1745Sol     OW10987   2.470   1.253   2.419  0.1055 -0.7543 -0.0175
 1745Sol     HW10988   2.562   1.228   2.420  0.4588  0.4703 -0.9662
 1745Sol     HW10989   2.442   1.244   2.510  1.5660  0.3589  0.5536
 1745Sol     MW10990   2.476   1.250   2.427  0.2324  0.4530  0.2059
 1746Sol     OW10991   3.955   1.954   1.753  0.4144 -0.0728 -0.2082
 1746Sol     HW10992   3.937   1.929   1.663 -0.7849  2.3662 -0.6774
 1746Sol     HW10993   3.891   1.904   1.805  1.0904 -1.4525 -0.6661
 1746Sol     MW10994   3.947   1.947   1.750 -0.7030 -0.8453  0.2460
 1747Sol     OW10995   0.560   0.773   4.268  0.6971 -0.2707 -0.0633
 1747Sol     HW10996   0.514   0.848   4.305  1.1326  1.2574 -2.5151
 1747Sol     HW10997   0.649   0.781   4.303  0.8708  0.6534 -0.6815
 1747Sol     MW10998   0.564   0.781   4.274 -1.0404  0.2430  0.0409
 1748Sol     OW10999   1.952   2.687   2.831  0.2507  0.0777  0.0478
 1748Sol     HW11000   1.974   2.768   2.787  0.8373 -0.3167 -0.3915
 1748Sol     HW11001   1.925   2.628   2.761  2.5255 -0.9998  0.0240
 1748Sol     MW11002   1.951   2.689   2.821  0.2947 -0.6247  0.4639
 1749Sol     OW11003   0.201   1.426   1.917  0.2560  0.3041  0.6783
 1749Sol     HW11004   0.129   1.464   1.866 -0.8326 -0.5343  1.5524
 1749Sol     HW11005   0.232   1.352   1.864 -0.1103  0.1370  0.6959
 1749Sol     MW11006   0.197   1.423   1.908 -0.6164  0.1749 -0.1825
 1750Sol     OW11007   3.961   0.709   1.552 -0.0037  0.2960 -0.4163
 1750Sol     HW11008   4.027   0.773   1.580  0.9318 -0.7593 -0.1778
 1750Sol     HW11009   3.878   0.748   1.579  0.4133  2.1411 -1.6615
 1750Sol     MW11010   3.960   0.718   1.557  0.4383  0.1504  0.6689
 1751Sol     OW11011   0.552   3.175   4.949 -0.3882 -0.2502  0.0569
 1751Sol     HW11012   0.460   3.154   4.966 -0.4253  0.8889  1.3045
 1751Sol     HW11013   0.581   3.106   4.890 -2.5810  0.4560 -1.9447
 1751Sol     MW11014   0.546   3.167   4.945  0.5438  0.5598  0.0872
 1752Sol     OW11015   1.630   3.847   3.218 -0.4899 -0.1082 -0.7745
 1752Sol     HW11016   1.698   3.883   3.161  0.6294 -0.5820  0.2289
 1752Sol     HW11017   1.575   3.921   3.241  0.9732  0.7301  0.1470
 1752Sol     MW11018   1.631   3.857   3.215  0.5574 -1.0495  0.6651
 1753Sol     OW11019   2.536   3.246   5.501 -0.2278  0.1022  0.3420
 1753Sol     HW11020   2.456   3.260   5.449 -1.4086  0.9770  2.3420
 1753Sol     HW11021   2.554   3.331   5.540  1.6104 -0.1458  0.0477
 1753Sol     MW11022   2.530   3.255   5.500  0.0926  0.0378  1.2204
 1754Sol     OW11023   3.673   2.179   1.852 -0.0338  0.1637 -0.6440
 1754Sol     HW11024   3.659   2.271   1.874  2.8292  0.4874 -0.0915
 1754Sol     HW11025   3.718   2.142   1.927  0.4476 -1.2598 -1.6068
 1754Sol     MW11026   3.675   2.184   1.861 -0.3037 -0.0462 -0.6370
 1755Sol     OW11027   3.661   2.471   1.909  0.2167 -0.3228  0.2443
 1755Sol     HW11028   3.643   2.506   1.822  0.5240  1.7079  0.9784
 1755Sol     HW11029   3.578   2.478   1.956 -0.4023 -2.9572 -0.3534
 1755Sol     MW11030   3.652   2.475   1.905  0.2566 -0.2520  0.5774
 1756Sol     OW11031   2.493   0.866   5.292 -0.3331  0.0513 -0.3134
 1756Sol     HW11032   2.471   0.902   5.378 -0.4781  1.6058 -0.9838
 1756Sol     HW11033   2.418   0.810   5.270 -1.6075  1.8503 -0.6437
 1756Sol     MW11034   2.484   0.864   5.298  0.4933  0.4066  0.0086
 1757Sol     OW11035   2.607   3.542   5.054 -0.0825  0.2705 -0.6076
 1757Sol     HW11036   2.594   3.449   5.037 -2.0856  0.5437 -0.7370
 1757Sol     HW11037   2.539   3.564   5.117  2.3774  0.9677  1.8910
 1757Sol     MW11038   2.600   3.536   5.058 -0.1106 -0.1266 -0.6087
 1758Sol     OW11039   3.157   0.914   4.360 -0.1722 -0.4014 -0.0247
 1758Sol     HW11040   3.141   0.895   4.268 -0.1306  0.6958 -0.2673
 1758Sol     HW11041   3.252   0.904   4.371 -0.3670 -2.0133  0.2554
 1758Sol     MW11042   3.164   0.912   4.353  0.4965 -0.2229  0.4408
 1759Sol     OW11043   3.613   1.135   3.167 -0.2112 -0.2068  0.0917
 1759Sol     HW11044   3.550   1.075   3.208  0.5528 -0.5649  0.7874
 1759Sol     HW11045   3.696   1.114   3.211  0.2139  0.8457 -0.2042
 1759Sol     MW11046   3.615   1.127   3.175  0.1887  0.3619  0.6132
 1760Sol     OW11047   1.843   2.747   4.465  0.6441  0.3326  0.3123
 1760Sol     HW11048   1.844   2.811   4.394  0.0014  1.5168  1.3416
 1760Sol     HW11049   1.822   2.664   4.422  1.2921  0.8427 -1.0167
 1760Sol     MW11050   1.841   2.745   4.455 -0.1909  0.1777 -0.6015
 1761Sol     OW11051   0.970   0.844   6.371 -0.5878  0.2456  0.0740
 1761Sol     HW11052   1.039   0.891   6.418 -0.3510  1.8734 -1.8390
 1761Sol     HW11053   1.006   0.757   6.356  0.1016  0.3323  1.1856
 1761Sol     MW11054   0.979   0.841   6.374  0.2064 -0.2460 -0.5314
 1762Sol     OW11055   0.900   3.175   6.830 -0.3238  0.3896  0.3522
 1762Sol     HW11056   0.834   3.244   6.837  0.7888  1.5299 -0.3623
 1762Sol     HW11057   0.856   3.105   6.783 -0.5422  1.7812 -1.5764
 1762Sol     MW11058   0.890   3.175   6.827  0.2837  0.0677  0.4621
 1763Sol     OW11059   2.258   1.668   6.225 -0.0127  0.9436  0.0376
 1763Sol     HW11060   2.185   1.704   6.173  0.5962 -0.1294 -1.6105
 1763Sol     HW11061   2.280   1.586   6.181  1.5239  0.7528  1.1334
 1763Sol     MW11062   2.253   1.664   6.216  0.8470 -0.0188 -1.0742
 1764Sol     OW11063   2.097   0.620   5.954 -0.1278 -0.3318 -0.2296
 1764Sol     HW11064   2.126   0.530   5.969 -2.0394 -1.1321 -1.2051
 1764Sol     HW11065   2.145   0.671   6.019  0.5310 -2.1327  0.7438
 1764Sol     MW11066   2.104   0.616   5.961 -0.4863  0.0089 -0.6411
 1765Sol     OW11067   0.350   2.689   2.224 -0.1107  0.4420 -0.0802
 1765Sol     HW11068   0.260   2.675   2.196 -0.1263  2.5881 -1.1933
 1765Sol     HW11069   0.347   2.770   2.275  1.1532  0.3975  0.0810
 1765Sol     MW11070   0.342   2.695   2.226 -0.4017  0.3738  0.1048
 1766Sol     OW11071   0.365   0.968   4.043  0.3593  0.1281 -0.2923
 1766Sol     HW11072   0.341   0.887   3.997  0.5499 -0.5021  0.7134
 1766Sol     HW11073   0.460   0.977   4.028  0.1276  0.8051 -1.4019
 1766Sol     MW11074   0.372   0.961   4.037 -0.1292 -0.5095 -0.7313
 1767Sol     OW11075   2.308   3.171   6.486  0.1084  0.4407  0.4823
 1767Sol     HW11076   2.214   3.187   6.487  0.3176  1.8773 -1.1169
 1767Sol     HW11077   2.344   3.233   6.550  0.1416  1.0648 -0.1421
 1767Sol     MW11078   2.303   3.178   6.492 -0.5999  0.7799  0.6344
 1768Sol     OW11079   1.192   4.135   4.080 -0.1069  0.2750 -0.1016
 1768Sol     HW11080   1.138   4.085   4.018  1.1595 -2.2877  0.8112
 1768Sol     HW11081   1.141   4.135   4.161 -0.5390  1.3065 -0.3695
 1768Sol     MW11082   1.182   4.130   4.081 -0.1844 -0.4397 -0.6627
 1769Sol     OW11083   1.109   3.077   2.317 -0.7292  0.4277  0.1235
 1769Sol     HW11084   1.200   3.076   2.287 -0.6599  1.3429  0.3030
 1769Sol     HW11085   1.098   2.994   2.364  0.2821  0.7293  0.8986
 1769Sol     MW11086   1.116   3.069   2.318  0.1804 -0.2858  0.8567
 1770Sol     OW11087   2.261   1.931   4.192  0.2545  0.3887  0.0461
 1770Sol     HW11088   2.292   1.843   4.171  0.3894  0.2521  0.7851
 1770Sol     HW11089   2.293   1.947   4.281  0.1972  1.1677 -0.0682
 1770Sol     MW11090   2.267   1.925   4.198 -0.0040  0.5392 -0.2810
 1771Sol     OW11091   3.698   3.389   2.133  0.3489 -0.0696  0.1728
 1771Sol     HW11092   3.789   3.378   2.163  0.1796 -0.0011  0.7123
 1771Sol     HW11093   3.704   3.455   2.064  0.6891  0.0485  0.3118
 1771Sol     MW11094   3.707   3.394   2.130 -0.2292  0.3251 -0.4699
 1772Sol     OW11095   3.542   2.129   6.562 -0.7373 -0.4949  0.2794
 1772Sol     HW11096   3.449   2.107   6.554 -0.3090 -2.0386 -0.5783
 1772Sol     HW11097   3.577   2.117   6.473  0.2732  0.1072  0.5931
 1772Sol     MW11098   3.537   2.126   6.553 -0.1752  0.0106  0.3216
 1773Sol     OW11099   0.306   1.214   4.051  0.2788  0.3705 -0.0593
 1773Sol     HW11100   0.239   1.214   4.120  1.9944 -1.1003  1.6899
 1773Sol     HW11101   0.328   1.121   4.040  0.7388  0.6909 -1.8887
 1773Sol     MW11102   0.302   1.206   4.056  0.2181  0.1260  0.4166
 1774Sol     OW11103   2.728   0.166   1.965 -0.3282 -0.4954  0.3109
 1774Sol     HW11104   2.766   0.089   1.924 -0.0156 -1.3118  2.0651
 1774Sol     HW11105   2.761   0.164   2.055 -0.0928  1.8399  0.3031
 1774Sol     MW11106   2.734   0.159   1.970 -0.1624 -0.0116 -0.2794
 1775Sol     OW11107   1.659   2.046   6.406  0.0311 -0.2349  0.3198
 1775Sol     HW11108   1.652   1.998   6.323  0.7410  0.2195 -0.0137
 1775Sol     HW11109   1.619   1.989   6.471  0.8501 -1.2784 -0.0723
 1775Sol     MW11110   1.655   2.037   6.404  0.4879 -0.0410  0.0075
 1776Sol     OW11111   2.692   0.931   1.702 -0.7060 -0.6679  0.0156
 1776Sol     HW11112   2.636   0.868   1.658  0.4820 -1.9144  0.2593
 1776Sol     HW11113   2.757   0.878   1.748 -0.9032  0.6630  1.9018
 1776Sol     MW11114   2.693   0.921   1.702  1.0079  0.3005 -0.1403
 1777Sol     OW11115   3.881   1.114   6.403  0.3974  0.0984 -0.1227
 1777Sol     HW11116   3.789   1.114   6.431  0.5617 -0.3882  0.4369
 1777Sol     HW11117   3.890   1.033   6.352  0.1451  0.8914 -1.4437
 1777Sol     MW11118   3.873   1.107   6.401 -0.7525  0.2413  0.2378
 1778Sol     OW11119   0.375   3.719   6.486  0.8616 -0.1947 -0.2782
 1778Sol     HW11120   0.406   3.807   6.506  0.9372 -0.9330  3.1103
 1778Sol     HW11121   0.454   3.669   6.465  0.7771  0.6002 -2.6231
 1778Sol     MW11122   0.385   3.722   6.486  0.3288 -0.0745 -0.1861
 1779Sol     OW11123   0.030   3.555   3.358  0.0700 -0.0158  0.2307
 1779Sol     HW11124   0.101   3.618   3.375 -1.0117  1.2022  0.2888
 1779Sol     HW11125   0.006   3.523   3.445  1.1103 -1.0755  0.1444
 1779Sol     MW11126   0.034   3.558   3.367  0.0955 -0.2180 -0.0120
 1780Sol     OW11127   1.185   1.798   3.693 -0.2341 -0.2605  0.3718
 1780Sol     HW11128   1.258   1.810   3.631 -1.6297  0.7723 -1.1033
 1780Sol     HW11129   1.145   1.715   3.667 -0.1215 -0.3973  0.6316
 1780Sol     MW11130   1.188   1.792   3.685  0.2443 -0.3236 -0.1517
 1781Sol     OW11131   2.647   3.723   5.954 -0.1736 -0.4773  0.1343
 1781Sol     HW11132   2.723   3.684   5.998  0.2860 -0.3504 -0.5508
 1781Sol     HW11133   2.576   3.661   5.971  0.6878 -1.9243 -1.4439
 1781Sol     MW11134   2.647   3.714   5.960 -0.7269 -0.6419  0.7250
 1782Sol     OW11135   3.673   1.983   6.847 -0.1179  0.7544  0.4476
 1782Sol     HW11136   3.612   1.987   6.773 -1.5128  3.0722  1.6550
 1782Sol     HW11137   3.635   1.918   6.906  0.2265 -0.0343 -0.1839
 1782Sol     MW11138   3.664   1.978   6.846  0.2367 -0.1362 -0.3081
 1783Sol     OW11139   3.102   2.955   3.288 -0.4318 -0.3408 -0.7116
 1783Sol     HW11140   3.109   2.929   3.379 -0.5776  1.3714 -0.1912
 1783Sol     HW11141   3.175   3.015   3.274 -1.1011  0.3300 -1.3934
 1783Sol     MW11142   3.109   2.958   3.295 -0.3284  0.3778 -0.5675
 1784Sol     OW11143   3.463   1.448   2.885 -0.1346 -0.5048  0.7908
 1784Sol     HW11144   3.490   1.358   2.903 -0.6742 -0.3109  2.6520
 1784Sol     HW11145   3.419   1.443   2.800 -0.8686 -2.1565  1.2512
 1784Sol     MW11146   3.461   1.440   2.879 -0.6423  0.1496 -0.5117
 1785Sol     OW11147   3.967   0.564   6.072  0.2720  0.0971 -0.0697
 1785Sol     HW11148   4.061   0.557   6.053  0.3871 -0.6151  0.7427
 1785Sol     HW11149   3.937   0.637   6.017  1.8201  2.0156  1.5466
 1785Sol     MW11150   3.973   0.570   6.065  0.0944  0.4079 -0.0029
 1786Sol     OW11151   2.046   1.228   4.592  0.0827  0.1005 -0.2206
 1786Sol     HW11152   2.061   1.226   4.686  0.9167  0.3850 -0.3447
 1786Sol     HW11153   2.123   1.187   4.554  0.4826  1.3913 -0.8527
 1786Sol     MW11154   2.054   1.225   4.597  0.5514  0.0169 -0.5743
 1787Sol     OW11155   2.676   1.571   1.832 -0.2734 -0.2664  0.6759
 1787Sol     HW11156   2.670   1.552   1.738 -1.0093  0.3154  0.5937
 1787Sol     HW11157   2.585   1.573   1.862 -0.0252 -0.7722  1.4726
 1787Sol     MW11158   2.667   1.570   1.826  0.3510 -0.8080 -0.2710
 1788Sol     OW11159   0.781   3.074   2.850 -0.4984 -0.1528  0.0430
 1788Sol     HW11160   0.792   3.073   2.945  0.2619 -0.2824 -0.0392
 1788Sol     HW11161   0.866   3.104   2.817 -0.8503  0.1646 -0.5830
 1788Sol     MW11162   0.790   3.077   2.855  0.2438 -0.1697  0.1448
 1789Sol     OW11163   3.616   0.942   4.653  0.2127 -0.4272  0.0118
 1789Sol     HW11164   3.676   0.919   4.725 -0.0445 -0.9286  0.0711
 1789Sol     HW11165   3.534   0.965   4.698 -0.6822 -3.0225 -0.2083
 1789Sol     MW11166   3.614   0.942   4.664  0.6343 -0.0924  0.4610
 1790Sol     OW11167   3.611   0.189   2.261 -0.4462  0.2126 -0.1176
 1790Sol     HW11168   3.623   0.198   2.167  2.1054 -1.1131  0.0396
 1790Sol     HW11169   3.655   0.106   2.283 -0.4094  0.8455  2.3170
 1790Sol     MW11170   3.616   0.182   2.255 -0.2979  0.5864 -0.0836
 1791Sol     OW11171   3.375   2.835   1.533  0.0290  0.0643 -0.1412
 1791Sol     HW11172   3.403   2.759   1.482 -1.7840 -0.9363  0.3038
 1791Sol     HW11173   3.335   2.798   1.611 -0.4166  1.4959  0.3263
 1791Sol     MW11174   3.374   2.825   1.535  0.6142  0.4876 -0.1613
 1792Sol     OW11175   3.718   3.985   6.169 -0.1887  0.0270  0.4650
 1792Sol     HW11176   3.670   4.013   6.246  3.2343 -0.8326  3.0470
 1792Sol     HW11177   3.716   3.890   6.172  0.0479 -0.0200 -0.4702
 1792Sol     MW11178   3.714   3.979   6.176  0.2907  0.5511 -0.3809
 1793Sol     OW11179   2.500   3.968   1.431 -0.3276 -0.4042  1.0764
 1793Sol     HW11180   2.595   3.963   1.447  0.1068 -0.5439 -1.4286
 1793Sol     HW11181   2.477   3.881   1.398 -1.3022 -0.2666  1.3769
 1793Sol     MW11182   2.507   3.959   1.430 -0.0419  0.1358 -0.1481
 1794Sol     OW11183   0.586   2.050   1.521 -0.5212 -0.1883  0.5900
 1794Sol     HW11184   0.538   2.069   1.601 -0.4762 -1.5590  0.9602
 1794Sol     HW11185   0.580   2.130   1.469 -1.5073  0.3256  1.4866
 1794Sol     MW11186   0.581   2.059   1.523 -0.5090 -0.0330 -0.2354
 1795Sol     OW11187   3.155   1.730   4.955 -0.0688  0.2042  0.2438
 1795Sol     HW11188   3.161   1.826   4.958  1.0078  0.1012  2.1682
 1795Sol     HW11189   3.243   1.700   4.974 -0.5566 -1.1866  0.3388
 1795Sol     MW11190   3.163   1.736   4.957  0.1045  0.1950  0.6581
 1796Sol     OW11191   3.629   1.366   1.886  0.4569 -0.0027  0.4082
 1796Sol     HW11192   3.563   1.300   1.864 -1.2997  1.3064  1.6108
 1796Sol     HW11193   3.668   1.335   1.968  1.4637 -0.8345 -0.3618
 1796Sol     MW11194   3.627   1.357   1.891 -0.1594  0.8360  0.0495
 1797Sol     OW11195   1.827   0.369   2.591 -0.2760 -0.6118 -0.8391
 1797Sol     HW11196   1.841   0.396   2.501 -1.7835 -0.1485 -0.9608
 1797Sol     HW11197   1.911   0.333   2.619  1.0538  1.8496 -1.4900
 1797Sol     MW11198   1.835   0.368   2.586  0.4002  0.4523 -0.2284
 1798Sol     OW11199   1.603   1.868   1.875 -0.4670  0.7681  0.1713
 1798Sol     HW11200   1.642   1.954   1.863 -0.9665  0.9174 -0.4128
 1798Sol     HW11201   1.549   1.876   1.954  2.7456 -0.1882  2.5653
 1798Sol     MW11202   1.601   1.876   1.881 -0.0973 -0.3148 -0.0626
 1799Sol     OW11203   3.090   4.167   3.372 -0.0754 -0.0777 -0.0116
 1799Sol     HW11204   3.140   4.135   3.297 -0.8573  0.9381 -0.9871
 1799Sol     HW11205   2.999   4.160   3.345 -0.3153  1.6637  0.2758
 1799Sol     MW11206   3.087   4.164   3.363  0.2894  0.3416 -0.0854
 1800Sol     OW11207   1.474   2.517   2.800  0.1849  0.0249  0.2535
 1800Sol     HW11208   1.398   2.569   2.828 -0.3538  0.9242 -2.7117
 1800Sol     HW11209   1.532   2.517   2.876 -2.2214  0.3443  2.1755
 1800Sol     MW11210   1.472   2.521   2.809  0.5564 -0.1551 -0.0458
 1801Sol     OW11211   2.462   2.727   1.745  0.4221  0.1459  0.3357
 1801Sol     HW11212   2.552   2.759   1.732  0.0682  0.2420 -2.0602
 1801Sol     HW11213   2.423   2.729   1.657 -2.5872  2.0352  1.6433
 1801Sol     MW11214   2.467   2.730   1.736 -0.2052 -0.4437 -0.0577
 1802Sol     OW11215   2.333   0.084   5.526 -0.3364 -0.3184 -0.1708
 1802Sol     HW11216   2.268   0.025   5.487  0.1599 -1.3023  0.4845
 1802Sol     HW11217   2.410   0.029   5.541  0.6442  0.8256 -0.8901
 1802Sol     MW11218   2.334   0.074   5.524 -0.3202 -0.5174  0.9099
 1803Sol     OW11219   2.092   0.340   4.655  0.6281 -0.8595 -0.0228
 1803Sol     HW11220   2.116   0.337   4.562  0.6993  0.1669 -0.0426
 1803Sol     HW11221   2.025   0.408   4.660  2.5947  1.0670  1.1017
 1803Sol     MW11222   2.088   0.346   4.647 -0.3192 -0.2312 -0.7842
 1804Sol     OW11223   1.191   3.742   4.862  0.0811 -0.1185  0.4762
 1804Sol     HW11224   1.162   3.652   4.854 -0.2674 -0.1840  2.2807
 1804Sol     HW11225   1.278   3.736   4.903 -0.0247  0.3580  0.7790
 1804Sol     MW11226   1.196   3.734   4.865  0.2905 -0.0058  0.2407
 1805Sol     OW11227   0.447   0.111   1.182 -0.6783 -0.5414  0.6217
 1805Sol     HW11228   0.505   0.140   1.112 -1.9397 -1.8140 -0.9834
 1805Sol     HW11229   0.507   0.089   1.254  0.5887  1.3430  0.1929
 1805Sol     MW11230   0.458   0.112   1.182  0.3226 -0.1288 -0.4021
 1806Sol     OW11231   0.167   3.641   1.344  0.3566 -1.1159  0.1421
 1806Sol     HW11232   0.106   3.576   1.379  0.5999 -0.9942  0.8000
 1806Sol     HW11233   0.253   3.602   1.356  0.5338 -0.5013  0.9257
 1806Sol     MW11234   0.169   3.632   1.349 -0.3237 -0.3486  0.3301
 1807Sol     OW11235   1.753   3.288   4.325 -0.2782  0.5352 -0.0698
 1807Sol     HW11236   1.780   3.257   4.239 -1.3997 -0.2517 -0.1446
 1807Sol     HW11237   1.739   3.382   4.313 -1.4583  0.2455 -1.0076
 1807Sol     MW11238   1.754   3.294   4.317 -0.4093 -0.6210 -0.0699
 1808Sol     OW11239   2.720   0.974   3.434  0.2557  0.3457  0.0583
 1808Sol     HW11240   2.704   0.899   3.492  0.9706 -0.3134 -0.5988
 1808Sol     HW11241   2.643   0.976   3.377  0.1448  0.2337  0.1998
 1808Sol     MW11242   2.711   0.967   3.434 -0.0617  0.6669  0.1689
 1809Sol     OW11243   0.842   1.976   1.525 -0.1558  0.2596  0.2898
 1809Sol     HW11244   0.861   1.976   1.619 -0.0640  0.6655  0.2720
 1809Sol     HW11245   0.750   2.001   1.519  0.5246  2.8201  0.1427
 1809Sol     MW11246   0.836   1.978   1.533  0.6008 -0.2451 -0.4379
 1810Sol     OW11247   1.740   2.388   3.891  0.2379  0.1896 -0.4592
 1810Sol     HW11248   1.685   2.322   3.932  0.5607 -0.0023 -0.3271
 1810Sol     HW11249   1.742   2.460   3.954  0.2076  0.1581 -0.4224
 1810Sol     MW11250   1.736   2.388   3.901  0.2363 -0.1410  0.0217
 1811Sol     OW11251   0.909   2.409   1.830 -0.3733 -0.6540  0.0244
 1811Sol     HW11252   0.947   2.488   1.870 -0.9672 -0.0970 -0.5036
 1811Sol     HW11253   0.968   2.338   1.857  1.8473  0.3830 -1.9000
 1811Sol     MW11254   0.918   2.410   1.836 -0.3443  0.2256 -0.2315
 1812Sol     OW11255   0.791   2.442   7.025  0.7969  0.3357  0.0128
 1812Sol     HW11256   0.836   2.484   7.098 -3.0554  2.1398  1.4984
 1812Sol     HW11257   0.774   2.512   6.962 -1.2810  0.0576  0.2178
 1812Sol     MW11258   0.793   2.452   7.026  0.2169  1.1913  0.4646
 1813Sol     OW11259   3.691   2.470   2.591 -0.2995  0.5615  0.1763
 1813Sol     HW11260   3.779   2.481   2.555 -0.7443 -1.0087 -1.4929
 1813Sol     HW11261   3.699   2.395   2.650 -0.4105  0.6927  0.3554
 1813Sol     MW11262   3.700   2.464   2.593 -0.2955  0.2724  0.0268
 1814Sol     OW11263   0.322   2.260   2.005 -0.0722 -0.4383 -0.3134
 1814Sol     HW11264   0.376   2.266   2.084 -2.1153 -0.9362  1.1736
 1814Sol     HW11265   0.348   2.335   1.952  0.4800  0.6078  1.4047
 1814Sol     MW11266   0.329   2.267   2.008  0.0417  0.2039 -0.3300
 1815Sol     OW11267   2.173   0.109   3.382  0.4271 -0.0231  0.0259
 1815Sol     HW11268   2.189   0.191   3.336  1.6457 -0.4959 -0.4227
 1815Sol     HW11269   2.152   0.135   3.472 -0.3334  0.8205 -0.3818
 1815Sol     MW11270   2.172   0.118   3.386  0.4038 -0.3816  0.1807
 1816Sol     OW11271   0.137   0.998   4.331 -0.3040 -0.2151  0.3159
 1816Sol     HW11272   0.123   1.066   4.265  0.6750 -0.8646 -0.5844
 1816Sol     HW11273   0.068   0.934   4.314 -0.3155 -0.1748  0.2110
 1816Sol     MW11274   0.129   0.998   4.324  0.1093  0.4186 -0.2427
 1817Sol     OW11275   3.965   2.146   2.724  0.4819 -0.4664 -0.0204
 1817Sol     HW11276   3.934   2.055   2.721 -2.9685  0.6427 -0.3209
 1817Sol     HW11277   4.022   2.150   2.800 -2.2967 -2.0444  2.2223
 1817Sol     MW11278   3.967   2.138   2.730  0.1110 -0.3490 -0.2543
 1818Sol     OW11279   1.396   2.750   5.754 -0.0070  0.0931 -0.1910
 1818Sol     HW11280   1.303   2.761   5.734 -0.5495 -2.1653  0.8491
 1818Sol     HW11281   1.421   2.671   5.707  0.9984 -0.1322  0.7021
 1818Sol     MW11282   1.390   2.744   5.748  0.3202  0.4422  0.1407
 1819Sol     OW11283   2.297   1.621   2.409 -0.0859  0.4379 -0.2932
 1819Sol     HW11284   2.356   1.561   2.363  2.9196  1.2947  2.2564
 1819Sol     HW11285   2.266   1.572   2.485  0.8523  1.4008  0.7406
 1819Sol     MW11286   2.300   1.611   2.411  0.6421  0.2392  0.5363
 1820Sol     OW11287   1.830   2.080   5.182  0.7546 -0.1086 -0.6232
 1820Sol     HW11288   1.862   2.002   5.227  2.7827 -0.4567 -2.5700
 1820Sol     HW11289   1.758   2.111   5.236  1.2708 -2.1306  1.3015
 1820Sol     MW11290   1.827   2.076   5.191 -0.6720  0.4896  0.3532
 1821Sol     OW11291   1.305   2.481   4.912  0.5648  0.0326  0.0540
 1821Sol     HW11292   1.215   2.476   4.881  0.6531 -2.2285  0.1431
 1821Sol     HW11293   1.298   2.497   5.006  0.2690  0.1665  0.0076
 1821Sol     MW11294   1.297   2.482   4.918  0.2709  0.2620  0.0589
 1822Sol     OW11295   2.509   3.892   2.245 -0.1811  0.4239  0.3572
 1822Sol     HW11296   2.578   3.888   2.312  1.4681  0.4961 -1.2859
 1822Sol     HW11297   2.556   3.909   2.164 -1.8715 -2.4109 -1.2784
 1822Sol     MW11298   2.520   3.893   2.244 -0.3815 -0.7506 -0.0966
 1823Sol     OW11299   2.805   2.476   5.221  0.0867  0.2058  0.3144
 1823Sol     HW11300   2.885   2.493   5.171 -0.0575 -2.3950 -0.8551
 1823Sol     HW11301   2.736   2.470   5.155 -0.5856 -0.4867  1.0808
 1823Sol     MW11302   2.806   2.477   5.211 -0.1311 -0.6196  0.3270
 1824Sol     OW11303   3.800   2.317   1.520 -0.0039 -0.1529  0.1758
 1824Sol     HW11304   3.865   2.327   1.451 -0.9273 -1.5858 -0.9327
 1824Sol     HW11305   3.847   2.276   1.592  0.7222  0.4208  0.0333
 1824Sol     MW11306   3.810   2.314   1.521 -0.8994  0.1166  0.4213
 1825Sol     OW11307   1.710   0.873   1.533  0.2938 -0.2593  0.2256
 1825Sol     HW11308   1.781   0.935   1.517  0.4652 -0.3548  0.6195
 1825Sol     HW11309   1.674   0.898   1.618 -0.6231  0.2494 -0.3014
 1825Sol     MW11310   1.713   0.881   1.539  0.3453  0.4345 -0.0001
 1826Sol     OW11311   3.934   2.479   2.468  0.0815  0.0864 -0.3578
 1826Sol     HW11312   4.022   2.442   2.462  0.4951  1.0743 -0.3834
 1826Sol     HW11313   3.884   2.431   2.402  1.3960  1.7607 -2.6373
 1826Sol     MW11314   3.938   2.471   2.461 -0.0906  0.4790 -0.0867
 1827Sol     OW11315   0.130   2.654   3.456  0.0551 -0.1344  0.4037
 1827Sol     HW11316   0.036   2.656   3.471 -0.3985 -1.1655 -2.0519
 1827Sol     HW11317   0.152   2.561   3.453  1.5211  0.0955  2.9790
 1827Sol     MW11318   0.124   2.646   3.457 -0.1468 -0.0207  0.0762
 1828Sol     OW11319   3.889   2.789   5.715  0.3237  0.1231 -0.4496
 1828Sol     HW11320   3.823   2.755   5.775  0.2801  0.1053 -0.5074
 1828Sol     HW11321   3.927   2.863   5.761 -0.6039  0.9115 -0.9195
 1828Sol     MW11322   3.886   2.793   5.724 -0.1361  0.5461  0.0334
 1829Sol     OW11323   0.198   1.485   6.287  0.1022 -0.7300 -0.1889
 1829Sol     HW11324   0.240   1.501   6.202  1.2719  0.0137  0.5042
 1829Sol     HW11325   0.112   1.450   6.265  0.9465 -1.9501 -1.6645
 1829Sol     MW11326   0.194   1.483   6.277  0.2811  0.9852 -0.7834
 1830Sol     OW11327   3.827   0.444   6.668 -0.6458  0.2489  0.2564
 1830Sol     HW11328   3.784   0.450   6.753 -1.8447 -1.7330 -0.1795
 1830Sol     HW11329   3.865   0.356   6.667  0.1430  0.5909 -0.9185
 1830Sol     MW11330   3.827   0.437   6.676 -0.0652 -0.2500  1.0402
 1831Sol     OW11331   1.666   1.624   4.567 -0.6738 -0.2499 -1.0978
 1831Sol     HW11332   1.617   1.692   4.521 -1.7217 -0.2812 -0.0512
 1831Sol     HW11333   1.672   1.656   4.657 -0.5412 -1.2036 -0.7660
 1831Sol     MW11334   1.662   1.633   4.571 -0.2691 -0.0008  0.2129
 1832Sol     OW11335   3.688   0.168   2.538  0.5009  0.2191  0.0961
 1832Sol     HW11336   3.738   0.244   2.570  1.8368 -0.3884 -0.5127
 1832Sol     HW11337   3.674   0.185   2.445  0.1886  0.0586  0.1137
 1832Sol     MW11338   3.691   0.176   2.533 -0.4842  0.2510 -0.2054
 1833Sol     OW11339   3.043   1.865   6.657 -0.1144 -0.0532 -0.3148
 1833Sol     HW11340   3.077   1.863   6.567  1.3320 -0.6950  0.2335
 1833Sol     HW11341   2.969   1.805   6.656 -1.5961  1.7354 -1.6509
 1833Sol     MW11342   3.039   1.860   6.648  0.3385 -0.1067  0.0137
 1834Sol     OW11343   1.208   1.449   3.857  0.8603  0.4621  0.2539
 1834Sol     HW11344   1.144   1.465   3.789  0.2804  0.0857  0.7005
 1834Sol     HW11345   1.277   1.513   3.842  1.1552 -0.1719 -1.2024
 1834Sol     MW11346   1.208   1.456   3.850 -0.0556  0.3781  0.5544
 1835Sol     OW11347   2.693   0.802   6.543  0.1916  0.2426  0.1362
 1835Sol     HW11348   2.754   0.865   6.505  0.9320 -1.1235 -0.9838
 1835Sol     HW11349   2.606   0.838   6.525  0.6163  1.7707  0.9854
 1835Sol     MW11350   2.691   0.811   6.538 -0.6271  0.2689 -0.5273
 1836Sol     OW11351   3.843   1.478   3.055 -0.4086  0.1229  0.1160
 1836Sol     HW11352   3.788   1.530   2.995  2.3981  1.8968 -1.0250
 1836Sol     HW11353   3.857   1.395   3.010 -1.8622 -0.2187  0.2762
 1836Sol     MW11354   3.839   1.476   3.046 -0.4889  0.3087 -0.4938
 1837Sol     OW11355   1.197   3.226   2.520 -0.2028  0.2244 -0.0180
 1837Sol     HW11356   1.161   3.175   2.447  2.4988 -0.7520 -0.7109
 1837Sol     HW11357   1.271   3.174   2.552 -0.5264  1.2927  2.5769
 1837Sol     MW11358   1.200   3.217   2.516  0.6151 -0.8551  0.1032
 1838Sol     OW11359   0.584   1.404   3.956  0.0194 -0.1364 -0.3607
 1838Sol     HW11360   0.655   1.417   4.020 -0.2609  1.6353 -0.3732
 1838Sol     HW11361   0.573   1.490   3.915  0.6330 -1.4043 -3.2803
 1838Sol     MW11362   0.589   1.413   3.958 -0.4373 -0.5096  0.0507
 1839Sol     OW11363   3.133   2.329   3.683  0.4620 -0.6537  0.0053
 1839Sol     HW11364   3.081   2.326   3.603 -0.3991 -0.6188  0.5546
 1839Sol     HW11365   3.075   2.294   3.751  0.0385  2.3522  1.2343
 1839Sol     MW11366   3.123   2.325   3.682  0.0511 -0.2451  1.2187
 1840Sol     OW11367   0.840   0.726   2.090 -0.1963 -0.3577 -0.0792
 1840Sol     HW11368   0.841   0.680   2.006 -0.0172 -1.2575  0.4143
 1840Sol     HW11369   0.748   0.723   2.118 -0.8565  2.6390 -1.7007
 1840Sol     MW11370   0.832   0.721   2.085  0.0266 -0.2322 -0.1573
 1841Sol     OW11371   4.029   0.466   3.425 -0.2964 -0.6732 -0.0970
 1841Sol     HW11372   3.958   0.507   3.475 -1.4795  0.0274 -2.2989
 1841Sol     HW11373   4.043   0.382   3.469 -1.1497  0.0086  1.5379
 1841Sol     MW11374   4.024   0.462   3.433  0.6609 -0.3073 -0.2973
 1842Sol     OW11375   1.280   3.476   4.037 -0.0207 -0.0627  0.2232
 1842Sol     HW11376   1.255   3.446   4.124  2.4507 -0.1378  0.9407
 1842Sol     HW11377   1.282   3.571   4.044  0.8825 -0.0884  0.4916
 1842Sol     MW11378   1.278   3.482   4.045 -0.0298  0.2509  0.2708
 1843Sol     OW11379   3.274   1.560   3.067  0.6483 -0.4601 -0.4880
 1843Sol     HW11380   3.326   1.525   2.995  1.2978  0.9592 -0.7332
 1843Sol     HW11381   3.197   1.504   3.072  0.9408 -0.9778 -1.8349
 1843Sol     MW11382   3.272   1.552   3.061 -0.2054  0.2101 -0.4501
 1844Sol     OW11383   1.130   2.772   6.849 -0.4862  0.3590 -0.1359
 1844Sol     HW11384   1.090   2.686   6.865 -1.1255  0.8200  0.7373
 1844Sol     HW11385   1.074   2.812   6.783  0.2401 -0.1912 -1.0967
 1844Sol     MW11386   1.121   2.768   6.844  0.2147  0.1316  0.5213
 1845Sol     OW11387   0.975   3.155   6.196 -0.0265 -0.1680 -0.0124
 1845Sol     HW11388   0.990   3.165   6.102  0.7829 -1.2724 -0.0135
 1845Sol     HW11389   0.962   3.244   6.228 -1.1483  0.1611 -1.3025
 1845Sol     MW11390   0.975   3.164   6.190 -0.3702 -0.8631 -0.0506
 1846Sol     OW11391   1.072   3.694   6.245 -0.8953  0.0800 -0.2176
 1846Sol     HW11392   1.028   3.729   6.168 -0.4088  1.6250  0.1881
 1846Sol     HW11393   1.157   3.664   6.213 -1.8558 -2.0459 -0.8270
 1846Sol     MW11394   1.076   3.695   6.235 -0.0362  0.5569 -0.4691
 1847Sol     OW11395   0.558   2.502   5.462 -0.3125 -1.1176 -0.4060
 1847Sol     HW11396   0.484   2.546   5.504 -0.1017 -0.5813 -0.5994
 1847Sol     HW11397   0.582   2.559   5.389  0.2771 -1.3076 -0.3621
 1847Sol     MW11398   0.554   2.511   5.459  0.4965 -0.2674  0.3140
 1848Sol     OW11399   2.216   1.953   6.408  0.0389 -0.0100  0.0207
 1848Sol     HW11400   2.305   1.939   6.440  0.0122 -1.2597 -0.4284
 1848Sol     HW11401   2.228   1.994   6.323  0.1534  1.0014  0.5133
 1848Sol     MW11402   2.225   1.955   6.404  0.3806 -0.0229 -0.0768
 1849Sol     OW11403   2.827   3.194   2.844  0.2238 -0.1469  0.0966
 1849Sol     HW11404   2.775   3.162   2.770 -0.2428  0.3969  0.1849
 1849Sol     HW11405   2.802   3.136   2.917  0.6037 -0.6149 -0.1428
 1849Sol     MW11406   2.820   3.186   2.844 -0.0739 -1.2816 -0.4352
 1850Sol     OW11407   3.701   1.898   2.501  0.4134 -1.0369 -0.8776
 1850Sol     HW11408   3.764   1.877   2.569  0.2379 -0.6116 -0.5825
 1850Sol     HW11409   3.751   1.895   2.420  0.7911 -0.7875 -0.6537
 1850Sol     MW11410   3.711   1.895   2.500  0.0742  0.1245  0.4434
 1851Sol     OW11411   3.286   0.936   5.582  0.2353  0.3125  0.2317
 1851Sol     HW11412   3.235   0.907   5.657  0.4926 -0.2929  0.1715
 1851Sol     HW11413   3.369   0.891   5.589  0.7131  1.1851  0.2386
 1851Sol     MW11414   3.289   0.929   5.589  0.0250  0.1976  0.2606
 1852Sol     OW11415   1.121   2.964   3.803 -0.3372 -0.0537  0.2447
 1852Sol     HW11416   1.123   3.047   3.755  2.0198  0.2934  0.9072
 1852Sol     HW11417   1.076   2.904   3.744  0.9404  0.8264 -1.6631
 1852Sol     MW11418   1.117   2.966   3.793  0.4720  0.1742 -0.2558
 1853Sol     OW11419   2.429   1.307   2.016  0.1135  0.0863  0.3006
 1853Sol     HW11420   2.382   1.230   2.047 -1.4943  0.7844 -0.3638
 1853Sol     HW11421   2.490   1.274   1.950 -0.2963 -0.6676  0.2971
 1853Sol     MW11422   2.430   1.297   2.013  0.5079  0.0270 -0.1018
 1854Sol     OW11423   3.556   0.181   6.761 -0.4144 -0.7659 -0.4066
 1854Sol     HW11424   3.627   0.120   6.742  0.3493  0.2301 -0.7844
 1854Sol     HW11425   3.489   0.128   6.805  0.4878 -1.7369 -0.2021
 1854Sol     MW11426   3.556   0.171   6.763 -0.0928  0.7643 -0.3351
 1855Sol     OW11427   2.985   0.498   5.380  0.0147  0.0409 -0.1335
 1855Sol     HW11428   2.948   0.567   5.434 -1.0444  0.7065 -1.6569
 1855Sol     HW11429   3.080   0.513   5.382  0.0218 -0.2078  1.8460
 1855Sol     MW11430   2.990   0.506   5.385  0.3604  0.1939  0.3492
 1856Sol     OW11431   3.337   0.674   4.778  0.4398  0.1096 -0.5091
 1856Sol     HW11432   3.369   0.764   4.791 -0.4243  0.4773 -0.8714
 1856Sol     HW11433   3.281   0.658   4.854 -0.7329  0.4925 -1.2751
 1856Sol     MW11434   3.335   0.681   4.786 -0.0641 -0.1335  0.9185
 1857Sol     OW11435   2.981   1.644   4.710  0.3944  0.1955  0.4918
 1857Sol     HW11436   2.944   1.732   4.709  0.5895  0.2802  0.7445
 1857Sol     HW11437   3.026   1.638   4.794 -2.2319 -1.2611  1.8284
 1857Sol     MW11438   2.982   1.652   4.717 -0.3047  0.0230  0.3733
 1858Sol     OW11439   0.640   1.614   2.656 -0.5700 -0.0133  0.5105
 1858Sol     HW11440   0.653   1.526   2.619  1.1564  0.6667 -0.5606
 1858Sol     HW11441   0.639   1.600   2.751  1.4708 -1.0039  0.4293
 1858Sol     MW11442   0.641   1.605   2.661  0.3307 -0.0168  0.4112
 1859Sol     OW11443   3.467   3.394   2.289  0.0119 -0.8300  0.3880
 1859Sol     HW11444   3.548   3.409   2.240 -0.5477 -0.7682 -0.5272
 1859Sol     HW11445   3.469   3.301   2.310  0.3727 -0.8061  0.4661
 1859Sol     MW11446   3.475   3.387   2.287  0.1061  0.1439  0.7855
 1860Sol     OW11447   0.739   0.476   5.596 -0.1903 -1.0071  0.1452
 1860Sol     HW11448   0.651   0.443   5.575 -0.7729 -0.0319  0.9970
 1860Sol     HW11449   0.724   0.564   5.631  1.2024 -0.5238 -0.4409
 1860Sol     MW11450   0.730   0.481   5.598  0.1136  0.0367  0.1919
 1861Sol     OW11451   3.412   3.621   6.486  0.4200 -0.0611 -0.5253
 1861Sol     HW11452   3.369   3.598   6.568  0.0653  0.6468 -0.5067
 1861Sol     HW11453   3.350   3.597   6.418 -1.5275  4.0770 -0.3718
 1861Sol     MW11454   3.403   3.617   6.488  1.0773 -0.2737 -0.4631
 1862Sol     OW11455   2.818   0.447   6.616  0.1410  0.0383  0.4738
 1862Sol     HW11456   2.889   0.450   6.551 -0.4119  2.1370 -0.0594
 1862Sol     HW11457   2.850   0.501   6.688 -1.1126  1.4831 -0.0112
 1862Sol     MW11458   2.827   0.452   6.616  0.4910  0.4503  0.2884
 1863Sol     OW11459   1.829   1.730   2.757 -0.7342  0.0319  0.0363
 1863Sol     HW11460   1.765   1.785   2.711  0.9060  1.0448 -1.0730
 1863Sol     HW11461   1.896   1.710   2.692  0.3463 -0.6039  1.3104
 1863Sol     MW11462   1.829   1.733   2.747 -0.0845  0.3813 -0.2396
 1864Sol     OW11463   0.333   4.110   2.618 -0.0325 -0.1813  0.3745
 1864Sol     HW11464   0.328   4.134   2.526  1.3736  1.0445  0.6041
 1864Sol     HW11465   0.245   4.126   2.652  0.2209  2.2835 -0.0655
 1864Sol     MW11466   0.325   4.114   2.613  0.2462 -0.1244  0.4736
 1865Sol     OW11467   2.338   3.043   3.900  0.0102 -0.3842  0.0541
 1865Sol     HW11468   2.345   3.104   3.974  1.7227  0.1769 -0.5423
 1865Sol     HW11469   2.382   3.088   3.828  0.0553 -1.7431 -0.7877
 1865Sol     MW11470   2.342   3.053   3.900  0.5544 -0.4312  0.0097
 1866Sol     OW11471   2.817   3.347   5.942 -0.1790  0.1488  0.7391
 1866Sol     HW11472   2.810   3.427   5.994 -1.3236  0.8857 -0.5278
 1866Sol     HW11473   2.823   3.377   5.852 -1.3740 -1.2227  0.1884
 1866Sol     MW11474   2.817   3.357   5.939  0.3943 -0.1958 -0.4783
 1867Sol     OW11475   2.519   3.346   1.578 -0.0601 -0.2907  0.5890
 1867Sol     HW11476   2.527   3.290   1.655 -0.1837  1.0892  1.6208
 1867Sol     HW11477   2.436   3.393   1.590  1.2027  1.9182  0.9676
 1867Sol     MW11478   2.512   3.345   1.586  0.1536 -0.4792  0.2246
 1868Sol     OW11479   3.685   3.295   3.266 -0.3827  0.3867  0.0251
 1868Sol     HW11480   3.629   3.257   3.199 -0.0515  0.1601 -0.1268
 1868Sol     HW11481   3.676   3.390   3.255  0.0897  0.3569 -0.6979
 1868Sol     MW11482   3.679   3.300   3.259 -0.7125  0.0424 -0.8708
 1869Sol     OW11483   0.598   2.046   4.609 -0.0054  0.0449  0.1785
 1869Sol     HW11484   0.679   2.008   4.641  0.5331 -0.8873 -2.2268
 1869Sol     HW11485   0.551   2.072   4.688  2.7568  0.9029  1.5855
 1869Sol     MW11486   0.601   2.045   4.619 -0.7540  0.2956  0.1200
 1870Sol     OW11487   0.156   0.387   3.226 -0.1096 -0.3039  0.2765
 1870Sol     HW11488   0.109   0.306   3.207 -2.9871  1.3843 -0.0473
 1870Sol     HW11489   0.107   0.427   3.298  1.7653  0.7681  1.0071
 1870Sol     MW11490   0.148   0.383   3.231 -0.4655 -0.3032 -0.8406
 1871Sol     OW11491   0.021   0.778   6.563 -0.1041  0.2818  0.6401
 1871Sol     HW11492   0.063   0.804   6.481 -2.8326  1.6249 -0.3826
 1871Sol     HW11493   0.027   0.855   6.619 -0.5612  0.2370  0.7518
 1871Sol     MW11494   0.026   0.787   6.561 -0.2893  0.2153  0.1918
 1872Sol     OW11495   1.823   2.156   3.202  0.6770 -0.3853 -0.2391
 1872Sol     HW11496   1.908   2.112   3.193  2.0422  2.3695 -1.4292
 1872Sol     HW11497   1.841   2.232   3.258 -0.3347  1.8274 -2.8244
 1872Sol     MW11498   1.832   2.159   3.206  0.1258  0.2709  0.4574
 1873Sol     OW11499   3.697   4.150   6.626  0.1667 -0.0118  0.7982
 1873Sol     HW11500   3.667   4.156   6.535  0.0729 -2.7218  0.6066
 1873Sol     HW11501   3.640   4.085   6.666  1.2228  0.0037  2.3808
 1873Sol     MW11502   3.689   4.145   6.621 -0.5694 -0.1258  0.0415
 1874Sol     OW11503   0.298   1.949   2.121  0.4905  0.0934 -0.1773
 1874Sol     HW11504   0.362   1.975   2.054  0.8598 -3.1779 -1.1652
 1874Sol     HW11505   0.214   1.978   2.085  0.7047 -1.4496 -1.9969
 1874Sol     MW11506   0.296   1.954   2.112  0.6026 -0.0335  0.7654
 1875Sol     OW11507   3.792   2.702   4.377 -0.4767  0.0576 -0.1753
 1875Sol     HW11508   3.733   2.639   4.419  0.9891 -1.0163  0.3249
 1875Sol     HW11509   3.823   2.656   4.298  0.7627  0.0574  0.3060
 1875Sol     MW11510   3.790   2.692   4.374 -0.5224 -0.2070 -0.5487
 1876Sol     OW11511   3.065   2.368   4.838 -0.4247  0.4044 -0.2219
 1876Sol     HW11512   3.010   2.299   4.877 -1.5992  0.7879 -1.1494
 1876Sol     HW11513   3.052   2.444   4.895  0.9354 -0.1579  0.8480
 1876Sol     MW11514   3.059   2.369   4.846  0.6071 -0.4571 -0.1414
 1877Sol     OW11515   2.420   1.658   5.010  0.1173 -0.4906 -0.4655
 1877Sol     HW11516   2.363   1.598   4.962 -1.5463 -0.6110  1.5695
 1877Sol     HW11517   2.509   1.635   4.981 -0.6930 -1.9494 -1.8885
 1877Sol     MW11518   2.423   1.650   5.003 -0.3491 -0.0718 -0.0539
 1878Sol     OW11519   0.525   0.328   2.812 -0.0727 -0.5010  0.3680
 1878Sol     HW11520   0.582   0.355   2.884  0.1996 -0.1574  0.0324
 1878Sol     HW11521   0.584   0.285   2.750 -0.5649 -2.1830  1.0533
 1878Sol     MW11522   0.535   0.327   2.813  0.0673 -0.0926  0.2916
 1879Sol     OW11523   2.269   0.624   1.566 -0.2662 -0.0082  0.2311
 1879Sol     HW11524   2.186   0.650   1.527  0.4242 -0.1983 -1.4231
 1879Sol     HW11525   2.247   0.553   1.626 -1.2287 -0.4374 -0.6241
 1879Sol     MW11526   2.260   0.620   1.568 -0.0538 -0.3494 -0.2439
 1880Sol     OW11527   1.489   1.601   3.073 -0.2869 -0.3061 -0.6562
 1880Sol     HW11528   1.582   1.604   3.050 -0.0061 -1.2002  0.2885
 1880Sol     HW11529   1.467   1.508   3.069 -0.3691 -0.4509  1.9971
 1880Sol     MW11530   1.495   1.593   3.071 -0.2229 -0.4520  0.1934
 1881Sol     OW11531   2.008   1.527   2.272 -0.4187  0.2901 -0.0192
 1881Sol     HW11532   1.968   1.598   2.222  0.1034  0.4480 -0.2142
 1881Sol     HW11533   2.052   1.473   2.207 -0.3151  0.1148  0.1943
 1881Sol     MW11534   2.008   1.529   2.262  0.1398 -0.0439 -0.0329
 1882Sol     OW11535   3.162   1.686   5.893 -0.3266 -0.2120 -0.1040
 1882Sol     HW11536   3.142   1.592   5.891  0.7000 -0.4113 -3.1280
 1882Sol     HW11537   3.084   1.728   5.857 -0.5092  0.0644  0.5996
 1882Sol     MW11538   3.153   1.681   5.890  0.0559  0.4345  0.0395
 1883Sol     OW11539   1.834   4.127   5.923  0.4587 -0.1736 -0.2389
 1883Sol     HW11540   1.923   4.144   5.893  0.7154 -0.1309  0.5280
 1883Sol     HW11541   1.801   4.060   5.863  1.0741 -0.3330 -0.4075
 1883Sol     MW11542   1.839   4.122   5.915  0.1129 -0.1913  0.4030
 1884Sol     OW11543   2.754   0.774   3.053  0.1463  0.0539  0.1866
 1884Sol     HW11544   2.799   0.817   3.126  1.3948 -1.0321  0.0618
 1884Sol     HW11545   2.817   0.775   2.981 -0.1260 -1.1752 -0.0875
 1884Sol     MW11546   2.763   0.778   3.053  0.0520 -0.6084  0.0958
 1885Sol     OW11547   1.822   3.282   2.851 -0.2183 -0.0313 -0.3317
 1885Sol     HW11548   1.781   3.360   2.891  0.1107 -0.3511  0.6471
 1885Sol     HW11549   1.763   3.211   2.875 -0.2832 -0.1492 -0.8523
 1885Sol     MW11550   1.813   3.283   2.857  0.1852 -0.5450 -0.5210
 1886Sol     OW11551   0.885   1.317   6.425  0.5273 -0.6818  0.5744
 1886Sol     HW11552   0.926   1.274   6.350 -1.9513  0.2910 -1.4581
 1886Sol     HW11553   0.800   1.273   6.434  0.6508 -0.5467  2.6170
 1886Sol     MW11554   0.881   1.309   6.419 -0.2435  0.9511  0.4604
 1887Sol     OW11555   1.846   3.999   6.549 -0.3036  0.3769 -0.3146
 1887Sol     HW11556   1.910   3.929   6.545  0.0131  0.6152  0.3617
 1887Sol     HW11557   1.896   4.079   6.532 -0.7685  0.3839 -1.6689
 1887Sol     MW11558   1.856   4.000   6.547  0.1150 -0.0077 -0.0628
 1888Sol     OW11559   1.919   2.916   4.664 -0.3344 -0.4845  0.3089
 1888Sol     HW11560   1.998   2.877   4.701 -0.3759 -1.0344 -0.1827
 1888Sol     HW11561   1.886   2.851   4.602  0.5224  1.0095 -1.7693
 1888Sol     MW11562   1.923   2.907   4.662 -0.3673 -0.0762  0.3357
 1889Sol     OW11563   1.530   2.866   4.685 -0.8658  0.3095  0.4494
 1889Sol     HW11564   1.498   2.819   4.762  0.0281  0.0730  0.6862
 1889Sol     HW11565   1.590   2.932   4.720  0.3183 -0.4583 -0.1037
 1889Sol     MW11566   1.532   2.867   4.695 -0.4625 -0.4340  0.2741
 1890Sol     OW11567   2.260   2.146   3.343  0.2629 -0.0207  0.3719
 1890Sol     HW11568   2.293   2.138   3.433 -2.7224 -1.2244  1.4124
 1890Sol     HW11569   2.256   2.240   3.327 -0.4801  0.2391  2.0018
 1890Sol     MW11570   2.263   2.154   3.349 -0.2081 -0.5020  0.3537
 1891Sol     OW11571   2.323   2.694   5.443  0.0006 -0.4452  0.0343
 1891Sol     HW11572   2.308   2.685   5.349 -2.0274 -1.0316  0.3941
 1891Sol     HW11573   2.323   2.788   5.458  1.9912 -0.2999 -0.7965
 1891Sol     MW11574   2.321   2.701   5.436  0.1252 -0.5269  0.1550
 1892Sol     OW11575   3.391   0.542   3.153  0.1551 -0.5486  0.3411
 1892Sol     HW11576   3.486   0.558   3.158  0.2040 -0.5769 -0.3513
 1892Sol     HW11577   3.383   0.446   3.153  0.1819 -0.5559 -0.3700
 1892Sol     MW11578   3.399   0.534   3.153 -0.3167 -0.0766  0.1409
 1893Sol     OW11579   1.934   0.698   2.445  0.3486 -0.1038  0.6440
 1893Sol     HW11580   1.948   0.676   2.537 -0.9279  1.3202  1.1859
 1893Sol     HW11581   2.007   0.757   2.424 -0.0923  0.6291  1.1274
 1893Sol     MW11582   1.942   0.701   2.452 -0.1595  0.4733  0.4085
 1894Sol     OW11583   1.073   2.474   6.842 -0.2055 -0.3678  0.1169
 1894Sol     HW11584   1.143   2.478   6.907  0.5498 -0.8102 -0.6746
 1894Sol     HW11585   1.025   2.393   6.864 -0.2552 -0.2552  0.4278
 1894Sol     MW11586   1.075   2.467   6.850 -0.9218 -0.5621  1.0359
 1895Sol     OW11587   2.455   1.862   6.110  0.1437 -0.0148 -0.0960
 1895Sol     HW11588   2.427   1.777   6.144  2.5713 -0.3511  1.1216
 1895Sol     HW11589   2.376   1.917   6.116 -1.0538 -1.7415  0.4832
 1895Sol     MW11590   2.445   1.859   6.113  0.0665 -0.2739  0.1997
 1896Sol     OW11591   3.418   2.361   6.134  0.2405 -0.3135 -0.5329
 1896Sol     HW11592   3.334   2.399   6.160  0.0402 -0.2386 -1.2709
 1896Sol     HW11593   3.471   2.362   6.214 -0.1860  0.3746 -0.2530
 1896Sol     MW11594   3.415   2.364   6.144 -0.0682 -0.0076  0.7154
 1897Sol     OW11595   2.428   0.818   3.847  0.2338  0.0035 -0.3367
 1897Sol     HW11596   2.355   0.762   3.822  2.5558 -2.8371 -0.9294
 1897Sol     HW11597   2.420   0.827   3.942 -1.5323  0.7155 -0.5295
 1897Sol     MW11598   2.421   0.814   3.853  0.1217 -0.0287 -0.0985
 1898Sol     OW11599   0.859   2.673   3.189  0.6781 -0.3516 -0.3132
 1898Sol     HW11600   0.933   2.704   3.241 -2.0366  2.2974  2.1370
 1898Sol     HW11601   0.837   2.588   3.228  1.0696 -0.1409  0.3851
 1898Sol     MW11602   0.864   2.668   3.197 -0.5043 -0.2176  0.1520
 1899Sol     OW11603   0.306   3.380   1.946 -0.2519  1.1364  0.0100
 1899Sol     HW11604   0.295   3.430   2.026 -1.0522 -0.1784  0.7471
 1899Sol     HW11605   0.324   3.290   1.976 -1.6868  0.4031 -1.2703
 1899Sol     MW11606   0.307   3.376   1.955 -0.4968  0.5497  0.4189
 1900Sol     OW11607   0.702   1.412   3.361 -0.1891 -0.0093  0.6121
 1900Sol     HW11608   0.756   1.445   3.290  0.1679  0.2484  1.0012
 1900Sol     HW11609   0.650   1.487   3.389  0.1820  0.0720  1.0921
 1900Sol     MW11610   0.702   1.422   3.357  0.1493  0.4711 -0.1455
 1901Sol     OW11611   0.236   1.942   1.526 -0.2746 -0.0692  0.3635
 1901Sol     HW11612   0.181   2.020   1.526  0.2037  0.2724  1.4087
 1901Sol     HW11613   0.322   1.973   1.553  0.1080 -0.8323  0.0423
 1901Sol     MW11614   0.239   1.952   1.528  0.1449  0.1976 -0.8154
 1902Sol     OW11615   2.236   1.087   4.493  0.1591  0.4868 -0.3649
 1902Sol     HW11616   2.308   1.085   4.429  0.1539 -0.1617 -0.3622
 1902Sol     HW11617   2.192   1.002   4.481 -0.4592  0.7847 -0.1991
 1902Sol     MW11618   2.239   1.079   4.486  0.8297 -0.4992  0.1170
 1903Sol     OW11619   2.808   1.592   3.289  0.1565 -0.3061 -0.1510
 1903Sol     HW11620   2.842   1.514   3.245 -0.5486 -1.9859  2.1546
 1903Sol     HW11621   2.886   1.640   3.316  0.7490 -2.3722  2.0490
 1903Sol     MW11622   2.818   1.589   3.288 -0.2928  0.6111 -0.0476
 1904Sol     OW11623   3.997   0.495   1.717  0.5839  0.1908  0.4577
 1904Sol     HW11624   3.983   0.567   1.656 -1.3173  1.0155  1.8263
 1904Sol     HW11625   3.976   0.416   1.667  0.2631  0.7611 -0.3057
 1904Sol     MW11626   3.994   0.494   1.707  0.2969 -0.2917 -0.4416
 1905Sol     OW11627   1.640   3.115   4.749  0.6365 -0.3216 -0.1187
 1905Sol     HW11628   1.585   3.136   4.824 -0.8879 -1.3743 -0.9283
 1905Sol     HW11629   1.597   3.156   4.674  1.3161 -0.5673 -0.6531
 1905Sol     MW11630   1.631   3.120   4.749  1.5849 -0.2642  0.3997
 1906Sol     OW11631   1.518   3.092   2.003 -0.1142 -0.2244 -0.0712
 1906Sol     HW11632   1.463   3.160   1.965  0.3349  0.0380 -0.2627
 1906Sol     HW11633   1.600   3.096   1.952 -0.6113 -1.8831 -1.0401
 1906Sol     MW11634   1.521   3.098   1.995 -1.0168  0.8099 -0.1169
 1907Sol     OW11635   3.779   4.182   2.296 -0.3670  0.2138 -0.9169
 1907Sol     HW11636   3.799   4.119   2.226  1.1172  0.0450 -0.3498
 1907Sol     HW11637   3.860   4.229   2.310 -0.5571  0.0263  0.9194
 1907Sol     MW11638   3.788   4.180   2.291 -0.5181  0.5914  0.5737
 1908Sol     OW11639   3.044   0.215   3.693  0.0517 -0.3890 -0.2929
 1908Sol     HW11640   3.076   0.170   3.771 -0.7348  0.4318  0.5020
 1908Sol     HW11641   3.121   0.261   3.659  0.4620 -0.9770 -0.1850
 1908Sol     MW11642   3.054   0.215   3.697 -0.1914 -0.2822 -0.3681
 1909Sol     OW11643   2.440   1.158   6.080 -0.0548 -0.1435  0.1946
 1909Sol     HW11644   2.394   1.078   6.053 -0.3052 -0.2455  0.8966
 1909Sol     HW11645   2.528   1.129   6.102  0.1553 -0.0571 -0.5128
 1909Sol     MW11646   2.444   1.148   6.080  0.4731  0.0514 -0.5096
 1910Sol     OW11647   2.370   0.302   6.450 -0.4039  0.2989  0.3007
 1910Sol     HW11648   2.378   0.397   6.456 -0.9893  0.4497 -1.1158
 1910Sol     HW11649   2.460   0.271   6.435 -0.3540  0.7147 -0.2526
 1910Sol     MW11650   2.379   0.307   6.449  0.5339 -0.2752 -0.2481
 1911Sol     OW11651   2.677   3.175   5.265  0.2315  0.2623 -0.1844
 1911Sol     HW11652   2.633   3.090   5.271 -1.3805  1.0813 -0.4807
 1911Sol     HW11653   2.646   3.223   5.341  1.3597  0.5068  0.1304
 1911Sol     MW11654   2.671   3.171   5.272 -0.2636 -0.1094 -0.0772
 1912Sol     OW11655   0.197   3.414   5.571 -0.2640 -0.5491 -0.4052
 1912Sol     HW11656   0.133   3.448   5.510 -0.4888 -1.2718 -0.5832
 1912Sol     HW11657   0.166   3.441   5.658 -0.0294  0.3352 -0.5977
 1912Sol     MW11658   0.189   3.419   5.574 -0.5085 -0.2791 -1.1044
 1913Sol     OW11659   2.676   2.765   2.999  0.2633 -0.2356  0.0555
 1913Sol     HW11660   2.695   2.858   3.013 -2.5446  0.4540 -0.5278
 1913Sol     HW11661   2.582   2.756   3.016  0.5219 -3.0264  0.3146
 1913Sol     MW11662   2.669   2.773   3.002 -0.0390 -0.0370  0.0886
 1914Sol     OW11663   0.205   3.456   4.243  0.2448  0.1864 -0.4226
 1914Sol     HW11664   0.154   3.423   4.169 -1.9203  1.9743  0.2412
 1914Sol     HW11665   0.210   3.382   4.303  1.2368 -0.9993 -1.9203
 1914Sol     MW11666   0.201   3.447   4.241 -0.0396  0.8569  0.2325
 1915Sol     OW11667   0.299   0.690   1.733 -0.0189 -0.0551 -0.2556
 1915Sol     HW11668   0.240   0.714   1.805 -1.0521 -1.1304 -0.7296
 1915Sol     HW11669   0.274   0.600   1.711  1.4779 -0.3460 -0.7954
 1915Sol     MW11670   0.291   0.684   1.738 -0.2348  0.8982  0.0811
 1916Sol     OW11671   0.739   3.461   5.651  0.3696 -0.0319 -0.3500
 1916Sol     HW11672   0.818   3.409   5.636  0.1264 -0.5448  0.1010
 1916Sol     HW11673   0.674   3.397   5.682  0.8872  0.9170  2.9691
 1916Sol     MW11674   0.741   3.451   5.653  0.2654 -0.4102 -0.2312
 1917Sol     OW11675   3.682   1.676   4.026  0.5022  0.1504 -0.1752
 1917Sol     HW11676   3.612   1.673   4.091  0.1520 -0.2416 -0.5694
 1917Sol     HW11677   3.669   1.598   3.972  2.6337 -1.1685  1.1695
 1917Sol     MW11678   3.675   1.669   4.027 -0.5881  0.2709  0.7913
 1918Sol     OW11679   2.214   0.388   1.699 -0.2452 -0.3996 -0.0690
 1918Sol     HW11680   2.136   0.332   1.702 -0.4413 -0.1484 -0.3585
 1918Sol     HW11681   2.259   0.361   1.619 -1.0058  0.7147 -0.9041
 1918Sol     MW11682   2.211   0.381   1.692 -0.0954  0.3191 -0.6680
 1919Sol     OW11683   2.619   3.160   6.001  0.5630 -0.7804  0.4095
 1919Sol     HW11684   2.691   3.210   5.964  1.3333 -2.6161 -0.6654
 1919Sol     HW11685   2.661   3.089   6.049 -0.5004 -0.1962  2.2548
 1919Sol     MW11686   2.629   3.158   6.002 -0.2630  0.6726  0.0617
 1920Sol     OW11687   3.263   3.521   4.328  0.2631  0.3112 -0.4149
 1920Sol     HW11688   3.344   3.515   4.277  0.0724 -0.4917 -0.6336
 1920Sol     HW11689   3.224   3.434   4.321 -0.4732  0.6099 -0.0664
 1920Sol     MW11690   3.267   3.513   4.323 -0.3726 -0.3009 -0.2127
 1921Sol     OW11691   2.746   0.718   4.435 -0.4249 -0.1640 -0.4752
 1921Sol     HW11692   2.674   0.777   4.412  0.2184  1.1571  0.7851
 1921Sol     HW11693   2.703   0.634   4.451 -1.7767  0.6982  0.6705
 1921Sol     MW11694   2.735   0.716   4.434  0.2644  0.0103  0.3805
 1922Sol     OW11695   3.911   0.843   6.021 -0.5036 -0.1432 -0.4409
 1922Sol     HW11696   3.999   0.879   6.021 -1.0141  1.1677  0.3814
 1922Sol     HW11697   3.890   0.831   6.114 -1.8987  1.3949 -0.5345
 1922Sol     MW11698   3.917   0.845   6.030  0.4529  0.1766  0.0040
 1923Sol     OW11699   0.104   3.845   4.455 -0.0651 -0.4015  0.3612
 1923Sol     HW11700   0.190   3.876   4.481 -0.2186  0.4197 -0.0707
 1923Sol     HW11701   0.118   3.802   4.370 -0.0145 -0.6132  0.4781
 1923Sol     MW11702   0.113   3.844   4.449  0.2932  0.0926  0.2988
 1924Sol     OW11703   3.724   0.350   5.809  0.7921  0.1202 -0.3322
 1924Sol     HW11704   3.796   0.302   5.769  0.0707 -1.1174 -0.1834
 1924Sol     HW11705   3.663   0.366   5.737 -0.1913 -1.5193  0.1034
 1924Sol     MW11706   3.725   0.347   5.799  0.2813 -0.1695  0.0366
 1925Sol     OW11707   1.522   1.146   4.178 -0.5105 -0.1082 -0.3139
 1925Sol     HW11708   1.460   1.207   4.137  0.0457  1.3172  0.9187
 1925Sol     HW11709   1.475   1.113   4.255 -0.0582  0.3111  0.1406
 1925Sol     MW11710   1.512   1.149   4.181 -0.7766  0.2596 -0.1440
 1926Sol     OW11711   1.450   0.525   3.750 -0.7451 -0.0915  0.0279
 1926Sol     HW11712   1.399   0.454   3.791  1.0938 -0.7549  1.2656
 1926Sol     HW11713   1.470   0.584   3.822  0.7282 -0.1545 -0.3188
 1926Sol     MW11714   1.447   0.524   3.760  0.3928 -0.3874 -0.1511
 1927Sol     OW11715   2.829   0.750   4.023  0.1860  0.4087 -0.3445
 1927Sol     HW11716   2.784   0.826   4.060  1.2620 -0.1296  2.1495
 1927Sol     HW11717   2.825   0.764   3.928 -2.0759  2.1477 -0.0303
 1927Sol     MW11718   2.825   0.758   4.018  0.3796  0.5819  0.1113
 1928Sol     OW11719   0.531   2.927   6.547 -0.4911  0.2344  0.4652
 1928Sol     HW11720   0.557   2.844   6.507  0.9990  0.6909  0.4673
 1928Sol     HW11721   0.587   2.935   6.624 -0.2735  1.4866  0.1911
 1928Sol     MW11722   0.538   2.920   6.551  0.3100  0.2272  0.6637
 1929Sol     OW11723   0.693   0.378   4.029 -0.6895  0.3635 -0.0088
 1929Sol     HW11724   0.634   0.426   4.087 -1.2938  0.0871 -0.3952
 1929Sol     HW11725   0.647   0.374   3.945 -0.5182 -0.6410 -0.0651
 1929Sol     MW11726   0.684   0.382   4.027  0.3461  0.1181 -0.1924
 1930Sol     OW11727   2.555   2.402   3.072  0.2942 -0.5695 -0.1766
 1930Sol     HW11728   2.489   2.466   3.045  0.5088 -0.5547 -0.6763
 1930Sol     HW11729   2.629   2.419   3.013  0.2856 -1.3944 -0.4306
 1930Sol     MW11730   2.556   2.409   3.064 -0.0027  0.0260 -0.5593
 1931Sol     OW11731   3.678   0.555   2.344 -0.6439 -0.4452  0.2438
 1931Sol     HW11732   3.683   0.508   2.261  0.1772  1.6271 -0.9283
 1931Sol     HW11733   3.585   0.568   2.358 -0.7840 -0.6865 -0.4260
 1931Sol     MW11734   3.670   0.552   2.338 -0.1035 -0.0784 -0.5370
 1932Sol     OW11735   0.645   0.056   3.802  0.4083  0.0413  0.2785
 1932Sol     HW11736   0.701   0.118   3.755  0.8282 -0.8251 -0.3631
 1932Sol     HW11737   0.559   0.099   3.804  0.1671 -0.2876 -2.0443
 1932Sol     MW11738   0.642   0.066   3.798  0.5043 -0.1522 -0.8470
 1933Sol     OW11739   1.675   3.161   6.543  0.4662  0.1789 -0.0397
 1933Sol     HW11740   1.732   3.141   6.468  0.1587  1.2069 -0.5511
 1933Sol     HW11741   1.598   3.105   6.530  1.0101 -0.6504  0.2462
 1933Sol     MW11742   1.673   3.154   6.535 -1.0172 -0.2378  0.4675
 1934Sol     OW11743   3.889   1.145   3.555 -0.2935  0.0799  0.0380
 1934Sol     HW11744   3.809   1.103   3.523 -0.2864  0.1649 -0.0892
 1934Sol     HW11745   3.873   1.238   3.544  0.1594  0.0684 -0.7903
 1934Sol     MW11746   3.880   1.149   3.551 -1.0781  0.1090  0.0421
 1935Sol     OW11747   0.266   1.640   5.379  0.5302  0.0549 -0.5846
 1935Sol     HW11748   0.235   1.716   5.329 -0.7520  1.4997  2.3128
 1935Sol     HW11749   0.360   1.637   5.361  0.9483  3.4734  0.6514
 1935Sol     MW11750   0.272   1.646   5.373 -0.2350 -0.0488 -0.5246
 1936Sol     OW11751   2.379   2.980   1.887  0.1364 -0.7634 -0.3037
 1936Sol     HW11752   2.447   3.038   1.852  0.3687 -1.0750 -0.3741
 1936Sol     HW11753   2.414   2.892   1.874 -0.2245 -0.9203 -0.2164
 1936Sol     MW11754   2.388   2.978   1.882 -0.7935  0.9964  0.6179
 1937Sol     OW11755   3.784   2.675   2.134 -0.7847 -0.4320  0.8188
 1937Sol     HW11756   3.811   2.583   2.142  3.2492  0.2721 -2.6168
 1937Sol     HW11757   3.835   2.721   2.201  1.1973 -0.0782 -0.8806
 1937Sol     MW11758   3.791   2.671   2.141 -0.3579  0.0270  0.2541
 1938Sol     OW11759   3.162   0.041   1.605  0.1231 -0.2010 -0.3051
 1938Sol     HW11760   3.128  -0.014   1.676  0.3303 -0.6938 -0.5846
 1938Sol     HW11761   3.254   0.055   1.628  0.5124 -1.4032 -1.1220
 1938Sol     MW11762   3.167   0.037   1.614  0.0522 -0.1467 -0.2119
 1939Sol     OW11763   0.532   2.522   6.714  0.4038  0.0498 -0.0162
 1939Sol     HW11764   0.450   2.478   6.694  0.9792 -1.0075 -0.1080
 1939Sol     HW11765   0.547   2.580   6.640  0.0733 -0.2432 -0.3147
 1939Sol     MW11766   0.526   2.523   6.706 -0.6397 -0.2643  0.2540
 1940Sol     OW11767   2.684   1.965   5.168  0.3068  0.5286 -0.5967
 1940Sol     HW11768   2.743   2.026   5.212  0.5358  0.2824 -0.5565
 1940Sol     HW11769   2.697   1.882   5.215 -1.2094  0.8404  0.4032
 1940Sol     MW11770   2.691   1.963   5.176  0.3549 -0.1789 -0.2144
 1941Sol     OW11771   3.273   0.589   2.073  0.1180 -0.0487  0.3861
 1941Sol     HW11772   3.181   0.564   2.065  0.3877 -0.7462 -0.5811
 1941Sol     HW11773   3.281   0.670   2.021  0.5060 -1.1654 -1.3386
 1941Sol     MW11774   3.265   0.594   2.068  0.1672 -0.5757 -0.0731
 1942Sol     OW11775   0.675   1.184   3.190 -0.0260  0.2582  0.0720
 1942Sol     HW11776   0.699   1.252   3.253  1.4144 -1.1037  1.0450
 1942Sol     HW11777   0.605   1.223   3.138  0.2987  2.2282  1.0518
 1942Sol     MW11778   0.671   1.194   3.191 -0.2025 -0.2380  0.3068
 1943Sol     OW11779   1.831   2.828   3.616 -0.1781  0.5920 -0.3078
 1943Sol     HW11780   1.754   2.856   3.665  0.4663  0.9104  0.5427
 1943Sol     HW11781   1.830   2.881   3.536 -1.4475 -0.1992 -0.8296
 1943Sol     MW11782   1.824   2.835   3.613 -0.6300 -0.4431 -0.3520
 1944Sol     OW11783   2.549   3.596   4.188  0.2350 -0.1046  0.1137
 1944Sol     HW11784   2.625   3.643   4.154 -0.2821  0.9787  0.4305
 1944Sol     HW11785   2.528   3.532   4.120  0.9691  0.0955 -0.3086
 1944Sol     MW11786   2.554   3.594   4.179 -0.1552 -0.1770  0.2179
 1945Sol     OW11787   3.563   1.214   3.625  0.1643  0.1160  0.0733
 1945Sol     HW11788   3.498   1.257   3.679 -1.5366  0.7663 -2.3874
 1945Sol     HW11789   3.569   1.269   3.546  0.6570 -2.1555 -1.5184
 1945Sol     MW11790   3.558   1.223   3.622 -0.0894  0.3166 -0.2029
 1946Sol     OW11791   0.733   1.793   5.992 -0.0137 -0.2181 -0.1219
 1946Sol     HW11792   0.662   1.736   5.961  0.1444 -0.5434  0.1122
 1946Sol     HW11793   0.742   1.772   6.085  0.6897 -0.5001 -0.2504
 1946Sol     MW11794   0.728   1.786   5.998 -0.2225  0.1639 -0.1708
 1947Sol     OW11795   2.131   3.705   5.707  0.4417 -0.3992 -0.7180
 1947Sol     HW11796   2.118   3.797   5.730  1.6786 -0.0387 -1.4234
 1947Sol     HW11797   2.158   3.663   5.788  2.5222  0.4032 -0.9814
 1947Sol     MW11798   2.132   3.709   5.716  0.0013  0.1108  0.2337
 1948Sol     OW11799   1.831   2.159   5.659 -0.3169 -0.2810  0.1635
 1948Sol     HW11800   1.832   2.217   5.736 -1.9272  1.2729 -0.9475
 1948Sol     HW11801   1.810   2.217   5.586 -3.0781 -2.4309 -0.8393
 1948Sol     MW11802   1.829   2.170   5.660 -0.1799 -0.0405  0.0280
 1949Sol     OW11803   0.485   3.709   4.781 -0.2235  0.2683  0.4614
 1949Sol     HW11804   0.489   3.650   4.856  1.3867 -0.3128 -0.0766
 1949Sol     HW11805   0.510   3.655   4.706  1.0269  1.5490 -0.0718
 1949Sol     MW11806   0.487   3.699   4.781  0.6053  0.2332  0.7259
 1950Sol     OW11807   2.814   2.653   3.710  0.3516  0.4457  0.0308
 1950Sol     HW11808   2.844   2.596   3.639  0.3837 -1.5733  1.5983
 1950Sol     HW11809   2.721   2.632   3.720  0.4799  0.2848  0.9477
 1950Sol     MW11810   2.809   2.646   3.705 -0.3962  0.7495 -0.2139
 1951Sol     OW11811   0.813   2.436   3.360  0.0812 -0.4258  0.6158
 1951Sol     HW11812   0.809   2.347   3.393 -0.3967 -0.0552  1.5762
 1951Sol     HW11813   0.893   2.473   3.398  1.1259 -0.9192 -1.0294
 1951Sol     MW11814   0.820   2.432   3.366 -0.2203  0.3113 -0.2886
 1952Sol     OW11815   2.609   3.926   6.144  0.2888 -0.4115 -0.4102
 1952Sol     HW11816   2.518   3.912   6.172 -0.0504  1.5492 -0.4521
 1952Sol     HW11817   2.621   3.868   6.069 -1.7594  1.1954 -2.0450
 1952Sol     MW11818   2.602   3.920   6.140  0.5632 -0.3531  0.6725
 1953Sol     OW11819   0.561   2.480   2.563  0.2793  0.4247  0.5251
 1953Sol     HW11820   0.655   2.493   2.578  0.1541  2.0827 -0.0382
 1953Sol     HW11821   0.539   2.402   2.613  2.5587 -1.6965 -1.6422
 1953Sol     MW11822   0.567   2.474   2.569 -0.5009 -0.5949 -0.9744
 1954Sol     OW11823   1.700   2.516   5.605  0.1123  0.0775 -0.6828
 1954Sol     HW11824   1.727   2.473   5.686 -0.1848  0.4518 -0.3860
 1954Sol     HW11825   1.604   2.513   5.606  0.0456  1.7203 -0.1265
 1954Sol     MW11826   1.694   2.512   5.612 -0.3615  0.2856 -0.1756
 1955Sol     OW11827   2.969   2.942   5.899  0.3585 -0.0557  0.3020
 1955Sol     HW11828   3.052   2.983   5.923  0.7564 -1.2852  1.1014
 1955Sol     HW11829   2.932   2.998   5.831 -1.2419  4.1940  4.3968
 1955Sol     MW11830   2.973   2.951   5.895  0.1016 -0.0147  0.5476
 1956Sol     OW11831   2.919   3.622   3.454 -0.0506  0.1165 -0.6292
 1956Sol     HW11832   2.996   3.637   3.508 -0.0374 -2.9161  0.3254
 1956Sol     HW11833   2.847   3.660   3.504  0.3679 -0.0876  0.1421
 1956Sol     MW11834   2.919   3.626   3.463 -0.6204  0.0542 -0.1988
 1957Sol     OW11835   0.995   0.785   4.137  0.5123 -0.1811 -0.5742
 1957Sol     HW11836   0.950   0.812   4.217 -0.5437  0.2148 -1.2815
 1957Sol     HW11837   1.065   0.850   4.125  0.5016 -0.0875 -0.1139
 1957Sol     MW11838   0.997   0.793   4.143  0.5209 -0.8155 -0.1239
 1958Sol     OW11839   0.631   3.391   2.711 -0.7529  0.4376 -0.3093
 1958Sol     HW11840   0.552   3.433   2.678 -0.9614 -0.3415 -0.8353
 1958Sol     HW11841   0.608   3.298   2.717  0.7078 -0.0965 -2.3328
 1958Sol     MW11842   0.622   3.386   2.708 -0.0913  0.1847 -0.2924
 1959Sol     OW11843   1.116   1.795   2.733 -0.1751 -0.2916 -0.7966
 1959Sol     HW11844   1.185   1.780   2.797 -0.4189 -2.0673 -0.9271
 1959Sol     HW11845   1.161   1.835   2.659  0.7683 -1.5910 -0.9451
 1959Sol     MW11846   1.126   1.797   2.732 -0.2999 -0.1156 -0.2650
 1960Sol     OW11847   1.887   3.448   1.482  0.6782  0.0896 -0.4045
 1960Sol     HW11848   1.838   3.407   1.411  0.6115 -0.3924 -0.0839
 1960Sol     HW11849   1.978   3.450   1.451  0.3364  1.7055 -1.3236
 1960Sol     MW11850   1.891   3.444   1.473  0.2961  0.1644 -0.0907
 1961Sol     OW11851   0.684   1.188   3.787  0.2645 -0.1396  0.0572
 1961Sol     HW11852   0.668   1.269   3.835  1.5141  0.2643 -0.1992
 1961Sol     HW11853   0.739   1.136   3.846  1.7544  0.3311 -0.8923
 1961Sol     MW11854   0.687   1.190   3.797  0.2748  0.4254 -0.0707
 1962Sol     OW11855   0.621   1.790   5.452 -0.4463  0.1007 -0.0258
 1962Sol     HW11856   0.544   1.841   5.479  0.3479  0.9357  0.7267
 1962Sol     HW11857   0.663   1.844   5.385 -0.6684 -0.4867 -0.6422
 1962Sol     MW11858   0.618   1.800   5.449 -1.1775 -0.3484  0.2641
 1963Sol     OW11859   2.845   3.286   4.927  0.4182 -0.2002  0.4922
 1963Sol     HW11860   2.752   3.267   4.937  0.6497 -1.2444  0.6824
 1963Sol     HW11861   2.885   3.202   4.904  0.9644  0.7350 -2.0744
 1963Sol     MW11862   2.840   3.277   4.926 -0.1599  0.0505 -0.8163
 1964Sol     OW11863   3.866   4.058   3.869  0.1471  0.0883  0.0237
 1964Sol     HW11864   3.850   3.990   3.933  1.7362 -1.2971 -1.0207
 1964Sol     HW11865   3.859   4.140   3.918  1.7287 -0.9597  2.0490
 1964Sol     MW11866   3.864   4.060   3.879 -0.2469  0.9810 -0.2829
 1965Sol     OW11867   1.937   4.161   3.332  0.0928 -0.0560  0.1799
 1965Sol     HW11868   1.950   4.070   3.358  0.5599  0.3558  1.3911
 1965Sol     HW11869   2.019   4.205   3.355 -0.7674  1.0324  1.1898
 1965Sol     MW11870   1.945   4.157   3.336 -0.5093 -0.4651 -0.3315
 1966Sol     OW11871   2.951   0.427   3.348  0.3378 -0.4854  0.1453
 1966Sol     HW11872   2.916   0.422   3.259 -1.4171  1.6263  0.6657
 1966Sol     HW11873   3.022   0.364   3.349 -0.0447 -1.0398 -2.5640
 1966Sol     MW11874   2.954   0.421   3.340  0.5398  0.3992 -0.2416
 1967Sol     OW11875   0.929   1.702   1.750  0.1474  0.4066  0.5296
 1967Sol     HW11876   1.021   1.680   1.733 -0.0926  0.0509 -0.3240
 1967Sol     HW11877   0.931   1.793   1.778  0.7732  0.3794  0.5727
 1967Sol     MW11878   0.937   1.708   1.751  0.2880 -0.3420  0.0393
 1968Sol     OW11879   2.174   2.064   4.686  0.3649  0.1432 -0.1486
 1968Sol     HW11880   2.159   2.157   4.669 -0.3370 -0.2540 -1.7130
 1968Sol     HW11881   2.254   2.063   4.739 -0.4405  1.7182  1.1411
 1968Sol     MW11882   2.180   2.072   4.689 -0.4074  0.7877 -0.2424
 1969Sol     OW11883   3.397   3.658   2.251 -0.3599 -0.4148  0.6396
 1969Sol     HW11884   3.375   3.655   2.158  0.5095  0.6217  0.4037
 1969Sol     HW11885   3.416   3.567   2.274 -1.3564 -0.7926  0.0052
 1969Sol     MW11886   3.396   3.649   2.245 -0.0256 -0.1296 -0.1029
 1970Sol     OW11887   2.082   0.091   5.835  0.2606 -0.5718  0.8714
 1970Sol     HW11888   2.156   0.036   5.863  0.2692 -0.4663  1.0539
 1970Sol     HW11889   2.118   0.145   5.765  0.7528  0.5224  1.9477
 1970Sol     MW11890   2.092   0.091   5.831  0.2431 -0.3187 -0.0667
 1971Sol     OW11891   2.735   1.777   5.360  0.1218 -0.1609 -0.1462
 1971Sol     HW11892   2.735   1.854   5.418  0.2166  0.1421 -0.5511
 1971Sol     HW11893   2.680   1.713   5.406  0.6627 -0.1272  0.5527
 1971Sol     MW11894   2.730   1.778   5.370  0.0552  0.1557 -0.0181
 1972Sol     OW11895   3.440   0.005   3.565  0.0641  0.2862  0.1743
 1972Sol     HW11896   3.464  -0.070   3.510  1.1945  0.0065  1.0408
 1972Sol     HW11897   3.517   0.022   3.618 -0.9151  0.7466  1.4792
 1972Sol     MW11898   3.449  -0.000   3.565  0.1874  0.6055  0.0399
 1973Sol     OW11899   2.080   0.039   6.514 -0.3354  0.0654  0.0553
 1973Sol     HW11900   2.135   0.057   6.438  1.2914  0.4393  1.2873
 1973Sol     HW11901   2.124  -0.034   6.559 -0.5400  0.7088  1.3374
 1973Sol     MW11902   2.089   0.034   6.512  0.2061  0.1398 -0.0613
 1974Sol     OW11903   3.790   1.010   2.239  0.2132  0.3103  0.0571
 1974Sol     HW11904   3.849   0.960   2.183 -0.4035  0.9175 -1.1504
 1974Sol     HW11905   3.704   0.972   2.224  0.1701 -0.1298  1.3087
 1974Sol     MW11906   3.788   1.002   2.233  0.0794 -0.6536 -0.1983
 1975Sol     OW11907   1.949   4.037   3.724  0.4059  0.3127  0.5138
 1975Sol     HW11908   1.865   4.082   3.719  0.0984 -0.2283  0.7592
 1975Sol     HW11909   1.943   3.984   3.803  0.8513  0.0243  0.3543
 1975Sol     MW11910   1.941   4.036   3.731  0.0675 -0.1591 -0.5984
 1976Sol     OW11911   4.047   1.170   4.650 -0.3451  0.6832 -0.2817
 1976Sol     HW11912   3.996   1.117   4.588 -2.8365  2.1352  0.4694
 1976Sol     HW11913   4.019   1.139   4.736  0.6302  0.9722  0.1444
 1976Sol     MW11914   4.040   1.162   4.652  0.3621  0.1283 -0.3806
 1977Sol     OW11915   2.012   0.448   3.273  0.0719  0.1530  0.4123
 1977Sol     HW11916   2.099   0.411   3.263 -0.1581 -0.4242  0.5240
 1977Sol     HW11917   1.996   0.495   3.191 -0.1598 -1.0903 -0.2687
 1977Sol     MW11918   2.018   0.449   3.265 -0.2843  0.2631 -0.3987
 1978Sol     OW11919   3.486   2.691   4.416  0.4466 -0.1452  0.2629
 1978Sol     HW11920   3.443   2.607   4.432  0.5900 -0.4656 -0.9703
 1978Sol     HW11921   3.426   2.756   4.452 -0.2274 -0.7085  0.1647
 1978Sol     MW11922   3.477   2.689   4.421  0.4391 -0.1304 -0.1069
 1979Sol     OW11923   1.331   2.198   4.859  0.8919 -0.5037  0.0627
 1979Sol     HW11924   1.329   2.290   4.884  2.2983 -0.3235 -0.4189
 1979Sol     HW11925   1.301   2.151   4.937 -3.4877  0.5133 -0.8757
 1979Sol     MW11926   1.328   2.202   4.868  0.1434  0.1272  0.4460
 1980Sol     OW11927   4.008   2.993   1.877  0.3214 -0.6946 -0.6921
 1980Sol     HW11928   4.063   2.998   1.956  0.4864 -1.9763 -0.7039
 1980Sol     HW11929   3.980   2.901   1.875 -1.3239 -0.1937 -1.0219
 1980Sol     MW11930   4.010   2.985   1.884 -0.0720 -0.3118  0.2758
 1981Sol     OW11931   3.428   2.515   2.118  0.1968 -0.5180  0.0708
 1981Sol     HW11932   3.470   2.599   2.135 -0.0457 -0.7555  1.9711
 1981Sol     HW11933   3.444   2.464   2.197 -2.4380 -1.1158  0.2688
 1981Sol     MW11934   3.433   2.518   2.127 -0.3707  0.3011  0.0513
 1982Sol     OW11935   0.242   0.415   4.528 -0.6980  1.2911  0.4229
 1982Sol     HW11936   0.247   0.388   4.620  0.0177  2.2736  0.6830
 1982Sol     HW11937   0.264   0.508   4.529  0.7158  0.9998 -0.9085
 1982Sol     MW11938   0.244   0.421   4.536  0.1546  0.3291 -0.2389
 1983Sol     OW11939   2.535   3.894   1.948 -0.1220 -0.6722  0.6377
 1983Sol     HW11940   2.595   3.832   1.906  0.4069 -0.6859  1.4092
 1983Sol     HW11941   2.526   3.965   1.884  0.6647 -0.7012  0.4814
 1983Sol     MW11942   2.540   3.895   1.938 -0.2888  0.2425 -0.2689
 1984Sol     OW11943   2.670   3.771   5.418 -0.6088 -0.4294 -0.5791
 1984Sol     HW11944   2.592   3.825   5.431  0.7615  1.4960 -0.2621
 1984Sol     HW11945   2.742   3.824   5.450  0.7596 -2.5509 -0.0118
 1984Sol     MW11946   2.669   3.780   5.422 -0.4506  0.2104  0.2780
 1985Sol     OW11947   1.448   2.755   4.184  0.8919 -0.1726  0.0471
 1985Sol     HW11948   1.393   2.826   4.150  1.5247  0.4154  0.2360
 1985Sol     HW11949   1.397   2.676   4.169  1.1455  0.0453 -2.3193
 1985Sol     MW11950   1.439   2.754   4.179  0.4395  0.6254 -0.2182
 1986Sol     OW11951   3.651   0.592   3.806  0.4298 -0.2473 -0.1955
 1986Sol     HW11952   3.660   0.565   3.897  0.2070  0.0147 -0.0953
 1986Sol     HW11953   3.565   0.633   3.801 -0.2766 -1.7634 -0.8958
 1986Sol     MW11954   3.644   0.593   3.813  0.2161  0.6932 -0.6757
 1987Sol     OW11955   1.361   2.198   5.830 -0.1650 -0.7157  0.3761
 1987Sol     HW11956   1.420   2.198   5.906 -1.1260  0.7405  1.1409
 1987Sol     HW11957   1.420   2.194   5.754  0.8577 -0.8448  1.1640
 1987Sol     MW11958   1.372   2.198   5.830 -0.3541  0.3009 -0.2841
 1988Sol     OW11959   2.412   2.053   5.465  0.1827  0.1927  0.0766
 1988Sol     HW11960   2.390   1.959   5.470  0.1016  0.2131  0.1022
 1988Sol     HW11961   2.377   2.081   5.381 -0.3382  0.3424  0.3413
 1988Sol     MW11962   2.407   2.047   5.458 -0.5656  0.1576  0.2423
 1989Sol     OW11963   1.527   1.805   4.412 -0.4819 -0.4367 -0.6981
 1989Sol     HW11964   1.579   1.844   4.342  1.5825 -1.3808  0.2811
 1989Sol     HW11965   1.453   1.764   4.367  0.4997 -0.5198 -2.2704
 1989Sol     MW11966   1.525   1.805   4.402  0.1753 -0.1714 -0.3940
 1990Sol     OW11967   0.836   0.516   6.171 -0.5914  0.1761  0.4197
 1990Sol     HW11968   0.898   0.512   6.098  0.0905  1.0180  0.9361
 1990Sol     HW11969   0.891   0.517   6.249 -1.3227 -0.9546  0.9573
 1990Sol     MW11970   0.846   0.516   6.171 -0.2501 -0.3284 -0.4727
 1991Sol     OW11971   3.762   1.253   2.082 -0.2392  0.1399  0.2655
 1991Sol     HW11972   3.832   1.230   2.020 -0.1714  2.2881 -0.4842
 1991Sol     HW11973   3.759   1.178   2.142  0.9734 -1.1393 -1.1990
 1991Sol     MW11974   3.768   1.244   2.082 -0.6023 -0.2226  0.0879
 1992Sol     OW11975   2.639   2.184   1.834 -0.1483  0.5656  0.3899
 1992Sol     HW11976   2.560   2.141   1.801 -0.7128  2.2947 -0.5545
 1992Sol     HW11977   2.704   2.113   1.839 -1.6001 -0.7805  0.7250
 1992Sol     MW11978   2.638   2.174   1.832  0.3693 -0.1065  0.0890
 1993Sol     OW11979   2.677   4.142   4.838 -0.3094 -0.6442 -0.3761
 1993Sol     HW11980   2.661   4.231   4.869  0.4734 -0.2669 -1.0455
 1993Sol     HW11981   2.620   4.132   4.762 -0.6792 -0.8451 -0.0721
 1993Sol     MW11982   2.670   4.149   4.834  0.3359  0.7305  0.1113
 1994Sol     OW11983   3.392   1.854   4.098  0.1058 -0.4699  0.2579
 1994Sol     HW11984   3.343   1.784   4.142 -0.1282 -0.6858 -0.3475
 1994Sol     HW11985   3.330   1.927   4.094  0.2960 -0.2826  0.7439
 1994Sol     MW11986   3.382   1.854   4.102  0.0414 -0.0567  0.3119
 1995Sol     OW11987   0.533   3.824   5.416  0.4696  0.4755 -0.2944
 1995Sol     HW11988   0.563   3.914   5.403  0.6453  0.1545 -2.3457
 1995Sol     HW11989   0.540   3.809   5.510 -0.1051  2.7913  0.1378
 1995Sol     MW11990   0.537   3.830   5.423  1.6086 -0.1576  0.0422
 1996Sol     OW11991   1.410   3.468   2.950 -0.3131 -0.5471  0.4031
 1996Sol     HW11992   1.351   3.468   2.875 -0.0773 -0.4486  0.2185
 1996Sol     HW11993   1.377   3.538   3.006 -0.3650 -0.4851  0.2946
 1996Sol     MW11994   1.401   3.474   2.948 -0.4177  0.1690 -0.2171
 1997Sol     OW11995   2.023   1.478   6.269 -0.3481  0.1527  0.0025
 1997Sol     HW11996   2.087   1.541   6.237 -0.1080 -0.2632 -0.3360
 1997Sol     HW11997   2.015   1.498   6.363  0.3236  0.1631  0.0604
 1997Sol     MW11998   2.028   1.486   6.275  0.6864 -0.1661  0.1741
 1998Sol     OW11999   2.719   1.049   4.590  0.5330 -0.1518  0.0248
 1998Sol     HW12000   2.796   1.061   4.536 -0.8218 -1.0991 -2.1838
 1998Sol     HW12001   2.675   1.134   4.589  0.2551 -0.3037 -0.7784
 1998Sol     MW12002   2.722   1.057   4.585  0.3545 -0.3136 -0.0695
 1999Sol     OW12003   2.850   0.834   5.856 -0.1869  0.1069 -0.1897
 1999Sol     HW12004   2.786   0.767   5.832  2.1640 -2.2068 -0.1930
 1999Sol     HW12005   2.840   0.842   5.951  0.8618 -1.7005  0.0891
 1999Sol     MW12006   2.843   0.829   5.863 -0.0433  0.5817  0.4821
 2000Sol     OW12007   1.944   2.044   6.119 -0.0975 -0.1183 -0.2433
 2000Sol     HW12008   1.869   2.017   6.066 -1.9379  2.0164  1.1572
 2000Sol     HW12009   1.939   2.139   6.120  2.0469  0.0107  0.7459
 2000Sol     MW12010   1.937   2.050   6.115 -0.1963 -0.3722 -0.2388
 2001Sol     OW12011   3.565   2.041   4.374  0.3204  0.0374  0.4179
 2001Sol     HW12012   3.570   1.949   4.398 -0.1051 -0.1451 -0.1653
 2001Sol     HW12013   3.587   2.043   4.281 -1.8071  0.2286 -0.1245
 2001Sol     MW12014   3.567   2.033   4.368  0.7205  0.8451  0.3455
 2002Sol     OW12015   3.443   0.968   6.131 -0.0557  0.0315 -0.1143
 2002Sol     HW12016   3.411   0.916   6.205  1.3442 -0.2349  0.3108
 2002Sol     HW12017   3.490   0.905   6.075 -0.9602  0.2588 -1.1577
 2002Sol     MW12018   3.444   0.957   6.132  0.1842 -0.0625 -0.1030
 2003Sol     OW12019   2.322   3.734   1.452  0.5274  0.3503  0.6262
 2003Sol     HW12020   2.258   3.805   1.453  1.4178  1.1568  1.6582
 2003Sol     HW12021   2.279   3.663   1.404 -0.4969  1.4672 -0.1172
 2003Sol     MW12022   2.312   3.734   1.448 -0.6579 -0.2618  0.1670
 2004Sol     OW12023   0.120   1.395   3.430  0.0909 -0.2569  0.6688
 2004Sol     HW12024   0.062   1.354   3.365 -0.3245 -1.0809  1.5491
 2004Sol     HW12025   0.103   1.489   3.421 -1.4287 -0.4833  0.9353
 2004Sol     MW12026   0.113   1.400   3.423  0.1776 -0.3001 -0.4309
 2005Sol     OW12027   2.179   3.201   5.891  0.0135  0.4071 -0.1504
 2005Sol     HW12028   2.269   3.182   5.863 -0.0480 -1.1393  0.6753
 2005Sol     HW12029   2.135   3.116   5.889 -1.1365  0.9781  0.5380
 2005Sol     MW12030   2.183   3.191   5.888  0.1571 -0.3690 -0.2091
 2006Sol     OW12031   0.680   3.979   2.894  0.3105  0.0344  0.1182
 2006Sol     HW12032   0.675   3.910   2.829  1.9650  0.1970 -0.2084
 2006Sol     HW12033   0.650   4.058   2.849  0.6945 -0.0115 -0.2194
 2006Sol     MW12034   0.677   3.980   2.884 -0.3484  0.0510 -0.0968
 2007Sol     OW12035   0.048   2.209   6.686  0.2977 -0.0599  0.3581
 2007Sol     HW12036  -0.030   2.204   6.741 -0.9431 -2.3845 -1.4685
 2007Sol     HW12037   0.099   2.131   6.710  1.5842  0.9131  0.8369
 2007Sol     MW12038   0.046   2.201   6.693  0.1003  0.6108 -0.2388
 2008Sol     OW12039   1.707   0.439   5.216 -0.1548 -0.1528  0.3825
 2008Sol     HW12040   1.790   0.459   5.174  0.1021 -1.2715  0.3393
 2008Sol     HW12041   1.673   0.524   5.245  1.5716  0.1870  1.4625
 2008Sol     MW12042   1.711   0.449   5.215  0.0075 -0.2994 -0.2362
 2009Sol     OW12043   0.188   0.009   3.168  0.3711  0.2359 -0.2768
 2009Sol     HW12044   0.259   0.052   3.122  1.3612  1.6926  2.4928
 2009Sol     HW12045   0.115   0.070   3.163  0.0933 -0.1444 -0.9383
 2009Sol     MW12046   0.188   0.018   3.163  0.4313 -0.5922 -0.6048
 2010Sol     OW12047   0.621   3.799   5.670  0.4317 -0.1701 -0.4338
 2010Sol     HW12048   0.577   3.880   5.697  0.1995  0.7669 -3.3592
 2010Sol     HW12049   0.611   3.740   5.744 -2.4515  1.3235  0.4641
 2010Sol     MW12050   0.616   3.801   5.679  0.8451 -0.4559 -0.6404
 2011Sol     OW12051   0.296   2.873   4.046  0.0798  0.2076 -0.3907
 2011Sol     HW12052   0.207   2.909   4.046 -0.5359 -1.2900  0.2727
 2011Sol     HW12053   0.346   2.933   4.102 -0.1468  1.8713 -1.9031
 2011Sol     MW12054   0.293   2.882   4.051  0.0292  0.5390 -0.2609
 2012Sol     OW12055   3.434   3.771   3.062  0.0414  0.2607 -0.2240
 2012Sol     HW12056   3.338   3.768   3.063  0.0986 -2.4216  1.5027
 2012Sol     HW12057   3.461   3.695   3.113  3.1315  0.3361 -1.6542
 2012Sol     MW12058   3.428   3.764   3.067  0.5989 -0.3231 -0.3220
 2013Sol     OW12059   3.653   1.191   6.589 -0.0751  0.0765  0.0586
 2013Sol     HW12060   3.633   1.203   6.682 -1.8410 -0.8737 -0.1748
 2013Sol     HW12061   3.571   1.210   6.544 -0.5413 -3.8407 -0.9512
 2013Sol     MW12062   3.644   1.194   6.593  0.1275  0.3644  0.3051
 2014Sol     OW12063   3.721   1.258   4.689 -0.1188 -0.3509 -0.1779
 2014Sol     HW12064   3.759   1.345   4.704 -2.0414  1.1635 -3.3727
 2014Sol     HW12065   3.795   1.204   4.663  0.6763  1.1447 -1.1357
 2014Sol     MW12066   3.731   1.261   4.688 -0.6840 -0.2745  0.6394
 2015Sol     OW12067   1.640   3.026   5.708  0.1200 -0.5913 -0.0461
 2015Sol     HW12068   1.726   2.985   5.698 -0.1591 -1.2144  0.1348
 2015Sol     HW12069   1.607   3.035   5.619  0.0254 -1.0776 -0.0568
 2015Sol     MW12070   1.645   3.023   5.700  0.5640  0.5686 -0.3968
 2016Sol     OW12071   2.276   3.475   4.237 -0.7705 -0.0287 -0.3709
 2016Sol     HW12072   2.345   3.508   4.295 -1.0645  0.8640 -0.5221
 2016Sol     HW12073   2.198   3.474   4.292 -1.3272  2.0271 -1.0820
 2016Sol     MW12074   2.275   3.478   4.247  0.2598  0.8893  0.8880
 2017Sol     OW12075   1.214   1.990   6.250  0.0160  0.2518  0.1294
 2017Sol     HW12076   1.132   1.941   6.243 -0.3387  0.9158 -0.3498
 2017Sol     HW12077   1.244   1.972   6.339  0.2030 -1.3320 -0.2299
 2017Sol     MW12078   1.209   1.984   6.257 -0.3244  0.0563  0.2130
 2018Sol     OW12079   3.430   0.114   1.656 -0.4359 -0.2065  0.2866
 2018Sol     HW12080   3.471   0.190   1.697  2.6647 -0.8715 -1.3898
 2018Sol     HW12081   3.464   0.039   1.705  1.1975 -0.8315 -1.7540
 2018Sol     MW12082   3.437   0.115   1.664 -0.3907 -0.3309  0.2926
 2019Sol     OW12083   2.343   3.768   1.710 -0.0030  0.5086  0.3470
 2019Sol     HW12084   2.366   3.860   1.718  1.1532  0.2928 -0.2694
 2019Sol     HW12085   2.354   3.748   1.617 -1.0348 -0.0480  0.3381
 2019Sol     MW12086   2.346   3.774   1.703  0.0941 -0.3352  0.2605
 2020Sol     OW12087   0.374   2.459   2.351  0.2156  0.1884  0.5190
 2020Sol     HW12088   0.458   2.461   2.396  0.4806 -0.0530  0.0388
 2020Sol     HW12089   0.372   2.540   2.300  0.0306  0.3352  0.7596
 2020Sol     MW12090   0.381   2.467   2.350  0.1804 -0.2701 -0.4637
 2021Sol     OW12091   2.267   0.376   2.301  0.0662  0.1184  0.2573
 2021Sol     HW12092   2.246   0.283   2.310 -0.6916  0.1268 -1.3579
 2021Sol     HW12093   2.229   0.402   2.217  1.5861  1.5221 -0.0224
 2021Sol     MW12094   2.262   0.370   2.295 -0.0653  0.6140  0.1478
 2022Sol     OW12095   2.315   1.148   3.484 -0.3209 -0.2637 -0.6608
 2022Sol     HW12096   2.306   1.217   3.418 -0.3499 -0.9836 -1.4255
 2022Sol     HW12097   2.392   1.173   3.535  0.0649 -0.0049 -1.3630
 2022Sol     MW12098   2.321   1.156   3.482 -0.5147  0.5835 -0.8744
 2023Sol     OW12099   0.374   0.699   6.552  0.0411 -0.3140  0.2400
 2023Sol     HW12100   0.459   0.669   6.521 -0.1659  0.0758 -0.7439
 2023Sol     HW12101   0.347   0.764   6.487  0.0931  1.3414  1.8438
 2023Sol     MW12102   0.379   0.702   6.543  0.0747  0.0208  0.3935
 2024Sol     OW12103   2.791   0.240   6.166 -0.1943 -0.3759  0.7587
 2024Sol     HW12104   2.747   0.167   6.121 -0.7156 -0.4091  1.3061
 2024Sol     HW12105   2.764   0.231   6.258  0.8512 -0.3085  1.0824
 2024Sol     MW12106   2.785   0.233   6.171  0.2447  0.2169  1.1257
 2025Sol     OW12107   2.417   1.949   1.585  0.3453  0.2669  0.7936
 2025Sol     HW12108   2.478   1.960   1.512  1.2215  0.4192  1.5380
 2025Sol     HW12109   2.394   2.038   1.611 -0.2744  0.2084  0.4522
 2025Sol     MW12110   2.421   1.958   1.581  0.2505  0.1607  0.7550
 2026Sol     OW12111   1.434   1.463   5.686  0.3470 -0.2632 -0.1254
 2026Sol     HW12112   1.351   1.434   5.649 -0.2742 -0.5894  1.4957
 2026Sol     HW12113   1.497   1.395   5.662 -0.1210 -0.6286 -0.3075
 2026Sol     MW12114   1.433   1.454   5.681  0.0978 -0.2883 -0.0194
 2027Sol     OW12115   1.848   1.115   3.004  0.0012 -0.6323  0.1748
 2027Sol     HW12116   1.793   1.186   3.037 -0.7236 -1.4077  0.6373
 2027Sol     HW12117   1.909   1.097   3.075  1.5256  0.8820 -0.6908
 2027Sol     MW12118   1.849   1.120   3.013 -0.1128  0.1608 -0.4195
 2028Sol     OW12119   1.424   3.955   6.168 -0.1618 -0.0304  0.4156
 2028Sol     HW12120   1.517   3.969   6.182 -0.3049  1.7289 -0.2047
 2028Sol     HW12121   1.394   4.036   6.126 -1.9233 -0.6510  0.4351
 2028Sol     MW12122   1.429   3.963   6.165  0.4214 -0.0136 -0.1093
 2029Sol     OW12123   3.852   3.634   3.241 -0.2862  0.5538  0.2853
 2029Sol     HW12124   3.944   3.608   3.241  0.0913  1.8684 -0.7699
 2029Sol     HW12125   3.817   3.598   3.322  1.1338 -0.0352  0.6450
 2029Sol     MW12126   3.857   3.628   3.248 -0.2801 -0.0879 -0.0282
 2030Sol     OW12127   1.784   1.884   3.265  0.0629  0.1998  0.2124
 2030Sol     HW12128   1.854   1.828   3.233  0.6499  0.5958  0.7832
 2030Sol     HW12129   1.810   1.972   3.240 -0.7163  0.2480 -0.4326
 2030Sol     MW12130   1.792   1.887   3.260 -0.3829 -0.1115 -0.3238
 2031Sol     OW12131   2.849   0.731   2.776  0.0545  0.4359 -0.4634
 2031Sol     HW12132   2.816   0.818   2.751 -1.8278 -0.3716 -0.8739
 2031Sol     HW12133   2.796   0.670   2.725  1.3405 -0.9677 -0.1355
 2031Sol     MW12134   2.841   0.733   2.769  0.0391 -0.1470 -0.7711
 2032Sol     OW12135   3.380   1.888   5.815  0.3116 -0.2202  0.7465
 2032Sol     HW12136   3.453   1.829   5.834  0.4446 -0.3575 -0.2052
 2032Sol     HW12137   3.316   1.834   5.768  0.2392  0.2781  0.2625
 2032Sol     MW12138   3.381   1.878   5.813 -0.2433  0.0834 -0.5648
 2033Sol     OW12139   1.171   3.787   3.997  0.4183 -0.4511  0.0278
 2033Sol     HW12140   1.134   3.875   4.000  2.3130  0.3975 -0.4044
 2033Sol     HW12141   1.105   3.732   4.037 -0.7361  1.2010  0.4612
 2033Sol     MW12142   1.162   3.790   4.001  0.6863  0.4979  0.0254
 2034Sol     OW12143   1.141   3.461   2.363 -0.0165  0.3733 -0.0328
 2034Sol     HW12144   1.187   3.422   2.289 -1.3329  0.6738 -1.0197
 2034Sol     HW12145   1.113   3.387   2.416  1.7519  0.1892  0.6918
 2034Sol     MW12146   1.143   3.451   2.361  0.0022 -0.2467  0.6209
 2035Sol     OW12147   1.132   3.189   4.258  0.0780 -0.0064  0.1557
 2035Sol     HW12148   1.043   3.207   4.231 -0.1117  1.6492  1.7703
 2035Sol     HW12149   1.163   3.271   4.296  1.7064 -1.0263  1.1234
 2035Sol     MW12150   1.127   3.198   4.259 -0.5792 -0.6672 -0.4487
 2036Sol     OW12151   2.649   4.018   3.484  0.0248  0.5251  0.3692
 2036Sol     HW12152   2.710   4.080   3.525 -1.2279  1.4690  0.8226
 2036Sol     HW12153   2.581   4.073   3.446 -0.9532 -0.5569  0.5286
 2036Sol     MW12154   2.649   4.029   3.485 -0.1548  0.6539 -0.0687
 2037Sol     OW12155   2.936   2.908   1.486 -0.2982 -0.2989  0.2503
 2037Sol     HW12156   2.927   2.907   1.581  1.7950 -1.6307  0.4611
 2037Sol     HW12157   2.987   2.830   1.465  0.0608  0.4549 -1.8757
 2037Sol     MW12158   2.940   2.901   1.493  0.0791 -0.6551  0.2002
 2038Sol     OW12159   2.569   1.917   3.875 -0.1541  0.6840  0.0063
 2038Sol     HW12160   2.595   1.996   3.827  1.8531  0.2860  0.3814
 2038Sol     HW12161   2.585   1.939   3.967  0.8195 -0.3040  0.0739
 2038Sol     MW12162   2.573   1.926   3.879 -0.0470 -0.5913  0.5491
 2039Sol     OW12163   3.581   0.394   6.562  0.5489 -0.0344 -0.8532
 2039Sol     HW12164   3.562   0.318   6.616 -0.7447  0.7557 -0.1827
 2039Sol     HW12165   3.675   0.409   6.575  0.3943 -0.2651  0.6344
 2039Sol     MW12166   3.588   0.389   6.568 -0.2378 -0.0610 -0.2938
 2040Sol     OW12167   3.234   2.291   3.282  0.4910  0.4418  0.5437
 2040Sol     HW12168   3.315   2.253   3.315  0.6087 -0.9091 -1.2029
 2040Sol     HW12169   3.245   2.386   3.294  1.9263  0.2082  1.1870
 2040Sol     MW12170   3.242   2.296   3.286 -0.1097  0.1166  0.1492
 2041Sol     OW12171   0.338   1.668   4.504 -0.3386  0.4733 -0.7892
 2041Sol     HW12172   0.307   1.641   4.590 -1.1115  0.1522 -1.1685
 2041Sol     HW12173   0.351   1.763   4.512  0.6289  0.2944 -0.0078
 2041Sol     MW12174   0.337   1.674   4.513  0.2400  0.3161  0.2461
 2042Sol     OW12175   2.390   0.405   3.475 -0.4240 -0.1722 -0.0172
 2042Sol     HW12176   2.466   0.462   3.478 -0.5791 -0.0142  1.1317
 2042Sol     HW12177   2.425   0.317   3.491 -0.3690 -0.2048 -0.3281
 2042Sol     MW12178   2.400   0.402   3.477  0.2936  0.0877 -0.0267
 2043Sol     OW12179   2.524   0.702   5.700  0.1947  0.0674 -0.2235
 2043Sol     HW12180   2.579   0.644   5.753 -0.5956 -0.2715  0.2369
 2043Sol     HW12181   2.547   0.680   5.609  0.3135 -0.5593 -0.0473
 2043Sol     MW12182   2.531   0.694   5.696 -0.0771 -0.1304 -0.4429
 2044Sol     OW12183   3.436   0.597   1.768  0.3617 -0.6661 -0.4536
 2044Sol     HW12184   3.441   0.507   1.801 -0.3173 -1.5943 -2.7881
 2044Sol     HW12185   3.343   0.610   1.751  0.4616  0.5107 -0.0933
 2044Sol     MW12186   3.428   0.590   1.770 -1.0230 -0.2496  0.1995
 2045Sol     OW12187   2.701   0.062   4.312 -0.2046 -0.2483  0.3758
 2045Sol     HW12188   2.778   0.005   4.309  0.4850  0.6166  1.3092
 2045Sol     HW12189   2.736   0.150   4.300 -0.9602  0.2302  1.6188
 2045Sol     MW12190   2.711   0.065   4.311  0.3231 -0.4276  0.0815
 2046Sol     OW12191   3.635   1.657   5.223 -0.3165  0.0758 -0.4042
 2046Sol     HW12192   3.687   1.719   5.173  0.9306 -1.0210 -0.4915
 2046Sol     HW12193   3.602   1.708   5.297 -1.0877  1.3684 -1.6122
 2046Sol     MW12194   3.637   1.667   5.225  0.0921 -0.3352 -0.3137
 2047Sol     OW12195   0.084   3.260   3.360 -0.2362 -0.2444 -0.0920
 2047Sol     HW12196   0.081   3.355   3.360  1.8558 -0.1500 -0.9520
 2047Sol     HW12197   0.040   3.235   3.279  1.1178  0.1136 -0.9671
 2047Sol     MW12198   0.080   3.266   3.352  0.0520 -0.1526  0.4055
 2048Sol     OW12199   1.408   3.733   2.736  0.0046 -0.3128  0.1969
 2048Sol     HW12200   1.458   3.743   2.817 -0.5745 -1.2107  0.6780
 2048Sol     HW12201   1.317   3.747   2.762 -0.0567  0.7684 -0.5687
 2048Sol     MW12202   1.405   3.735   2.746  0.3514  0.5805  0.0126
 2049Sol     OW12203   4.040   0.189   3.185  0.1305  0.0030 -0.1384
 2049Sol     HW12204   3.962   0.153   3.227  0.3766 -1.3635 -0.8057
 2049Sol     HW12205   4.015   0.201   3.093  1.0727 -1.6505 -0.6341
 2049Sol     MW12206   4.031   0.187   3.180 -0.3750  0.1334  0.3196
 2050Sol     OW12207   2.372   1.347   6.304 -0.1919  0.2030  0.3657
 2050Sol     HW12208   2.465   1.334   6.322 -0.3347 -0.3429  0.7188
 2050Sol     HW12209   2.347   1.271   6.251 -0.8046 -0.4780  1.6015
 2050Sol     MW12210   2.378   1.339   6.300 -0.2183 -0.2730  0.5870
 2051Sol     OW12211   3.942   1.547   5.576 -0.2665  0.0746  0.2474
 2051Sol     HW12212   3.893   1.626   5.555 -0.8007  0.1441  1.7555
 2051Sol     HW12213   4.027   1.578   5.606 -0.1723  0.0388  0.0219
 2051Sol     MW12214   3.945   1.557   5.576 -0.0627 -0.3995 -0.0015
 2052Sol     OW12215   4.019   2.438   5.539  0.0206  0.6097  0.4258
 2052Sol     HW12216   3.966   2.394   5.606 -0.1287  0.1803  0.0254
 2052Sol     HW12217   3.968   2.430   5.459  1.2557 -0.9087 -0.2416
 2052Sol     MW12218   4.010   2.433   5.538  0.8683  0.0107  0.5296
 2053Sol     OW12219   2.055   2.046   6.624  0.2675  0.0693  0.5959
 2053Sol     HW12220   2.064   1.967   6.677 -1.6318 -0.6780 -0.1416
 2053Sol     HW12221   2.110   2.030   6.547  1.2321  0.2104  1.2428
 2053Sol     MW12222   2.061   2.038   6.622 -0.0246 -0.6716 -0.3182
 2054Sol     OW12223   2.283   0.893   2.616 -0.3183 -0.1022 -0.0766
 2054Sol     HW12224   2.224   0.866   2.546 -0.3755  1.1378 -0.5096
 2054Sol     HW12225   2.233   0.956   2.666  0.8529  1.4350 -0.8185
 2054Sol     MW12226   2.273   0.896   2.614  0.0388  0.4622 -0.0566
 2055Sol     OW12227   0.175   0.840   4.548 -0.5083 -0.5088 -0.5517
 2055Sol     HW12228   0.164   0.912   4.486  0.6125 -0.3369 -0.5763
 2055Sol     HW12229   0.102   0.849   4.609 -0.0929  1.0011 -0.2396
 2055Sol     MW12230   0.168   0.847   4.548 -0.3297  0.4262 -0.6393
 2056Sol     OW12231   1.602   3.777   2.926  0.2390 -0.3004  0.1039
 2056Sol     HW12232   1.603   3.812   3.015  1.9611 -0.8506  0.3079
 2056Sol     HW12233   1.643   3.846   2.873 -0.1837 -0.2581 -0.1772
 2056Sol     MW12234   1.606   3.787   2.929 -0.2748  0.1213  0.3463
 2057Sol     OW12235   2.086   3.611   1.711  0.2316  0.2937  0.2509
 2057Sol     HW12236   2.158   3.674   1.716 -0.1060  0.6600  0.5106
 2057Sol     HW12237   2.008   3.663   1.729 -0.1087 -0.0831 -0.1346
 2057Sol     MW12238   2.086   3.622   1.713 -0.1699  0.1837  0.1469
 2058Sol     OW12239   2.046   0.816   2.930  0.5053  0.0610  0.5212
 2058Sol     HW12240   2.122   0.819   2.988 -0.6396  1.8765  1.9994
 2058Sol     HW12241   1.992   0.746   2.966  0.4143  0.3149  0.8910
 2058Sol     MW12242   2.048   0.810   2.939 -0.2894  0.0181  0.7027
 2059Sol     OW12243   0.778   3.489   4.431  0.9299 -0.1676 -0.3666
 2059Sol     HW12244   0.756   3.506   4.339  2.5844 -1.2243 -0.9923
 2059Sol     HW12245   0.728   3.410   4.453  0.7957 -0.1103 -0.4615
 2059Sol     MW12246   0.772   3.483   4.425 -0.2035  0.2049 -0.3034
 2060Sol     OW12247   1.102   4.011   6.389  0.2704 -0.2343 -0.5345
 2060Sol     HW12248   1.107   4.098   6.350  2.1165 -1.1603 -2.4498
 2060Sol     HW12249   1.021   3.973   6.354 -0.2402  0.4985 -0.1482
 2060Sol     MW12250   1.095   4.015   6.382 -0.4805  0.2488  0.2027
 2061Sol     OW12251   1.016   0.401   4.280  0.1680 -0.7290 -0.4644
 2061Sol     HW12252   1.056   0.368   4.360  1.1556 -0.4247 -0.8327
 2061Sol     HW12253   1.088   0.439   4.230 -0.9409  2.3176  0.0907
 2061Sol     MW12254   1.026   0.402   4.283  0.2003 -0.2066  0.0129
 2062Sol     OW12255   1.879   1.701   6.542 -0.0599 -0.1922  0.0153
 2062Sol     HW12256   1.890   1.748   6.460 -0.0370 -2.7568 -1.5242
 2062Sol     HW12257   1.785   1.692   6.552 -0.0406 -0.6707 -0.2146
 2062Sol     MW12258   1.872   1.704   6.535  0.0924 -0.6674  0.0263
 2063Sol     OW12259   3.615   2.418   4.149 -0.3395 -0.1893  0.0980
 2063Sol     HW12260   3.589   2.362   4.222 -0.0112  0.7184  0.9196
 2063Sol     HW12261   3.702   2.450   4.173 -0.3494  0.3341 -0.5615
 2063Sol     MW12262   3.620   2.415   4.158 -0.0040 -0.1689 -0.2782
 2064Sol     OW12263   3.379   1.772   3.833  0.4614 -0.5192  0.0876
 2064Sol     HW12264   3.288   1.745   3.834  0.1912  0.3651  0.1665
 2064Sol     HW12265   3.402   1.784   3.925  1.0333 -1.9297  0.1457
 2064Sol     MW12266   3.373   1.771   3.841  0.8271  0.1533  0.4637
 2065Sol     OW12267   2.230   2.897   2.508  0.2207 -0.5933  0.7719
 2065Sol     HW12268   2.211   2.986   2.478  1.9228  0.2812  2.1830
 2065Sol     HW12269   2.151   2.869   2.554 -0.2770  0.2519  0.4352
 2065Sol     MW12270   2.221   2.902   2.509  0.0800 -0.5038  0.3466
 2066Sol     OW12271   2.178   0.175   3.671  0.3310  0.1782  0.0928
 2066Sol     HW12272   2.217   0.253   3.710 -2.3770  1.1333  1.0196
 2066Sol     HW12273   2.211   0.103   3.724  1.9906  0.7908 -0.0787
 2066Sol     MW12274   2.184   0.176   3.679 -0.3533 -0.0870 -0.5299
 2067Sol     OW12275   1.186   4.074   6.069  0.5566  0.4167 -0.1856
 2067Sol     HW12276   1.177   3.979   6.070  2.0567  0.2588 -0.1344
 2067Sol     HW12277   1.120   4.104   6.007  0.1570 -0.6653 -0.2951
 2067Sol     MW12278   1.179   4.068   6.064 -0.0029 -0.0669 -0.1385
 2068Sol     OW12279   2.025   3.718   6.015 -0.0776 -0.7305  0.1604
 2068Sol     HW12280   2.105   3.740   6.062  0.0380  0.1456 -0.4478
 2068Sol     HW12281   1.955   3.740   6.076  0.0403  1.1787 -0.3588
 2068Sol     MW12282   2.026   3.722   6.025 -1.0434  1.0787  0.1801
 2069Sol     OW12283   1.402   3.060   2.887  0.2254  0.1004  0.0877
 2069Sol     HW12284   1.374   2.997   2.953  0.5848 -0.5562 -0.3759
 2069Sol     HW12285   1.348   3.137   2.902  0.5585  0.0855  1.3755
 2069Sol     MW12286   1.394   3.061   2.894  0.0865  0.0672  0.2227
 2070Sol     OW12287   2.140   2.852   4.843  0.5288 -0.0333  0.8529
 2070Sol     HW12288   2.182   2.769   4.865 -0.3913 -1.2813 -1.9202
 2070Sol     HW12289   2.213   2.913   4.828  1.2786 -1.1573 -0.1100
 2070Sol     MW12290   2.150   2.850   4.843 -0.3635 -0.0007  0.6281
 2071Sol     OW12291   0.893   1.080   3.973 -0.8008  0.4896  0.6664
 2071Sol     HW12292   0.849   1.115   4.050  0.8632  0.7711  1.5195
 2071Sol     HW12293   0.865   0.989   3.967 -2.0667  0.8694  0.7437
 2071Sol     MW12294   0.887   1.075   3.979 -0.0837  0.0493  0.2675
 2072Sol     OW12295   2.461   0.946   6.444 -0.2143  0.3498  0.2623
 2072Sol     HW12296   2.503   1.030   6.426  1.3365 -0.7660 -1.3384
 2072Sol     HW12297   2.368   0.968   6.454  0.0331  2.1265 -1.1038
 2072Sol     MW12298   2.456   0.956   6.444  0.5104  0.6180  0.2660
 2073Sol     OW12299   1.530   2.422   3.678 -0.3479  0.4661  0.0657
 2073Sol     HW12300   1.614   2.409   3.722 -0.1794  0.8374 -0.1362
 2073Sol     HW12301   1.516   2.517   3.682  0.0549  0.5879 -1.3820
 2073Sol     MW12302   1.536   2.430   3.683  0.0382 -0.8214 -0.5273
 2074Sol     OW12303   2.755   3.559   6.905  0.2499 -0.0753 -0.1831
 2074Sol     HW12304   2.841   3.530   6.876  1.1244  0.7869  1.4771
 2074Sol     HW12305   2.750   3.651   6.881 -1.3130 -0.7640 -2.6995
 2074Sol     MW12306   2.762   3.564   6.901 -0.0388  0.6887  0.0061
 2075Sol     OW12307   3.965   2.711   4.844 -0.0328 -0.2113  0.1985
 2075Sol     HW12308   4.026   2.770   4.800 -0.4697 -0.6638 -1.0320
 2075Sol     HW12309   3.882   2.757   4.844 -0.6105 -1.2066 -1.6437
 2075Sol     MW12310   3.963   2.720   4.840 -0.2517  0.1028 -0.4423
 2076Sol     OW12311   2.478   0.974   3.324  0.3309  0.1855  0.0186
 2076Sol     HW12312   2.494   1.009   3.236 -0.1579  1.2806  0.3550
 2076Sol     HW12313   2.427   1.042   3.368  0.8812 -0.1953  1.2733
 2076Sol     MW12314   2.475   0.983   3.320 -0.6380  0.7490 -0.5554
 2077Sol     OW12315   3.303   4.132   5.074 -0.1526  0.3504  0.1643
 2077Sol     HW12316   3.293   4.039   5.054 -0.3560  0.2285  0.8192
 2077Sol     HW12317   3.397   4.147   5.072 -0.2412  0.7866 -2.8248
 2077Sol     MW12318   3.310   4.125   5.072 -0.1076 -0.8422 -0.2810
 2078Sol     OW12319   2.493   2.366   3.572 -0.1806  0.2227 -0.1707
 2078Sol     HW12320   2.520   2.455   3.595 -0.2475  0.3788 -0.6983
 2078Sol     HW12321   2.509   2.359   3.478  0.2353 -0.4685 -0.0500
 2078Sol     MW12322   2.497   2.373   3.566 -0.1534 -0.9244  0.0195
 2079Sol     OW12323   3.117   0.718   3.044  0.5339  0.5746  0.1824
 2079Sol     HW12324   3.205   0.754   3.041  2.3218 -3.6073 -0.2387
 2079Sol     HW12325   3.097   0.710   3.137 -0.0250  2.8159  0.2859
 2079Sol     MW12326   3.123   0.721   3.052  0.6010 -0.1353  0.6791
 2080Sol     OW12327   1.048   3.437   2.813  0.1736  0.2298  0.5110
 2080Sol     HW12328   1.121   3.466   2.758 -1.0576  0.9967 -0.7320
 2080Sol     HW12329   0.988   3.395   2.752 -0.3487 -0.5833  1.5670
 2080Sol     MW12330   1.049   3.435   2.803  0.0989  0.0965 -0.3548
 2081Sol     OW12331   2.645   0.620   2.612  0.7878  0.1535 -0.0387
 2081Sol     HW12332   2.633   0.678   2.536  1.3419 -0.0280 -0.2672
 2081Sol     HW12333   2.614   0.535   2.581  1.7929 -0.1052 -0.3256
 2081Sol     MW12334   2.641   0.618   2.602 -0.1448  0.2574 -0.8691
 2082Sol     OW12335   3.648   4.087   4.337  0.2599  0.2009  0.1917
 2082Sol     HW12336   3.703   4.163   4.319 -0.9368  1.1248  0.3740
 2082Sol     HW12337   3.605   4.108   4.420  0.1811 -0.8275  0.4197
 2082Sol     MW12338   3.649   4.096   4.343 -0.1484 -0.2402  0.1025
 2083Sol     OW12339   2.380   3.699   4.429  1.5221  0.6650 -0.1851
 2083Sol     HW12340   2.365   3.635   4.497  0.6164 -0.2894 -1.2661
 2083Sol     HW12341   2.450   3.661   4.375 -0.1964 -0.2321 -1.8172
 2083Sol     MW12342   2.385   3.690   4.430 -0.1372  0.1786 -0.1993
 2084Sol     OW12343   1.230   1.151   4.619 -0.1884  0.1161 -0.2182
 2084Sol     HW12344   1.206   1.143   4.527  1.2033 -0.6679 -0.5253
 2084Sol     HW12345   1.308   1.096   4.628  0.2204  0.9217  1.2192
 2084Sol     MW12346   1.235   1.145   4.611 -0.2657 -0.2224 -0.5662
 2085Sol     OW12347   2.622   2.891   5.230 -0.1634  0.5483 -0.4901
 2085Sol     HW12348   2.528   2.905   5.221 -0.6102 -1.7459  0.2378
 2085Sol     HW12349   2.657   2.900   5.142 -1.5687 -1.9416 -1.3348
 2085Sol     MW12350   2.617   2.894   5.221  0.3812 -0.3977 -0.3703
 2086Sol     OW12351   1.736   2.363   5.841 -0.1345  0.0140  0.2339
 2086Sol     HW12352   1.788   2.415   5.902 -0.3561  0.3165  0.1633
 2086Sol     HW12353   1.654   2.346   5.888 -0.8350  1.3614 -0.4835
 2086Sol     MW12354   1.733   2.366   5.851  0.1623 -0.1961  0.2591
 2087Sol     OW12355   2.663   0.315   6.403 -0.0054 -0.1030 -0.2096
 2087Sol     HW12356   2.675   0.223   6.429 -0.0190  0.3051  1.2352
 2087Sol     HW12357   2.702   0.366   6.474 -1.6615  1.0558 -0.1107
 2087Sol     MW12358   2.668   0.311   6.411 -0.1080  0.6699  0.3312
 2088Sol     OW12359   1.654   2.784   3.952 -0.0236  0.3090 -0.3808
 2088Sol     HW12360   1.699   2.866   3.932 -0.3899  0.3390 -1.0852
 2088Sol     HW12361   1.567   2.810   3.982 -0.2137  0.1653 -0.8121
 2088Sol     MW12362   1.650   2.793   3.953  0.0759 -0.1708 -0.3066
 2089Sol     OW12363   2.498   1.060   5.090 -0.1535 -0.1453 -0.7616
 2089Sol     HW12364   2.471   1.000   5.160 -0.4473 -0.1434 -0.8730
 2089Sol     HW12365   2.466   1.019   5.010  0.3087 -0.2192 -0.9077
 2089Sol     MW12366   2.493   1.051   5.089  0.5884 -0.0801 -0.4689
 2090Sol     OW12367   0.607   3.394   2.105 -0.1562  0.5493 -0.4388
 2090Sol     HW12368   0.695   3.369   2.076  0.2357  0.2883  0.9390
 2090Sol     HW12369   0.555   3.314   2.095  0.1083  0.3107  0.0714
 2090Sol     MW12370   0.610   3.384   2.102 -0.2887  0.3987 -0.3395
 2091Sol     OW12371   2.608   0.397   6.041  0.4940 -0.1812  0.3381
 2091Sol     HW12372   2.536   0.334   6.040  0.6966 -0.4056 -0.2840
 2091Sol     HW12373   2.669   0.362   6.106 -0.2897  0.3922  1.3968
 2091Sol     MW12374   2.607   0.388   6.047  0.0078  0.4725 -0.3507
 2092Sol     OW12375   3.436   2.380   1.286  0.4692 -0.1952 -0.6766
 2092Sol     HW12376   3.438   2.447   1.354  1.1615 -1.1161  0.2398
 2092Sol     HW12377   3.359   2.327   1.306  1.6482 -1.5189  0.4518
 2092Sol     MW12378   3.429   2.381   1.294  0.1955  0.1956 -0.2689
 2093Sol     OW12379   0.024   1.526   1.764 -0.0028 -0.1662  0.0757
 2093Sol     HW12380   0.041   1.593   1.698  1.3642 -1.0317 -0.4640
 2093Sol     HW12381  -0.045   1.472   1.727  0.3051 -0.2576 -0.3620
 2093Sol     MW12382   0.019   1.528   1.755 -0.0567 -0.1313 -0.4253
 2094Sol     OW12383   0.683   2.643   5.263 -0.9321 -0.1848  0.2305
 2094Sol     HW12384   0.721   2.708   5.322 -0.4355  0.2696 -0.5787
 2094Sol     HW12385   0.672   2.689   5.180  1.6973 -1.7437 -1.0732
 2094Sol     MW12386   0.686   2.653   5.261  0.0562  0.3292  0.4531
 2095Sol     OW12387   0.364   2.857   4.609 -0.1257 -0.3104 -0.3753
 2095Sol     HW12388   0.366   2.928   4.546 -1.7915 -0.9650 -1.2148
 2095Sol     HW12389   0.339   2.780   4.557  1.4439 -1.4623  0.5427
 2095Sol     MW12390   0.362   2.856   4.599  0.1649 -0.2457 -0.3059
 2096Sol     OW12391   2.695   1.739   6.072 -0.0013 -0.0371  0.5056
 2096Sol     HW12392   2.618   1.790   6.046 -1.1311 -1.9612 -0.0689
 2096Sol     HW12393   2.661   1.652   6.089  1.9266 -0.6789  1.2045
 2096Sol     MW12394   2.685   1.736   6.071  0.3446  0.5264  0.3793
 2097Sol     OW12395   1.075   1.283   5.412 -0.0372  0.0661  0.0256
 2097Sol     HW12396   1.138   1.297   5.341  0.3886  0.8860  0.5503
 2097Sol     HW12397   1.004   1.345   5.393 -0.5794 -0.6888 -0.4352
 2097Sol     MW12398   1.075   1.290   5.404  0.3271  0.0715  0.1572
 2098Sol     OW12399   0.217   3.445   6.083 -0.0127 -0.0486  0.7544
 2098Sol     HW12400   0.150   3.426   6.148  0.1800  0.5478  1.1264
 2098Sol     HW12401   0.251   3.531   6.107 -1.4544  1.1603 -1.4453
 2098Sol     MW12402   0.214   3.451   6.091 -0.3435  0.1042 -0.1848
 2099Sol     OW12403   0.864   0.114   5.549  0.1333 -0.2404  1.1384
 2099Sol     HW12404   0.926   0.051   5.512 -1.0002 -2.0407  2.2604
 2099Sol     HW12405   0.913   0.197   5.550  1.2769 -0.8372 -1.3290
 2099Sol     MW12406   0.874   0.116   5.545  0.2661  0.3672 -0.5767
 2100Sol     OW12407   2.492   0.122   2.479  0.0982  0.3985  0.2243
 2100Sol     HW12408   2.424   0.070   2.436  0.4318 -0.1478  0.3509
 2100Sol     HW12409   2.571   0.106   2.427 -0.0868  1.8453 -0.5363
 2100Sol     MW12410   2.493   0.116   2.471  0.4802 -0.3038  0.0866
 2101Sol     OW12411   2.719   1.673   4.974 -0.4247  0.1098 -0.3822
 2101Sol     HW12412   2.799   1.622   4.978 -0.5525 -0.3601 -3.1407
 2101Sol     HW12413   2.709   1.709   5.062  1.0454 -2.4726  0.8883
 2101Sol     MW12414   2.725   1.672   4.982 -0.4426  0.3462  0.2401
 2102Sol     OW12415   3.453   1.015   4.262 -0.2398  0.0141  0.4200
 2102Sol     HW12416   3.543   0.983   4.265 -0.4704 -0.5136  2.0342
 2102Sol     HW12417   3.416   0.976   4.182  0.2816 -1.6188  0.9572
 2102Sol     MW12418   3.458   1.009   4.255 -0.3055 -0.1196 -0.1549
 2103Sol     OW12419   1.122   2.206   2.168 -0.2249  0.2303 -0.0496
 2103Sol     HW12420   1.216   2.214   2.156 -0.4484  3.7028 -0.1858
 2103Sol     HW12421   1.108   2.115   2.194  3.1058 -0.4241 -0.3631
 2103Sol     MW12422   1.129   2.199   2.170 -0.8554  0.3035  0.0030
 2104Sol     OW12423   0.320   1.537   6.042  0.8104 -0.2655  0.3214
 2104Sol     HW12424   0.272   1.608   5.998  0.8992 -0.3169  0.1399
 2104Sol     HW12425   0.398   1.579   6.078 -0.4899  0.2746  2.5983
 2104Sol     MW12426   0.322   1.547   6.041 -0.6916 -0.0495 -0.2017
 2105Sol     OW12427   4.002   4.040   5.393  0.6030  0.1262  0.1520
 2105Sol     HW12428   4.032   4.081   5.474  0.2704 -0.9552  0.8243
 2105Sol     HW12429   3.907   4.040   5.399  0.5451  0.7757 -0.6129
 2105Sol     MW12430   3.996   4.044   5.401 -0.4284 -0.4935 -0.2774
 2106Sol     OW12431   3.494   1.586   3.692 -0.4905  0.5948 -0.6475
 2106Sol     HW12432   3.461   1.660   3.742  1.3927  0.2595  1.1647
 2106Sol     HW12433   3.455   1.509   3.735  1.6122  0.2703  0.7573
 2106Sol     MW12434   3.487   1.585   3.700  0.4503  0.4978  0.1511
 2107Sol     OW12435   0.667   1.720   4.744  0.0727 -0.3766  0.1303
 2107Sol     HW12436   0.620   1.771   4.810  0.1001 -0.8811  0.5403
 2107Sol     HW12437   0.758   1.749   4.752  0.2055 -0.9608  0.8195
 2107Sol     MW12438   0.671   1.727   4.750 -1.2004  0.1387 -0.0471
 2108Sol     OW12439   1.344   3.539   1.971 -0.4519 -0.8145 -0.5884
 2108Sol     HW12440   1.361   3.456   1.927  0.3100 -0.3120 -1.2693
 2108Sol     HW12441   1.306   3.515   2.056 -4.0562 -1.7315 -2.4049
 2108Sol     MW12442   1.342   3.529   1.975 -0.0010  0.6217  0.4268
 2109Sol     OW12443   3.299   0.341   4.978 -0.0215  0.5725 -0.5771
 2109Sol     HW12444   3.336   0.343   5.066 -0.3089 -0.9272 -0.4103
 2109Sol     HW12445   3.229   0.276   4.983  0.6938 -0.3483 -2.1780
 2109Sol     MW12446   3.296   0.335   4.986  0.5281  0.2674  0.2438
 2110Sol     OW12447   3.181   4.116   3.657 -0.1345 -0.0089 -0.0055
 2110Sol     HW12448   3.270   4.116   3.622  0.2215  0.1936  0.8852
 2110Sol     HW12449   3.125   4.132   3.581  0.5859 -0.1325 -0.5668
 2110Sol     MW12450   3.184   4.117   3.647  0.1296  0.2486  0.2879
 2111Sol     OW12451   0.442   2.706   2.622  0.1533 -0.9975 -0.2044
 2111Sol     HW12452   0.515   2.763   2.648  0.1632 -1.2493  0.3251
 2111Sol     HW12453   0.482   2.621   2.606 -0.2257 -1.5207  1.5333
 2111Sol     MW12454   0.452   2.704   2.623 -0.3618 -0.4556 -0.4063
 2112Sol     OW12455   3.277   0.036   2.285 -0.1982 -0.0801 -0.0021
 2112Sol     HW12456   3.309   0.125   2.300 -0.1023  0.0648 -1.0329
 2112Sol     HW12457   3.336  -0.019   2.336  0.1783  0.3898  0.0753
 2112Sol     MW12458   3.285   0.039   2.291 -0.4204 -0.0822  0.3080
 2113Sol     OW12459   0.540   4.108   1.589  0.2144 -0.0911 -0.1120
 2113Sol     HW12460   0.592   4.109   1.669 -0.5853  1.5758  0.4079
 2113Sol     HW12461   0.488   4.028   1.594  2.5424 -1.6907 -0.5419
 2113Sol     MW12462   0.540   4.101   1.596 -0.3822 -0.9786 -0.0812
 2114Sol     OW12463   2.573   2.608   4.851  0.0010 -0.2078  0.2890
 2114Sol     HW12464   2.480   2.587   4.857  0.0009  0.1248  1.6099
 2114Sol     HW12465   2.584   2.645   4.763 -0.9425 -1.0693 -0.1972
 2114Sol     MW12466   2.566   2.610   4.844 -0.4957  0.2421  0.1036
 2115Sol     OW12467   3.998   0.881   4.717 -0.4392  0.4194  0.0660
 2115Sol     HW12468   3.943   0.894   4.640 -0.4652  0.4772  0.0944
 2115Sol     HW12469   3.940   0.840   4.781 -0.7587  1.5058  0.4893
 2115Sol     MW12470   3.988   0.879   4.716 -0.7320  0.1214  0.6900
 2116Sol     OW12471   1.949   3.633   4.566 -0.4254 -0.3593  0.6385
 2116Sol     HW12472   2.008   3.703   4.539  1.2246 -1.0667  2.2848
 2116Sol     HW12473   1.970   3.560   4.507 -0.7184 -0.1096  0.2300
 2116Sol     MW12474   1.957   3.632   4.558 -0.4606  0.3482  0.3627
 2117Sol     OW12475   1.832   2.829   5.681  0.8622 -0.3122  0.4951
 2117Sol     HW12476   1.893   2.880   5.628  0.9253 -1.1147 -0.2245
 2117Sol     HW12477   1.858   2.738   5.666 -1.1050 -0.7302 -0.5853
 2117Sol     MW12478   1.840   2.825   5.675 -0.3485 -0.2387 -0.4370
 2118Sol     OW12479   0.977   0.907   2.553 -0.1225 -0.1233  0.3627
 2118Sol     HW12480   1.011   0.823   2.583  0.9386  0.2643  0.2400
 2118Sol     HW12481   1.052   0.952   2.515 -0.3423  1.5106  1.7974
 2118Sol     MW12482   0.987   0.904   2.552 -0.2616  0.2751 -0.6798
 2119Sol     OW12483   3.612   1.099   5.640 -0.0183 -0.0892 -0.0388
 2119Sol     HW12484   3.601   1.005   5.628 -1.1532 -0.1793  1.6576
 2119Sol     HW12485   3.633   1.110   5.733 -2.8306  1.5614  0.4334
 2119Sol     MW12486   3.613   1.092   5.647 -0.0632  0.0659 -0.2053
 2120Sol     OW12487   0.578   1.215   5.012  0.3312  0.3156 -0.0867
 2120Sol     HW12488   0.608   1.244   5.099  0.3037 -0.9631  0.3581
 2120Sol     HW12489   0.539   1.129   5.028 -2.3350  1.3261 -0.8937
 2120Sol     MW12490   0.577   1.210   5.022  0.9321  0.2082 -0.0855
 2121Sol     OW12491   3.637   2.739   2.689 -0.1268 -0.0718 -0.0233
 2121Sol     HW12492   3.672   2.650   2.679 -0.2225 -0.0108 -0.9186
 2121Sol     HW12493   3.542   2.728   2.685 -0.1550  0.0063  0.4172
 2121Sol     MW12494   3.632   2.730   2.687  0.6945 -0.2847 -0.1480
 2122Sol     OW12495   1.422   2.357   3.217  0.0087  0.1003 -0.0111
 2122Sol     HW12496   1.420   2.323   3.307 -0.0565 -0.2314 -0.1387
 2122Sol     HW12497   1.457   2.446   3.226  1.6145 -0.5309  0.1570
 2122Sol     MW12498   1.425   2.362   3.226 -0.0526 -0.0246  0.3166
 2123Sol     OW12499   2.022   0.460   6.351 -0.1653  0.0604 -0.1992
 2123Sol     HW12500   1.951   0.523   6.362 -0.9839 -1.1095  1.4677
 2123Sol     HW12501   2.061   0.452   6.438  0.5724 -0.9646 -0.6108
 2123Sol     MW12502   2.019   0.465   6.360 -0.2136 -0.1211  0.6956
 2124Sol     OW12503   1.805   2.342   4.895 -0.3147 -0.0524 -0.2368
 2124Sol     HW12504   1.883   2.384   4.858 -1.1501  1.9507  0.2098
 2124Sol     HW12505   1.786   2.271   4.834  1.3793 -0.0589 -0.7977
 2124Sol     MW12506   1.811   2.339   4.886  0.0296  0.4446 -0.4499
 2125Sol     OW12507   2.154   0.867   2.402 -0.0055  0.5496 -0.1715
 2125Sol     HW12508   2.180   0.959   2.395 -2.5727  1.3931  0.7305
 2125Sol     HW12509   2.171   0.830   2.315  1.4621  1.7651 -0.4073
 2125Sol     MW12510   2.157   0.872   2.393  0.3603  0.0849  0.0056
 2126Sol     OW12511   0.264   1.578   4.758  0.5298 -0.0390  0.4393
 2126Sol     HW12512   0.333   1.512   4.768  0.4672 -0.1920 -0.0984
 2126Sol     HW12513   0.196   1.534   4.706  0.8362  0.7054 -0.6028
 2126Sol     MW12514   0.264   1.568   4.754 -0.0937  0.3246 -0.6957
 2127Sol     OW12515   3.698   2.796   4.863  0.1341 -0.0722  0.5387
 2127Sol     HW12516   3.644   2.870   4.834  0.8933 -0.0650 -0.8905
 2127Sol     HW12517   3.649   2.719   4.836 -0.5005 -0.0923  1.7386
 2127Sol     MW12518   3.689   2.796   4.858 -0.4804  0.0953  0.5080
 2128Sol     OW12519   3.713   1.465   3.812 -0.7650 -0.3858  0.0316
 2128Sol     HW12520   3.784   1.438   3.753  0.4235  0.3013  1.1136
 2128Sol     HW12521   3.644   1.497   3.754 -0.1952 -1.0514 -1.0420
 2128Sol     MW12522   3.713   1.465   3.801 -0.2258 -0.1457  0.5962
 2129Sol     OW12523   0.198   3.957   6.639 -0.3610  0.5363 -0.1008
 2129Sol     HW12524   0.279   3.951   6.589 -1.4564 -0.6219 -1.8069
 2129Sol     HW12525   0.145   3.883   6.608 -1.3332  0.1555  2.3205
 2129Sol     MW12526   0.200   3.950   6.632  0.8390 -0.4679 -0.2454
 2130Sol     OW12527   0.772   3.914   4.714  0.0418 -0.4494 -0.3598
 2130Sol     HW12528   0.860   3.947   4.694  0.3686 -0.3577  1.1366
 2130Sol     HW12529   0.775   3.821   4.691  0.3989 -0.3594 -0.6853
 2130Sol     MW12530   0.780   3.909   4.710 -0.7061  0.0521 -0.0741
 2131Sol     OW12531   2.795   1.127   5.019  0.5845 -0.5833 -0.0090
 2131Sol     HW12532   2.715   1.134   5.071  0.2617  2.8343 -0.8433
 2131Sol     HW12533   2.775   1.059   4.954 -1.4412 -0.1986  0.1700
 2131Sol     MW12534   2.786   1.121   5.018  0.1617 -0.3868 -0.6099
 2132Sol     OW12535   0.363   1.931   4.601  0.1687  1.1582  0.4465
 2132Sol     HW12536   0.338   1.980   4.523  0.9921 -0.5642 -0.9287
 2132Sol     HW12537   0.455   1.955   4.615  0.2239  0.9257  0.4736
 2132Sol     MW12538   0.369   1.938   4.595 -0.3761  0.0238  0.4805
 2133Sol     OW12539   0.489   0.513   1.848  0.3099 -0.1120  0.3319
 2133Sol     HW12540   0.434   0.561   1.787  0.1469  1.3503  1.6241
 2133Sol     HW12541   0.550   0.464   1.792 -0.1719  0.8152 -1.0071
 2133Sol     MW12542   0.490   0.513   1.838  0.9087  0.2047  0.1443
 2134Sol     OW12543   2.971   3.672   4.675  0.4624 -0.3118  0.4680
 2134Sol     HW12544   3.011   3.747   4.720  1.9957 -1.5084  1.1574
 2134Sol     HW12545   3.024   3.661   4.596 -0.0734 -0.3669  0.1136
 2134Sol     MW12546   2.979   3.678   4.672  0.2722 -0.2869  0.3535
 2135Sol     OW12547   0.903   1.202   4.431 -0.0097  0.6910  0.1655
 2135Sol     HW12548   0.850   1.267   4.478  0.3433  0.4135  0.9453
 2135Sol     HW12549   0.914   1.130   4.492  0.0397  0.1107 -0.5177
 2135Sol     MW12550   0.899   1.202   4.440 -0.1888  0.6749 -0.0899
 2136Sol     OW12551   0.448   2.777   6.243  0.7086 -0.4895  0.1371
 2136Sol     HW12552   0.537   2.797   6.215  0.6715 -1.0035 -0.3492
 2136Sol     HW12553   0.414   2.717   6.176 -0.6558  1.1776 -0.7170
 2136Sol     MW12554   0.453   2.774   6.234 -0.7720 -0.2551 -0.0080
 2137Sol     OW12555   1.093   3.064   3.183  0.3304 -0.4532 -0.0650
 2137Sol     HW12556   1.000   3.068   3.161 -0.3306 -1.1262  2.4908
 2137Sol     HW12557   1.109   3.144   3.234  0.9959 -0.6572  0.0451
 2137Sol     MW12558   1.086   3.072   3.185  0.6192  0.1593 -0.5519
 2138Sol     OW12559   0.313   2.377   3.399 -0.6112 -0.0957  0.5435
 2138Sol     HW12560   0.404   2.404   3.414 -0.8516  0.0801  1.7171
 2138Sol     HW12561   0.279   2.358   3.487 -1.9838  0.7006  0.1966
 2138Sol     MW12562   0.318   2.377   3.409 -0.1452  0.5257 -0.0149
 2139Sol     OW12563   3.740   0.420   4.327 -0.0203  0.3957 -0.4621
 2139Sol     HW12564   3.742   0.462   4.413  0.5708  0.1291 -0.3465
 2139Sol     HW12565   3.815   0.361   4.327  0.0690  0.5022 -1.2172
 2139Sol     MW12566   3.747   0.419   4.335  0.7042 -0.1012  0.4575
 2140Sol     OW12567   1.312   0.663   5.837  0.1971 -0.3598 -0.4021
 2140Sol     HW12568   1.255   0.642   5.764  0.4198 -0.8894 -0.4312
 2140Sol     HW12569   1.265   0.730   5.887  0.2208  0.2922 -1.2415
 2140Sol     MW12570   1.303   0.667   5.835  0.4136  0.1195  0.2848
 2141Sol     OW12571   1.662   4.194   6.526  0.6734  0.0187 -0.5054
 2141Sol     HW12572   1.577   4.156   6.503  0.5544  0.0174 -0.0674
 2141Sol     HW12573   1.718   4.119   6.544  1.1644 -0.0288 -2.1480
 2141Sol     MW12574   1.660   4.184   6.525 -0.0333  0.0803 -0.2902
 2142Sol     OW12575   1.266   2.927   5.088 -0.1269 -0.2073 -0.8769
 2142Sol     HW12576   1.358   2.951   5.081  0.0441 -1.2989 -2.5022
 2142Sol     HW12577   1.255   2.853   5.029 -2.1628  0.2113 -1.0843
 2142Sol     MW12578   1.273   2.923   5.082 -0.3764 -0.1712  0.0506
 2143Sol     OW12579   3.718   2.436   6.251 -0.2834 -0.5091  0.5331
 2143Sol     HW12580   3.735   2.521   6.211  1.7972 -1.7280 -1.2841
 2143Sol     HW12581   3.756   2.442   6.339 -1.2544  0.8386  0.8697
 2143Sol     MW12582   3.723   2.444   6.255 -0.8774  0.0769 -0.6050
 2144Sol     OW12583   2.273   0.615   2.562  0.5444 -0.0426 -0.2287
 2144Sol     HW12584   2.195   0.653   2.601  1.8306  2.8177 -0.2576
 2144Sol     HW12585   2.260   0.623   2.468  1.1390  1.0818 -0.2261
 2144Sol     MW12586   2.265   0.619   2.557 -0.5125 -0.3438  1.0436
 2145Sol     OW12587   0.861   0.563   1.870  0.3764  0.3458 -0.2488
 2145Sol     HW12588   0.930   0.518   1.822  0.0854 -0.7578  0.3402
 2145Sol     HW12589   0.799   0.591   1.803 -0.6139 -2.1969 -0.4596
 2145Sol     MW12590   0.862   0.561   1.860  0.2489  0.2662  0.8027
 2146Sol     OW12591   2.577   0.327   5.727 -0.3344  0.1303  0.1604
 2146Sol     HW12592   2.591   0.391   5.797  1.6538 -0.1131  0.0008
 2146Sol     HW12593   2.661   0.283   5.717 -1.2019 -1.3252 -0.9248
 2146Sol     MW12594   2.586   0.329   5.733 -0.4672  0.0382 -0.1374
 2147Sol     OW12595   0.282   1.967   2.955 -0.0959  0.2841 -0.1501
 2147Sol     HW12596   0.218   2.034   2.931 -1.5613 -1.2432 -0.5789
 2147Sol     HW12597   0.292   1.975   3.049 -1.8512 -0.2716  0.0961
 2147Sol     MW12598   0.277   1.974   2.961 -0.2723  0.2250  0.7344
 2148Sol     OW12599   3.894   1.115   5.591 -0.2214  0.2953  0.2396
 2148Sol     HW12600   3.804   1.124   5.621  0.3966  0.4757  2.0730
 2148Sol     HW12601   3.912   1.197   5.544 -0.5057  0.9112  1.2094
 2148Sol     MW12602   3.888   1.123   5.589  0.4724 -0.8895 -0.4502
 2149Sol     OW12603   0.615   3.378   5.329  0.0525 -0.1050  0.1792
 2149Sol     HW12604   0.664   3.460   5.332 -0.0024  0.0633 -2.4214
 2149Sol     HW12605   0.523   3.405   5.333  0.0414 -0.0446 -0.4221
 2149Sol     MW12606   0.611   3.387   5.330 -0.2292  0.3759  0.1111
 2150Sol     OW12607   0.038   3.791   5.284 -0.3726 -0.1161 -0.4186
 2150Sol     HW12608   0.130   3.775   5.309 -1.3044 -0.8926  2.7330
 2150Sol     HW12609   0.016   3.875   5.325 -1.7055 -1.0009  0.7108
 2150Sol     MW12610   0.045   3.797   5.290 -0.0444 -0.3051  0.5505
 2151Sol     OW12611   1.288   0.405   4.727  0.4301  0.0766 -0.5402
 2151Sol     HW12612   1.242   0.480   4.763  2.4635  2.0325 -1.8931
 2151Sol     HW12613   1.301   0.347   4.802 -2.2171  0.4756  0.2873
 2151Sol     MW12614   1.285   0.406   4.737 -0.1172 -0.2422 -0.2570
 2152Sol     OW12615   2.006   2.347   6.421  0.0633 -0.2716 -0.0256
 2152Sol     HW12616   2.000   2.295   6.341 -0.9309  0.7188 -0.6141
 2152Sol     HW12617   1.930   2.319   6.472  0.7014 -0.9075  0.5741
 2152Sol     MW12618   1.998   2.340   6.418  0.4493  0.3334  0.3432
 2153Sol     OW12619   1.460   0.250   3.865 -0.1883  0.2633  0.0562
 2153Sol     HW12620   1.493   0.204   3.787 -0.1924 -0.1347  0.2843
 2153Sol     HW12621   1.539   0.280   3.910 -0.1699  0.1239  0.1174
 2153Sol     MW12622   1.470   0.248   3.862 -0.4847  1.0569 -0.1902
 2154Sol     OW12623   1.310   2.446   7.005  0.2840  0.3933  0.8431
 2154Sol     HW12624   1.353   2.434   7.090  1.7598  1.4581  0.2602
 2154Sol     HW12625   1.324   2.363   6.960  0.0834  0.0614  1.3855
 2154Sol     MW12626   1.315   2.438   7.009  0.0477  0.0667 -0.2881
 2155Sol     OW12627   1.864   3.714   2.169  0.3531  0.4264 -0.4776
 2155Sol     HW12628   1.923   3.658   2.119 -0.4236 -2.0390  1.2692
 2155Sol     HW12629   1.781   3.712   2.120 -0.0448 -1.0137  0.2123
 2155Sol     MW12630   1.862   3.709   2.161 -0.2701  0.1290 -0.0407
 2156Sol     OW12631   1.292   4.044   4.510 -0.0524 -0.7204 -0.1650
 2156Sol     HW12632   1.346   3.979   4.464 -0.5409 -1.2846  0.0443
 2156Sol     HW12633   1.243   4.088   4.440  0.7475 -0.1367 -0.3645
 2156Sol     MW12634   1.292   4.042   4.499  0.6591  0.2334  0.2353
 2157Sol     OW12635   2.370   1.960   4.445  0.5995 -0.2704 -0.6320
 2157Sol     HW12636   2.304   2.007   4.496 -0.0517  0.3645 -2.0177
 2157Sol     HW12637   2.386   1.880   4.494  1.2310  1.0704  1.4336
 2157Sol     MW12638   2.366   1.957   4.454  0.1062 -0.0680 -0.0214
 2158Sol     OW12639   3.909   2.691   1.592 -0.2603  0.6900  0.2639
 2158Sol     HW12640   3.959   2.708   1.671 -0.7085  1.1063  0.4621
 2158Sol     HW12641   3.892   2.778   1.555  0.6954  0.4604 -0.7558
 2158Sol     MW12642   3.912   2.700   1.596  0.4512  0.2224  0.3161
 2159Sol     OW12643   2.386   3.415   6.627 -1.0114 -0.6344  0.4414
 2159Sol     HW12644   2.479   3.419   6.651 -0.8035 -2.5932  0.1242
 2159Sol     HW12645   2.341   3.469   6.691  0.3366  0.2042  0.6967
 2159Sol     MW12646   2.391   3.420   6.635 -0.3551  0.3506  0.0095
 2160Sol     OW12647   2.300   1.635   6.497 -0.7380 -0.3742  0.1620
 2160Sol     HW12648   2.272   1.667   6.411  0.5395  2.9427  0.8901
 2160Sol     HW12649   2.395   1.645   6.497 -0.7180 -0.3687  1.9039
 2160Sol     MW12650   2.306   1.639   6.489  0.1868 -0.1965 -0.2505
 2161Sol     OW12651   1.657   2.833   2.386  0.6608  0.2709  0.0747
 2161Sol     HW12652   1.637   2.926   2.377  0.3434  0.1098 -0.9761
 2161Sol     HW12653   1.614   2.806   2.467  2.0678  1.3806  1.2321
 2161Sol     MW12654   1.652   2.839   2.392  0.6236 -0.5202  0.2939
 2162Sol     OW12655   0.763   2.444   4.284  0.0603  0.0652 -0.4178
 2162Sol     HW12656   0.742   2.510   4.219  2.0147 -0.1504 -1.3008
 2162Sol     HW12657   0.681   2.395   4.297 -1.0670  1.8765 -0.6256
 2162Sol     MW12658   0.754   2.445   4.280  0.5394 -0.0205 -0.4228
 2163Sol     OW12659   1.553   0.308   2.821  0.4024  0.4238  0.1284
 2163Sol     HW12660   1.585   0.219   2.839 -0.0616  0.5391  1.5351
 2163Sol     HW12661   1.631   0.355   2.791  0.8370 -0.2124  0.2398
 2163Sol     MW12662   1.563   0.304   2.820 -0.0063 -0.2024 -0.2016
 2164Sol     OW12663   1.583   3.893   2.485  0.0693  0.1046  0.1032
 2164Sol     HW12664   1.529   3.840   2.543  0.8936 -1.0869 -0.1933
 2164Sol     HW12665   1.672   3.860   2.498  0.5466  1.1819 -0.3478
 2164Sol     MW12666   1.586   3.885   2.491 -0.6123 -0.4429 -0.5971
 2165Sol     OW12667   2.275   4.084   2.265  0.1525 -0.4155 -0.3144
 2165Sol     HW12668   2.222   4.041   2.197  0.9965 -0.5507 -0.8938
 2165Sol     HW12669   2.365   4.058   2.245  0.4375 -0.2159  0.6895
 2165Sol     MW12670   2.278   4.077   2.257 -0.5750 -0.0420 -0.2525
 2166Sol     OW12671   0.136   1.651   5.629  0.0242 -0.0458  0.2028
 2166Sol     HW12672   0.171   1.700   5.703  0.1467  0.8648 -0.4581
 2166Sol     HW12673   0.187   1.681   5.554 -0.4709 -0.5627 -0.3446
 2166Sol     MW12674   0.143   1.658   5.629 -0.1256  1.1613 -0.0986
 2167Sol     OW12675   3.851   1.075   3.835 -0.2342  0.5883 -0.1040
 2167Sol     HW12676   3.848   1.102   3.743 -2.1780  2.5582  0.4833
 2167Sol     HW12677   3.790   1.002   3.840 -1.4692  1.6100 -0.0559
 2167Sol     MW12678   3.845   1.071   3.827  0.3309 -0.3339  0.1351
 2168Sol     OW12679   0.914   2.213   1.347 -0.3228 -0.2006 -0.0798
 2168Sol     HW12680   0.883   2.282   1.405 -0.1583  1.2840 -1.7018
 2168Sol     HW12681   0.936   2.140   1.405 -1.7433  0.6380  1.5464
 2168Sol     MW12682   0.913   2.213   1.357  0.5909  0.1370  0.1250
 2169Sol     OW12683   2.629   0.655   5.461 -0.2559  0.3964 -0.3680
 2169Sol     HW12684   2.712   0.669   5.506 -0.4267 -0.9991  0.3999
 2169Sol     HW12685   2.624   0.726   5.397  0.4873  1.7494  1.0681
 2169Sol     MW12686   2.636   0.663   5.459  0.3034  0.1409  0.1334
 2170Sol     OW12687   2.094   1.355   2.002  0.5251 -0.0085  0.4241
 2170Sol     HW12688   2.139   1.274   2.027 -0.2808 -0.2668  1.0792
 2170Sol     HW12689   2.018   1.324   1.950  0.6864  0.3763 -0.0436
 2170Sol     MW12690   2.091   1.345   1.999 -0.3193 -0.4308 -0.3958
 2171Sol     OW12691   1.614   0.575   1.629  0.1732  0.3770 -0.1853
 2171Sol     HW12692   1.680   0.637   1.598 -0.4277  0.1876 -1.9524
 2171Sol     HW12693   1.539   0.590   1.571 -0.1839 -1.5869 -0.2656
 2171Sol     MW12694   1.613   0.582   1.621  0.0743  0.2474 -0.3530
 2172Sol     OW12695   0.970   2.038   6.047 -0.2856 -0.3568  0.9120
 2172Sol     HW12696   0.972   1.943   6.060 -0.7597 -0.7110 -1.4430
 2172Sol     HW12697   1.040   2.055   5.984 -1.2829  0.6293  0.0448
 2172Sol     MW12698   0.976   2.031   6.042  0.7860 -0.5604  0.3047
 2173Sol     OW12699   1.460   2.966   5.904 -0.6175 -0.1995  0.2578
 2173Sol     HW12700   1.521   3.008   5.844 -3.1728  0.9106 -1.6534
 2173Sol     HW12701   1.418   2.897   5.852 -1.3759 -0.6140  1.3737
 2173Sol     MW12702   1.462   2.963   5.894 -0.4753  0.6994 -0.2397
 2174Sol     OW12703   0.091   3.994   2.027 -0.2414  0.0500 -0.7211
 2174Sol     HW12704   0.125   3.943   1.954 -0.2136 -0.6238 -0.2473
 2174Sol     HW12705   0.095   3.934   2.102 -1.8499  0.1695 -0.5136
 2174Sol     MW12706   0.094   3.984   2.027  0.3414 -0.2718  0.2278
 2175Sol     OW12707   0.967   1.698   5.182  0.2633 -0.4341  0.0811
 2175Sol     HW12708   1.056   1.701   5.218  0.6413 -0.6967 -0.8039
 2175Sol     HW12709   0.948   1.789   5.158 -0.3381 -0.1002  1.7278
 2175Sol     MW12710   0.973   1.706   5.183  0.3353  0.1360 -0.4863
 2176Sol     OW12711   2.664   3.796   6.460 -0.3026 -0.0157 -0.3001
 2176Sol     HW12712   2.671   3.732   6.390 -1.5368 -1.4053  0.8217
 2176Sol     HW12713   2.586   3.848   6.437  0.9837  1.4452 -1.4718
 2176Sol     MW12714   2.657   3.795   6.451  0.8501 -0.2246  0.2835
 2177Sol     OW12715   3.439   1.264   6.427  0.4820  0.5238  0.2357
 2177Sol     HW12716   3.371   1.270   6.360  1.5328  0.1074 -0.8841
 2177Sol     HW12717   3.452   1.354   6.457 -0.1575  0.6766  0.0557
 2177Sol     MW12718   3.434   1.273   6.424  0.1877 -0.3346  0.1369
 2178Sol     OW12719   3.672   1.883   1.392  0.2370  0.0116 -0.1285
 2178Sol     HW12720   3.602   1.845   1.445 -1.0168  1.3874 -0.7568
 2178Sol     HW12721   3.648   1.975   1.382  2.1366  0.5063 -0.3876
 2178Sol     MW12722   3.664   1.887   1.396  0.8802  0.1416 -0.0575
 2179Sol     OW12723   3.933   3.119   4.293 -1.0088 -0.5657 -0.2127
 2179Sol     HW12724   3.997   3.181   4.328 -1.9519  0.0676  0.4148
 2179Sol     HW12725   3.976   3.081   4.216  0.9544 -1.6972  1.3741
 2179Sol     MW12726   3.943   3.121   4.289 -0.1575  0.2055  0.1545
 2180Sol     OW12727   1.907   3.608   6.742  0.1611 -0.0814 -0.1947
 2180Sol     HW12728   1.918   3.533   6.801 -1.3972  0.9054  1.4309
 2180Sol     HW12729   1.816   3.635   6.755 -0.1184  0.3700 -2.8656
 2180Sol     MW12730   1.900   3.604   6.749 -0.0175  0.3132 -0.0630
 2181Sol     OW12731   0.023   3.710   5.022 -0.4039 -0.0618  0.3174
 2181Sol     HW12732   0.083   3.761   4.968  0.8859 -0.2956  1.5339
 2181Sol     HW12733   0.038   3.739   5.111 -1.4547 -0.7703  0.7461
 2181Sol     MW12734   0.030   3.717   5.025  0.0072 -0.7841 -0.1534
 2182Sol     OW12735   2.702   1.556   3.695  0.2594 -0.4232  0.2751
 2182Sol     HW12736   2.619   1.517   3.667  0.1150  0.5137 -0.6575
 2182Sol     HW12737   2.712   1.633   3.639  0.8485  0.5142  1.6463
 2182Sol     MW12738   2.695   1.559   3.687 -0.2008 -0.8164  0.9436
 2183Sol     OW12739   1.435   1.781   1.689 -0.2904  0.2765  0.3281
 2183Sol     HW12740   1.472   1.704   1.645  0.3870  1.9010 -2.0840
 2183Sol     HW12741   1.507   1.815   1.742  0.0718  0.4204 -0.2458
 2183Sol     MW12742   1.445   1.777   1.690  0.0440  0.1256  0.1618
 2184Sol     OW12743   1.544   2.991   5.159 -0.2435 -0.3157 -0.0161
 2184Sol     HW12744   1.610   3.031   5.215  0.2514 -0.5717 -0.4013
 2184Sol     HW12745   1.593   2.924   5.109 -1.0327 -1.3518  0.5790
 2184Sol     MW12746   1.555   2.988   5.159 -0.6854 -0.7238 -0.0428
 2185Sol     OW12747   0.601   3.787   2.727  0.1393  0.2806 -0.1996
 2185Sol     HW12748   0.544   3.723   2.769  0.8227  0.1247  0.5080
 2185Sol     HW12749   0.687   3.746   2.727  0.4514  0.9285 -0.3407
 2185Sol     MW12750   0.604   3.778   2.731  0.0598  0.2977  0.3210
 2186Sol     OW12751   1.279   1.901   6.494  0.2193  0.1131 -0.0314
 2186Sol     HW12752   1.365   1.897   6.536  0.6956  0.7267 -0.9314
 2186Sol     HW12753   1.221   1.934   6.562  0.9794  1.0666  0.1612
 2186Sol     MW12754   1.281   1.903   6.504 -0.3131 -0.1060 -0.0108
 2187Sol     OW12755   3.031   1.517   6.151 -0.3455  0.1973  0.1524
 2187Sol     HW12756   3.089   1.527   6.227  0.9102  0.2772 -0.7845
 2187Sol     HW12757   3.090   1.523   6.075 -1.7807  1.8642 -0.8911
 2187Sol     MW12758   3.042   1.519   6.151 -0.8430 -0.5800 -0.1289
 2188Sol     OW12759   3.811   3.416   3.018 -0.3685  0.7228 -0.1062
 2188Sol     HW12760   3.775   3.474   2.950  1.1207  1.5742 -0.1937
 2188Sol     HW12761   3.803   3.466   3.099 -3.3547 -0.7991  0.6399
 2188Sol     MW12762   3.807   3.426   3.019  0.1926  0.5322 -0.3210
 2189Sol     OW12763   3.553   3.683   3.811 -0.3885  0.1175  0.0000
 2189Sol     HW12764   3.485   3.638   3.761  0.3386 -0.2377 -0.6787
 2189Sol     HW12765   3.595   3.741   3.748  0.3084 -0.0809  0.2718
 2189Sol     MW12766   3.550   3.684   3.801 -0.1602  0.7540 -0.3299
 2190Sol     OW12767   3.521   0.906   6.606 -0.5436  0.0018 -0.5876
 2190Sol     HW12768   3.577   0.865   6.672 -0.9215 -1.2425 -1.0181
 2190Sol     HW12769   3.528   1.000   6.623  0.9949 -0.1860 -0.0908
 2190Sol     MW12770   3.526   0.911   6.613  0.5178 -0.1112  0.0585
 2191Sol     OW12771   2.335   1.764   5.523 -0.1796 -0.3312  0.3043
 2191Sol     HW12772   2.285   1.732   5.448 -0.9379 -0.9199  1.0565
 2191Sol     HW12773   2.413   1.709   5.524  1.1919  1.4825 -1.6918
 2191Sol     MW12774   2.338   1.756   5.516  0.1403 -0.1262 -0.0050
 2192Sol     OW12775   0.067   2.306   3.230  0.6898  0.6039 -0.4218
 2192Sol     HW12776   0.059   2.226   3.282 -0.9692  1.2713  0.3837
 2192Sol     HW12777   0.159   2.330   3.236  0.7349  0.0427  1.2769
 2192Sol     MW12778   0.074   2.301   3.235 -0.0016 -0.0905  0.3156
 2193Sol     OW12779   0.803   3.883   4.167  0.6069 -0.0085  0.6076
 2193Sol     HW12780   0.845   3.876   4.252  0.5056  1.0657  0.7520
 2193Sol     HW12781   0.738   3.952   4.178  0.5604  0.0997 -0.3204
 2193Sol     MW12782   0.801   3.889   4.175  0.5497  0.2171  0.1999
 2194Sol     OW12783   2.393   2.686   2.162  0.4688 -0.2066  0.0838
 2194Sol     HW12784   2.363   2.663   2.250  0.3480  0.6331  0.2736
 2194Sol     HW12785   2.380   2.781   2.157  0.4398 -0.2581 -0.8565
 2194Sol     MW12786   2.389   2.693   2.169  0.5001 -0.1102 -0.0751
 2195Sol     OW12787   3.865   1.906   4.277 -0.5309 -0.3033 -0.4844
 2195Sol     HW12788   3.803   1.938   4.211 -0.5072 -1.0276 -0.8615
 2195Sol     HW12789   3.812   1.857   4.339 -0.6064  0.6740  0.2479
 2195Sol     MW12790   3.855   1.905   4.277 -0.1607  0.0608  0.2666
 2196Sol     OW12791   2.275   3.842   2.021  0.9139  0.2977  0.1356
 2196Sol     HW12792   2.246   3.760   1.982  0.0383  0.9504 -0.6004
 2196Sol     HW12793   2.361   3.858   1.984  1.6473 -0.9466  1.2724
 2196Sol     MW12794   2.280   3.836   2.015  0.1857  0.1514 -0.3393
 2197Sol     OW12795   2.889   0.135   6.687  0.4185 -0.1564 -0.2368
 2197Sol     HW12796   2.838   0.202   6.732 -1.1265 -1.6382  0.3089
 2197Sol     HW12797   2.845   0.124   6.602 -0.3106 -1.5522  0.2983
 2197Sol     MW12798   2.880   0.140   6.683  0.4807  0.7715 -0.8979
 2198Sol     OW12799   3.479   1.203   4.507  0.1171 -0.1544 -0.2529
 2198Sol     HW12800   3.486   1.126   4.450  0.8115 -1.5548  1.6780
 2198Sol     HW12801   3.562   1.205   4.554 -0.3717  1.0813  0.5757
 2198Sol     MW12802   3.487   1.196   4.506  0.2174  0.3921 -0.4281
 2199Sol     OW12803   2.442   1.946   3.324  0.3790  0.5525  0.4307
 2199Sol     HW12804   2.435   1.922   3.417 -0.2448  1.1037  0.5264
 2199Sol     HW12805   2.375   2.013   3.311 -0.4827 -0.5071 -0.7549
 2199Sol     MW12806   2.435   1.950   3.331 -0.0696 -0.2010 -0.4825
 2200Sol     OW12807   3.667   0.433   2.075 -0.0488 -0.4201 -0.1569
 2200Sol     HW12808   3.720   0.475   2.007  0.9009 -0.5295  0.5047
 2200Sol     HW12809   3.587   0.406   2.030  0.6059 -0.5692 -1.2479
 2200Sol     MW12810   3.664   0.434   2.065 -0.0830  0.4144  0.2058
 2201Sol     OW12811   3.248   2.281   4.637 -0.0728  0.2854 -0.0012
 2201Sol     HW12812   3.193   2.312   4.709 -0.4528 -0.1110 -0.1147
 2201Sol     HW12813   3.254   2.355   4.578 -1.9989 -0.2182 -0.8741
 2201Sol     MW12814   3.243   2.290   4.638  0.0785  0.5216  0.0037
 2202Sol     OW12815   1.915   1.524   1.423  0.8262 -0.2585  0.1974
 2202Sol     HW12816   1.862   1.601   1.403  0.1601 -0.7103  0.1784
 2202Sol     HW12817   1.871   1.485   1.499  0.8524 -0.9118 -0.1250
 2202Sol     MW12818   1.906   1.527   1.428 -0.4657  0.4138 -0.9148
 2203Sol     OW12819   3.251   1.899   4.550 -0.3444 -0.3594  0.3820
 2203Sol     HW12820   3.249   1.803   4.550  0.5861 -0.3924 -1.2859
 2203Sol     HW12821   3.304   1.922   4.626  0.9716 -1.2186 -0.2556
 2203Sol     MW12822   3.255   1.892   4.556  0.3390 -0.5263 -0.0144
 2204Sol     OW12823   3.469   0.919   2.875 -0.1674 -0.0208 -0.3727
 2204Sol     HW12824   3.407   0.919   2.947  1.2421 -0.9716  0.8598
 2204Sol     HW12825   3.416   0.897   2.798 -1.4105 -0.4593  0.5970
 2204Sol     MW12826   3.459   0.917   2.874 -0.4731  0.6323  0.6001
 2205Sol     OW12827   2.114   2.844   2.231  0.4221 -0.2990  0.1418
 2205Sol     HW12828   2.174   2.919   2.225  0.6426 -0.3909  1.0678
 2205Sol     HW12829   2.098   2.834   2.325 -2.6209  0.9621 -0.1769
 2205Sol     MW12830   2.118   2.850   2.239 -0.3913  0.3290  0.4303
 2206Sol     OW12831   2.694   0.981   4.039  0.2769  0.0884 -0.7222
 2206Sol     HW12832   2.741   1.005   3.959  1.4545 -0.3948 -0.1896
 2206Sol     HW12833   2.734   1.034   4.107 -0.3338  0.0754 -0.3577
 2206Sol     MW12834   2.702   0.988   4.038  0.2831 -0.6570 -0.3070
 2207Sol     OW12835   1.308   2.625   1.814 -0.0948  0.1309  0.6316
 2207Sol     HW12836   1.349   2.562   1.873  0.7400 -0.0482 -0.1379
 2207Sol     HW12837   1.377   2.689   1.795 -1.3525  2.1578  2.6151
 2207Sol     MW12838   1.318   2.626   1.818  0.1449 -0.0567  0.3802
 2208Sol     OW12839   3.327   3.809   3.432  0.4027  0.1702 -0.0775
 2208Sol     HW12840   3.245   3.805   3.481 -0.0156  1.6435 -0.6331
 2208Sol     HW12841   3.307   3.864   3.356  2.6346  2.9048  1.2248
 2208Sol     MW12842   3.318   3.814   3.429  0.4489  0.0993  0.6466
 2209Sol     OW12843   0.152   0.120   4.949  0.0400 -0.3249 -0.2700
 2209Sol     HW12844   0.186   0.037   4.981  0.1213  0.3358  1.4111
 2209Sol     HW12845   0.060   0.120   4.973 -0.2179 -0.3797 -1.2306
 2209Sol     MW12846   0.147   0.113   4.954 -0.2563 -0.0182  0.3119
 2210Sol     OW12847   3.043   3.785   1.808  0.4880  0.3230 -0.1968
 2210Sol     HW12848   3.035   3.714   1.872 -0.3766  1.5463  1.0761
 2210Sol     HW12849   2.953   3.803   1.782  0.4159  2.8336  1.6055
 2210Sol     MW12850   3.034   3.780   1.812  0.1796  0.2395  0.1326
 2211Sol     OW12851   2.775   0.989   2.700 -0.4555 -0.0313  0.1432
 2211Sol     HW12852   2.700   1.042   2.727 -0.8189 -0.7152  0.4677
 2211Sol     HW12853   2.849   1.024   2.750 -0.9147 -0.5790  1.2139
 2211Sol     MW12854   2.775   0.997   2.707 -0.6294 -0.3902  0.7460
 2212Sol     OW12855   3.045   2.120   6.135 -0.0380 -0.2003 -0.1066
 2212Sol     HW12856   3.103   2.086   6.067 -1.2749 -0.4150 -1.0751
 2212Sol     HW12857   3.040   2.214   6.119  1.6887  0.1526  1.2688
 2212Sol     MW12858   3.050   2.125   6.128 -0.2881  0.1521  0.5282
 2213Sol     OW12859   3.752   4.142   5.933 -0.1929 -0.5965  0.0440
 2213Sol     HW12860   3.739   4.093   6.014 -0.5104  2.7296  2.1194
 2213Sol     HW12861   3.664   4.151   5.897 -0.2235 -0.9454  0.0292
 2213Sol     MW12862   3.743   4.139   5.937  0.0270 -0.1664  0.3765
 2214Sol     OW12863   2.373   2.180   1.692 -0.1261  0.0193 -0.4840
 2214Sol     HW12864   2.300   2.192   1.753  1.5345  2.3517  1.1038
 2214Sol     HW12865   2.391   2.267   1.658  1.4915 -0.6418 -1.3921
 2214Sol     MW12866   2.368   2.189   1.694  0.2853  0.0509 -0.2264
 2215Sol     OW12867   2.382   0.257   6.166 -0.5474  0.2438 -0.4788
 2215Sol     HW12868   2.364   0.304   6.248  1.0113  4.9699 -2.6138
 2215Sol     HW12869   2.307   0.278   6.110  0.2203  0.2929 -1.5048
 2215Sol     MW12870   2.374   0.263   6.168  0.1880  0.1509  0.7541
 2216Sol     OW12871   2.014   3.000   1.355 -0.1539  0.3868 -0.6960
 2216Sol     HW12872   2.053   2.913   1.360 -3.3062 -1.0937 -0.8010
 2216Sol     HW12873   2.002   3.026   1.446  1.7436  1.2034 -0.6539
 2216Sol     MW12874   2.016   2.995   1.363 -0.4155  0.0130  0.2059
 2217Sol     OW12875   1.771   3.996   3.034 -0.0656 -0.2932 -0.4878
 2217Sol     HW12876   1.851   4.038   3.066 -0.5941 -0.1984  0.7281
 2217Sol     HW12877   1.751   4.044   2.953  0.9670 -0.1547 -0.6713
 2217Sol     MW12878   1.776   4.004   3.029  0.0765  0.1273 -0.6320
 2218Sol     OW12879   3.325   3.294   3.846 -0.1284 -0.1258  0.6822
 2218Sol     HW12880   3.343   3.278   3.938 -0.4046  0.5554  0.8636
 2218Sol     HW12881   3.271   3.220   3.818 -0.6231  0.0084  1.2512
 2218Sol     MW12882   3.321   3.286   3.852 -0.0769  0.9594  0.4416
 2219Sol     OW12883   0.257   2.850   6.528 -0.5338 -0.3028  0.2772
 2219Sol     HW12884   0.216   2.936   6.515 -0.7746 -0.2209  1.4582
 2219Sol     HW12885   0.350   2.866   6.515 -0.4966  0.3081  1.2314
 2219Sol     MW12886   0.261   2.859   6.526  0.1304  0.6386  0.2417
 2220Sol     OW12887   3.712   0.449   3.397 -0.2205  0.1535 -0.3671
 2220Sol     HW12888   3.783   0.385   3.406 -1.0800 -0.7264  0.2592
 2220Sol     HW12889   3.683   0.439   3.306 -0.7857 -0.8094 -0.0839
 2220Sol     MW12890   3.716   0.442   3.390  0.1857  0.0459 -0.0900
 2221Sol     OW12891   3.397   0.647   4.178 -0.0527 -0.2305 -0.1321
 2221Sol     HW12892   3.323   0.587   4.182 -0.4960  0.3281  0.2335
 2221Sol     HW12893   3.402   0.685   4.266 -0.0921  0.6223 -0.4905
 2221Sol     MW12894   3.391   0.645   4.186  0.0107  0.0138 -0.4113
 2222Sol     OW12895   1.143   3.234   1.717 -0.2377  0.4379 -0.1560
 2222Sol     HW12896   1.132   3.322   1.681 -1.5694  0.2531 -0.2483
 2222Sol     HW12897   1.123   3.176   1.644  0.1040  0.0652  0.0485
 2222Sol     MW12898   1.140   3.237   1.708 -0.0818  0.0575 -0.2158
 2223Sol     OW12899   0.112   2.162   2.513  0.0532  0.5207 -0.1416
 2223Sol     HW12900   0.049   2.164   2.585 -1.8162  3.3981 -1.7496
 2223Sol     HW12901   0.071   2.106   2.447  1.0599 -0.8728  0.4021
 2223Sol     MW12902   0.102   2.157   2.513  0.2398  0.1802 -0.0231
 2224Sol     OW12903   2.950   2.661   5.842 -0.2321 -0.3633  0.2031
 2224Sol     HW12904   2.936   2.642   5.935  1.2131  1.7773  0.9130
 2224Sol     HW12905   2.973   2.755   5.840  0.5514 -0.5659 -2.2118
 2224Sol     MW12906   2.951   2.668   5.850  0.5354 -0.3158 -0.4185
 2225Sol     OW12907   2.910   1.288   5.996  0.2606 -0.1503 -0.0695
 2225Sol     HW12908   2.923   1.355   6.063 -1.2475  1.3355 -1.2543
 2225Sol     HW12909   2.835   1.318   5.945  1.5100 -1.1536 -2.5755
 2225Sol     MW12910   2.905   1.296   5.998  0.7287 -0.2678  0.1536
 2226Sol     OW12911   1.822   0.923   4.506 -0.1347 -0.5034 -0.1166
 2226Sol     HW12912   1.834   0.910   4.600 -0.2562  0.9055  0.0972
 2226Sol     HW12913   1.790   1.013   4.497 -1.4114 -1.0636 -1.4035
 2226Sol     MW12914   1.820   0.930   4.513  0.3034 -0.5840  0.0986
 2227Sol     OW12915   1.017   1.790   4.826 -0.2413  0.0099  0.2302
 2227Sol     HW12916   1.102   1.810   4.787  0.4343 -0.2790  1.5325
 2227Sol     HW12917   1.001   1.699   4.803  0.2174 -0.1984  0.7005
 2227Sol     MW12918   1.023   1.783   4.821 -0.2519  0.0344 -0.0362
 2228Sol     OW12919   1.143   3.098   5.742 -0.4864 -0.4514 -0.0405
 2228Sol     HW12920   1.086   3.169   5.712 -1.8234 -1.2065  0.6978
 2228Sol     HW12921   1.170   3.125   5.830 -0.7158 -0.7120  0.1066
 2228Sol     MW12922   1.141   3.107   5.747 -0.3933  0.6907 -0.1506
 2229Sol     OW12923   3.831   0.707   6.508  0.0195  0.8879 -0.2932
 2229Sol     HW12924   3.916   0.733   6.542  0.8615 -1.3488 -0.6090
 2229Sol     HW12925   3.845   0.619   6.473 -2.3328  0.6275 -0.6525
 2229Sol     MW12926   3.840   0.701   6.508  0.0775  0.7720  0.2635
 2230Sol     OW12927   0.802   1.645   5.568  0.8769 -0.0464 -0.3234
 2230Sol     HW12928   0.736   1.696   5.521 -0.0583 -1.6384 -0.7828
 2230Sol     HW12929   0.755   1.567   5.597  2.0959 -0.3020  1.0072
 2230Sol     MW12930   0.792   1.643   5.567 -0.7583  0.3398  1.0164
 2231Sol     OW12931   2.056   3.166   2.772 -0.4224  0.0412 -0.0925
 2231Sol     HW12932   1.986   3.222   2.804  1.8523  1.9403  1.7124
 2231Sol     HW12933   2.096   3.215   2.700  0.2794 -0.1608  0.1549
 2231Sol     MW12934   2.053   3.175   2.768 -0.7356  0.4980  0.6536
 2232Sol     OW12935   0.029   2.970   4.045 -0.0988 -0.1173  0.2679
 2232Sol     HW12936  -0.021   2.901   4.001  1.2226 -1.8374  1.3404
 2232Sol     HW12937   0.063   3.024   3.974 -0.7776 -0.8596 -0.6379
 2232Sol     MW12938   0.028   2.968   4.035 -0.1537  0.3534  0.5445
 2233Sol     OW12939   0.331   0.099   4.630  0.4122 -0.0318  0.3052
 2233Sol     HW12940   0.327   0.184   4.674  0.7810  1.0311 -1.6459
 2233Sol     HW12941   0.240   0.077   4.611  0.4624  1.0922 -1.3112
 2233Sol     MW12942   0.323   0.105   4.632  0.4878  0.0294  0.1741
 2234Sol     OW12943   2.703   3.587   6.299 -0.0646 -0.7609  0.7721
 2234Sol     HW12944   2.740   3.535   6.371 -0.5786 -1.1177  0.7819
 2234Sol     HW12945   2.609   3.566   6.300 -0.2332 -0.0329  0.6104
 2234Sol     MW12946   2.698   3.581   6.306 -0.2158  0.3177 -0.6179
 2235Sol     OW12947   1.655   2.376   6.210 -0.9209 -0.6463 -0.1130
 2235Sol     HW12948   1.639   2.387   6.303  0.9945 -0.1057  0.1763
 2235Sol     HW12949   1.629   2.460   6.171 -0.3587 -0.3593  0.1282
 2235Sol     MW12950   1.651   2.385   6.214  0.6196  0.1637  0.2064
 2236Sol     OW12951   3.732   1.036   5.062  0.3233 -0.8406  0.1489
 2236Sol     HW12952   3.661   1.091   5.027  1.5908 -0.7158 -2.3425
 2236Sol     HW12953   3.767   1.086   5.135  0.7079  1.2023 -1.3749
 2236Sol     MW12954   3.728   1.046   5.065 -0.2322  0.1826  0.0740
 2237Sol     OW12955   3.326   2.102   5.265  0.1472 -0.2121 -0.4088
 2237Sol     HW12956   3.420   2.084   5.257  0.1358 -0.5007  0.0339
 2237Sol     HW12957   3.321   2.182   5.318  0.1384 -0.2898 -0.2926
 2237Sol     MW12958   3.334   2.108   5.269  0.4238 -0.7573  0.2637
 2238Sol     OW12959   1.924   1.005   5.450  0.1110  0.3762 -0.3331
 2238Sol     HW12960   1.906   1.017   5.543 -0.2001  0.4897 -0.4097
 2238Sol     HW12961   1.839   1.014   5.408  0.3384  0.8719 -0.6853
 2238Sol     MW12962   1.915   1.007   5.455 -0.3172  0.7454 -0.5178
 2239Sol     OW12963   2.381   3.308   6.179  0.3890  0.2750 -0.3085
 2239Sol     HW12964   2.398   3.372   6.248 -1.0709  1.1238 -0.7165
 2239Sol     HW12965   2.466   3.293   6.138  1.5187 -1.2133  2.4792
 2239Sol     MW12966   2.390   3.312   6.181  0.3696  0.5009  0.3196
 2240Sol     OW12967   3.407   1.896   2.801 -0.1830  0.0337  0.1082
 2240Sol     HW12968   3.359   1.821   2.767 -4.1772  1.1462  2.9570
 2240Sol     HW12969   3.379   1.969   2.745  0.0107  0.2765  0.3293
 2240Sol     MW12970   3.400   1.896   2.793 -0.1560  0.0967  0.3937
 2241Sol     OW12971   1.234   2.567   5.169  0.3489 -0.4619  0.2140
 2241Sol     HW12972   1.262   2.630   5.236  2.3377  2.5735 -3.3302
 2241Sol     HW12973   1.138   2.574   5.168  0.4280  0.9673  1.2934
 2241Sol     MW12974   1.228   2.573   5.175 -0.3210 -0.0934 -0.2471
 2242Sol     OW12975   3.735   3.569   3.495  0.0115 -0.4893 -0.0598
 2242Sol     HW12976   3.787   3.502   3.540 -1.2567 -0.8764  0.8780
 2242Sol     HW12977   3.736   3.644   3.554  1.1870  0.2240 -0.9780
 2242Sol     MW12978   3.740   3.570   3.504 -0.1138 -0.4140  0.4059
 2243Sol     OW12979   0.545   2.918   4.786  0.4684 -0.1241 -0.3525
 2243Sol     HW12980   0.491   2.898   4.710 -0.6106 -0.2291  0.4204
 2243Sol     HW12981   0.516   2.856   4.853 -0.0098  1.2548  0.7542
 2243Sol     MW12982   0.537   2.911   4.786 -0.1835 -0.0309  0.4037
 2244Sol     OW12983   2.207   1.578   1.930 -0.2715 -0.1988 -0.6410
 2244Sol     HW12984   2.170   1.499   1.969  0.9328 -0.0994  0.7583
 2244Sol     HW12985   2.279   1.545   1.875  1.6466  0.0233  1.6386
 2244Sol     MW12986   2.210   1.568   1.928 -0.0048 -0.2671  0.3788
 2245Sol     OW12987   0.591   2.032   5.915  0.6484  0.1262  0.0534
 2245Sol     HW12988   0.631   1.949   5.942  0.7746 -0.5606 -2.1214
 2245Sol     HW12989   0.660   2.097   5.927  0.4843 -0.0220  1.9757
 2245Sol     MW12990   0.601   2.030   5.919 -0.5466 -0.8067  0.5041
 2246Sol     OW12991   0.568   3.753   2.296  0.6175 -0.5507 -0.1406
 2246Sol     HW12992   0.534   3.803   2.370 -1.0136  0.1819 -1.3592
 2246Sol     HW12993   0.522   3.789   2.219  3.0502 -0.5454 -1.6639
 2246Sol     MW12994   0.561   3.761   2.295  0.3287  0.2375  0.9436
 2247Sol     OW12995   1.625   0.399   2.171  0.7834  0.2199 -0.8221
 2247Sol     HW12996   1.689   0.446   2.223  1.6453  1.8770 -3.3326
 2247Sol     HW12997   1.581   0.466   2.119 -2.8215 -0.8999  0.5987
 2247Sol     MW12998   1.626   0.409   2.171  0.3163  0.0900  0.5094
 2248Sol     OW12999   1.139   3.835   2.700  0.3742 -0.1681 -0.2786
 2248Sol     HW13000   1.050   3.807   2.722 -0.1215  0.0430 -1.9504
 2248Sol     HW13001   1.164   3.781   2.625  1.2002  0.5864 -0.5611
 2248Sol     MW13002   1.133   3.828   2.695 -0.5990  0.1720 -0.4681
 2249Sol     OW13003   0.237   3.243   2.491 -0.4178  0.2080  0.5212
 2249Sol     HW13004   0.174   3.315   2.491 -1.4482 -0.6667 -1.7227
 2249Sol     HW13005   0.184   3.164   2.479  1.0687 -0.5466 -1.2801
 2249Sol     MW13006   0.227   3.243   2.490  0.0246 -0.3829 -0.1485
 2250Sol     OW13007   0.870   1.852   5.732  0.4548 -0.0648 -0.2974
 2250Sol     HW13008   0.826   1.790   5.674  1.7761 -1.1917 -0.1297
 2250Sol     HW13009   0.837   1.831   5.819  0.3527 -0.0446 -0.3315
 2250Sol     MW13010   0.863   1.845   5.735  0.5962  0.0367  0.2341
 2251Sol     OW13011   1.985   2.625   6.796  0.1450  0.1294  0.1359
 2251Sol     HW13012   1.943   2.681   6.862  0.1855 -0.0499  0.3131
 2251Sol     HW13013   2.044   2.684   6.749  0.5442  0.1381  0.6348
 2251Sol     MW13014   1.987   2.635   6.798  0.4137 -0.3089 -0.2997
 2252Sol     OW13015   3.954   3.175   6.192 -0.0827  0.2110  0.0526
 2252Sol     HW13016   3.879   3.234   6.194 -1.4474 -1.5344  2.2585
 2252Sol     HW13017   4.026   3.227   6.229 -0.8221  1.0756  0.2915
 2252Sol     MW13018   3.954   3.185   6.195  0.2787 -0.0693  0.0592
 2253Sol     OW13019   1.072   1.308   2.308  0.1999 -0.2566 -0.3154
 2253Sol     HW13020   1.065   1.402   2.319  0.3810 -0.3665  0.7976
 2253Sol     HW13021   0.982   1.277   2.305  0.1408 -0.0482 -0.7051
 2253Sol     MW13022   1.063   1.313   2.309 -0.3596  0.2885  0.1123
 2254Sol     OW13023   2.905   3.020   4.879  0.6003  0.4354 -0.0636
 2254Sol     HW13024   2.962   2.950   4.911  0.9317  0.8432  0.2485
 2254Sol     HW13025   2.816   2.987   4.891  0.7302  0.4450  0.9686
 2254Sol     MW13026   2.902   3.011   4.883  0.0739  0.9120  0.2010
 2255Sol     OW13027   1.914   1.009   2.159  0.6576  0.1081 -0.0576
 2255Sol     HW13028   1.892   1.011   2.253 -0.7260 -3.9656 -0.2120
 2255Sol     HW13029   1.866   1.083   2.122  0.8988  1.5326  2.3701
 2255Sol     MW13030   1.908   1.016   2.164  0.2309  0.5371 -0.2456
 2256Sol     OW13031   0.389   2.884   2.418 -0.3321 -0.3077  0.2003
 2256Sol     HW13032   0.473   2.929   2.415  0.2900 -1.4358  0.1387
 2256Sol     HW13033   0.389   2.839   2.502 -0.1880 -1.5694 -0.4572
 2256Sol     MW13034   0.396   2.884   2.425 -0.1364 -0.2783 -0.0036
 2257Sol     OW13035   2.977   1.129   3.621 -0.2625  1.2431  0.0931
 2257Sol     HW13036   2.993   1.130   3.526 -2.6701 -0.9215 -0.3758
 2257Sol     HW13037   2.924   1.206   3.637  1.5654  2.5659 -0.0081
 2257Sol     MW13038   2.974   1.136   3.614 -0.3127 -0.1497 -0.1130
 2258Sol     OW13039   2.284   0.432   1.957 -0.0508 -0.3817 -0.0676
 2258Sol     HW13040   2.273   0.412   1.864 -0.9267  0.0685 -0.0634
 2258Sol     HW13041   2.357   0.376   1.985 -0.7554 -1.6067 -0.6614
 2258Sol     MW13042   2.290   0.426   1.951 -0.1081 -0.0786 -0.5483
 2259Sol     OW13043   3.470   2.489   2.415  0.0454 -0.7789  0.2228
 2259Sol     HW13044   3.543   2.475   2.475  1.0328  1.5175 -0.4254
 2259Sol     HW13045   3.415   2.555   2.459  0.6603  0.7536 -1.2812
 2259Sol     MW13046   3.471   2.494   2.425 -0.2975 -0.3343  0.1466
 2260Sol     OW13047   2.197   3.324   3.186 -0.2861 -0.1602  0.0154
 2260Sol     HW13048   2.108   3.303   3.159 -1.1741  1.1649  1.8565
 2260Sol     HW13049   2.215   3.410   3.147 -0.2062  0.0454  0.4959
 2260Sol     MW13050   2.191   3.330   3.180  0.0997 -0.2255  0.4119
 2261Sol     OW13051   0.315   2.325   3.653 -0.4100 -0.1551  0.4183
 2261Sol     HW13052   0.257   2.369   3.715 -0.7990 -2.3806  1.7077
 2261Sol     HW13053   0.403   2.341   3.688 -0.4807  0.3237  0.3847
 2261Sol     MW13054   0.318   2.330   3.662 -0.1912  0.2415 -0.3384
 2262Sol     OW13055   1.758   0.672   4.874 -0.6525 -0.0817 -0.1118
 2262Sol     HW13056   1.836   0.696   4.923  0.1396  0.2087 -1.4949
 2262Sol     HW13057   1.721   0.755   4.845 -0.1995 -0.3180 -1.3976
 2262Sol     MW13058   1.762   0.681   4.876 -0.9808  0.3475  0.5425
 2263Sol     OW13059   2.115   0.936   3.436 -0.0293  0.5859  0.4964
 2263Sol     HW13060   2.192   0.976   3.477 -0.1708  1.0474  0.3227
 2263Sol     HW13061   2.139   0.844   3.423  0.1167  0.4962  1.3644
 2263Sol     MW13062   2.124   0.931   3.438 -0.2393 -0.2910 -0.2506
 2264Sol     OW13063   3.434   2.929   3.095  0.1581 -0.0398  0.5561
 2264Sol     HW13064   3.353   2.942   3.045 -1.2221 -1.3203  2.3977
 2264Sol     HW13065   3.503   2.929   3.029 -1.2160  2.1045 -0.9635
 2264Sol     MW13066   3.433   2.930   3.085  0.0725 -0.2668  0.2411
 2265Sol     OW13067   3.346   2.834   4.172  0.1862  0.3747  0.1146
 2265Sol     HW13068   3.312   2.750   4.205  1.9065 -0.5854 -0.4926
 2265Sol     HW13069   3.277   2.866   4.113 -1.6200  0.6811  2.3279
 2265Sol     MW13070   3.337   2.829   4.169  0.6959  0.2435 -0.0391
 2266Sol     OW13071   2.296   3.032   2.135  0.0852 -0.1461 -0.5414
 2266Sol     HW13072   2.320   3.029   2.043  1.1451  0.3576 -0.2882
 2266Sol     HW13073   2.275   3.125   2.151 -0.5332 -0.3103 -0.3850
 2266Sol     MW13074   2.296   3.040   2.128 -0.6383 -0.2244 -0.4013
 2267Sol     OW13075   1.707   2.861   4.264  0.7039  0.4317  0.0164
 2267Sol     HW13076   1.763   2.886   4.190  0.6240  1.3426  0.2531
 2267Sol     HW13077   1.632   2.817   4.224  0.9751  0.3456 -0.3955
 2267Sol     MW13078   1.705   2.860   4.254  0.4432  0.4146 -0.0747
 2268Sol     OW13079   0.773   3.008   6.340  0.2785 -0.0030 -0.2573
 2268Sol     HW13080   0.799   3.033   6.429  0.5809 -0.3994 -0.2311
 2268Sol     HW13081   0.805   3.079   6.285 -1.2236  0.9734  0.1193
 2268Sol     MW13082   0.778   3.016   6.343 -0.0967  0.0974  0.9002
 2269Sol     OW13083   3.277   0.605   3.406 -0.2185  0.0530  0.5246
 2269Sol     HW13084   3.312   0.587   3.319  0.0227 -2.1095  1.0287
 2269Sol     HW13085   3.347   0.652   3.451  0.3001 -0.2579  0.0554
 2269Sol     MW13086   3.287   0.607   3.403 -0.2386 -0.0680  0.4324
 2270Sol     OW13087   0.341   2.035   2.554 -0.6099  0.2101  0.3477
 2270Sol     HW13088   0.337   1.950   2.508  0.3588  0.7687 -0.8136
 2270Sol     HW13089   0.252   2.068   2.550 -0.3320  0.7712 -2.2183
 2270Sol     MW13090   0.333   2.030   2.549 -1.1089  0.4392  0.4011
 2271Sol     OW13091   3.221   2.646   4.704  0.0523 -0.0943  0.4126
 2271Sol     HW13092   3.247   2.719   4.648  1.2848 -1.6407 -1.0875
 2271Sol     HW13093   3.160   2.595   4.651  1.1323 -1.5115  0.4883
 2271Sol     MW13094   3.218   2.648   4.694 -0.0530  0.9167  0.1936
 2272Sol     OW13095   0.665   2.340   1.962  0.0161  0.5607 -0.4042
 2272Sol     HW13096   0.747   2.343   1.912  0.3779 -0.8408  0.0847
 2272Sol     HW13097   0.665   2.254   2.002 -0.3911  1.5788  1.8210
 2272Sol     MW13098   0.673   2.333   1.961 -0.2409  0.1356  0.1853
 2273Sol     OW13099   2.993   3.418   6.826  0.8548  0.1542 -0.1490
 2273Sol     HW13100   3.070   3.466   6.795  1.0592  0.4229  0.7656
 2273Sol     HW13101   3.012   3.326   6.805  0.6616  0.4137 -1.4880
 2273Sol     MW13102   3.002   3.414   6.821 -0.1108 -0.3091  0.3830
 2274Sol     OW13103   2.909   0.479   4.043  0.6221  0.1703 -0.1581
 2274Sol     HW13104   2.877   0.430   3.967  0.4723  0.0743 -0.0331
 2274Sol     HW13105   2.860   0.561   4.042 -0.7966 -0.6294  0.9440
 2274Sol     MW13106   2.902   0.482   4.036 -0.0344 -0.1511  0.0865
 2275Sol     OW13107   3.591   0.260   4.567  0.3124 -0.1644 -0.6530
 2275Sol     HW13108   3.582   0.330   4.632  0.1264  1.4505 -2.3967
 2275Sol     HW13109   3.663   0.288   4.511  2.7883 -3.2053  0.8511
 2275Sol     MW13110   3.597   0.269   4.568  0.6038  0.0534  0.1974
 2276Sol     OW13111   0.683   0.113   2.029  0.1774  0.4761 -0.0309
 2276Sol     HW13112   0.598   0.084   1.996  0.9756 -1.7099 -0.2062
 2276Sol     HW13113   0.687   0.206   2.005 -1.9944  0.5148 -0.3429
 2276Sol     MW13114   0.675   0.119   2.024 -0.1375  0.1770 -0.0017
 2277Sol     OW13115   3.209   0.141   2.724  0.6069  0.6183  0.4338
 2277Sol     HW13116   3.260   0.208   2.678  1.5690  0.3308  1.0660
 2277Sol     HW13117   3.125   0.184   2.744 -0.0520  0.5819 -2.0470
 2277Sol     MW13118   3.206   0.151   2.722  0.2748  0.8391 -0.3089
 2278Sol     OW13119   3.334   1.745   6.258 -0.4611  0.1383 -0.2674
 2278Sol     HW13120   3.398   1.704   6.316 -1.7951 -1.6718 -0.0156
 2278Sol     HW13121   3.306   1.674   6.200 -1.8596  1.0158 -0.6806
 2278Sol     MW13122   3.337   1.735   6.258 -0.1680 -0.2683  0.0241
 2279Sol     OW13123   2.477   2.116   3.030  0.8595  0.2836  0.2782
 2279Sol     HW13124   2.510   2.087   3.115  0.2531  0.1415  0.4684
 2279Sol     HW13125   2.492   2.210   3.029  0.0318  0.4193  0.9133
 2279Sol     MW13126   2.482   2.122   3.037 -1.0147 -0.2513  0.1152
 2280Sol     OW13127   0.436   1.099   4.678  0.1437  0.1564  0.7484
 2280Sol     HW13128   0.411   1.094   4.586 -0.5914  0.3840  0.9315
 2280Sol     HW13129   0.399   1.021   4.718  0.9707 -0.2437  0.7344
 2280Sol     MW13130   0.431   1.092   4.673 -0.6804  0.0980 -0.5475
 2281Sol     OW13131   3.064   3.255   2.750 -0.3697 -0.4103 -0.1717
 2281Sol     HW13132   3.064   3.348   2.773 -0.4558  0.1647 -2.4468
 2281Sol     HW13133   2.982   3.221   2.786 -0.4755  0.4481  0.4152
 2281Sol     MW13134   3.057   3.261   2.755  0.3710  0.6896  0.2312
 2282Sol     OW13135   0.112   3.391   2.777  0.1369  0.0655  0.2374
 2282Sol     HW13136   0.063   3.313   2.752  0.5978 -0.8831  2.1285
 2282Sol     HW13137   0.074   3.418   2.860 -0.5548  2.3768 -0.7899
 2282Sol     MW13138   0.104   3.387   2.782  0.7737 -0.4478  0.0764
 2283Sol     OW13139   3.943   0.761   2.733 -0.0381  0.1545  0.3062
 2283Sol     HW13140   3.937   0.670   2.762  0.9744  0.3641  1.2049
 2283Sol     HW13141   4.029   0.766   2.690 -0.9042  0.2105 -1.4643
 2283Sol     MW13142   3.950   0.753   2.732  0.0827  0.1862 -0.4725
 2284Sol     OW13143   0.607   3.743   1.484 -0.0300 -0.0985  0.0324
 2284Sol     HW13144   0.653   3.737   1.568  1.2084 -1.2920 -0.7053
 2284Sol     HW13145   0.528   3.793   1.503 -0.6606 -1.8610  2.2950
 2284Sol     MW13146   0.604   3.747   1.493  0.5116 -0.0285 -0.2226
 2285Sol     OW13147   3.139   0.155   4.700 -0.2322 -0.7566  0.1763
 2285Sol     HW13148   3.107   0.244   4.719  0.2227 -0.7310  0.8346
 2285Sol     HW13149   3.219   0.169   4.650 -0.5954 -0.8076 -0.4229
 2285Sol     MW13150   3.143   0.164   4.697 -0.2929  0.1158 -0.3399
 2286Sol     OW13151   3.815   3.713   5.117  0.0991 -0.2371 -0.4174
 2286Sol     HW13152   3.909   3.732   5.112  0.0469  0.0005 -0.5048
 2286Sol     HW13153   3.787   3.706   5.026 -0.2651  1.1848 -0.4150
 2286Sol     MW13154   3.821   3.714   5.109 -0.5709 -0.0428  0.3152
 2287Sol     OW13155   0.061   0.017   4.596 -0.0778  0.5957 -0.5412
 2287Sol     HW13156   0.050  -0.025   4.511 -2.4636 -0.3058  0.1900
 2287Sol     HW13157   0.033  -0.048   4.659  0.5664  1.6703  0.8858
 2287Sol     MW13158   0.058   0.008   4.594 -0.4137 -0.3694  0.1458
 2288Sol     OW13159   3.172   2.181   1.933 -0.1934  0.2290 -0.4485
 2288Sol     HW13160   3.258   2.169   1.893  0.0716 -1.9411  0.6545
 2288Sol     HW13161   3.149   2.271   1.914  1.2365  0.1387 -2.8947
 2288Sol     MW13162   3.178   2.188   1.928  0.4383  0.0348 -0.8212
 2289Sol     OW13163   1.168   1.095   2.466  0.4193 -0.7703 -0.4693
 2289Sol     HW13164   1.124   1.168   2.423 -0.7462 -0.6242  0.9308
 2289Sol     HW13165   1.231   1.135   2.526 -1.2665 -0.8336  1.4085
 2289Sol     MW13166   1.170   1.105   2.468  0.2605  0.0220 -0.8080
 2290Sol     OW13167   2.567   0.994   3.071 -0.3024  0.0202  0.8217
 2290Sol     HW13168   2.557   1.029   2.983 -0.3347  1.1064  1.2463
 2290Sol     HW13169   2.647   0.941   3.068 -0.0597  0.4244  0.2599
 2290Sol     MW13170   2.573   0.992   3.063 -0.4846  0.5748  0.0524
 2291Sol     OW13171   0.827   0.851   4.383 -0.2406  0.5647 -0.7452
 2291Sol     HW13172   0.856   0.924   4.438 -1.8958  2.1259 -1.8666
 2291Sol     HW13173   0.867   0.774   4.422 -0.5270  1.7509  2.0098
 2291Sol     MW13174   0.833   0.851   4.391 -0.6165  0.5081  0.2047
 2292Sol     OW13175   3.994   2.164   3.613  1.1733  0.7122  0.0151
 2292Sol     HW13176   4.038   2.240   3.576  0.4871 -0.1123 -2.6085
 2292Sol     HW13177   3.910   2.160   3.567  0.4029 -0.5534  1.4612
 2292Sol     MW13178   3.990   2.171   3.606 -0.5887  0.2966 -0.3786
 2293Sol     OW13179   1.962   2.538   5.085 -0.3187  0.4817 -0.0973
 2293Sol     HW13180   1.977   2.444   5.101  1.8489  1.0906  1.6947
 2293Sol     HW13181   1.923   2.570   5.167 -2.5428  0.8580 -1.2766
 2293Sol     MW13182   1.960   2.532   5.094 -0.0814  0.2628  0.2985
 2294Sol     OW13183   1.376   0.071   6.185  0.0370  0.4256 -0.2662
 2294Sol     HW13184   1.383   0.040   6.276  1.2148 -0.0590 -0.5182
 2294Sol     HW13185   1.302   0.022   6.149 -1.1666  1.4396  0.7496
 2294Sol     MW13186   1.370   0.064   6.190 -0.0267 -0.1062 -0.1222
 2295Sol     OW13187   0.824   3.981   6.743 -0.1361  0.1136 -0.0441
 2295Sol     HW13188   0.807   4.023   6.659 -2.5688  0.6682  0.7038
 2295Sol     HW13189   0.770   3.902   6.742 -1.0876  0.7223  1.4671
 2295Sol     MW13190   0.818   3.977   6.736 -0.1839  0.5900  0.2414
 2296Sol     OW13191   2.054   0.942   6.044 -0.2172 -0.2747  0.2590
 2296Sol     HW13192   1.968   0.926   6.081 -0.2292  0.5648  0.6143
 2296Sol     HW13193   2.043   0.929   5.950 -1.0615  1.1668  0.1457
 2296Sol     MW13194   2.046   0.940   6.039  0.3921  0.0744 -0.4811
 2297Sol     OW13195   1.296   1.906   2.552 -0.0640 -0.3864  0.0141
 2297Sol     HW13196   1.382   1.897   2.592  0.1718  0.5533 -0.2674
 2297Sol     HW13197   1.304   1.859   2.468  0.1588 -0.3286  0.0034
 2297Sol     MW13198   1.305   1.901   2.548 -0.2759  0.1533  0.3132
 2298Sol     OW13199   0.162   2.889   3.661 -0.3163 -0.7319  0.2235
 2298Sol     HW13200   0.142   2.819   3.599  0.4182 -0.4355 -0.3447
 2298Sol     HW13201   0.106   2.962   3.634  0.3654 -0.4345 -0.4022
 2298Sol     MW13202   0.155   2.889   3.653 -0.0365 -0.0848  0.3806
 2299Sol     OW13203   3.121   4.051   1.829 -0.3827 -0.3187  0.6414
 2299Sol     HW13204   3.095   3.962   1.806 -0.8842 -0.5726  2.1240
 2299Sol     HW13205   3.168   4.041   1.912  0.9229  0.6188  0.0237
 2299Sol     MW13206   3.123   4.042   1.835 -0.6959  0.1566 -0.2596
 2300Sol     OW13207   2.793   1.140   4.240 -0.0025 -0.1274  0.4314
 2300Sol     HW13208   2.862   1.118   4.303  1.1718 -0.9824 -1.1166
 2300Sol     HW13209   2.784   1.235   4.247  1.7454  0.0630  0.2590
 2300Sol     MW13210   2.799   1.147   4.246  0.1580 -0.2259  0.7270
 2301Sol     OW13211   0.391   2.572   6.073 -0.5989  0.0993  0.4441
 2301Sol     HW13212   0.311   2.530   6.105 -0.6070  0.1075  0.4346
 2301Sol     HW13213   0.457   2.503   6.076 -0.8378 -0.1845 -0.4909
 2301Sol     MW13214   0.389   2.562   6.076  0.2354  0.5289  0.5341
 2302Sol     OW13215   2.748   0.581   5.869  0.5278  0.3521 -0.0103
 2302Sol     HW13216   2.702   0.534   5.938 -0.3605 -0.1210 -0.9176
 2302Sol     HW13217   2.824   0.527   5.850  0.4164  0.1447  0.1309
 2302Sol     MW13218   2.751   0.572   5.873 -0.2133  0.6915 -0.4558
 2303Sol     OW13219   1.820   0.625   6.003  0.0121 -0.0465  0.1275
 2303Sol     HW13220   1.912   0.604   5.988 -0.1715  0.9909 -2.7401
 2303Sol     HW13221   1.776   0.539   6.004  0.9182 -0.5107  0.9981
 2303Sol     MW13222   1.824   0.615   6.001  0.2328  0.5064  0.0905
 2304Sol     OW13223   3.041   2.570   5.070  0.5932  0.0968  0.4113
 2304Sol     HW13224   3.059   2.636   5.136  0.4909 -0.5026  1.0372
 2304Sol     HW13225   3.105   2.501   5.086  0.4446 -0.1376  0.0093
 2304Sol     MW13226   3.048   2.570   5.077  0.3176 -0.2387  0.5627
 2305Sol     OW13227   3.222   3.054   5.898  0.2002 -0.0316 -0.6979
 2305Sol     HW13228   3.279   2.998   5.845  0.1704 -0.4458 -0.2975
 2305Sol     HW13229   3.279   3.087   5.968  0.1407  0.1824 -0.7506
 2305Sol     MW13230   3.233   3.052   5.900  0.4592 -0.1655 -0.3392
 2306Sol     OW13231   3.545   2.876   2.409 -0.4168  0.2976 -0.0274
 2306Sol     HW13232   3.488   2.803   2.433  0.1433 -0.7334 -1.8205
 2306Sol     HW13233   3.625   2.862   2.460  0.0936 -0.9289 -1.1351
 2306Sol     MW13234   3.547   2.868   2.416  0.6568 -0.0408  0.4254
 2307Sol     OW13235   1.416   1.210   1.898 -0.2677 -0.5555  0.4346
 2307Sol     HW13236   1.360   1.252   1.963 -0.9055 -2.0202  0.8611
 2307Sol     HW13237   1.356   1.185   1.827  0.0470 -0.9952  0.3167
 2307Sol     MW13238   1.405   1.211   1.897 -0.3788 -0.6596  0.0389
 2308Sol     OW13239   1.306   2.846   1.276 -0.1669  0.5214  0.3004
 2308Sol     HW13240   1.243   2.778   1.303 -0.5044  0.2537 -1.1186
 2308Sol     HW13241   1.284   2.921   1.331 -1.0164  0.0713  0.5974
 2308Sol     MW13242   1.298   2.847   1.284  0.1198  0.1789 -0.8138
 2309Sol     OW13243   2.429   2.716   1.488 -0.0760  0.2235 -0.4560
 2309Sol     HW13244   2.494   2.775   1.449  0.6443  0.0820  0.5030
 2309Sol     HW13245   2.459   2.628   1.466  1.8992  0.0393  2.7593
 2309Sol     MW13246   2.437   2.714   1.482 -0.5616 -0.2650 -0.3926
 2310Sol     OW13247   0.675   3.235   4.531  0.0390  0.8420 -0.1042
 2310Sol     HW13248   0.691   3.159   4.475 -2.3813 -0.4088  0.8376
 2310Sol     HW13249   0.736   3.224   4.604 -0.3755 -0.2705  0.0832
 2310Sol     MW13250   0.682   3.227   4.532  0.4183  0.1630 -0.4240
 2311Sol     OW13251   3.709   2.326   6.636 -0.2253  0.6258 -0.1036
 2311Sol     HW13252   3.651   2.252   6.617  1.1160 -0.3972 -0.2617
 2311Sol     HW13253   3.765   2.295   6.707 -0.5286  1.9775  0.7509
 2311Sol     MW13254   3.708   2.317   6.641 -0.1993 -0.2330 -0.1383
 2312Sol     OW13255   2.702   1.074   2.449 -0.4601  0.3842 -0.4172
 2312Sol     HW13256   2.655   0.991   2.439  0.1513 -0.0037 -0.1481
 2312Sol     HW13257   2.737   1.071   2.538 -2.0942  1.8132  0.2968
 2312Sol     MW13258   2.701   1.066   2.456  0.1951  0.4557  0.2516
 2313Sol     OW13259   3.525   0.086   5.609  0.6505 -0.4776 -0.6461
 2313Sol     HW13260   3.573   0.015   5.566  0.6537 -2.1237  1.9756
 2313Sol     HW13261   3.520   0.060   5.701 -1.7650  1.6225 -0.1232
 2313Sol     MW13262   3.529   0.078   5.613 -0.8213 -0.0661  0.0498
 2314Sol     OW13263   0.905   0.062   2.455 -0.2054 -0.3377  0.0998
 2314Sol     HW13264   0.982   0.116   2.437 -0.8424  0.8802  0.9656
 2314Sol     HW13265   0.936  -0.028   2.446  0.9922  0.1604 -0.8702
 2314Sol     MW13266   0.915   0.059   2.453  0.1830  0.6057  0.3360
 2315Sol     OW13267   0.269   0.328   4.809 -0.3610  0.4301  0.4946
 2315Sol     HW13268   0.231   0.262   4.867  0.2605 -0.4563 -0.0926
 2315Sol     HW13269   0.290   0.402   4.867  1.4980 -0.9568  1.6533
 2315Sol     MW13270   0.268   0.329   4.819 -0.4207 -0.0409  0.1738
 2316Sol     OW13271   0.766   2.548   5.662 -0.0999  0.5026  0.0511
 2316Sol     HW13272   0.822   2.592   5.598  0.3393  0.0335  0.1213
 2316Sol     HW13273   0.699   2.505   5.609 -0.0044  0.5000 -0.0678
 2316Sol     MW13274   0.765   2.548   5.652  0.4498  0.2171 -0.2693
 2317Sol     OW13275   3.444   2.966   5.690  0.8368 -0.1274 -0.0749
 2317Sol     HW13276   3.393   2.905   5.743 -1.1786  0.8858 -0.7538
 2317Sol     HW13277   3.498   2.911   5.634 -0.7263 -1.2948 -0.4649
 2317Sol     MW13278   3.444   2.956   5.690 -0.2462  0.0090 -0.3362
 2318Sol     OW13279   1.041   1.773   6.195  0.0771  0.4540  0.6287
 2318Sol     HW13280   1.103   1.739   6.132  0.9118  0.1131  1.6181
 2318Sol     HW13281   1.026   1.700   6.255 -2.3092  0.0833 -0.3550
 2318Sol     MW13282   1.045   1.763   6.195  0.0000 -0.2868 -0.2888
 2319Sol     OW13283   1.405   1.326   4.002  0.0614 -0.2555 -0.4454
 2319Sol     HW13284   1.324   1.344   3.954  0.4317  0.0855 -0.9393
 2319Sol     HW13285   1.469   1.304   3.935  0.0711 -1.7373  0.0248
 2319Sol     MW13286   1.404   1.325   3.992  0.0859  0.2185  0.0622
 2320Sol     OW13287   0.500   1.494   5.375  0.2384 -0.1184 -0.2824
 2320Sol     HW13288   0.422   1.449   5.407  0.9042 -1.8303 -0.9731
 2320Sol     HW13289   0.535   1.539   5.452 -0.8839 -0.1417  0.2517
 2320Sol     MW13290   0.496   1.494   5.385 -0.2581 -0.4396  0.1042
 2321Sol     OW13291   3.129   2.926   3.581  0.0302 -0.2566 -0.3291
 2321Sol     HW13292   3.048   2.941   3.630 -0.8926 -0.9755 -1.6235
 2321Sol     HW13293   3.144   2.832   3.589 -0.1055 -0.3683 -1.4090
 2321Sol     MW13294   3.123   2.919   3.586  0.1647 -0.0189  0.5495
 2322Sol     OW13295   3.328   1.202   2.034 -0.3651  1.1938  0.2208
 2322Sol     HW13296   3.368   1.187   2.120 -1.2705  1.2821  0.6711
 2322Sol     HW13297   3.249   1.148   2.035  0.9983 -0.9041 -1.6028
 2322Sol     MW13298   3.325   1.196   2.042  0.2299  0.2145 -0.9285
 2323Sol     OW13299   0.531   4.003   3.818 -0.2491  0.0664  0.7963
 2323Sol     HW13300   0.498   3.957   3.741  1.3008 -0.1000  0.2062
 2323Sol     HW13301   0.577   4.079   3.783  1.1252 -0.4251  1.4972
 2323Sol     MW13302   0.532   4.006   3.808 -0.4881 -1.1274 -0.2914
 2324Sol     OW13303   3.035   0.213   5.051 -0.1862 -0.1273  0.6585
 2324Sol     HW13304   2.954   0.243   5.092 -0.7899  0.3200 -0.8172
 2324Sol     HW13305   3.007   0.147   4.987  0.5824  0.2305 -0.0614
 2324Sol     MW13306   3.026   0.209   5.049  0.1930  0.4102  0.0669
 2325Sol     OW13307   2.677   1.404   6.279 -0.2798  0.1055  0.6257
 2325Sol     HW13308   2.684   1.486   6.327  0.5815 -0.0986  0.8580
 2325Sol     HW13309   2.644   1.429   6.192  3.0604  1.0912 -0.4178
 2325Sol     MW13310   2.674   1.413   6.275 -0.5477  0.0668  1.0021
 2326Sol     OW13311   0.144   1.057   3.032  0.4057 -0.3364  0.2394
 2326Sol     HW13312   0.240   1.055   3.036  0.4497  1.0389  0.3836
 2326Sol     HW13313   0.115   1.024   3.117  0.7766  0.0886  0.5330
 2326Sol     MW13314   0.150   1.054   3.040 -0.4406 -0.2250 -0.3764
 2327Sol     OW13315   0.261   2.613   4.164  1.0760 -0.0389 -0.2455
 2327Sol     HW13316   0.279   2.691   4.112 -2.3979 -0.0404 -1.5737
 2327Sol     HW13317   0.188   2.638   4.220  1.5900 -1.5721  1.1499
 2327Sol     MW13318   0.256   2.622   4.164 -0.2344  0.4358  0.4048
 2328Sol     OW13319   3.980   3.041   4.722  0.6534 -0.3551 -0.0421
 2328Sol     HW13320   3.931   3.003   4.649  0.9742 -0.8732  0.0136
 2328Sol     HW13321   3.940   3.127   4.735  0.1039 -0.5634 -0.3417
 2328Sol     MW13322   3.972   3.045   4.717 -0.7643  0.6307 -0.5399
 2329Sol     OW13323   0.098   1.247   4.211 -0.3313 -0.2670  1.1827
 2329Sol     HW13324   0.078   1.327   4.259  1.8488  0.5725  0.7142
 2329Sol     HW13325   0.015   1.224   4.168 -1.1049  1.4314  1.7205
 2329Sol     MW13326   0.089   1.252   4.211  0.3288 -0.1865  0.1202
 2330Sol     OW13327   0.645   0.438   2.477  0.8001 -0.0386 -0.6462
 2330Sol     HW13328   0.576   0.410   2.416  0.3425  0.6961 -0.4767
 2330Sol     HW13329   0.713   0.475   2.420  1.4404 -1.5619 -0.8724
 2330Sol     MW13330   0.645   0.439   2.466 -0.2789 -0.7533  0.2050
 2331Sol     OW13331   0.587   0.722   2.204 -0.2669 -0.0553  0.0304
 2331Sol     HW13332   0.565   0.807   2.167 -0.2942 -0.2428 -0.3769
 2331Sol     HW13333   0.636   0.744   2.284  1.9909  0.3507 -1.4015
 2331Sol     MW13334   0.589   0.732   2.208 -0.1755  0.3545 -0.3332
 2332Sol     OW13335   1.047   0.247   5.869 -0.1366  0.0449 -0.1031
 2332Sol     HW13336   0.995   0.326   5.851  0.7787  0.3439 -1.4777
 2332Sol     HW13337   1.099   0.234   5.791  1.1037 -0.8661  0.8558
 2332Sol     MW13338   1.047   0.253   5.861  0.0863  0.1702 -0.6108
 2333Sol     OW13339   1.397   3.438   6.790 -0.2025  0.6868 -0.0539
 2333Sol     HW13340   1.316   3.479   6.821 -0.7591  0.2420 -0.9124
 2333Sol     HW13341   1.368   3.373   6.726  0.7378 -0.4387  0.6487
 2333Sol     MW13342   1.387   3.436   6.787 -0.3748  0.6883 -0.3378
 2334Sol     OW13343   1.042   3.659   3.312  0.5702  0.2918  0.1120
 2334Sol     HW13344   0.967   3.716   3.332  1.7170  1.2995  1.6165
 2334Sol     HW13345   1.020   3.621   3.227 -0.9074  1.8518 -0.2450
 2334Sol     MW13346   1.033   3.661   3.306 -0.2933  0.6230 -0.0837
 2335Sol     OW13347   3.981   1.847   5.534 -0.8209 -0.6424 -0.2334
 2335Sol     HW13348   4.055   1.840   5.595 -0.3521  2.4742 -0.3584
 2335Sol     HW13349   4.020   1.835   5.447 -0.5782  0.1823 -0.2437
 2335Sol     MW13350   3.991   1.845   5.532 -0.3831 -0.1649  0.0701
 2336Sol     OW13351   2.082   1.413   2.905 -0.3363 -0.3664 -0.3514
 2336Sol     HW13352   1.995   1.382   2.883 -0.1766 -1.0498 -0.0210
 2336Sol     HW13353   2.068   1.498   2.947 -0.8753 -0.7203  0.1792
 2336Sol     MW13354   2.073   1.418   2.907 -0.0441 -1.2535  0.4057
 2337Sol     OW13355   2.299   2.015   2.385 -0.1546  0.5382  0.2549
 2337Sol     HW13356   2.211   1.982   2.371  0.2919 -0.8090  0.5238
 2337Sol     HW13357   2.287   2.096   2.434 -1.2054 -0.1490  1.1652
 2337Sol     MW13358   2.290   2.019   2.388  0.1284 -0.1797 -0.2192
 2338Sol     OW13359   0.395   3.540   1.461 -0.2799 -0.1672  0.4205
 2338Sol     HW13360   0.423   3.449   1.450  1.8056  0.4758  0.3762
 2338Sol     HW13361   0.475   3.589   1.476 -1.1939  1.9915 -1.4902
 2338Sol     MW13362   0.404   3.536   1.462  0.2491 -0.1294 -0.2328
 2339Sol     OW13363   0.977   3.664   3.646  0.6989  0.1203  0.7991
 2339Sol     HW13364   0.909   3.621   3.698  0.4530 -0.0584  0.3373
 2339Sol     HW13365   0.965   3.629   3.558  0.3181  1.3400  0.3478
 2339Sol     MW13366   0.970   3.657   3.643 -0.9164  0.6174  0.1660
 2340Sol     OW13367   1.514   1.842   6.599  0.6235  0.0519 -0.4283
 2340Sol     HW13368   1.553   1.758   6.574  0.3475  0.0310 -0.8040
 2340Sol     HW13369   1.522   1.845   6.694 -0.0882 -0.7632 -0.3369
 2340Sol     MW13370   1.518   1.835   6.605 -0.1618  0.6467  0.1451
 2341Sol     OW13371   1.862   2.729   6.175  0.1427 -0.2551  0.3913
 2341Sol     HW13372   1.954   2.751   6.188 -0.3298  1.2824  1.3823
 2341Sol     HW13373   1.831   2.791   6.109 -0.3296 -0.3373  0.5312
 2341Sol     MW13374   1.867   2.736   6.171  0.0317  0.4162 -0.1453
 2342Sol     OW13375   0.887   2.873   5.753 -0.2093 -0.6059 -0.2703
 2342Sol     HW13376   0.876   2.955   5.801  0.2561 -0.2452 -0.7804
 2342Sol     HW13377   0.894   2.807   5.822 -2.3282 -0.4582  0.1220
 2342Sol     MW13378   0.887   2.875   5.764  0.4163  0.2151 -0.4867
 2343Sol     OW13379   2.783   1.008   3.773 -0.5708  0.2985  0.0448
 2343Sol     HW13380   2.730   0.937   3.738 -0.9500  0.6391 -0.0644
 2343Sol     HW13381   2.847   1.027   3.704 -1.1011  0.7401 -0.3261
 2343Sol     MW13382   2.784   1.003   3.764  0.3124  0.4420 -0.6894
 2344Sol     OW13383   2.065   3.446   4.411 -0.5507  0.1924 -0.1479
 2344Sol     HW13384   2.078   3.409   4.498 -0.8206  0.6084  0.0682
 2344Sol     HW13385   2.023   3.376   4.361 -1.5295  0.3745  0.4025
 2344Sol     MW13386   2.062   3.437   4.414  0.3826  0.3517 -0.3709
 2345Sol     OW13387   2.140   2.851   1.782  0.1369  0.8095  0.0009
 2345Sol     HW13388   2.115   2.810   1.865 -0.1849  2.3395  0.6786
 2345Sol     HW13389   2.213   2.909   1.805  0.4388  0.7959 -0.8983
 2345Sol     MW13390   2.145   2.852   1.792  0.1998 -0.8236 -0.1331
 2346Sol     OW13391   0.835   3.331   3.283  0.1646  0.6092 -0.3160
 2346Sol     HW13392   0.903   3.392   3.256 -0.2232  0.4673 -1.6567
 2346Sol     HW13393   0.763   3.387   3.313 -0.3069  0.8371 -1.8270
 2346Sol     MW13394   0.835   3.342   3.283 -0.0904 -0.0264 -0.3228
 2347Sol     OW13395   1.275   0.316   2.798 -0.5392 -0.1246 -0.4771
 2347Sol     HW13396   1.246   0.303   2.888 -3.3829  0.3469 -1.2653
 2347Sol     HW13397   1.370   0.331   2.804 -0.9629  1.6222  2.5966
 2347Sol     MW13398   1.281   0.316   2.806 -0.0063  0.2558 -0.4559
 2348Sol     OW13399   0.459   3.299   5.664  0.1378 -0.0744 -0.0493
 2348Sol     HW13400   0.395   3.346   5.611 -0.9179 -0.4889  0.8177
 2348Sol     HW13401   0.450   3.207   5.636 -0.6312 -0.3406  1.0196
 2348Sol     MW13402   0.452   3.295   5.657 -0.1383  0.3676  0.1509
 2349Sol     OW13403   0.877   0.888   2.955  0.1424  0.4555 -0.4606
 2349Sol     HW13404   0.905   0.814   2.901 -0.0065  0.0814 -0.0206
 2349Sol     HW13405   0.798   0.920   2.912  1.0105  1.2696 -1.4821
 2349Sol     MW13406   0.872   0.884   2.946 -0.0907 -0.1961  0.4725
 2350Sol     OW13407   3.177   3.551   6.334  0.5855 -0.4513  0.1867
 2350Sol     HW13408   3.108   3.488   6.356  1.4311 -1.3473  0.3165
 2350Sol     HW13409   3.194   3.538   6.241  2.0251 -1.7087  0.6020
 2350Sol     MW13410   3.173   3.544   6.328 -0.3290 -0.5234 -0.4973
 2351Sol     OW13411   1.892   2.335   3.392  0.2760 -0.2747  0.0198
 2351Sol     HW13412   1.979   2.353   3.427  0.2218  0.7839 -0.3621
 2351Sol     HW13413   1.843   2.299   3.466  0.9731 -0.6844  0.2851
 2351Sol     MW13414   1.895   2.333   3.402 -0.4330  0.0798 -0.5915
 2352Sol     OW13415   3.294   2.092   6.395 -0.0690 -0.2983 -0.1193
 2352Sol     HW13416   3.231   2.019   6.400  1.8321 -1.9150  0.9900
 2352Sol     HW13417   3.335   2.082   6.309  0.0449 -0.4334 -0.0502
 2352Sol     MW13418   3.292   2.084   6.388  0.2502  0.1633 -0.3525
 2353Sol     OW13419   3.213   0.360   5.686  0.1811 -0.3585 -0.2304
 2353Sol     HW13420   3.160   0.323   5.616 -0.5581  1.4902 -0.6795
 2353Sol     HW13421   3.256   0.436   5.647  1.1206 -0.3052  0.8521
 2353Sol     MW13422   3.212   0.363   5.677  0.0234  0.1092 -0.1016
 2354Sol     OW13423   2.438   3.537   2.644  0.5368 -0.0415 -0.0178
 2354Sol     HW13424   2.516   3.554   2.696 -0.1183  0.7506  0.7236
 2354Sol     HW13425   2.471   3.514   2.557  1.6023 -0.1877  0.4227
 2354Sol     MW13426   2.448   3.536   2.641 -0.2685  0.1356  0.1758
 2355Sol     OW13427   0.669   3.421   5.060  0.0730 -0.1924 -0.5475
 2355Sol     HW13428   0.641   3.388   5.145  0.0191  1.8370  0.2618
 2355Sol     HW13429   0.626   3.364   4.997 -0.3014 -1.4081  0.7834
 2355Sol     MW13430   0.663   3.413   5.062  0.0687  0.1971  0.7037
 2356Sol     OW13431   1.471   1.816   3.615  0.0677  0.0400  0.5887
 2356Sol     HW13432   1.457   1.790   3.525 -1.0945  3.2435 -0.2375
 2356Sol     HW13433   1.530   1.891   3.610  0.4218 -0.0617  2.5230
 2356Sol     MW13434   1.475   1.821   3.607  0.4655  0.8469  0.0850
 2357Sol     OW13435   0.364   2.140   4.101  0.0929  0.0406  0.0872
 2357Sol     HW13436   0.269   2.131   4.110  0.1584 -1.4710 -0.5529
 2357Sol     HW13437   0.377   2.227   4.063 -1.2086 -0.8605 -2.5233
 2357Sol     MW13438   0.356   2.147   4.099  0.3062  0.3122 -0.0601
 2358Sol     OW13439   0.856   3.230   6.508 -0.0063  0.1435 -0.2227
 2358Sol     HW13440   0.879   3.302   6.567 -0.8943  0.6785 -0.5121
 2358Sol     HW13441   0.786   3.266   6.453  0.6552 -0.4125 -1.4447
 2358Sol     MW13442   0.852   3.240   6.508  0.0643  0.2703  0.0294
 2359Sol     OW13443   3.758   2.420   5.087 -0.1770 -0.3298  0.3136
 2359Sol     HW13444   3.723   2.507   5.105  0.2722 -0.4909  2.0042
 2359Sol     HW13445   3.806   2.430   5.005 -2.7349  0.2771 -1.1519
 2359Sol     MW13446   3.759   2.428   5.081  0.0938  0.8757 -0.2768
 2360Sol     OW13447   1.739   2.451   1.862 -0.7059  0.3695  0.1309
 2360Sol     HW13448   1.785   2.510   1.922  1.2926 -0.8260 -0.1861
 2360Sol     HW13449   1.807   2.392   1.829 -2.2297 -0.5861 -1.3991
 2360Sol     MW13450   1.750   2.451   1.864  0.0427  0.3196 -0.3020
 2361Sol     OW13451   0.516   1.710   1.463  0.5776 -0.6131  0.4722
 2361Sol     HW13452   0.518   1.803   1.441  1.6694 -0.3021  1.8118
 2361Sol     HW13453   0.607   1.681   1.451  0.3345 -1.3908  0.4975
 2361Sol     MW13454   0.525   1.716   1.460  0.2246 -0.5340  0.7663
 2362Sol     OW13455   1.386   3.068   2.614 -0.0307 -0.2742 -0.0068
 2362Sol     HW13456   1.404   3.084   2.707  0.7219 -0.4672 -0.1147
 2362Sol     HW13457   1.342   2.983   2.613  0.4380 -0.5239  0.1332
 2362Sol     MW13458   1.384   3.062   2.623 -0.1211  0.1641  0.7459
 2363Sol     OW13459   3.184   4.171   4.234 -0.2711 -0.2615 -0.5281
 2363Sol     HW13460   3.117   4.164   4.302  0.0541  1.1908 -0.0396
 2363Sol     HW13461   3.222   4.258   4.247  1.8632 -1.1410 -0.6415
 2363Sol     MW13462   3.182   4.178   4.241  0.1529  0.0959 -0.0905
 2364Sol     OW13463   3.459   4.177   3.070  0.3752  0.0092 -0.1588
 2364Sol     HW13464   3.487   4.235   3.141  0.7763 -0.3614 -0.0167
 2364Sol     HW13465   3.506   4.095   3.086 -0.2238 -0.3725 -0.3360
 2364Sol     MW13466   3.466   4.175   3.078 -0.0050 -0.2637  0.5071
 2365Sol     OW13467   1.977   0.485   4.210  0.0484 -0.1856 -0.3424
 2365Sol     HW13468   1.929   0.554   4.256  0.6596  0.2944 -0.4026
 2365Sol     HW13469   1.999   0.422   4.279  0.0651  0.0155 -0.1608
 2365Sol     MW13470   1.975   0.486   4.221 -0.4128  0.8411 -0.2202
 2366Sol     OW13471   3.485   3.831   1.825  0.4988  0.1443  0.3124
 2366Sol     HW13472   3.394   3.842   1.853  0.2837 -0.1381 -0.2521
 2366Sol     HW13473   3.515   3.919   1.804 -0.5266 -0.0424 -2.1431
 2366Sol     MW13474   3.480   3.840   1.826 -0.5094  0.1849  0.8375
 2367Sol     OW13475   1.820   1.207   2.308  0.1749  0.1355 -0.1129
 2367Sol     HW13476   1.819   1.231   2.401 -0.7439 -2.1070  0.4755
 2367Sol     HW13477   1.896   1.253   2.273 -1.0865  3.2804  1.0985
 2367Sol     MW13478   1.827   1.213   2.314  0.3862  0.1943  0.5279
 2368Sol     OW13479   3.126   3.729   4.434  0.0771 -0.3159  0.3889
 2368Sol     HW13480   3.161   3.799   4.379 -0.1757 -0.9688 -0.6091
 2368Sol     HW13481   3.172   3.650   4.405  0.2999 -0.5895  1.4489
 2368Sol     MW13482   3.133   3.728   4.427  0.3223  0.0122  0.3746
 2369Sol     OW13483   0.668   3.361   6.354 -0.7122  0.1273  0.2336
 2369Sol     HW13484   0.573   3.352   6.365 -0.6698 -0.1236  0.4053
 2369Sol     HW13485   0.678   3.409   6.271 -0.9782 -0.3516 -0.0788
 2369Sol     MW13486   0.660   3.364   6.347 -0.2235  0.2694  0.4634
 2370Sol     OW13487   0.064   2.079   6.266 -0.1690  0.0534  0.1676
 2370Sol     HW13488  -0.001   2.049   6.202  1.0607 -0.0160 -1.0632
 2370Sol     HW13489   0.023   2.154   6.308 -1.4120 -0.5297  0.0280
 2370Sol     MW13490   0.054   2.083   6.264  0.4018 -0.6502 -0.9037
 2371Sol     OW13491   1.001   1.982   4.066 -0.1397  0.1787  0.3534
 2371Sol     HW13492   1.065   1.981   3.994  1.6611  0.2736  1.9121
 2371Sol     HW13493   1.020   1.902   4.115 -0.6149  0.6732  1.3460
 2371Sol     MW13494   1.009   1.975   4.064 -0.0127 -0.0113  0.0667
 2372Sol     OW13495   0.102   0.942   6.363 -0.0355  0.2870  0.0484
 2372Sol     HW13496   0.088   0.931   6.269 -2.8174  1.4504  0.2749
 2372Sol     HW13497   0.142   1.028   6.372 -0.7283  0.6154 -0.0035
 2372Sol     MW13498   0.104   0.948   6.356 -0.1097 -1.0811  0.7860
 2373Sol     OW13499   2.482   2.429   1.452  0.1153  0.3848  0.0056
 2373Sol     HW13500   2.560   2.386   1.487 -1.5014  0.5026  4.0066
 2373Sol     HW13501   2.441   2.363   1.396  1.9810 -0.3406 -0.5491
 2373Sol     MW13502   2.485   2.419   1.450  0.2673 -0.5160 -0.2405
 2374Sol     OW13503   3.900   2.660   3.508 -0.5792  0.0375  0.2688
 2374Sol     HW13504   3.823   2.692   3.462  1.1448  0.6802 -2.2867
 2374Sol     HW13505   3.917   2.574   3.469  0.5408  0.3067  0.1561
 2374Sol     MW13506   3.895   2.655   3.501  0.3268 -0.3050  0.4288
 2375Sol     OW13507   1.410   0.346   2.513  0.5636 -0.6498  0.1761
 2375Sol     HW13508   1.348   0.331   2.442 -0.7919 -1.3398  1.4790
 2375Sol     HW13509   1.360   0.328   2.593 -0.5145  7.9464  1.9308
 2375Sol     MW13510   1.400   0.343   2.514  0.3355 -0.0124 -0.5643
 2376Sol     OW13511   0.266   1.781   5.847  0.0989  0.3335  0.2777
 2376Sol     HW13512   0.257   1.864   5.799  2.0342  0.3977 -0.0114
 2376Sol     HW13513   0.246   1.805   5.938 -0.2577  0.9322  0.0467
 2376Sol     MW13514   0.263   1.791   5.851  0.2316  0.0721 -0.6571
 2377Sol     OW13515   0.312   2.529   4.907  0.2359  0.2233 -0.2222
 2377Sol     HW13516   0.319   2.470   4.832 -0.3317  0.5408 -0.5241
 2377Sol     HW13517   0.322   2.472   4.983 -2.5463 -0.6077 -0.4481
 2377Sol     MW13518   0.314   2.519   4.907 -0.5424  0.2859  0.3819
 2378Sol     OW13519   0.767   1.360   2.880  0.2441  0.6429 -0.4437
 2378Sol     HW13520   0.738   1.443   2.917  0.4546  1.2887 -1.6992
 2378Sol     HW13521   0.836   1.384   2.819  2.4915 -0.7445  1.4590
 2378Sol     MW13522   0.771   1.369   2.878 -0.5566  0.4291  0.2205
 2379Sol     OW13523   2.488   0.002   6.466  0.4757 -0.1440 -0.6805
 2379Sol     HW13524   2.403   0.043   6.453  0.5485 -0.5317 -2.4806
 2379Sol     HW13525   2.485  -0.032   6.555 -0.7170  1.0736 -0.2345
 2379Sol     MW13526   2.480   0.003   6.473  0.2669  0.0551  0.9869
 2380Sol     OW13527   2.371   2.292   5.840  0.2619  0.0853  0.3662
 2380Sol     HW13528   2.466   2.289   5.824  0.1865  0.5429 -0.1655
 2380Sol     HW13529   2.362   2.281   5.934  0.8774  0.7231  0.4990
 2380Sol     MW13530   2.379   2.290   5.847  0.5034 -0.3996 -0.7485
 2381Sol     OW13531   2.086   1.237   2.563 -0.6690 -0.0210  0.5192
 2381Sol     HW13532   2.040   1.320   2.565 -0.6768 -0.0143  0.1069
 2381Sol     HW13533   2.024   1.174   2.600 -0.7620  0.1099  0.5825
 2381Sol     MW13534   2.076   1.238   2.566 -0.2797 -0.4346  0.2191
 2382Sol     OW13535   3.164   3.090   6.278 -0.0157 -0.2576  0.9299
 2382Sol     HW13536   3.107   3.024   6.319 -0.2100  0.8392  2.4606
 2382Sol     HW13537   3.105   3.141   6.223 -0.0404 -0.7536  0.4947
 2382Sol     MW13538   3.153   3.088   6.277 -0.2489  0.3467 -0.2972
 2383Sol     OW13539   1.386   3.294   1.859 -0.3373  0.1656 -0.0214
 2383Sol     HW13540   1.451   3.323   1.796 -0.0377  0.1348  0.2709
 2383Sol     HW13541   1.310   3.270   1.806 -0.7207  1.8092 -0.2486
 2383Sol     MW13542   1.385   3.294   1.849 -0.0451  0.0994  0.3659
 2384Sol     OW13543   3.151   2.121   4.416 -0.1195  0.1222 -0.1042
 2384Sol     HW13544   3.194   2.040   4.444  0.6844  0.1706 -1.1657
 2384Sol     HW13545   3.153   2.177   4.494  2.8574  0.5726 -0.4411
 2384Sol     MW13546   3.155   2.118   4.425 -0.7533 -0.3431 -0.3091
 2385Sol     OW13547   0.115   3.149   3.836 -0.6362  0.7000 -0.6265
 2385Sol     HW13548   0.208   3.136   3.815 -0.7134  1.0151 -1.1762
 2385Sol     HW13549   0.070   3.139   3.752 -1.0395  1.1300 -0.4647
 2385Sol     MW13550   0.119   3.147   3.827 -0.0722 -1.2274 -0.4640
 2386Sol     OW13551   3.540   4.114   4.913  0.8506 -0.0109 -0.0453
 2386Sol     HW13552   3.507   4.026   4.893  1.0014 -0.3296  1.1082
 2386Sol     HW13553   3.594   4.136   4.837  0.7295 -0.8640 -0.3909
 2386Sol     MW13554   3.542   4.108   4.904  0.2185  0.6257  0.1407
 2387Sol     OW13555   2.842   0.802   1.901  0.9393  0.3601 -0.3888
 2387Sol     HW13556   2.815   0.710   1.902  2.0118  0.0371  0.4622
 2387Sol     HW13557   2.832   0.831   1.991  1.0430  0.9464 -0.5619
 2387Sol     MW13558   2.839   0.796   1.909  0.4499  0.1703  0.4047
 2388Sol     OW13559   3.868   2.569   4.148  0.3115  0.2934 -0.3823
 2388Sol     HW13560   3.911   2.491   4.113 -0.0069 -0.2129  0.3549
 2388Sol     HW13561   3.881   2.635   4.080  0.4020 -0.4534 -1.1012
 2388Sol     MW13562   3.873   2.568   4.138  0.4785  0.1820 -0.5633
 2389Sol     OW13563   1.561   3.507   4.667  0.3399  0.1345 -0.8732
 2389Sol     HW13564   1.476   3.541   4.696  0.0979  0.7106 -2.2005
 2389Sol     HW13565   1.541   3.423   4.627  0.8785 -1.4106  1.9761
 2389Sol     MW13566   1.551   3.503   4.666 -0.6696  0.2105  0.3794
 2390Sol     OW13567   0.222   0.357   5.473  0.1406  0.3411 -0.8491
 2390Sol     HW13568   0.146   0.340   5.530  1.9250  0.5072  1.6822
 2390Sol     HW13569   0.210   0.299   5.398 -1.8652 -0.5167  0.1082
 2390Sol     MW13570   0.214   0.351   5.472 -0.0711  0.3164 -0.6837
 2391Sol     OW13571   3.143   1.828   5.587 -0.2731 -0.2515 -0.0517
 2391Sol     HW13572   3.126   1.735   5.577  1.4656 -0.5084 -0.8030
 2391Sol     HW13573   3.156   1.860   5.498  1.0985  0.3159  0.3388
 2391Sol     MW13574   3.143   1.823   5.578  0.4670  0.2123  0.1192
 2392Sol     OW13575   3.580   1.645   2.514  0.0493  0.1520 -0.2660
 2392Sol     HW13576   3.658   1.591   2.531  0.3782  0.5582 -0.4728
 2392Sol     HW13577   3.613   1.735   2.516 -0.8704  0.4876  2.2543
 2392Sol     MW13578   3.590   1.648   2.516  0.0255 -0.4612  0.2217
 2393Sol     OW13579   0.626   3.967   6.038  0.3519 -0.2042 -0.0441
 2393Sol     HW13580   0.691   3.952   5.969 -1.0399 -0.8878 -1.2244
 2393Sol     HW13581   0.612   4.062   6.037  2.0095  0.0830  0.8762
 2393Sol     MW13582   0.631   3.974   6.032  0.7427 -0.2877 -0.4393
 2394Sol     OW13583   3.536   1.358   5.596 -0.3569 -0.2381 -0.0851
 2394Sol     HW13584   3.584   1.383   5.674  2.6115 -2.1424 -1.2295
 2394Sol     HW13585   3.547   1.263   5.590 -1.7395 -0.3171 -2.0214
 2394Sol     MW13586   3.541   1.352   5.602 -0.3376 -0.5322  0.0010
 2395Sol     OW13587   1.310   3.496   5.323 -0.0706 -0.1779  0.1403
 2395Sol     HW13588   1.308   3.589   5.298  0.3637  0.2120  1.5021
 2395Sol     HW13589   1.232   3.484   5.377 -0.0108 -0.5504  0.1404
 2395Sol     MW13590   1.303   3.503   5.326  0.6692  0.3442  0.8088
 2396Sol     OW13591   3.949   2.864   6.448 -0.5490  0.5727 -0.5334
 2396Sol     HW13592   4.030   2.915   6.457 -0.1877 -0.4598  2.5111
 2396Sol     HW13593   3.978   2.778   6.418 -0.2652 -0.3347  2.1786
 2396Sol     MW13594   3.959   2.861   6.446  0.4535  0.2805  0.2056
 2397Sol     OW13595   2.312   3.655   5.507 -0.0079  0.0069  0.1253
 2397Sol     HW13596   2.236   3.672   5.564  0.6280  1.1287  0.6509
 2397Sol     HW13597   2.302   3.717   5.435 -1.7365 -2.5596 -1.9444
 2397Sol     MW13598   2.304   3.662   5.506  0.1703 -0.0245  0.1800
 2398Sol     OW13599   3.839   0.128   5.532 -0.2414  0.0385  0.3377
 2398Sol     HW13600   3.891   0.122   5.612  1.1915 -0.7195 -0.6413
 2398Sol     HW13601   3.791   0.045   5.528  0.4406 -0.3335 -0.1072
 2398Sol     MW13602   3.839   0.120   5.539 -0.0840 -0.1990 -0.1913
 2399Sol     OW13603   0.737   1.187   4.797  0.3991  0.4565 -0.5515
 2399Sol     HW13604   0.707   1.098   4.781  0.8955  0.4212 -1.3028
 2399Sol     HW13605   0.689   1.215   4.875  0.1097 -0.4021 -0.4183
 2399Sol     MW13606   0.730   1.181   4.803  0.8818 -0.2844 -1.0746
 2400Sol     OW13607   0.326   2.580   4.461 -0.5460 -0.3371  0.2107
 2400Sol     HW13608   0.337   2.595   4.367  1.1516 -0.2410  0.4096
 2400Sol     HW13609   0.282   2.495   4.466 -3.1611  0.9122 -0.7175
 2400Sol     MW13610   0.323   2.574   4.453  0.1058  0.2229  0.0086
 2401Sol     OW13611   2.140   1.702   5.301  0.0680  0.4802  0.0223
 2401Sol     HW13612   2.101   1.620   5.270  1.4554 -0.9814  2.0498
 2401Sol     HW13613   2.172   1.745   5.221 -2.9851  0.3426 -1.3623
 2401Sol     MW13614   2.139   1.699   5.291  0.0648  0.0240  0.0400
 2402Sol     OW13615   0.069   2.050   3.343 -0.5483  0.6716  0.0200
 2402Sol     HW13616   0.001   1.987   3.320 -0.4549  0.6941 -0.3305
 2402Sol     HW13617   0.074   2.047   3.438 -0.9422  0.5677  0.0374
 2402Sol     MW13618   0.063   2.044   3.349  0.5459 -0.2760  0.4565
 2403Sol     OW13619   0.488   0.689   3.810  0.7908  0.5401 -0.5508
 2403Sol     HW13620   0.563   0.730   3.853  0.1329  2.3039 -1.0378
 2403Sol     HW13621   0.445   0.761   3.763 -3.2581  0.3406  2.5995
 2403Sol     MW13622   0.491   0.699   3.809  0.5531 -0.5928 -0.2959
 2404Sol     OW13623   3.515   0.964   1.606 -0.0763  0.0156  0.0823
 2404Sol     HW13624   3.551   1.018   1.535 -1.0486  1.2837  0.5367
 2404Sol     HW13625   3.439   0.920   1.567  0.4677 -0.7188 -0.1675
 2404Sol     MW13626   3.512   0.965   1.596  0.5495  0.0549  0.5250
 2405Sol     OW13627   1.761   1.266   4.286 -0.1456  0.7680  0.2850
 2405Sol     HW13628   1.687   1.226   4.239  1.2438 -1.4590 -0.1292
 2405Sol     HW13629   1.754   1.232   4.375  0.5076  0.3110  0.1703
 2405Sol     MW13630   1.754   1.259   4.289  0.3640 -0.4107  0.2719
 2406Sol     OW13631   2.804   3.568   2.567 -0.5296  0.2572  0.0715
 2406Sol     HW13632   2.835   3.509   2.499 -0.9146 -1.1083  1.0649
 2406Sol     HW13633   2.884   3.603   2.606 -0.3072  1.0137 -1.0371
 2406Sol     MW13634   2.814   3.566   2.564 -0.2038  0.3040  0.7681
 2407Sol     OW13635   2.351   0.150   5.259 -0.0088  0.1409 -0.3142
 2407Sol     HW13636   2.351   0.065   5.214 -0.6624  0.3809 -0.7781
 2407Sol     HW13637   2.372   0.129   5.350  0.6717 -0.4218 -0.5942
 2407Sol     MW13638   2.353   0.140   5.263  0.3794 -0.2860  0.1547
 2408Sol     OW13639   0.524   2.371   1.558  0.1863  0.1550  0.1402
 2408Sol     HW13640   0.492   2.311   1.625  1.6490 -0.9350 -0.1271
 2408Sol     HW13641   0.492   2.457   1.587  0.2731 -0.3769  1.9038
 2408Sol     MW13642   0.518   2.374   1.567 -0.3361  0.2411  0.2280
 2409Sol     OW13643   0.260   0.227   2.423 -0.2682  0.0363  0.2390
 2409Sol     HW13644   0.328   0.289   2.395  0.1154 -1.1635 -1.5828
 2409Sol     HW13645   0.291   0.142   2.393 -1.9495 -0.7141  0.5624
 2409Sol     MW13646   0.269   0.225   2.418  0.3515 -0.6151  0.8725
 2410Sol     OW13647   3.903   2.378   1.967 -0.1024  0.1866 -0.0901
 2410Sol     HW13648   3.826   2.419   1.927  0.0749  0.0948 -0.5338
 2410Sol     HW13649   3.976   2.433   1.940 -0.0319  0.3572  0.4547
 2410Sol     MW13650   3.903   2.386   1.961  0.0488  0.4169 -0.2272
 2411Sol     OW13651   0.695   0.431   4.610 -0.4042 -0.1985  0.7999
 2411Sol     HW13652   0.624   0.382   4.568 -0.3222 -0.7913  1.3474
 2411Sol     HW13653   0.739   0.367   4.666 -0.3768  0.5350  1.6209
 2411Sol     MW13654   0.693   0.421   4.611  0.6259  0.3845  0.0911
 2412Sol     OW13655   2.423   4.034   4.271  0.7661 -0.2544 -0.1013
 2412Sol     HW13656   2.460   4.120   4.251  2.1254 -0.8795 -0.3341
 2412Sol     HW13657   2.487   3.993   4.329  0.3476 -1.2912 -0.3632
 2412Sol     MW13658   2.432   4.038   4.274  0.6999 -0.4657 -0.4758
 2413Sol     OW13659   1.566   2.057   5.668 -0.2341 -0.2127 -0.2306
 2413Sol     HW13660   1.571   1.967   5.700  0.8522 -0.1370 -0.1712
 2413Sol     HW13661   1.654   2.092   5.681 -0.2143  0.3424 -1.7825
 2413Sol     MW13662   1.574   2.052   5.672  0.3116 -0.0840 -0.7195
 2414Sol     OW13663   3.218   0.163   1.986  0.2484 -0.3292 -0.1578
 2414Sol     HW13664   3.134   0.200   1.959  0.2963  0.0591  0.2285
 2414Sol     HW13665   3.205   0.137   2.077  0.6173 -0.0554 -0.0278
 2414Sol     MW13666   3.209   0.164   1.992 -0.8284  0.1284 -0.2006
 2415Sol     OW13667   1.961   4.046   2.403 -0.4862  0.3722 -0.0436
 2415Sol     HW13668   1.991   4.020   2.316  1.1300  1.4161  0.1835
 2415Sol     HW13669   1.952   3.963   2.451  2.7576  0.0362  0.0845
 2415Sol     MW13670   1.963   4.036   2.400  0.0605  0.0118 -0.2257
 2416Sol     OW13671   1.386   2.186   2.066 -0.4586  0.0804 -0.1661
 2416Sol     HW13672   1.376   2.273   2.027 -0.0908  0.2248  0.0512
 2416Sol     HW13673   1.457   2.197   2.130 -3.6417  0.8475  3.3821
 2416Sol     MW13674   1.392   2.195   2.068  0.6620 -0.5373  0.1601
 2417Sol     OW13675   1.742   0.769   5.753 -0.1143 -0.4194 -0.7827
 2417Sol     HW13676   1.797   0.733   5.823  0.5627 -1.0282 -1.6087
 2417Sol     HW13677   1.740   0.700   5.687  0.4197  0.6946 -1.9825
 2417Sol     MW13678   1.747   0.760   5.753  0.0774 -0.4256  0.1572
 2418Sol     OW13679   0.559   4.192   2.732  0.0019 -0.3332  0.2504
 2418Sol     HW13680   0.611   4.233   2.662 -0.0081 -0.6370  0.0628
 2418Sol     HW13681   0.478   4.164   2.688  0.4040 -1.3922  0.1715
 2418Sol     MW13682   0.556   4.193   2.722 -0.4375  0.2256 -0.1324
 2419Sol     OW13683   0.840   2.932   1.485  0.3220 -0.2439 -0.0467
 2419Sol     HW13684   0.801   2.853   1.448  0.4101 -1.1173  1.6728
 2419Sol     HW13685   0.776   3.001   1.466 -0.8424 -1.1630  0.4371
 2419Sol     MW13686   0.830   2.931   1.480  0.5190  0.6120  0.2870
 2420Sol     OW13687   1.884   0.679   5.373 -0.0315 -0.0352 -0.3596
 2420Sol     HW13688   1.913   0.610   5.314 -2.4402 -0.8050 -0.7032
 2420Sol     HW13689   1.965   0.719   5.406  1.3863 -2.6170 -0.6064
 2420Sol     MW13690   1.894   0.677   5.371  0.1016  0.5458 -0.4615
 2421Sol     OW13691   3.370   4.100   4.504 -0.0384  0.3341 -0.2627
 2421Sol     HW13692   3.298   4.160   4.484  0.1258  0.3260 -0.8879
 2421Sol     HW13693   3.329   4.028   4.553 -0.3222  0.7009  0.0394
 2421Sol     MW13694   3.360   4.099   4.507  0.2393 -0.3395 -0.0776
 2422Sol     OW13695   1.054   3.778   5.579 -0.2123  0.4800  0.5384
 2422Sol     HW13696   1.126   3.840   5.581  1.3942 -1.2764 -0.8455
 2422Sol     HW13697   0.976   3.832   5.566  0.8861  2.3549  1.5197
 2422Sol     MW13698   1.053   3.788   5.578 -0.1727 -0.5096  0.2900
 2423Sol     OW13699   0.564   2.519   4.572 -0.6979  0.0495  0.0913
 2423Sol     HW13700   0.479   2.519   4.529 -1.5565 -0.9425  1.7285
 2423Sol     HW13701   0.572   2.431   4.609  0.9059  0.2315  0.2126
 2423Sol     MW13702   0.557   2.511   4.572 -0.0397  0.1074 -0.2137
 2424Sol     OW13703   0.210   2.913   6.224 -0.2830  0.2675 -0.1571
 2424Sol     HW13704   0.234   2.938   6.135 -1.3562  0.3434 -0.4283
 2424Sol     HW13705   0.267   2.839   6.244  1.1441  1.3200 -0.2720
 2424Sol     MW13706   0.217   2.909   6.218 -0.4726 -0.3360 -0.1852
 2425Sol     OW13707   1.737   1.715   5.871  0.2586  0.3304 -0.2540
 2425Sol     HW13708   1.721   1.665   5.951 -1.1728  1.4271  0.1749
 2425Sol     HW13709   1.798   1.661   5.821  2.1131  0.1639  2.0889
 2425Sol     MW13710   1.741   1.706   5.874  0.4100 -0.7561  0.3293
 2426Sol     OW13711   0.386   3.045   1.972 -0.1151  0.2529 -0.2808
 2426Sol     HW13712   0.406   3.017   1.883  2.1590  2.4289 -0.5085
 2426Sol     HW13713   0.463   3.020   2.023 -1.3324 -0.8172  1.0668
 2426Sol     MW13714   0.395   3.040   1.969 -0.2342  0.0990  0.3372
 2427Sol     OW13715   0.697   2.250   5.456 -0.6167 -0.0684  0.1030
 2427Sol     HW13716   0.758   2.269   5.385 -0.0112  2.0832  1.1727
 2427Sol     HW13717   0.639   2.326   5.459 -2.4631 -1.4181  0.0762
 2427Sol     MW13718   0.697   2.258   5.450 -0.2080 -0.2233  0.7065
 2428Sol     OW13719   1.195   1.513   1.979  0.1505  0.2594 -0.0033
 2428Sol     HW13720   1.141   1.479   2.049  0.5943 -0.5843 -0.0645
 2428Sol     HW13721   1.152   1.484   1.898  0.1660  0.4103 -0.0666
 2428Sol     MW13722   1.187   1.508   1.978  0.2512  0.1012 -0.1470
 2429Sol     OW13723   0.453   3.484   4.330  0.3435 -0.2605  0.0898
 2429Sol     HW13724   0.488   3.573   4.325  0.8460 -0.5018 -0.7653
 2429Sol     HW13725   0.363   3.492   4.297  0.8496 -0.3075 -1.3541
 2429Sol     MW13726   0.448   3.493   4.326 -0.0271 -0.0454 -0.5066
 2430Sol     OW13727   3.188   2.969   5.120 -0.0846 -0.5129 -0.8395
 2430Sol     HW13728   3.184   2.887   5.071 -0.4712 -0.4126 -0.9744
 2430Sol     HW13729   3.274   2.968   5.161 -0.8177 -1.8428  0.6729
 2430Sol     MW13730   3.195   2.962   5.119 -0.2007 -0.2242 -0.1833
 2431Sol     OW13731   0.782   2.502   2.159  0.5591 -0.6941  0.5589
 2431Sol     HW13732   0.741   2.432   2.108 -0.2635  0.3198 -0.1836
 2431Sol     HW13733   0.860   2.461   2.197  0.8274 -1.6412 -0.9753
 2431Sol     MW13734   0.785   2.492   2.158 -0.0002 -0.3214  0.3438
 2432Sol     OW13735   2.226   3.328   2.254  0.5348 -0.3908 -0.2966
 2432Sol     HW13736   2.215   3.409   2.306 -4.4779 -0.6387 -0.7194
 2432Sol     HW13737   2.244   3.359   2.166 -1.8309  0.3982 -0.5574
 2432Sol     MW13738   2.226   3.338   2.251  0.2784  0.1613  0.7518
 2433Sol     OW13739   0.465   2.896   3.634  0.8259  0.6430  0.1011
 2433Sol     HW13740   0.449   2.879   3.541  0.3087  1.3955  0.0475
 2433Sol     HW13741   0.438   2.815   3.678 -0.4617  0.8652 -0.2594
 2433Sol     MW13742   0.461   2.887   3.630 -0.5881 -0.0808 -0.4229
 2434Sol     OW13743   0.570   1.852   3.574  0.3525  0.0950 -0.1977
 2434Sol     HW13744   0.537   1.861   3.663  1.2670 -1.6490  0.3531
 2434Sol     HW13745   0.665   1.857   3.583  0.5777 -2.2936 -0.7195
 2434Sol     MW13746   0.575   1.853   3.583 -0.3672 -0.6348  0.5646
 2435Sol     OW13747   2.782   1.581   5.676  0.0337  0.3583  0.1083
 2435Sol     HW13748   2.805   1.644   5.744  2.0239  0.6482 -0.7832
 2435Sol     HW13749   2.859   1.578   5.620 -0.6421 -1.6976 -0.7580
 2435Sol     MW13750   2.791   1.586   5.677 -0.0681  0.2332  0.3093
 2436Sol     OW13751   2.507   0.417   2.451 -0.1777 -0.8064  0.0522
 2436Sol     HW13752   2.527   0.325   2.469  1.2631 -0.4650  0.2508
 2436Sol     HW13753   2.412   0.419   2.443 -0.1394 -2.5567 -1.2661
 2436Sol     MW13754   2.500   0.409   2.452  0.1124 -0.6248 -0.2552
 2437Sol     OW13755   2.539   2.315   2.091  0.1070 -0.0699  0.2188
 2437Sol     HW13756   2.574   2.278   2.010 -2.3452  0.7340 -1.2254
 2437Sol     HW13757   2.480   2.247   2.125  0.1709  0.1077  0.6889
 2437Sol     MW13758   2.537   2.305   2.087  0.3724  0.5967 -0.6150
 2438Sol     OW13759   1.934   2.546   5.990  0.2006 -0.3333  0.2735
 2438Sol     HW13760   1.972   2.608   5.928 -3.3028 -0.4832 -2.2107
 2438Sol     HW13761   1.906   2.600   6.064  1.3178  0.3602  0.1951
 2438Sol     MW13762   1.935   2.556   5.992 -0.3794  0.1398  0.0722
 2439Sol     OW13763   2.864   4.108   1.897  0.5561  1.1057 -0.2232
 2439Sol     HW13764   2.957   4.084   1.897  0.3758  0.3266 -2.1282
 2439Sol     HW13765   2.822   4.040   1.844 -0.9857  1.9008 -0.0445
 2439Sol     MW13766   2.868   4.100   1.893 -0.4670 -0.5612 -0.1499
 2440Sol     OW13767   2.132   3.126   2.414 -0.5483  0.7744  0.0868
 2440Sol     HW13768   2.167   3.210   2.385 -0.4276  0.7893  0.2725
 2440Sol     HW13769   2.042   3.125   2.383 -1.1438  1.7903  1.7002
 2440Sol     MW13770   2.127   3.134   2.409 -0.2595  0.3217  0.6890
 2441Sol     OW13771   0.942   1.080   4.970 -0.0233 -0.3268  0.4868
 2441Sol     HW13772   0.989   1.162   4.989  2.1896 -0.8735 -2.1931
 2441Sol     HW13773   0.873   1.107   4.910  0.1560 -0.2673  0.3026
 2441Sol     MW13774   0.940   1.090   4.966  0.1225  0.0208  0.3583
 2442Sol     OW13775   0.994   1.958   5.053  0.0366  0.0451 -0.0443
 2442Sol     HW13776   1.084   1.989   5.049  0.1910 -0.2193  1.2377
 2442Sol     HW13777   0.983   1.905   4.973  0.6417  1.0386 -0.7900
 2442Sol     MW13778   1.001   1.956   5.045 -0.0176  0.1637  0.2750
 2443Sol     OW13779   1.382   0.200   5.932  0.5546  0.2874  0.7201
 2443Sol     HW13780   1.413   0.121   5.887 -3.0927 -1.6767  1.4293
 2443Sol     HW13781   1.397   0.181   6.025 -0.5751  0.2784  0.9093
 2443Sol     MW13782   1.386   0.191   5.936  0.5539  0.1422 -0.6840
 2444Sol     OW13783   2.007   0.851   3.963 -0.2238 -0.1471 -0.2771
 2444Sol     HW13784   1.929   0.897   3.996  0.1093  0.6017 -0.5262
 2444Sol     HW13785   2.031   0.900   3.884  0.1995 -0.6902 -0.4790
 2444Sol     MW13786   2.002   0.860   3.959  0.9157  0.3712 -0.2697
 2445Sol     OW13787   0.419   4.101   6.249  0.0996  0.1103 -0.2595
 2445Sol     HW13788   0.387   4.173   6.302 -0.3217  0.8559 -1.5147
 2445Sol     HW13789   0.482   4.141   6.189  2.5210 -1.1393  1.3740
 2445Sol     MW13790   0.422   4.111   6.249 -0.2526  0.4038 -0.2210
 2446Sol     OW13791   3.475   4.174   5.855 -0.6222  0.1313  0.4911
 2446Sol     HW13792   3.437   4.088   5.873 -1.5327  0.7942  1.8208
 2446Sol     HW13793   3.401   4.234   5.858 -0.1256  0.8503 -1.3499
 2446Sol     MW13794   3.465   4.171   5.857  0.1992 -0.0439 -0.3832
 2447Sol     OW13795   2.981   0.407   5.841  0.3424 -0.6948  0.7228
 2447Sol     HW13796   3.019   0.353   5.911  0.1594 -0.2674  1.1570
 2447Sol     HW13797   3.057   0.452   5.802  0.3328 -0.1557  1.3199
 2447Sol     MW13798   2.992   0.406   5.844 -0.2818 -0.4474 -0.2014
 2448Sol     OW13799   1.619   3.629   6.280  0.4945  0.6078 -0.3186
 2448Sol     HW13800   1.684   3.593   6.219 -0.9469  2.1253 -2.8186
 2448Sol     HW13801   1.619   3.568   6.354  2.9434 -0.7684 -1.4018
 2448Sol     MW13802   1.625   3.620   6.282  0.0652  0.1380  0.2113
 2449Sol     OW13803   2.358   4.090   2.996  0.2780  0.2730  0.1637
 2449Sol     HW13804   2.370   4.183   3.013 -1.0188  0.1819  1.6957
 2449Sol     HW13805   2.438   4.049   3.028  1.2686  0.9391 -1.4004
 2449Sol     MW13806   2.366   4.095   3.000  0.6900  0.4971 -0.5126
 2450Sol     OW13807   0.891   3.678   2.741  0.4964 -0.3070  0.3960
 2450Sol     HW13808   0.883   3.633   2.825 -2.0554 -0.1460  0.2669
 2450Sol     HW13809   0.904   3.607   2.677 -2.2192 -0.8003  0.3562
 2450Sol     MW13810   0.892   3.667   2.743 -0.2707 -0.4826  0.7336
 2451Sol     OW13811   1.744   0.833   5.193  0.2371  0.4191 -0.1187
 2451Sol     HW13812   1.714   0.907   5.247  1.6712  0.9248  0.0046
 2451Sol     HW13813   1.804   0.785   5.250  0.4765  0.0184 -0.7071
 2451Sol     MW13814   1.746   0.835   5.203 -0.0781 -0.4096  0.1180
 2452Sol     OW13815   3.127   3.253   4.257  0.1437  0.0265 -0.3399
 2452Sol     HW13816   3.054   3.200   4.225 -0.2154  0.0418  0.4283
 2452Sol     HW13817   3.195   3.191   4.281  0.3648  0.0085 -0.9965
 2452Sol     MW13818   3.126   3.243   4.256 -0.5817  0.2309  0.7603
 2453Sol     OW13819   2.586   0.569   3.085 -0.1296 -0.4849 -0.2363
 2453Sol     HW13820   2.634   0.648   3.060  0.2772 -0.3969  0.8193
 2453Sol     HW13821   2.512   0.601   3.137  0.3344 -0.8369  0.6456
 2453Sol     MW13822   2.584   0.579   3.087 -0.3593  0.5536 -0.4185
 2454Sol     OW13823   1.727   0.482   4.463 -0.2212 -0.0833 -0.6161
 2454Sol     HW13824   1.652   0.504   4.517  1.0104  0.9593  0.6954
 2454Sol     HW13825   1.720   0.541   4.388  0.0609  0.9858  0.1930
 2454Sol     MW13826   1.720   0.489   4.461 -0.4846 -0.1918  0.1462
 2455Sol     OW13827   3.657   0.439   6.880  0.2990  0.4118  0.2293
 2455Sol     HW13828   3.577   0.471   6.837  1.4577 -0.9415 -3.1290
 2455Sol     HW13829   3.649   0.344   6.878  1.3497  0.3014  1.1746
 2455Sol     MW13830   3.649   0.434   6.876 -0.2785 -0.0266 -0.2055
 2456Sol     OW13831   3.603   2.181   2.472 -0.1470  0.3079 -0.3131
 2456Sol     HW13832   3.661   2.105   2.466 -0.0479  0.3681 -0.1039
 2456Sol     HW13833   3.567   2.191   2.384  0.7291  0.7244 -0.6203
 2456Sol     MW13834   3.605   2.175   2.464  0.3978 -0.4232  0.0917
 2457Sol     OW13835   0.787   0.362   3.169 -0.1043  0.2828 -0.4110
 2457Sol     HW13836   0.875   0.326   3.154 -0.9025 -1.3965 -1.3525
 2457Sol     HW13837   0.792   0.404   3.254  0.9644 -1.9707  0.6918
 2457Sol     MW13838   0.796   0.362   3.175  0.0355  0.4456  0.0554
 2458Sol     OW13839   1.123   2.096   2.853 -0.1573  1.0871  0.0869
 2458Sol     HW13840   1.091   2.006   2.864  0.7227  0.8865  1.1711
 2458Sol     HW13841   1.218   2.086   2.839 -0.0143  1.8482  0.4820
 2458Sol     MW13842   1.129   2.087   2.853 -0.0583 -0.5934  0.4423
 2459Sol     OW13843   0.307   3.293   2.237  0.4609 -0.2589 -0.5824
 2459Sol     HW13844   0.313   3.284   2.332 -0.8166 -1.2171 -0.5707
 2459Sol     HW13845   0.222   3.254   2.215 -0.2190  1.8788 -1.8742
 2459Sol     MW13846   0.300   3.289   2.243 -0.3027  0.3264  0.1897
 2460Sol     OW13847   2.326   1.203   2.664 -0.4352 -0.7605 -0.4214
 2460Sol     HW13848   2.296   1.227   2.752 -0.0884 -0.2615 -0.4413
 2460Sol     HW13849   2.245   1.189   2.615 -0.6461  0.4711 -0.4400
 2460Sol     MW13850   2.316   1.204   2.667  0.0962  0.0852  0.7232
 2461Sol     OW13851   2.690   2.439   2.286  0.2501 -0.2809 -0.5395
 2461Sol     HW13852   2.655   2.386   2.214  0.4799  0.3229 -1.0981
 2461Sol     HW13853   2.629   2.425   2.358 -1.1662  0.8138 -1.5156
 2461Sol     MW13854   2.681   2.433   2.286 -0.2170 -0.1300  0.3032
 2462Sol     OW13855   0.229   1.989   6.432  0.3448 -0.0852  0.0596
 2462Sol     HW13856   0.258   1.905   6.398  0.0974 -0.2373  0.2178
 2462Sol     HW13857   0.158   2.016   6.374  0.8699  0.3340 -0.3864
 2462Sol     MW13858   0.225   1.984   6.424 -0.3214  0.1269 -0.4629
 2463Sol     OW13859   2.536   1.288   4.522  0.2073 -0.2433  0.1571
 2463Sol     HW13860   2.512   1.283   4.430  0.6792 -1.8108  0.1132
 2463Sol     HW13861   2.614   1.345   4.523 -0.6916  1.0250 -0.2160
 2463Sol     MW13862   2.541   1.293   4.514  0.0973  0.0767  0.2179
 2464Sol     OW13863   2.483   1.779   1.782  0.4895  0.3885  0.1103
 2464Sol     HW13864   2.460   1.846   1.718  0.5226  0.6251  0.3446
 2464Sol     HW13865   2.417   1.711   1.770  0.6267  0.3281 -0.3289
 2464Sol     MW13866   2.475   1.779   1.775 -0.0640  0.1227 -0.1321
 2465Sol     OW13867   2.767   1.326   1.940  0.4041  0.3616 -0.2406
 2465Sol     HW13868   2.745   1.411   1.901  1.5036  0.2787 -1.0573
 2465Sol     HW13869   2.720   1.262   1.887  0.4818  0.3766 -0.3272
 2465Sol     MW13870   2.761   1.328   1.932  1.0018  0.0932 -0.1839
 2466Sol     OW13871   3.342   2.018   1.532  0.5344  0.4263 -0.2444
 2466Sol     HW13872   3.369   1.929   1.511  0.0898  0.5916 -1.5644
 2466Sol     HW13873   3.417   2.072   1.505  0.8274  0.4437  0.6085
 2466Sol     MW13874   3.351   2.015   1.528  0.8546 -0.3152  0.1574
 2467Sol     OW13875   2.752   2.698   2.755  0.6209 -0.0509  0.1589
 2467Sol     HW13876   2.734   2.611   2.719 -0.7826  0.5787 -0.7402
 2467Sol     HW13877   2.717   2.695   2.844 -1.7495  0.3337 -0.7031
 2467Sol     MW13878   2.747   2.690   2.760 -0.3197  0.2243  0.0184
 2468Sol     OW13879   3.304   3.539   4.838  0.0641  0.5235 -0.1069
 2468Sol     HW13880   3.353   3.479   4.894 -0.3313 -1.5848 -1.9383
 2468Sol     HW13881   3.217   3.544   4.878  0.3608  0.5431  0.5338
 2468Sol     MW13882   3.300   3.534   4.846 -0.4743  0.2813 -0.1809
 2469Sol     OW13883   3.140   1.859   6.393  0.0521 -0.0401 -0.4248
 2469Sol     HW13884   3.212   1.824   6.340 -0.5965 -1.8678 -0.1624
 2469Sol     HW13885   3.061   1.837   6.343 -0.6815 -3.1484  1.9242
 2469Sol     MW13886   3.139   1.854   6.383  0.5294 -0.6840 -0.1443
 2470Sol     OW13887   3.888   1.234   2.916  0.3639 -0.1584 -0.7166
 2470Sol     HW13888   3.841   1.152   2.902  0.3171 -0.1501 -0.6080
 2470Sol     HW13889   3.972   1.221   2.873  1.4267 -1.2559  1.5841
 2470Sol     MW13890   3.891   1.226   2.911  0.2949 -0.3143  0.0363
 2471Sol     OW13891   2.412   2.958   4.779  0.1897  0.5003  0.2614
 2471Sol     HW13892   2.353   2.993   4.712  1.2222  0.0762 -0.8893
 2471Sol     HW13893   2.467   2.896   4.732  1.2223  0.5148  1.4315
 2471Sol     MW13894   2.411   2.955   4.769 -0.0440  0.0143  0.2509
 2472Sol     OW13895   1.901   0.445   2.345 -0.3060 -0.3840 -0.4987
 2472Sol     HW13896   1.930   0.436   2.254 -2.8751  1.2028 -1.4999
 2472Sol     HW13897   1.917   0.537   2.366  0.8706 -0.8862  0.8986
 2472Sol     MW13898   1.905   0.452   2.339 -0.1422 -0.4377 -0.2442
 2473Sol     OW13899   0.558   1.533   4.568  0.4887 -0.6138  0.2978
 2473Sol     HW13900   0.503   1.595   4.520  1.5158  0.4352  0.4671
 2473Sol     HW13901   0.595   1.584   4.640  1.8012 -1.2737  0.1071
 2473Sol     MW13902   0.556   1.543   4.570 -0.8087  1.0181 -0.2779
 2474Sol     OW13903   3.148   2.671   3.570  0.0930  0.1295 -0.2491
 2474Sol     HW13904   3.061   2.641   3.543 -1.1962  2.2863  1.2990
 2474Sol     HW13905   3.208   2.634   3.505 -1.8878 -2.0193 -0.9098
 2474Sol     MW13906   3.146   2.665   3.562  0.7068 -0.7934  0.1914
 2475Sol     OW13907   0.094   1.892   4.245  0.2337  0.0745  0.6478
 2475Sol     HW13908   0.002   1.894   4.271  0.2965  0.0377  0.8700
 2475Sol     HW13909   0.116   1.799   4.242  0.1025  0.0584  0.0256
 2475Sol     MW13910   0.087   1.884   4.247 -0.8083 -0.1676 -0.0239
 2476Sol     OW13911   2.572   1.605   4.190 -0.3039  0.0174 -0.1340
 2476Sol     HW13912   2.490   1.652   4.197 -0.7779 -0.9300  0.8410
 2476Sol     HW13913   2.635   1.659   4.237 -0.5774  0.2967 -0.0925
 2476Sol     MW13914   2.571   1.614   4.195  0.2961 -0.6527 -0.2299
 2477Sol     OW13915   0.082   0.473   2.578  0.2379 -0.5932 -0.0384
 2477Sol     HW13916   0.158   0.422   2.606  0.9483 -0.6093 -1.9914
 2477Sol     HW13917   0.029   0.481   2.658  1.9111 -1.2048  1.1666
 2477Sol     MW13918   0.084   0.470   2.588  0.6897 -0.2902 -0.1897
 2478Sol     OW13919   1.215   3.728   2.440  0.0190 -0.2719  0.0213
 2478Sol     HW13920   1.264   3.770   2.368  1.1609 -0.5513  0.6255
 2478Sol     HW13921   1.209   3.636   2.414  1.0453 -0.5072  0.6174
 2478Sol     MW13922   1.219   3.724   2.431 -0.1577 -0.0032 -0.6690
 2479Sol     OW13923   1.457   2.252   6.398 -0.2152  0.1431  0.0433
 2479Sol     HW13924   1.499   2.333   6.426  1.3444 -1.1243  1.4734
 2479Sol     HW13925   1.527   2.187   6.401 -1.1527 -1.0344 -2.2419
 2479Sol     MW13926   1.467   2.254   6.401  0.6477  0.0098  0.0271
 2480Sol     OW13927   1.627   0.892   1.793  0.0065  0.1477 -0.1937
 2480Sol     HW13928   1.652   0.882   1.885  0.4804  0.0118 -0.3364
 2480Sol     HW13929   1.535   0.863   1.789  1.3463 -4.4648 -0.6227
 2480Sol     MW13930   1.621   0.888   1.801  0.0401 -0.4322 -0.3275
 2481Sol     OW13931   3.710   1.807   6.335  0.5846 -0.1114  0.2707
 2481Sol     HW13932   3.704   1.792   6.429 -1.6238  0.3093  0.2231
 2481Sol     HW13933   3.694   1.901   6.324 -0.2302 -0.3371 -0.5929
 2481Sol     MW13934   3.708   1.814   6.342  0.1454 -0.0821 -0.3230
 2482Sol     OW13935   0.612   2.669   2.897 -0.2259 -0.5895 -0.0322
 2482Sol     HW13936   0.653   2.583   2.902  0.0015 -0.5370 -0.8905
 2482Sol     HW13937   0.522   2.655   2.924 -0.9605 -1.6486 -2.8753
 2482Sol     MW13938   0.608   2.660   2.900 -0.4410 -0.1618  0.3313
 2483Sol     OW13939   2.385   1.731   3.823  0.6888  0.1282 -0.2645
 2483Sol     HW13940   2.434   1.650   3.815  1.7908  0.7210  0.4013
 2483Sol     HW13941   2.451   1.799   3.836 -0.3770  0.7184  2.3642
 2483Sol     MW13942   2.395   1.730   3.823  0.3149 -0.1488 -0.1116
 2484Sol     OW13943   0.089   1.708   1.571 -0.1035  0.2111  0.3289
 2484Sol     HW13944   0.145   1.784   1.586  1.1355 -0.2299 -1.7993
 2484Sol     HW13945   0.013   1.743   1.525 -0.9927  0.6029  2.0467
 2484Sol     MW13946   0.087   1.718   1.568  0.5937  1.0498 -0.9528
 2485Sol     OW13947   0.814   0.104   6.166  0.3964  0.0166 -0.4828
 2485Sol     HW13948   0.903   0.139   6.169 -0.0875  1.2540 -0.3916
 2485Sol     HW13949   0.772   0.137   6.246  0.6923 -2.8947  0.9628
 2485Sol     MW13950   0.818   0.110   6.173  0.8605  0.5178 -0.2683
 2486Sol     OW13951   0.104   2.181   1.194  0.5791 -0.3954 -0.2937
 2486Sol     HW13952   0.182   2.180   1.250  1.6382  4.4180 -1.5064
 2486Sol     HW13953   0.138   2.183   1.105 -0.9910 -0.6533 -0.9144
 2486Sol     MW13954   0.114   2.181   1.191 -0.0641  0.6977 -0.5717
 2487Sol     OW13955   2.597   3.276   5.019  0.2356  0.0997  0.1078
 2487Sol     HW13956   2.506   3.248   5.013 -0.6213  2.5686  0.9522
 2487Sol     HW13957   2.632   3.229   5.095 -0.1221 -1.3855 -0.6403
 2487Sol     MW13958   2.592   3.269   5.026 -0.2991  0.2140  0.3144
 2488Sol     OW13959   0.021   0.238   2.905 -0.4027  0.5176 -0.0718
 2488Sol     HW13960   0.102   0.215   2.861 -0.4208 -0.8017  0.5561
 2488Sol     HW13961  -0.046   0.184   2.862 -0.0849 -2.5001  2.9827
 2488Sol     MW13962   0.022   0.231   2.898 -0.3800 -0.0224  1.0492
 2489Sol     OW13963   2.084   2.705   5.789  0.2905  0.2193 -0.5425
 2489Sol     HW13964   2.177   2.684   5.800  0.9033  1.1480 -3.3988
 2489Sol     HW13965   2.071   2.785   5.839  0.4369 -1.1659  1.7778
 2489Sol     MW13966   2.091   2.710   5.795  1.0624 -0.4493 -0.6439
 2490Sol     OW13967   1.155   2.734   1.597 -0.5148  0.6772  0.5546
 2490Sol     HW13968   1.168   2.681   1.519 -1.6715 -0.0672  0.8690
 2490Sol     HW13969   1.209   2.692   1.664  3.4517  3.4013 -0.7158
 2490Sol     MW13970   1.161   2.726   1.596 -0.0081  0.7122  0.9115
 2491Sol     OW13971   0.401   3.066   4.222  0.2044  0.1644  0.5668
 2491Sol     HW13972   0.387   3.074   4.316  1.4295 -0.4479  0.8127
 2491Sol     HW13973   0.445   3.148   4.197  1.2230 -0.2930  0.8091
 2491Sol     MW13974   0.404   3.074   4.228  0.7630  0.1157 -0.1234
 2492Sol     OW13975   1.095   2.108   2.532 -0.4183  0.0095  0.1475
 2492Sol     HW13976   1.053   2.089   2.616 -0.3214 -2.1486 -0.2775
 2492Sol     HW13977   1.167   2.045   2.526 -1.8164 -1.4043 -2.5855
 2492Sol     MW13978   1.098   2.101   2.539 -0.1076 -0.6705 -0.4307
 2493Sol     OW13979   3.681   1.383   6.222 -0.0000 -0.0075 -0.1254
 2493Sol     HW13980   3.670   1.289   6.237  0.3013  0.2000  1.4639
 2493Sol     HW13981   3.738   1.412   6.294 -1.0829  1.6201  0.0885
 2493Sol     MW13982   3.685   1.377   6.230  0.3231 -0.5584 -0.3168
 2494Sol     OW13983   3.382   2.226   4.266  0.5295  0.2017 -0.1941
 2494Sol     HW13984   3.433   2.169   4.325  0.7737 -1.2153 -1.7184
 2494Sol     HW13985   3.292   2.194   4.274  0.8939 -1.4809 -2.1855
 2494Sol     MW13986   3.379   2.218   4.272  0.1609  0.4125 -0.9981
 2495Sol     OW13987   1.008   3.379   5.654  0.4649 -0.1221 -0.5927
 2495Sol     HW13988   1.026   3.358   5.562  0.8221  0.1265 -0.5848
 2495Sol     HW13989   1.088   3.424   5.684  1.3232 -2.3384  0.5292
 2495Sol     MW13990   1.017   3.381   5.648  0.2974  1.0038  0.1530
 2496Sol     OW13991   1.274   1.716   4.434 -0.1373  0.1951 -0.1434
 2496Sol     HW13992   1.256   1.767   4.514  1.5673  0.5986 -0.0017
 2496Sol     HW13993   1.196   1.728   4.380 -0.5964  1.3266  0.7460
 2496Sol     MW13994   1.265   1.722   4.437  0.2005  0.2251 -0.0929
 2497Sol     OW13995   2.152   1.831   6.754 -0.1964  0.0618  0.3809
 2497Sol     HW13996   2.191   1.787   6.829  0.5842 -1.8102 -1.0711
 2497Sol     HW13997   2.081   1.772   6.726 -0.1820  0.5032 -0.6179
 2497Sol     MW13998   2.149   1.822   6.758  1.2812 -0.3733  0.1534
 2498Sol     OW13999   2.692   2.282   1.589 -0.0190 -0.4919  0.1640
 2498Sol     HW14000   2.679   2.248   1.678  0.5165  0.9166  0.7920
 2498Sol     HW14001   2.781   2.255   1.567  0.4098  0.4811  0.6672
 2498Sol     MW14002   2.699   2.276   1.595 -0.0945  0.0019  0.4296
 2499Sol     OW14003   3.170   2.547   2.365  0.0988  0.0204 -0.2710
 2499Sol     HW14004   3.103   2.491   2.326  0.9147 -1.3304  0.2622
 2499Sol     HW14005   3.252   2.500   2.351  0.6708  0.6006  1.0655
 2499Sol     MW14006   3.171   2.538   2.360 -0.4084 -0.5607 -0.1281
 2500Sol     OW14007   3.891   3.588   2.588 -0.4326  0.3494 -0.3608
 2500Sol     HW14008   3.876   3.681   2.607  0.1255  0.5245 -0.7399
 2500Sol     HW14009   3.982   3.585   2.558  0.0984 -0.5925  1.3182
 2500Sol     MW14010   3.898   3.596   2.587 -0.6697  0.4886  0.5259
 2501Sol     OW14011   2.592   0.299   1.714  0.1513 -0.6997 -0.0791
 2501Sol     HW14012   2.674   0.249   1.716  0.9126  0.5169 -0.4380
 2501Sol     HW14013   2.575   0.319   1.806  1.5153  1.0332 -0.1709
 2501Sol     MW14014   2.598   0.296   1.723  0.3905  0.3027 -0.5403
 2502Sol     OW14015   2.967   2.394   2.274 -0.0243 -0.1231  0.0654
 2502Sol     HW14016   2.876   2.398   2.303 -0.0661  0.9794 -0.2190
 2502Sol     HW14017   2.998   2.310   2.307 -1.2109 -0.6184 -0.0286
 2502Sol     MW14018   2.961   2.387   2.279 -0.2606 -0.0531 -0.4768
 2503Sol     OW14019   2.819   2.887   5.427  0.8438  0.2414 -0.6510
 2503Sol     HW14020   2.741   2.869   5.374  1.2362 -1.8743 -0.5874
 2503Sol     HW14021   2.878   2.934   5.368  0.5653 -0.5165 -1.5561
 2503Sol     MW14022   2.818   2.889   5.417  0.5208  0.7851  0.1807
 2504Sol     OW14023   0.547   1.737   2.049  0.6012 -0.4736  0.1100
 2504Sol     HW14024   0.530   1.743   1.955 -1.0420  0.1164  0.4442
 2504Sol     HW14025   0.509   1.653   2.075  0.4802 -0.3399  0.3667
 2504Sol     MW14026   0.542   1.730   2.043  0.5410  0.2078  0.7360
 2505Sol     OW14027   2.836   3.151   1.687  0.3342 -0.3343  0.2567
 2505Sol     HW14028   2.750   3.183   1.659 -0.8340 -1.7974  1.9916
 2505Sol     HW14029   2.877   3.120   1.606 -1.2911 -0.7559 -0.4391
 2505Sol     MW14030   2.832   3.151   1.677 -0.4838 -0.3415 -0.0939
 2506Sol     OW14031   2.831   1.135   1.605  0.1894 -0.0771  0.0361
 2506Sol     HW14032   2.779   1.057   1.622 -0.0143 -0.2543 -1.3415
 2506Sol     HW14033   2.901   1.132   1.670  0.3824 -1.5764 -0.2366
 2506Sol     MW14034   2.832   1.128   1.612 -0.0620  0.8326 -0.1253
 2507Sol     OW14035   1.593   0.873   4.152 -0.2311  0.2699 -0.3442
 2507Sol     HW14036   1.518   0.813   4.150 -0.2369  0.2429  0.5298
 2507Sol     HW14037   1.557   0.955   4.187  0.0386  0.4024 -0.3759
 2507Sol     MW14038   1.583   0.875   4.155  0.9202  0.2000 -0.0181
 2508Sol     OW14039   2.936   1.246   2.690 -0.4781  0.1511  0.0172
 2508Sol     HW14040   2.999   1.213   2.625 -0.6270 -1.0882  0.4855
 2508Sol     HW14041   2.990   1.294   2.753 -0.0918 -0.2346 -0.0150
 2508Sol     MW14042   2.947   1.247   2.690  0.4104 -0.3066  1.2902
 2509Sol     OW14043   3.313   0.874   3.128 -0.3753 -1.0271  0.7048
 2509Sol     HW14044   3.303   0.943   3.194  0.0954  0.4864 -0.7645
 2509Sol     HW14045   3.372   0.810   3.168  1.4169  0.7892  1.0665
 2509Sol     MW14046   3.317   0.875   3.137  0.3451  0.1682  0.4633
 2510Sol     OW14047   3.058   1.945   3.757 -0.4821 -0.1947 -0.0197
 2510Sol     HW14048   3.112   1.918   3.683  1.7634  1.5177  0.9475
 2510Sol     HW14049   2.969   1.945   3.722  0.6408  1.6500 -3.0459
 2510Sol     MW14050   3.055   1.942   3.747 -0.1398 -0.3153  0.1483
 2511Sol     OW14051   3.997   0.438   3.780 -0.5680  0.3530 -0.8844
 2511Sol     HW14052   4.021   0.359   3.731  1.0462  0.8298 -0.8931
 2511Sol     HW14053   3.995   0.409   3.871  0.3005  0.3661 -0.8598
 2511Sol     MW14054   3.999   0.428   3.784 -0.7699  0.2827 -0.1772
 2512Sol     OW14055   4.047   1.107   2.537  0.0104  0.3894  0.1564
 2512Sol     HW14056   4.084   1.117   2.624  0.0791  2.3404 -0.0767
 2512Sol     HW14057   3.966   1.058   2.551 -0.0387  0.8004  1.3297
 2512Sol     MW14058   4.043   1.104   2.546  0.5860 -0.2659 -0.4125
 2513Sol     OW14059   1.172   0.978   4.832 -0.1100 -0.2585  0.3962
 2513Sol     HW14060   1.089   0.980   4.881 -0.0043 -2.0110  0.6697
 2513Sol     HW14061   1.158   1.038   4.759 -0.6374  1.5927  1.9874
 2513Sol     MW14062   1.163   0.983   4.830 -0.4276 -0.3969 -0.1469
 2514Sol     OW14063   0.461   1.141   6.269  0.8560  0.3560 -0.3958
 2514Sol     HW14064   0.375   1.165   6.302  0.0764 -1.9838 -0.6117
 2514Sol     HW14065   0.460   1.169   6.178  1.2429  2.5383  0.2614
 2514Sol     MW14066   0.453   1.145   6.264  0.3598 -0.2173  0.0580
 2515Sol     OW14067   0.550   4.052   5.745 -0.2427  0.0642 -0.0313
 2515Sol     HW14068   0.547   4.115   5.673  0.1472  1.1207  0.8677
 2515Sol     HW14069   0.626   4.078   5.797 -1.4619  0.3269  1.6624
 2515Sol     MW14070   0.556   4.060   5.743  0.6779  0.2175  0.5574
 2516Sol     OW14071   0.900   1.385   4.022 -0.3103 -0.3538  0.4611
 2516Sol     HW14072   0.971   1.413   4.079 -0.1749 -0.3472  0.2901
 2516Sol     HW14073   0.878   1.297   4.053 -0.8070 -0.0172  1.0622
 2516Sol     MW14074   0.904   1.379   4.030 -0.1903 -0.0862  0.2446
 2517Sol     OW14075   2.030   1.209   5.094  0.0315  0.4954 -0.2687
 2517Sol     HW14076   2.054   1.300   5.110 -1.4387  0.7407  0.6712
 2517Sol     HW14077   2.090   1.158   5.148 -1.9382  1.1281  2.6299
 2517Sol     MW14078   2.037   1.213   5.100  0.1474 -0.7138 -0.2452
 2518Sol     OW14079   2.888   3.932   5.483 -0.1835  0.4572  0.6975
 2518Sol     HW14080   2.938   3.871   5.538  0.3808  0.9867  0.7788
 2518Sol     HW14081   2.893   4.016   5.529  0.2932  0.9018 -0.1559
 2518Sol     MW14082   2.893   3.934   5.492  0.2454 -0.3272  0.0662
 2519Sol     OW14083   3.542   1.810   4.857  0.0141 -0.3513 -0.4830
 2519Sol     HW14084   3.479   1.756   4.904  0.6503 -1.1116 -0.4944
 2519Sol     HW14085   3.488   1.871   4.806 -0.6891  0.1518  0.8232
 2519Sol     MW14086   3.532   1.811   4.857 -0.6827  0.0706 -0.0987
 2520Sol     OW14087   3.674   0.849   4.208  0.0956 -0.0098  0.0242
 2520Sol     HW14088   3.655   0.807   4.292 -0.0930  1.1879  0.5905
 2520Sol     HW14089   3.767   0.871   4.213  0.1196 -0.0787 -0.1374
 2520Sol     MW14090   3.681   0.847   4.216  0.0259 -0.1270 -0.4102
 2521Sol     OW14091   1.396   1.056   4.997 -0.6645  0.0664  0.0511
 2521Sol     HW14092   1.322   1.035   4.940  1.2540 -0.7214 -2.2643
 2521Sol     HW14093   1.386   1.149   5.016 -3.3139 -0.4476  1.4522
 2521Sol     MW14094   1.388   1.062   4.993 -0.4815  0.5402 -0.1428
 2522Sol     OW14095   2.752   0.935   4.827 -0.1619  0.1971  0.0844
 2522Sol     HW14096   2.792   0.853   4.796  0.6396  1.1844 -1.5235
 2522Sol     HW14097   2.742   0.988   4.749 -1.5749  1.2891  0.9854
 2522Sol     MW14098   2.755   0.932   4.818 -0.0192 -0.3193 -0.2044
 2523Sol     OW14099   1.231   0.670   6.811 -0.4092 -0.0398  0.2277
 2523Sol     HW14100   1.231   0.635   6.723  0.0231 -0.3939  0.3695
 2523Sol     HW14101   1.322   0.695   6.828 -0.3094 -0.8440  0.9179
 2523Sol     MW14102   1.239   0.669   6.805  0.4210  0.1375  0.7595
 2524Sol     OW14103   2.479   2.803   6.673  0.6294 -0.3566  0.1232
 2524Sol     HW14104   2.535   2.731   6.643  0.6767 -0.3515  0.1996
 2524Sol     HW14105   2.510   2.880   6.624 -0.2510 -0.6378 -0.9138
 2524Sol     MW14106   2.486   2.803   6.666  0.4584  0.4017  0.0503
 2525Sol     OW14107   2.388   1.113   1.447  0.4270 -0.1628 -0.4128
 2525Sol     HW14108   2.301   1.101   1.485  0.1943  0.4589 -0.7522
 2525Sol     HW14109   2.419   1.023   1.431 -0.7096 -0.3778 -1.5524
 2525Sol     MW14110   2.383   1.104   1.449  0.4498  0.0448  0.2289
 2526Sol     OW14111   2.394   1.170   4.782 -0.2959 -0.2418 -0.3690
 2526Sol     HW14112   2.443   1.217   4.715  0.8167 -0.8976 -0.0233
 2526Sol     HW14113   2.428   1.080   4.778 -0.0106 -0.2144  1.2700
 2526Sol     MW14114   2.401   1.166   4.775  0.1684 -0.5210 -0.5247
 2527Sol     OW14115   0.203   2.273   1.520  0.0325  0.0873  0.1224
 2527Sol     HW14116   0.195   2.368   1.517 -0.8220 -0.0058 -1.3086
 2527Sol     HW14117   0.199   2.251   1.613  2.5283  1.6156  0.6419
 2527Sol     MW14118   0.202   2.279   1.528  0.4518  0.1578  0.4031
 2528Sol     OW14119   1.010   3.836   6.018 -0.4695 -0.1346 -0.2758
 2528Sol     HW14120   0.969   3.890   5.950  0.8635 -0.7726 -1.6130
 2528Sol     HW14121   1.021   3.750   5.977  0.2980 -0.5437  0.7774
 2528Sol     MW14122   1.007   3.833   6.009  0.1019  0.3666 -0.5193
 2529Sol     OW14123   2.764   0.611   6.363  0.5485  0.6533  0.5613
 2529Sol     HW14124   2.727   0.678   6.419 -1.7101 -0.8466  0.9118
 2529Sol     HW14125   2.812   0.553   6.423 -1.7801 -0.8920  1.0203
 2529Sol     MW14126   2.765   0.611   6.373 -0.1952 -0.0133  0.2728
 2530Sol     OW14127   3.321   2.506   2.841 -0.5286  0.1693  0.0061
 2530Sol     HW14128   3.359   2.420   2.858 -0.4144 -0.1665 -1.8628
 2530Sol     HW14129   3.234   2.503   2.882  0.1744 -0.1842  1.5004
 2530Sol     MW14130   3.317   2.498   2.846 -0.0631  0.1717  0.0859
 2531Sol     OW14131   0.074   1.840   5.281  0.2974 -0.0881 -0.3022
 2531Sol     HW14132   0.127   1.907   5.238  0.4289 -0.1702 -0.2661
 2531Sol     HW14133   0.021   1.802   5.211 -2.2100  2.3264  0.1844
 2531Sol     MW14134   0.074   1.843   5.271  0.5336 -0.0214  0.3151
 2532Sol     OW14135   0.329   0.965   2.788 -0.4878 -0.2482 -0.0528
 2532Sol     HW14136   0.364   0.987   2.874 -0.0936 -0.9139 -0.0461
 2532Sol     HW14137   0.402   0.926   2.741 -0.4477  0.9570 -1.0101
 2532Sol     MW14138   0.338   0.964   2.791  0.0261  1.0196 -0.2174
 2533Sol     OW14139   0.062   2.226   2.120  0.0688 -0.2268 -0.5306
 2533Sol     HW14140   0.055   2.276   2.201  1.4852 -2.4806  1.0445
 2533Sol     HW14141   0.137   2.264   2.075  1.2893 -1.0194  0.7703
 2533Sol     MW14142   0.068   2.234   2.124  0.4727 -0.1390  0.0779
 2534Sol     OW14143   4.045   3.831   2.677 -0.1458 -0.2464  0.6934
 2534Sol     HW14144   4.073   3.922   2.683  0.2686 -0.2850 -0.5864
 2534Sol     HW14145   4.067   3.794   2.763  0.7118  0.5648  0.8385
 2534Sol     MW14146   4.050   3.836   2.686 -0.3660  0.5115  1.1753
 2535Sol     OW14147   2.277   3.756   2.659  0.2364  0.6081 -0.4354
 2535Sol     HW14148   2.346   3.690   2.660 -0.9983 -0.7259 -1.1407
 2535Sol     HW14149   2.289   3.803   2.577  0.1183  0.1436 -0.7258
 2535Sol     MW14150   2.284   3.754   2.652 -1.0552  0.4781  0.6147
 2536Sol     OW14151   1.358   0.248   2.240 -0.3048 -0.0743 -0.4977
 2536Sol     HW14152   1.453   0.255   2.233 -0.2287 -1.2239 -0.7199
 2536Sol     HW14153   1.327   0.249   2.150 -0.6719  2.2621 -0.3762
 2536Sol     MW14154   1.364   0.249   2.232  0.7276  0.0671 -0.2110
 2537Sol     OW14155   3.127   0.845   4.084  0.4419  0.6107 -0.3542
 2537Sol     HW14156   3.041   0.827   4.044  0.4343 -0.3118  0.0499
 2537Sol     HW14157   3.182   0.872   4.011  0.1286  0.0284 -0.8141
 2537Sol     MW14158   3.124   0.846   4.074  0.2808 -0.2501 -0.0227
 2538Sol     OW14159   1.382   3.116   2.252 -0.8434  0.5884 -0.1469
 2538Sol     HW14160   1.449   3.132   2.319 -0.5026 -1.1505 -0.0522
 2538Sol     HW14161   1.432   3.097   2.173 -1.2496  1.8340 -0.7122
 2538Sol     MW14162   1.393   3.116   2.251  0.4069 -0.1300 -0.5882
 2539Sol     OW14163   0.486   0.353   2.259 -0.4442 -0.0502  0.0899
 2539Sol     HW14164   0.551   0.289   2.230 -0.5428 -0.3673  0.5577
 2539Sol     HW14165   0.424   0.359   2.186 -1.0695 -1.3570  0.4984
 2539Sol     MW14166   0.486   0.348   2.249  0.0393 -0.6919  1.0614
 2540Sol     OW14167   3.026   0.648   4.371 -0.0676 -0.0036 -0.3417
 2540Sol     HW14168   2.941   0.691   4.372  0.2484  0.6846 -1.4794
 2540Sol     HW14169   3.088   0.716   4.396  0.3368 -0.0435 -1.2244
 2540Sol     MW14170   3.024   0.658   4.373 -0.6001  0.4095 -0.1725
 2541Sol     OW14171   1.267   4.062   3.409  0.0121  0.5557 -0.4081
 2541Sol     HW14172   1.175   4.064   3.381 -0.1605 -1.9447 -0.0898
 2541Sol     HW14173   1.264   4.085   3.502 -0.2929  0.4901 -0.4006
 2541Sol     MW14174   1.258   4.064   3.415  0.2429  0.4181  0.3126
 2542Sol     OW14175   2.846   1.963   1.472 -0.2852  0.4913 -0.1522
 2542Sol     HW14176   2.903   1.948   1.548 -0.8530 -1.2375 -0.0372
 2542Sol     HW14177   2.882   2.041   1.430  0.8429  0.6951  1.1398
 2542Sol     MW14178   2.854   1.969   1.475  0.1058  0.4745 -0.2717
 2543Sol     OW14179   1.999   3.143   4.815  0.5174 -0.6509  0.2821
 2543Sol     HW14180   2.011   3.106   4.903  0.7612 -0.8502  0.1644
 2543Sol     HW14181   1.970   3.069   4.762  0.8374 -0.6348  0.0853
 2543Sol     MW14182   1.997   3.133   4.818 -0.2053  0.4470  0.0029
 2544Sol     OW14183   3.608   1.394   5.344 -0.8766 -0.3832  0.6071
 2544Sol     HW14184   3.609   1.486   5.317 -2.5884 -0.2041  1.1045
 2544Sol     HW14185   3.599   1.397   5.439 -0.6544 -1.0742  0.6532
 2544Sol     MW14186   3.608   1.402   5.350  0.2398  0.0737  0.2478
 2545Sol     OW14187   2.940   1.930   2.800  0.4324 -0.3897 -0.0872
 2545Sol     HW14188   2.953   2.003   2.740 -0.5729 -0.1961 -0.0770
 2545Sol     HW14189   2.920   1.856   2.743  0.7652 -0.4995 -0.0608
 2545Sol     MW14190   2.939   1.930   2.790 -0.7379 -0.1673  0.4401
 2546Sol     OW14191   3.643   2.008   4.101  0.7478  0.0136 -0.3113
 2546Sol     HW14192   3.565   1.955   4.082 -1.0719  2.8340 -1.0257
 2546Sol     HW14193   3.706   1.984   4.033 -0.1194 -1.0752 -0.7436
 2546Sol     MW14194   3.642   2.001   4.093  0.1492  0.4307 -0.3335
 2547Sol     OW14195   0.390   1.197   2.095 -1.0192 -0.1740 -0.0665
 2547Sol     HW14196   0.297   1.180   2.107 -0.6239 -1.5713  1.0241
 2547Sol     HW14197   0.431   1.168   2.176  0.8334 -3.2481 -2.0026
 2547Sol     MW14198   0.385   1.193   2.103 -0.4628  0.0618 -0.0213
 2548Sol     OW14199   0.808   0.021   4.501  1.0996  0.1351  0.0161
 2548Sol     HW14200   0.813   0.087   4.570 -0.1975  0.2292  0.0365
 2548Sol     HW14201   0.839   0.066   4.423  0.9240  0.5595  0.1869
 2548Sol     MW14202   0.811   0.031   4.500 -0.4955 -0.1567  0.1678
 2549Sol     OW14203   2.046   1.815   4.028 -0.7759 -0.2382  0.0441
 2549Sol     HW14204   2.009   1.898   4.058 -1.5891 -0.9244  0.9766
 2549Sol     HW14205   2.117   1.797   4.089  2.1300  1.8046 -2.6067
 2549Sol     MW14206   2.049   1.820   4.036  0.0609 -0.1026  0.2091
 2550Sol     OW14207   4.014   1.318   5.431 -0.4154  0.1945 -0.3123
 2550Sol     HW14208   3.990   1.400   5.474 -0.5644  0.3312 -0.6519
 2550Sol     HW14209   3.959   1.315   5.353 -0.4947 -0.2876 -0.2386
 2550Sol     MW14210   4.007   1.325   5.428  0.1709  0.3686  0.0581
 2551Sol     OW14211   2.224   1.139   2.346 -0.1346 -0.2239  0.4437
 2551Sol     HW14212   2.306   1.181   2.370 -0.4884  0.7406  0.0199
 2551Sol     HW14213   2.159   1.178   2.406 -0.5151  0.0689 -0.1485
 2551Sol     MW14214   2.225   1.147   2.354  0.1939 -0.1087  0.0182
 2552Sol     OW14215   2.770   3.796   6.753  0.5171  0.3450  0.3241
 2552Sol     HW14216   2.787   3.789   6.659 -1.8831 -0.7252 -0.0715
 2552Sol     HW14217   2.810   3.879   6.778  0.4245  1.0790 -1.8305
 2552Sol     MW14218   2.775   3.803   6.747 -0.2604  0.5234 -0.0896
 2553Sol     OW14219   1.717   0.848   2.068 -0.0074  0.3523 -0.2101
 2553Sol     HW14220   1.642   0.899   2.097  0.3509  1.0492 -0.4925
 2553Sol     HW14221   1.793   0.897   2.099  0.3518  0.2538 -0.9043
 2553Sol     MW14222   1.717   0.857   2.073  0.0407 -0.3316 -0.3134
 2554Sol     OW14223   2.398   2.089   5.189 -0.3007 -0.2185 -0.3031
 2554Sol     HW14224   2.488   2.060   5.205 -0.2732  1.0691  2.1406
 2554Sol     HW14225   2.349   2.007   5.176  1.0548 -0.9753 -0.7783
 2554Sol     MW14226   2.402   2.079   5.189  0.2280 -0.3204  0.3714
 2555Sol     OW14227   1.386   1.798   6.873  0.6434  0.0424  0.5661
 2555Sol     HW14228   1.438   1.876   6.855  1.9263 -1.1447 -1.0391
 2555Sol     HW14229   1.302   1.813   6.830  0.7562  0.6774  0.5691
 2555Sol     MW14230   1.383   1.806   6.868 -0.6518  0.2736 -0.7083
 2556Sol     OW14231   0.457   0.198   5.811  0.2410  0.1250 -0.7985
 2556Sol     HW14232   0.421   0.279   5.775  0.8399  0.7028 -0.1213
 2556Sol     HW14233   0.384   0.136   5.807 -0.4350  0.8945 -0.6795
 2556Sol     MW14234   0.447   0.200   5.808  0.7960 -0.5691 -0.5231
 2557Sol     OW14235   1.903   3.278   5.233 -0.0906 -0.1149  0.6489
 2557Sol     HW14236   1.880   3.354   5.179 -0.3963  0.9816  2.2734
 2557Sol     HW14237   1.920   3.208   5.170  1.2238  1.5684 -0.9321
 2557Sol     MW14238   1.903   3.279   5.223  0.0560 -0.3746 -0.1713
 2558Sol     OW14239   3.842   0.796   3.835 -0.4514 -0.2790 -0.1604
 2558Sol     HW14240   3.813   0.706   3.817  0.0620 -0.2589 -1.0520
 2558Sol     HW14241   3.896   0.820   3.760 -0.3864  0.6923  0.1949
 2558Sol     MW14242   3.844   0.790   3.827 -0.2024  0.2069  0.3258
 2559Sol     OW14243   0.218   3.996   3.759  0.1936  0.1478  0.1075
 2559Sol     HW14244   0.188   4.028   3.844  2.2647  2.6743 -0.0338
 2559Sol     HW14245   0.239   4.075   3.709  3.5131 -1.3563 -1.0432
 2559Sol     MW14246   0.217   4.006   3.762 -0.3854  0.1002  0.0741
 2560Sol     OW14247   2.283   1.446   6.023  0.1640 -0.1814 -0.3318
 2560Sol     HW14248   2.246   1.463   5.936  0.2794 -1.1718 -0.5753
 2560Sol     HW14249   2.239   1.367   6.054  0.8267 -0.3891  0.0959
 2560Sol     MW14250   2.276   1.441   6.018  0.1788 -0.5418 -0.1454
 2561Sol     OW14251   1.270   0.183   4.071  0.1236  0.0492 -0.3025
 2561Sol     HW14252   1.328   0.186   3.995  0.7696  0.2228  0.1799
 2561Sol     HW14253   1.257   0.090   4.088  1.1671 -0.0056  0.2448
 2561Sol     MW14254   1.274   0.175   4.066 -0.0223  0.1255  0.6283
 2562Sol     OW14255   1.160   0.164   3.631 -0.1540  0.3431 -0.3447
 2562Sol     HW14256   1.149   0.254   3.661 -0.4461  0.0320  0.4745
 2562Sol     HW14257   1.235   0.168   3.571  2.5029  0.3936  2.8550
 2562Sol     MW14258   1.165   0.173   3.628 -0.6498  0.5579  0.0283
 2563Sol     OW14259   1.603   2.705   5.127  0.6149  0.2796  0.5488
 2563Sol     HW14260   1.636   2.745   5.207  1.7425 -0.1842  0.3371
 2563Sol     HW14261   1.623   2.611   5.138  0.0025  0.0974  0.1028
 2563Sol     MW14262   1.608   2.700   5.135  0.3722 -0.3226  0.0180
 2564Sol     OW14263   3.068   3.764   6.187  0.4791 -0.1740  0.6403
 2564Sol     HW14264   3.014   3.813   6.249 -0.7122  0.4192 -0.8380
 2564Sol     HW14265   3.105   3.692   6.239  1.4251  1.6514  2.5998
 2564Sol     MW14266   3.067   3.762   6.197  0.0035 -0.2685 -0.3503
 2565Sol     OW14267   1.757   0.287   1.945  0.4481 -0.1636 -0.0745
 2565Sol     HW14268   1.729   0.306   2.034 -0.6260  2.0242 -0.8409
 2565Sol     HW14269   1.696   0.335   1.889  1.0030 -1.6210 -2.0011
 2565Sol     MW14270   1.749   0.293   1.948 -0.6337  0.1014 -0.3268
 2566Sol     OW14271   1.425   2.752   4.940 -0.0414 -0.0659 -0.3807
 2566Sol     HW14272   1.499   2.723   4.993  0.9252  1.0363 -1.0869
 2566Sol     HW14273   1.386   2.671   4.907  1.3061 -0.6559 -0.5922
 2566Sol     MW14274   1.428   2.742   4.942 -0.4334 -0.3415  1.2681
 2567Sol     OW14275   3.165   0.095   6.610 -0.0410  0.4118 -0.5281
 2567Sol     HW14276   3.085   0.137   6.642 -0.6338 -1.2542  0.2898
 2567Sol     HW14277   3.181   0.134   6.524 -1.6858  0.8453 -0.6564
 2567Sol     MW14278   3.159   0.102   6.605  0.0930 -0.2181 -0.5110
 2568Sol     OW14279   2.045   3.155   3.743  0.3476  0.3968  0.9921
 2568Sol     HW14280   2.076   3.233   3.790  1.0251 -0.4714  1.9953
 2568Sol     HW14281   2.120   3.130   3.689  0.5697 -0.2966  1.6189
 2568Sol     MW14282   2.055   3.160   3.742 -0.6149 -0.0358 -0.0736
 2569Sol     OW14283   0.848   1.928   6.406  0.6143 -0.6457  0.5060
 2569Sol     HW14284   0.836   1.884   6.490  1.0789 -1.2454  0.2611
 2569Sol     HW14285   0.907   1.871   6.357 -1.0416 -1.1989 -0.8940
 2569Sol     MW14286   0.852   1.919   6.409  0.1341 -0.4143  0.1538
 2570Sol     OW14287   2.483   0.545   4.079 -0.3851  0.0717  0.0868
 2570Sol     HW14288   2.389   0.557   4.066 -0.2556  1.0147  0.0297
 2570Sol     HW14289   2.522   0.630   4.060  0.9783 -1.3898 -4.2698
 2570Sol     MW14290   2.478   0.553   4.076 -0.4473 -0.3202 -0.1149
 2571Sol     OW14291   1.271   1.423   1.445 -0.2247 -0.2051  0.0331
 2571Sol     HW14292   1.233   1.497   1.398 -1.5990 -0.8652  0.0810
 2571Sol     HW14293   1.246   1.347   1.394  1.5236 -0.6214 -0.2305
 2571Sol     MW14294   1.266   1.423   1.437 -0.0799 -0.5061 -0.6211
 2572Sol     OW14295   0.124   1.183   3.859  0.1219 -0.8693  0.1440
 2572Sol     HW14296   0.106   1.264   3.812 -1.0929 -0.8379  0.6467
 2572Sol     HW14297   0.194   1.205   3.920 -0.6831 -0.0122  0.7693
 2572Sol     MW14298   0.128   1.192   3.860 -0.0119 -0.0585 -0.0226
 2573Sol     OW14299   1.291   3.442   3.743 -0.5403  0.4768  0.0050
 2573Sol     HW14300   1.307   3.436   3.837 -1.8942 -0.0787  0.2044
 2573Sol     HW14301   1.302   3.535   3.723  1.9098  0.2909  0.2981
 2573Sol     MW14302   1.294   3.450   3.749 -0.0834  0.1432 -0.2673
 2574Sol     OW14303   1.016   0.459   5.272 -0.5737 -0.1964 -0.2204
 2574Sol     HW14304   1.049   0.542   5.306  2.0130 -0.4976 -1.8379
 2574Sol     HW14305   1.037   0.462   5.178 -0.1071 -2.8046 -0.2309
 2574Sol     MW14306   1.021   0.467   5.266  0.0937 -0.4900 -0.1903
 2575Sol     OW14307   4.025   0.561   5.188 -0.2600  0.4745 -0.2720
 2575Sol     HW14308   4.074   0.588   5.265  0.6565 -1.4660 -0.1269
 2575Sol     HW14309   4.062   0.613   5.116 -1.6393  2.8404  0.6828
 2575Sol     MW14310   4.033   0.568   5.188 -0.4952  0.2620  0.0714
 2576Sol     OW14311   1.977   3.643   5.439  0.3362  0.6007  0.1520
 2576Sol     HW14312   2.005   3.552   5.447 -2.0069 -0.1751 -0.1227
 2576Sol     HW14313   1.988   3.680   5.526  0.9554 -0.0311  0.3470
 2576Sol     MW14314   1.981   3.638   5.447 -0.0111 -0.6645  0.0005
 2577Sol     OW14315   2.607   1.202   3.551  0.3803 -0.3563  0.1698
 2577Sol     HW14316   2.653   1.119   3.539  1.1465 -0.0761  1.0518
 2577Sol     HW14317   2.623   1.250   3.470  0.0496 -1.0113 -0.2895
 2577Sol     MW14318   2.613   1.199   3.543  0.5391  0.1929  0.0150
 2578Sol     OW14319   0.466   2.162   4.823  0.1504  0.2450 -0.3032
 2578Sol     HW14320   0.387   2.203   4.790 -0.4744 -0.6376  0.0675
 2578Sol     HW14321   0.509   2.230   4.875  0.3290  1.1421 -1.6067
 2578Sol     MW14322   0.463   2.171   4.825  0.1203 -0.0759 -0.0793
 2579Sol     OW14323   0.571   2.521   3.484 -0.0963  0.0806  0.0963
 2579Sol     HW14324   0.588   2.571   3.564  0.3333 -0.3555  0.2818
 2579Sol     HW14325   0.657   2.487   3.459  0.2672  2.3584 -1.9980
 2579Sol     MW14326   0.580   2.523   3.489 -0.4822 -0.0194 -1.3435
 2580Sol     OW14327   2.787   0.422   3.122 -0.4634 -0.0387 -0.2152
 2580Sol     HW14328   2.755   0.348   3.175  1.1282  0.6244  1.7369
 2580Sol     HW14329   2.712   0.481   3.115 -0.4103  0.3885  2.2962
 2580Sol     MW14330   2.778   0.420   3.126  0.1495 -0.3197 -0.3722
 2581Sol     OW14331   3.615   0.326   1.739  0.3649  0.0787 -0.1632
 2581Sol     HW14332   3.649   0.411   1.767 -0.0770 -0.0265  0.7087
 2581Sol     HW14333   3.650   0.314   1.651 -0.4918  1.6632 -0.7198
 2581Sol     MW14334   3.621   0.332   1.734 -0.5046 -0.1916  0.5179
 2582Sol     OW14335   2.731   0.536   1.891  0.6994 -0.1874  0.8036
 2582Sol     HW14336   2.668   0.578   1.831  1.2771 -0.3760  0.0500
 2582Sol     HW14337   2.683   0.525   1.973 -0.3954 -0.7547  0.0976
 2582Sol     MW14338   2.721   0.539   1.893 -0.5978 -0.1677 -0.4908
 2583Sol     OW14339   3.106   1.730   2.099  0.4127 -0.1151 -0.4898
 2583Sol     HW14340   3.113   1.662   2.166 -1.2260  2.1502  2.0894
 2583Sol     HW14341   3.024   1.710   2.052 -1.1007  1.1071  1.5463
 2583Sol     MW14342   3.099   1.722   2.101 -0.1321  0.2707 -0.0279
 2584Sol     OW14343   3.111   4.164   6.246 -0.3014  0.1685 -0.4239
 2584Sol     HW14344   3.172   4.117   6.302  0.6619  0.6666 -1.0242
 2584Sol     HW14345   3.027   4.119   6.257  0.1854 -0.5494  0.3820
 2584Sol     MW14346   3.109   4.156   6.252  0.2739  0.1356 -0.5278
 2585Sol     OW14347   3.254   2.091   5.938 -0.8010 -0.3891 -0.3323
 2585Sol     HW14348   3.315   2.162   5.917 -1.4342 -0.4555 -2.5532
 2585Sol     HW14349   3.302   2.011   5.916 -0.1547 -0.6534  1.9896
 2585Sol     MW14350   3.264   2.090   5.934 -0.4072 -0.4829 -0.0056
 2586Sol     OW14351   3.659   0.153   1.997 -0.2126  0.2481  0.2803
 2586Sol     HW14352   3.670   0.213   1.924 -0.6565  1.7068  1.3724
 2586Sol     HW14353   3.581   0.102   1.976 -0.6343  1.0189 -0.0179
 2586Sol     MW14354   3.653   0.154   1.989  0.5123 -0.0519 -0.1764
 2587Sol     OW14355   3.534   2.801   6.221  0.4861 -0.3029  0.1985
 2587Sol     HW14356   3.552   2.779   6.312  0.3929  0.1317  0.3246
 2587Sol     HW14357   3.580   2.884   6.207 -0.3904  0.1942  0.1722
 2587Sol     MW14358   3.539   2.807   6.228  0.2442 -0.4046  0.9219
 2588Sol     OW14359   2.142   2.355   4.895 -0.0824 -0.0006 -0.3445
 2588Sol     HW14360   2.217   2.298   4.912  0.7420  1.5599  1.3623
 2588Sol     HW14361   2.101   2.367   4.981  0.3246  2.7344 -0.5030
 2588Sol     MW14362   2.145   2.351   4.904  0.7707 -0.4830 -0.0378
 2589Sol     OW14363   0.230   1.725   1.817  0.4876  0.7566 -0.4576
 2589Sol     HW14364   0.165   1.655   1.813  0.7305  0.4692  0.6596
 2589Sol     HW14365   0.188   1.796   1.866  0.8037  0.7923 -0.2323
 2589Sol     MW14366   0.221   1.725   1.821 -0.1764 -0.7448 -0.2694
 2590Sol     OW14367   2.585   1.165   1.835  0.2026  0.8158 -0.1088
 2590Sol     HW14368   2.624   1.080   1.812 -0.2025  1.0375 -1.6805
 2590Sol     HW14369   2.564   1.205   1.751 -1.2878  1.7080  0.6672
 2590Sol     MW14370   2.587   1.161   1.825 -0.4396 -0.3207 -0.4497
 2591Sol     OW14371   3.144   3.199   5.583  0.1460 -0.2171  0.3185
 2591Sol     HW14372   3.201   3.274   5.564 -1.2882  0.3889 -1.7364
 2591Sol     HW14373   3.180   3.128   5.529 -0.1827 -0.2266  0.1137
 2591Sol     MW14374   3.153   3.200   5.576 -0.1105 -0.4388  0.3666
 2592Sol     OW14375   1.037   0.949   5.658 -0.1318 -0.7995  0.1612
 2592Sol     HW14376   1.020   0.893   5.582  0.9818 -0.6655 -0.1912
 2592Sol     HW14377   0.971   0.922   5.722 -0.0372 -2.0516 -0.2466
 2592Sol     MW14378   1.029   0.941   5.657  0.2032 -0.9006  0.0288
 2593Sol     OW14379   2.287   0.375   3.797  0.1048 -0.0433 -0.2507
 2593Sol     HW14380   2.267   0.401   3.887  1.7242 -2.3415  0.8231
 2593Sol     HW14381   2.382   0.377   3.792  0.0834 -1.2385 -1.5058
 2593Sol     MW14382   2.294   0.378   3.805 -0.1315  0.8039 -0.5602
 2594Sol     OW14383   1.110   1.537   2.532 -0.7317  0.3928  0.3202
 2594Sol     HW14384   1.123   1.614   2.587  2.1243  0.2941 -0.1594
 2594Sol     HW14385   1.081   1.572   2.448  1.4086  1.0459 -0.1728
 2594Sol     MW14386   1.109   1.547   2.530  0.1833 -0.3491 -0.1809
 2595Sol     OW14387   0.960   2.715   5.957 -0.4928  0.2969  0.3358
 2595Sol     HW14388   1.037   2.755   5.998 -0.7806  0.9621  0.2334
 2595Sol     HW14389   0.971   2.621   5.973  0.1748  0.4127  0.6047
 2595Sol     MW14390   0.968   2.710   5.962  0.6706 -0.0963 -0.2698
 2596Sol     OW14391   2.283   3.258   5.341  0.0697 -0.1071 -0.0910
 2596Sol     HW14392   2.208   3.285   5.394  0.0433  0.4800 -0.4239
 2596Sol     HW14393   2.313   3.339   5.300  1.6895 -0.0904  1.0608
 2596Sol     MW14394   2.279   3.268   5.342  0.2127 -0.5405 -0.1957
 2597Sol     OW14395   2.762   4.073   5.089  0.0842 -0.2040 -0.2665
 2597Sol     HW14396   2.728   4.098   5.003  1.1781 -2.3484 -1.3850
 2597Sol     HW14397   2.737   3.981   5.099 -1.1358  0.3705  2.3068
 2597Sol     MW14398   2.757   4.067   5.082 -0.2023 -0.4954 -0.4261
 2598Sol     OW14399   2.966   1.554   5.064  0.1681  0.0385  0.2437
 2598Sol     HW14400   2.970   1.553   5.159  1.1960  0.1745  0.2064
 2598Sol     HW14401   3.037   1.612   5.037  0.7901 -1.1063 -0.6423
 2598Sol     MW14402   2.972   1.559   5.070 -0.1271 -0.6414  0.3954
 2599Sol     OW14403   0.272   0.428   6.300 -0.3944  0.1205 -0.1913
 2599Sol     HW14404   0.188   0.430   6.346 -0.6511 -1.4853 -0.5538
 2599Sol     HW14405   0.257   0.371   6.224  1.7102 -2.3745  1.1737
 2599Sol     MW14406   0.263   0.423   6.297  0.4756 -0.2940  0.5215
 2600Sol     OW14407   2.781   0.313   3.522  0.1709  0.5071  0.4831
 2600Sol     HW14408   2.823   0.358   3.449 -1.1600 -1.1032 -1.3188
 2600Sol     HW14409   2.845   0.249   3.553 -0.5134 -1.2133 -1.5682
 2600Sol     MW14410   2.790   0.311   3.518 -0.5089 -0.2724 -0.0044
 2601Sol     OW14411   3.437   3.130   2.302 -0.2762 -1.0510  0.4247
 2601Sol     HW14412   3.494   3.124   2.225 -1.5200 -0.7156 -0.5389
 2601Sol     HW14413   3.456   3.051   2.353  0.3111 -1.4436 -0.4053
 2601Sol     MW14414   3.444   3.123   2.300 -0.6378 -0.2967 -0.5345
 2602Sol     OW14415   1.073   2.454   6.000 -0.1318  0.8359  0.0512
 2602Sol     HW14416   1.119   2.377   6.033 -0.4671  0.5457 -0.1440
 2602Sol     HW14417   1.044   2.428   5.912 -0.1579  1.2200 -0.0539
 2602Sol     MW14418   1.074   2.445   5.995 -0.0103  0.2642  0.9404
 2603Sol     OW14419   2.059   1.709   2.583  0.1828 -0.2352 -0.6906
 2603Sol     HW14420   2.082   1.672   2.497  1.5692 -0.5041 -0.2121
 2603Sol     HW14421   2.092   1.799   2.579 -1.8908  0.5216 -1.3119
 2603Sol     MW14422   2.064   1.714   2.575  0.1615  0.4271  0.4474
 2604Sol     OW14423   0.755   2.631   6.818  0.0257  0.3342 -0.2002
 2604Sol     HW14424   0.663   2.619   6.791  0.1007  1.1331 -0.8380
 2604Sol     HW14425   0.805   2.582   6.753  0.0506 -0.1107  0.1542
 2604Sol     MW14426   0.751   2.626   6.810 -0.1198  0.2738 -0.4685
 2605Sol     OW14427   1.488   0.992   6.024 -0.7578  0.0171  0.4233
 2605Sol     HW14428   1.479   0.941   5.944  0.8853 -0.2233  0.3742
 2605Sol     HW14429   1.421   1.060   6.017  0.3013  0.8897 -1.8286
 2605Sol     MW14430   1.481   0.993   6.016 -0.1121  0.1970 -0.2483
 2606Sol     OW14431   1.342   1.307   4.982 -0.3164  0.4187  0.7518
 2606Sol     HW14432   1.304   1.338   4.900  1.1089 -0.6074 -0.3037
 2606Sol     HW14433   1.429   1.346   4.985 -0.7554  1.3567  2.3346
 2606Sol     MW14434   1.346   1.313   4.975 -0.2555 -0.9829 -0.1531
 2607Sol     OW14435   0.810   2.943   4.828 -0.3653  0.0153  0.4944
 2607Sol     HW14436   0.717   2.942   4.803 -0.0881 -1.6906 -0.5483
 2607Sol     HW14437   0.849   2.874   4.775  1.5131  0.7326  0.9308
 2607Sol     MW14438   0.805   2.936   4.821  0.1615 -0.9795 -0.3499
 2608Sol     OW14439   0.669   3.439   4.772 -0.1850  0.1543  0.7005
 2608Sol     HW14440   0.594   3.428   4.714  0.7706 -1.3469 -0.2480
 2608Sol     HW14441   0.706   3.352   4.781  1.9741  1.0325  0.4686
 2608Sol     MW14442   0.665   3.431   4.768  0.1452 -0.5858 -0.1263
 2609Sol     OW14443   0.320   3.845   1.866  0.5084 -0.1146 -0.1537
 2609Sol     HW14444   0.382   3.866   1.936  0.8027  0.4804 -0.6001
 2609Sol     HW14445   0.306   3.750   1.874  0.0203  0.0553  1.1473
 2609Sol     MW14446   0.324   3.838   1.873  0.4229  0.1694 -0.2509
 2610Sol     OW14447   0.303   0.893   4.807 -0.3467  0.3639 -0.1630
 2610Sol     HW14448   0.235   0.937   4.858 -1.0617 -0.4635 -0.4036
 2610Sol     HW14449   0.258   0.859   4.730 -0.0722 -1.8900  0.6237
 2610Sol     MW14450   0.293   0.894   4.805 -0.1061 -0.3347  0.0096
 2611Sol     OW14451   3.089   2.426   4.042  0.1047  0.0199  0.2025
 2611Sol     HW14452   3.164   2.394   3.991 -0.4769  0.0267 -0.6636
 2611Sol     HW14453   3.049   2.348   4.079  0.9527  0.0695  1.2661
 2611Sol     MW14454   3.092   2.416   4.041 -0.1730 -0.1736 -0.0424
 2612Sol     OW14455   0.644   2.936   4.150 -0.0112  0.1676 -0.3389
 2612Sol     HW14456   0.674   2.952   4.239  1.3490 -0.8125 -0.5944
 2612Sol     HW14457   0.563   2.986   4.142  0.7075  1.5734  0.9237
 2612Sol     MW14458   0.640   2.942   4.157 -0.0289  0.2833  0.2352
 2613Sol     OW14459   2.177   0.413   4.929  0.2447 -0.0888 -0.2588
 2613Sol     HW14460   2.203   0.340   4.985 -2.7898 -1.6508 -0.7719
 2613Sol     HW14461   2.178   0.377   4.840  2.4075  1.6025 -0.9562
 2613Sol     MW14462   2.179   0.403   4.926 -0.2862  0.8669 -0.2445
 2614Sol     OW14463   2.554   0.338   5.204 -0.2525  0.2233  0.2419
 2614Sol     HW14464   2.503   0.258   5.206  2.3907 -1.5698 -0.7588
 2614Sol     HW14465   2.547   0.374   5.292 -1.5678 -1.0526  0.6646
 2614Sol     MW14466   2.549   0.334   5.212  0.5688  0.3197 -0.2392
 2615Sol     OW14467   1.264   0.539   1.768 -0.2159  0.0328 -0.4249
 2615Sol     HW14468   1.172   0.517   1.752 -0.1030  0.6197 -1.9625
 2615Sol     HW14469   1.262   0.629   1.801 -0.1705  0.1856 -0.8344
 2615Sol     MW14470   1.255   0.545   1.769  0.1828 -0.5583 -0.1627
 2616Sol     OW14471   3.862   2.960   1.543  0.0940  0.1258 -0.9177
 2616Sol     HW14472   3.952   2.987   1.557 -0.3135  0.8047  0.4770
 2616Sol     HW14473   3.829   3.019   1.476  0.9275 -0.6732 -2.0504
 2616Sol     MW14474   3.867   2.967   1.538  0.0411  0.3981 -0.0128
 2617Sol     OW14475   1.232   3.293   3.337  0.2732 -0.2857 -0.1859
 2617Sol     HW14476   1.202   3.313   3.425 -1.2208 -1.0634 -0.4948
 2617Sol     HW14477   1.302   3.356   3.320 -0.8326  1.2263  0.7662
 2617Sol     MW14478   1.236   3.300   3.343 -0.4554  0.7420  0.1392
 2618Sol     OW14479   4.018   2.722   2.557 -0.1979 -0.2066  0.6880
 2618Sol     HW14480   3.988   2.637   2.523  0.2307 -0.4687  0.9549
 2618Sol     HW14481   4.068   2.700   2.636  2.8159 -0.0064 -1.0906
 2618Sol     MW14482   4.019   2.712   2.561  0.7955  0.1215  0.1099
 2619Sol     OW14483   0.927   2.537   6.603  0.1407  0.4582 -0.0344
 2619Sol     HW14484   0.996   2.517   6.666 -1.7264  0.3257  2.0434
 2619Sol     HW14485   0.882   2.454   6.590 -1.0699  1.0108  0.4761
 2619Sol     MW14486   0.929   2.528   6.608  0.4021 -0.4473 -0.3404
 2620Sol     OW14487   1.080   3.252   4.830  0.2523 -0.8234 -0.0861
 2620Sol     HW14488   1.127   3.201   4.896  2.3547 -0.1782 -1.0169
 2620Sol     HW14489   1.126   3.232   4.748 -0.2746  0.8668 -0.8172
 2620Sol     MW14490   1.088   3.246   4.828 -0.4509 -0.7637 -0.0564
 2621Sol     OW14491   2.952   0.549   1.451  0.3109 -0.4063 -0.1561
 2621Sol     HW14492   3.007   0.470   1.445 -0.0365 -0.5060 -2.1296
 2621Sol     HW14493   2.862   0.515   1.448  0.1332 -0.0883  1.1844
 2621Sol     MW14494   2.949   0.539   1.451 -0.6884 -0.5917  0.5408
 2622Sol     OW14495   3.133   3.701   2.331  0.1646  0.1402 -0.2110
 2622Sol     HW14496   3.063   3.636   2.326  0.6612 -0.3772 -0.5673
 2622Sol     HW14497   3.214   3.649   2.324  0.6336  0.5324  1.8905
 2622Sol     MW14498   3.134   3.691   2.330 -0.9185  0.0415 -0.0099
 2623Sol     OW14499   1.115   0.582   5.655  0.0849 -0.1436 -0.1262
 2623Sol     HW14500   1.077   0.497   5.633  1.7304 -1.0992  0.6188
 2623Sol     HW14501   1.087   0.640   5.585 -2.4912 -0.8762  0.2506
 2623Sol     MW14502   1.109   0.580   5.647  0.2466  0.5021  0.0377
 2624Sol     OW14503   3.633   2.821   4.187  0.0665 -0.2910  0.0147
 2624Sol     HW14504   3.545   2.810   4.221  0.4858  0.8885  1.5527
 2624Sol     HW14505   3.690   2.798   4.261  1.0022  1.2059 -0.2208
 2624Sol     MW14506   3.631   2.818   4.197 -0.6245  0.0524  0.5203
 2625Sol     OW14507   0.460   2.746   4.975  0.3108  0.0034 -0.1115
 2625Sol     HW14508   0.406   2.668   4.960 -1.5879  1.6278 -1.9893
 2625Sol     HW14509   0.411   2.797   5.039 -0.7789  1.8108 -2.3239
 2625Sol     MW14510   0.451   2.743   4.979  0.4773  0.5759  0.1805
 2626Sol     OW14511   0.653   2.030   1.856  0.1690 -0.3766 -0.4048
 2626Sol     HW14512   0.628   1.941   1.829 -0.1205  0.4047 -2.8435
 2626Sol     HW14513   0.630   2.034   1.949 -3.7232 -1.5219 -1.2324
 2626Sol     MW14514   0.648   2.022   1.862  0.1217  0.3100 -0.3455
 2627Sol     OW14515   1.272   3.676   3.654  0.0286  0.9294 -0.5727
 2627Sol     HW14516   1.180   3.690   3.678  0.1731  0.2267  0.4434
 2627Sol     HW14517   1.278   3.707   3.564 -0.6644  3.1858  0.0996
 2627Sol     MW14518   1.264   3.680   3.648  0.0081 -0.8776 -0.1378
 2628Sol     OW14519   1.599   3.443   5.388  0.1631 -0.1505 -0.1957
 2628Sol     HW14520   1.504   3.445   5.374  0.1295 -1.8820 -0.3877
 2628Sol     HW14521   1.634   3.407   5.306  0.9002 -0.3935  0.2232
 2628Sol     MW14522   1.594   3.440   5.379 -0.1040 -0.2869  0.1953
 2629Sol     OW14523   1.091   2.913   2.867 -0.3304 -0.2179  0.1318
 2629Sol     HW14524   1.062   2.986   2.812 -0.4634  0.0416  0.5448
 2629Sol     HW14525   1.012   2.863   2.884 -0.1764 -0.6640 -0.4543
 2629Sol     MW14526   1.081   2.915   2.863 -0.0299 -0.4513 -0.6198
 2630Sol     OW14527   1.100   0.197   1.570 -0.1105 -0.0294  0.3282
 2630Sol     HW14528   1.188   0.203   1.610  0.7505 -0.5748 -1.4443
 2630Sol     HW14529   1.056   0.128   1.619  1.1681 -1.1587 -0.0964
 2630Sol     MW14530   1.104   0.192   1.578  0.7359  0.2118 -0.0544
 2631Sol     OW14531   0.216   2.166   5.471 -0.0210  0.4621  0.1990
 2631Sol     HW14532   0.306   2.157   5.438  0.1216  1.4969  0.2898
 2631Sol     HW14533   0.203   2.261   5.479 -0.6930  0.2721  1.3893
 2631Sol     MW14534   0.223   2.174   5.468  0.3523  0.2686 -0.2936
 2632Sol     OW14535   3.030   0.703   3.313  0.4439  0.1327  0.6787
 2632Sol     HW14536   2.985   0.619   3.305 -1.2030  1.1129 -0.6391
 2632Sol     HW14537   3.103   0.685   3.372 -0.1637 -2.1061  0.8046
 2632Sol     MW14538   3.032   0.694   3.318 -0.4057  0.2270 -0.2502
 2633Sol     OW14539   3.112   1.438   2.809  0.4907 -0.1334  0.6761
 2633Sol     HW14540   3.183   1.478   2.759  0.7440  0.2181  1.3159
 2633Sol     HW14541   3.151   1.360   2.848  0.6509  0.3031  1.3948
 2633Sol     MW14542   3.122   1.435   2.808 -0.0675 -0.2131 -0.0669
 2634Sol     OW14543   1.814   0.855   6.119 -0.2395  0.2230  0.4610
 2634Sol     HW14544   1.741   0.906   6.082 -0.1986  0.7026  1.0431
 2634Sol     HW14545   1.803   0.767   6.081 -0.7833  0.4464  0.0942
 2634Sol     MW14546   1.806   0.851   6.112 -0.1007  0.3171  0.2317
 2635Sol     OW14547   3.022   3.193   1.876 -0.1701  0.2316  0.7017
 2635Sol     HW14548   2.950   3.174   1.816 -1.3630 -0.6016  2.3588
 2635Sol     HW14549   3.024   3.118   1.935 -0.6797  2.1834  3.2735
 2635Sol     MW14550   3.016   3.185   1.876 -0.3649 -0.1842 -0.6709
 2636Sol     OW14551   3.306   3.863   4.012  0.1097 -0.2354 -0.6252
 2636Sol     HW14552   3.387   3.811   4.008 -0.2064 -0.7951  0.0563
 2636Sol     HW14553   3.279   3.858   4.104  0.3780  1.6170 -0.4234
 2636Sol     MW14554   3.311   3.858   4.020 -0.4342  0.0327  0.2812
 2637Sol     OW14555   2.849   0.212   1.629 -0.4912  0.2226 -0.2453
 2637Sol     HW14556   2.840   0.137   1.569 -0.9066 -1.3569  1.7369
 2637Sol     HW14557   2.847   0.289   1.572 -0.0000 -1.2710 -2.3444
 2637Sol     MW14558   2.848   0.212   1.618  0.1452  0.0256  0.7456
 2638Sol     OW14559   0.065   0.454   5.721 -0.0000 -0.4812  0.2612
 2638Sol     HW14560   0.059   0.492   5.808 -0.5011  1.3657 -0.5539
 2638Sol     HW14561   0.003   0.504   5.668  0.1723 -1.6793 -1.1289
 2638Sol     MW14562   0.059   0.462   5.724  0.0698 -0.1910 -0.0159
 2639Sol     OW14563   3.273   3.205   2.923 -0.1666 -0.2817  0.0901
 2639Sol     HW14564   3.270   3.109   2.919 -2.6996 -0.4324  3.4691
 2639Sol     HW14565   3.213   3.233   2.853 -0.2335 -1.1745 -0.2208
 2639Sol     MW14566   3.267   3.199   2.916  0.1956  0.5182  0.8448
 2640Sol     OW14567   1.642   1.310   3.822 -0.1579 -0.2711  0.0681
 2640Sol     HW14568   1.670   1.256   3.748  0.6166 -1.7917  1.4381
 2640Sol     HW14569   1.667   1.399   3.797 -1.6190 -0.4855 -2.2899
 2640Sol     MW14570   1.647   1.313   3.813 -0.2841 -0.2047  0.5479
 2641Sol     OW14571   3.168   3.911   2.941  0.0005 -0.3945 -0.3294
 2641Sol     HW14572   3.082   3.907   2.898 -0.8584  0.2133  1.2726
 2641Sol     HW14573   3.211   3.988   2.902 -1.2770  0.9149  0.7686
 2641Sol     MW14574   3.164   3.918   2.934  0.1402 -0.2044  0.1197
 2642Sol     OW14575   0.815   2.308   3.876 -0.9271 -0.3530 -0.1090
 2642Sol     HW14576   0.828   2.394   3.916  0.4562 -0.2062 -0.8626
 2642Sol     HW14577   0.808   2.248   3.950 -0.1856  0.1675  0.3937
 2642Sol     MW14578   0.815   2.310   3.886  0.8166  0.6476  0.1607
 2643Sol     OW14579   3.408   3.096   6.098  0.2211  0.5357 -0.0190
 2643Sol     HW14580   3.346   3.071   6.166  0.3952  2.1890  0.7626
 2643Sol     HW14581   3.493   3.096   6.142  0.4459  0.7565 -0.4544
 2643Sol     MW14582   3.410   3.094   6.108 -0.2872  0.9029  0.2149
 2644Sol     OW14583   3.489   2.424   6.459 -0.2113  0.8869 -0.2041
 2644Sol     HW14584   3.522   2.509   6.488 -0.5284  1.2709 -0.9465
 2644Sol     HW14585   3.551   2.361   6.494  0.0813  1.4322  0.2746
 2644Sol     MW14586   3.498   2.426   6.465  0.0006 -0.5911  0.5793
 2645Sol     OW14587   0.526   0.562   2.672 -0.5616 -0.0170 -0.6746
 2645Sol     HW14588   0.528   0.500   2.745 -2.1565  0.0976 -0.5165
 2645Sol     HW14589   0.575   0.519   2.602  3.3207  0.9826  1.3148
 2645Sol     MW14590   0.530   0.553   2.672  0.6241 -0.3930  0.5211
 2646Sol     OW14591   1.749   2.982   3.396 -0.5027  0.1451 -0.0262
 2646Sol     HW14592   1.792   3.056   3.440  1.4017 -1.4549  0.9047
 2646Sol     HW14593   1.805   2.963   3.321 -1.9981  0.8077 -1.3370
 2646Sol     MW14594   1.758   2.987   3.393 -0.3946 -0.0905 -0.2027
 2647Sol     OW14595   3.145   0.224   6.330  0.1759  0.0021 -0.4038
 2647Sol     HW14596   3.128   0.134   6.302 -1.1444 -0.0094  0.3870
 2647Sol     HW14597   3.241   0.232   6.327  0.3539 -1.6245  0.1011
 2647Sol     MW14598   3.152   0.217   6.328 -0.3989  0.4841 -0.5205
 2648Sol     OW14599   0.997   1.328   1.811  0.3422  0.1817  0.1119
 2648Sol     HW14600   1.014   1.260   1.875 -0.3836 -1.1453 -1.0563
 2648Sol     HW14601   0.919   1.373   1.843 -0.9064 -1.4476 -0.5747
 2648Sol     MW14602   0.992   1.326   1.819  0.2745  0.2011  0.3380
 2649Sol     OW14603   0.478   1.128   5.968  0.5683 -0.1621 -0.4096
 2649Sol     HW14604   0.448   1.039   5.987  0.9502 -0.0470  0.7675
 2649Sol     HW14605   0.534   1.119   5.890 -0.5728 -0.7247 -1.1754
 2649Sol     MW14606   0.480   1.119   5.962 -0.4268 -1.0911  0.5685
 2650Sol     OW14607   1.537   0.049   4.905  0.8153  0.1748 -0.7415
 2650Sol     HW14608   1.619   0.099   4.909  2.0778 -1.8792 -0.2992
 2650Sol     HW14609   1.548  -0.010   4.830  1.4227 -2.8856  1.6398
 2650Sol     MW14610   1.545   0.048   4.899 -0.3159 -0.0248  0.3628
 2651Sol     OW14611   1.747   2.779   6.465 -0.0545 -0.4780 -0.1190
 2651Sol     HW14612   1.674   2.822   6.421  0.8898  1.6710  0.3298
 2651Sol     HW14613   1.788   2.725   6.398  0.1499  1.1823 -1.3495
 2651Sol     MW14614   1.744   2.778   6.455  0.0411 -0.7001 -0.1767
 2652Sol     OW14615   1.264   0.919   5.228 -0.8139 -0.4100 -0.1992
 2652Sol     HW14616   1.189   0.977   5.235  0.0383  0.7615 -0.5406
 2652Sol     HW14617   1.310   0.950   5.149 -1.9171 -3.3975 -2.0934
 2652Sol     MW14618   1.262   0.927   5.221 -0.9754  0.1261 -0.5756
 2653Sol     OW14619   2.711   0.433   1.461  0.9764  0.0048  0.8818
 2653Sol     HW14620   2.660   0.396   1.533 -1.9005 -0.7777 -1.4287
 2653Sol     HW14621   2.649   0.491   1.417  2.1403 -0.7862 -1.8704
 2653Sol     MW14622   2.701   0.435   1.463  0.5364 -0.6165 -0.2754
 2654Sol     OW14623   2.482   1.719   4.563  0.1468 -0.2940  0.5191
 2654Sol     HW14624   2.573   1.724   4.534  0.1495  1.2707  0.7457
 2654Sol     HW14625   2.457   1.628   4.549  0.7082  0.0093 -2.6697
 2654Sol     MW14626   2.488   1.711   4.559  0.5115  0.1343 -0.2555
 2655Sol     OW14627   1.265   1.827   4.678  0.2138  0.5160 -0.0874
 2655Sol     HW14628   1.284   1.914   4.643  0.9125  0.1427 -0.6484
 2655Sol     HW14629   1.346   1.800   4.720 -0.6626  1.0293  2.0139
 2655Sol     MW14630   1.274   1.833   4.679 -0.1419 -0.1325 -0.4907
 2656Sol     OW14631   3.729   0.519   2.818  0.1910 -0.0956 -0.1791
 2656Sol     HW14632   3.734   0.473   2.735  0.2427 -1.0272  0.3324
 2656Sol     HW14633   3.805   0.488   2.868  0.3867  0.7593  0.0566
 2656Sol     MW14634   3.736   0.512   2.815  0.2415 -0.3062  0.2337
 2657Sol     OW14635   0.454   3.451   4.608  0.4673 -0.3411 -0.2555
 2657Sol     HW14636   0.469   3.446   4.514 -0.7311  1.5599 -0.5771
 2657Sol     HW14637   0.363   3.422   4.620  0.5655 -0.4308  0.2923
 2657Sol     MW14638   0.447   3.448   4.601  1.4760  0.5110  0.4391
 2658Sol     OW14639   3.103   0.905   5.819 -0.2550 -0.3786  0.4563
 2658Sol     HW14640   3.014   0.872   5.829  0.0979 -1.9028 -1.1779
 2658Sol     HW14641   3.114   0.967   5.891 -3.2391  1.2226 -0.3920
 2658Sol     MW14642   3.096   0.907   5.826  0.3035 -0.5890 -0.5589
 2659Sol     OW14643   4.048   3.109   3.601  0.2786  0.0942 -0.4123
 2659Sol     HW14644   4.055   3.151   3.515 -0.8295  3.9160  1.2484
 2659Sol     HW14645   3.968   3.058   3.596  0.1663  0.3608 -1.6252
 2659Sol     MW14646   4.042   3.108   3.593  0.2142 -0.1601  0.4063
 2660Sol     OW14647   1.607   2.176   2.237 -1.3094 -0.3456  0.4591
 2660Sol     HW14648   1.595   2.261   2.279  0.9685  0.6705 -0.8940
 2660Sol     HW14649   1.697   2.176   2.206 -1.3626 -3.1277  0.1039
 2660Sol     MW14650   1.614   2.183   2.238  0.4235 -0.5678  0.1671
 2661Sol     OW14651   0.141   1.810   4.834  0.7267 -0.5379 -0.7096
 2661Sol     HW14652   0.196   1.863   4.776  1.2050 -1.2299 -0.8807
 2661Sol     HW14653   0.170   1.720   4.820  1.6182 -0.6169  1.4519
 2661Sol     MW14654   0.148   1.807   4.827 -0.4457  1.2531 -0.4665
 2662Sol     OW14655   2.987   2.296   3.415  0.8918  0.1698  0.4207
 2662Sol     HW14656   2.971   2.202   3.421  0.8273  0.2303  1.3184
 2662Sol     HW14657   3.067   2.304   3.364 -0.3182 -0.2743 -1.5892
 2662Sol     MW14658   2.993   2.288   3.411 -0.2038  0.1426 -0.0012
 2663Sol     OW14659   0.733   2.874   3.713  0.1932  0.6687  0.5817
 2663Sol     HW14660   0.643   2.899   3.690  0.0232  0.2122  0.7409
 2663Sol     HW14661   0.723   2.793   3.763  0.6521  0.9539  1.1321
 2663Sol     MW14662   0.724   2.869   3.715 -0.4157 -0.2984  0.4503
 2664Sol     OW14663   1.722   1.767   5.444 -0.4586 -0.0243 -0.4509
 2664Sol     HW14664   1.734   1.804   5.531 -0.7810 -1.0226  0.0233
 2664Sol     HW14665   1.794   1.803   5.392 -0.2016  0.4796  0.2495
 2664Sol     MW14666   1.729   1.774   5.447  0.2640 -0.1711 -0.3356
 2665Sol     OW14667   2.184   0.653   3.384  0.2085 -0.3743 -0.4583
 2665Sol     HW14668   2.181   0.622   3.475 -1.6064  0.4382 -0.2221
 2665Sol     HW14669   2.134   0.588   3.335  1.4978 -1.0111 -0.9547
 2665Sol     MW14670   2.179   0.644   3.388  0.9904 -0.1036 -0.1680
 2666Sol     OW14671   2.247   2.463   1.774  0.0738 -0.9123 -0.0460
 2666Sol     HW14672   2.232   2.489   1.865 -0.3066  1.0672 -0.6489
 2666Sol     HW14673   2.312   2.526   1.742 -1.2354 -0.3771 -1.7029
 2666Sol     MW14674   2.252   2.471   1.779  0.9147  0.4767 -0.0076
 2667Sol     OW14675   3.365   0.478   4.552  0.3239  0.3652  0.2703
 2667Sol     HW14676   3.351   0.474   4.646 -0.8384 -1.9108  0.0394
 2667Sol     HW14677   3.426   0.407   4.533  0.4462  0.7171 -0.7020
 2667Sol     MW14678   3.369   0.472   4.559 -0.6356  0.0910 -0.2697
 2668Sol     OW14679   0.233   3.689   5.824  0.2504 -0.1324  0.4880
 2668Sol     HW14680   0.172   3.615   5.828 -0.8789  0.6756 -1.1548
 2668Sol     HW14681   0.179   3.765   5.843  1.4424  0.2816  2.3369
 2668Sol     MW14682   0.223   3.689   5.826 -0.0001 -0.1937  0.5018
 2669Sol     OW14683   0.576   2.448   3.168 -0.1880 -0.2508 -0.0643
 2669Sol     HW14684   0.658   2.451   3.218 -1.0660  1.6449  1.3403
 2669Sol     HW14685   0.524   2.381   3.212  0.2212 -0.7946 -0.3881
 2669Sol     MW14686   0.579   2.442   3.176 -0.1664 -0.3235 -0.4493
 2670Sol     OW14687   3.074   0.253   5.464  0.4098  0.3636  0.4372
 2670Sol     HW14688   3.012   0.322   5.438  0.7134  0.7904  0.8492
 2670Sol     HW14689   3.077   0.195   5.388  0.4786  1.0357 -0.0841
 2670Sol     MW14690   3.068   0.254   5.454 -0.7107  0.5975  0.6353
 2671Sol     OW14691   0.187   1.045   2.354  0.8559 -0.0618 -0.2112
 2671Sol     HW14692   0.114   1.056   2.414  1.2819 -1.2842  0.5466
 2671Sol     HW14693   0.154   1.075   2.270  0.2622  1.6918  0.6237
 2671Sol     MW14694   0.178   1.048   2.352  0.0303 -0.0862  0.0260
 2672Sol     OW14695   1.954   1.430   3.507  0.2500 -0.0822  0.2005
 2672Sol     HW14696   2.005   1.467   3.578  0.1942  1.9201 -0.7481
 2672Sol     HW14697   1.866   1.468   3.518 -0.7853 -2.7225  1.2543
 2672Sol     MW14698   1.951   1.437   3.514 -0.9154 -0.6617 -0.3442
 2673Sol     OW14699   0.981   0.355   2.181  0.1568  0.8046  0.1788
 2673Sol     HW14700   0.895   0.397   2.183  0.2164  0.9355 -0.0008
 2673Sol     HW14701   1.037   0.417   2.135  0.0562  0.2060 -0.7925
 2673Sol     MW14702   0.978   0.364   2.177  0.3408  0.1043  0.4048
 2674Sol     OW14703   1.029   3.575   5.388 -0.5918 -0.2920  0.1607
 2674Sol     HW14704   0.934   3.576   5.389 -0.5800  0.2062  1.0393
 2674Sol     HW14705   1.055   3.648   5.444  0.3053 -0.2913 -0.2439
 2674Sol     MW14706   1.023   3.582   5.393  0.3670  0.2350 -0.0044
 2675Sol     OW14707   2.708   3.030   3.044  0.3364 -0.1243  0.1073
 2675Sol     HW14708   2.628   3.069   3.007  0.9805  1.5499  0.4382
 2675Sol     HW14709   2.688   3.018   3.137  0.4223  0.1676  0.1633
 2675Sol     MW14710   2.699   3.032   3.049  0.2209 -0.7082 -0.0959
 2676Sol     OW14711   2.963   3.961   5.239  0.5711  0.6682 -0.3557
 2676Sol     HW14712   2.896   4.015   5.198  1.4693  1.8602 -0.2966
 2676Sol     HW14713   2.937   3.953   5.330 -0.1893 -0.0152 -0.6234
 2676Sol     MW14714   2.955   3.965   5.243 -0.2227  0.1723 -0.1077
 2677Sol     OW14715   1.328   3.608   6.486 -0.1397 -0.8361 -0.8066
 2677Sol     HW14716   1.340   3.700   6.463 -1.0161 -0.3310  0.6880
 2677Sol     HW14717   1.416   3.572   6.486  0.4014  0.4175  0.2256
 2677Sol     MW14718   1.337   3.613   6.484 -0.1951 -0.1209 -0.2600
 2678Sol     OW14719   1.063   0.760   4.643 -0.0337  0.1665  0.5947
 2678Sol     HW14720   1.147   0.761   4.598 -1.1471  4.0950 -1.5961
 2678Sol     HW14721   1.008   0.704   4.589 -0.1914  1.6070 -0.7988
 2678Sol     MW14722   1.066   0.755   4.634 -0.0340 -0.7408  0.0001
 2679Sol     OW14723   0.372   1.911   3.766 -0.8568 -0.2318 -0.3405
 2679Sol     HW14724   0.290   1.961   3.771 -1.1472 -0.2422 -3.6384
 2679Sol     HW14725   0.437   1.967   3.806 -1.7763  1.4855 -1.1941
 2679Sol     MW14726   0.370   1.920   3.770 -0.1600 -0.3307  0.3620
 2680Sol     OW14727   3.436   2.025   5.556 -0.1303  0.7820  0.5310
 2680Sol     HW14728   3.420   1.982   5.641  0.9577 -0.9274 -0.0979
 2680Sol     HW14729   3.369   2.094   5.551  0.1204  1.2388  2.9891
 2680Sol     MW14730   3.428   2.027   5.563  0.5835  0.1112 -0.2148
 2681Sol     OW14731   0.385   0.685   5.452 -0.3083 -0.1108  0.0133
 2681Sol     HW14732   0.446   0.743   5.407  0.1475  0.1364  0.9510
 2681Sol     HW14733   0.400   0.599   5.412  0.2468  0.0625 -0.1522
 2681Sol     MW14734   0.392   0.682   5.445 -0.4760  0.3362  0.0516
 2682Sol     OW14735   2.364   0.114   4.652  0.6592 -0.6728  0.2559
 2682Sol     HW14736   2.424   0.050   4.614 -1.3076 -1.7437 -1.1555
 2682Sol     HW14737   2.374   0.192   4.598  1.1121 -0.6814  0.3240
 2682Sol     MW14738   2.370   0.115   4.644  0.2949 -0.2369  0.2601
 2683Sol     OW14739   1.041   3.623   5.862  0.0401 -0.6079  0.0013
 2683Sol     HW14740   1.119   3.573   5.837 -1.4160 -3.3096  0.6984
 2683Sol     HW14741   1.010   3.660   5.780  1.4682 -0.3519 -0.4507
 2683Sol     MW14742   1.046   3.622   5.852  0.0291  0.0862  0.1040
 2684Sol     OW14743   1.038   1.542   3.643 -0.6848  0.0116  0.0097
 2684Sol     HW14744   1.027   1.585   3.558 -1.7568 -0.0724  0.0899
 2684Sol     HW14745   1.045   1.449   3.621 -1.2580 -0.0383  0.0294
 2684Sol     MW14746   1.037   1.537   3.633  0.4159 -0.7853  0.1284
 2685Sol     OW14747   0.040   2.685   4.340 -0.4203 -0.0080  0.4443
 2685Sol     HW14748   0.029   2.599   4.381 -1.0654 -0.3422 -0.3995
 2685Sol     HW14749  -0.047   2.706   4.305  0.1429  0.1897 -0.8670
 2685Sol     MW14750   0.031   2.679   4.340  0.0976 -0.1207 -0.0915
 2686Sol     OW14751   2.541   2.641   3.702 -0.1333  0.0399  0.2115
 2686Sol     HW14752   2.524   2.701   3.774  0.8540  0.7698 -0.1556
 2686Sol     HW14753   2.472   2.660   3.638  0.2981  0.9377  0.0051
 2686Sol     MW14754   2.533   2.648   3.703  0.2430 -0.0980  0.3383
 2687Sol     OW14755   2.497   0.846   4.412 -0.2520  0.1045  0.3721
 2687Sol     HW14756   2.514   0.888   4.497 -0.5647  1.5947 -0.2995
 2687Sol     HW14757   2.421   0.790   4.428 -0.7002  0.8565  0.9197
 2687Sol     MW14758   2.492   0.845   4.421 -0.3899  0.1535 -0.6992
 2688Sol     OW14759   2.896   0.758   4.682 -0.0693 -0.1741  0.1831
 2688Sol     HW14760   2.857   0.773   4.596 -0.0783  2.4823  0.6198
 2688Sol     HW14761   2.930   0.668   4.677  0.5341  0.1683 -2.8194
 2688Sol     MW14762   2.896   0.751   4.673 -0.1262  0.9290  0.2461
 2689Sol     OW14763   2.483   0.133   3.093  0.2222 -0.5598  0.3016
 2689Sol     HW14764   2.508   0.210   3.042  1.5756 -0.8851  0.4592
 2689Sol     HW14765   2.544   0.133   3.167 -0.9155 -0.7922  1.2563
 2689Sol     MW14766   2.491   0.140   3.095  0.2264  0.2976  0.7088
 2690Sol     OW14767   0.097   1.386   2.191  0.1455 -0.4953  0.4404
 2690Sol     HW14768   0.091   1.463   2.248 -0.1391  0.3161 -0.6772
 2690Sol     HW14769   0.130   1.419   2.108 -1.5263 -1.2988 -0.5792
 2690Sol     MW14770   0.099   1.396   2.189  0.1836 -0.4653 -0.0915
 2691Sol     OW14771   1.341   0.685   3.166  0.1246  0.1625  0.2861
 2691Sol     HW14772   1.398   0.618   3.128 -2.7762 -1.5323 -1.2437
 2691Sol     HW14773   1.288   0.715   3.092 -0.7167  1.9394  1.5989
 2691Sol     MW14774   1.342   0.681   3.156 -0.0714  0.2704 -0.7661
 2692Sol     OW14775   0.496   1.253   2.833 -0.4910  0.2445 -0.3821
 2692Sol     HW14776   0.479   1.169   2.877 -1.3934  1.9358  2.6457
 2692Sol     HW14777   0.581   1.281   2.867 -0.2727  0.6510 -1.2547
 2692Sol     MW14778   0.502   1.248   2.840 -0.1523  0.3311 -0.7058
 2693Sol     OW14779   1.057   1.788   4.255  0.1932 -0.5194  0.3471
 2693Sol     HW14780   0.975   1.808   4.300  0.4757  2.3364 -0.2727
 2693Sol     HW14781   1.036   1.714   4.198 -1.7969 -0.1864  0.6126
 2693Sol     MW14782   1.048   1.783   4.254  0.2110  0.1598 -0.0807
 2694Sol     OW14783   3.613   2.062   5.212  0.0129 -0.1258  0.3867
 2694Sol     HW14784   3.654   2.125   5.152 -0.3678 -0.9929 -0.7980
 2694Sol     HW14785   3.662   2.071   5.293 -0.1318  1.8221  0.2888
 2694Sol     MW14786   3.621   2.069   5.214 -0.1892 -0.2241  0.3644
 2695Sol     OW14787   1.271   3.796   3.417 -0.2533 -0.3871  0.5571
 2695Sol     HW14788   1.197   3.759   3.369  0.5321 -0.5920 -0.5148
 2695Sol     HW14789   1.268   3.890   3.397  0.5523 -0.5965 -0.5466
 2695Sol     MW14790   1.264   3.801   3.411  1.2675  0.3493  0.0022
 2696Sol     OW14791   3.761   1.422   5.757 -0.0459 -0.6508 -0.0307
 2696Sol     HW14792   3.817   1.401   5.832 -0.9871 -0.5421  0.7153
 2696Sol     HW14793   3.818   1.470   5.697  0.2628  0.8559  1.4214
 2696Sol     MW14794   3.771   1.424   5.759 -0.7464  0.3445 -1.1071
 2697Sol     OW14795   2.596   1.978   2.835 -0.4395 -0.7749 -0.5260
 2697Sol     HW14796   2.549   2.021   2.907  2.1177  1.5816 -0.1521
 2697Sol     HW14797   2.683   1.960   2.871  0.5305 -0.5561 -2.6789
 2697Sol     MW14798   2.599   1.980   2.845  0.9786  0.3125  0.1102
 2698Sol     OW14799   2.859   3.420   4.155 -0.4810  0.3408 -0.1878
 2698Sol     HW14800   2.808   3.382   4.084 -2.5657 -0.4293  1.6673
 2698Sol     HW14801   2.930   3.357   4.171  0.0661  0.5780 -1.6332
 2698Sol     MW14802   2.861   3.411   4.150 -0.0711  0.2362  0.5232
 2699Sol     OW14803   3.415   0.946   4.826 -0.2046  0.2915  0.2034
 2699Sol     HW14804   3.320   0.936   4.814 -0.1430  0.7112 -0.6676
 2699Sol     HW14805   3.424   1.028   4.875 -0.3595 -0.5070  1.6126
 2699Sol     MW14806   3.407   0.952   4.830 -0.4923  0.5257 -0.4318
 2700Sol     OW14807   2.368   3.552   1.883 -0.3191 -0.0825 -0.1014
 2700Sol     HW14808   2.361   3.620   1.816 -0.3278  0.6177  0.6010
 2700Sol     HW14809   2.459   3.559   1.914  0.0775 -1.2936 -0.9716
 2700Sol     MW14810   2.376   3.559   1.880 -1.0198 -0.0076 -0.4088
 2701Sol     OW14811   1.242   1.124   5.958 -0.9290  0.2670  0.2110
 2701Sol     HW14812   1.216   1.207   5.996  2.0127 -0.0992  3.2820
 2701Sol     HW14813   1.291   1.148   5.879 -2.1410  1.3181 -0.2298
 2701Sol     MW14814   1.244   1.133   5.954 -0.0650  1.1571 -0.3273
 2702Sol     OW14815   0.519   1.755   1.773  0.1651 -0.2029  0.8102
 2702Sol     HW14816   0.548   1.719   1.689 -1.5628  0.0712  0.0849
 2702Sol     HW14817   0.425   1.740   1.774  0.2472 -0.7033  2.9534
 2702Sol     MW14818   0.513   1.750   1.765 -0.3338  0.1059 -0.2050
 2703Sol     OW14819   3.702   2.910   6.512 -0.5220 -0.7741 -0.1015
 2703Sol     HW14820   3.790   2.905   6.474  0.1404  0.0737  1.2946
 2703Sol     HW14821   3.717   2.933   6.603 -2.3041  1.2511 -0.2980
 2703Sol     MW14822   3.712   2.911   6.516 -0.2544 -0.0242 -0.2140
 2704Sol     OW14823   0.472   1.814   3.320  0.3387 -0.4705 -0.5831
 2704Sol     HW14824   0.398   1.875   3.319 -0.4647 -1.4368 -0.5298
 2704Sol     HW14825   0.518   1.834   3.402 -0.5914 -0.7221  0.0064
 2704Sol     MW14826   0.470   1.822   3.328 -0.0844  0.2138  0.4985
 2705Sol     OW14827   0.859   4.019   6.248  0.2743 -0.5099  0.3978
 2705Sol     HW14828   0.891   3.954   6.184  0.9853  0.2648 -0.0474
 2705Sol     HW14829   0.843   4.098   6.196  0.5520  0.0295  1.1229
 2705Sol     MW14830   0.861   4.020   6.237 -0.5221 -0.1057  0.5907
 2706Sol     OW14831   1.906   3.050   2.134 -0.0982 -0.2983 -0.3359
 2706Sol     HW14832   1.964   2.974   2.132 -0.4466 -0.6080  1.0506
 2706Sol     HW14833   1.826   3.020   2.090 -1.2788 -1.6361  2.5994
 2706Sol     MW14834   1.904   3.041   2.130  0.1778  0.3205  0.3872
 2707Sol     OW14835   3.178   4.063   2.681  0.0286  0.4052 -0.2892
 2707Sol     HW14836   3.260   4.066   2.631 -0.9371  1.5112 -1.8567
 2707Sol     HW14837   3.154   4.154   2.693 -0.6126  0.1010  0.7959
 2707Sol     MW14838   3.183   4.071   2.678 -0.3125 -0.2978  0.2470
 2708Sol     OW14839   0.485   2.763   3.370 -0.7422  0.1557 -0.1321
 2708Sol     HW14840   0.512   2.676   3.399 -0.1280 -0.6304 -2.8982
 2708Sol     HW14841   0.407   2.748   3.317  0.0037  1.1483 -1.5519
 2708Sol     MW14842   0.481   2.754   3.368  0.3918  0.0160 -0.2699
 2709Sol     OW14843   2.299   2.149   2.795  0.1395 -0.1494 -0.3648
 2709Sol     HW14844   2.352   2.106   2.862 -0.3853  1.0921  0.8723
 2709Sol     HW14845   2.220   2.177   2.842 -1.1914 -1.1590 -1.9735
 2709Sol     MW14846   2.297   2.148   2.806  0.3915  0.2779  0.5208
 2710Sol     OW14847   1.981   2.447   3.144  0.4708 -0.1974  0.0698
 2710Sol     HW14848   1.936   2.418   3.223 -2.2001  1.3276 -0.8048
 2710Sol     HW14849   1.937   2.529   3.121  1.0171 -0.7329 -3.0979
 2710Sol     MW14850   1.973   2.452   3.149 -0.6261 -0.2139 -0.4152
 2711Sol     OW14851   3.964   1.134   1.921  0.6340  0.2520  0.2052
 2711Sol     HW14852   3.929   1.049   1.895  1.6815 -0.4888  1.1388
 2711Sol     HW14853   3.965   1.186   1.841 -0.9711 -0.2694 -0.1608
 2711Sol     MW14854   3.961   1.131   1.912  0.1154  0.6576  0.0078
 2712Sol     OW14855   2.944   1.144   2.331 -0.1801 -0.4623 -0.7253
 2712Sol     HW14856   2.857   1.152   2.371 -0.7273  0.6178 -2.0654
 2712Sol     HW14857   2.952   1.223   2.277  0.1987 -2.2113 -3.2921
 2712Sol     MW14858   2.937   1.152   2.330  0.4687  0.6394  0.0281
 2713Sol     OW14859   3.951   2.309   4.045 -0.5354  1.0013  0.0689
 2713Sol     HW14860   3.877   2.270   3.998 -0.8507  0.4109  1.0625
 2713Sol     HW14861   4.026   2.255   4.020 -0.6602  0.8237  0.0789
 2713Sol     MW14862   3.951   2.301   4.038  0.1029 -0.2875  0.1536
 2714Sol     OW14863   0.321   2.018   3.224 -0.1737 -0.4097 -0.3162
 2714Sol     HW14864   0.383   2.086   3.249  0.5440 -0.6041 -1.5584
 2714Sol     HW14865   0.238   2.047   3.262  0.8216 -0.6016  2.1344
 2714Sol     MW14866   0.319   2.027   3.230 -0.2342  0.3824  0.5144
 2715Sol     OW14867   0.708   0.244   6.656 -0.6917 -0.3938 -0.4456
 2715Sol     HW14868   0.726   0.179   6.724 -0.8255  0.5276  0.4658
 2715Sol     HW14869   0.615   0.261   6.663 -0.3508  1.1569  0.4417
 2715Sol     MW14870   0.701   0.239   6.663 -0.2760  0.0407  0.2884
 2716Sol     OW14871   3.539   1.787   5.442 -0.0105 -0.0295 -0.4852
 2716Sol     HW14872   3.603   1.769   5.511  0.4374 -1.6203 -1.2725
 2716Sol     HW14873   3.503   1.873   5.463 -0.4765 -0.8270  2.1817
 2716Sol     MW14874   3.541   1.793   5.450 -0.1574  0.3026 -0.1437
 2717Sol     OW14875   3.673   0.746   4.465 -0.3369 -0.0051 -0.6581
 2717Sol     HW14876   3.723   0.682   4.515  0.3429  0.3281 -0.8990
 2717Sol     HW14877   3.644   0.811   4.530 -1.1763 -0.6461 -0.3883
 2717Sol     MW14878   3.675   0.746   4.475 -0.2858  0.3769  0.0690
 2718Sol     OW14879   0.183   1.991   5.672 -0.0897 -0.5473  0.4526
 2718Sol     HW14880   0.187   2.058   5.604  0.4200 -2.3880 -1.3686
 2718Sol     HW14881   0.145   2.036   5.748  0.4504  1.8408 -0.6489
 2718Sol     MW14882   0.180   2.001   5.673  0.2786  0.2074  0.0412
 2719Sol     OW14883   3.283   3.441   5.590 -0.3641  0.2534 -0.5824
 2719Sol     HW14884   3.297   3.504   5.661 -1.1712  1.5607 -1.5599
 2719Sol     HW14885   3.362   3.448   5.536 -1.2017  1.7282 -1.6513
 2719Sol     MW14886   3.291   3.447   5.591 -0.5567  0.7029  0.1496
 2720Sol     OW14887   2.116   1.503   3.304 -0.4480 -0.5420  0.2855
 2720Sol     HW14888   2.178   1.433   3.284 -0.5186 -0.4480 -0.2959
 2720Sol     HW14889   2.075   1.478   3.386  0.8572 -0.2732  1.0397
 2720Sol     MW14890   2.118   1.495   3.309  0.1905 -0.2702  0.0010
 2721Sol     OW14891   1.128   2.673   3.317 -0.4525 -0.0664 -0.1752
 2721Sol     HW14892   1.149   2.763   3.345 -1.6703  0.3076 -0.4696
 2721Sol     HW14893   1.085   2.634   3.393 -1.4506  0.1413 -0.6267
 2721Sol     MW14894   1.126   2.678   3.326 -0.3158 -0.2667  0.5256
 2722Sol     OW14895   1.061   0.046   5.366 -0.2998 -0.3615 -0.3127
 2722Sol     HW14896   1.090  -0.022   5.304  0.4926 -1.5439  1.3135
 2722Sol     HW14897   1.142   0.075   5.408 -0.7140  1.1744 -0.5450
 2722Sol     MW14898   1.071   0.042   5.364  0.3350 -0.0991 -0.9059
 2723Sol     OW14899   2.722   3.539   1.598  0.1847 -0.1747 -0.1494
 2723Sol     HW14900   2.794   3.505   1.545 -0.8428 -1.0254 -1.0262
 2723Sol     HW14901   2.656   3.470   1.597 -2.0808  1.8980 -2.2364
 2723Sol     MW14902   2.722   3.530   1.593  0.2655 -0.3197 -0.0659
 2724Sol     OW14903   2.373   1.860   4.753  0.4867 -0.5686  0.0571
 2724Sol     HW14904   2.284   1.826   4.754  0.1524  0.2684 -0.0973
 2724Sol     HW14905   2.424   1.796   4.704 -0.1530 -0.7742 -0.3435
 2724Sol     MW14906   2.369   1.852   4.749  0.2507  0.0163 -0.0619
 2725Sol     OW14907   4.015   1.500   4.381  0.3818 -0.3889  0.1072
 2725Sol     HW14908   3.954   1.490   4.308 -1.2108  0.4412  1.3054
 2725Sol     HW14909   4.085   1.555   4.346 -1.1486  1.2890 -0.3459
 2725Sol     MW14910   4.016   1.504   4.371  0.0108 -0.3529  0.4226
 2726Sol     OW14911   3.552   0.378   3.616  0.1301 -0.3038  0.2486
 2726Sol     HW14912   3.573   0.448   3.678 -2.2374  0.1341  0.6150
 2726Sol     HW14913   3.601   0.401   3.537  1.3682  0.3812  1.1957
 2726Sol     MW14914   3.558   0.387   3.614  0.1966 -0.2661  0.5069
 2727Sol     OW14915   3.107   3.856   3.817  1.0766  0.0143  0.1145
 2727Sol     HW14916   3.160   3.861   3.896 -0.3103  0.3624  1.0388
 2727Sol     HW14917   3.103   3.946   3.785  1.7286 -0.1430 -0.4269
 2727Sol     MW14918   3.112   3.865   3.821  0.0871 -0.2028  0.1998
 2728Sol     OW14919   1.067   3.252   5.410 -0.2087  0.1506 -0.3145
 2728Sol     HW14920   1.018   3.245   5.328 -1.2596  2.7079  0.0560
 2728Sol     HW14921   1.033   3.182   5.465 -1.2386 -0.0489 -1.1920
 2728Sol     MW14922   1.060   3.246   5.408 -0.2283 -0.3781  0.1148
 2729Sol     OW14923   2.640   3.615   1.876  0.1057 -0.1130 -0.5790
 2729Sol     HW14924   2.719   3.620   1.928  0.0711  2.8328 -0.7170
 2729Sol     HW14925   2.667   3.573   1.794  1.2730 -0.1168 -0.1909
 2729Sol     MW14926   2.649   3.612   1.873 -0.1622 -0.0176 -0.2250
 2730Sol     OW14927   3.725   3.377   6.187  0.3044  0.1156  0.3924
 2730Sol     HW14928   3.777   3.445   6.143 -1.2838  0.1824 -1.4310
 2730Sol     HW14929   3.678   3.424   6.256 -1.8646  1.2024 -1.7365
 2730Sol     MW14930   3.726   3.387   6.189 -0.1686  0.4056  0.3316
 2731Sol     OW14931   2.814   2.968   6.386 -0.4488  0.1793  0.2162
 2731Sol     HW14932   2.729   3.003   6.411 -0.5646 -1.2277  1.8920
 2731Sol     HW14933   2.806   2.947   6.292 -0.9487  2.8266 -0.3631
 2731Sol     MW14934   2.806   2.969   6.379 -0.0873 -0.3919  0.4197
 2732Sol     OW14935   2.147   2.119   1.862  0.0036 -0.0243 -0.1242
 2732Sol     HW14936   2.195   2.136   1.943  1.2715 -2.0291 -0.4299
 2732Sol     HW14937   2.101   2.037   1.878 -0.1732 -0.1533 -1.2631
 2732Sol     MW14938   2.147   2.113   1.871 -0.1560 -0.2298  0.3217
 2733Sol     OW14939   2.343   2.349   5.201 -0.5935 -0.1079  0.1628
 2733Sol     HW14940   2.340   2.254   5.196 -0.5247 -0.1058  0.0934
 2733Sol     HW14941   2.409   2.367   5.268  1.3129 -0.0582 -1.6740
 2733Sol     MW14942   2.348   2.342   5.207 -0.6408 -0.8553 -0.3833
 2734Sol     OW14943   1.410   3.584   4.403  0.0810 -0.1947 -0.3223
 2734Sol     HW14944   1.421   3.676   4.377  1.2032 -0.4634 -0.8239
 2734Sol     HW14945   1.499   3.555   4.425 -0.3454 -1.0173  0.3203
 2734Sol     MW14946   1.419   3.590   4.402 -1.0910  0.6390 -0.0125
 2735Sol     OW14947   2.125   2.792   6.167 -0.2726  0.1040 -0.0808
 2735Sol     HW14948   2.188   2.719   6.170  1.0377  1.2200 -0.0535
 2735Sol     HW14949   2.134   2.836   6.251  0.0886  1.2432 -0.7061
 2735Sol     MW14950   2.131   2.789   6.174  0.0648  0.9785  0.0376
 2736Sol     OW14951   3.757   3.389   5.014  0.2878 -0.0802 -0.2707
 2736Sol     HW14952   3.704   3.394   5.094  1.4703  1.3833  0.4534
 2736Sol     HW14953   3.775   3.481   4.992  1.5611 -0.5318 -1.1376
 2736Sol     MW14954   3.754   3.398   5.019  0.2035  0.2147 -1.1204
 2737Sol     OW14955   3.109   1.694   3.867  0.1722 -0.9982 -0.0083
 2737Sol     HW14956   3.079   1.705   3.957  0.7969 -0.2552  0.1104
 2737Sol     HW14957   3.089   1.777   3.825  1.3425 -0.7683 -0.1331
 2737Sol     MW14958   3.104   1.703   3.871  0.3692  0.0562 -0.8118
 2738Sol     OW14959   2.753   2.049   4.928 -0.4773 -0.1840  0.1233
 2738Sol     HW14960   2.725   2.013   5.012  0.0446 -0.8889 -0.0069
 2738Sol     HW14961   2.831   2.101   4.949 -1.0640  0.6583  0.2656
 2738Sol     MW14962   2.757   2.051   4.937  0.0206  0.5217  0.1455
 2739Sol     OW14963   1.813   2.319   5.446 -0.4634 -0.2845 -0.0120
 2739Sol     HW14964   1.905   2.304   5.424  0.0668  0.1561  1.8781
 2739Sol     HW14965   1.811   2.406   5.486 -1.6692 -0.3835  0.1833
 2739Sol     MW14966   1.821   2.326   5.447 -0.1214  0.1462  0.1718
 2740Sol     OW14967   0.051   1.573   3.926  0.1141 -0.7207  0.2008
 2740Sol     HW14968   0.048   1.500   3.864 -0.6947 -0.1944 -0.3733
 2740Sol     HW14969   0.140   1.571   3.961  0.2146 -1.7382 -0.1091
 2740Sol     MW14970   0.059   1.566   3.924 -0.5158  0.3858  0.0430
 2741Sol     OW14971   3.928   0.821   3.026  0.1462 -0.1930 -0.3174
 2741Sol     HW14972   3.917   0.860   2.939  0.6372 -1.4730 -0.9528
 2741Sol     HW14973   4.019   0.837   3.049  0.3280 -0.8900 -0.5444
 2741Sol     MW14974   3.935   0.826   3.020  0.2575  0.1437  0.3890
 2742Sol     OW14975   1.499   2.791   6.333  0.2118 -0.1073  0.1821
 2742Sol     HW14976   1.525   2.752   6.249  0.0481  1.4455 -0.6063
 2742Sol     HW14977   1.407   2.814   6.321  0.8681  2.5387 -0.1723
 2742Sol     MW14978   1.493   2.790   6.324 -0.1113  0.1184  0.2250
 2743Sol     OW14979   2.439   3.463   4.562 -0.6759  0.5217 -0.2138
 2743Sol     HW14980   2.464   3.488   4.651  0.7416 -0.2164 -0.3890
 2743Sol     HW14981   2.478   3.377   4.550 -2.0272  0.0142 -1.0722
 2743Sol     MW14982   2.444   3.458   4.569 -0.4655 -0.3953  0.2612
 2744Sol     OW14983   2.076   2.051   3.133 -0.4982 -0.4446 -0.2854
 2744Sol     HW14984   2.092   2.123   3.072 -1.2829  1.1554  1.3493
 2744Sol     HW14985   2.134   2.069   3.207 -2.3089 -0.2757  1.1088
 2744Sol     MW14986   2.083   2.059   3.134  0.2342 -0.0316  0.0166
 2745Sol     OW14987   2.181   2.565   6.446 -0.1505 -0.2777  0.2173
 2745Sol     HW14988   2.105   2.506   6.447  0.1387 -0.6892 -1.2476
 2745Sol     HW14989   2.160   2.631   6.513 -0.8153 -1.6011  1.3567
 2745Sol     MW14990   2.172   2.566   6.452  0.0068  0.1099  0.1608
 2746Sol     OW14991   3.374   2.085   4.779  0.7865  0.0807  0.0028
 2746Sol     HW14992   3.444   2.140   4.814 -0.3358  0.1284  2.2939
 2746Sol     HW14993   3.321   2.145   4.725  1.5785  0.4170 -0.4063
 2746Sol     MW14994   3.375   2.096   4.777  0.1653 -0.4165 -0.2232
 2747Sol     OW14995   3.622   1.236   2.629 -0.1364 -0.3269 -0.3977
 2747Sol     HW14996   3.627   1.194   2.715 -2.1833 -1.4940 -0.8042
 2747Sol     HW14997   3.686   1.188   2.576 -0.0927 -0.7298  0.0141
 2747Sol     MW14998   3.629   1.228   2.632  0.5056 -0.2116 -0.4074
 2748Sol     OW14999   0.030   2.249   4.844  0.5375  0.2493 -0.5945
 2748Sol     HW15000  -0.039   2.315   4.855 -0.1488 -0.4429 -0.7623
 2748Sol     HW15001   0.056   2.227   4.933  0.5991  0.5768 -0.5318
 2748Sol     MW15002   0.026   2.253   4.853  0.4369 -0.2197 -0.9484
 2749Sol     OW15003   1.447   1.956   3.982 -0.2275 -0.3573  0.2856
 2749Sol     HW15004   1.370   2.007   3.956 -1.1735 -2.2726 -0.6918
 2749Sol     HW15005   1.419   1.909   4.060 -0.3485 -1.7737 -0.6039
 2749Sol     MW15006   1.438   1.957   3.987 -0.1217 -0.0955  0.3647
 2750Sol     OW15007   0.199   1.367   5.253 -0.0272 -0.1874 -0.4118
 2750Sol     HW15008   0.193   1.461   5.264  0.4714 -0.1296 -0.6151
 2750Sol     HW15009   0.137   1.331   5.316 -1.0455  0.3115 -1.1250
 2750Sol     MW15010   0.193   1.372   5.260  0.5277 -0.0345 -0.4185
 2751Sol     OW15011   3.402   0.850   1.961 -0.2052  0.2759  0.0044
 2751Sol     HW15012   3.444   0.785   1.905 -1.2179 -0.5183  0.1500
 2751Sol     HW15013   3.358   0.910   1.901  0.4242  0.6090 -0.1201
 2751Sol     MW15014   3.402   0.849   1.951 -0.4731  0.2499 -0.2602
 2752Sol     OW15015   1.381   0.287   4.969  0.2160  0.2293  0.5225
 2752Sol     HW15016   1.432   0.205   4.971  0.0765  0.1395  0.3633
 2752Sol     HW15017   1.444   0.354   4.943  0.5721  0.3416  1.6197
 2752Sol     MW15018   1.391   0.285   4.967 -0.2792  0.0179 -0.1986
 2753Sol     OW15019   0.357   2.589   3.026 -0.1863  0.4157 -0.1279
 2753Sol     HW15020   0.440   2.551   3.055  0.1122  0.5811 -0.7787
 2753Sol     HW15021   0.320   2.628   3.106  1.6577  2.7927 -0.4009
 2753Sol     MW15022   0.361   2.589   3.036  0.3256  0.1404  0.5530
 2754Sol     OW15023   1.557   0.044   5.454 -0.2116 -0.3505 -0.3397
 2754Sol     HW15024   1.613   0.120   5.436  0.2369 -0.7590 -0.6795
 2754Sol     HW15025   1.477   0.082   5.491  0.4144  0.2246  0.4568
 2754Sol     MW15026   1.555   0.054   5.456  0.4295 -1.0155  0.1777
 2755Sol     OW15027   0.927   0.979   4.587 -1.0743 -0.2528  0.7029
 2755Sol     HW15028   0.849   0.981   4.643 -2.3534  1.4063 -1.0781
 2755Sol     HW15029   0.973   0.900   4.614 -2.0804  0.0609  3.5232
 2755Sol     MW15030   0.924   0.972   4.595 -0.5957  0.9299 -0.0811
 2756Sol     OW15031   3.323   0.857   1.428  0.2532 -0.1185 -0.0438
 2756Sol     HW15032   3.236   0.847   1.466 -0.8286 -1.3934 -2.7076
 2756Sol     HW15033   3.311   0.916   1.354  2.3271  2.4108  1.5627
 2756Sol     MW15034   3.314   0.861   1.425  0.1738 -0.2501  0.0891
 2757Sol     OW15035   0.821   3.425   1.736 -0.3055 -0.1852 -0.1322
 2757Sol     HW15036   0.837   3.403   1.828 -0.3847 -0.2924 -0.1446
 2757Sol     HW15037   0.766   3.354   1.703  0.0095 -0.3225 -0.3585
 2757Sol     MW15038   0.818   3.417   1.741  0.3188 -0.2481 -0.4799
 2758Sol     OW15039   3.364   2.013   3.215 -0.5843 -0.9627  0.0287
 2758Sol     HW15040   3.433   1.983   3.154 -2.3031 -0.8043 -2.0596
 2758Sol     HW15041   3.293   1.950   3.203 -2.5765  1.4157 -1.2570
 2758Sol     MW15042   3.364   2.005   3.208  0.2481 -0.8849  0.5101
 2759Sol     OW15043   1.531   3.418   3.295 -0.1708 -0.2547  0.1813
 2759Sol     HW15044   1.567   3.377   3.216 -1.0738 -0.1440 -0.3029
 2759Sol     HW15045   1.499   3.503   3.265 -1.1698 -0.5071  0.5025
 2759Sol     MW15046   1.531   3.422   3.285 -0.2390 -0.6321  0.3000
 2760Sol     OW15047   2.223   2.298   4.303  0.3809 -0.5752 -0.0910
 2760Sol     HW15048   2.150   2.309   4.241 -1.0663  0.9639  1.8345
 2760Sol     HW15049   2.181   2.275   4.386  2.2150 -1.3584  0.6388
 2760Sol     MW15050   2.213   2.297   4.305  0.6633  0.3275 -0.4026
 2761Sol     OW15051   3.342   3.312   3.571  0.2101  0.1400 -1.1616
 2761Sol     HW15052   3.384   3.394   3.545  2.1087 -1.0620 -2.0492
 2761Sol     HW15053   3.313   3.327   3.661  2.5986  1.0756 -0.4925
 2761Sol     MW15054   3.344   3.320   3.577 -0.1678 -0.0615  0.7035
 2762Sol     OW15055   3.681   1.153   5.900  0.0015  0.0111 -0.1484
 2762Sol     HW15056   3.708   1.062   5.911  1.4961  0.2821 -1.4116
 2762Sol     HW15057   3.742   1.202   5.956  0.6459  0.4233 -1.2034
 2762Sol     MW15058   3.689   1.149   5.906 -0.0771 -0.0213 -0.5149
 2763Sol     OW15059   3.474   2.635   3.058  0.2135  0.4588  1.1432
 2763Sol     HW15060   3.477   2.705   2.993  1.1825 -0.2324  0.4172
 2763Sol     HW15061   3.439   2.560   3.011  0.3816  0.1113  1.5670
 2763Sol     MW15062   3.471   2.634   3.048 -0.2612 -0.5677 -0.2147
 2764Sol     OW15063   2.660   2.152   3.709 -0.0541 -0.0490  0.1356
 2764Sol     HW15064   2.608   2.217   3.660  0.4626  1.0203  0.9930
 2764Sol     HW15065   2.728   2.203   3.753  0.6767 -1.2379  0.4258
 2764Sol     MW15066   2.661   2.162   3.708  0.1844 -0.1682 -0.4473
 2765Sol     OW15067   3.516   3.173   5.298  0.4861 -0.2814  0.0155
 2765Sol     HW15068   3.551   3.207   5.380  2.1447 -1.9596  0.0493
 2765Sol     HW15069   3.440   3.121   5.324 -0.0231  0.6099  0.3052
 2765Sol     MW15070   3.512   3.171   5.307  0.0272 -0.4882  0.2472
 2766Sol     OW15071   2.365   1.565   3.116  0.2850  0.3331 -0.0303
 2766Sol     HW15072   2.457   1.548   3.094  1.0820  3.1348  0.9074
 2766Sol     HW15073   2.369   1.603   3.204 -1.9640 -1.3544  0.8329
 2766Sol     MW15074   2.374   1.567   3.122  0.1041  0.0513 -0.2017
 2767Sol     OW15075   1.926   0.209   3.839  0.1327  0.5176 -0.0695
 2767Sol     HW15076   2.011   0.182   3.804 -0.5186 -1.5256 -0.1804
 2767Sol     HW15077   1.865   0.199   3.766 -0.3242  1.3363  0.1901
 2767Sol     MW15078   1.928   0.206   3.829 -0.1510  0.2790 -0.3539
 2768Sol     OW15079   3.909   2.451   4.841 -0.3575 -0.0807 -0.6510
 2768Sol     HW15080   3.882   2.437   4.751 -0.6940 -2.1353 -0.2673
 2768Sol     HW15081   3.918   2.546   4.850  2.7124  0.0029 -3.7031
 2768Sol     MW15082   3.907   2.458   4.834  0.5034 -0.3936  0.0173
 2769Sol     OW15083   3.012   0.688   6.231  0.0543  0.1900 -0.6578
 2769Sol     HW15084   2.916   0.696   6.235  0.1741  0.8479  2.1588
 2769Sol     HW15085   3.042   0.777   6.212  0.1274  0.0558 -1.1758
 2769Sol     MW15086   3.006   0.697   6.230 -0.0099 -0.3824 -0.2362
 2770Sol     OW15087   1.071   3.507   1.650 -0.1175  0.8413  0.2528
 2770Sol     HW15088   0.983   3.479   1.675 -0.1046  3.1631  3.1368
 2770Sol     HW15089   1.058   3.589   1.604  0.4878  0.7663 -0.0570
 2770Sol     MW15090   1.062   3.512   1.649  0.2158  0.5084 -0.1315
 2771Sol     OW15091   0.607   4.086   4.240 -0.0252  0.1643  0.0360
 2771Sol     HW15092   0.630   4.156   4.178  1.3940  0.1903  0.5831
 2771Sol     HW15093   0.534   4.040   4.198 -0.0128  1.0686 -0.9981
 2771Sol     MW15094   0.602   4.088   4.230 -0.3349  0.0795  0.3545
 2772Sol     OW15095   1.257   2.930   4.315 -0.6033  0.2634  0.2651
 2772Sol     HW15096   1.234   3.017   4.282  1.7494  1.0951  0.7397
 2772Sol     HW15097   1.350   2.936   4.337 -0.6943 -2.0209  1.4512
 2772Sol     MW15098   1.263   2.939   4.314 -0.4441 -0.4522 -0.3583
 2773Sol     OW15099   0.597   0.242   5.251 -0.2762 -0.2077  0.0456
 2773Sol     HW15100   0.690   0.221   5.255 -0.4651 -1.1127 -0.4318
 2773Sol     HW15101   0.560   0.179   5.190 -1.0479  0.7358 -0.4638
 2773Sol     MW15102   0.602   0.235   5.246 -0.1544  0.2513 -0.1874
 2774Sol     OW15103   3.334   1.488   6.606  0.4825 -0.2107 -0.0746
 2774Sol     HW15104   3.383   1.570   6.597  2.3872 -1.1934  1.1949
 2774Sol     HW15105   3.270   1.507   6.676  1.8802 -0.2444  1.2370
 2774Sol     MW15106   3.333   1.497   6.612  0.2617 -0.3291  0.1489
 2775Sol     OW15107   3.454   0.568   6.736  0.0260  0.0325  0.2876
 2775Sol     HW15108   3.489   0.508   6.670  0.6653  0.7386 -0.0148
 2775Sol     HW15109   3.519   0.637   6.743 -0.7113  0.6942  0.6438
 2775Sol     MW15110   3.463   0.569   6.731  0.3828 -0.1295  0.5360
 2776Sol     OW15111   3.232   3.941   2.310  0.2115 -0.1832  0.1514
 2776Sol     HW15112   3.286   3.957   2.388 -0.1426  0.0022  0.3562
 2776Sol     HW15113   3.188   3.859   2.328  0.5572 -0.4258 -0.0926
 2776Sol     MW15114   3.233   3.936   2.319 -0.4091  0.9471  0.1283
 2777Sol     OW15115   0.208   3.351   5.147 -0.0584 -0.1229  0.3285
 2777Sol     HW15116   0.238   3.300   5.072 -0.7360 -0.0291 -0.0171
 2777Sol     HW15117   0.117   3.371   5.126 -0.2493 -0.0943  1.1813
 2777Sol     MW15118   0.202   3.348   5.138 -0.1923 -0.1092 -0.5624
 2778Sol     OW15119   2.712   1.015   5.709  0.3694  0.0411 -0.5744
 2778Sol     HW15120   2.777   0.955   5.744  1.6290  1.2720 -0.7674
 2778Sol     HW15121   2.635   1.003   5.766  1.6724  0.4834  1.3283
 2778Sol     MW15122   2.711   1.009   5.717 -0.8730  0.0289 -0.4680
 2779Sol     OW15123   0.522   0.900   3.607  0.1060  0.5132 -0.2776
 2779Sol     HW15124   0.540   0.913   3.514 -0.9195 -0.7831 -0.6668
 2779Sol     HW15125   0.515   0.989   3.642  0.2901  1.0112 -1.4828
 2779Sol     MW15126   0.523   0.909   3.602 -0.5396 -0.4514 -0.7478
 2780Sol     OW15127   3.870   2.104   2.028 -0.0586  0.6762 -0.7180
 2780Sol     HW15128   3.922   2.030   2.060 -0.2796  0.9442  0.2927
 2780Sol     HW15129   3.921   2.181   2.051 -1.0136  0.9540  0.5225
 2780Sol     MW15130   3.879   2.104   2.033  0.1041  0.4128  0.4068
 2781Sol     OW15131   3.029   3.016   4.619  0.1631 -0.1213 -0.0065
 2781Sol     HW15132   3.077   3.099   4.610 -0.2570  0.1476  0.2182
 2781Sol     HW15133   2.989   3.021   4.706  0.0346 -0.5083 -0.0441
 2781Sol     MW15134   3.030   3.024   4.626 -0.2430  0.6526  0.1055
 2782Sol     OW15135   2.603   1.802   3.152 -0.1426  0.1455 -0.3417
 2782Sol     HW15136   2.591   1.718   3.108  0.9160  0.9311 -2.1627
 2782Sol     HW15137   2.515   1.825   3.182 -0.2210 -2.2493  1.4170
 2782Sol     MW15138   2.594   1.797   3.151  0.1062 -0.4234 -0.1452
 2783Sol     OW15139   3.486   2.157   3.422 -0.0515 -0.2175 -0.1438
 2783Sol     HW15140   3.431   2.140   3.498 -4.1371  1.0793 -2.6639
 2783Sol     HW15141   3.459   2.093   3.357  1.5793  0.3293 -1.4157
 2783Sol     MW15142   3.479   2.150   3.423 -0.7362 -0.1975  0.0403
 2784Sol     OW15143   2.848   3.584   6.063 -0.0724 -0.0988  0.3997
 2784Sol     HW15144   2.940   3.608   6.078  0.1128 -0.6066  0.1169
 2784Sol     HW15145   2.806   3.591   6.148 -0.2017  1.9781  0.1845
 2784Sol     MW15146   2.853   3.587   6.072 -0.2298  0.2390 -0.5614
 2785Sol     OW15147   1.469   0.900   2.704  0.4486 -0.5106 -0.1281
 2785Sol     HW15148   1.537   0.915   2.770  0.1669  2.6212 -0.4747
 2785Sol     HW15149   1.415   0.831   2.741  1.2347  0.0644  2.2062
 2785Sol     MW15150   1.471   0.895   2.713  0.0352  0.0646 -0.0320
 2786Sol     OW15151   1.025   1.780   2.412  0.1854  1.1357 -0.0702
 2786Sol     HW15152   0.933   1.774   2.440  0.5803 -1.8513  0.8128
 2786Sol     HW15153   1.026   1.850   2.347 -3.1541 -0.2419 -1.7317
 2786Sol     MW15154   1.017   1.785   2.409 -0.0855  0.7422 -0.2192
 2787Sol     OW15155   3.837   0.866   6.300 -0.7411 -0.0641  0.2085
 2787Sol     HW15156   3.745   0.893   6.291 -1.4200 -2.0643  0.9049
 2787Sol     HW15157   3.838   0.809   6.377  0.9986 -0.4882 -0.1041
 2787Sol     MW15158   3.829   0.863   6.306 -0.1024 -0.5801 -0.3104
 2788Sol     OW15159   2.304   1.686   4.091  0.8483 -0.4426  0.0407
 2788Sol     HW15160   2.332   1.689   4.000 -0.2130 -0.3368 -0.2889
 2788Sol     HW15161   2.263   1.600   4.101  0.9253 -0.4368  0.4032
 2788Sol     MW15162   2.303   1.679   4.084 -0.4132 -0.8355  0.2294
 2789Sol     OW15163   0.073   1.398   3.711  0.5873  0.3636  0.3838
 2789Sol     HW15164   0.024   1.380   3.630  0.0777 -1.8574  1.1495
 2789Sol     HW15165   0.160   1.424   3.681  1.6978 -4.3933 -0.8762
 2789Sol     MW15166   0.076   1.399   3.701  0.0359 -0.6719 -0.0241
 2790Sol     OW15167   1.477   2.460   2.021  0.6260 -0.3871  0.4803
 2790Sol     HW15168   1.490   2.474   2.115  0.7174 -0.7877  0.5250
 2790Sol     HW15169   1.564   2.442   1.987  1.0963  2.8284 -0.1988
 2790Sol     MW15170   1.486   2.460   2.026 -0.2971  0.2725 -0.2104
 2791Sol     OW15171   2.688   3.740   3.567 -0.0790 -0.2074  0.3157
 2791Sol     HW15172   2.654   3.826   3.544  1.2963  0.4563  0.7267
 2791Sol     HW15173   2.615   3.697   3.613 -0.8259  0.6530 -0.0437
 2791Sol     MW15174   2.678   3.744   3.569  0.5114  0.3278 -0.1660
 2792Sol     OW15175   2.837   1.730   2.004 -0.0683 -0.0901 -0.6428
 2792Sol     HW15176   2.772   1.735   2.073 -1.5258  0.7031 -2.0513
 2792Sol     HW15177   2.799   1.671   1.939  1.1600 -0.6128 -0.9148
 2792Sol     MW15178   2.828   1.725   2.004 -0.0533 -0.5239  0.0118
 2793Sol     OW15179   0.300   0.562   4.964 -0.6581 -0.3173  0.0065
 2793Sol     HW15180   0.215   0.606   4.973 -0.5800 -0.5593  2.0956
 2793Sol     HW15181   0.354   0.624   4.916 -2.5530 -0.9122 -3.0839
 2793Sol     MW15182   0.297   0.571   4.961  0.0423  0.0952 -0.5360
 2794Sol     OW15183   3.800   2.905   2.523 -0.4427 -0.4127  0.1965
 2794Sol     HW15184   3.746   2.873   2.595 -0.8251  1.7162  0.9084
 2794Sol     HW15185   3.883   2.858   2.533 -0.2890  0.2280  2.3936
 2794Sol     MW15186   3.803   2.898   2.531 -0.1277  0.1753 -0.1641
 2795Sol     OW15187   0.624   0.503   3.005  0.2906  0.2638 -0.0904
 2795Sol     HW15188   0.533   0.507   3.034  0.5954 -0.8552  1.0646
 2795Sol     HW15189   0.664   0.436   3.060  1.3470 -0.6161 -1.8827
 2795Sol     MW15190   0.620   0.497   3.013  0.2064 -0.2963  0.9095
 2796Sol     OW15191   2.941   3.929   2.794  0.2983  0.2059 -0.7744
 2796Sol     HW15192   2.965   4.020   2.809  0.7084  0.2368 -1.5889
 2796Sol     HW15193   2.849   3.923   2.818  1.0134  0.1487  2.1955
 2796Sol     MW15194   2.935   3.936   2.798  0.0049  0.0837  0.2911
 2797Sol     OW15195   0.935   0.043   3.572 -0.1396  0.3513 -0.5312
 2797Sol     HW15196   1.015   0.084   3.603 -0.6173 -0.8011  2.4943
 2797Sol     HW15197   0.865   0.101   3.602 -0.5552 -0.0429 -0.7252
 2797Sol     MW15198   0.936   0.052   3.578 -0.4368 -0.0523 -0.0166
 2798Sol     OW15199   1.080   3.837   5.099 -0.0904 -0.0528 -0.2243
 2798Sol     HW15200   1.104   3.813   5.010  0.0371 -0.8305  0.0109
 2798Sol     HW15201   1.074   3.753   5.146 -0.4088  0.3264  0.4315
 2798Sol     MW15202   1.082   3.827   5.096  0.4428 -0.3006  0.1592
 2799Sol     OW15203   3.839   1.286   5.217 -0.2118 -0.7119 -0.4350
 2799Sol     HW15204   3.873   1.363   5.172 -0.9008 -1.0289 -1.5072
 2799Sol     HW15205   3.749   1.310   5.240  0.3635 -0.2793  1.4250
 2799Sol     MW15206   3.834   1.295   5.215  0.2779  0.2963  0.1366
 2800Sol     OW15207   2.081   3.328   6.197  0.4651 -0.6994 -0.0899
 2800Sol     HW15208   2.071   3.304   6.289  0.9092 -2.3340 -0.4454
 2800Sol     HW15209   2.175   3.323   6.181  0.2738 -1.8165 -0.9715
 2800Sol     MW15210   2.089   3.325   6.204  0.3181 -0.0275  0.7351
 2801Sol     OW15211   1.091   4.129   4.325  0.0743  0.1976 -1.2339
 2801Sol     HW15212   1.039   4.208   4.313  0.4385  0.7431  0.5971
 2801Sol     HW15213   1.027   4.061   4.349  0.2533  1.0718  1.8910
 2801Sol     MW15214   1.081   4.130   4.326  0.2580 -0.0551  0.6194
 2802Sol     OW15215   2.114   3.194   1.794 -0.4593  0.1457  0.3046
 2802Sol     HW15216   2.046   3.246   1.838  1.1656  2.2934  0.3452
 2802Sol     HW15217   2.065   3.131   1.741 -2.4647  0.5704  1.6003
 2802Sol     MW15218   2.103   3.193   1.793  0.0352 -0.4520  0.4253
 2803Sol     OW15219   0.778   2.225   5.951  0.4828  0.1327 -0.3696
 2803Sol     HW15220   0.857   2.184   5.986  1.0641  3.3434  2.3619
 2803Sol     HW15221   0.787   2.219   5.856  2.2457 -2.6718 -0.0903
 2803Sol     MW15222   0.786   2.221   5.946  0.0032  0.0691 -0.3245
 2804Sol     OW15223   0.081   0.924   1.594  0.0878  0.6577  0.3004
 2804Sol     HW15224   0.063   1.001   1.540 -0.2234  0.7500  0.5329
 2804Sol     HW15225   0.176   0.913   1.590 -0.0464 -0.0334 -1.2135
 2804Sol     MW15226   0.088   0.930   1.589  0.1812 -0.2827  0.2869
 2805Sol     OW15227   3.151   2.174   3.021  0.1097 -0.5091 -0.4822
 2805Sol     HW15228   3.172   2.187   3.114 -0.6532 -1.2311 -0.2010
 2805Sol     HW15229   3.113   2.087   3.018 -2.7030  0.7074 -0.9989
 2805Sol     MW15230   3.150   2.168   3.029 -1.2263  0.2224 -0.1814
 2806Sol     OW15231   3.386   0.327   4.236  0.2544 -0.0199  0.0470
 2806Sol     HW15232   3.476   0.358   4.246  0.8988 -1.9750  0.6100
 2806Sol     HW15233   3.360   0.356   4.149  0.6922  2.3435  0.6873
 2806Sol     MW15234   3.392   0.332   4.229  0.2733  0.4745 -0.0103
 2807Sol     OW15235   0.830   2.393   1.555  0.4036 -0.1049 -0.1369
 2807Sol     HW15236   0.739   2.367   1.566  0.4701  0.1711  1.1585
 2807Sol     HW15237   0.859   2.419   1.643  1.3570  1.0228 -0.7620
 2807Sol     MW15238   0.825   2.393   1.564 -0.4244 -0.7777 -0.1018
 2808Sol     OW15239   3.212   2.346   5.119 -0.0733 -0.4001 -0.3324
 2808Sol     HW15240   3.137   2.289   5.103 -1.0112  0.2377  1.6285
 2808Sol     HW15241   3.238   2.327   5.210  0.9127  0.7911 -0.3463
 2808Sol     MW15242   3.208   2.339   5.126  0.5523 -0.4390 -0.2264
 2809Sol     OW15243   0.033   3.411   6.283  0.3379 -0.3856  0.5674
 2809Sol     HW15244  -0.020   3.486   6.258  2.0591  0.6444 -0.0901
 2809Sol     HW15245   0.032   3.412   6.379  1.4387  1.3007  0.5893
 2809Sol     MW15246   0.029   3.418   6.290  0.3411  0.5905  0.1381
 2810Sol     OW15247   0.725   0.112   4.051  0.1901 -0.2770  0.4178
 2810Sol     HW15248   0.717   0.101   3.956  2.5058  0.1109  0.1255
 2810Sol     HW15249   0.701   0.203   4.067 -0.1045 -0.3140  0.1815
 2810Sol     MW15250   0.722   0.119   4.044  0.2251  0.1839  0.1034
 2811Sol     OW15251   1.350   4.057   2.205 -0.4885  0.0453 -0.3646
 2811Sol     HW15252   1.401   4.105   2.139  0.1122 -0.1349 -0.0380
 2811Sol     HW15253   1.367   4.104   2.287  0.7181 -1.1508  0.1025
 2811Sol     MW15254   1.356   4.065   2.207 -0.2341 -0.2052 -0.0400
 2812Sol     OW15255   1.248   2.836   2.639 -0.7362  0.1759  0.3120
 2812Sol     HW15256   1.188   2.865   2.707 -1.4543 -1.2061  0.2710
 2812Sol     HW15257   1.196   2.836   2.559 -0.7538 -1.2259  0.3133
 2812Sol     MW15258   1.238   2.839   2.638 -0.0357  0.2193 -0.0002
 2813Sol     OW15259   2.099   0.489   6.660  0.2797 -0.2702 -0.4150
 2813Sol     HW15260   2.136   0.401   6.671  1.7047  0.5250  1.2831
 2813Sol     HW15261   2.016   0.486   6.708  1.0933 -0.2176  1.0173
 2813Sol     MW15262   2.095   0.481   6.665 -0.0169  0.3223  0.4804
 2814Sol     OW15263   0.025   3.945   4.131  0.0972  0.0774 -0.1468
 2814Sol     HW15264   0.071   3.865   4.160 -1.5754  0.0221  2.5452
 2814Sol     HW15265  -0.064   3.916   4.114 -0.2935  1.2035 -0.0376
 2814Sol     MW15266   0.021   3.935   4.132 -0.3499 -1.2811  0.1515
 2815Sol     OW15267   2.864   1.788   5.845  0.4398  0.5486 -0.1976
 2815Sol     HW15268   2.820   1.789   5.929  0.1889  0.8799 -0.3314
 2815Sol     HW15269   2.861   1.879   5.815  1.2691  0.5911 -0.1792
 2815Sol     MW15270   2.860   1.796   5.850 -0.2389  0.1317 -0.4282
 2816Sol     OW15271   1.628   1.598   3.791  0.4086  0.2332 -0.6713
 2816Sol     HW15272   1.697   1.637   3.845 -0.1968  0.4122 -0.0298
 2816Sol     HW15273   1.546   1.622   3.833  0.0260 -2.0330 -0.0260
 2816Sol     MW15274   1.627   1.603   3.799  0.4036 -0.0477 -0.0479
 2817Sol     OW15275   3.717   3.713   6.157  0.7687  0.4716  0.0910
 2817Sol     HW15276   3.687   3.668   6.236 -0.5649  1.3886  0.1154
 2817Sol     HW15277   3.812   3.701   6.158  0.4770 -2.1175  0.2281
 2817Sol     MW15278   3.723   3.708   6.164 -0.6941  0.3488 -0.1702
 2818Sol     OW15279   1.029   0.645   2.819 -0.0796 -0.0567 -0.5183
 2818Sol     HW15280   0.967   0.576   2.844 -1.2305  1.4227  0.7839
 2818Sol     HW15281   1.023   0.650   2.724 -1.3626 -0.4542 -0.4592
 2818Sol     MW15282   1.023   0.639   2.813 -0.6980  0.2235  0.2691
 2819Sol     OW15283   2.545   0.832   2.442 -0.3619  0.4848  0.3015
 2819Sol     HW15284   2.521   0.811   2.352  0.6644  2.0775 -0.3728
 2819Sol     HW15285   2.467   0.876   2.478 -0.5496  0.4065 -0.0058
 2819Sol     MW15286   2.536   0.834   2.437 -0.5563  0.6654 -0.1270
 2820Sol     OW15287   2.927   1.427   4.134 -0.5502  0.1203  0.0152
 2820Sol     HW15288   2.891   1.398   4.050 -2.9129  0.4562  0.8837
 2820Sol     HW15289   2.948   1.520   4.120 -0.6958  0.1092 -0.2946
 2820Sol     MW15290   2.926   1.433   4.125  0.0957  0.3298 -0.2491
 2821Sol     OW15291   0.368   1.462   3.217 -1.1434 -0.1893  0.2827
 2821Sol     HW15292   0.273   1.471   3.228 -0.9963  0.5542  0.9313
 2821Sol     HW15293   0.390   1.520   3.144 -1.1429 -0.1799  0.2904
 2821Sol     MW15294   0.361   1.468   3.211 -0.0543  0.4532 -0.4431
 2822Sol     OW15295   3.816   0.544   4.574  0.3759  0.2727 -0.5216
 2822Sol     HW15296   3.774   0.515   4.655  0.8147  0.2081 -0.3146
 2822Sol     HW15297   3.897   0.586   4.603  2.4001 -3.0734 -1.1396
 2822Sol     MW15298   3.819   0.546   4.584  0.2983  0.0459 -0.6551
 2823Sol     OW15299   0.748   1.302   6.880 -0.2347  0.2285 -0.1353
 2823Sol     HW15300   0.665   1.311   6.834 -1.0476 -0.2242  1.2143
 2823Sol     HW15301   0.772   1.210   6.869  0.2480  0.4374 -0.8039
 2823Sol     MW15302   0.743   1.295   6.875 -0.3336 -0.1699  0.6043
 2824Sol     OW15303   0.430   2.164   1.725  0.5378 -0.4853  0.5303
 2824Sol     HW15304   0.486   2.143   1.800  0.5542 -1.5232  0.2279
 2824Sol     HW15305   0.343   2.174   1.762  0.6109 -0.6188  0.7371
 2824Sol     MW15306   0.427   2.163   1.735  0.2018  0.4021  0.4446
 2825Sol     OW15307   3.519   2.234   5.905  0.9414  0.0104 -0.5539
 2825Sol     HW15308   3.484   2.305   5.959 -1.2676 -0.3409 -1.4593
 2825Sol     HW15309   3.503   2.263   5.815 -1.5874 -2.3408 -0.9329
 2825Sol     MW15310   3.514   2.243   5.901 -0.1454 -0.0628  0.6742
 2826Sol     OW15311   2.733   3.117   2.000 -0.6054 -0.0898 -0.4313
 2826Sol     HW15312   2.751   3.049   1.935 -0.8536  1.6606 -2.3926
 2826Sol     HW15313   2.720   3.069   2.082 -1.2193 -2.4270 -1.8448
 2826Sol     MW15314   2.733   3.107   2.002  0.6086 -1.0353 -0.1385
 2827Sol     OW15315   2.307   3.081   3.326 -0.3628 -0.5256  0.3263
 2827Sol     HW15316   2.402   3.088   3.318 -0.2574  0.5727  2.1807
 2827Sol     HW15317   2.273   3.164   3.292 -0.5559 -0.3653  0.8927
 2827Sol     MW15318   2.313   3.089   3.323  0.4625  0.8770 -0.1650
 2828Sol     OW15319   0.934   1.140   6.204 -0.4510 -0.3470  0.5358
 2828Sol     HW15320   1.006   1.078   6.196 -0.2106  0.2321 -2.7383
 2828Sol     HW15321   0.860   1.097   6.160 -1.4014  0.1178  1.6312
 2828Sol     MW15322   0.934   1.131   6.199  0.3622 -0.1200 -0.0749
 2829Sol     OW15323   0.268   1.728   6.390  0.5555 -0.1171 -0.0575
 2829Sol     HW15324   0.239   1.637   6.381  0.0009  0.0385  0.1339
 2829Sol     HW15325   0.357   1.721   6.424  0.9676 -0.6144 -1.2172
 2829Sol     MW15326   0.273   1.719   6.392 -0.1544 -0.5689 -0.0891
 2830Sol     OW15327   3.479   0.737   5.979  0.2170  0.7596  0.4445
 2830Sol     HW15328   3.402   0.723   5.923  2.5481 -1.3694 -2.4065
 2830Sol     HW15329   3.498   0.650   6.014  1.0660  1.3752  1.5357
 2830Sol     MW15330   3.474   0.728   5.977 -0.7868  0.1506 -0.2219
 2831Sol     OW15331   2.553   0.381   3.854  0.1043 -0.2240  0.1379
 2831Sol     HW15332   2.539   0.403   3.946  2.6817  0.8847  0.3024
 2831Sol     HW15333   2.635   0.331   3.853 -0.9590 -2.0106 -1.3357
 2831Sol     MW15334   2.559   0.379   3.862 -0.0185  0.1376 -0.7327
 2832Sol     OW15335   3.405   2.172   1.781 -0.9460 -0.0852  0.4398
 2832Sol     HW15336   3.500   2.183   1.781 -0.7153 -1.6953  2.3055
 2832Sol     HW15337   3.391   2.088   1.738 -1.6124  0.6129 -0.7228
 2832Sol     MW15338   3.412   2.165   1.777 -0.1635  0.0740 -0.0023
 2833Sol     OW15339   1.855   3.004   4.084  0.1459 -0.0601  0.6510
 2833Sol     HW15340   1.885   2.972   3.999 -2.4558 -1.6049  0.2729
 2833Sol     HW15341   1.846   3.099   4.072  1.4073 -0.0352 -0.2587
 2833Sol     MW15342   1.857   3.010   4.075 -0.0292  0.3148  0.1358
 2834Sol     OW15343   4.009   0.297   5.046  0.5782  0.1274 -0.4089
 2834Sol     HW15344   4.104   0.299   5.062  0.7423  3.1313 -1.4795
 2834Sol     HW15345   3.970   0.325   5.129  0.7348  0.7978 -0.5571
 2834Sol     MW15346   4.014   0.300   5.055 -0.0428 -0.1371 -0.1617
 2835Sol     OW15347   2.380   0.429   2.741 -0.1084  0.2299  0.3656
 2835Sol     HW15348   2.375   0.498   2.675 -0.7122 -0.5973 -0.4626
 2835Sol     HW15349   2.369   0.474   2.825  1.0471  1.3407 -0.0729
 2835Sol     MW15350   2.379   0.439   2.743  0.2611  0.4889  0.2204
 2836Sol     OW15351   2.354   1.316   5.092 -0.7583  0.0153  0.2602
 2836Sol     HW15352   2.400   1.347   5.170  0.4251  0.1414 -0.4833
 2836Sol     HW15353   2.381   1.225   5.082  1.0924  0.7271 -1.4462
 2836Sol     MW15354   2.360   1.311   5.098  0.1594  0.6556  0.1349
 2837Sol     OW15355   0.983   3.524   3.052 -0.5722 -0.2545  0.3006
 2837Sol     HW15356   0.891   3.546   3.039 -0.1197  1.2665 -0.4839
 2837Sol     HW15357   1.009   3.481   2.970 -0.0551  1.2286 -0.3379
 2837Sol     MW15358   0.977   3.522   3.043  0.6059  0.0953  0.3223
 2838Sol     OW15359   2.787   1.793   4.349  0.2131 -0.0312  0.2034
 2838Sol     HW15360   2.867   1.845   4.350 -0.7889  1.5498  0.8237
 2838Sol     HW15361   2.799   1.729   4.419  0.1971  1.3935  1.5390
 2838Sol     MW15362   2.795   1.792   4.356  0.5515  0.1162  0.2551
 2839Sol     OW15363   3.565   1.627   1.788 -0.1285 -0.2493 -1.0950
 2839Sol     HW15364   3.575   1.540   1.828  1.1208  0.7518  0.8121
 2839Sol     HW15365   3.483   1.660   1.825  0.3087  0.1016 -0.4293
 2839Sol     MW15366   3.558   1.622   1.795  0.3664  0.7688  0.0268
 2840Sol     OW15367   1.780   0.021   5.209  0.6496 -0.2708 -0.2043
 2840Sol     HW15368   1.763   0.082   5.280 -0.5227  1.0632 -1.5985
 2840Sol     HW15369   1.838   0.069   5.150  0.4870 -0.8487 -0.8419
 2840Sol     MW15370   1.784   0.030   5.210 -0.0131  0.3052  0.3320
 2841Sol     OW15371   1.308   2.571   5.987  0.1255  0.9573  0.2036
 2841Sol     HW15372   1.217   2.548   6.007  0.2017  1.2233  0.8780
 2841Sol     HW15373   1.302   2.652   5.938 -0.0280  0.6800 -0.2411
 2841Sol     MW15374   1.299   2.576   5.985  0.3161  0.5386 -0.1567
 2842Sol     OW15375   2.987   2.450   2.640 -0.0474 -0.6264 -0.3778
 2842Sol     HW15376   3.052   2.417   2.702 -0.4317  0.9083  0.8442
 2842Sol     HW15377   3.039   2.484   2.567  0.7517  3.5170  1.9730
 2842Sol     MW15378   2.998   2.450   2.639 -0.6597 -0.1704  0.0248
 2843Sol     OW15379   2.695   2.372   2.680  0.1110  0.2745  0.1833
 2843Sol     HW15380   2.685   2.283   2.644 -0.7061  0.3333  0.2658
 2843Sol     HW15381   2.776   2.404   2.640 -1.7856  1.0771 -3.1999
 2843Sol     MW15382   2.701   2.367   2.673  0.1276  0.1513 -0.4457
 2844Sol     OW15383   1.235   2.251   6.127 -0.1760 -0.3127 -0.3541
 2844Sol     HW15384   1.213   2.167   6.168 -1.1553 -0.2787 -0.7866
 2844Sol     HW15385   1.305   2.287   6.181  2.3337 -2.7616 -1.8416
 2844Sol     MW15386   1.239   2.246   6.136 -0.4356 -0.2103 -0.2945
 2845Sol     OW15387   1.906   2.945   3.151 -0.8397 -0.0926  0.0575
 2845Sol     HW15388   1.995   2.916   3.169 -1.3820 -1.0347  1.2347
 2845Sol     HW15389   1.915   3.039   3.133  0.1264  0.2386  2.1759
 2845Sol     MW15390   1.915   2.951   3.151 -0.2483 -0.2041  0.1788
 2846Sol     OW15391   1.270   3.520   5.720 -0.3169 -0.0474  0.5449
 2846Sol     HW15392   1.308   3.486   5.801 -0.7576  0.6507  1.0441
 2846Sol     HW15393   1.336   3.582   5.688 -0.9018  0.9647  1.2724
 2846Sol     MW15394   1.279   3.522   5.725  0.8515 -1.1094 -0.1003
 2847Sol     OW15395   3.547   0.108   3.962  0.0387  0.0989  0.2802
 2847Sol     HW15396   3.495   0.031   3.983  1.4258 -0.7505  0.6756
 2847Sol     HW15397   3.486   0.181   3.970 -0.8431 -0.7652  1.6998
 2847Sol     MW15398   3.537   0.107   3.964  0.0119  0.2095 -0.3238
 2848Sol     OW15399   2.116   2.639   4.225 -0.3587 -0.4088 -0.3997
 2848Sol     HW15400   2.093   2.553   4.190 -1.1302 -0.5484  0.4185
 2848Sol     HW15401   2.123   2.696   4.148 -1.2881 -0.8784 -0.8357
 2848Sol     MW15402   2.115   2.637   4.215 -0.1390  0.1514 -0.4995
 2849Sol     OW15403   1.859   0.095   6.693  0.3881  0.6830 -0.3014
 2849Sol     HW15404   1.790   0.066   6.633  0.7136  2.5791 -1.6585
 2849Sol     HW15405   1.940   0.081   6.644  0.6853  1.9701 -0.1821
 2849Sol     MW15406   1.860   0.091   6.683 -0.2911 -0.2998 -0.1459
 2850Sol     OW15407   1.342   3.948   1.468 -0.5658  0.1070 -0.3405
 2850Sol     HW15408   1.264   3.972   1.518 -1.0815 -0.6739 -0.7636
 2850Sol     HW15409   1.320   3.865   1.426  0.8778 -0.6939  0.4212
 2850Sol     MW15410   1.333   3.942   1.469 -0.2830 -0.4521  0.0776
 2851Sol     OW15411   1.362   4.050   2.735  0.4349 -0.0289  0.6374
 2851Sol     HW15412   1.328   4.092   2.656 -2.4367  0.1950  1.9634
 2851Sol     HW15413   1.333   3.959   2.728  1.0162 -0.2429  0.9839
 2851Sol     MW15414   1.357   4.045   2.727  0.5516 -0.2150 -0.1146
 2852Sol     OW15415   0.854   1.880   3.849  0.2904 -0.2185  0.3026
 2852Sol     HW15416   0.867   1.787   3.872 -2.2328 -0.3556  1.3804
 2852Sol     HW15417   0.893   1.928   3.923  0.6649 -0.4484  0.2558
 2852Sol     MW15418   0.858   1.876   3.858  0.3904  0.0962  0.2213
 2853Sol     OW15419   0.951   2.673   5.480 -0.2704 -0.3033 -0.5052
 2853Sol     HW15420   1.029   2.635   5.521  0.0462  1.2230  0.3281
 2853Sol     HW15421   0.979   2.760   5.452 -0.7634 -0.9446 -3.1254
 2853Sol     MW15422   0.961   2.677   5.481  0.0754 -1.0819  0.0129
 2854Sol     OW15423   0.215   3.597   1.694  0.2488 -0.3284 -0.3335
 2854Sol     HW15424   0.300   3.629   1.667  0.1878  1.1684  1.1525
 2854Sol     HW15425   0.152   3.645   1.639  0.2486  0.8114  0.6264
 2854Sol     MW15426   0.217   3.604   1.687 -0.0936  0.2783 -0.1393
 2855Sol     OW15427   0.692   2.126   4.353 -0.0038  0.1976 -0.1003
 2855Sol     HW15428   0.674   2.110   4.446 -1.2967  0.8774 -0.2273
 2855Sol     HW15429   0.779   2.167   4.352  0.7608 -1.3813  0.6672
 2855Sol     MW15430   0.699   2.128   4.361  0.4723  0.4050 -0.0052
 2856Sol     OW15431   3.352   0.619   3.899  0.6778  0.8618 -0.4961
 2856Sol     HW15432   3.282   0.665   3.852 -0.1582  1.4170  1.2565
 2856Sol     HW15433   3.341   0.645   3.990  3.0067  0.7176 -0.1434
 2856Sol     MW15434   3.345   0.625   3.903  1.0852 -0.2571  0.2337
 2857Sol     OW15435   2.544   0.219   4.885 -0.1973  0.3638  0.1905
 2857Sol     HW15436   2.517   0.233   4.976 -1.7634  0.0548 -0.2285
 2857Sol     HW15437   2.466   0.188   4.841  0.6669  0.1249 -1.1884
 2857Sol     MW15438   2.535   0.218   4.889 -0.8264 -0.1026  0.0856
 2858Sol     OW15439   0.292   0.278   1.509  0.2442  0.2033  0.5077
 2858Sol     HW15440   0.295   0.199   1.564 -0.4275  0.5420  1.0399
 2858Sol     HW15441   0.254   0.248   1.426 -0.9540  0.1575  1.0574
 2858Sol     MW15442   0.289   0.268   1.507  0.3175 -0.1596  0.5041
 2859Sol     OW15443   2.538   1.056   2.786 -0.1216  0.1343  0.1647
 2859Sol     HW15444   2.517   0.963   2.781 -1.5689  0.3785  1.4383
 2859Sol     HW15445   2.488   1.097   2.716  0.1886  0.0188 -0.1259
 2859Sol     MW15446   2.532   1.052   2.780 -0.3881  0.1306  0.1253
 2860Sol     OW15447   2.420   4.171   3.673 -0.1869  0.0354  0.7900
 2860Sol     HW15448   2.382   4.111   3.737  0.7049 -0.2228  1.0834
 2860Sol     HW15449   2.409   4.126   3.589 -3.1734  1.2403  0.4493
 2860Sol     MW15450   2.415   4.161   3.671 -0.1345  0.4475 -0.0237
 2861Sol     OW15451   3.821   2.106   4.911  0.0702  0.3695 -0.7063
 2861Sol     HW15452   3.898   2.125   4.858  1.6557  1.5533  1.9327
 2861Sol     HW15453   3.821   2.011   4.919  1.6386  0.3988 -0.1945
 2861Sol     MW15454   3.828   2.099   4.907  0.3262  0.0263  0.2407
 2862Sol     OW15455   0.741   0.047   3.337  0.1965  0.0492 -0.1058
 2862Sol     HW15456   0.686   0.104   3.283 -2.9451 -0.2145  2.6493
 2862Sol     HW15457   0.718   0.070   3.427  2.2219 -2.4199  1.1063
 2862Sol     MW15458   0.734   0.054   3.340 -0.4369 -0.5502 -0.7307
 2863Sol     OW15459   2.294   2.622   2.401 -0.5088 -0.2440  0.3215
 2863Sol     HW15460   2.292   2.703   2.451  0.8231  0.0080 -0.0175
 2863Sol     HW15461   2.363   2.570   2.443  0.7026  0.0165 -1.3143
 2863Sol     MW15462   2.300   2.624   2.410  0.4832  0.6186 -0.4219
 2864Sol     OW15463   0.564   0.203   3.188  0.1523  0.3156 -0.0313
 2864Sol     HW15464   0.510   0.246   3.254 -0.2681  2.0234 -1.4550
 2864Sol     HW15465   0.636   0.265   3.172  0.5236 -0.3075 -0.8241
 2864Sol     MW15466   0.566   0.212   3.192 -0.2980  0.0188 -0.2173
 2865Sol     OW15467   3.857   2.205   4.358 -0.2328  0.3676  0.3203
 2865Sol     HW15468   3.802   2.204   4.437 -0.4345 -2.4371  0.2053
 2865Sol     HW15469   3.880   2.113   4.344  0.1486  0.8770 -2.6716
 2865Sol     MW15470   3.854   2.197   4.364  0.3277  0.7760 -0.3197
 2866Sol     OW15471   0.990   0.341   3.801  0.0197  0.1789 -0.1974
 2866Sol     HW15472   0.992   0.254   3.840  1.1069  0.1010 -0.4118
 2866Sol     HW15473   1.003   0.401   3.875 -0.9053  0.1695 -0.0251
 2866Sol     MW15474   0.992   0.339   3.811  0.1590  0.0343  0.0587
 2867Sol     OW15475   2.040   3.809   3.114  0.0518 -0.3699 -0.1489
 2867Sol     HW15476   2.041   3.886   3.058 -0.8535 -1.7827 -2.1426
 2867Sol     HW15477   2.130   3.800   3.145  0.0573  1.7573  0.5238
 2867Sol     MW15478   2.048   3.815   3.112  0.4361 -0.5314  0.2536
 2868Sol     OW15479   0.491   3.906   2.058  0.1000  0.1484  0.2159
 2868Sol     HW15480   0.578   3.891   2.019  0.1079  1.1255 -0.1502
 2868Sol     HW15481   0.499   3.991   2.102 -0.1835 -0.5354  1.5986
 2868Sol     MW15482   0.500   3.912   2.058 -0.0995 -0.4320  0.1520
 2869Sol     OW15483   1.815   2.165   3.675 -0.0050 -0.1878  0.6298
 2869Sol     HW15484   1.770   2.111   3.739  0.5160 -0.3728  0.8434
 2869Sol     HW15485   1.856   2.234   3.727 -0.6169  0.3796  0.3640
 2869Sol     MW15486   1.815   2.166   3.685  0.3313  0.2115  0.6161
 2870Sol     OW15487   2.110   3.480   5.901  0.1059  0.3633  0.0150
 2870Sol     HW15488   2.135   3.389   5.914 -0.3583 -0.1719 -2.5646
 2870Sol     HW15489   2.071   3.506   5.985  0.3773 -1.7483  0.8381
 2870Sol     MW15490   2.109   3.474   5.910 -0.6649  0.2030  0.0339
 2871Sol     OW15491   2.920   2.568   3.483 -0.2185 -0.7592 -0.0893
 2871Sol     HW15492   2.877   2.603   3.405 -0.9439 -1.5931 -0.0730
 2871Sol     HW15493   2.947   2.480   3.458  5.4185  1.1869 -1.5667
 2871Sol     MW15494   2.918   2.563   3.474  0.5048 -0.2029 -0.1671
 2872Sol     OW15495   0.775   1.188   4.186 -0.1467 -0.1800 -0.2656
 2872Sol     HW15496   0.680   1.182   4.197 -0.0060 -1.0701  0.5575
 2872Sol     HW15497   0.808   1.210   4.274  0.4376 -0.2753 -0.4600
 2872Sol     MW15498   0.769   1.189   4.195 -0.1787  0.2141 -0.0074
 2873Sol     OW15499   1.436   4.151   3.885 -0.0203 -0.3260 -0.0770
 2873Sol     HW15500   1.370   4.106   3.832  0.9894  0.4009 -1.9491
 2873Sol     HW15501   1.520   4.126   3.846  0.5982  2.4316 -0.5709
 2873Sol     MW15502   1.438   4.144   3.877 -0.2280  0.2318 -0.4921
 2874Sol     OW15503   2.759   2.953   4.235  0.6000 -0.6233 -0.7733
 2874Sol     HW15504   2.668   2.979   4.251  1.3331  0.8724  1.0440
 2874Sol     HW15505   2.752   2.884   4.168 -2.1020 -2.7679  1.5715
 2874Sol     MW15506   2.750   2.949   4.230  0.8280  0.1644  0.3675
 2875Sol     OW15507   1.136   1.842   6.758  0.2258  0.1327 -0.8195
 2875Sol     HW15508   1.073   1.907   6.789  0.1861 -0.4279  0.3071
 2875Sol     HW15509   1.086   1.785   6.699 -0.2696 -0.1667 -0.1151
 2875Sol     MW15510   1.126   1.842   6.755  0.2112  0.4174  0.7034
 2876Sol     OW15511   0.429   3.820   3.531  0.0886  0.0595  0.5829
 2876Sol     HW15512   0.439   3.910   3.502  0.0980 -0.3859 -0.8130
 2876Sol     HW15513   0.479   3.768   3.468 -0.8415 -1.0167  0.7072
 2876Sol     MW15514   0.434   3.824   3.523  0.1088  0.6244 -0.3484
 2877Sol     OW15515   3.507   3.580   4.135  0.0980 -0.4715  0.2087
 2877Sol     HW15516   3.580   3.599   4.075 -0.6663 -0.8721 -0.8630
 2877Sol     HW15517   3.495   3.661   4.184  0.8141 -0.1731 -0.0993
 2877Sol     MW15518   3.513   3.589   4.134 -0.3892  0.4246 -0.2969
 2878Sol     OW15519   1.664   3.345   1.358  0.2105  0.0233 -0.6490
 2878Sol     HW15520   1.603   3.371   1.288  0.2017 -0.3353 -0.7736
 2878Sol     HW15521   1.680   3.252   1.342 -1.2388 -0.5117  0.9286
 2878Sol     MW15522   1.660   3.339   1.350 -0.3228 -0.0867  0.3696
 2879Sol     OW15523   2.935   4.115   4.064 -0.2612  0.2321  0.5959
 2879Sol     HW15524   2.949   4.085   4.154  1.0865 -1.7397 -0.2222
 2879Sol     HW15525   2.902   4.037   4.018 -0.7249  1.1535 -0.6635
 2879Sol     MW15526   2.933   4.105   4.068 -0.4951  0.3313  0.6899
 2880Sol     OW15527   2.716   2.671   6.302 -0.3222 -0.5072 -0.2843
 2880Sol     HW15528   2.640   2.724   6.280 -0.5354 -0.6054  0.2048
 2880Sol     HW15529   2.702   2.644   6.393 -0.6878 -2.2094 -0.8234
 2880Sol     MW15530   2.708   2.673   6.309 -0.5007  0.2774  0.0440
 2881Sol     OW15531   0.761   3.885   1.953  0.3015  0.5002  0.3278
 2881Sol     HW15532   0.844   3.854   1.989  0.1571 -0.2783 -0.0071
 2881Sol     HW15533   0.739   3.822   1.885 -1.5493 -0.4270  1.7222
 2881Sol     MW15534   0.766   3.876   1.950  0.0299 -0.6868 -0.0144
 2882Sol     OW15535   0.367   0.528   3.063 -0.0420  0.2952  0.2307
 2882Sol     HW15536   0.374   0.589   3.137  2.4431 -1.2455  1.3003
 2882Sol     HW15537   0.330   0.448   3.101 -0.1990  0.0100 -0.5196
 2882Sol     MW15538   0.364   0.527   3.073 -0.2090 -0.0630  0.1470
 2883Sol     OW15539   2.509   1.436   2.796  0.3607 -0.0785 -0.7145
 2883Sol     HW15540   2.456   1.362   2.826 -0.4501  1.1988  1.1342
 2883Sol     HW15541   2.447   1.493   2.750  0.4791  0.5442 -0.1234
 2883Sol     MW15542   2.499   1.435   2.794  0.5211  0.0590 -0.4583
 2884Sol     OW15543   0.471   1.942   5.647 -0.2346 -0.6785 -0.5881
 2884Sol     HW15544   0.493   2.004   5.716  0.0622  3.2097 -3.9445
 2884Sol     HW15545   0.376   1.946   5.640 -0.3093 -1.4757 -0.0548
 2884Sol     MW15546   0.465   1.948   5.652  0.5943  0.1097 -0.3592
 2885Sol     OW15547   1.375   2.644   6.575 -0.1686 -0.2528  0.2749
 2885Sol     HW15548   1.442   2.702   6.612  2.4260 -2.2278 -1.1368
 2885Sol     HW15549   1.321   2.701   6.521  1.1499  1.1860  0.4504
 2885Sol     MW15550   1.376   2.654   6.573  0.4517  0.0016 -0.2870
 2886Sol     OW15551   1.494   0.562   4.613 -0.9833  0.1508 -0.0536
 2886Sol     HW15552   1.435   0.489   4.633 -1.7089  0.7823  0.1165
 2886Sol     HW15553   1.478   0.626   4.682  0.1354  0.1971  0.1726
 2886Sol     MW15554   1.488   0.561   4.621  0.1307 -0.0814 -0.2716
 2887Sol     OW15555   3.684   2.178   3.012 -0.2281 -0.0992  0.5466
 2887Sol     HW15556   3.749   2.209   2.950 -0.1600 -1.5579 -0.1368
 2887Sol     HW15557   3.605   2.229   2.992  0.2026  0.4352  0.2070
 2887Sol     MW15558   3.683   2.185   3.005 -0.6610  0.1937  0.2368
 2888Sol     OW15559   2.873   3.362   2.070  0.1173 -0.0954 -0.2176
 2888Sol     HW15560   2.945   3.322   2.021 -0.6169  0.9747 -2.2252
 2888Sol     HW15561   2.802   3.298   2.064  0.0617 -0.0112 -0.5014
 2888Sol     MW15562   2.873   3.353   2.065  0.4484 -0.3933  0.0978
 2889Sol     OW15563   3.388   0.825   6.371  0.5115  0.2123  0.0448
 2889Sol     HW15564   3.330   0.787   6.437  1.1461  1.4058  1.3012
 2889Sol     HW15565   3.465   0.853   6.420  0.5041  2.1388 -1.0336
 2889Sol     MW15566   3.390   0.824   6.381  0.8581  0.1688  1.1244
 2890Sol     OW15567   2.053   3.432   3.907  0.3312 -0.1406  0.3808
 2890Sol     HW15568   2.120   3.480   3.955  0.3207 -0.5831  0.8461
 2890Sol     HW15569   2.011   3.498   3.852  0.3561  0.3679  0.9641
 2890Sol     MW15570   2.055   3.442   3.906  0.5573  0.2352  0.7212
 2891Sol     OW15571   0.841   1.175   2.282  0.4012 -0.3821 -0.1387
 2891Sol     HW15572   0.803   1.158   2.368 -1.2313  0.0898 -0.7486
 2891Sol     HW15573   0.766   1.189   2.225  1.4554 -0.9674 -1.7120
 2891Sol     MW15574   0.831   1.174   2.285  0.2574 -0.5880 -1.2916
 2892Sol     OW15575   2.892   2.615   5.442  0.0999  0.2793  0.0179
 2892Sol     HW15576   2.871   2.706   5.422 -0.7461 -0.1065 -0.9120
 2892Sol     HW15577   2.872   2.567   5.361 -0.3685 -0.8667  0.7823
 2892Sol     MW15578   2.888   2.618   5.433  0.2363 -0.1396  0.1040
 2893Sol     OW15579   1.199   3.200   3.633  0.8237  0.1094  0.0505
 2893Sol     HW15580   1.260   3.267   3.667 -0.5904  0.2959  2.3672
 2893Sol     HW15581   1.119   3.249   3.615  0.5261 -0.5734 -0.4588
 2893Sol     MW15582   1.198   3.211   3.635 -0.3180  0.5120 -0.5171
 2894Sol     OW15583   0.091   1.417   4.611  0.4242  0.3575 -0.3704
 2894Sol     HW15584   0.040   1.435   4.532  2.4519 -1.3951 -2.1452
 2894Sol     HW15585   0.064   1.328   4.636  0.3446  0.6159  0.4622
 2894Sol     MW15586   0.084   1.410   4.606 -0.6390  0.0837 -0.7634
 2895Sol     OW15587   2.564   0.606   6.676 -0.2803 -0.3795 -0.3464
 2895Sol     HW15588   2.603   0.685   6.638 -0.0274  0.2583  1.2195
 2895Sol     HW15589   2.630   0.538   6.664  0.1209  0.0081 -0.3365
 2895Sol     MW15590   2.573   0.607   6.671 -0.0473  0.6874 -0.6088
 2896Sol     OW15591   3.844   3.560   4.651 -0.3750  0.0116 -0.0780
 2896Sol     HW15592   3.806   3.581   4.565 -1.8483  1.0980  0.8250
 2896Sol     HW15593   3.938   3.578   4.640 -0.7951  1.8117 -0.9632
 2896Sol     MW15594   3.849   3.563   4.642  0.3464  0.1664 -0.6006
 2897Sol     OW15595   0.347   0.226   6.108  0.3206 -0.4761 -0.1546
 2897Sol     HW15596   0.436   0.223   6.074  0.2130 -0.4851 -0.4379
 2897Sol     HW15597   0.297   0.169   6.050  0.0429 -0.1348 -0.2559
 2897Sol     MW15598   0.350   0.221   6.100  0.2702  0.6352  0.1477
 2898Sol     OW15599   2.682   2.045   5.491 -0.2703  0.1514 -0.0780
 2898Sol     HW15600   2.587   2.040   5.485 -0.1351 -0.9412 -1.8540
 2898Sol     HW15601   2.702   2.138   5.482 -1.1161  0.2739 -0.7861
 2898Sol     MW15602   2.675   2.053   5.489  0.2686 -0.2325  0.2186
 2899Sol     OW15603   2.064   3.548   2.048 -0.3944  0.5254 -0.1081
 2899Sol     HW15604   2.111   3.549   1.965  0.1324 -0.0576  0.1833
 2899Sol     HW15605   2.020   3.463   2.050  0.1924  0.2314  0.5402
 2899Sol     MW15606   2.064   3.540   2.040 -0.7802  0.6309 -0.4028
 2900Sol     OW15607   0.494   3.670   5.909  0.0156 -0.2600  0.2590
 2900Sol     HW15608   0.412   3.703   5.875 -0.0944  2.8401  3.2147
 2900Sol     HW15609   0.486   3.575   5.904 -3.5312 -0.0148  0.0088
 2900Sol     MW15610   0.486   3.664   5.906  0.2934 -0.1528  0.2398
 2901Sol     OW15611   1.890   3.765   1.399 -0.9346  0.6225  0.5306
 2901Sol     HW15612   1.871   3.672   1.386  1.6018  0.2362 -0.7825
 2901Sol     HW15613   1.827   3.794   1.465 -1.1884 -2.2157  1.5825
 2901Sol     MW15614   1.883   3.759   1.403  0.1541  0.2619  0.6446
 2902Sol     OW15615   1.054   2.841   2.440  0.1217  0.1111  0.5085
 2902Sol     HW15616   1.061   2.796   2.356 -0.3880 -0.4694  0.7767
 2902Sol     HW15617   0.967   2.818   2.473  0.2407  0.4968  1.1032
 2902Sol     MW15618   1.047   2.835   2.436 -0.5561  0.1244  0.2811
 2903Sol     OW15619   0.277   2.987   2.768  0.1413  0.1101 -0.1565
 2903Sol     HW15620   0.225   3.002   2.688  0.1387 -0.4781 -0.2655
 2903Sol     HW15621   0.270   2.893   2.783  1.2316  0.0205 -0.2030
 2903Sol     MW15622   0.271   2.980   2.762 -0.2642  1.0671 -0.3966
 2904Sol     OW15623   1.693   1.524   3.504 -0.2656  0.2301  0.2777
 2904Sol     HW15624   1.670   1.583   3.576  0.4970 -1.1931  1.7052
 2904Sol     HW15625   1.675   1.575   3.425 -1.0347  1.8420  1.4682
 2904Sol     MW15626   1.689   1.534   3.504  0.1828 -0.0727  0.1208
 2905Sol     OW15627   2.093   3.400   2.560 -0.1302  0.0881 -0.0785
 2905Sol     HW15628   2.101   3.471   2.497  4.1210 -0.1223  0.0630
 2905Sol     HW15629   2.099   3.443   2.646 -0.8660 -0.1067  0.0709
 2905Sol     MW15630   2.094   3.410   2.562 -0.6598 -0.1428 -0.6781
 2906Sol     OW15631   0.848   3.370   2.003 -0.3530 -0.3192  0.0839
 2906Sol     HW15632   0.889   3.445   2.046 -1.2400  0.5708 -0.6208
 2906Sol     HW15633   0.921   3.308   1.990  0.2604  0.1522  1.2079
 2906Sol     MW15634   0.859   3.371   2.006 -0.6664  0.3445 -0.1950
 2907Sol     OW15635   3.472   3.807   4.837  0.6230  0.3050  0.3695
 2907Sol     HW15636   3.441   3.826   4.749  1.3882  0.3954  0.1158
 2907Sol     HW15637   3.416   3.736   4.868  1.5959 -1.0412 -0.9122
 2907Sol     MW15638   3.464   3.803   4.832  0.0514  0.4623  0.3182
 2908Sol     OW15639   3.955   4.148   5.007 -0.0596  0.0038  0.7416
 2908Sol     HW15640   3.880   4.162   5.066  0.3076  0.6264  1.0720
 2908Sol     HW15641   4.027   4.124   5.065  0.1754  0.1091  0.4948
 2908Sol     MW15642   3.955   4.147   5.018  0.0532 -0.0754 -0.3016
 2909Sol     OW15643   0.600   3.273   4.190  0.0438  0.0768  0.1401
 2909Sol     HW15644   0.694   3.279   4.172 -0.1150  0.9715 -0.4344
 2909Sol     HW15645   0.575   3.361   4.216 -0.6128 -0.1913  0.4275
 2909Sol     MW15646   0.606   3.281   4.190  0.3181  0.0857  0.1482
 2910Sol     OW15647   2.677   2.678   2.136  0.8189 -0.2273  0.0969
 2910Sol     HW15648   2.687   2.596   2.185  0.2566 -0.1860  0.2812
 2910Sol     HW15649   2.583   2.695   2.136  0.5978 -1.1879 -2.5972
 2910Sol     MW15650   2.670   2.672   2.140  0.0532  0.5841 -0.0868
 2911Sol     OW15651   1.618   2.077   4.899 -0.2540  0.2648  0.6010
 2911Sol     HW15652   1.648   2.075   4.990  1.6588  0.8032 -0.0011
 2911Sol     HW15653   1.527   2.108   4.904 -1.0721 -2.1934  2.5388
 2911Sol     MW15654   1.612   2.079   4.908 -0.6237  0.6762  0.8513
 2912Sol     OW15655   2.429   0.032   3.972  0.3380 -0.4922  0.4140
 2912Sol     HW15656   2.444   0.093   3.899  0.0220  2.8316  3.0280
 2912Sol     HW15657   2.337   0.008   3.963  0.1914  0.1977 -0.0783
 2912Sol     MW15658   2.422   0.036   3.964  0.2956 -0.4083  0.3450
 2913Sol     OW15659   3.907   3.614   2.006 -0.0347 -0.4163  0.2443
 2913Sol     HW15660   3.891   3.669   2.083  0.1952  0.4081 -0.2961
 2913Sol     HW15661   3.833   3.630   1.948 -0.3081 -1.1890  0.3665
 2913Sol     MW15662   3.899   3.620   2.008 -0.2149 -0.0589  0.0015
 2914Sol     OW15663   1.824   3.219   2.543 -0.0494  0.0979 -0.3419
 2914Sol     HW15664   1.819   3.224   2.639  1.3873 -3.4770  0.0018
 2914Sol     HW15665   1.904   3.268   2.521 -0.6821  1.4029  0.2236
 2914Sol     MW15666   1.831   3.224   2.550 -0.1853  0.3008 -0.1090
 2915Sol     OW15667   0.896   0.945   3.464 -0.1829  0.2464  0.3362
 2915Sol     HW15668   0.865   1.034   3.483 -0.5679  0.1550  0.1373
 2915Sol     HW15669   0.872   0.930   3.373  0.1432  0.0462  0.2848
 2915Sol     MW15670   0.891   0.951   3.458 -0.1567  0.4008  0.2019
 2916Sol     OW15671   1.844   1.664   3.955  0.4718 -0.1557 -0.2674
 2916Sol     HW15672   1.920   1.710   3.993 -0.4412  0.1148  1.2743
 2916Sol     HW15673   1.802   1.621   4.029 -2.0131  1.3224 -0.7544
 2916Sol     MW15674   1.847   1.665   3.965  0.6698 -0.5758 -0.1226
 2917Sol     OW15675   2.268   1.463   4.879 -0.2499 -0.5690 -0.2376
 2917Sol     HW15676   2.305   1.455   4.791  1.1479 -0.4519  0.3327
 2917Sol     HW15677   2.302   1.387   4.926 -0.6997 -0.4371  0.3054
 2917Sol     MW15678   2.274   1.455   4.876 -0.1926 -0.6237 -0.2835
 2918Sol     OW15679   1.035   1.938   2.163 -0.4972  0.6077  0.1786
 2918Sol     HW15680   0.941   1.918   2.155  0.0930 -2.9899  1.5618
 2918Sol     HW15681   1.078   1.877   2.104  1.2457 -0.5732  2.5969
 2918Sol     MW15682   1.030   1.931   2.157 -0.0751  0.0709  0.5959
 2919Sol     OW15683   3.818   0.430   2.531 -0.3570 -0.2923 -0.2087
 2919Sol     HW15684   3.899   0.410   2.484  0.3131  1.4845  0.1650
 2919Sol     HW15685   3.761   0.470   2.465 -0.9519 -1.5657 -0.4779
 2919Sol     MW15686   3.820   0.432   2.521 -0.1492  0.4152  0.0207
 2920Sol     OW15687   0.658   2.189   1.225  0.3262 -0.4507 -0.3786
 2920Sol     HW15688   0.752   2.171   1.220  0.3781 -0.3343  0.1372
 2920Sol     HW15689   0.641   2.250   1.154  0.7792  0.1062 -0.0106
 2920Sol     MW15690   0.665   2.193   1.219  0.6600 -0.0829 -0.0295
 2921Sol     OW15691   0.990   3.982   2.462 -0.9414  0.2168 -0.6806
 2921Sol     HW15692   1.012   3.898   2.502 -2.0805  0.9662  1.5805
 2921Sol     HW15693   0.902   3.971   2.427 -1.9103  1.0643  1.4249
 2921Sol     MW15694   0.984   3.974   2.463 -0.4508  0.1322  0.9837
 2922Sol     OW15695   2.522   3.447   2.405  0.3253 -0.1541 -0.3884
 2922Sol     HW15696   2.571   3.368   2.382 -1.7044 -2.1036  1.7090
 2922Sol     HW15697   2.433   3.430   2.374 -0.1593  1.2935  0.1735
 2922Sol     MW15698   2.518   3.438   2.400 -0.6653 -0.2039 -0.5784
 2923Sol     OW15699   0.140   3.517   2.168  0.0483 -0.3641 -0.2419
 2923Sol     HW15700   0.193   3.445   2.203  0.0325 -1.4523 -2.3596
 2923Sol     HW15701   0.080   3.474   2.107 -3.8169  0.7429  2.6498
 2923Sol     MW15702   0.140   3.506   2.166 -0.1338  0.1411  0.1408
 2924Sol     OW15703   3.485   3.884   6.525 -0.1203  0.1808 -0.2494
 2924Sol     HW15704   3.469   3.910   6.615  1.1156 -0.4831  0.1731
 2924Sol     HW15705   3.453   3.794   6.520 -1.6996  0.7530 -0.9290
 2924Sol     MW15706   3.480   3.878   6.532  0.0279  0.0299  0.4083
 2925Sol     OW15707   0.220   2.791   5.359 -0.0737  0.0048  0.1164
 2925Sol     HW15708   0.140   2.747   5.329  0.9393 -2.0796  0.3695
 2925Sol     HW15709   0.255   2.833   5.280 -0.5775 -0.4444 -0.3495
 2925Sol     MW15710   0.216   2.791   5.349 -0.0227  0.5487  0.0245
 2926Sol     OW15711   0.981   0.671   3.518 -0.1072 -0.2257  0.2395
 2926Sol     HW15712   0.959   0.763   3.531 -0.4181 -0.3911  0.9470
 2926Sol     HW15713   1.036   0.669   3.440 -1.2460  0.3984 -0.5950
 2926Sol     MW15714   0.984   0.679   3.513 -0.1762 -0.6471 -0.2694
 2927Sol     OW15715   3.142   3.141   2.515  0.5856  0.5661 -0.1062
 2927Sol     HW15716   3.104   3.168   2.598  1.6525  0.0588  0.5484
 2927Sol     HW15717   3.073   3.089   2.473  0.5499 -0.3869  1.0901
 2927Sol     MW15718   3.132   3.139   2.518 -0.1396 -0.2763  0.2846
 2928Sol     OW15719   0.651   0.619   6.453  0.3179  0.1089 -0.1133
 2928Sol     HW15720   0.636   0.545   6.394 -0.7143 -0.0584  0.3421
 2928Sol     HW15721   0.708   0.583   6.521  0.3240 -0.1029 -0.2292
 2928Sol     MW15722   0.655   0.609   6.454  0.0206  0.2835  0.5338
 2929Sol     OW15723   1.004   0.945   2.181  0.7945  0.3804  0.3506
 2929Sol     HW15724   0.937   0.877   2.172  0.3522  1.0008 -1.0508
 2929Sol     HW15725   0.960   1.017   2.226  1.3166 -0.3065  2.0156
 2929Sol     MW15726   0.994   0.945   2.185 -0.0948  0.3210  0.1954
 2930Sol     OW15727   0.511   0.013   5.524  0.1355  0.6150  0.1372
 2930Sol     HW15728   0.489   0.016   5.431 -0.0180  0.9062  0.1835
 2930Sol     HW15729   0.552   0.098   5.542 -1.0408  1.0837  0.6397
 2930Sol     MW15730   0.513   0.021   5.518 -0.3016  0.3800  0.5468
 2931Sol     OW15731   3.693   3.817   3.621 -0.0576 -0.0188  0.4350
 2931Sol     HW15732   3.640   3.861   3.554 -0.5538  0.1109  0.9122
 2931Sol     HW15733   3.755   3.884   3.650 -0.1237  0.0534  0.4093
 2931Sol     MW15734   3.694   3.827   3.618  0.0442  0.5127 -0.0150
 2932Sol     OW15735   0.974   2.792   3.626  0.5875 -0.0468 -0.4543
 2932Sol     HW15736   0.881   2.812   3.634  0.0951 -1.9774 -1.1421
 2932Sol     HW15737   1.002   2.839   3.548  0.3737  1.1469  0.1759
 2932Sol     MW15738   0.968   2.798   3.620  0.1746  0.2225  0.3653
 2933Sol     OW15739   1.377   2.703   6.934  0.0139  0.3626  0.2667
 2933Sol     HW15740   1.360   2.612   6.961 -0.2792  0.4582  0.4081
 2933Sol     HW15741   1.290   2.737   6.910  0.2440  0.3228 -0.6521
 2933Sol     MW15742   1.367   2.698   6.934  0.3515  0.3662  0.4018
 2934Sol     OW15743   3.315   3.861   4.622 -0.0416  0.1649  0.3499
 2934Sol     HW15744   3.291   3.789   4.564 -1.4315  0.2822  0.7508
 2934Sol     HW15745   3.232   3.887   4.663  0.4931  1.8119  0.4167
 2934Sol     MW15746   3.305   3.857   4.621 -0.5316  0.4022  0.1825
 2935Sol     OW15747   0.472   3.031   5.587 -0.7383 -0.1600 -0.7832
 2935Sol     HW15748   0.402   2.990   5.535 -2.2595 -0.4952  1.4783
 2935Sol     HW15749   0.525   2.957   5.616  0.6327  0.0962 -2.5200
 2935Sol     MW15750   0.471   3.020   5.585 -0.2349  0.3913  0.1964
 2936Sol     OW15751   1.896   3.779   1.790 -0.6105  0.0229  0.5259
 2936Sol     HW15752   1.896   3.853   1.851  0.4299 -0.9508  1.7493
 2936Sol     HW15753   1.834   3.804   1.721 -1.0683  1.5683  1.4749
 2936Sol     MW15754   1.890   3.788   1.790 -1.0443  0.4086 -0.0691
 2937Sol     OW15755   2.040   3.979   5.676 -0.5282 -0.0114 -0.5493
 2937Sol     HW15756   2.059   3.987   5.582 -1.2970  0.0315 -0.7048
 2937Sol     HW15757   1.946   3.963   5.680 -0.1631 -2.1638  0.1192
 2937Sol     MW15758   2.033   3.979   5.668 -0.2981 -0.3408  0.8298
 2938Sol     OW15759   1.669   2.867   2.092  0.5072  0.3095 -0.6111
 2938Sol     HW15760   1.604   2.937   2.087  2.3852  2.1345 -0.0642
 2938Sol     HW15761   1.665   2.836   2.183  1.8396  1.8571 -0.0060
 2938Sol     MW15762   1.662   2.870   2.100  0.2498  0.6417  0.2731
 2939Sol     OW15763   3.125   1.424   5.859  0.2548  0.1585  0.0912
 2939Sol     HW15764   3.048   1.370   5.879 -0.5496  1.1173 -0.3577
 2939Sol     HW15765   3.151   1.398   5.771  0.6087 -0.3425  0.3378
 2939Sol     MW15766   3.120   1.417   5.853  0.1119  0.5141  0.4525
 2940Sol     OW15767   1.779   0.089   6.280  0.5402  0.2781 -0.0232
 2940Sol     HW15768   1.744   0.067   6.366  0.2681  1.3612  0.1557
 2940Sol     HW15769   1.759   0.013   6.225  0.2008 -0.1712  0.7222
 2940Sol     MW15770   1.774   0.080   6.282  0.0652 -0.1373  0.4009
 2941Sol     OW15771   0.045   0.900   3.245 -0.0745 -0.2009 -1.0626
 2941Sol     HW15772   0.113   0.915   3.311 -2.6684  2.7686  1.0962
 2941Sol     HW15773  -0.008   0.829   3.282  0.0481 -0.4153 -1.2938
 2941Sol     MW15774   0.047   0.895   3.254 -0.0141  0.7210  0.4912
 2942Sol     OW15775   0.821   2.161   5.674 -0.6509 -0.3302  0.3034
 2942Sol     HW15776   0.761   2.194   5.607 -0.6274 -0.4426  0.2273
 2942Sol     HW15777   0.852   2.077   5.640  0.5972  0.3568 -0.2921
 2942Sol     MW15778   0.818   2.157   5.665  0.1117 -0.4194  0.2208
 2943Sol     OW15779   2.406   3.956   6.371 -0.0460 -0.1385 -0.2464
 2943Sol     HW15780   2.318   3.987   6.392  0.4695 -0.4381  2.6370
 2943Sol     HW15781   2.462   4.033   6.382  0.4176 -0.6175  0.8763
 2943Sol     MW15782   2.403   3.966   6.374 -0.3665  0.4682 -0.2433
 2944Sol     OW15783   3.928   1.882   1.492 -0.5687  0.1974 -0.1097
 2944Sol     HW15784   3.842   1.885   1.451  0.0799  0.2840 -1.4978
 2944Sol     HW15785   3.967   1.968   1.474  1.2277 -1.0827 -2.7290
 2944Sol     MW15786   3.924   1.890   1.487 -0.0930 -0.5696  0.5083
 2945Sol     OW15787   0.161   3.858   4.812 -0.2550  0.2565  0.5830
 2945Sol     HW15788   0.078   3.905   4.801 -0.7980 -0.8894 -0.3158
 2945Sol     HW15789   0.218   3.894   4.744 -0.8275 -0.7080 -0.4237
 2945Sol     MW15790   0.159   3.865   4.805  0.7738  0.4284  0.4100
 2946Sol     OW15791   1.228   2.363   5.637 -0.2167 -0.5520 -0.0737
 2946Sol     HW15792   1.147   2.392   5.679  0.7359 -0.8218  1.9854
 2946Sol     HW15793   1.271   2.308   5.702  0.5038 -2.3503 -2.0356
 2946Sol     MW15794   1.225   2.361   5.646  0.1569  0.2789 -0.0754
 2947Sol     OW15795   3.754   3.426   1.494  0.1977  0.2812  0.2524
 2947Sol     HW15796   3.692   3.474   1.439  0.9977  0.4112 -0.5463
 2947Sol     HW15797   3.715   3.430   1.581 -1.1024  0.0422 -0.2976
 2947Sol     MW15798   3.745   3.431   1.497 -0.3280 -0.0247  0.2654
 2948Sol     OW15799   3.999   1.331   3.236 -0.4699 -0.0525  0.5871
 2948Sol     HW15800   3.952   1.402   3.191 -0.8673  0.4959  1.8397
 2948Sol     HW15801   3.983   1.254   3.182  1.6867  1.1951 -1.9603
 2948Sol     MW15802   3.993   1.331   3.227  0.0495  0.1483  0.4118
 2949Sol     OW15803   1.909   1.650   4.409 -0.4720  0.4641  0.0686
 2949Sol     HW15804   1.983   1.596   4.436 -0.1012  1.7000  1.5952
 2949Sol     HW15805   1.835   1.619   4.462 -0.6451  0.3633 -0.2304
 2949Sol     MW15806   1.909   1.643   4.416 -0.1905 -0.4601  0.1536
 2950Sol     OW15807   3.250   1.261   3.120  0.0626 -0.2530 -0.0821
 2950Sol     HW15808   3.158   1.286   3.129  0.2756  0.0392  1.3968
 2950Sol     HW15809   3.268   1.268   3.026 -1.3759 -0.1697 -0.3630
 2950Sol     MW15810   3.243   1.264   3.112 -0.2456 -0.5019  0.8069
 2951Sol     OW15811   3.197   2.642   5.717  0.0183 -0.5396 -0.4516
 2951Sol     HW15812   3.108   2.637   5.752 -0.6041 -0.1556 -1.9177
 2951Sol     HW15813   3.249   2.682   5.787 -1.0207 -0.5014  0.3043
 2951Sol     MW15814   3.194   2.645   5.726 -0.4552  0.4110 -0.2452
 2952Sol     OW15815   3.134   0.827   2.550  0.5086 -0.5975 -0.3080
 2952Sol     HW15816   3.051   0.814   2.504 -0.5287  0.8437  1.0804
 2952Sol     HW15817   3.138   0.922   2.564  2.3911 -0.6585 -0.3473
 2952Sol     MW15818   3.127   0.835   2.547 -0.1634  0.3995  0.3794
 2953Sol     OW15819   0.338   1.330   5.849  0.2788  0.7220  0.7975
 2953Sol     HW15820   0.396   1.258   5.874  0.1536 -0.4406 -2.0618
 2953Sol     HW15821   0.344   1.392   5.922  3.7201 -0.2098  1.4218
 2953Sol     MW15822   0.344   1.329   5.858 -0.6074 -0.6437  0.1224
 2954Sol     OW15823   0.545   1.661   6.164  0.4540 -0.0850 -0.4548
 2954Sol     HW15824   0.558   1.752   6.187  0.4020 -0.0929 -0.3950
 2954Sol     HW15825   0.562   1.612   6.244 -2.1209  0.0627  0.2128
 2954Sol     MW15826   0.547   1.664   6.173  0.1963 -0.0795 -0.3816
 2955Sol     OW15827   3.357   1.581   2.655 -0.2354 -0.4633 -0.1562
 2955Sol     HW15828   3.289   1.612   2.594  1.4200  0.8507 -1.3638
 2955Sol     HW15829   3.437   1.579   2.603  0.8440 -1.1316  1.4986
 2955Sol     MW15830   3.358   1.584   2.644 -0.5730 -0.2739  0.2667
 2956Sol     OW15831   3.894   3.468   2.316 -0.0864  0.3148  0.4681
 2956Sol     HW15832   3.984   3.484   2.288  0.2451 -0.2075  1.2176
 2956Sol     HW15833   3.866   3.551   2.354  0.1382  0.4320  0.3784
 2956Sol     MW15834   3.900   3.477   2.317 -0.3580  0.3102 -0.0235
 2957Sol     OW15835   1.134   0.292   4.521  0.3188 -0.0665 -0.0525
 2957Sol     HW15836   1.197   0.244   4.466  1.4525 -1.1258  2.0722
 2957Sol     HW15837   1.187   0.322   4.596 -1.0594  1.8295  0.1855
 2957Sol     MW15838   1.145   0.290   4.523 -0.0649 -0.7066 -0.1277
 2958Sol     OW15839   2.799   2.680   3.254 -0.7453  0.4879  0.1632
 2958Sol     HW15840   2.749   2.673   3.172  1.4005  1.8248 -1.2850
 2958Sol     HW15841   2.783   2.769   3.284  3.3845  2.1175 -2.1134
 2958Sol     MW15842   2.793   2.687   3.249  0.4643  0.0113  0.1039
 2959Sol     OW15843   3.275   1.353   5.083  0.3075  0.8532 -0.2209
 2959Sol     HW15844   3.273   1.448   5.086 -0.7638  0.8281  0.0589
 2959Sol     HW15845   3.196   1.328   5.035  0.6063  0.1091 -0.3341
 2959Sol     MW15846   3.268   1.359   5.079 -0.1371  0.3864 -0.1580
 2960Sol     OW15847   3.114   0.940   6.222 -0.1872 -0.3038 -0.0266
 2960Sol     HW15848   3.117   1.016   6.163 -0.8870 -1.9794 -2.2990
 2960Sol     HW15849   3.203   0.931   6.255  0.1528  0.8382 -0.6145
 2960Sol     MW15850   3.122   0.946   6.219 -0.0409  0.3030  0.1330
 2961Sol     OW15851   0.417   1.798   4.017  0.4475 -0.0163  0.3679
 2961Sol     HW15852   0.393   1.813   3.925 -0.7134 -0.3799  0.6124
 2961Sol     HW15853   0.439   1.885   4.050 -0.4619  0.3057  0.1255
 2961Sol     MW15854   0.417   1.807   4.012 -0.5294 -0.6299 -0.2355
 2962Sol     OW15855   3.031   0.465   3.011  0.3217 -0.2399  0.1424
 2962Sol     HW15856   3.070   0.552   3.012  1.6392 -0.8074 -0.6619
 2962Sol     HW15857   2.946   0.476   3.052  1.9489  0.7309  3.3967
 2962Sol     MW15858   3.027   0.474   3.014 -0.0395 -0.0642 -0.6516
 2963Sol     OW15859   2.299   0.801   3.026 -0.1709  0.4650 -0.3448
 2963Sol     HW15860   2.364   0.795   2.956 -0.1575  1.1637 -0.4010
 2963Sol     HW15861   2.340   0.759   3.101 -0.3740 -0.7218 -0.8929
 2963Sol     MW15862   2.309   0.797   3.026 -0.5907  0.8861  0.7329
 2964Sol     OW15863   1.600   0.309   1.696  0.5628 -0.0965  0.4198
 2964Sol     HW15864   1.609   0.399   1.665  1.0787 -0.6124 -0.9457
 2964Sol     HW15865   1.624   0.254   1.621  0.1610 -1.3798  1.2002
 2964Sol     MW15866   1.603   0.312   1.687  0.3376 -0.1811 -0.4051
 2965Sol     OW15867   1.425   1.530   2.132 -0.0642 -0.1188  0.6621
 2965Sol     HW15868   1.346   1.531   2.078  0.3374 -1.8974  0.0058
 2965Sol     HW15869   1.400   1.483   2.211 -0.1883  1.0449  1.3346
 2965Sol     MW15870   1.416   1.526   2.134 -0.0316  0.3182  0.5534
 2966Sol     OW15871   0.701   4.073   6.516 -0.2818 -1.0275 -0.4852
 2966Sol     HW15872   0.746   4.020   6.451  0.8061 -0.9293  0.1706
 2966Sol     HW15873   0.703   4.162   6.480  0.5371 -0.9311 -0.2025
 2966Sol     MW15874   0.705   4.076   6.507  1.4598 -0.7380  0.3331
 2967Sol     OW15875   0.324   4.152   2.098 -0.1986 -0.4120 -0.3395
 2967Sol     HW15876   0.340   4.222   2.034 -0.7520 -0.8801 -1.0019
 2967Sol     HW15877   0.251   4.101   2.060 -2.5332  1.0273  2.0802
 2967Sol     MW15878   0.319   4.153   2.089 -0.1360 -0.0628  0.4906
 2968Sol     OW15879   0.912   0.166   4.948 -0.2805  0.1894  0.3352
 2968Sol     HW15880   0.981   0.219   4.988  0.2744 -1.4910  1.6566
 2968Sol     HW15881   0.955   0.083   4.927 -1.2738  0.0411 -1.2165
 2968Sol     MW15882   0.922   0.163   4.949 -0.0471 -0.0047  0.1938
 2969Sol     OW15883   1.381   1.182   2.648  0.1820 -0.3035  0.4819
 2969Sol     HW15884   1.391   1.089   2.671  1.7679  0.5177  3.3498
 2969Sol     HW15885   1.305   1.211   2.697  0.9480  0.4147  1.2559
 2969Sol     MW15886   1.375   1.176   2.654  0.1842 -0.0402  0.5408
 2970Sol     OW15887   0.394   1.179   3.266 -0.2544  0.2232  0.0777
 2970Sol     HW15888   0.397   1.265   3.309 -0.7523  1.2557 -1.8738
 2970Sol     HW15889   0.319   1.135   3.306  0.8348  0.1476  2.0796
 2970Sol     MW15890   0.387   1.183   3.273 -0.3268  0.3192 -0.2026
 2971Sol     OW15891   1.948   1.883   5.356  0.2943  0.3916  0.5279
 2971Sol     HW15892   1.976   1.902   5.446 -0.4099  1.3103  0.5626
 2971Sol     HW15893   2.017   1.827   5.321  1.3417  1.2634  1.1524
 2971Sol     MW15894   1.957   1.880   5.361 -0.2591  0.0618 -0.6614
 2972Sol     OW15895   3.731   3.170   2.861  0.7125  0.0132  0.3688
 2972Sol     HW15896   3.810   3.167   2.807 -0.0149 -1.8252 -0.6417
 2972Sol     HW15897   3.741   3.250   2.913  2.3079  0.8448 -1.1457
 2972Sol     MW15898   3.739   3.177   2.861 -0.2542 -0.1595 -0.1926
 2973Sol     OW15899   0.744   1.145   1.967  0.2296  0.0465  0.0438
 2973Sol     HW15900   0.689   1.072   1.996 -0.2287  1.5790  3.2679
 2973Sol     HW15901   0.685   1.199   1.914 -0.5322  0.1145  0.9438
 2973Sol     MW15902   0.733   1.143   1.965  0.3021  0.0881  0.8890
 2974Sol     OW15903   1.921   2.684   4.859 -0.0498  0.1328 -0.1145
 2974Sol     HW15904   1.935   2.612   4.921  0.6123  0.7802  0.5078
 2974Sol     HW15905   1.985   2.750   4.886  0.3041  0.3824 -1.5548
 2974Sol     MW15906   1.928   2.683   4.867  0.2831  0.4503 -0.1540
 2975Sol     OW15907   2.230   2.016   6.145  0.1747 -0.0772  0.0167
 2975Sol     HW15908   2.139   2.008   6.118  0.1936 -0.2254 -0.0035
 2975Sol     HW15909   2.257   2.103   6.113  0.3792 -0.4957 -0.9806
 2975Sol     MW15910   2.224   2.023   6.139  0.0014 -0.4312  0.2831
 2976Sol     OW15911   0.974   2.890   1.719 -0.2913  0.1808 -0.3249
 2976Sol     HW15912   0.940   2.924   1.637  0.5367 -0.4570 -0.9382
 2976Sol     HW15913   1.049   2.836   1.694 -0.0174 -0.0010  0.8463
 2976Sol     MW15914   0.977   2.888   1.710  0.7483 -0.7374  0.0930
 2977Sol     OW15915   2.231   1.515   2.671  0.1428  0.6180  0.5573
 2977Sol     HW15916   2.168   1.585   2.654 -0.4402 -0.0593 -0.1073
 2977Sol     HW15917   2.187   1.457   2.734  0.2060  0.2871  0.3010
 2977Sol     MW15918   2.221   1.516   2.675 -0.2324  1.0110  0.1384
 2978Sol     OW15919   0.120   2.948   2.520  0.1078 -0.2522  0.2845
 2978Sol     HW15920   0.082   2.861   2.514 -1.1947  0.3598 -0.4950
 2978Sol     HW15921   0.192   2.947   2.457 -0.0026 -0.6969  0.1634
 2978Sol     MW15922   0.123   2.940   2.514  0.7760 -0.9673 -0.0271
 2979Sol     OW15923   2.449   3.953   5.214 -0.3031  0.4065 -0.5212
 2979Sol     HW15924   2.387   3.882   5.232  0.4358 -0.0676  0.1910
 2979Sol     HW15925   2.532   3.909   5.197  0.3144  1.1213  0.5727
 2979Sol     MW15926   2.451   3.943   5.214  0.0024  0.3988  0.4301
 2980Sol     OW15927   2.050   4.072   3.007  0.1823  0.3445 -0.2261
 2980Sol     HW15928   2.144   4.083   2.994  0.3798  1.2608  1.8014
 2980Sol     HW15929   2.011   4.146   2.959  0.5043  0.1481 -0.7977
 2980Sol     MW15930   2.055   4.080   3.001  0.0514 -0.0860  0.7669
 2981Sol     OW15931   1.129   1.509   4.135 -0.4613 -0.0006 -0.3708
 2981Sol     HW15932   1.201   1.464   4.180  0.3602  0.5440 -1.1376
 2981Sol     HW15933   1.159   1.521   4.045  0.0139  3.4981  0.1686
 2981Sol     MW15934   1.138   1.506   4.131 -0.6224 -0.1880  0.1368
 2982Sol     OW15935   2.747   2.100   6.167 -0.2346  0.0454  0.0082
 2982Sol     HW15936   2.728   2.051   6.247  0.9840 -2.4792 -1.1846
 2982Sol     HW15937   2.836   2.072   6.143  0.2473  2.4115 -1.0494
 2982Sol     MW15938   2.754   2.093   6.172 -0.1827  0.2668 -0.4802
 2983Sol     OW15939   0.338   3.764   4.034  1.0487  0.0509 -0.2974
 2983Sol     HW15940   0.308   3.760   3.943 -2.0726  2.7432  0.5182
 2983Sol     HW15941   0.358   3.857   4.049  0.6946 -0.2001  1.9787
 2983Sol     MW15942   0.337   3.772   4.027 -0.0293  0.1131 -0.6344
 2984Sol     OW15943   3.982   3.147   2.686  0.1108 -0.3971 -0.5286
 2984Sol     HW15944   4.005   3.058   2.660 -2.6066 -1.0438 -0.9366
 2984Sol     HW15945   3.957   3.191   2.604 -0.1445  0.2189 -0.1266
 2984Sol     MW15946   3.982   3.143   2.676  0.2397  0.0245 -0.3924
 2985Sol     OW15947   2.182   2.525   3.932  0.4902  0.1673  0.3549
 2985Sol     HW15948   2.269   2.488   3.920  0.2761  0.0232 -0.8488
 2985Sol     HW15949   2.196   2.619   3.934  0.6063  0.1760 -0.5406
 2985Sol     MW15950   2.191   2.530   3.931  0.2218 -0.1997 -0.1599
 2986Sol     OW15951   1.791   2.557   6.618 -0.0030  0.0322 -0.4181
 2986Sol     HW15952   1.778   2.636   6.565 -0.8821  0.2965  0.1723
 2986Sol     HW15953   1.842   2.587   6.693  2.1812 -0.5589 -1.6225
 2986Sol     MW15954   1.794   2.567   6.620  0.1407 -0.1687 -0.1125
 2987Sol     OW15955   2.158   0.784   4.724 -0.7785 -0.5241 -0.3420
 2987Sol     HW15956   2.120   0.822   4.644 -1.4394  0.0848  0.2490
 2987Sol     HW15957   2.201   0.858   4.767  0.3987 -1.0428 -0.5977
 2987Sol     MW15958   2.158   0.794   4.720  0.0415 -0.0515  0.1795
 2988Sol     OW15959   1.072   1.635   5.752 -0.1001  0.2127  0.6322
 2988Sol     HW15960   1.031   1.548   5.751  0.3531  0.0010 -0.3885
 2988Sol     HW15961   1.000   1.695   5.733 -0.4455  0.0738  1.5005
 2988Sol     MW15962   1.062   1.632   5.750  0.6188  0.1061  0.2606
 2989Sol     OW15963   2.150   3.563   2.329 -0.1368 -0.3395  0.0811
 2989Sol     HW15964   2.110   3.575   2.243 -0.0399 -0.6499 -0.0078
 2989Sol     HW15965   2.199   3.644   2.344  1.4006 -1.0234 -0.9962
 2989Sol     MW15966   2.151   3.571   2.322 -0.2612 -0.0574  0.0301
 2990Sol     OW15967   3.574   1.795   7.023  0.0897 -0.0091  0.0020
 2990Sol     HW15968   3.499   1.851   7.043 -0.4273 -0.7327  0.1271
 2990Sol     HW15969   3.539   1.730   6.962  0.8547  0.2250 -0.7020
 2990Sol     MW15970   3.564   1.794   7.019 -0.0644 -0.8047  0.5316
 2991Sol     OW15971   2.810   3.679   4.123  0.0538 -0.1941  0.4615
 2991Sol     HW15972   2.840   3.588   4.130  2.1744  0.4330 -0.0450
 2991Sol     HW15973   2.831   3.717   4.209  1.1770  0.3704 -0.0501
 2991Sol     MW15974   2.814   3.674   4.132  0.0617  0.1691 -0.2032
 2992Sol     OW15975   3.666   1.524   3.280  0.0533  0.0222  0.5853
 2992Sol     HW15976   3.721   1.491   3.208 -2.4118 -1.7022 -0.6126
 2992Sol     HW15977   3.596   1.573   3.236 -1.8536 -1.6064  1.6947
 2992Sol     MW15978   3.665   1.525   3.270  0.4451 -0.0188 -0.4456
 2993Sol     OW15979   0.470   0.056   5.071 -0.2395  0.4963  0.2176
 2993Sol     HW15980   0.493  -0.035   5.090 -2.2763  0.0760  0.7651
 2993Sol     HW15981   0.498   0.070   4.980  1.7024 -0.1119  0.7073
 2993Sol     MW15982   0.475   0.049   5.064  0.0077 -0.0117 -0.3485
 2994Sol     OW15983   3.782   1.001   2.503  0.5608  0.7250  0.2167
 2994Sol     HW15984   3.751   0.911   2.509 -2.0811  1.4891 -1.0924
 2994Sol     HW15985   3.786   1.019   2.409  3.0629  1.3410  0.4002
 2994Sol     MW15986   3.780   0.995   2.495  0.0260 -0.2993 -0.4404
 2995Sol     OW15987   0.241   2.403   2.814  0.1582  0.2383 -0.3284
 2995Sol     HW15988   0.328   2.367   2.794 -0.3518  0.0493 -2.2887
 2995Sol     HW15989   0.257   2.466   2.884  1.9345  0.4412 -0.8902
 2995Sol     MW15990   0.250   2.405   2.819 -0.4292  0.6067  0.0435
 2996Sol     OW15991   1.963   0.121   1.567  0.5357  0.2011 -0.3799
 2996Sol     HW15992   1.906   0.136   1.492 -0.8550  3.6232  1.2361
 2996Sol     HW15993   1.913   0.062   1.624  0.3641 -0.0918 -0.8353
 2996Sol     MW15994   1.953   0.117   1.566  0.0262  0.5799  0.1724
 2997Sol     OW15995   1.985   2.568   4.620 -0.7878 -0.3716  0.3661
 2997Sol     HW15996   1.939   2.624   4.558  0.0752 -1.2356 -1.0932
 2997Sol     HW15997   1.955   2.597   4.706 -0.6383  2.0465 -0.3721
 2997Sol     MW15998   1.978   2.575   4.622 -0.0268 -0.0813  0.0855
 2998Sol     OW15999   0.432   1.582   5.109  0.0155 -0.1794  0.3862
 2998Sol     HW16000   0.508   1.583   5.052 -0.1703  1.1109  0.1489
 2998Sol     HW16001   0.463   1.545   5.191  0.9222  0.4727  0.3344
 2998Sol     MW16002   0.441   1.579   5.111  0.2018  0.5308 -0.3962
 2999Sol     OW16003   0.750   2.130   5.144  0.4459  0.2150  0.0484
 2999Sol     HW16004   0.779   2.039   5.157  0.6566  0.1154 -1.1074
 2999Sol     HW16005   0.815   2.182   5.192  1.3899 -0.1357 -0.8355
 2999Sol     MW16006   0.758   2.126   5.150 -0.2477  0.2862 -0.0389
 3000Sol     OW16007   2.175   0.484   4.018  0.1759 -0.9302 -0.0155
 3000Sol     HW16008   2.131   0.499   3.934  1.5406 -0.2646 -0.6370
 3000Sol     HW16009   2.104   0.474   4.081 -0.8665  0.3879 -0.9364
 3000Sol     MW16010   2.165   0.485   4.016  0.3788  0.0999 -0.5915
 3001Sol     OW16011   1.748   1.197   5.889 -0.1154  0.1164  0.5603
 3001Sol     HW16012   1.728   1.226   5.978 -1.3150 -1.8176  0.9616
 3001Sol     HW16013   1.674   1.225   5.836 -0.6261 -0.9868  0.6834
 3001Sol     MW16014   1.740   1.202   5.892  0.1034 -0.6840  0.7522
   4.05500   4.19580   8.29620
