[ moleculetype ]
; Name   nrexcl
Sil     2

[ atoms ]
;  nr  type  resnr  resid  atom  cgnr  charge    mass
1	Ob	1	Sil	Ob	1	-0.550000011920929	15.999
2	Ob	1	Sil	Ob	2	-0.550000011920929	15.999
3	Ob	1	Sil	Ob	3	-0.550000011920929	15.999
4	Ob	1	Sil	Ob	4	-0.550000011920929	15.999
5	Ob	1	Sil	Ob	5	-0.550000011920929	15.999
6	Ob	1	Sil	Ob	6	-0.550000011920929	15.999
7	Ob	1	Sil	Ob	7	-0.550000011920929	15.999
8	Ob	1	Sil	Ob	8	-0.550000011920929	15.999
9	Ob	1	Sil	Ob	9	-0.550000011920929	15.999
10	Ob	1	Sil	Ob	10	-0.550000011920929	15.999
11	Ob	1	Sil	Ob	11	-0.550000011920929	15.999
12	Ob	1	Sil	Ob	12	-0.550000011920929	15.999
13	Ob	1	Sil	Ob	13	-0.550000011920929	15.999
14	Ob	1	Sil	Ob	14	-0.550000011920929	15.999
15	Ob	1	Sil	Ob	15	-0.550000011920929	15.999
16	Ob	1	Sil	Ob	16	-0.550000011920929	15.999
17	Ob	1	Sil	Ob	17	-0.550000011920929	15.999
18	Ob	1	Sil	Ob	18	-0.550000011920929	15.999
19	Ob	1	Sil	Ob	19	-0.550000011920929	15.999
20	Ob	1	Sil	Ob	20	-0.550000011920929	15.999
21	Ob	1	Sil	Ob	21	-0.550000011920929	15.999
22	Ob	1	Sil	Ob	22	-0.550000011920929	15.999
23	Ob	1	Sil	Ob	23	-0.550000011920929	15.999
24	Ob	1	Sil	Ob	24	-0.550000011920929	15.999
25	Ob	1	Sil	Ob	25	-0.550000011920929	15.999
26	Ob	1	Sil	Ob	26	-0.550000011920929	15.999
27	Ob	1	Sil	Ob	27	-0.550000011920929	15.999
28	Ob	1	Sil	Ob	28	-0.550000011920929	15.999
29	Ob	1	Sil	Ob	29	-0.550000011920929	15.999
30	Ob	1	Sil	Ob	30	-0.550000011920929	15.999
31	Ob	1	Sil	Ob	31	-0.550000011920929	15.999
32	Ob	1	Sil	Ob	32	-0.550000011920929	15.999
33	Ob	1	Sil	Ob	33	-0.550000011920929	15.999
34	Ob	1	Sil	Ob	34	-0.550000011920929	15.999
35	Ob	1	Sil	Ob	35	-0.550000011920929	15.999
36	Ob	1	Sil	Ob	36	-0.550000011920929	15.999
37	Ob	1	Sil	Ob	37	-0.550000011920929	15.999
38	Ob	1	Sil	Ob	38	-0.550000011920929	15.999
39	Ob	1	Sil	Ob	39	-0.550000011920929	15.999
40	Ob	1	Sil	Ob	40	-0.550000011920929	15.999
41	Ob	1	Sil	Ob	41	-0.550000011920929	15.999
42	Ob	1	Sil	Ob	42	-0.550000011920929	15.999
43	Ob	1	Sil	Ob	43	-0.550000011920929	15.999
44	Ob	1	Sil	Ob	44	-0.550000011920929	15.999
45	Ob	1	Sil	Ob	45	-0.550000011920929	15.999
46	Ob	1	Sil	Ob	46	-0.550000011920929	15.999
47	Ob	1	Sil	Ob	47	-0.550000011920929	15.999
48	Ob	1	Sil	Ob	48	-0.550000011920929	15.999
49	Ob	1	Sil	Ob	49	-0.550000011920929	15.999
50	Ob	1	Sil	Ob	50	-0.550000011920929	15.999
51	Ob	1	Sil	Ob	51	-0.550000011920929	15.999
52	Ob	1	Sil	Ob	52	-0.550000011920929	15.999
53	Ob	1	Sil	Ob	53	-0.550000011920929	15.999
54	Ob	1	Sil	Ob	54	-0.550000011920929	15.999
55	Ob	1	Sil	Ob	55	-0.550000011920929	15.999
56	Ob	1	Sil	Ob	56	-0.550000011920929	15.999
57	Ob	1	Sil	Ob	57	-0.550000011920929	15.999
58	Ob	1	Sil	Ob	58	-0.550000011920929	15.999
59	Ob	1	Sil	Ob	59	-0.550000011920929	15.999
60	Ob	1	Sil	Ob	60	-0.550000011920929	15.999
61	Ob	1	Sil	Ob	61	-0.550000011920929	15.999
62	Ob	1	Sil	Ob	62	-0.550000011920929	15.999
63	Ob	1	Sil	Ob	63	-0.550000011920929	15.999
64	Ob	1	Sil	Ob	64	-0.550000011920929	15.999
65	Ob	1	Sil	Ob	65	-0.550000011920929	15.999
66	Ob	1	Sil	Ob	66	-0.550000011920929	15.999
67	Ob	1	Sil	Ob	67	-0.550000011920929	15.999
68	Ob	1	Sil	Ob	68	-0.550000011920929	15.999
69	Ob	1	Sil	Ob	69	-0.550000011920929	15.999
70	Ob	1	Sil	Ob	70	-0.550000011920929	15.999
71	Ob	1	Sil	Ob	71	-0.550000011920929	15.999
72	Ob	1	Sil	Ob	72	-0.550000011920929	15.999
73	Ob	1	Sil	Ob	73	-0.550000011920929	15.999
74	Ob	1	Sil	Ob	74	-0.550000011920929	15.999
75	Ob	1	Sil	Ob	75	-0.550000011920929	15.999
76	Ob	1	Sil	Ob	76	-0.550000011920929	15.999
77	Ob	1	Sil	Ob	77	-0.550000011920929	15.999
78	Ob	1	Sil	Ob	78	-0.550000011920929	15.999
79	Ob	1	Sil	Ob	79	-0.550000011920929	15.999
80	Ob	1	Sil	Ob	80	-0.550000011920929	15.999
81	Ob	1	Sil	Ob	81	-0.550000011920929	15.999
82	Ob	1	Sil	Ob	82	-0.550000011920929	15.999
83	Ob	1	Sil	Ob	83	-0.550000011920929	15.999
84	Ob	1	Sil	Ob	84	-0.550000011920929	15.999
85	Ob	1	Sil	Ob	85	-0.550000011920929	15.999
86	Ob	1	Sil	Ob	86	-0.550000011920929	15.999
87	Ob	1	Sil	Ob	87	-0.550000011920929	15.999
88	Ob	1	Sil	Ob	88	-0.550000011920929	15.999
89	Ob	1	Sil	Ob	89	-0.550000011920929	15.999
90	Ob	1	Sil	Ob	90	-0.550000011920929	15.999
91	Ob	1	Sil	Ob	91	-0.550000011920929	15.999
92	Ob	1	Sil	Ob	92	-0.550000011920929	15.999
93	Ob	1	Sil	Ob	93	-0.550000011920929	15.999
94	Ob	1	Sil	Ob	94	-0.550000011920929	15.999
95	Ob	1	Sil	Ob	95	-0.550000011920929	15.999
96	Ob	1	Sil	Ob	96	-0.550000011920929	15.999
97	Ob	1	Sil	Ob	97	-0.550000011920929	15.999
98	Ob	1	Sil	Ob	98	-0.550000011920929	15.999
99	Ob	1	Sil	Ob	99	-0.550000011920929	15.999
100	Ob	1	Sil	Ob	100	-0.550000011920929	15.999
101	Ob	1	Sil	Ob	101	-0.550000011920929	15.999
102	Ob	1	Sil	Ob	102	-0.550000011920929	15.999
103	Ob	1	Sil	Ob	103	-0.550000011920929	15.999
104	Ob	1	Sil	Ob	104	-0.550000011920929	15.999
105	Ob	1	Sil	Ob	105	-0.550000011920929	15.999
106	Ob	1	Sil	Ob	106	-0.550000011920929	15.999
107	Ob	1	Sil	Ob	107	-0.550000011920929	15.999
108	Ob	1	Sil	Ob	108	-0.550000011920929	15.999
109	Ob	1	Sil	Ob	109	-0.550000011920929	15.999
110	Ob	1	Sil	Ob	110	-0.550000011920929	15.999
111	Ob	1	Sil	Ob	111	-0.550000011920929	15.999
112	Ob	1	Sil	Ob	112	-0.550000011920929	15.999
113	Ob	1	Sil	Ob	113	-0.550000011920929	15.999
114	Ob	1	Sil	Ob	114	-0.550000011920929	15.999
115	Ob	1	Sil	Ob	115	-0.550000011920929	15.999
116	Ob	1	Sil	Ob	116	-0.550000011920929	15.999
117	Ob	1	Sil	Ob	117	-0.550000011920929	15.999
118	Ob	1	Sil	Ob	118	-0.550000011920929	15.999
119	Ob	1	Sil	Ob	119	-0.550000011920929	15.999
120	Ob	1	Sil	Ob	120	-0.550000011920929	15.999
121	Ob	1	Sil	Ob	121	-0.550000011920929	15.999
122	Ob	1	Sil	Ob	122	-0.550000011920929	15.999
123	Ob	1	Sil	Ob	123	-0.550000011920929	15.999
124	Ob	1	Sil	Ob	124	-0.550000011920929	15.999
125	Ob	1	Sil	Ob	125	-0.550000011920929	15.999
126	Ob	1	Sil	Ob	126	-0.550000011920929	15.999
127	Ob	1	Sil	Ob	127	-0.550000011920929	15.999
128	Ob	1	Sil	Ob	128	-0.550000011920929	15.999
129	Ob	1	Sil	Ob	129	-0.550000011920929	15.999
130	Ob	1	Sil	Ob	130	-0.550000011920929	15.999
131	Ob	1	Sil	Ob	131	-0.550000011920929	15.999
132	Ob	1	Sil	Ob	132	-0.550000011920929	15.999
133	Ob	1	Sil	Ob	133	-0.550000011920929	15.999
134	Ob	1	Sil	Ob	134	-0.550000011920929	15.999
135	Ob	1	Sil	Ob	135	-0.550000011920929	15.999
136	Ob	1	Sil	Ob	136	-0.550000011920929	15.999
137	Ob	1	Sil	Ob	137	-0.550000011920929	15.999
138	Ob	1	Sil	Ob	138	-0.550000011920929	15.999
139	Ob	1	Sil	Ob	139	-0.550000011920929	15.999
140	Ob	1	Sil	Ob	140	-0.550000011920929	15.999
141	Ob	1	Sil	Ob	141	-0.550000011920929	15.999
142	Ob	1	Sil	Ob	142	-0.550000011920929	15.999
143	Ob	1	Sil	Ob	143	-0.550000011920929	15.999
144	Ob	1	Sil	Ob	144	-0.550000011920929	15.999
145	Ob	1	Sil	Ob	145	-0.550000011920929	15.999
146	Ob	1	Sil	Ob	146	-0.550000011920929	15.999
147	Ob	1	Sil	Ob	147	-0.550000011920929	15.999
148	Ob	1	Sil	Ob	148	-0.550000011920929	15.999
149	Ob	1	Sil	Ob	149	-0.550000011920929	15.999
150	Ob	1	Sil	Ob	150	-0.550000011920929	15.999
151	Ob	1	Sil	Ob	151	-0.550000011920929	15.999
152	Ob	1	Sil	Ob	152	-0.550000011920929	15.999
153	Ob	1	Sil	Ob	153	-0.550000011920929	15.999
154	Ob	1	Sil	Ob	154	-0.550000011920929	15.999
155	Ob	1	Sil	Ob	155	-0.550000011920929	15.999
156	Ob	1	Sil	Ob	156	-0.550000011920929	15.999
157	Ob	1	Sil	Ob	157	-0.550000011920929	15.999
158	Ob	1	Sil	Ob	158	-0.550000011920929	15.999
159	Ob	1	Sil	Ob	159	-0.550000011920929	15.999
160	Ob	1	Sil	Ob	160	-0.550000011920929	15.999
161	Ob	1	Sil	Ob	161	-0.550000011920929	15.999
162	Ob	1	Sil	Ob	162	-0.550000011920929	15.999
163	Ob	1	Sil	Ob	163	-0.550000011920929	15.999
164	Ob	1	Sil	Ob	164	-0.550000011920929	15.999
165	Ob	1	Sil	Ob	165	-0.550000011920929	15.999
166	Ob	1	Sil	Ob	166	-0.550000011920929	15.999
167	Ob	1	Sil	Ob	167	-0.550000011920929	15.999
168	Ob	1	Sil	Ob	168	-0.550000011920929	15.999
169	Ob	1	Sil	Ob	169	-0.550000011920929	15.999
170	Ob	1	Sil	Ob	170	-0.550000011920929	15.999
171	Ob	1	Sil	Ob	171	-0.550000011920929	15.999
172	Ob	1	Sil	Ob	172	-0.550000011920929	15.999
173	Ob	1	Sil	Ob	173	-0.550000011920929	15.999
174	Ob	1	Sil	Ob	174	-0.550000011920929	15.999
175	Ob	1	Sil	Ob	175	-0.550000011920929	15.999
176	Ob	1	Sil	Ob	176	-0.550000011920929	15.999
177	Ob	1	Sil	Ob	177	-0.550000011920929	15.999
178	Ob	1	Sil	Ob	178	-0.550000011920929	15.999
179	Ob	1	Sil	Ob	179	-0.550000011920929	15.999
180	Ob	1	Sil	Ob	180	-0.550000011920929	15.999
181	Ob	1	Sil	Ob	181	-0.550000011920929	15.999
182	Ob	1	Sil	Ob	182	-0.550000011920929	15.999
183	Ob	1	Sil	Ob	183	-0.550000011920929	15.999
184	Ob	1	Sil	Ob	184	-0.550000011920929	15.999
185	Ob	1	Sil	Ob	185	-0.550000011920929	15.999
186	Ob	1	Sil	Ob	186	-0.550000011920929	15.999
187	Ob	1	Sil	Ob	187	-0.550000011920929	15.999
188	Ob	1	Sil	Ob	188	-0.550000011920929	15.999
189	Ob	1	Sil	Ob	189	-0.550000011920929	15.999
190	Ob	1	Sil	Ob	190	-0.550000011920929	15.999
191	Ob	1	Sil	Ob	191	-0.550000011920929	15.999
192	Ob	1	Sil	Ob	192	-0.550000011920929	15.999
193	Ob	1	Sil	Ob	193	-0.550000011920929	15.999
194	Ob	1	Sil	Ob	194	-0.550000011920929	15.999
195	Ob	1	Sil	Ob	195	-0.550000011920929	15.999
196	Ob	1	Sil	Ob	196	-0.550000011920929	15.999
197	Ob	1	Sil	Ob	197	-0.550000011920929	15.999
198	Ob	1	Sil	Ob	198	-0.550000011920929	15.999
199	Ob	1	Sil	Ob	199	-0.550000011920929	15.999
200	Ob	1	Sil	Ob	200	-0.550000011920929	15.999
201	Ob	1	Sil	Ob	201	-0.550000011920929	15.999
202	Ob	1	Sil	Ob	202	-0.550000011920929	15.999
203	Ob	1	Sil	Ob	203	-0.550000011920929	15.999
204	Ob	1	Sil	Ob	204	-0.550000011920929	15.999
205	Ob	1	Sil	Ob	205	-0.550000011920929	15.999
206	Ob	1	Sil	Ob	206	-0.550000011920929	15.999
207	Ob	1	Sil	Ob	207	-0.550000011920929	15.999
208	Ob	1	Sil	Ob	208	-0.550000011920929	15.999
209	Ob	1	Sil	Ob	209	-0.550000011920929	15.999
210	Ob	1	Sil	Ob	210	-0.550000011920929	15.999
211	Ob	1	Sil	Ob	211	-0.550000011920929	15.999
212	Ob	1	Sil	Ob	212	-0.550000011920929	15.999
213	Ob	1	Sil	Ob	213	-0.550000011920929	15.999
214	Ob	1	Sil	Ob	214	-0.550000011920929	15.999
215	Ob	1	Sil	Ob	215	-0.550000011920929	15.999
216	Ob	1	Sil	Ob	216	-0.550000011920929	15.999
217	Ob	1	Sil	Ob	217	-0.550000011920929	15.999
218	Ob	1	Sil	Ob	218	-0.550000011920929	15.999
219	Ob	1	Sil	Ob	219	-0.550000011920929	15.999
220	Ob	1	Sil	Ob	220	-0.550000011920929	15.999
221	Ob	1	Sil	Ob	221	-0.550000011920929	15.999
222	Ob	1	Sil	Ob	222	-0.550000011920929	15.999
223	Ob	1	Sil	Ob	223	-0.550000011920929	15.999
224	Ob	1	Sil	Ob	224	-0.550000011920929	15.999
225	Ob	1	Sil	Ob	225	-0.550000011920929	15.999
226	Ob	1	Sil	Ob	226	-0.550000011920929	15.999
227	Ob	1	Sil	Ob	227	-0.550000011920929	15.999
228	Ob	1	Sil	Ob	228	-0.550000011920929	15.999
229	Ob	1	Sil	Ob	229	-0.550000011920929	15.999
230	Ob	1	Sil	Ob	230	-0.550000011920929	15.999
231	Ob	1	Sil	Ob	231	-0.550000011920929	15.999
232	Ob	1	Sil	Ob	232	-0.550000011920929	15.999
233	Ob	1	Sil	Ob	233	-0.550000011920929	15.999
234	Ob	1	Sil	Ob	234	-0.550000011920929	15.999
235	Ob	1	Sil	Ob	235	-0.550000011920929	15.999
236	Ob	1	Sil	Ob	236	-0.550000011920929	15.999
237	Ob	1	Sil	Ob	237	-0.550000011920929	15.999
238	Ob	1	Sil	Ob	238	-0.550000011920929	15.999
239	Ob	1	Sil	Ob	239	-0.550000011920929	15.999
240	Ob	1	Sil	Ob	240	-0.550000011920929	15.999
241	Ob	1	Sil	Ob	241	-0.550000011920929	15.999
242	Ob	1	Sil	Ob	242	-0.550000011920929	15.999
243	Ob	1	Sil	Ob	243	-0.550000011920929	15.999
244	Ob	1	Sil	Ob	244	-0.550000011920929	15.999
245	Ob	1	Sil	Ob	245	-0.550000011920929	15.999
246	Ob	1	Sil	Ob	246	-0.550000011920929	15.999
247	Ob	1	Sil	Ob	247	-0.550000011920929	15.999
248	Ob	1	Sil	Ob	248	-0.550000011920929	15.999
249	Ob	1	Sil	Ob	249	-0.550000011920929	15.999
250	Ob	1	Sil	Ob	250	-0.550000011920929	15.999
251	Ob	1	Sil	Ob	251	-0.550000011920929	15.999
252	Ob	1	Sil	Ob	252	-0.550000011920929	15.999
253	Ob	1	Sil	Ob	253	-0.550000011920929	15.999
254	Ob	1	Sil	Ob	254	-0.550000011920929	15.999
255	Ob	1	Sil	Ob	255	-0.550000011920929	15.999
256	Ob	1	Sil	Ob	256	-0.550000011920929	15.999
257	Ob	1	Sil	Ob	257	-0.550000011920929	15.999
258	Ob	1	Sil	Ob	258	-0.550000011920929	15.999
259	Ob	1	Sil	Ob	259	-0.550000011920929	15.999
260	Ob	1	Sil	Ob	260	-0.550000011920929	15.999
261	Ob	1	Sil	Ob	261	-0.550000011920929	15.999
262	Ob	1	Sil	Ob	262	-0.550000011920929	15.999
263	Ob	1	Sil	Ob	263	-0.550000011920929	15.999
264	Ob	1	Sil	Ob	264	-0.550000011920929	15.999
265	Ob	1	Sil	Ob	265	-0.550000011920929	15.999
266	Ob	1	Sil	Ob	266	-0.550000011920929	15.999
267	Ob	1	Sil	Ob	267	-0.550000011920929	15.999
268	Ob	1	Sil	Ob	268	-0.550000011920929	15.999
269	Ob	1	Sil	Ob	269	-0.550000011920929	15.999
270	Ob	1	Sil	Ob	270	-0.550000011920929	15.999
271	Ob	1	Sil	Ob	271	-0.550000011920929	15.999
272	Ob	1	Sil	Ob	272	-0.550000011920929	15.999
273	Ob	1	Sil	Ob	273	-0.550000011920929	15.999
274	Ob	1	Sil	Ob	274	-0.550000011920929	15.999
275	Ob	1	Sil	Ob	275	-0.550000011920929	15.999
276	Ob	1	Sil	Ob	276	-0.550000011920929	15.999
277	Ob	1	Sil	Ob	277	-0.550000011920929	15.999
278	Ob	1	Sil	Ob	278	-0.550000011920929	15.999
279	Ob	1	Sil	Ob	279	-0.550000011920929	15.999
280	Ob	1	Sil	Ob	280	-0.550000011920929	15.999
281	Ob	1	Sil	Ob	281	-0.550000011920929	15.999
282	Ob	1	Sil	Ob	282	-0.550000011920929	15.999
283	Ob	1	Sil	Ob	283	-0.550000011920929	15.999
284	Ob	1	Sil	Ob	284	-0.550000011920929	15.999
285	Ob	1	Sil	Ob	285	-0.550000011920929	15.999
286	Ob	1	Sil	Ob	286	-0.550000011920929	15.999
287	Ob	1	Sil	Ob	287	-0.550000011920929	15.999
288	Ob	1	Sil	Ob	288	-0.550000011920929	15.999
289	Ob	1	Sil	Ob	289	-0.550000011920929	15.999
290	Ob	1	Sil	Ob	290	-0.550000011920929	15.999
291	Ob	1	Sil	Ob	291	-0.550000011920929	15.999
292	Ob	1	Sil	Ob	292	-0.550000011920929	15.999
293	Ob	1	Sil	Ob	293	-0.550000011920929	15.999
294	Ob	1	Sil	Ob	294	-0.550000011920929	15.999
295	Ob	1	Sil	Ob	295	-0.550000011920929	15.999
296	Ob	1	Sil	Ob	296	-0.550000011920929	15.999
297	Ob	1	Sil	Ob	297	-0.550000011920929	15.999
298	Ob	1	Sil	Ob	298	-0.550000011920929	15.999
299	Ob	1	Sil	Ob	299	-0.550000011920929	15.999
300	Ob	1	Sil	Ob	300	-0.550000011920929	15.999
301	Ob	1	Sil	Ob	301	-0.550000011920929	15.999
302	Ob	1	Sil	Ob	302	-0.550000011920929	15.999
303	Ob	1	Sil	Ob	303	-0.550000011920929	15.999
304	Ob	1	Sil	Ob	304	-0.550000011920929	15.999
305	Ob	1	Sil	Ob	305	-0.550000011920929	15.999
306	Ob	1	Sil	Ob	306	-0.550000011920929	15.999
307	Ob	1	Sil	Ob	307	-0.550000011920929	15.999
308	Ob	1	Sil	Ob	308	-0.550000011920929	15.999
309	Ob	1	Sil	Ob	309	-0.550000011920929	15.999
310	Ob	1	Sil	Ob	310	-0.550000011920929	15.999
311	Ob	1	Sil	Ob	311	-0.550000011920929	15.999
312	Ob	1	Sil	Ob	312	-0.550000011920929	15.999
313	Ob	1	Sil	Ob	313	-0.550000011920929	15.999
314	Ob	1	Sil	Ob	314	-0.550000011920929	15.999
315	Ob	1	Sil	Ob	315	-0.550000011920929	15.999
316	Ob	1	Sil	Ob	316	-0.550000011920929	15.999
317	Ob	1	Sil	Ob	317	-0.550000011920929	15.999
318	Ob	1	Sil	Ob	318	-0.550000011920929	15.999
319	Ob	1	Sil	Ob	319	-0.550000011920929	15.999
320	Ob	1	Sil	Ob	320	-0.550000011920929	15.999
321	Ob	1	Sil	Ob	321	-0.550000011920929	15.999
322	Ob	1	Sil	Ob	322	-0.550000011920929	15.999
323	Ob	1	Sil	Ob	323	-0.550000011920929	15.999
324	Ob	1	Sil	Ob	324	-0.550000011920929	15.999
325	Ob	1	Sil	Ob	325	-0.550000011920929	15.999
326	Ob	1	Sil	Ob	326	-0.550000011920929	15.999
327	Ob	1	Sil	Ob	327	-0.550000011920929	15.999
328	Ob	1	Sil	Ob	328	-0.550000011920929	15.999
329	Ob	1	Sil	Ob	329	-0.550000011920929	15.999
330	Ob	1	Sil	Ob	330	-0.550000011920929	15.999
331	Ob	1	Sil	Ob	331	-0.550000011920929	15.999
332	Ob	1	Sil	Ob	332	-0.550000011920929	15.999
333	Ob	1	Sil	Ob	333	-0.550000011920929	15.999
334	Ob	1	Sil	Ob	334	-0.550000011920929	15.999
335	Ob	1	Sil	Ob	335	-0.550000011920929	15.999
336	Ob	1	Sil	Ob	336	-0.550000011920929	15.999
337	Ob	1	Sil	Ob	337	-0.550000011920929	15.999
338	Ob	1	Sil	Ob	338	-0.550000011920929	15.999
339	Ob	1	Sil	Ob	339	-0.550000011920929	15.999
340	Ob	1	Sil	Ob	340	-0.550000011920929	15.999
341	Ob	1	Sil	Ob	341	-0.550000011920929	15.999
342	Ob	1	Sil	Ob	342	-0.550000011920929	15.999
343	Ob	1	Sil	Ob	343	-0.550000011920929	15.999
344	Ob	1	Sil	Ob	344	-0.550000011920929	15.999
345	Ob	1	Sil	Ob	345	-0.550000011920929	15.999
346	Ob	1	Sil	Ob	346	-0.550000011920929	15.999
347	Ob	1	Sil	Ob	347	-0.550000011920929	15.999
348	Ob	1	Sil	Ob	348	-0.550000011920929	15.999
349	Ob	1	Sil	Ob	349	-0.550000011920929	15.999
350	Ob	1	Sil	Ob	350	-0.550000011920929	15.999
351	Ob	1	Sil	Ob	351	-0.550000011920929	15.999
352	Ob	1	Sil	Ob	352	-0.550000011920929	15.999
353	Ob	1	Sil	Ob	353	-0.550000011920929	15.999
354	Ob	1	Sil	Ob	354	-0.550000011920929	15.999
355	Ob	1	Sil	Ob	355	-0.550000011920929	15.999
356	Ob	1	Sil	Ob	356	-0.550000011920929	15.999
357	Ob	1	Sil	Ob	357	-0.550000011920929	15.999
358	Ob	1	Sil	Ob	358	-0.550000011920929	15.999
359	Ob	1	Sil	Ob	359	-0.550000011920929	15.999
360	Ob	1	Sil	Ob	360	-0.550000011920929	15.999
361	Ob	1	Sil	Ob	361	-0.550000011920929	15.999
362	Ob	1	Sil	Ob	362	-0.550000011920929	15.999
363	Ob	1	Sil	Ob	363	-0.550000011920929	15.999
364	Ob	1	Sil	Ob	364	-0.550000011920929	15.999
365	Ob	1	Sil	Ob	365	-0.550000011920929	15.999
366	Ob	1	Sil	Ob	366	-0.550000011920929	15.999
367	Ob	1	Sil	Ob	367	-0.550000011920929	15.999
368	Ob	1	Sil	Ob	368	-0.550000011920929	15.999
369	Ob	1	Sil	Ob	369	-0.550000011920929	15.999
370	Ob	1	Sil	Ob	370	-0.550000011920929	15.999
371	Ob	1	Sil	Ob	371	-0.550000011920929	15.999
372	Ob	1	Sil	Ob	372	-0.550000011920929	15.999
373	Ob	1	Sil	Ob	373	-0.550000011920929	15.999
374	Ob	1	Sil	Ob	374	-0.550000011920929	15.999
375	Ob	1	Sil	Ob	375	-0.550000011920929	15.999
376	Ob	1	Sil	Ob	376	-0.550000011920929	15.999
377	Ob	1	Sil	Ob	377	-0.550000011920929	15.999
378	Ob	1	Sil	Ob	378	-0.550000011920929	15.999
379	Ob	1	Sil	Ob	379	-0.550000011920929	15.999
380	Ob	1	Sil	Ob	380	-0.550000011920929	15.999
381	Ob	1	Sil	Ob	381	-0.550000011920929	15.999
382	Ob	1	Sil	Ob	382	-0.550000011920929	15.999
383	Ob	1	Sil	Ob	383	-0.550000011920929	15.999
384	Ob	1	Sil	Ob	384	-0.550000011920929	15.999
385	Ob	1	Sil	Ob	385	-0.550000011920929	15.999
386	Ob	1	Sil	Ob	386	-0.550000011920929	15.999
387	Ob	1	Sil	Ob	387	-0.550000011920929	15.999
388	Ob	1	Sil	Ob	388	-0.550000011920929	15.999
389	Ob	1	Sil	Ob	389	-0.550000011920929	15.999
390	Ob	1	Sil	Ob	390	-0.550000011920929	15.999
391	Ob	1	Sil	Ob	391	-0.550000011920929	15.999
392	Ob	1	Sil	Ob	392	-0.550000011920929	15.999
393	Ob	1	Sil	Ob	393	-0.550000011920929	15.999
394	Ob	1	Sil	Ob	394	-0.550000011920929	15.999
395	Ob	1	Sil	Ob	395	-0.550000011920929	15.999
396	Ob	1	Sil	Ob	396	-0.550000011920929	15.999
397	Ob	1	Sil	Ob	397	-0.550000011920929	15.999
398	Ob	1	Sil	Ob	398	-0.550000011920929	15.999
399	Ob	1	Sil	Ob	399	-0.550000011920929	15.999
400	Ob	1	Sil	Ob	400	-0.550000011920929	15.999
401	Ob	1	Sil	Ob	401	-0.550000011920929	15.999
402	Ob	1	Sil	Ob	402	-0.550000011920929	15.999
403	Ob	1	Sil	Ob	403	-0.550000011920929	15.999
404	Ob	1	Sil	Ob	404	-0.550000011920929	15.999
405	Ob	1	Sil	Ob	405	-0.550000011920929	15.999
406	Ob	1	Sil	Ob	406	-0.550000011920929	15.999
407	Ob	1	Sil	Ob	407	-0.550000011920929	15.999
408	Ob	1	Sil	Ob	408	-0.550000011920929	15.999
409	Ob	1	Sil	Ob	409	-0.550000011920929	15.999
410	Ob	1	Sil	Ob	410	-0.550000011920929	15.999
411	Ob	1	Sil	Ob	411	-0.550000011920929	15.999
412	Ob	1	Sil	Ob	412	-0.550000011920929	15.999
413	Ob	1	Sil	Ob	413	-0.550000011920929	15.999
414	Ob	1	Sil	Ob	414	-0.550000011920929	15.999
415	Ob	1	Sil	Ob	415	-0.550000011920929	15.999
416	Ob	1	Sil	Ob	416	-0.550000011920929	15.999
417	Ob	1	Sil	Ob	417	-0.550000011920929	15.999
418	Ob	1	Sil	Ob	418	-0.550000011920929	15.999
419	Ob	1	Sil	Ob	419	-0.550000011920929	15.999
420	Ob	1	Sil	Ob	420	-0.550000011920929	15.999
421	Ob	1	Sil	Ob	421	-0.550000011920929	15.999
422	Ob	1	Sil	Ob	422	-0.550000011920929	15.999
423	Ob	1	Sil	Ob	423	-0.550000011920929	15.999
424	Ob	1	Sil	Ob	424	-0.550000011920929	15.999
425	Ob	1	Sil	Ob	425	-0.550000011920929	15.999
426	Ob	1	Sil	Ob	426	-0.550000011920929	15.999
427	Ob	1	Sil	Ob	427	-0.550000011920929	15.999
428	Ob	1	Sil	Ob	428	-0.550000011920929	15.999
429	Ob	1	Sil	Ob	429	-0.550000011920929	15.999
430	Ob	1	Sil	Ob	430	-0.550000011920929	15.999
431	Ob	1	Sil	Ob	431	-0.550000011920929	15.999
432	Ob	1	Sil	Ob	432	-0.550000011920929	15.999
433	Ob	1	Sil	Ob	433	-0.550000011920929	15.999
434	Ob	1	Sil	Ob	434	-0.550000011920929	15.999
435	Ob	1	Sil	Ob	435	-0.550000011920929	15.999
436	Ob	1	Sil	Ob	436	-0.550000011920929	15.999
437	Ob	1	Sil	Ob	437	-0.550000011920929	15.999
438	Ob	1	Sil	Ob	438	-0.550000011920929	15.999
439	Ob	1	Sil	Ob	439	-0.550000011920929	15.999
440	Ob	1	Sil	Ob	440	-0.550000011920929	15.999
441	Ob	1	Sil	Ob	441	-0.550000011920929	15.999
442	Ob	1	Sil	Ob	442	-0.550000011920929	15.999
443	Ob	1	Sil	Ob	443	-0.550000011920929	15.999
444	Ob	1	Sil	Ob	444	-0.550000011920929	15.999
445	Ob	1	Sil	Ob	445	-0.550000011920929	15.999
446	Ob	1	Sil	Ob	446	-0.550000011920929	15.999
447	Ob	1	Sil	Ob	447	-0.550000011920929	15.999
448	Ob	1	Sil	Ob	448	-0.550000011920929	15.999
449	Ob	1	Sil	Ob	449	-0.550000011920929	15.999
450	Ob	1	Sil	Ob	450	-0.550000011920929	15.999
451	Ob	1	Sil	Ob	451	-0.550000011920929	15.999
452	Ob	1	Sil	Ob	452	-0.550000011920929	15.999
453	Ob	1	Sil	Ob	453	-0.550000011920929	15.999
454	Ob	1	Sil	Ob	454	-0.550000011920929	15.999
455	Ob	1	Sil	Ob	455	-0.550000011920929	15.999
456	Ob	1	Sil	Ob	456	-0.550000011920929	15.999
457	Ob	1	Sil	Ob	457	-0.550000011920929	15.999
458	Ob	1	Sil	Ob	458	-0.550000011920929	15.999
459	Ob	1	Sil	Ob	459	-0.550000011920929	15.999
460	Ob	1	Sil	Ob	460	-0.550000011920929	15.999
461	Ob	1	Sil	Ob	461	-0.550000011920929	15.999
462	Ob	1	Sil	Ob	462	-0.550000011920929	15.999
463	Ob	1	Sil	Ob	463	-0.550000011920929	15.999
464	Ob	1	Sil	Ob	464	-0.550000011920929	15.999
465	Ob	1	Sil	Ob	465	-0.550000011920929	15.999
466	Ob	1	Sil	Ob	466	-0.550000011920929	15.999
467	Ob	1	Sil	Ob	467	-0.550000011920929	15.999
468	Ob	1	Sil	Ob	468	-0.550000011920929	15.999
469	Ob	1	Sil	Ob	469	-0.550000011920929	15.999
470	Ob	1	Sil	Ob	470	-0.550000011920929	15.999
471	Ob	1	Sil	Ob	471	-0.550000011920929	15.999
472	Ob	1	Sil	Ob	472	-0.550000011920929	15.999
473	Ob	1	Sil	Ob	473	-0.550000011920929	15.999
474	Ob	1	Sil	Ob	474	-0.550000011920929	15.999
475	Ob	1	Sil	Ob	475	-0.550000011920929	15.999
476	Ob	1	Sil	Ob	476	-0.550000011920929	15.999
477	Ob	1	Sil	Ob	477	-0.550000011920929	15.999
478	Ob	1	Sil	Ob	478	-0.550000011920929	15.999
479	Ob	1	Sil	Ob	479	-0.550000011920929	15.999
480	Ob	1	Sil	Ob	480	-0.550000011920929	15.999
481	Ob	1	Sil	Ob	481	-0.550000011920929	15.999
482	Ob	1	Sil	Ob	482	-0.550000011920929	15.999
483	Ob	1	Sil	Ob	483	-0.550000011920929	15.999
484	Ob	1	Sil	Ob	484	-0.550000011920929	15.999
485	Ob	1	Sil	Ob	485	-0.550000011920929	15.999
486	Ob	1	Sil	Ob	486	-0.550000011920929	15.999
487	Ob	1	Sil	Ob	487	-0.550000011920929	15.999
488	Ob	1	Sil	Ob	488	-0.550000011920929	15.999
489	Ob	1	Sil	Ob	489	-0.550000011920929	15.999
490	Ob	1	Sil	Ob	490	-0.550000011920929	15.999
491	Ob	1	Sil	Ob	491	-0.550000011920929	15.999
492	Ob	1	Sil	Ob	492	-0.550000011920929	15.999
493	Ob	1	Sil	Ob	493	-0.550000011920929	15.999
494	Ob	1	Sil	Ob	494	-0.550000011920929	15.999
495	Ob	1	Sil	Ob	495	-0.550000011920929	15.999
496	Ob	1	Sil	Ob	496	-0.550000011920929	15.999
497	Ob	1	Sil	Ob	497	-0.550000011920929	15.999
498	Ob	1	Sil	Ob	498	-0.550000011920929	15.999
499	Ob	1	Sil	Ob	499	-0.550000011920929	15.999
500	Ob	1	Sil	Ob	500	-0.550000011920929	15.999
501	Ob	1	Sil	Ob	501	-0.550000011920929	15.999
502	Ob	1	Sil	Ob	502	-0.550000011920929	15.999
503	Ob	1	Sil	Ob	503	-0.550000011920929	15.999
504	Ob	1	Sil	Ob	504	-0.550000011920929	15.999
505	Ob	1	Sil	Ob	505	-0.550000011920929	15.999
506	Ob	1	Sil	Ob	506	-0.550000011920929	15.999
507	Ob	1	Sil	Ob	507	-0.550000011920929	15.999
508	Ob	1	Sil	Ob	508	-0.550000011920929	15.999
509	Ob	1	Sil	Ob	509	-0.550000011920929	15.999
510	Ob	1	Sil	Ob	510	-0.550000011920929	15.999
511	Ob	1	Sil	Ob	511	-0.550000011920929	15.999
512	Ob	1	Sil	Ob	512	-0.550000011920929	15.999
513	Ob	1	Sil	Ob	513	-0.550000011920929	15.999
514	Ob	1	Sil	Ob	514	-0.550000011920929	15.999
515	Ob	1	Sil	Ob	515	-0.550000011920929	15.999
516	Ob	1	Sil	Ob	516	-0.550000011920929	15.999
517	Ob	1	Sil	Ob	517	-0.550000011920929	15.999
518	Ob	1	Sil	Ob	518	-0.550000011920929	15.999
519	Ob	1	Sil	Ob	519	-0.550000011920929	15.999
520	Ob	1	Sil	Ob	520	-0.550000011920929	15.999
521	Ob	1	Sil	Ob	521	-0.550000011920929	15.999
522	Ob	1	Sil	Ob	522	-0.550000011920929	15.999
523	Ob	1	Sil	Ob	523	-0.550000011920929	15.999
524	Ob	1	Sil	Ob	524	-0.550000011920929	15.999
525	Ob	1	Sil	Ob	525	-0.550000011920929	15.999
526	Ob	1	Sil	Ob	526	-0.550000011920929	15.999
527	Ob	1	Sil	Ob	527	-0.550000011920929	15.999
528	Ob	1	Sil	Ob	528	-0.550000011920929	15.999
529	Ob	1	Sil	Ob	529	-0.550000011920929	15.999
530	Ob	1	Sil	Ob	530	-0.550000011920929	15.999
531	Ob	1	Sil	Ob	531	-0.550000011920929	15.999
532	Ob	1	Sil	Ob	532	-0.550000011920929	15.999
533	Ob	1	Sil	Ob	533	-0.550000011920929	15.999
534	Ob	1	Sil	Ob	534	-0.550000011920929	15.999
535	Ob	1	Sil	Ob	535	-0.550000011920929	15.999
536	Ob	1	Sil	Ob	536	-0.550000011920929	15.999
537	Ob	1	Sil	Ob	537	-0.550000011920929	15.999
538	Ob	1	Sil	Ob	538	-0.550000011920929	15.999
539	Ob	1	Sil	Ob	539	-0.550000011920929	15.999
540	Ob	1	Sil	Ob	540	-0.550000011920929	15.999
541	Ob	1	Sil	Ob	541	-0.550000011920929	15.999
542	Ob	1	Sil	Ob	542	-0.550000011920929	15.999
543	Ob	1	Sil	Ob	543	-0.550000011920929	15.999
544	Ob	1	Sil	Ob	544	-0.550000011920929	15.999
545	Ob	1	Sil	Ob	545	-0.550000011920929	15.999
546	Ob	1	Sil	Ob	546	-0.550000011920929	15.999
547	Ob	1	Sil	Ob	547	-0.550000011920929	15.999
548	Ob	1	Sil	Ob	548	-0.550000011920929	15.999
549	Ob	1	Sil	Ob	549	-0.550000011920929	15.999
550	Ob	1	Sil	Ob	550	-0.550000011920929	15.999
551	Ob	1	Sil	Ob	551	-0.550000011920929	15.999
552	Ob	1	Sil	Ob	552	-0.550000011920929	15.999
553	Ob	1	Sil	Ob	553	-0.550000011920929	15.999
554	Ob	1	Sil	Ob	554	-0.550000011920929	15.999
555	Ob	1	Sil	Ob	555	-0.550000011920929	15.999
556	Ob	1	Sil	Ob	556	-0.550000011920929	15.999
557	Ob	1	Sil	Ob	557	-0.550000011920929	15.999
558	Ob	1	Sil	Ob	558	-0.550000011920929	15.999
559	Ob	1	Sil	Ob	559	-0.550000011920929	15.999
560	Ob	1	Sil	Ob	560	-0.550000011920929	15.999
561	Ob	1	Sil	Ob	561	-0.550000011920929	15.999
562	Ob	1	Sil	Ob	562	-0.550000011920929	15.999
563	Ob	1	Sil	Ob	563	-0.550000011920929	15.999
564	Ob	1	Sil	Ob	564	-0.550000011920929	15.999
565	Ob	1	Sil	Ob	565	-0.550000011920929	15.999
566	Ob	1	Sil	Ob	566	-0.550000011920929	15.999
567	Ob	1	Sil	Ob	567	-0.550000011920929	15.999
568	Ob	1	Sil	Ob	568	-0.550000011920929	15.999
569	Ob	1	Sil	Ob	569	-0.550000011920929	15.999
570	Ob	1	Sil	Ob	570	-0.550000011920929	15.999
571	Ob	1	Sil	Ob	571	-0.550000011920929	15.999
572	Ob	1	Sil	Ob	572	-0.550000011920929	15.999
573	Ob	1	Sil	Ob	573	-0.550000011920929	15.999
574	Ob	1	Sil	Ob	574	-0.550000011920929	15.999
575	Ob	1	Sil	Ob	575	-0.550000011920929	15.999
576	Ob	1	Sil	Ob	576	-0.550000011920929	15.999
577	Ob	1	Sil	Ob	577	-0.550000011920929	15.999
578	Ob	1	Sil	Ob	578	-0.550000011920929	15.999
579	Ob	1	Sil	Ob	579	-0.550000011920929	15.999
580	Ob	1	Sil	Ob	580	-0.550000011920929	15.999
581	Ob	1	Sil	Ob	581	-0.550000011920929	15.999
582	Ob	1	Sil	Ob	582	-0.550000011920929	15.999
583	Ob	1	Sil	Ob	583	-0.550000011920929	15.999
584	Ob	1	Sil	Ob	584	-0.550000011920929	15.999
585	Ob	1	Sil	Ob	585	-0.550000011920929	15.999
586	Ob	1	Sil	Ob	586	-0.550000011920929	15.999
587	Ob	1	Sil	Ob	587	-0.550000011920929	15.999
588	Ob	1	Sil	Ob	588	-0.550000011920929	15.999
589	Ob	1	Sil	Ob	589	-0.550000011920929	15.999
590	Ob	1	Sil	Ob	590	-0.550000011920929	15.999
591	Ob	1	Sil	Ob	591	-0.550000011920929	15.999
592	Ob	1	Sil	Ob	592	-0.550000011920929	15.999
593	Ob	1	Sil	Ob	593	-0.550000011920929	15.999
594	Ob	1	Sil	Ob	594	-0.550000011920929	15.999
595	Ob	1	Sil	Ob	595	-0.550000011920929	15.999
596	Ob	1	Sil	Ob	596	-0.550000011920929	15.999
597	Ob	1	Sil	Ob	597	-0.550000011920929	15.999
598	Ob	1	Sil	Ob	598	-0.550000011920929	15.999
599	Ob	1	Sil	Ob	599	-0.550000011920929	15.999
600	Ob	1	Sil	Ob	600	-0.550000011920929	15.999
601	Ob	1	Sil	Ob	601	-0.550000011920929	15.999
602	Ob	1	Sil	Ob	602	-0.550000011920929	15.999
603	Ob	1	Sil	Ob	603	-0.550000011920929	15.999
604	Ob	1	Sil	Ob	604	-0.550000011920929	15.999
605	Ob	1	Sil	Ob	605	-0.550000011920929	15.999
606	Ob	1	Sil	Ob	606	-0.550000011920929	15.999
607	Ob	1	Sil	Ob	607	-0.550000011920929	15.999
608	Ob	1	Sil	Ob	608	-0.550000011920929	15.999
609	Ob	1	Sil	Ob	609	-0.550000011920929	15.999
610	Ob	1	Sil	Ob	610	-0.550000011920929	15.999
611	Ob	1	Sil	Ob	611	-0.550000011920929	15.999
612	Ob	1	Sil	Ob	612	-0.550000011920929	15.999
613	Ob	1	Sil	Ob	613	-0.550000011920929	15.999
614	Ob	1	Sil	Ob	614	-0.550000011920929	15.999
615	Ob	1	Sil	Ob	615	-0.550000011920929	15.999
616	Ob	1	Sil	Ob	616	-0.550000011920929	15.999
617	Ob	1	Sil	Ob	617	-0.550000011920929	15.999
618	Ob	1	Sil	Ob	618	-0.550000011920929	15.999
619	Ob	1	Sil	Ob	619	-0.550000011920929	15.999
620	Ob	1	Sil	Ob	620	-0.550000011920929	15.999
621	Ob	1	Sil	Ob	621	-0.550000011920929	15.999
622	Ob	1	Sil	Ob	622	-0.550000011920929	15.999
623	Ob	1	Sil	Ob	623	-0.550000011920929	15.999
624	Ob	1	Sil	Ob	624	-0.550000011920929	15.999
625	Ob	1	Sil	Ob	625	-0.550000011920929	15.999
626	Ob	1	Sil	Ob	626	-0.550000011920929	15.999
627	Ob	1	Sil	Ob	627	-0.550000011920929	15.999
628	Ob	1	Sil	Ob	628	-0.550000011920929	15.999
629	Ob	1	Sil	Ob	629	-0.550000011920929	15.999
630	Ob	1	Sil	Ob	630	-0.550000011920929	15.999
631	Ob	1	Sil	Ob	631	-0.550000011920929	15.999
632	Ob	1	Sil	Ob	632	-0.550000011920929	15.999
633	Ob	1	Sil	Ob	633	-0.550000011920929	15.999
634	Ob	1	Sil	Ob	634	-0.550000011920929	15.999
635	Ob	1	Sil	Ob	635	-0.550000011920929	15.999
636	Ob	1	Sil	Ob	636	-0.550000011920929	15.999
637	Ob	1	Sil	Ob	637	-0.550000011920929	15.999
638	Ob	1	Sil	Ob	638	-0.550000011920929	15.999
639	Ob	1	Sil	Ob	639	-0.550000011920929	15.999
640	Ob	1	Sil	Ob	640	-0.550000011920929	15.999
641	Ob	1	Sil	Ob	641	-0.550000011920929	15.999
642	Ob	1	Sil	Ob	642	-0.550000011920929	15.999
643	Ob	1	Sil	Ob	643	-0.550000011920929	15.999
644	Ob	1	Sil	Ob	644	-0.550000011920929	15.999
645	Ob	1	Sil	Ob	645	-0.550000011920929	15.999
646	Ob	1	Sil	Ob	646	-0.550000011920929	15.999
647	Ob	1	Sil	Ob	647	-0.550000011920929	15.999
648	Ob	1	Sil	Ob	648	-0.550000011920929	15.999
649	Ob	1	Sil	Ob	649	-0.550000011920929	15.999
650	Ob	1	Sil	Ob	650	-0.550000011920929	15.999
651	Ob	1	Sil	Ob	651	-0.550000011920929	15.999
652	Ob	1	Sil	Ob	652	-0.550000011920929	15.999
653	Ob	1	Sil	Ob	653	-0.550000011920929	15.999
654	Ob	1	Sil	Ob	654	-0.550000011920929	15.999
655	Ob	1	Sil	Ob	655	-0.550000011920929	15.999
656	Ob	1	Sil	Ob	656	-0.550000011920929	15.999
657	Ob	1	Sil	Ob	657	-0.550000011920929	15.999
658	Ob	1	Sil	Ob	658	-0.550000011920929	15.999
659	Ob	1	Sil	Ob	659	-0.550000011920929	15.999
660	Ob	1	Sil	Ob	660	-0.550000011920929	15.999
661	Ob	1	Sil	Ob	661	-0.550000011920929	15.999
662	Ob	1	Sil	Ob	662	-0.550000011920929	15.999
663	Ob	1	Sil	Ob	663	-0.550000011920929	15.999
664	Ob	1	Sil	Ob	664	-0.550000011920929	15.999
665	Ob	1	Sil	Ob	665	-0.550000011920929	15.999
666	Ob	1	Sil	Ob	666	-0.550000011920929	15.999
667	Ob	1	Sil	Ob	667	-0.550000011920929	15.999
668	Ob	1	Sil	Ob	668	-0.550000011920929	15.999
669	Ob	1	Sil	Ob	669	-0.550000011920929	15.999
670	Ob	1	Sil	Ob	670	-0.550000011920929	15.999
671	Ob	1	Sil	Ob	671	-0.550000011920929	15.999
672	Ob	1	Sil	Ob	672	-0.550000011920929	15.999
673	Ob	1	Sil	Ob	673	-0.550000011920929	15.999
674	Ob	1	Sil	Ob	674	-0.550000011920929	15.999
675	Ob	1	Sil	Ob	675	-0.550000011920929	15.999
676	Ob	1	Sil	Ob	676	-0.550000011920929	15.999
677	Ob	1	Sil	Ob	677	-0.550000011920929	15.999
678	Ob	1	Sil	Ob	678	-0.550000011920929	15.999
679	Ob	1	Sil	Ob	679	-0.550000011920929	15.999
680	Ob	1	Sil	Ob	680	-0.550000011920929	15.999
681	Ob	1	Sil	Ob	681	-0.550000011920929	15.999
682	Ob	1	Sil	Ob	682	-0.550000011920929	15.999
683	Ob	1	Sil	Ob	683	-0.550000011920929	15.999
684	Ob	1	Sil	Ob	684	-0.550000011920929	15.999
685	Ob	1	Sil	Ob	685	-0.550000011920929	15.999
686	Ob	1	Sil	Ob	686	-0.550000011920929	15.999
687	Ob	1	Sil	Ob	687	-0.550000011920929	15.999
688	Ob	1	Sil	Ob	688	-0.550000011920929	15.999
689	Ob	1	Sil	Ob	689	-0.550000011920929	15.999
690	Ob	1	Sil	Ob	690	-0.550000011920929	15.999
691	Ob	1	Sil	Ob	691	-0.550000011920929	15.999
692	Ob	1	Sil	Ob	692	-0.550000011920929	15.999
693	Ob	1	Sil	Ob	693	-0.550000011920929	15.999
694	Ob	1	Sil	Ob	694	-0.550000011920929	15.999
695	Ob	1	Sil	Ob	695	-0.550000011920929	15.999
696	Ob	1	Sil	Ob	696	-0.550000011920929	15.999
697	Ob	1	Sil	Ob	697	-0.550000011920929	15.999
698	Ob	1	Sil	Ob	698	-0.550000011920929	15.999
699	Ob	1	Sil	Ob	699	-0.550000011920929	15.999
700	Ob	1	Sil	Ob	700	-0.550000011920929	15.999
701	Ob	1	Sil	Ob	701	-0.550000011920929	15.999
702	Ob	1	Sil	Ob	702	-0.550000011920929	15.999
703	Ob	1	Sil	Ob	703	-0.550000011920929	15.999
704	Ob	1	Sil	Ob	704	-0.550000011920929	15.999
705	Ob	1	Sil	Ob	705	-0.550000011920929	15.999
706	Ob	1	Sil	Ob	706	-0.550000011920929	15.999
707	Ob	1	Sil	Ob	707	-0.550000011920929	15.999
708	Ob	1	Sil	Ob	708	-0.550000011920929	15.999
709	Ob	1	Sil	Ob	709	-0.550000011920929	15.999
710	Ob	1	Sil	Ob	710	-0.550000011920929	15.999
711	Ob	1	Sil	Ob	711	-0.550000011920929	15.999
712	Ob	1	Sil	Ob	712	-0.550000011920929	15.999
713	Ob	1	Sil	Ob	713	-0.550000011920929	15.999
714	Ob	1	Sil	Ob	714	-0.550000011920929	15.999
715	Ob	1	Sil	Ob	715	-0.550000011920929	15.999
716	Ob	1	Sil	Ob	716	-0.550000011920929	15.999
717	Ob	1	Sil	Ob	717	-0.550000011920929	15.999
718	Ob	1	Sil	Ob	718	-0.550000011920929	15.999
719	Ob	1	Sil	Ob	719	-0.550000011920929	15.999
720	Ob	1	Sil	Ob	720	-0.550000011920929	15.999
721	Ob	1	Sil	Ob	721	-0.550000011920929	15.999
722	Ob	1	Sil	Ob	722	-0.550000011920929	15.999
723	Ob	1	Sil	Ob	723	-0.550000011920929	15.999
724	Ob	1	Sil	Ob	724	-0.550000011920929	15.999
725	Ob	1	Sil	Ob	725	-0.550000011920929	15.999
726	Ob	1	Sil	Ob	726	-0.550000011920929	15.999
727	Ob	1	Sil	Ob	727	-0.550000011920929	15.999
728	Ob	1	Sil	Ob	728	-0.550000011920929	15.999
729	Ob	1	Sil	Ob	729	-0.550000011920929	15.999
730	Ob	1	Sil	Ob	730	-0.550000011920929	15.999
731	Ob	1	Sil	Ob	731	-0.550000011920929	15.999
732	Ob	1	Sil	Ob	732	-0.550000011920929	15.999
733	Ob	1	Sil	Ob	733	-0.550000011920929	15.999
734	Ob	1	Sil	Ob	734	-0.550000011920929	15.999
735	Ob	1	Sil	Ob	735	-0.550000011920929	15.999
736	Ob	1	Sil	Ob	736	-0.550000011920929	15.999
737	Ob	1	Sil	Ob	737	-0.550000011920929	15.999
738	Ob	1	Sil	Ob	738	-0.550000011920929	15.999
739	Ob	1	Sil	Ob	739	-0.550000011920929	15.999
740	Ob	1	Sil	Ob	740	-0.550000011920929	15.999
741	Ob	1	Sil	Ob	741	-0.550000011920929	15.999
742	Ob	1	Sil	Ob	742	-0.550000011920929	15.999
743	Ob	1	Sil	Ob	743	-0.550000011920929	15.999
744	Ob	1	Sil	Ob	744	-0.550000011920929	15.999
745	Ob	1	Sil	Ob	745	-0.550000011920929	15.999
746	Ob	1	Sil	Ob	746	-0.550000011920929	15.999
747	Ob	1	Sil	Ob	747	-0.550000011920929	15.999
748	Ob	1	Sil	Ob	748	-0.550000011920929	15.999
749	Ob	1	Sil	Ob	749	-0.550000011920929	15.999
750	Ob	1	Sil	Ob	750	-0.550000011920929	15.999
751	Ob	1	Sil	Ob	751	-0.550000011920929	15.999
752	Ob	1	Sil	Ob	752	-0.550000011920929	15.999
753	Ob	1	Sil	Ob	753	-0.550000011920929	15.999
754	Ob	1	Sil	Ob	754	-0.550000011920929	15.999
755	Ob	1	Sil	Ob	755	-0.550000011920929	15.999
756	Ob	1	Sil	Ob	756	-0.550000011920929	15.999
757	Ob	1	Sil	Ob	757	-0.550000011920929	15.999
758	Ob	1	Sil	Ob	758	-0.550000011920929	15.999
759	Ob	1	Sil	Ob	759	-0.550000011920929	15.999
760	Ob	1	Sil	Ob	760	-0.550000011920929	15.999
761	Ob	1	Sil	Ob	761	-0.550000011920929	15.999
762	Ob	1	Sil	Ob	762	-0.550000011920929	15.999
763	Ob	1	Sil	Ob	763	-0.550000011920929	15.999
764	Ob	1	Sil	Ob	764	-0.550000011920929	15.999
765	Ob	1	Sil	Ob	765	-0.550000011920929	15.999
766	Ob	1	Sil	Ob	766	-0.550000011920929	15.999
767	Ob	1	Sil	Ob	767	-0.550000011920929	15.999
768	Ob	1	Sil	Ob	768	-0.550000011920929	15.999
769	Ob	1	Sil	Ob	769	-0.550000011920929	15.999
770	Ob	1	Sil	Ob	770	-0.550000011920929	15.999
771	Ob	1	Sil	Ob	771	-0.550000011920929	15.999
772	Ob	1	Sil	Ob	772	-0.550000011920929	15.999
773	Ob	1	Sil	Ob	773	-0.550000011920929	15.999
774	Ob	1	Sil	Ob	774	-0.550000011920929	15.999
775	Ob	1	Sil	Ob	775	-0.550000011920929	15.999
776	Ob	1	Sil	Ob	776	-0.550000011920929	15.999
777	Ob	1	Sil	Ob	777	-0.550000011920929	15.999
778	Ob	1	Sil	Ob	778	-0.550000011920929	15.999
779	Ob	1	Sil	Ob	779	-0.550000011920929	15.999
780	Ob	1	Sil	Ob	780	-0.550000011920929	15.999
781	Ob	1	Sil	Ob	781	-0.550000011920929	15.999
782	Ob	1	Sil	Ob	782	-0.550000011920929	15.999
783	Ob	1	Sil	Ob	783	-0.550000011920929	15.999
784	Ob	1	Sil	Ob	784	-0.550000011920929	15.999
785	Ob	1	Sil	Ob	785	-0.550000011920929	15.999
786	Ob	1	Sil	Ob	786	-0.550000011920929	15.999
787	Ob	1	Sil	Ob	787	-0.550000011920929	15.999
788	Ob	1	Sil	Ob	788	-0.550000011920929	15.999
789	Ob	1	Sil	Ob	789	-0.550000011920929	15.999
790	Ob	1	Sil	Ob	790	-0.550000011920929	15.999
791	Ob	1	Sil	Ob	791	-0.550000011920929	15.999
792	Ob	1	Sil	Ob	792	-0.550000011920929	15.999
793	Ob	1	Sil	Ob	793	-0.550000011920929	15.999
794	Ob	1	Sil	Ob	794	-0.550000011920929	15.999
795	Ob	1	Sil	Ob	795	-0.550000011920929	15.999
796	Ob	1	Sil	Ob	796	-0.550000011920929	15.999
797	Ob	1	Sil	Ob	797	-0.550000011920929	15.999
798	Ob	1	Sil	Ob	798	-0.550000011920929	15.999
799	Ob	1	Sil	Ob	799	-0.550000011920929	15.999
800	Ob	1	Sil	Ob	800	-0.550000011920929	15.999
801	Ob	1	Sil	Ob	801	-0.550000011920929	15.999
802	Ob	1	Sil	Ob	802	-0.550000011920929	15.999
803	Ob	1	Sil	Ob	803	-0.550000011920929	15.999
804	Ob	1	Sil	Ob	804	-0.550000011920929	15.999
805	Ob	1	Sil	Ob	805	-0.550000011920929	15.999
806	Ob	1	Sil	Ob	806	-0.550000011920929	15.999
807	Ob	1	Sil	Ob	807	-0.550000011920929	15.999
808	Ob	1	Sil	Ob	808	-0.550000011920929	15.999
809	Ob	1	Sil	Ob	809	-0.550000011920929	15.999
810	Ob	1	Sil	Ob	810	-0.550000011920929	15.999
811	Ob	1	Sil	Ob	811	-0.550000011920929	15.999
812	Ob	1	Sil	Ob	812	-0.550000011920929	15.999
813	Ob	1	Sil	Ob	813	-0.550000011920929	15.999
814	Ob	1	Sil	Ob	814	-0.550000011920929	15.999
815	Ob	1	Sil	Ob	815	-0.550000011920929	15.999
816	Ob	1	Sil	Ob	816	-0.550000011920929	15.999
817	Ob	1	Sil	Ob	817	-0.550000011920929	15.999
818	Ob	1	Sil	Ob	818	-0.550000011920929	15.999
819	Ob	1	Sil	Ob	819	-0.550000011920929	15.999
820	Ob	1	Sil	Ob	820	-0.550000011920929	15.999
821	Ob	1	Sil	Ob	821	-0.550000011920929	15.999
822	Ob	1	Sil	Ob	822	-0.550000011920929	15.999
823	Ob	1	Sil	Ob	823	-0.550000011920929	15.999
824	Ob	1	Sil	Ob	824	-0.550000011920929	15.999
825	Ob	1	Sil	Ob	825	-0.550000011920929	15.999
826	Ob	1	Sil	Ob	826	-0.550000011920929	15.999
827	Ob	1	Sil	Ob	827	-0.550000011920929	15.999
828	Ob	1	Sil	Ob	828	-0.550000011920929	15.999
829	Ob	1	Sil	Ob	829	-0.550000011920929	15.999
830	Ob	1	Sil	Ob	830	-0.550000011920929	15.999
831	Ob	1	Sil	Ob	831	-0.550000011920929	15.999
832	Ob	1	Sil	Ob	832	-0.550000011920929	15.999
833	Ob	1	Sil	Ob	833	-0.550000011920929	15.999
834	Ob	1	Sil	Ob	834	-0.550000011920929	15.999
835	Ob	1	Sil	Ob	835	-0.550000011920929	15.999
836	Ob	1	Sil	Ob	836	-0.550000011920929	15.999
837	Ob	1	Sil	Ob	837	-0.550000011920929	15.999
838	Ob	1	Sil	Ob	838	-0.550000011920929	15.999
839	Ob	1	Sil	Ob	839	-0.550000011920929	15.999
840	Ob	1	Sil	Ob	840	-0.550000011920929	15.999
841	Ob	1	Sil	Ob	841	-0.550000011920929	15.999
842	Ob	1	Sil	Ob	842	-0.550000011920929	15.999
843	Ob	1	Sil	Ob	843	-0.550000011920929	15.999
844	Ob	1	Sil	Ob	844	-0.550000011920929	15.999
845	Ob	1	Sil	Ob	845	-0.550000011920929	15.999
846	Ob	1	Sil	Ob	846	-0.550000011920929	15.999
847	Ob	1	Sil	Ob	847	-0.550000011920929	15.999
848	Ob	1	Sil	Ob	848	-0.550000011920929	15.999
849	Ob	1	Sil	Ob	849	-0.550000011920929	15.999
850	Ob	1	Sil	Ob	850	-0.550000011920929	15.999
851	Ob	1	Sil	Ob	851	-0.550000011920929	15.999
852	Ob	1	Sil	Ob	852	-0.550000011920929	15.999
853	Ob	1	Sil	Ob	853	-0.550000011920929	15.999
854	Ob	1	Sil	Ob	854	-0.550000011920929	15.999
855	Ob	1	Sil	Ob	855	-0.550000011920929	15.999
856	Ob	1	Sil	Ob	856	-0.550000011920929	15.999
857	Ob	1	Sil	Ob	857	-0.550000011920929	15.999
858	Ob	1	Sil	Ob	858	-0.550000011920929	15.999
859	Ob	1	Sil	Ob	859	-0.550000011920929	15.999
860	Ob	1	Sil	Ob	860	-0.550000011920929	15.999
861	Ob	1	Sil	Ob	861	-0.550000011920929	15.999
862	Ob	1	Sil	Ob	862	-0.550000011920929	15.999
863	Ob	1	Sil	Ob	863	-0.550000011920929	15.999
864	Ob	1	Sil	Ob	864	-0.550000011920929	15.999
865	Ob	1	Sil	Ob	865	-0.550000011920929	15.999
866	Ob	1	Sil	Ob	866	-0.550000011920929	15.999
867	Ob	1	Sil	Ob	867	-0.550000011920929	15.999
868	Ob	1	Sil	Ob	868	-0.550000011920929	15.999
869	Ob	1	Sil	Ob	869	-0.550000011920929	15.999
870	Ob	1	Sil	Ob	870	-0.550000011920929	15.999
871	Ob	1	Sil	Ob	871	-0.550000011920929	15.999
872	Ob	1	Sil	Ob	872	-0.550000011920929	15.999
873	Ob	1	Sil	Ob	873	-0.550000011920929	15.999
874	Ob	1	Sil	Ob	874	-0.550000011920929	15.999
875	Ob	1	Sil	Ob	875	-0.550000011920929	15.999
876	Ob	1	Sil	Ob	876	-0.550000011920929	15.999
877	Ob	1	Sil	Ob	877	-0.550000011920929	15.999
878	Ob	1	Sil	Ob	878	-0.550000011920929	15.999
879	Ob	1	Sil	Ob	879	-0.550000011920929	15.999
880	Ob	1	Sil	Ob	880	-0.550000011920929	15.999
881	Ob	1	Sil	Ob	881	-0.550000011920929	15.999
882	Ob	1	Sil	Ob	882	-0.550000011920929	15.999
883	Ob	1	Sil	Ob	883	-0.550000011920929	15.999
884	Ob	1	Sil	Ob	884	-0.550000011920929	15.999
885	Ob	1	Sil	Ob	885	-0.550000011920929	15.999
886	Ob	1	Sil	Ob	886	-0.550000011920929	15.999
887	Ob	1	Sil	Ob	887	-0.550000011920929	15.999
888	Ob	1	Sil	Ob	888	-0.550000011920929	15.999
889	Ob	1	Sil	Ob	889	-0.550000011920929	15.999
890	Ob	1	Sil	Ob	890	-0.550000011920929	15.999
891	Ob	1	Sil	Ob	891	-0.550000011920929	15.999
892	Ob	1	Sil	Ob	892	-0.550000011920929	15.999
893	Ob	1	Sil	Ob	893	-0.550000011920929	15.999
894	Ob	1	Sil	Ob	894	-0.550000011920929	15.999
895	Ob	1	Sil	Ob	895	-0.550000011920929	15.999
896	Ob	1	Sil	Ob	896	-0.550000011920929	15.999
897	Ob	1	Sil	Ob	897	-0.550000011920929	15.999
898	Ob	1	Sil	Ob	898	-0.550000011920929	15.999
899	Ob	1	Sil	Ob	899	-0.550000011920929	15.999
900	Ob	1	Sil	Ob	900	-0.550000011920929	15.999
901	Ob	1	Sil	Ob	901	-0.550000011920929	15.999
902	Ob	1	Sil	Ob	902	-0.550000011920929	15.999
903	Ob	1	Sil	Ob	903	-0.550000011920929	15.999
904	Ob	1	Sil	Ob	904	-0.550000011920929	15.999
905	Ob	1	Sil	Ob	905	-0.550000011920929	15.999
906	Ob	1	Sil	Ob	906	-0.550000011920929	15.999
907	Ob	1	Sil	Ob	907	-0.550000011920929	15.999
908	Ob	1	Sil	Ob	908	-0.550000011920929	15.999
909	Ob	1	Sil	Ob	909	-0.550000011920929	15.999
910	Ob	1	Sil	Ob	910	-0.550000011920929	15.999
911	Ob	1	Sil	Ob	911	-0.550000011920929	15.999
912	Ob	1	Sil	Ob	912	-0.550000011920929	15.999
913	Ob	1	Sil	Ob	913	-0.550000011920929	15.999
914	Ob	1	Sil	Ob	914	-0.550000011920929	15.999
915	Ob	1	Sil	Ob	915	-0.550000011920929	15.999
916	Ob	1	Sil	Ob	916	-0.550000011920929	15.999
917	Ob	1	Sil	Ob	917	-0.550000011920929	15.999
918	Ob	1	Sil	Ob	918	-0.550000011920929	15.999
919	Ob	1	Sil	Ob	919	-0.550000011920929	15.999
920	Ob	1	Sil	Ob	920	-0.550000011920929	15.999
921	Ob	1	Sil	Ob	921	-0.550000011920929	15.999
922	Ob	1	Sil	Ob	922	-0.550000011920929	15.999
923	Ob	1	Sil	Ob	923	-0.550000011920929	15.999
924	Ob	1	Sil	Ob	924	-0.550000011920929	15.999
925	Ob	1	Sil	Ob	925	-0.550000011920929	15.999
926	Ob	1	Sil	Ob	926	-0.550000011920929	15.999
927	Ob	1	Sil	Ob	927	-0.550000011920929	15.999
928	Ob	1	Sil	Ob	928	-0.550000011920929	15.999
929	Ob	1	Sil	Ob	929	-0.550000011920929	15.999
930	Ob	1	Sil	Ob	930	-0.550000011920929	15.999
931	Ob	1	Sil	Ob	931	-0.550000011920929	15.999
932	Ob	1	Sil	Ob	932	-0.550000011920929	15.999
933	Ob	1	Sil	Ob	933	-0.550000011920929	15.999
934	Ob	1	Sil	Ob	934	-0.550000011920929	15.999
935	Ob	1	Sil	Ob	935	-0.550000011920929	15.999
936	Ob	1	Sil	Ob	936	-0.550000011920929	15.999
937	Ob	1	Sil	Ob	937	-0.550000011920929	15.999
938	Ob	1	Sil	Ob	938	-0.550000011920929	15.999
939	Ob	1	Sil	Ob	939	-0.550000011920929	15.999
940	Ob	1	Sil	Ob	940	-0.550000011920929	15.999
941	Ob	1	Sil	Ob	941	-0.550000011920929	15.999
942	Ob	1	Sil	Ob	942	-0.550000011920929	15.999
943	Ob	1	Sil	Ob	943	-0.550000011920929	15.999
944	Ob	1	Sil	Ob	944	-0.550000011920929	15.999
945	Ob	1	Sil	Ob	945	-0.550000011920929	15.999
946	Ob	1	Sil	Ob	946	-0.550000011920929	15.999
947	Ob	1	Sil	Ob	947	-0.550000011920929	15.999
948	Ob	1	Sil	Ob	948	-0.550000011920929	15.999
949	Ob	1	Sil	Ob	949	-0.550000011920929	15.999
950	Ob	1	Sil	Ob	950	-0.550000011920929	15.999
951	Ob	1	Sil	Ob	951	-0.550000011920929	15.999
952	Ob	1	Sil	Ob	952	-0.550000011920929	15.999
953	Ob	1	Sil	Ob	953	-0.550000011920929	15.999
954	Ob	1	Sil	Ob	954	-0.550000011920929	15.999
955	Ob	1	Sil	Ob	955	-0.550000011920929	15.999
956	Ob	1	Sil	Ob	956	-0.550000011920929	15.999
957	Ob	1	Sil	Ob	957	-0.550000011920929	15.999
958	Ob	1	Sil	Ob	958	-0.550000011920929	15.999
959	Ob	1	Sil	Ob	959	-0.550000011920929	15.999
960	Ob	1	Sil	Ob	960	-0.550000011920929	15.999
961	Ob	1	Sil	Ob	961	-0.550000011920929	15.999
962	Ob	1	Sil	Ob	962	-0.550000011920929	15.999
963	Ob	1	Sil	Ob	963	-0.550000011920929	15.999
964	Ob	1	Sil	Ob	964	-0.550000011920929	15.999
965	Ob	1	Sil	Ob	965	-0.550000011920929	15.999
966	Ob	1	Sil	Ob	966	-0.550000011920929	15.999
967	Ob	1	Sil	Ob	967	-0.550000011920929	15.999
968	Ob	1	Sil	Ob	968	-0.550000011920929	15.999
969	Ob	1	Sil	Ob	969	-0.550000011920929	15.999
970	Ob	1	Sil	Ob	970	-0.550000011920929	15.999
971	Ob	1	Sil	Ob	971	-0.550000011920929	15.999
972	Ob	1	Sil	Ob	972	-0.550000011920929	15.999
973	Ob	1	Sil	Ob	973	-0.550000011920929	15.999
974	Ob	1	Sil	Ob	974	-0.550000011920929	15.999
975	Ob	1	Sil	Ob	975	-0.550000011920929	15.999
976	Ob	1	Sil	Ob	976	-0.550000011920929	15.999
977	Ob	1	Sil	Ob	977	-0.550000011920929	15.999
978	Ob	1	Sil	Ob	978	-0.550000011920929	15.999
979	Ob	1	Sil	Ob	979	-0.550000011920929	15.999
980	Ob	1	Sil	Ob	980	-0.550000011920929	15.999
981	Ob	1	Sil	Ob	981	-0.550000011920929	15.999
982	Ob	1	Sil	Ob	982	-0.550000011920929	15.999
983	Ob	1	Sil	Ob	983	-0.550000011920929	15.999
984	Ob	1	Sil	Ob	984	-0.550000011920929	15.999
985	Ob	1	Sil	Ob	985	-0.550000011920929	15.999
986	Ob	1	Sil	Ob	986	-0.550000011920929	15.999
987	Ob	1	Sil	Ob	987	-0.550000011920929	15.999
988	Ob	1	Sil	Ob	988	-0.550000011920929	15.999
989	Ob	1	Sil	Ob	989	-0.550000011920929	15.999
990	Ob	1	Sil	Ob	990	-0.550000011920929	15.999
991	Ob	1	Sil	Ob	991	-0.550000011920929	15.999
992	Ob	1	Sil	Ob	992	-0.550000011920929	15.999
993	Ob	1	Sil	Ob	993	-0.550000011920929	15.999
994	Ob	1	Sil	Ob	994	-0.550000011920929	15.999
995	Ob	1	Sil	Ob	995	-0.550000011920929	15.999
996	Ob	1	Sil	Ob	996	-0.550000011920929	15.999
997	Ob	1	Sil	Ob	997	-0.550000011920929	15.999
998	Ob	1	Sil	Ob	998	-0.550000011920929	15.999
999	Ob	1	Sil	Ob	999	-0.550000011920929	15.999
1000	Ob	1	Sil	Ob	1000	-0.550000011920929	15.999
1001	Ob	1	Sil	Ob	1001	-0.550000011920929	15.999
1002	Ob	1	Sil	Ob	1002	-0.550000011920929	15.999
1003	Ob	1	Sil	Ob	1003	-0.550000011920929	15.999
1004	Ob	1	Sil	Ob	1004	-0.550000011920929	15.999
1005	Ob	1	Sil	Ob	1005	-0.550000011920929	15.999
1006	Ob	1	Sil	Ob	1006	-0.550000011920929	15.999
1007	Ob	1	Sil	Ob	1007	-0.550000011920929	15.999
1008	Ob	1	Sil	Ob	1008	-0.550000011920929	15.999
1009	Ob	1	Sil	Ob	1009	-0.550000011920929	15.999
1010	Ob	1	Sil	Ob	1010	-0.550000011920929	15.999
1011	Ob	1	Sil	Ob	1011	-0.550000011920929	15.999
1012	Ob	1	Sil	Ob	1012	-0.550000011920929	15.999
1013	Ob	1	Sil	Ob	1013	-0.550000011920929	15.999
1014	Ob	1	Sil	Ob	1014	-0.550000011920929	15.999
1015	Ob	1	Sil	Ob	1015	-0.550000011920929	15.999
1016	Ob	1	Sil	Ob	1016	-0.550000011920929	15.999
1017	Ob	1	Sil	Ob	1017	-0.550000011920929	15.999
1018	Ob	1	Sil	Ob	1018	-0.550000011920929	15.999
1019	Ob	1	Sil	Ob	1019	-0.550000011920929	15.999
1020	Ob	1	Sil	Ob	1020	-0.550000011920929	15.999
1021	Ob	1	Sil	Ob	1021	-0.550000011920929	15.999
1022	Ob	1	Sil	Ob	1022	-0.550000011920929	15.999
1023	Ob	1	Sil	Ob	1023	-0.550000011920929	15.999
1024	Ob	1	Sil	Ob	1024	-0.550000011920929	15.999
1025	Ob	1	Sil	Ob	1025	-0.550000011920929	15.999
1026	Ob	1	Sil	Ob	1026	-0.550000011920929	15.999
1027	Ob	1	Sil	Ob	1027	-0.550000011920929	15.999
1028	Ob	1	Sil	Ob	1028	-0.550000011920929	15.999
1029	Ob	1	Sil	Ob	1029	-0.550000011920929	15.999
1030	Ob	1	Sil	Ob	1030	-0.550000011920929	15.999
1031	Ob	1	Sil	Ob	1031	-0.550000011920929	15.999
1032	Ob	1	Sil	Ob	1032	-0.550000011920929	15.999
1033	Ob	1	Sil	Ob	1033	-0.550000011920929	15.999
1034	Ob	1	Sil	Ob	1034	-0.550000011920929	15.999
1035	Ob	1	Sil	Ob	1035	-0.550000011920929	15.999
1036	Ob	1	Sil	Ob	1036	-0.550000011920929	15.999
1037	Ob	1	Sil	Ob	1037	-0.550000011920929	15.999
1038	Ob	1	Sil	Ob	1038	-0.550000011920929	15.999
1039	Ob	1	Sil	Ob	1039	-0.550000011920929	15.999
1040	Ob	1	Sil	Ob	1040	-0.550000011920929	15.999
1041	Ob	1	Sil	Ob	1041	-0.550000011920929	15.999
1042	Ob	1	Sil	Ob	1042	-0.550000011920929	15.999
1043	Ob	1	Sil	Ob	1043	-0.550000011920929	15.999
1044	Ob	1	Sil	Ob	1044	-0.550000011920929	15.999
1045	Ob	1	Sil	Ob	1045	-0.550000011920929	15.999
1046	Ob	1	Sil	Ob	1046	-0.550000011920929	15.999
1047	Ob	1	Sil	Ob	1047	-0.550000011920929	15.999
1048	Ob	1	Sil	Ob	1048	-0.550000011920929	15.999
1049	Ob	1	Sil	Ob	1049	-0.550000011920929	15.999
1050	Ob	1	Sil	Ob	1050	-0.550000011920929	15.999
1051	Ob	1	Sil	Ob	1051	-0.550000011920929	15.999
1052	Ob	1	Sil	Ob	1052	-0.550000011920929	15.999
1053	Ob	1	Sil	Ob	1053	-0.550000011920929	15.999
1054	Ob	1	Sil	Ob	1054	-0.550000011920929	15.999
1055	Ob	1	Sil	Ob	1055	-0.550000011920929	15.999
1056	Ob	1	Sil	Ob	1056	-0.550000011920929	15.999
1057	Ob	1	Sil	Ob	1057	-0.550000011920929	15.999
1058	Ob	1	Sil	Ob	1058	-0.550000011920929	15.999
1059	Ob	1	Sil	Ob	1059	-0.550000011920929	15.999
1060	Ob	1	Sil	Ob	1060	-0.550000011920929	15.999
1061	Ob	1	Sil	Ob	1061	-0.550000011920929	15.999
1062	Ob	1	Sil	Ob	1062	-0.550000011920929	15.999
1063	Ob	1	Sil	Ob	1063	-0.550000011920929	15.999
1064	Ob	1	Sil	Ob	1064	-0.550000011920929	15.999
1065	Ob	1	Sil	Ob	1065	-0.550000011920929	15.999
1066	Ob	1	Sil	Ob	1066	-0.550000011920929	15.999
1067	Ob	1	Sil	Ob	1067	-0.550000011920929	15.999
1068	Ob	1	Sil	Ob	1068	-0.550000011920929	15.999
1069	Ob	1	Sil	Ob	1069	-0.550000011920929	15.999
1070	Ob	1	Sil	Ob	1070	-0.550000011920929	15.999
1071	Ob	1	Sil	Ob	1071	-0.550000011920929	15.999
1072	Ob	1	Sil	Ob	1072	-0.550000011920929	15.999
1073	Ob	1	Sil	Ob	1073	-0.550000011920929	15.999
1074	Ob	1	Sil	Ob	1074	-0.550000011920929	15.999
1075	Ob	1	Sil	Ob	1075	-0.550000011920929	15.999
1076	Ob	1	Sil	Ob	1076	-0.550000011920929	15.999
1077	Ob	1	Sil	Ob	1077	-0.550000011920929	15.999
1078	Ob	1	Sil	Ob	1078	-0.550000011920929	15.999
1079	Ob	1	Sil	Ob	1079	-0.550000011920929	15.999
1080	Ob	1	Sil	Ob	1080	-0.550000011920929	15.999
1081	Ob	1	Sil	Ob	1081	-0.550000011920929	15.999
1082	Ob	1	Sil	Ob	1082	-0.550000011920929	15.999
1083	Ob	1	Sil	Ob	1083	-0.550000011920929	15.999
1084	Ob	1	Sil	Ob	1084	-0.550000011920929	15.999
1085	Ob	1	Sil	Ob	1085	-0.550000011920929	15.999
1086	Ob	1	Sil	Ob	1086	-0.550000011920929	15.999
1087	Ob	1	Sil	Ob	1087	-0.550000011920929	15.999
1088	Ob	1	Sil	Ob	1088	-0.550000011920929	15.999
1089	Ob	1	Sil	Ob	1089	-0.550000011920929	15.999
1090	Ob	1	Sil	Ob	1090	-0.550000011920929	15.999
1091	Ob	1	Sil	Ob	1091	-0.550000011920929	15.999
1092	Ob	1	Sil	Ob	1092	-0.550000011920929	15.999
1093	Ob	1	Sil	Ob	1093	-0.550000011920929	15.999
1094	Ob	1	Sil	Ob	1094	-0.550000011920929	15.999
1095	Ob	1	Sil	Ob	1095	-0.550000011920929	15.999
1096	Ob	1	Sil	Ob	1096	-0.550000011920929	15.999
1097	Ob	1	Sil	Ob	1097	-0.550000011920929	15.999
1098	Ob	1	Sil	Ob	1098	-0.550000011920929	15.999
1099	Ob	1	Sil	Ob	1099	-0.550000011920929	15.999
1100	Ob	1	Sil	Ob	1100	-0.550000011920929	15.999
1101	Ob	1	Sil	Ob	1101	-0.550000011920929	15.999
1102	Ob	1	Sil	Ob	1102	-0.550000011920929	15.999
1103	Ob	1	Sil	Ob	1103	-0.550000011920929	15.999
1104	Ob	1	Sil	Ob	1104	-0.550000011920929	15.999
1105	Ob	1	Sil	Ob	1105	-0.550000011920929	15.999
1106	Ob	1	Sil	Ob	1106	-0.550000011920929	15.999
1107	Ob	1	Sil	Ob	1107	-0.550000011920929	15.999
1108	Ob	1	Sil	Ob	1108	-0.550000011920929	15.999
1109	Ob	1	Sil	Ob	1109	-0.550000011920929	15.999
1110	Ob	1	Sil	Ob	1110	-0.550000011920929	15.999
1111	Ob	1	Sil	Ob	1111	-0.550000011920929	15.999
1112	Ob	1	Sil	Ob	1112	-0.550000011920929	15.999
1113	Ob	1	Sil	Ob	1113	-0.550000011920929	15.999
1114	Ob	1	Sil	Ob	1114	-0.550000011920929	15.999
1115	Ob	1	Sil	Ob	1115	-0.550000011920929	15.999
1116	Ob	1	Sil	Ob	1116	-0.550000011920929	15.999
1117	Ob	1	Sil	Ob	1117	-0.550000011920929	15.999
1118	Ob	1	Sil	Ob	1118	-0.550000011920929	15.999
1119	Ob	1	Sil	Ob	1119	-0.550000011920929	15.999
1120	Ob	1	Sil	Ob	1120	-0.550000011920929	15.999
1121	Ob	1	Sil	Ob	1121	-0.550000011920929	15.999
1122	Ob	1	Sil	Ob	1122	-0.550000011920929	15.999
1123	Ob	1	Sil	Ob	1123	-0.550000011920929	15.999
1124	Ob	1	Sil	Ob	1124	-0.550000011920929	15.999
1125	Ob	1	Sil	Ob	1125	-0.550000011920929	15.999
1126	Ob	1	Sil	Ob	1126	-0.550000011920929	15.999
1127	Ob	1	Sil	Ob	1127	-0.550000011920929	15.999
1128	Ob	1	Sil	Ob	1128	-0.550000011920929	15.999
1129	Ob	1	Sil	Ob	1129	-0.550000011920929	15.999
1130	Ob	1	Sil	Ob	1130	-0.550000011920929	15.999
1131	Ob	1	Sil	Ob	1131	-0.550000011920929	15.999
1132	Ob	1	Sil	Ob	1132	-0.550000011920929	15.999
1133	Ob	1	Sil	Ob	1133	-0.550000011920929	15.999
1134	Ob	1	Sil	Ob	1134	-0.550000011920929	15.999
1135	Ob	1	Sil	Ob	1135	-0.550000011920929	15.999
1136	Ob	1	Sil	Ob	1136	-0.550000011920929	15.999
1137	Ob	1	Sil	Ob	1137	-0.550000011920929	15.999
1138	Ob	1	Sil	Ob	1138	-0.550000011920929	15.999
1139	Ob	1	Sil	Ob	1139	-0.550000011920929	15.999
1140	Ob	1	Sil	Ob	1140	-0.550000011920929	15.999
1141	Ob	1	Sil	Ob	1141	-0.550000011920929	15.999
1142	Ob	1	Sil	Ob	1142	-0.550000011920929	15.999
1143	Ob	1	Sil	Ob	1143	-0.550000011920929	15.999
1144	Ob	1	Sil	Ob	1144	-0.550000011920929	15.999
1145	Ob	1	Sil	Ob	1145	-0.550000011920929	15.999
1146	Ob	1	Sil	Ob	1146	-0.550000011920929	15.999
1147	Ob	1	Sil	Ob	1147	-0.550000011920929	15.999
1148	Ob	1	Sil	Ob	1148	-0.550000011920929	15.999
1149	Ob	1	Sil	Ob	1149	-0.550000011920929	15.999
1150	Ob	1	Sil	Ob	1150	-0.550000011920929	15.999
1151	Ob	1	Sil	Ob	1151	-0.550000011920929	15.999
1152	Ob	1	Sil	Ob	1152	-0.550000011920929	15.999
1153	Ob	1	Sil	Ob	1153	-0.550000011920929	15.999
1154	Ob	1	Sil	Ob	1154	-0.550000011920929	15.999
1155	Ob	1	Sil	Ob	1155	-0.550000011920929	15.999
1156	Ob	1	Sil	Ob	1156	-0.550000011920929	15.999
1157	Ob	1	Sil	Ob	1157	-0.550000011920929	15.999
1158	Ob	1	Sil	Ob	1158	-0.550000011920929	15.999
1159	Ob	1	Sil	Ob	1159	-0.550000011920929	15.999
1160	Ob	1	Sil	Ob	1160	-0.550000011920929	15.999
1161	Ob	1	Sil	Ob	1161	-0.550000011920929	15.999
1162	Ob	1	Sil	Ob	1162	-0.550000011920929	15.999
1163	Ob	1	Sil	Ob	1163	-0.550000011920929	15.999
1164	Ob	1	Sil	Ob	1164	-0.550000011920929	15.999
1165	Ob	1	Sil	Ob	1165	-0.550000011920929	15.999
1166	Ob	1	Sil	Ob	1166	-0.550000011920929	15.999
1167	Ob	1	Sil	Ob	1167	-0.550000011920929	15.999
1168	Ob	1	Sil	Ob	1168	-0.550000011920929	15.999
1169	Ob	1	Sil	Ob	1169	-0.550000011920929	15.999
1170	Ob	1	Sil	Ob	1170	-0.550000011920929	15.999
1171	Ob	1	Sil	Ob	1171	-0.550000011920929	15.999
1172	Ob	1	Sil	Ob	1172	-0.550000011920929	15.999
1173	Ob	1	Sil	Ob	1173	-0.550000011920929	15.999
1174	Ob	1	Sil	Ob	1174	-0.550000011920929	15.999
1175	Ob	1	Sil	Ob	1175	-0.550000011920929	15.999
1176	Ob	1	Sil	Ob	1176	-0.550000011920929	15.999
1177	Ob	1	Sil	Ob	1177	-0.550000011920929	15.999
1178	Ob	1	Sil	Ob	1178	-0.550000011920929	15.999
1179	Ob	1	Sil	Ob	1179	-0.550000011920929	15.999
1180	Ob	1	Sil	Ob	1180	-0.550000011920929	15.999
1181	Ob	1	Sil	Ob	1181	-0.550000011920929	15.999
1182	Ob	1	Sil	Ob	1182	-0.550000011920929	15.999
1183	Ob	1	Sil	Ob	1183	-0.550000011920929	15.999
1184	Ob	1	Sil	Ob	1184	-0.550000011920929	15.999
1185	Ob	1	Sil	Ob	1185	-0.550000011920929	15.999
1186	Ob	1	Sil	Ob	1186	-0.550000011920929	15.999
1187	Ob	1	Sil	Ob	1187	-0.550000011920929	15.999
1188	Ob	1	Sil	Ob	1188	-0.550000011920929	15.999
1189	Ob	1	Sil	Ob	1189	-0.550000011920929	15.999
1190	Ob	1	Sil	Ob	1190	-0.550000011920929	15.999
1191	Ob	1	Sil	Ob	1191	-0.550000011920929	15.999
1192	Ob	1	Sil	Ob	1192	-0.550000011920929	15.999
1193	Ob	1	Sil	Ob	1193	-0.550000011920929	15.999
1194	Ob	1	Sil	Ob	1194	-0.550000011920929	15.999
1195	Ob	1	Sil	Ob	1195	-0.550000011920929	15.999
1196	Ob	1	Sil	Ob	1196	-0.550000011920929	15.999
1197	Ob	1	Sil	Ob	1197	-0.550000011920929	15.999
1198	Ob	1	Sil	Ob	1198	-0.550000011920929	15.999
1199	Ob	1	Sil	Ob	1199	-0.550000011920929	15.999
1200	Ob	1	Sil	Ob	1200	-0.550000011920929	15.999
1201	Ob	1	Sil	Ob	1201	-0.550000011920929	15.999
1202	Ob	1	Sil	Ob	1202	-0.550000011920929	15.999
1203	Ob	1	Sil	Ob	1203	-0.550000011920929	15.999
1204	Ob	1	Sil	Ob	1204	-0.550000011920929	15.999
1205	Ob	1	Sil	Ob	1205	-0.550000011920929	15.999
1206	Ob	1	Sil	Ob	1206	-0.550000011920929	15.999
1207	Ob	1	Sil	Ob	1207	-0.550000011920929	15.999
1208	Ob	1	Sil	Ob	1208	-0.550000011920929	15.999
1209	Ob	1	Sil	Ob	1209	-0.550000011920929	15.999
1210	Ob	1	Sil	Ob	1210	-0.550000011920929	15.999
1211	Ob	1	Sil	Ob	1211	-0.550000011920929	15.999
1212	Ob	1	Sil	Ob	1212	-0.550000011920929	15.999
1213	Ob	1	Sil	Ob	1213	-0.550000011920929	15.999
1214	Ob	1	Sil	Ob	1214	-0.550000011920929	15.999
1215	Ob	1	Sil	Ob	1215	-0.550000011920929	15.999
1216	Ob	1	Sil	Ob	1216	-0.550000011920929	15.999
1217	Ob	1	Sil	Ob	1217	-0.550000011920929	15.999
1218	Ob	1	Sil	Ob	1218	-0.550000011920929	15.999
1219	Ob	1	Sil	Ob	1219	-0.550000011920929	15.999
1220	Ob	1	Sil	Ob	1220	-0.550000011920929	15.999
1221	Ob	1	Sil	Ob	1221	-0.550000011920929	15.999
1222	Ob	1	Sil	Ob	1222	-0.550000011920929	15.999
1223	Ob	1	Sil	Ob	1223	-0.550000011920929	15.999
1224	Ob	1	Sil	Ob	1224	-0.550000011920929	15.999
1225	Ob	1	Sil	Ob	1225	-0.550000011920929	15.999
1226	Ob	1	Sil	Ob	1226	-0.550000011920929	15.999
1227	Ob	1	Sil	Ob	1227	-0.550000011920929	15.999
1228	Ob	1	Sil	Ob	1228	-0.550000011920929	15.999
1229	Ob	1	Sil	Ob	1229	-0.550000011920929	15.999
1230	Ob	1	Sil	Ob	1230	-0.550000011920929	15.999
1231	Ob	1	Sil	Ob	1231	-0.550000011920929	15.999
1232	Ob	1	Sil	Ob	1232	-0.550000011920929	15.999
1233	Ob	1	Sil	Ob	1233	-0.550000011920929	15.999
1234	Ob	1	Sil	Ob	1234	-0.550000011920929	15.999
1235	Ob	1	Sil	Ob	1235	-0.550000011920929	15.999
1236	Ob	1	Sil	Ob	1236	-0.550000011920929	15.999
1237	Ob	1	Sil	Ob	1237	-0.550000011920929	15.999
1238	Ob	1	Sil	Ob	1238	-0.550000011920929	15.999
1239	Ob	1	Sil	Ob	1239	-0.550000011920929	15.999
1240	Ob	1	Sil	Ob	1240	-0.550000011920929	15.999
1241	Ob	1	Sil	Ob	1241	-0.550000011920929	15.999
1242	Ob	1	Sil	Ob	1242	-0.550000011920929	15.999
1243	Ob	1	Sil	Ob	1243	-0.550000011920929	15.999
1244	Ob	1	Sil	Ob	1244	-0.550000011920929	15.999
1245	Ob	1	Sil	Ob	1245	-0.550000011920929	15.999
1246	Ob	1	Sil	Ob	1246	-0.550000011920929	15.999
1247	Ob	1	Sil	Ob	1247	-0.550000011920929	15.999
1248	Ob	1	Sil	Ob	1248	-0.550000011920929	15.999
1249	Ob	1	Sil	Ob	1249	-0.550000011920929	15.999
1250	Ob	1	Sil	Ob	1250	-0.550000011920929	15.999
1251	Ob	1	Sil	Ob	1251	-0.550000011920929	15.999
1252	Ob	1	Sil	Ob	1252	-0.550000011920929	15.999
1253	Ob	1	Sil	Ob	1253	-0.550000011920929	15.999
1254	Ob	1	Sil	Ob	1254	-0.550000011920929	15.999
1255	Ob	1	Sil	Ob	1255	-0.550000011920929	15.999
1256	Ob	1	Sil	Ob	1256	-0.550000011920929	15.999
1257	Ob	1	Sil	Ob	1257	-0.550000011920929	15.999
1258	Ob	1	Sil	Ob	1258	-0.550000011920929	15.999
1259	Ob	1	Sil	Ob	1259	-0.550000011920929	15.999
1260	Ob	1	Sil	Ob	1260	-0.550000011920929	15.999
1261	Ob	1	Sil	Ob	1261	-0.550000011920929	15.999
1262	Ob	1	Sil	Ob	1262	-0.550000011920929	15.999
1263	Ob	1	Sil	Ob	1263	-0.550000011920929	15.999
1264	Ob	1	Sil	Ob	1264	-0.550000011920929	15.999
1265	Ob	1	Sil	Ob	1265	-0.550000011920929	15.999
1266	Ob	1	Sil	Ob	1266	-0.550000011920929	15.999
1267	Ob	1	Sil	Ob	1267	-0.550000011920929	15.999
1268	Ob	1	Sil	Ob	1268	-0.550000011920929	15.999
1269	Ob	1	Sil	Ob	1269	-0.550000011920929	15.999
1270	Ob	1	Sil	Ob	1270	-0.550000011920929	15.999
1271	Ob	1	Sil	Ob	1271	-0.550000011920929	15.999
1272	Ob	1	Sil	Ob	1272	-0.550000011920929	15.999
1273	Ob	1	Sil	Ob	1273	-0.550000011920929	15.999
1274	Ob	1	Sil	Ob	1274	-0.550000011920929	15.999
1275	Ob	1	Sil	Ob	1275	-0.550000011920929	15.999
1276	Ob	1	Sil	Ob	1276	-0.550000011920929	15.999
1277	Ob	1	Sil	Ob	1277	-0.550000011920929	15.999
1278	Ob	1	Sil	Ob	1278	-0.550000011920929	15.999
1279	Ob	1	Sil	Ob	1279	-0.550000011920929	15.999
1280	Ob	1	Sil	Ob	1280	-0.550000011920929	15.999
1281	Ob	1	Sil	Ob	1281	-0.550000011920929	15.999
1282	Ob	1	Sil	Ob	1282	-0.550000011920929	15.999
1283	Ob	1	Sil	Ob	1283	-0.550000011920929	15.999
1284	Ob	1	Sil	Ob	1284	-0.550000011920929	15.999
1285	Ob	1	Sil	Ob	1285	-0.550000011920929	15.999
1286	Ob	1	Sil	Ob	1286	-0.550000011920929	15.999
1287	Ob	1	Sil	Ob	1287	-0.550000011920929	15.999
1288	Ob	1	Sil	Ob	1288	-0.550000011920929	15.999
1289	Oy	1	Sil	Oy	1289	-0.675000011920929	15.999
1290	Cm	1	Sil	Cm	1290	-0.3499999940395355	12.011
1291	Cm	1	Sil	Cm	1291	-0.3499999940395355	12.011
1292	Cm	1	Sil	Cm	1292	-0.3499999940395355	12.011
1293	Cm	1	Sil	Cm	1293	-0.3499999940395355	12.011
1294	Oy	1	Sil	Oy	1294	-0.675000011920929	15.999
1295	Oy	1	Sil	Oy	1295	-0.675000011920929	15.999
1296	Cm	1	Sil	Cm	1296	-0.3499999940395355	12.011
1297	Cm	1	Sil	Cm	1297	-0.3499999940395355	12.011
1298	Cm	1	Sil	Cm	1298	-0.3499999940395355	12.011
1299	Cm	1	Sil	Cm	1299	-0.3499999940395355	12.011
1300	Cm	1	Sil	Cm	1300	-0.3499999940395355	12.011
1301	Cm	1	Sil	Cm	1301	-0.3499999940395355	12.011
1302	Oy	1	Sil	Oy	1302	-0.675000011920929	15.999
1303	Cm	1	Sil	Cm	1303	-0.3499999940395355	12.011
1304	Cm	1	Sil	Cm	1304	-0.3499999940395355	12.011
1305	Cm	1	Sil	Cm	1305	-0.3499999940395355	12.011
1306	Cm	1	Sil	Cm	1306	-0.3499999940395355	12.011
1307	Cm	1	Sil	Cm	1307	-0.3499999940395355	12.011
1308	Oy	1	Sil	Oy	1308	-0.675000011920929	15.999
1309	Cm	1	Sil	Cm	1309	-0.3499999940395355	12.011
1310	Cm	1	Sil	Cm	1310	-0.3499999940395355	12.011
1311	Oy	1	Sil	Oy	1311	-0.675000011920929	15.999
1312	Cm	1	Sil	Cm	1312	-0.3499999940395355	12.011
1313	Cm	1	Sil	Cm	1313	-0.3499999940395355	12.011
1314	Oy	1	Sil	Oy	1314	-0.675000011920929	15.999
1315	Oy	1	Sil	Oy	1315	-0.675000011920929	15.999
1316	Oy	1	Sil	Oy	1316	-0.675000011920929	15.999
1317	Cm	1	Sil	Cm	1317	-0.3499999940395355	12.011
1318	Cm	1	Sil	Cm	1318	-0.3499999940395355	12.011
1319	Cm	1	Sil	Cm	1319	-0.3499999940395355	12.011
1320	Cm	1	Sil	Cm	1320	-0.3499999940395355	12.011
1321	Cm	1	Sil	Cm	1321	-0.3499999940395355	12.011
1322	Oy	1	Sil	Oy	1322	-0.675000011920929	15.999
1323	Cm	1	Sil	Cm	1323	-0.3499999940395355	12.011
1324	Cm	1	Sil	Cm	1324	-0.3499999940395355	12.011
1325	Oy	1	Sil	Oy	1325	-0.675000011920929	15.999
1326	Cm	1	Sil	Cm	1326	-0.3499999940395355	12.011
1327	Oy	1	Sil	Oy	1327	-0.675000011920929	15.999
1328	Cm	1	Sil	Cm	1328	-0.3499999940395355	12.011
1329	Cm	1	Sil	Cm	1329	-0.3499999940395355	12.011
1330	Oy	1	Sil	Oy	1330	-0.675000011920929	15.999
1331	Oy	1	Sil	Oy	1331	-0.675000011920929	15.999
1332	Cm	1	Sil	Cm	1332	-0.3499999940395355	12.011
1333	Oy	1	Sil	Oy	1333	-0.675000011920929	15.999
1334	Cm	1	Sil	Cm	1334	-0.3499999940395355	12.011
1335	Cm	1	Sil	Cm	1335	-0.3499999940395355	12.011
1336	Oy	1	Sil	Oy	1336	-0.675000011920929	15.999
1337	Cm	1	Sil	Cm	1337	-0.3499999940395355	12.011
1338	Oy	1	Sil	Oy	1338	-0.675000011920929	15.999
1339	Cm	1	Sil	Cm	1339	-0.3499999940395355	12.011
1340	Oy	1	Sil	Oy	1340	-0.675000011920929	15.999
1341	Cm	1	Sil	Cm	1341	-0.3499999940395355	12.011
1342	Oy	1	Sil	Oy	1342	-0.675000011920929	15.999
1343	Cm	1	Sil	Cm	1343	-0.3499999940395355	12.011
1344	Cm	1	Sil	Cm	1344	-0.3499999940395355	12.011
1345	Cm	1	Sil	Cm	1345	-0.3499999940395355	12.011
1346	Cm	1	Sil	Cm	1346	-0.3499999940395355	12.011
1347	Oy	1	Sil	Oy	1347	-0.675000011920929	15.999
1348	Cm	1	Sil	Cm	1348	-0.3499999940395355	12.011
1349	Cm	1	Sil	Cm	1349	-0.3499999940395355	12.011
1350	Cm	1	Sil	Cm	1350	-0.3499999940395355	12.011
1351	Oy	1	Sil	Oy	1351	-0.675000011920929	15.999
1352	Oy	1	Sil	Oy	1352	-0.675000011920929	15.999
1353	Cm	1	Sil	Cm	1353	-0.3499999940395355	12.011
1354	Cm	1	Sil	Cm	1354	-0.3499999940395355	12.011
1355	Cm	1	Sil	Cm	1355	-0.3499999940395355	12.011
1356	Oy	1	Sil	Oy	1356	-0.675000011920929	15.999
1357	Cm	1	Sil	Cm	1357	-0.3499999940395355	12.011
1358	Oy	1	Sil	Oy	1358	-0.675000011920929	15.999
1359	Cm	1	Sil	Cm	1359	-0.3499999940395355	12.011
1360	Cm	1	Sil	Cm	1360	-0.3499999940395355	12.011
1361	Oy	1	Sil	Oy	1361	-0.675000011920929	15.999
1362	Cm	1	Sil	Cm	1362	-0.3499999940395355	12.011
1363	Cm	1	Sil	Cm	1363	-0.3499999940395355	12.011
1364	Cm	1	Sil	Cm	1364	-0.3499999940395355	12.011
1365	Oy	1	Sil	Oy	1365	-0.675000011920929	15.999
1366	Cm	1	Sil	Cm	1366	-0.3499999940395355	12.011
1367	Cm	1	Sil	Cm	1367	-0.3499999940395355	12.011
1368	Oy	1	Sil	Oy	1368	-0.675000011920929	15.999
1369	Cm	1	Sil	Cm	1369	-0.3499999940395355	12.011
1370	Cm	1	Sil	Cm	1370	-0.3499999940395355	12.011
1371	Oy	1	Sil	Oy	1371	-0.675000011920929	15.999
1372	Cm	1	Sil	Cm	1372	-0.3499999940395355	12.011
1373	Oy	1	Sil	Oy	1373	-0.675000011920929	15.999
1374	Cm	1	Sil	Cm	1374	-0.3499999940395355	12.011
1375	Cm	1	Sil	Cm	1375	-0.3499999940395355	12.011
1376	Oy	1	Sil	Oy	1376	-0.675000011920929	15.999
1377	Cm	1	Sil	Cm	1377	-0.3499999940395355	12.011
1378	Oy	1	Sil	Oy	1378	-0.675000011920929	15.999
1379	Cm	1	Sil	Cm	1379	-0.3499999940395355	12.011
1380	Cm	1	Sil	Cm	1380	-0.3499999940395355	12.011
1381	Oy	1	Sil	Oy	1381	-0.675000011920929	15.999
1382	Oy	1	Sil	Oy	1382	-0.675000011920929	15.999
1383	Cm	1	Sil	Cm	1383	-0.3499999940395355	12.011
1384	Cm	1	Sil	Cm	1384	-0.3499999940395355	12.011
1385	Cm	1	Sil	Cm	1385	-0.3499999940395355	12.011
1386	Cm	1	Sil	Cm	1386	-0.3499999940395355	12.011
1387	Cm	1	Sil	Cm	1387	-0.3499999940395355	12.011
1388	Cm	1	Sil	Cm	1388	-0.3499999940395355	12.011
1389	Cm	1	Sil	Cm	1389	-0.3499999940395355	12.011
1390	Cm	1	Sil	Cm	1390	-0.3499999940395355	12.011
1391	Cm	1	Sil	Cm	1391	-0.3499999940395355	12.011
1392	Cm	1	Sil	Cm	1392	-0.3499999940395355	12.011
1393	Cm	1	Sil	Cm	1393	-0.3499999940395355	12.011
1394	Cm	1	Sil	Cm	1394	-0.3499999940395355	12.011
1395	Cm	1	Sil	Cm	1395	-0.3499999940395355	12.011
1396	Cm	1	Sil	Cm	1396	-0.3499999940395355	12.011
1397	Cm	1	Sil	Cm	1397	-0.3499999940395355	12.011
1398	Oy	1	Sil	Oy	1398	-0.675000011920929	15.999
1399	Cm	1	Sil	Cm	1399	-0.3499999940395355	12.011
1400	Cm	1	Sil	Cm	1400	-0.3499999940395355	12.011
1401	Sib	1	Sil	Sib	1401	1.100000023841858	28.0855
1402	Sib	1	Sil	Sib	1402	1.100000023841858	28.0855
1403	Sib	1	Sil	Sib	1403	1.100000023841858	28.0855
1404	Sib	1	Sil	Sib	1404	1.100000023841858	28.0855
1405	Sib	1	Sil	Sib	1405	1.100000023841858	28.0855
1406	Sim	1	Sil	Sim	1406	0.9110000133514404	28.0855
1407	Sib	1	Sil	Sib	1407	1.100000023841858	28.0855
1408	Sib	1	Sil	Sib	1408	1.100000023841858	28.0855
1409	Sib	1	Sil	Sib	1409	1.100000023841858	28.0855
1410	Sib	1	Sil	Sib	1410	1.100000023841858	28.0855
1411	Sib	1	Sil	Sib	1411	1.100000023841858	28.0855
1412	Sib	1	Sil	Sib	1412	1.100000023841858	28.0855
1413	Sib	1	Sil	Sib	1413	1.100000023841858	28.0855
1414	Sib	1	Sil	Sib	1414	1.100000023841858	28.0855
1415	Sib	1	Sil	Sib	1415	1.100000023841858	28.0855
1416	Sib	1	Sil	Sib	1416	1.100000023841858	28.0855
1417	Sib	1	Sil	Sib	1417	1.100000023841858	28.0855
1418	Sib	1	Sil	Sib	1418	1.100000023841858	28.0855
1419	Sim	1	Sil	Sim	1419	0.9110000133514404	28.0855
1420	Sib	1	Sil	Sib	1420	1.100000023841858	28.0855
1421	Sib	1	Sil	Sib	1421	1.100000023841858	28.0855
1422	Sib	1	Sil	Sib	1422	1.100000023841858	28.0855
1423	Sim	1	Sil	Sim	1423	0.9110000133514404	28.0855
1424	Sib	1	Sil	Sib	1424	1.100000023841858	28.0855
1425	Sim	1	Sil	Sim	1425	0.9110000133514404	28.0855
1426	Sib	1	Sil	Sib	1426	1.100000023841858	28.0855
1427	Sib	1	Sil	Sib	1427	1.100000023841858	28.0855
1428	Sib	1	Sil	Sib	1428	1.100000023841858	28.0855
1429	Sib	1	Sil	Sib	1429	1.100000023841858	28.0855
1430	Sib	1	Sil	Sib	1430	1.100000023841858	28.0855
1431	Sib	1	Sil	Sib	1431	1.100000023841858	28.0855
1432	Sib	1	Sil	Sib	1432	1.100000023841858	28.0855
1433	Sib	1	Sil	Sib	1433	1.100000023841858	28.0855
1434	Sib	1	Sil	Sib	1434	1.100000023841858	28.0855
1435	Sib	1	Sil	Sib	1435	1.100000023841858	28.0855
1436	Sib	1	Sil	Sib	1436	1.100000023841858	28.0855
1437	Sib	1	Sil	Sib	1437	1.100000023841858	28.0855
1438	Sib	1	Sil	Sib	1438	1.100000023841858	28.0855
1439	Sib	1	Sil	Sib	1439	1.100000023841858	28.0855
1440	Sib	1	Sil	Sib	1440	1.100000023841858	28.0855
1441	Sib	1	Sil	Sib	1441	1.100000023841858	28.0855
1442	Sib	1	Sil	Sib	1442	1.100000023841858	28.0855
1443	Sib	1	Sil	Sib	1443	1.100000023841858	28.0855
1444	Sib	1	Sil	Sib	1444	1.100000023841858	28.0855
1445	Sib	1	Sil	Sib	1445	1.100000023841858	28.0855
1446	Sib	1	Sil	Sib	1446	1.100000023841858	28.0855
1447	Sim	1	Sil	Sim	1447	0.9110000133514404	28.0855
1448	Sib	1	Sil	Sib	1448	1.100000023841858	28.0855
1449	Sim	1	Sil	Sim	1449	0.9110000133514404	28.0855
1450	Sib	1	Sil	Sib	1450	1.100000023841858	28.0855
1451	Sib	1	Sil	Sib	1451	1.100000023841858	28.0855
1452	Sib	1	Sil	Sib	1452	1.100000023841858	28.0855
1453	Sib	1	Sil	Sib	1453	1.100000023841858	28.0855
1454	Sim	1	Sil	Sim	1454	0.9110000133514404	28.0855
1455	Sib	1	Sil	Sib	1455	1.100000023841858	28.0855
1456	Sib	1	Sil	Sib	1456	1.100000023841858	28.0855
1457	Sib	1	Sil	Sib	1457	1.100000023841858	28.0855
1458	Sib	1	Sil	Sib	1458	1.100000023841858	28.0855
1459	Sib	1	Sil	Sib	1459	1.100000023841858	28.0855
1460	Sib	1	Sil	Sib	1460	1.100000023841858	28.0855
1461	Sib	1	Sil	Sib	1461	1.100000023841858	28.0855
1462	Sib	1	Sil	Sib	1462	1.100000023841858	28.0855
1463	Sib	1	Sil	Sib	1463	1.100000023841858	28.0855
1464	Sib	1	Sil	Sib	1464	1.100000023841858	28.0855
1465	Sib	1	Sil	Sib	1465	1.100000023841858	28.0855
1466	Sib	1	Sil	Sib	1466	1.100000023841858	28.0855
1467	Sim	1	Sil	Sim	1467	0.9110000133514404	28.0855
1468	Sib	1	Sil	Sib	1468	1.100000023841858	28.0855
1469	Sib	1	Sil	Sib	1469	1.100000023841858	28.0855
1470	Sib	1	Sil	Sib	1470	1.100000023841858	28.0855
1471	Sim	1	Sil	Sim	1471	0.9110000133514404	28.0855
1472	Sib	1	Sil	Sib	1472	1.100000023841858	28.0855
1473	Sim	1	Sil	Sim	1473	0.9110000133514404	28.0855
1474	Sib	1	Sil	Sib	1474	1.100000023841858	28.0855
1475	Sib	1	Sil	Sib	1475	1.100000023841858	28.0855
1476	Sib	1	Sil	Sib	1476	1.100000023841858	28.0855
1477	Sib	1	Sil	Sib	1477	1.100000023841858	28.0855
1478	Sib	1	Sil	Sib	1478	1.100000023841858	28.0855
1479	Sib	1	Sil	Sib	1479	1.100000023841858	28.0855
1480	Sib	1	Sil	Sib	1480	1.100000023841858	28.0855
1481	Sib	1	Sil	Sib	1481	1.100000023841858	28.0855
1482	Sib	1	Sil	Sib	1482	1.100000023841858	28.0855
1483	Sib	1	Sil	Sib	1483	1.100000023841858	28.0855
1484	Sib	1	Sil	Sib	1484	1.100000023841858	28.0855
1485	Sib	1	Sil	Sib	1485	1.100000023841858	28.0855
1486	Sib	1	Sil	Sib	1486	1.100000023841858	28.0855
1487	Sib	1	Sil	Sib	1487	1.100000023841858	28.0855
1488	Sib	1	Sil	Sib	1488	1.100000023841858	28.0855
1489	Sib	1	Sil	Sib	1489	1.100000023841858	28.0855
1490	Sib	1	Sil	Sib	1490	1.100000023841858	28.0855
1491	Sim	1	Sil	Sim	1491	0.9110000133514404	28.0855
1492	Sib	1	Sil	Sib	1492	1.100000023841858	28.0855
1493	Sib	1	Sil	Sib	1493	1.100000023841858	28.0855
1494	Sib	1	Sil	Sib	1494	1.100000023841858	28.0855
1495	Sim	1	Sil	Sim	1495	0.9110000133514404	28.0855
1496	Sib	1	Sil	Sib	1496	1.100000023841858	28.0855
1497	Sim	1	Sil	Sim	1497	0.9110000133514404	28.0855
1498	Sib	1	Sil	Sib	1498	1.100000023841858	28.0855
1499	Sib	1	Sil	Sib	1499	1.100000023841858	28.0855
1500	Sib	1	Sil	Sib	1500	1.100000023841858	28.0855
1501	Sib	1	Sil	Sib	1501	1.100000023841858	28.0855
1502	Sim	1	Sil	Sim	1502	0.9110000133514404	28.0855
1503	Sib	1	Sil	Sib	1503	1.100000023841858	28.0855
1504	Sib	1	Sil	Sib	1504	1.100000023841858	28.0855
1505	Sib	1	Sil	Sib	1505	1.100000023841858	28.0855
1506	Sib	1	Sil	Sib	1506	1.100000023841858	28.0855
1507	Sib	1	Sil	Sib	1507	1.100000023841858	28.0855
1508	Sib	1	Sil	Sib	1508	1.100000023841858	28.0855
1509	Sib	1	Sil	Sib	1509	1.100000023841858	28.0855
1510	Sib	1	Sil	Sib	1510	1.100000023841858	28.0855
1511	Sib	1	Sil	Sib	1511	1.100000023841858	28.0855
1512	Sib	1	Sil	Sib	1512	1.100000023841858	28.0855
1513	Sib	1	Sil	Sib	1513	1.100000023841858	28.0855
1514	Sib	1	Sil	Sib	1514	1.100000023841858	28.0855
1515	Sim	1	Sil	Sim	1515	0.9110000133514404	28.0855
1516	Sib	1	Sil	Sib	1516	1.100000023841858	28.0855
1517	Sib	1	Sil	Sib	1517	1.100000023841858	28.0855
1518	Sib	1	Sil	Sib	1518	1.100000023841858	28.0855
1519	Sib	1	Sil	Sib	1519	1.100000023841858	28.0855
1520	Sib	1	Sil	Sib	1520	1.100000023841858	28.0855
1521	Sim	1	Sil	Sim	1521	0.9110000133514404	28.0855
1522	Sib	1	Sil	Sib	1522	1.100000023841858	28.0855
1523	Sib	1	Sil	Sib	1523	1.100000023841858	28.0855
1524	Sib	1	Sil	Sib	1524	1.100000023841858	28.0855
1525	Sib	1	Sil	Sib	1525	1.100000023841858	28.0855
1526	Sim	1	Sil	Sim	1526	0.9110000133514404	28.0855
1527	Sib	1	Sil	Sib	1527	1.100000023841858	28.0855
1528	Sib	1	Sil	Sib	1528	1.100000023841858	28.0855
1529	Sib	1	Sil	Sib	1529	1.100000023841858	28.0855
1530	Sib	1	Sil	Sib	1530	1.100000023841858	28.0855
1531	Sib	1	Sil	Sib	1531	1.100000023841858	28.0855
1532	Sib	1	Sil	Sib	1532	1.100000023841858	28.0855
1533	Sib	1	Sil	Sib	1533	1.100000023841858	28.0855
1534	Sib	1	Sil	Sib	1534	1.100000023841858	28.0855
1535	Sib	1	Sil	Sib	1535	1.100000023841858	28.0855
1536	Sib	1	Sil	Sib	1536	1.100000023841858	28.0855
1537	Sib	1	Sil	Sib	1537	1.100000023841858	28.0855
1538	Sib	1	Sil	Sib	1538	1.100000023841858	28.0855
1539	Sib	1	Sil	Sib	1539	1.100000023841858	28.0855
1540	Sib	1	Sil	Sib	1540	1.100000023841858	28.0855
1541	Sib	1	Sil	Sib	1541	1.100000023841858	28.0855
1542	Sib	1	Sil	Sib	1542	1.100000023841858	28.0855
1543	Sim	1	Sil	Sim	1543	0.9110000133514404	28.0855
1544	Sib	1	Sil	Sib	1544	1.100000023841858	28.0855
1545	Sim	1	Sil	Sim	1545	0.9110000133514404	28.0855
1546	Sib	1	Sil	Sib	1546	1.100000023841858	28.0855
1547	Sib	1	Sil	Sib	1547	1.100000023841858	28.0855
1548	Sib	1	Sil	Sib	1548	1.100000023841858	28.0855
1549	Sib	1	Sil	Sib	1549	1.100000023841858	28.0855
1550	Sib	1	Sil	Sib	1550	1.100000023841858	28.0855
1551	Sib	1	Sil	Sib	1551	1.100000023841858	28.0855
1552	Sib	1	Sil	Sib	1552	1.100000023841858	28.0855
1553	Sib	1	Sil	Sib	1553	1.100000023841858	28.0855
1554	Sib	1	Sil	Sib	1554	1.100000023841858	28.0855
1555	Sib	1	Sil	Sib	1555	1.100000023841858	28.0855
1556	Sib	1	Sil	Sib	1556	1.100000023841858	28.0855
1557	Sib	1	Sil	Sib	1557	1.100000023841858	28.0855
1558	Sib	1	Sil	Sib	1558	1.100000023841858	28.0855
1559	Sib	1	Sil	Sib	1559	1.100000023841858	28.0855
1560	Sib	1	Sil	Sib	1560	1.100000023841858	28.0855
1561	Sib	1	Sil	Sib	1561	1.100000023841858	28.0855
1562	Sib	1	Sil	Sib	1562	1.100000023841858	28.0855
1563	Sib	1	Sil	Sib	1563	1.100000023841858	28.0855
1564	Sib	1	Sil	Sib	1564	1.100000023841858	28.0855
1565	Sib	1	Sil	Sib	1565	1.100000023841858	28.0855
1566	Sib	1	Sil	Sib	1566	1.100000023841858	28.0855
1567	Sib	1	Sil	Sib	1567	1.100000023841858	28.0855
1568	Sib	1	Sil	Sib	1568	1.100000023841858	28.0855
1569	Sim	1	Sil	Sim	1569	0.9110000133514404	28.0855
1570	Sib	1	Sil	Sib	1570	1.100000023841858	28.0855
1571	Sib	1	Sil	Sib	1571	1.100000023841858	28.0855
1572	Sib	1	Sil	Sib	1572	1.100000023841858	28.0855
1573	Sib	1	Sil	Sib	1573	1.100000023841858	28.0855
1574	Sim	1	Sil	Sim	1574	0.9110000133514404	28.0855
1575	Sib	1	Sil	Sib	1575	1.100000023841858	28.0855
1576	Sib	1	Sil	Sib	1576	1.100000023841858	28.0855
1577	Sib	1	Sil	Sib	1577	1.100000023841858	28.0855
1578	Sib	1	Sil	Sib	1578	1.100000023841858	28.0855
1579	Sib	1	Sil	Sib	1579	1.100000023841858	28.0855
1580	Sib	1	Sil	Sib	1580	1.100000023841858	28.0855
1581	Sib	1	Sil	Sib	1581	1.100000023841858	28.0855
1582	Sib	1	Sil	Sib	1582	1.100000023841858	28.0855
1583	Sib	1	Sil	Sib	1583	1.100000023841858	28.0855
1584	Sib	1	Sil	Sib	1584	1.100000023841858	28.0855
1585	Sib	1	Sil	Sib	1585	1.100000023841858	28.0855
1586	Sib	1	Sil	Sib	1586	1.100000023841858	28.0855
1587	Sim	1	Sil	Sim	1587	0.9110000133514404	28.0855
1588	Sib	1	Sil	Sib	1588	1.100000023841858	28.0855
1589	Sib	1	Sil	Sib	1589	1.100000023841858	28.0855
1590	Sib	1	Sil	Sib	1590	1.100000023841858	28.0855
1591	Sim	1	Sil	Sim	1591	0.9110000133514404	28.0855
1592	Sib	1	Sil	Sib	1592	1.100000023841858	28.0855
1593	Sim	1	Sil	Sim	1593	0.9110000133514404	28.0855
1594	Sib	1	Sil	Sib	1594	1.100000023841858	28.0855
1595	Sib	1	Sil	Sib	1595	1.100000023841858	28.0855
1596	Sib	1	Sil	Sib	1596	1.100000023841858	28.0855
1597	Sib	1	Sil	Sib	1597	1.100000023841858	28.0855
1598	Sib	1	Sil	Sib	1598	1.100000023841858	28.0855
1599	Sib	1	Sil	Sib	1599	1.100000023841858	28.0855
1600	Sib	1	Sil	Sib	1600	1.100000023841858	28.0855
1601	Sib	1	Sil	Sib	1601	1.100000023841858	28.0855
1602	Sib	1	Sil	Sib	1602	1.100000023841858	28.0855
1603	Sib	1	Sil	Sib	1603	1.100000023841858	28.0855
1604	Sib	1	Sil	Sib	1604	1.100000023841858	28.0855
1605	Sib	1	Sil	Sib	1605	1.100000023841858	28.0855
1606	Sib	1	Sil	Sib	1606	1.100000023841858	28.0855
1607	Sib	1	Sil	Sib	1607	1.100000023841858	28.0855
1608	Sib	1	Sil	Sib	1608	1.100000023841858	28.0855
1609	Sib	1	Sil	Sib	1609	1.100000023841858	28.0855
1610	Sib	1	Sil	Sib	1610	1.100000023841858	28.0855
1611	Sim	1	Sil	Sim	1611	0.9110000133514404	28.0855
1612	Sib	1	Sil	Sib	1612	1.100000023841858	28.0855
1613	Sib	1	Sil	Sib	1613	1.100000023841858	28.0855
1614	Sib	1	Sil	Sib	1614	1.100000023841858	28.0855
1615	Sim	1	Sil	Sim	1615	0.9110000133514404	28.0855
1616	Sib	1	Sil	Sib	1616	1.100000023841858	28.0855
1617	Sib	1	Sil	Sib	1617	1.100000023841858	28.0855
1618	Sib	1	Sil	Sib	1618	1.100000023841858	28.0855
1619	Sib	1	Sil	Sib	1619	1.100000023841858	28.0855
1620	Sib	1	Sil	Sib	1620	1.100000023841858	28.0855
1621	Sib	1	Sil	Sib	1621	1.100000023841858	28.0855
1622	Sim	1	Sil	Sim	1622	0.9110000133514404	28.0855
1623	Sib	1	Sil	Sib	1623	1.100000023841858	28.0855
1624	Sib	1	Sil	Sib	1624	1.100000023841858	28.0855
1625	Sib	1	Sil	Sib	1625	1.100000023841858	28.0855
1626	Sib	1	Sil	Sib	1626	1.100000023841858	28.0855
1627	Sib	1	Sil	Sib	1627	1.100000023841858	28.0855
1628	Sib	1	Sil	Sib	1628	1.100000023841858	28.0855
1629	Sib	1	Sil	Sib	1629	1.100000023841858	28.0855
1630	Sib	1	Sil	Sib	1630	1.100000023841858	28.0855
1631	Sib	1	Sil	Sib	1631	1.100000023841858	28.0855
1632	Sib	1	Sil	Sib	1632	1.100000023841858	28.0855
1633	Sib	1	Sil	Sib	1633	1.100000023841858	28.0855
1634	Sib	1	Sil	Sib	1634	1.100000023841858	28.0855
1635	Sib	1	Sil	Sib	1635	1.100000023841858	28.0855
1636	Sib	1	Sil	Sib	1636	1.100000023841858	28.0855
1637	Sib	1	Sil	Sib	1637	1.100000023841858	28.0855
1638	Sib	1	Sil	Sib	1638	1.100000023841858	28.0855
1639	Sim	1	Sil	Sim	1639	0.9110000133514404	28.0855
1640	Sib	1	Sil	Sib	1640	1.100000023841858	28.0855
1641	Sim	1	Sil	Sim	1641	0.9110000133514404	28.0855
1642	Sib	1	Sil	Sib	1642	1.100000023841858	28.0855
1643	Sib	1	Sil	Sib	1643	1.100000023841858	28.0855
1644	Sib	1	Sil	Sib	1644	1.100000023841858	28.0855
1645	Sib	1	Sil	Sib	1645	1.100000023841858	28.0855
1646	Sib	1	Sil	Sib	1646	1.100000023841858	28.0855
1647	Sib	1	Sil	Sib	1647	1.100000023841858	28.0855
1648	Sib	1	Sil	Sib	1648	1.100000023841858	28.0855
1649	Sib	1	Sil	Sib	1649	1.100000023841858	28.0855
1650	Sib	1	Sil	Sib	1650	1.100000023841858	28.0855
1651	Sib	1	Sil	Sib	1651	1.100000023841858	28.0855
1652	Sib	1	Sil	Sib	1652	1.100000023841858	28.0855
1653	Sib	1	Sil	Sib	1653	1.100000023841858	28.0855
1654	Sib	1	Sil	Sib	1654	1.100000023841858	28.0855
1655	Sib	1	Sil	Sib	1655	1.100000023841858	28.0855
1656	Sib	1	Sil	Sib	1656	1.100000023841858	28.0855
1657	Sib	1	Sil	Sib	1657	1.100000023841858	28.0855
1658	Sib	1	Sil	Sib	1658	1.100000023841858	28.0855
1659	Sib	1	Sil	Sib	1659	1.100000023841858	28.0855
1660	Sib	1	Sil	Sib	1660	1.100000023841858	28.0855
1661	Sib	1	Sil	Sib	1661	1.100000023841858	28.0855
1662	Sib	1	Sil	Sib	1662	1.100000023841858	28.0855
1663	Sim	1	Sil	Sim	1663	0.9110000133514404	28.0855
1664	Sib	1	Sil	Sib	1664	1.100000023841858	28.0855
1665	Sib	1	Sil	Sib	1665	1.100000023841858	28.0855
1666	Sib	1	Sil	Sib	1666	1.100000023841858	28.0855
1667	Sib	1	Sil	Sib	1667	1.100000023841858	28.0855
1668	Sib	1	Sil	Sib	1668	1.100000023841858	28.0855
1669	Sib	1	Sil	Sib	1669	1.100000023841858	28.0855
1670	Sim	1	Sil	Sim	1670	0.9110000133514404	28.0855
1671	Sib	1	Sil	Sib	1671	1.100000023841858	28.0855
1672	Sib	1	Sil	Sib	1672	1.100000023841858	28.0855
1673	Sib	1	Sil	Sib	1673	1.100000023841858	28.0855
1674	Sib	1	Sil	Sib	1674	1.100000023841858	28.0855
1675	Sib	1	Sil	Sib	1675	1.100000023841858	28.0855
1676	Sib	1	Sil	Sib	1676	1.100000023841858	28.0855
1677	Sib	1	Sil	Sib	1677	1.100000023841858	28.0855
1678	Sib	1	Sil	Sib	1678	1.100000023841858	28.0855
1679	Sib	1	Sil	Sib	1679	1.100000023841858	28.0855
1680	Sib	1	Sil	Sib	1680	1.100000023841858	28.0855
1681	Sib	1	Sil	Sib	1681	1.100000023841858	28.0855
1682	Sib	1	Sil	Sib	1682	1.100000023841858	28.0855
1683	Sim	1	Sil	Sim	1683	0.9110000133514404	28.0855
1684	Sib	1	Sil	Sib	1684	1.100000023841858	28.0855
1685	Sib	1	Sil	Sib	1685	1.100000023841858	28.0855
1686	Sib	1	Sil	Sib	1686	1.100000023841858	28.0855
1687	Sib	1	Sil	Sib	1687	1.100000023841858	28.0855
1688	Sib	1	Sil	Sib	1688	1.100000023841858	28.0855
1689	Sim	1	Sil	Sim	1689	0.9110000133514404	28.0855
1690	Sib	1	Sil	Sib	1690	1.100000023841858	28.0855
1691	Sib	1	Sil	Sib	1691	1.100000023841858	28.0855
1692	Sib	1	Sil	Sib	1692	1.100000023841858	28.0855
1693	Sib	1	Sil	Sib	1693	1.100000023841858	28.0855
1694	Sib	1	Sil	Sib	1694	1.100000023841858	28.0855
1695	Sib	1	Sil	Sib	1695	1.100000023841858	28.0855
1696	Sib	1	Sil	Sib	1696	1.100000023841858	28.0855
1697	Sib	1	Sil	Sib	1697	1.100000023841858	28.0855
1698	Sib	1	Sil	Sib	1698	1.100000023841858	28.0855
1699	Sib	1	Sil	Sib	1699	1.100000023841858	28.0855
1700	Sib	1	Sil	Sib	1700	1.100000023841858	28.0855
1701	Sib	1	Sil	Sib	1701	1.100000023841858	28.0855
1702	Sib	1	Sil	Sib	1702	1.100000023841858	28.0855
1703	Sib	1	Sil	Sib	1703	1.100000023841858	28.0855
1704	Sib	1	Sil	Sib	1704	1.100000023841858	28.0855
1705	Sib	1	Sil	Sib	1705	1.100000023841858	28.0855
1706	Sib	1	Sil	Sib	1706	1.100000023841858	28.0855
1707	Sim	1	Sil	Sim	1707	0.9110000133514404	28.0855
1708	Sib	1	Sil	Sib	1708	1.100000023841858	28.0855
1709	Sib	1	Sil	Sib	1709	1.100000023841858	28.0855
1710	Sib	1	Sil	Sib	1710	1.100000023841858	28.0855
1711	Sib	1	Sil	Sib	1711	1.100000023841858	28.0855
1712	Sib	1	Sil	Sib	1712	1.100000023841858	28.0855
1713	Sim	1	Sil	Sim	1713	0.9110000133514404	28.0855
1714	Sib	1	Sil	Sib	1714	1.100000023841858	28.0855
1715	Sib	1	Sil	Sib	1715	1.100000023841858	28.0855
1716	Sib	1	Sil	Sib	1716	1.100000023841858	28.0855
1717	Sib	1	Sil	Sib	1717	1.100000023841858	28.0855
1718	Sib	1	Sil	Sib	1718	1.100000023841858	28.0855
1719	Sib	1	Sil	Sib	1719	1.100000023841858	28.0855
1720	Sib	1	Sil	Sib	1720	1.100000023841858	28.0855
1721	Sib	1	Sil	Sib	1721	1.100000023841858	28.0855
1722	Sib	1	Sil	Sib	1722	1.100000023841858	28.0855
1723	Sib	1	Sil	Sib	1723	1.100000023841858	28.0855
1724	Sib	1	Sil	Sib	1724	1.100000023841858	28.0855
1725	Sib	1	Sil	Sib	1725	1.100000023841858	28.0855
1726	Sib	1	Sil	Sib	1726	1.100000023841858	28.0855
1727	Sib	1	Sil	Sib	1727	1.100000023841858	28.0855
1728	Sib	1	Sil	Sib	1728	1.100000023841858	28.0855
1729	Sib	1	Sil	Sib	1729	1.100000023841858	28.0855
1730	Sib	1	Sil	Sib	1730	1.100000023841858	28.0855
1731	Sim	1	Sil	Sim	1731	0.9110000133514404	28.0855
1732	Sib	1	Sil	Sib	1732	1.100000023841858	28.0855
1733	Sib	1	Sil	Sib	1733	1.100000023841858	28.0855
1734	Sib	1	Sil	Sib	1734	1.100000023841858	28.0855
1735	Sim	1	Sil	Sim	1735	0.9110000133514404	28.0855
1736	Sib	1	Sil	Sib	1736	1.100000023841858	28.0855
1737	Sim	1	Sil	Sim	1737	0.9110000133514404	28.0855
1738	Sib	1	Sil	Sib	1738	1.100000023841858	28.0855
1739	Sib	1	Sil	Sib	1739	1.100000023841858	28.0855
1740	Sib	1	Sil	Sib	1740	1.100000023841858	28.0855
1741	Sib	1	Sil	Sib	1741	1.100000023841858	28.0855
1742	Sim	1	Sil	Sim	1742	0.9110000133514404	28.0855
1743	Sib	1	Sil	Sib	1743	1.100000023841858	28.0855
1744	Sib	1	Sil	Sib	1744	1.100000023841858	28.0855
1745	Sib	1	Sil	Sib	1745	1.100000023841858	28.0855
1746	Sib	1	Sil	Sib	1746	1.100000023841858	28.0855
1747	Sib	1	Sil	Sib	1747	1.100000023841858	28.0855
1748	Sib	1	Sil	Sib	1748	1.100000023841858	28.0855
1749	Sib	1	Sil	Sib	1749	1.100000023841858	28.0855
1750	Sib	1	Sil	Sib	1750	1.100000023841858	28.0855
1751	Sib	1	Sil	Sib	1751	1.100000023841858	28.0855
1752	Sib	1	Sil	Sib	1752	1.100000023841858	28.0855
1753	Sib	1	Sil	Sib	1753	1.100000023841858	28.0855
1754	Sib	1	Sil	Sib	1754	1.100000023841858	28.0855
1755	Sib	1	Sil	Sib	1755	1.100000023841858	28.0855
1756	Sib	1	Sil	Sib	1756	1.100000023841858	28.0855
1757	Sib	1	Sil	Sib	1757	1.100000023841858	28.0855
1758	Sib	1	Sil	Sib	1758	1.100000023841858	28.0855
1759	Sim	1	Sil	Sim	1759	0.9110000133514404	28.0855
1760	Sib	1	Sil	Sib	1760	1.100000023841858	28.0855
1761	Sim	1	Sil	Sim	1761	0.9110000133514404	28.0855
1762	Sib	1	Sil	Sib	1762	1.100000023841858	28.0855
1763	Sib	1	Sil	Sib	1763	1.100000023841858	28.0855
1764	Sib	1	Sil	Sib	1764	1.100000023841858	28.0855
1765	Sib	1	Sil	Sib	1765	1.100000023841858	28.0855
1766	Sim	1	Sil	Sim	1766	0.9110000133514404	28.0855
1767	Sib	1	Sil	Sib	1767	1.100000023841858	28.0855
1768	Sib	1	Sil	Sib	1768	1.100000023841858	28.0855
1769	Sib	1	Sil	Sib	1769	1.100000023841858	28.0855
1770	Sib	1	Sil	Sib	1770	1.100000023841858	28.0855
1771	Sib	1	Sil	Sib	1771	1.100000023841858	28.0855
1772	Sib	1	Sil	Sib	1772	1.100000023841858	28.0855
1773	Sib	1	Sil	Sib	1773	1.100000023841858	28.0855
1774	Sib	1	Sil	Sib	1774	1.100000023841858	28.0855
1775	Sib	1	Sil	Sib	1775	1.100000023841858	28.0855
1776	Sib	1	Sil	Sib	1776	1.100000023841858	28.0855
1777	Sib	1	Sil	Sib	1777	1.100000023841858	28.0855
1778	Sib	1	Sil	Sib	1778	1.100000023841858	28.0855
1779	Sib	1	Sil	Sib	1779	1.100000023841858	28.0855
1780	Sib	1	Sil	Sib	1780	1.100000023841858	28.0855
1781	Sib	1	Sil	Sib	1781	1.100000023841858	28.0855
1782	Sib	1	Sil	Sib	1782	1.100000023841858	28.0855
1783	Sib	1	Sil	Sib	1783	1.100000023841858	28.0855
1784	Sib	1	Sil	Sib	1784	1.100000023841858	28.0855
1785	Sim	1	Sil	Sim	1785	0.9110000133514404	28.0855
1786	Sib	1	Sil	Sib	1786	1.100000023841858	28.0855
1787	Sib	1	Sil	Sib	1787	1.100000023841858	28.0855
1788	Sib	1	Sil	Sib	1788	1.100000023841858	28.0855
1789	Sib	1	Sil	Sib	1789	1.100000023841858	28.0855
1790	Sim	1	Sil	Sim	1790	0.9110000133514404	28.0855
1791	Sib	1	Sil	Sib	1791	1.100000023841858	28.0855
1792	Sib	1	Sil	Sib	1792	1.100000023841858	28.0855
1793	Sib	1	Sil	Sib	1793	1.100000023841858	28.0855
1794	Sib	1	Sil	Sib	1794	1.100000023841858	28.0855
1795	Sib	1	Sil	Sib	1795	1.100000023841858	28.0855
1796	Sib	1	Sil	Sib	1796	1.100000023841858	28.0855
1797	Sib	1	Sil	Sib	1797	1.100000023841858	28.0855
1798	Sib	1	Sil	Sib	1798	1.100000023841858	28.0855
1799	Sib	1	Sil	Sib	1799	1.100000023841858	28.0855
1800	Sib	1	Sil	Sib	1800	1.100000023841858	28.0855
1801	Sib	1	Sil	Sib	1801	1.100000023841858	28.0855
1802	Sib	1	Sil	Sib	1802	1.100000023841858	28.0855
1803	Sim	1	Sil	Sim	1803	0.9110000133514404	28.0855
1804	Sib	1	Sil	Sib	1804	1.100000023841858	28.0855
1805	Sib	1	Sil	Sib	1805	1.100000023841858	28.0855
1806	Sib	1	Sil	Sib	1806	1.100000023841858	28.0855
1807	Sib	1	Sil	Sib	1807	1.100000023841858	28.0855
1808	Sib	1	Sil	Sib	1808	1.100000023841858	28.0855
1809	Sim	1	Sil	Sim	1809	0.9110000133514404	28.0855
1810	Sib	1	Sil	Sib	1810	1.100000023841858	28.0855
1811	Sib	1	Sil	Sib	1811	1.100000023841858	28.0855
1812	Sib	1	Sil	Sib	1812	1.100000023841858	28.0855
1813	Sib	1	Sil	Sib	1813	1.100000023841858	28.0855
1814	Sib	1	Sil	Sib	1814	1.100000023841858	28.0855
1815	Sib	1	Sil	Sib	1815	1.100000023841858	28.0855
1816	Sib	1	Sil	Sib	1816	1.100000023841858	28.0855
1817	Sib	1	Sil	Sib	1817	1.100000023841858	28.0855
1818	Sib	1	Sil	Sib	1818	1.100000023841858	28.0855
1819	Sib	1	Sil	Sib	1819	1.100000023841858	28.0855
1820	Sib	1	Sil	Sib	1820	1.100000023841858	28.0855
1821	Sib	1	Sil	Sib	1821	1.100000023841858	28.0855
1822	Sib	1	Sil	Sib	1822	1.100000023841858	28.0855
1823	Sib	1	Sil	Sib	1823	1.100000023841858	28.0855
1824	Sib	1	Sil	Sib	1824	1.100000023841858	28.0855
1825	Sib	1	Sil	Sib	1825	1.100000023841858	28.0855
1826	Sib	1	Sil	Sib	1826	1.100000023841858	28.0855
1827	Sim	1	Sil	Sim	1827	0.9110000133514404	28.0855
1828	Sib	1	Sil	Sib	1828	1.100000023841858	28.0855
1829	Sib	1	Sil	Sib	1829	1.100000023841858	28.0855
1830	Sib	1	Sil	Sib	1830	1.100000023841858	28.0855
1831	Sim	1	Sil	Sim	1831	0.9110000133514404	28.0855
1832	Sib	1	Sil	Sib	1832	1.100000023841858	28.0855
1833	Sib	1	Sil	Sib	1833	1.100000023841858	28.0855
1834	Sib	1	Sil	Sib	1834	1.100000023841858	28.0855
1835	Sib	1	Sil	Sib	1835	1.100000023841858	28.0855
1836	Sib	1	Sil	Sib	1836	1.100000023841858	28.0855
1837	Sib	1	Sil	Sib	1837	1.100000023841858	28.0855
1838	Sim	1	Sil	Sim	1838	0.9110000133514404	28.0855
1839	Sib	1	Sil	Sib	1839	1.100000023841858	28.0855
1840	Sib	1	Sil	Sib	1840	1.100000023841858	28.0855
1841	Sib	1	Sil	Sib	1841	1.100000023841858	28.0855
1842	Sib	1	Sil	Sib	1842	1.100000023841858	28.0855
1843	Sib	1	Sil	Sib	1843	1.100000023841858	28.0855
1844	Sib	1	Sil	Sib	1844	1.100000023841858	28.0855
1845	Sib	1	Sil	Sib	1845	1.100000023841858	28.0855
1846	Sib	1	Sil	Sib	1846	1.100000023841858	28.0855
1847	Sib	1	Sil	Sib	1847	1.100000023841858	28.0855
1848	Sib	1	Sil	Sib	1848	1.100000023841858	28.0855
1849	Sib	1	Sil	Sib	1849	1.100000023841858	28.0855
1850	Sib	1	Sil	Sib	1850	1.100000023841858	28.0855
1851	Sim	1	Sil	Sim	1851	0.9110000133514404	28.0855
1852	Sib	1	Sil	Sib	1852	1.100000023841858	28.0855
1853	Sib	1	Sil	Sib	1853	1.100000023841858	28.0855
1854	Sib	1	Sil	Sib	1854	1.100000023841858	28.0855
1855	Sim	1	Sil	Sim	1855	0.9110000133514404	28.0855
1856	Sib	1	Sil	Sib	1856	1.100000023841858	28.0855
1857	Sib	1	Sil	Sib	1857	1.100000023841858	28.0855
1858	Sib	1	Sil	Sib	1858	1.100000023841858	28.0855
1859	Sib	1	Sil	Sib	1859	1.100000023841858	28.0855
1860	Sib	1	Sil	Sib	1860	1.100000023841858	28.0855
1861	Sib	1	Sil	Sib	1861	1.100000023841858	28.0855
1862	Sim	1	Sil	Sim	1862	0.9110000133514404	28.0855
1863	Sib	1	Sil	Sib	1863	1.100000023841858	28.0855
1864	Sib	1	Sil	Sib	1864	1.100000023841858	28.0855
1865	Sib	1	Sil	Sib	1865	1.100000023841858	28.0855
1866	Sib	1	Sil	Sib	1866	1.100000023841858	28.0855
1867	Sib	1	Sil	Sib	1867	1.100000023841858	28.0855
1868	Sib	1	Sil	Sib	1868	1.100000023841858	28.0855
1869	Sib	1	Sil	Sib	1869	1.100000023841858	28.0855
1870	Sib	1	Sil	Sib	1870	1.100000023841858	28.0855
1871	Sib	1	Sil	Sib	1871	1.100000023841858	28.0855
1872	Sib	1	Sil	Sib	1872	1.100000023841858	28.0855
1873	Sib	1	Sil	Sib	1873	1.100000023841858	28.0855
1874	Sib	1	Sil	Sib	1874	1.100000023841858	28.0855
1875	Sim	1	Sil	Sim	1875	0.9110000133514404	28.0855
1876	Sib	1	Sil	Sib	1876	1.100000023841858	28.0855
1877	Sib	1	Sil	Sib	1877	1.100000023841858	28.0855
1878	Sib	1	Sil	Sib	1878	1.100000023841858	28.0855
1879	Sib	1	Sil	Sib	1879	1.100000023841858	28.0855
1880	Sib	1	Sil	Sib	1880	1.100000023841858	28.0855
1881	Sim	1	Sil	Sim	1881	0.9110000133514404	28.0855
1882	Sib	1	Sil	Sib	1882	1.100000023841858	28.0855
1883	Sib	1	Sil	Sib	1883	1.100000023841858	28.0855
1884	Sib	1	Sil	Sib	1884	1.100000023841858	28.0855
1885	Sib	1	Sil	Sib	1885	1.100000023841858	28.0855
1886	Sim	1	Sil	Sim	1886	0.9110000133514404	28.0855
1887	Sib	1	Sil	Sib	1887	1.100000023841858	28.0855
1888	Sib	1	Sil	Sib	1888	1.100000023841858	28.0855
1889	Sib	1	Sil	Sib	1889	1.100000023841858	28.0855
1890	Sib	1	Sil	Sib	1890	1.100000023841858	28.0855
1891	Sib	1	Sil	Sib	1891	1.100000023841858	28.0855
1892	Sib	1	Sil	Sib	1892	1.100000023841858	28.0855
1893	Sib	1	Sil	Sib	1893	1.100000023841858	28.0855
1894	Sib	1	Sil	Sib	1894	1.100000023841858	28.0855
1895	Sib	1	Sil	Sib	1895	1.100000023841858	28.0855
1896	Sib	1	Sil	Sib	1896	1.100000023841858	28.0855
1897	Sib	1	Sil	Sib	1897	1.100000023841858	28.0855
1898	Sib	1	Sil	Sib	1898	1.100000023841858	28.0855
1899	Sib	1	Sil	Sib	1899	1.100000023841858	28.0855
1900	Sib	1	Sil	Sib	1900	1.100000023841858	28.0855
1901	Sib	1	Sil	Sib	1901	1.100000023841858	28.0855
1902	Sib	1	Sil	Sib	1902	1.100000023841858	28.0855
1903	Sim	1	Sil	Sim	1903	0.9110000133514404	28.0855
1904	Sib	1	Sil	Sib	1904	1.100000023841858	28.0855
1905	Sib	1	Sil	Sib	1905	1.100000023841858	28.0855
1906	Sib	1	Sil	Sib	1906	1.100000023841858	28.0855
1907	Sib	1	Sil	Sib	1907	1.100000023841858	28.0855
1908	Sib	1	Sil	Sib	1908	1.100000023841858	28.0855
1909	Sib	1	Sil	Sib	1909	1.100000023841858	28.0855
1910	Sim	1	Sil	Sim	1910	0.9110000133514404	28.0855
1911	Sib	1	Sil	Sib	1911	1.100000023841858	28.0855
1912	Sib	1	Sil	Sib	1912	1.100000023841858	28.0855
1913	Sib	1	Sil	Sib	1913	1.100000023841858	28.0855
1914	Sib	1	Sil	Sib	1914	1.100000023841858	28.0855
1915	Sib	1	Sil	Sib	1915	1.100000023841858	28.0855
1916	Sib	1	Sil	Sib	1916	1.100000023841858	28.0855
1917	Sib	1	Sil	Sib	1917	1.100000023841858	28.0855
1918	Sib	1	Sil	Sib	1918	1.100000023841858	28.0855
1919	Sib	1	Sil	Sib	1919	1.100000023841858	28.0855
1920	Sib	1	Sil	Sib	1920	1.100000023841858	28.0855
1921	Sib	1	Sil	Sib	1921	1.100000023841858	28.0855
1922	Sib	1	Sil	Sib	1922	1.100000023841858	28.0855
1923	Sim	1	Sil	Sim	1923	0.9110000133514404	28.0855
1924	Sib	1	Sil	Sib	1924	1.100000023841858	28.0855
1925	Sib	1	Sil	Sib	1925	1.100000023841858	28.0855
1926	Sib	1	Sil	Sib	1926	1.100000023841858	28.0855
1927	Sib	1	Sil	Sib	1927	1.100000023841858	28.0855
1928	Sib	1	Sil	Sib	1928	1.100000023841858	28.0855
1929	Sim	1	Sil	Sim	1929	0.9110000133514404	28.0855
1930	Sib	1	Sil	Sib	1930	1.100000023841858	28.0855
1931	Sib	1	Sil	Sib	1931	1.100000023841858	28.0855
1932	Sib	1	Sil	Sib	1932	1.100000023841858	28.0855
1933	Sib	1	Sil	Sib	1933	1.100000023841858	28.0855
1934	Sib	1	Sil	Sib	1934	1.100000023841858	28.0855
1935	Sib	1	Sil	Sib	1935	1.100000023841858	28.0855
1936	Sib	1	Sil	Sib	1936	1.100000023841858	28.0855
1937	Sib	1	Sil	Sib	1937	1.100000023841858	28.0855
1938	Sib	1	Sil	Sib	1938	1.100000023841858	28.0855
1939	Sib	1	Sil	Sib	1939	1.100000023841858	28.0855
1940	Sib	1	Sil	Sib	1940	1.100000023841858	28.0855
1941	Sib	1	Sil	Sib	1941	1.100000023841858	28.0855
1942	Sib	1	Sil	Sib	1942	1.100000023841858	28.0855
1943	Sib	1	Sil	Sib	1943	1.100000023841858	28.0855
1944	Sib	1	Sil	Sib	1944	1.100000023841858	28.0855
1945	Sib	1	Sil	Sib	1945	1.100000023841858	28.0855
1946	Sib	1	Sil	Sib	1946	1.100000023841858	28.0855
1947	Sim	1	Sil	Sim	1947	0.9110000133514404	28.0855
1948	Sib	1	Sil	Sib	1948	1.100000023841858	28.0855
1949	Sib	1	Sil	Sib	1949	1.100000023841858	28.0855
1950	Sib	1	Sil	Sib	1950	1.100000023841858	28.0855
1951	Sim	1	Sil	Sim	1951	0.9110000133514404	28.0855
1952	Sib	1	Sil	Sib	1952	1.100000023841858	28.0855
1953	Sib	1	Sil	Sib	1953	1.100000023841858	28.0855
1954	Sib	1	Sil	Sib	1954	1.100000023841858	28.0855
1955	Sib	1	Sil	Sib	1955	1.100000023841858	28.0855
1956	Sib	1	Sil	Sib	1956	1.100000023841858	28.0855
1957	Sib	1	Sil	Sib	1957	1.100000023841858	28.0855
1958	Sib	1	Sil	Sib	1958	1.100000023841858	28.0855
1959	Sib	1	Sil	Sib	1959	1.100000023841858	28.0855
1960	Sib	1	Sil	Sib	1960	1.100000023841858	28.0855
1961	Sib	1	Sil	Sib	1961	1.100000023841858	28.0855
1962	Sib	1	Sil	Sib	1962	1.100000023841858	28.0855
1963	Sib	1	Sil	Sib	1963	1.100000023841858	28.0855
1964	Sib	1	Sil	Sib	1964	1.100000023841858	28.0855
1965	Sib	1	Sil	Sib	1965	1.100000023841858	28.0855
1966	Sib	1	Sil	Sib	1966	1.100000023841858	28.0855
1967	Sib	1	Sil	Sib	1967	1.100000023841858	28.0855
1968	Sib	1	Sil	Sib	1968	1.100000023841858	28.0855
1969	Sib	1	Sil	Sib	1969	1.100000023841858	28.0855
1970	Sib	1	Sil	Sib	1970	1.100000023841858	28.0855
1971	Sim	1	Sil	Sim	1971	0.9110000133514404	28.0855
1972	Sib	1	Sil	Sib	1972	1.100000023841858	28.0855
1973	Sib	1	Sil	Sib	1973	1.100000023841858	28.0855
1974	Sib	1	Sil	Sib	1974	1.100000023841858	28.0855
1975	Sim	1	Sil	Sim	1975	0.9110000133514404	28.0855
1976	Sib	1	Sil	Sib	1976	1.100000023841858	28.0855
1977	Sim	1	Sil	Sim	1977	0.9110000133514404	28.0855
1978	Sib	1	Sil	Sib	1978	1.100000023841858	28.0855
1979	Sib	1	Sil	Sib	1979	1.100000023841858	28.0855
1980	Sib	1	Sil	Sib	1980	1.100000023841858	28.0855
1981	Sib	1	Sil	Sib	1981	1.100000023841858	28.0855
1982	Sim	1	Sil	Sim	1982	0.9110000133514404	28.0855
1983	Sib	1	Sil	Sib	1983	1.100000023841858	28.0855
1984	Sib	1	Sil	Sib	1984	1.100000023841858	28.0855
1985	Sib	1	Sil	Sib	1985	1.100000023841858	28.0855
1986	Sib	1	Sil	Sib	1986	1.100000023841858	28.0855
1987	Sib	1	Sil	Sib	1987	1.100000023841858	28.0855
1988	Sib	1	Sil	Sib	1988	1.100000023841858	28.0855
1989	Sib	1	Sil	Sib	1989	1.100000023841858	28.0855
1990	Sib	1	Sil	Sib	1990	1.100000023841858	28.0855
1991	Sib	1	Sil	Sib	1991	1.100000023841858	28.0855
1992	Sib	1	Sil	Sib	1992	1.100000023841858	28.0855
1993	Sib	1	Sil	Sib	1993	1.100000023841858	28.0855
1994	Sib	1	Sil	Sib	1994	1.100000023841858	28.0855
1995	Sim	1	Sil	Sim	1995	0.9110000133514404	28.0855
1996	Sib	1	Sil	Sib	1996	1.100000023841858	28.0855
1997	Sib	1	Sil	Sib	1997	1.100000023841858	28.0855
1998	Sib	1	Sil	Sib	1998	1.100000023841858	28.0855
1999	Sim	1	Sil	Sim	1999	0.9110000133514404	28.0855
2000	Sib	1	Sil	Sib	2000	1.100000023841858	28.0855
2001	Sim	1	Sil	Sim	2001	0.9110000133514404	28.0855
2002	Sib	1	Sil	Sib	2002	1.100000023841858	28.0855
2003	Sib	1	Sil	Sib	2003	1.100000023841858	28.0855
2004	Sib	1	Sil	Sib	2004	1.100000023841858	28.0855
2005	Sib	1	Sil	Sib	2005	1.100000023841858	28.0855
2006	Sim	1	Sil	Sim	2006	0.9110000133514404	28.0855
2007	Sib	1	Sil	Sib	2007	1.100000023841858	28.0855
2008	Sib	1	Sil	Sib	2008	1.100000023841858	28.0855
2009	Sib	1	Sil	Sib	2009	1.100000023841858	28.0855
2010	Sib	1	Sil	Sib	2010	1.100000023841858	28.0855
2011	Sib	1	Sil	Sib	2011	1.100000023841858	28.0855
2012	Sib	1	Sil	Sib	2012	1.100000023841858	28.0855
2013	Sib	1	Sil	Sib	2013	1.100000023841858	28.0855
2014	Sib	1	Sil	Sib	2014	1.100000023841858	28.0855
2015	Sib	1	Sil	Sib	2015	1.100000023841858	28.0855
2016	Sib	1	Sil	Sib	2016	1.100000023841858	28.0855
2017	Sib	1	Sil	Sib	2017	1.100000023841858	28.0855
2018	Sib	1	Sil	Sib	2018	1.100000023841858	28.0855
2019	Sim	1	Sil	Sim	2019	0.9110000133514404	28.0855
2020	Sib	1	Sil	Sib	2020	1.100000023841858	28.0855
2021	Sib	1	Sil	Sib	2021	1.100000023841858	28.0855
2022	Sib	1	Sil	Sib	2022	1.100000023841858	28.0855
2023	Sim	1	Sil	Sim	2023	0.9110000133514404	28.0855
2024	Sib	1	Sil	Sib	2024	1.100000023841858	28.0855
2025	Sim	1	Sil	Sim	2025	0.9110000133514404	28.0855
2026	Sib	1	Sil	Sib	2026	1.100000023841858	28.0855
2027	Sib	1	Sil	Sib	2027	1.100000023841858	28.0855
2028	Sib	1	Sil	Sib	2028	1.100000023841858	28.0855
2029	Sib	1	Sil	Sib	2029	1.100000023841858	28.0855
2030	Sim	1	Sil	Sim	2030	0.9110000133514404	28.0855
2031	Sib	1	Sil	Sib	2031	1.100000023841858	28.0855
2032	Sib	1	Sil	Sib	2032	1.100000023841858	28.0855
2033	Sib	1	Sil	Sib	2033	1.100000023841858	28.0855
2034	Sib	1	Sil	Sib	2034	1.100000023841858	28.0855
2035	Sib	1	Sil	Sib	2035	1.100000023841858	28.0855
2036	Sib	1	Sil	Sib	2036	1.100000023841858	28.0855
2037	Sib	1	Sil	Sib	2037	1.100000023841858	28.0855
2038	Sib	1	Sil	Sib	2038	1.100000023841858	28.0855
2039	Sib	1	Sil	Sib	2039	1.100000023841858	28.0855
2040	Sib	1	Sil	Sib	2040	1.100000023841858	28.0855
2041	Sib	1	Sil	Sib	2041	1.100000023841858	28.0855
2042	Sib	1	Sil	Sib	2042	1.100000023841858	28.0855
2043	Sim	1	Sil	Sim	2043	0.9110000133514404	28.0855
2044	Sib	1	Sil	Sib	2044	1.100000023841858	28.0855
2045	Sib	1	Sil	Sib	2045	1.100000023841858	28.0855
2046	Sib	1	Sil	Sib	2046	1.100000023841858	28.0855
2047	Sim	1	Sil	Sim	2047	0.9110000133514404	28.0855
2048	Sib	1	Sil	Sib	2048	1.100000023841858	28.0855
2049	Sim	1	Sil	Sim	2049	0.9110000133514404	28.0855
2050	Sib	1	Sil	Sib	2050	1.100000023841858	28.0855
2051	Sib	1	Sil	Sib	2051	1.100000023841858	28.0855
2052	Sib	1	Sil	Sib	2052	1.100000023841858	28.0855
2053	Sib	1	Sil	Sib	2053	1.100000023841858	28.0855
2054	Sib	1	Sil	Sib	2054	1.100000023841858	28.0855
2055	Sib	1	Sil	Sib	2055	1.100000023841858	28.0855
2056	Sib	1	Sil	Sib	2056	1.100000023841858	28.0855
2057	Sib	1	Sil	Sib	2057	1.100000023841858	28.0855
2058	Sib	1	Sil	Sib	2058	1.100000023841858	28.0855
2059	Sib	1	Sil	Sib	2059	1.100000023841858	28.0855
2060	Sib	1	Sil	Sib	2060	1.100000023841858	28.0855
2061	Sib	1	Sil	Sib	2061	1.100000023841858	28.0855
2062	Sib	1	Sil	Sib	2062	1.100000023841858	28.0855
2063	Sib	1	Sil	Sib	2063	1.100000023841858	28.0855
2064	Sib	1	Sil	Sib	2064	1.100000023841858	28.0855
2065	Sib	1	Sil	Sib	2065	1.100000023841858	28.0855
2066	Sib	1	Sil	Sib	2066	1.100000023841858	28.0855
2067	Sim	1	Sil	Sim	2067	0.9110000133514404	28.0855
2068	Sib	1	Sil	Sib	2068	1.100000023841858	28.0855
2069	Sib	1	Sil	Sib	2069	1.100000023841858	28.0855
2070	Sib	1	Sil	Sib	2070	1.100000023841858	28.0855
2071	Sim	1	Sil	Sim	2071	0.9110000133514404	28.0855
2072	Sib	1	Sil	Sib	2072	1.100000023841858	28.0855
2073	Hy	1	Sil	Hy	2073	0.4000000059604645	1.00784
2074	Hm	1	Sil	Hm	2074	0.08799999952316284	1.00784
2075	Hm	1	Sil	Hm	2075	0.08799999952316284	1.00784
2076	Hm	1	Sil	Hm	2076	0.08799999952316284	1.00784
2077	Hm	1	Sil	Hm	2077	0.08799999952316284	1.00784
2078	Hm	1	Sil	Hm	2078	0.08799999952316284	1.00784
2079	Hm	1	Sil	Hm	2079	0.08799999952316284	1.00784
2080	Hm	1	Sil	Hm	2080	0.08799999952316284	1.00784
2081	Hm	1	Sil	Hm	2081	0.08799999952316284	1.00784
2082	Hm	1	Sil	Hm	2082	0.08799999952316284	1.00784
2083	Hm	1	Sil	Hm	2083	0.08799999952316284	1.00784
2084	Hm	1	Sil	Hm	2084	0.08799999952316284	1.00784
2085	Hm	1	Sil	Hm	2085	0.08799999952316284	1.00784
2086	Hy	1	Sil	Hy	2086	0.4000000059604645	1.00784
2087	Hy	1	Sil	Hy	2087	0.4000000059604645	1.00784
2088	Hm	1	Sil	Hm	2088	0.08799999952316284	1.00784
2089	Hm	1	Sil	Hm	2089	0.08799999952316284	1.00784
2090	Hm	1	Sil	Hm	2090	0.08799999952316284	1.00784
2091	Hm	1	Sil	Hm	2091	0.08799999952316284	1.00784
2092	Hm	1	Sil	Hm	2092	0.08799999952316284	1.00784
2093	Hm	1	Sil	Hm	2093	0.08799999952316284	1.00784
2094	Hm	1	Sil	Hm	2094	0.08799999952316284	1.00784
2095	Hm	1	Sil	Hm	2095	0.08799999952316284	1.00784
2096	Hm	1	Sil	Hm	2096	0.08799999952316284	1.00784
2097	Hm	1	Sil	Hm	2097	0.08799999952316284	1.00784
2098	Hm	1	Sil	Hm	2098	0.08799999952316284	1.00784
2099	Hm	1	Sil	Hm	2099	0.08799999952316284	1.00784
2100	Hm	1	Sil	Hm	2100	0.08799999952316284	1.00784
2101	Hm	1	Sil	Hm	2101	0.08799999952316284	1.00784
2102	Hm	1	Sil	Hm	2102	0.08799999952316284	1.00784
2103	Hm	1	Sil	Hm	2103	0.08799999952316284	1.00784
2104	Hm	1	Sil	Hm	2104	0.08799999952316284	1.00784
2105	Hm	1	Sil	Hm	2105	0.08799999952316284	1.00784
2106	Hy	1	Sil	Hy	2106	0.4000000059604645	1.00784
2107	Hm	1	Sil	Hm	2107	0.08799999952316284	1.00784
2108	Hm	1	Sil	Hm	2108	0.08799999952316284	1.00784
2109	Hm	1	Sil	Hm	2109	0.08799999952316284	1.00784
2110	Hm	1	Sil	Hm	2110	0.08799999952316284	1.00784
2111	Hm	1	Sil	Hm	2111	0.08799999952316284	1.00784
2112	Hm	1	Sil	Hm	2112	0.08799999952316284	1.00784
2113	Hm	1	Sil	Hm	2113	0.08799999952316284	1.00784
2114	Hm	1	Sil	Hm	2114	0.08799999952316284	1.00784
2115	Hm	1	Sil	Hm	2115	0.08799999952316284	1.00784
2116	Hm	1	Sil	Hm	2116	0.08799999952316284	1.00784
2117	Hm	1	Sil	Hm	2117	0.08799999952316284	1.00784
2118	Hm	1	Sil	Hm	2118	0.08799999952316284	1.00784
2119	Hm	1	Sil	Hm	2119	0.08799999952316284	1.00784
2120	Hm	1	Sil	Hm	2120	0.08799999952316284	1.00784
2121	Hm	1	Sil	Hm	2121	0.08799999952316284	1.00784
2122	Hy	1	Sil	Hy	2122	0.4000000059604645	1.00784
2123	Hm	1	Sil	Hm	2123	0.08799999952316284	1.00784
2124	Hm	1	Sil	Hm	2124	0.08799999952316284	1.00784
2125	Hm	1	Sil	Hm	2125	0.08799999952316284	1.00784
2126	Hm	1	Sil	Hm	2126	0.08799999952316284	1.00784
2127	Hm	1	Sil	Hm	2127	0.08799999952316284	1.00784
2128	Hm	1	Sil	Hm	2128	0.08799999952316284	1.00784
2129	Hy	1	Sil	Hy	2129	0.4000000059604645	1.00784
2130	Hm	1	Sil	Hm	2130	0.08799999952316284	1.00784
2131	Hm	1	Sil	Hm	2131	0.08799999952316284	1.00784
2132	Hm	1	Sil	Hm	2132	0.08799999952316284	1.00784
2133	Hm	1	Sil	Hm	2133	0.08799999952316284	1.00784
2134	Hm	1	Sil	Hm	2134	0.08799999952316284	1.00784
2135	Hm	1	Sil	Hm	2135	0.08799999952316284	1.00784
2136	Hy	1	Sil	Hy	2136	0.4000000059604645	1.00784
2137	Hy	1	Sil	Hy	2137	0.4000000059604645	1.00784
2138	Hy	1	Sil	Hy	2138	0.4000000059604645	1.00784
2139	Hm	1	Sil	Hm	2139	0.08799999952316284	1.00784
2140	Hm	1	Sil	Hm	2140	0.08799999952316284	1.00784
2141	Hm	1	Sil	Hm	2141	0.08799999952316284	1.00784
2142	Hm	1	Sil	Hm	2142	0.08799999952316284	1.00784
2143	Hm	1	Sil	Hm	2143	0.08799999952316284	1.00784
2144	Hm	1	Sil	Hm	2144	0.08799999952316284	1.00784
2145	Hm	1	Sil	Hm	2145	0.08799999952316284	1.00784
2146	Hm	1	Sil	Hm	2146	0.08799999952316284	1.00784
2147	Hm	1	Sil	Hm	2147	0.08799999952316284	1.00784
2148	Hm	1	Sil	Hm	2148	0.08799999952316284	1.00784
2149	Hm	1	Sil	Hm	2149	0.08799999952316284	1.00784
2150	Hm	1	Sil	Hm	2150	0.08799999952316284	1.00784
2151	Hm	1	Sil	Hm	2151	0.08799999952316284	1.00784
2152	Hm	1	Sil	Hm	2152	0.08799999952316284	1.00784
2153	Hm	1	Sil	Hm	2153	0.08799999952316284	1.00784
2154	Hy	1	Sil	Hy	2154	0.4000000059604645	1.00784
2155	Hm	1	Sil	Hm	2155	0.08799999952316284	1.00784
2156	Hm	1	Sil	Hm	2156	0.08799999952316284	1.00784
2157	Hm	1	Sil	Hm	2157	0.08799999952316284	1.00784
2158	Hm	1	Sil	Hm	2158	0.08799999952316284	1.00784
2159	Hm	1	Sil	Hm	2159	0.08799999952316284	1.00784
2160	Hm	1	Sil	Hm	2160	0.08799999952316284	1.00784
2161	Hy	1	Sil	Hy	2161	0.4000000059604645	1.00784
2162	Hm	1	Sil	Hm	2162	0.08799999952316284	1.00784
2163	Hm	1	Sil	Hm	2163	0.08799999952316284	1.00784
2164	Hm	1	Sil	Hm	2164	0.08799999952316284	1.00784
2165	Hy	1	Sil	Hy	2165	0.4000000059604645	1.00784
2166	Hm	1	Sil	Hm	2166	0.08799999952316284	1.00784
2167	Hm	1	Sil	Hm	2167	0.08799999952316284	1.00784
2168	Hm	1	Sil	Hm	2168	0.08799999952316284	1.00784
2169	Hm	1	Sil	Hm	2169	0.08799999952316284	1.00784
2170	Hm	1	Sil	Hm	2170	0.08799999952316284	1.00784
2171	Hm	1	Sil	Hm	2171	0.08799999952316284	1.00784
2172	Hy	1	Sil	Hy	2172	0.4000000059604645	1.00784
2173	Hy	1	Sil	Hy	2173	0.4000000059604645	1.00784
2174	Hm	1	Sil	Hm	2174	0.08799999952316284	1.00784
2175	Hm	1	Sil	Hm	2175	0.08799999952316284	1.00784
2176	Hm	1	Sil	Hm	2176	0.08799999952316284	1.00784
2177	Hy	1	Sil	Hy	2177	0.4000000059604645	1.00784
2178	Hm	1	Sil	Hm	2178	0.08799999952316284	1.00784
2179	Hm	1	Sil	Hm	2179	0.08799999952316284	1.00784
2180	Hm	1	Sil	Hm	2180	0.08799999952316284	1.00784
2181	Hm	1	Sil	Hm	2181	0.08799999952316284	1.00784
2182	Hm	1	Sil	Hm	2182	0.08799999952316284	1.00784
2183	Hm	1	Sil	Hm	2183	0.08799999952316284	1.00784
2184	Hy	1	Sil	Hy	2184	0.4000000059604645	1.00784
2185	Hm	1	Sil	Hm	2185	0.08799999952316284	1.00784
2186	Hm	1	Sil	Hm	2186	0.08799999952316284	1.00784
2187	Hm	1	Sil	Hm	2187	0.08799999952316284	1.00784
2188	Hy	1	Sil	Hy	2188	0.4000000059604645	1.00784
2189	Hm	1	Sil	Hm	2189	0.08799999952316284	1.00784
2190	Hm	1	Sil	Hm	2190	0.08799999952316284	1.00784
2191	Hm	1	Sil	Hm	2191	0.08799999952316284	1.00784
2192	Hy	1	Sil	Hy	2192	0.4000000059604645	1.00784
2193	Hm	1	Sil	Hm	2193	0.08799999952316284	1.00784
2194	Hm	1	Sil	Hm	2194	0.08799999952316284	1.00784
2195	Hm	1	Sil	Hm	2195	0.08799999952316284	1.00784
2196	Hy	1	Sil	Hy	2196	0.4000000059604645	1.00784
2197	Hm	1	Sil	Hm	2197	0.08799999952316284	1.00784
2198	Hm	1	Sil	Hm	2198	0.08799999952316284	1.00784
2199	Hm	1	Sil	Hm	2199	0.08799999952316284	1.00784
2200	Hm	1	Sil	Hm	2200	0.08799999952316284	1.00784
2201	Hm	1	Sil	Hm	2201	0.08799999952316284	1.00784
2202	Hm	1	Sil	Hm	2202	0.08799999952316284	1.00784
2203	Hm	1	Sil	Hm	2203	0.08799999952316284	1.00784
2204	Hm	1	Sil	Hm	2204	0.08799999952316284	1.00784
2205	Hm	1	Sil	Hm	2205	0.08799999952316284	1.00784
2206	Hm	1	Sil	Hm	2206	0.08799999952316284	1.00784
2207	Hm	1	Sil	Hm	2207	0.08799999952316284	1.00784
2208	Hm	1	Sil	Hm	2208	0.08799999952316284	1.00784
2209	Hy	1	Sil	Hy	2209	0.4000000059604645	1.00784
2210	Hm	1	Sil	Hm	2210	0.08799999952316284	1.00784
2211	Hm	1	Sil	Hm	2211	0.08799999952316284	1.00784
2212	Hm	1	Sil	Hm	2212	0.08799999952316284	1.00784
2213	Hm	1	Sil	Hm	2213	0.08799999952316284	1.00784
2214	Hm	1	Sil	Hm	2214	0.08799999952316284	1.00784
2215	Hm	1	Sil	Hm	2215	0.08799999952316284	1.00784
2216	Hm	1	Sil	Hm	2216	0.08799999952316284	1.00784
2217	Hm	1	Sil	Hm	2217	0.08799999952316284	1.00784
2218	Hm	1	Sil	Hm	2218	0.08799999952316284	1.00784
2219	Hy	1	Sil	Hy	2219	0.4000000059604645	1.00784
2220	Hy	1	Sil	Hy	2220	0.4000000059604645	1.00784
2221	Hm	1	Sil	Hm	2221	0.08799999952316284	1.00784
2222	Hm	1	Sil	Hm	2222	0.08799999952316284	1.00784
2223	Hm	1	Sil	Hm	2223	0.08799999952316284	1.00784
2224	Hm	1	Sil	Hm	2224	0.08799999952316284	1.00784
2225	Hm	1	Sil	Hm	2225	0.08799999952316284	1.00784
2226	Hm	1	Sil	Hm	2226	0.08799999952316284	1.00784
2227	Hm	1	Sil	Hm	2227	0.08799999952316284	1.00784
2228	Hm	1	Sil	Hm	2228	0.08799999952316284	1.00784
2229	Hm	1	Sil	Hm	2229	0.08799999952316284	1.00784
2230	Hy	1	Sil	Hy	2230	0.4000000059604645	1.00784
2231	Hm	1	Sil	Hm	2231	0.08799999952316284	1.00784
2232	Hm	1	Sil	Hm	2232	0.08799999952316284	1.00784
2233	Hm	1	Sil	Hm	2233	0.08799999952316284	1.00784
2234	Hy	1	Sil	Hy	2234	0.4000000059604645	1.00784
2235	Hm	1	Sil	Hm	2235	0.08799999952316284	1.00784
2236	Hm	1	Sil	Hm	2236	0.08799999952316284	1.00784
2237	Hm	1	Sil	Hm	2237	0.08799999952316284	1.00784
2238	Hm	1	Sil	Hm	2238	0.08799999952316284	1.00784
2239	Hm	1	Sil	Hm	2239	0.08799999952316284	1.00784
2240	Hm	1	Sil	Hm	2240	0.08799999952316284	1.00784
2241	Hy	1	Sil	Hy	2241	0.4000000059604645	1.00784
2242	Hm	1	Sil	Hm	2242	0.08799999952316284	1.00784
2243	Hm	1	Sil	Hm	2243	0.08799999952316284	1.00784
2244	Hm	1	Sil	Hm	2244	0.08799999952316284	1.00784
2245	Hm	1	Sil	Hm	2245	0.08799999952316284	1.00784
2246	Hm	1	Sil	Hm	2246	0.08799999952316284	1.00784
2247	Hm	1	Sil	Hm	2247	0.08799999952316284	1.00784
2248	Hm	1	Sil	Hm	2248	0.08799999952316284	1.00784
2249	Hm	1	Sil	Hm	2249	0.08799999952316284	1.00784
2250	Hm	1	Sil	Hm	2250	0.08799999952316284	1.00784
2251	Hy	1	Sil	Hy	2251	0.4000000059604645	1.00784
2252	Hm	1	Sil	Hm	2252	0.08799999952316284	1.00784
2253	Hm	1	Sil	Hm	2253	0.08799999952316284	1.00784
2254	Hm	1	Sil	Hm	2254	0.08799999952316284	1.00784
2255	Hm	1	Sil	Hm	2255	0.08799999952316284	1.00784
2256	Hm	1	Sil	Hm	2256	0.08799999952316284	1.00784
2257	Hm	1	Sil	Hm	2257	0.08799999952316284	1.00784
2258	Hy	1	Sil	Hy	2258	0.4000000059604645	1.00784
2259	Hm	1	Sil	Hm	2259	0.08799999952316284	1.00784
2260	Hm	1	Sil	Hm	2260	0.08799999952316284	1.00784
2261	Hm	1	Sil	Hm	2261	0.08799999952316284	1.00784
2262	Hm	1	Sil	Hm	2262	0.08799999952316284	1.00784
2263	Hm	1	Sil	Hm	2263	0.08799999952316284	1.00784
2264	Hm	1	Sil	Hm	2264	0.08799999952316284	1.00784
2265	Hy	1	Sil	Hy	2265	0.4000000059604645	1.00784
2266	Hm	1	Sil	Hm	2266	0.08799999952316284	1.00784
2267	Hm	1	Sil	Hm	2267	0.08799999952316284	1.00784
2268	Hm	1	Sil	Hm	2268	0.08799999952316284	1.00784
2269	Hy	1	Sil	Hy	2269	0.4000000059604645	1.00784
2270	Hm	1	Sil	Hm	2270	0.08799999952316284	1.00784
2271	Hm	1	Sil	Hm	2271	0.08799999952316284	1.00784
2272	Hm	1	Sil	Hm	2272	0.08799999952316284	1.00784
2273	Hm	1	Sil	Hm	2273	0.08799999952316284	1.00784
2274	Hm	1	Sil	Hm	2274	0.08799999952316284	1.00784
2275	Hm	1	Sil	Hm	2275	0.08799999952316284	1.00784
2276	Hy	1	Sil	Hy	2276	0.4000000059604645	1.00784
2277	Hm	1	Sil	Hm	2277	0.08799999952316284	1.00784
2278	Hm	1	Sil	Hm	2278	0.08799999952316284	1.00784
2279	Hm	1	Sil	Hm	2279	0.08799999952316284	1.00784
2280	Hy	1	Sil	Hy	2280	0.4000000059604645	1.00784
2281	Hm	1	Sil	Hm	2281	0.08799999952316284	1.00784
2282	Hm	1	Sil	Hm	2282	0.08799999952316284	1.00784
2283	Hm	1	Sil	Hm	2283	0.08799999952316284	1.00784
2284	Hm	1	Sil	Hm	2284	0.08799999952316284	1.00784
2285	Hm	1	Sil	Hm	2285	0.08799999952316284	1.00784
2286	Hm	1	Sil	Hm	2286	0.08799999952316284	1.00784
2287	Hy	1	Sil	Hy	2287	0.4000000059604645	1.00784
2288	Hy	1	Sil	Hy	2288	0.4000000059604645	1.00784
2289	Hm	1	Sil	Hm	2289	0.08799999952316284	1.00784
2290	Hm	1	Sil	Hm	2290	0.08799999952316284	1.00784
2291	Hm	1	Sil	Hm	2291	0.08799999952316284	1.00784
2292	Hm	1	Sil	Hm	2292	0.08799999952316284	1.00784
2293	Hm	1	Sil	Hm	2293	0.08799999952316284	1.00784
2294	Hm	1	Sil	Hm	2294	0.08799999952316284	1.00784
2295	Hm	1	Sil	Hm	2295	0.08799999952316284	1.00784
2296	Hm	1	Sil	Hm	2296	0.08799999952316284	1.00784
2297	Hm	1	Sil	Hm	2297	0.08799999952316284	1.00784
2298	Hm	1	Sil	Hm	2298	0.08799999952316284	1.00784
2299	Hm	1	Sil	Hm	2299	0.08799999952316284	1.00784
2300	Hm	1	Sil	Hm	2300	0.08799999952316284	1.00784
2301	Hm	1	Sil	Hm	2301	0.08799999952316284	1.00784
2302	Hm	1	Sil	Hm	2302	0.08799999952316284	1.00784
2303	Hm	1	Sil	Hm	2303	0.08799999952316284	1.00784
2304	Hm	1	Sil	Hm	2304	0.08799999952316284	1.00784
2305	Hm	1	Sil	Hm	2305	0.08799999952316284	1.00784
2306	Hm	1	Sil	Hm	2306	0.08799999952316284	1.00784
2307	Hm	1	Sil	Hm	2307	0.08799999952316284	1.00784
2308	Hm	1	Sil	Hm	2308	0.08799999952316284	1.00784
2309	Hm	1	Sil	Hm	2309	0.08799999952316284	1.00784
2310	Hm	1	Sil	Hm	2310	0.08799999952316284	1.00784
2311	Hm	1	Sil	Hm	2311	0.08799999952316284	1.00784
2312	Hm	1	Sil	Hm	2312	0.08799999952316284	1.00784
2313	Hm	1	Sil	Hm	2313	0.08799999952316284	1.00784
2314	Hm	1	Sil	Hm	2314	0.08799999952316284	1.00784
2315	Hm	1	Sil	Hm	2315	0.08799999952316284	1.00784
2316	Hm	1	Sil	Hm	2316	0.08799999952316284	1.00784
2317	Hm	1	Sil	Hm	2317	0.08799999952316284	1.00784
2318	Hm	1	Sil	Hm	2318	0.08799999952316284	1.00784
2319	Hm	1	Sil	Hm	2319	0.08799999952316284	1.00784
2320	Hm	1	Sil	Hm	2320	0.08799999952316284	1.00784
2321	Hm	1	Sil	Hm	2321	0.08799999952316284	1.00784
2322	Hm	1	Sil	Hm	2322	0.08799999952316284	1.00784
2323	Hm	1	Sil	Hm	2323	0.08799999952316284	1.00784
2324	Hm	1	Sil	Hm	2324	0.08799999952316284	1.00784
2325	Hm	1	Sil	Hm	2325	0.08799999952316284	1.00784
2326	Hm	1	Sil	Hm	2326	0.08799999952316284	1.00784
2327	Hm	1	Sil	Hm	2327	0.08799999952316284	1.00784
2328	Hm	1	Sil	Hm	2328	0.08799999952316284	1.00784
2329	Hm	1	Sil	Hm	2329	0.08799999952316284	1.00784
2330	Hm	1	Sil	Hm	2330	0.08799999952316284	1.00784
2331	Hm	1	Sil	Hm	2331	0.08799999952316284	1.00784
2332	Hm	1	Sil	Hm	2332	0.08799999952316284	1.00784
2333	Hm	1	Sil	Hm	2333	0.08799999952316284	1.00784
2334	Hy	1	Sil	Hy	2334	0.4000000059604645	1.00784
2335	Hm	1	Sil	Hm	2335	0.08799999952316284	1.00784
2336	Hm	1	Sil	Hm	2336	0.08799999952316284	1.00784
2337	Hm	1	Sil	Hm	2337	0.08799999952316284	1.00784
2338	Hm	1	Sil	Hm	2338	0.08799999952316284	1.00784
2339	Hm	1	Sil	Hm	2339	0.08799999952316284	1.00784
2340	Hm	1	Sil	Hm	2340	0.08799999952316284	1.00784

[ bonds ]
;  ai   aj  funct   c0         c1
1	1402	1	0.165	238488.0
1	1551	1	0.165	238488.0
2	1401	1	0.165	238488.0
2	1720	1	0.165	238488.0
3	1404	1	0.165	238488.0
3	1434	1	0.165	238488.0
4	1405	1	0.165	238488.0
4	1435	1	0.165	238488.0
5	1406	1	0.165	238488.0
5	1436	1	0.165	238488.0
6	1405	1	0.165	238488.0
6	1407	1	0.165	238488.0
7	1406	1	0.165	238488.0
7	1408	1	0.165	238488.0
8	1409	1	0.165	238488.0
8	1572	1	0.165	238488.0
9	1402	1	0.165	238488.0
9	1410	1	0.165	238488.0
10	1403	1	0.165	238488.0
10	1412	1	0.165	238488.0
11	1402	1	0.165	238488.0
11	1407	1	0.165	238488.0
12	1408	1	0.165	238488.0
12	1905	1	0.165	238488.0
13	1403	1	0.165	238488.0
13	1409	1	0.165	238488.0
14	1404	1	0.165	238488.0
14	1410	1	0.165	238488.0
15	1405	1	0.165	238488.0
15	1411	1	0.165	238488.0
16	1406	1	0.165	238488.0
16	1412	1	0.165	238488.0
17	1401	1	0.165	238488.0
17	1412	1	0.165	238488.0
18	1402	1	0.165	238488.0
18	1915	1	0.165	238488.0
19	1403	1	0.165	238488.0
19	1410	1	0.165	238488.0
20	1404	1	0.165	238488.0
20	1408	1	0.165	238488.0
21	1405	1	0.165	238488.0
21	1409	1	0.165	238488.0
22	1414	1	0.165	238488.0
22	1563	1	0.165	238488.0
23	1413	1	0.165	238488.0
23	1732	1	0.165	238488.0
24	1416	1	0.165	238488.0
24	1446	1	0.165	238488.0
25	1417	1	0.165	238488.0
25	1447	1	0.165	238488.0
26	1418	1	0.165	238488.0
26	1448	1	0.165	238488.0
27	1417	1	0.165	238488.0
27	1419	1	0.165	238488.0
28	1418	1	0.165	238488.0
28	1420	1	0.165	238488.0
29	1421	1	0.165	238488.0
29	1584	1	0.165	238488.0
30	1414	1	0.165	238488.0
30	1422	1	0.165	238488.0
31	1411	1	0.165	238488.0
31	1413	1	0.165	238488.0
32	1415	1	0.165	238488.0
32	1424	1	0.165	238488.0
33	1414	1	0.165	238488.0
33	1419	1	0.165	238488.0
34	1420	1	0.165	238488.0
34	1917	1	0.165	238488.0
35	1415	1	0.165	238488.0
35	1421	1	0.165	238488.0
36	1416	1	0.165	238488.0
36	1422	1	0.165	238488.0
37	1417	1	0.165	238488.0
37	1423	1	0.165	238488.0
38	1418	1	0.165	238488.0
38	1424	1	0.165	238488.0
39	1413	1	0.165	238488.0
39	1424	1	0.165	238488.0
40	1414	1	0.165	238488.0
40	1927	1	0.165	238488.0
41	1415	1	0.165	238488.0
41	1422	1	0.165	238488.0
42	1416	1	0.165	238488.0
42	1420	1	0.165	238488.0
43	1417	1	0.165	238488.0
43	1421	1	0.165	238488.0
44	1407	1	0.165	238488.0
44	1418	1	0.165	238488.0
45	1407	1	0.165	238488.0
45	1426	1	0.165	238488.0
46	1425	1	0.165	238488.0
46	1576	1	0.165	238488.0
47	1409	1	0.165	238488.0
47	1427	1	0.165	238488.0
48	1428	1	0.165	238488.0
48	1458	1	0.165	238488.0
49	1429	1	0.165	238488.0
49	1459	1	0.165	238488.0
50	1430	1	0.165	238488.0
50	1460	1	0.165	238488.0
51	1429	1	0.165	238488.0
51	1431	1	0.165	238488.0
52	1430	1	0.165	238488.0
52	1432	1	0.165	238488.0
53	1433	1	0.165	238488.0
53	1596	1	0.165	238488.0
54	1426	1	0.165	238488.0
54	1434	1	0.165	238488.0
55	1427	1	0.165	238488.0
55	1436	1	0.165	238488.0
56	1426	1	0.165	238488.0
56	1431	1	0.165	238488.0
57	1432	1	0.165	238488.0
57	1929	1	0.165	238488.0
58	1427	1	0.165	238488.0
58	1433	1	0.165	238488.0
59	1428	1	0.165	238488.0
59	1434	1	0.165	238488.0
60	1429	1	0.165	238488.0
60	1435	1	0.165	238488.0
61	1430	1	0.165	238488.0
61	1436	1	0.165	238488.0
62	1425	1	0.165	238488.0
62	1436	1	0.165	238488.0
63	1426	1	0.165	238488.0
63	1939	1	0.165	238488.0
64	1427	1	0.165	238488.0
64	1434	1	0.165	238488.0
65	1428	1	0.165	238488.0
65	1432	1	0.165	238488.0
66	1429	1	0.165	238488.0
66	1433	1	0.165	238488.0
67	1419	1	0.165	238488.0
67	1438	1	0.165	238488.0
68	1437	1	0.165	238488.0
68	1588	1	0.165	238488.0
69	1421	1	0.165	238488.0
69	1439	1	0.165	238488.0
70	1440	1	0.165	238488.0
70	1470	1	0.165	238488.0
71	1441	1	0.165	238488.0
71	1471	1	0.165	238488.0
72	1442	1	0.165	238488.0
72	1472	1	0.165	238488.0
73	1441	1	0.165	238488.0
73	1443	1	0.165	238488.0
74	1442	1	0.165	238488.0
74	1444	1	0.165	238488.0
75	1445	1	0.165	238488.0
75	1608	1	0.165	238488.0
76	1438	1	0.165	238488.0
76	1446	1	0.165	238488.0
77	1435	1	0.165	238488.0
77	1437	1	0.165	238488.0
78	1439	1	0.165	238488.0
78	1448	1	0.165	238488.0
79	1438	1	0.165	238488.0
79	1443	1	0.165	238488.0
80	1444	1	0.165	238488.0
80	1941	1	0.165	238488.0
81	1439	1	0.165	238488.0
81	1445	1	0.165	238488.0
82	1440	1	0.165	238488.0
82	1446	1	0.165	238488.0
83	1441	1	0.165	238488.0
83	1447	1	0.165	238488.0
84	1442	1	0.165	238488.0
84	1448	1	0.165	238488.0
85	1437	1	0.165	238488.0
85	1448	1	0.165	238488.0
86	1438	1	0.165	238488.0
86	1951	1	0.165	238488.0
87	1439	1	0.165	238488.0
87	1446	1	0.165	238488.0
88	1440	1	0.165	238488.0
88	1444	1	0.165	238488.0
89	1441	1	0.165	238488.0
89	1445	1	0.165	238488.0
90	1431	1	0.165	238488.0
90	1442	1	0.165	238488.0
91	1431	1	0.165	238488.0
91	1450	1	0.165	238488.0
92	1449	1	0.165	238488.0
92	1600	1	0.165	238488.0
93	1433	1	0.165	238488.0
93	1451	1	0.165	238488.0
94	1452	1	0.165	238488.0
94	1482	1	0.165	238488.0
95	1453	1	0.165	238488.0
95	1483	1	0.165	238488.0
96	1454	1	0.165	238488.0
96	1484	1	0.165	238488.0
97	1453	1	0.165	238488.0
97	1455	1	0.165	238488.0
98	1454	1	0.165	238488.0
98	1456	1	0.165	238488.0
99	1457	1	0.165	238488.0
99	1620	1	0.165	238488.0
100	1450	1	0.165	238488.0
100	1458	1	0.165	238488.0
101	1451	1	0.165	238488.0
101	1460	1	0.165	238488.0
102	1450	1	0.165	238488.0
102	1455	1	0.165	238488.0
103	1456	1	0.165	238488.0
103	1953	1	0.165	238488.0
104	1451	1	0.165	238488.0
104	1457	1	0.165	238488.0
105	1452	1	0.165	238488.0
105	1458	1	0.165	238488.0
106	1453	1	0.165	238488.0
106	1459	1	0.165	238488.0
107	1454	1	0.165	238488.0
107	1460	1	0.165	238488.0
108	1449	1	0.165	238488.0
108	1460	1	0.165	238488.0
109	1450	1	0.165	238488.0
109	1963	1	0.165	238488.0
110	1451	1	0.165	238488.0
110	1458	1	0.165	238488.0
111	1452	1	0.165	238488.0
111	1456	1	0.165	238488.0
112	1453	1	0.165	238488.0
112	1457	1	0.165	238488.0
113	1443	1	0.165	238488.0
113	1462	1	0.165	238488.0
114	1461	1	0.165	238488.0
114	1612	1	0.165	238488.0
115	1445	1	0.165	238488.0
115	1463	1	0.165	238488.0
116	1464	1	0.165	238488.0
116	1494	1	0.165	238488.0
117	1465	1	0.165	238488.0
117	1495	1	0.165	238488.0
118	1466	1	0.165	238488.0
118	1496	1	0.165	238488.0
119	1465	1	0.165	238488.0
119	1467	1	0.165	238488.0
120	1466	1	0.165	238488.0
120	1468	1	0.165	238488.0
121	1469	1	0.165	238488.0
121	1632	1	0.165	238488.0
122	1462	1	0.165	238488.0
122	1470	1	0.165	238488.0
123	1459	1	0.165	238488.0
123	1461	1	0.165	238488.0
124	1463	1	0.165	238488.0
124	1472	1	0.165	238488.0
125	1462	1	0.165	238488.0
125	1467	1	0.165	238488.0
126	1468	1	0.165	238488.0
126	1965	1	0.165	238488.0
127	1463	1	0.165	238488.0
127	1469	1	0.165	238488.0
128	1464	1	0.165	238488.0
128	1470	1	0.165	238488.0
129	1465	1	0.165	238488.0
129	1471	1	0.165	238488.0
130	1466	1	0.165	238488.0
130	1472	1	0.165	238488.0
131	1461	1	0.165	238488.0
131	1472	1	0.165	238488.0
132	1462	1	0.165	238488.0
132	1975	1	0.165	238488.0
133	1463	1	0.165	238488.0
133	1470	1	0.165	238488.0
134	1464	1	0.165	238488.0
134	1468	1	0.165	238488.0
135	1465	1	0.165	238488.0
135	1469	1	0.165	238488.0
136	1455	1	0.165	238488.0
136	1466	1	0.165	238488.0
137	1455	1	0.165	238488.0
137	1474	1	0.165	238488.0
138	1473	1	0.165	238488.0
138	1624	1	0.165	238488.0
139	1457	1	0.165	238488.0
139	1475	1	0.165	238488.0
140	1476	1	0.165	238488.0
140	1506	1	0.165	238488.0
141	1477	1	0.165	238488.0
141	1507	1	0.165	238488.0
142	1478	1	0.165	238488.0
142	1508	1	0.165	238488.0
143	1477	1	0.165	238488.0
143	1479	1	0.165	238488.0
144	1478	1	0.165	238488.0
144	1480	1	0.165	238488.0
145	1481	1	0.165	238488.0
145	1644	1	0.165	238488.0
146	1474	1	0.165	238488.0
146	1482	1	0.165	238488.0
147	1475	1	0.165	238488.0
147	1484	1	0.165	238488.0
148	1474	1	0.165	238488.0
148	1479	1	0.165	238488.0
149	1480	1	0.165	238488.0
149	1977	1	0.165	238488.0
150	1475	1	0.165	238488.0
150	1481	1	0.165	238488.0
151	1476	1	0.165	238488.0
151	1482	1	0.165	238488.0
152	1477	1	0.165	238488.0
152	1483	1	0.165	238488.0
153	1478	1	0.165	238488.0
153	1484	1	0.165	238488.0
154	1473	1	0.165	238488.0
154	1484	1	0.165	238488.0
155	1474	1	0.165	238488.0
155	1987	1	0.165	238488.0
156	1475	1	0.165	238488.0
156	1482	1	0.165	238488.0
157	1476	1	0.165	238488.0
157	1480	1	0.165	238488.0
158	1477	1	0.165	238488.0
158	1481	1	0.165	238488.0
159	1467	1	0.165	238488.0
159	1486	1	0.165	238488.0
160	1485	1	0.165	238488.0
160	1636	1	0.165	238488.0
161	1469	1	0.165	238488.0
161	1487	1	0.165	238488.0
162	1488	1	0.165	238488.0
162	1518	1	0.165	238488.0
163	1489	1	0.165	238488.0
163	1519	1	0.165	238488.0
164	1490	1	0.165	238488.0
164	1520	1	0.165	238488.0
165	1489	1	0.165	238488.0
165	1491	1	0.165	238488.0
166	1490	1	0.165	238488.0
166	1492	1	0.165	238488.0
167	1493	1	0.165	238488.0
167	1656	1	0.165	238488.0
168	1486	1	0.165	238488.0
168	1494	1	0.165	238488.0
169	1483	1	0.165	238488.0
169	1485	1	0.165	238488.0
170	1487	1	0.165	238488.0
170	1496	1	0.165	238488.0
171	1486	1	0.165	238488.0
171	1491	1	0.165	238488.0
172	1492	1	0.165	238488.0
172	1989	1	0.165	238488.0
173	1487	1	0.165	238488.0
173	1493	1	0.165	238488.0
174	1488	1	0.165	238488.0
174	1494	1	0.165	238488.0
175	1489	1	0.165	238488.0
175	1495	1	0.165	238488.0
176	1490	1	0.165	238488.0
176	1496	1	0.165	238488.0
177	1485	1	0.165	238488.0
177	1496	1	0.165	238488.0
178	1486	1	0.165	238488.0
178	1999	1	0.165	238488.0
179	1487	1	0.165	238488.0
179	1494	1	0.165	238488.0
180	1488	1	0.165	238488.0
180	1492	1	0.165	238488.0
181	1489	1	0.165	238488.0
181	1493	1	0.165	238488.0
182	1479	1	0.165	238488.0
182	1490	1	0.165	238488.0
183	1479	1	0.165	238488.0
183	1498	1	0.165	238488.0
184	1497	1	0.165	238488.0
184	1648	1	0.165	238488.0
185	1481	1	0.165	238488.0
185	1499	1	0.165	238488.0
186	1500	1	0.165	238488.0
186	1530	1	0.165	238488.0
187	1501	1	0.165	238488.0
187	1531	1	0.165	238488.0
188	1502	1	0.165	238488.0
188	1532	1	0.165	238488.0
189	1501	1	0.165	238488.0
189	1503	1	0.165	238488.0
190	1502	1	0.165	238488.0
190	1504	1	0.165	238488.0
191	1505	1	0.165	238488.0
191	1668	1	0.165	238488.0
192	1498	1	0.165	238488.0
192	1506	1	0.165	238488.0
193	1499	1	0.165	238488.0
193	1508	1	0.165	238488.0
194	1498	1	0.165	238488.0
194	1503	1	0.165	238488.0
195	1504	1	0.165	238488.0
195	2001	1	0.165	238488.0
196	1499	1	0.165	238488.0
196	1505	1	0.165	238488.0
197	1500	1	0.165	238488.0
197	1506	1	0.165	238488.0
198	1501	1	0.165	238488.0
198	1507	1	0.165	238488.0
199	1502	1	0.165	238488.0
199	1508	1	0.165	238488.0
200	1497	1	0.165	238488.0
200	1508	1	0.165	238488.0
201	1498	1	0.165	238488.0
201	2011	1	0.165	238488.0
202	1499	1	0.165	238488.0
202	1506	1	0.165	238488.0
203	1500	1	0.165	238488.0
203	1504	1	0.165	238488.0
204	1501	1	0.165	238488.0
204	1505	1	0.165	238488.0
205	1491	1	0.165	238488.0
205	1510	1	0.165	238488.0
206	1509	1	0.165	238488.0
206	1660	1	0.165	238488.0
207	1493	1	0.165	238488.0
207	1511	1	0.165	238488.0
208	1512	1	0.165	238488.0
208	1542	1	0.165	238488.0
209	1513	1	0.165	238488.0
209	1543	1	0.165	238488.0
210	1514	1	0.165	238488.0
210	1544	1	0.165	238488.0
211	1513	1	0.165	238488.0
211	1515	1	0.165	238488.0
212	1514	1	0.165	238488.0
212	1516	1	0.165	238488.0
213	1517	1	0.165	238488.0
213	1680	1	0.165	238488.0
214	1510	1	0.165	238488.0
214	1518	1	0.165	238488.0
215	1507	1	0.165	238488.0
215	1509	1	0.165	238488.0
216	1511	1	0.165	238488.0
216	1520	1	0.165	238488.0
217	1510	1	0.165	238488.0
217	1515	1	0.165	238488.0
218	1516	1	0.165	238488.0
218	2013	1	0.165	238488.0
219	1511	1	0.165	238488.0
219	1517	1	0.165	238488.0
220	1512	1	0.165	238488.0
220	1518	1	0.165	238488.0
221	1513	1	0.165	238488.0
221	1519	1	0.165	238488.0
222	1514	1	0.165	238488.0
222	1520	1	0.165	238488.0
223	1509	1	0.165	238488.0
223	1520	1	0.165	238488.0
224	1510	1	0.165	238488.0
224	2023	1	0.165	238488.0
225	1511	1	0.165	238488.0
225	1518	1	0.165	238488.0
226	1512	1	0.165	238488.0
226	1516	1	0.165	238488.0
227	1513	1	0.165	238488.0
227	1517	1	0.165	238488.0
228	1503	1	0.165	238488.0
228	1514	1	0.165	238488.0
229	1503	1	0.165	238488.0
229	1522	1	0.165	238488.0
230	1521	1	0.165	238488.0
230	1672	1	0.165	238488.0
231	1505	1	0.165	238488.0
231	1523	1	0.165	238488.0
232	1524	1	0.165	238488.0
232	1554	1	0.165	238488.0
233	1525	1	0.165	238488.0
233	1555	1	0.165	238488.0
234	1526	1	0.165	238488.0
234	1556	1	0.165	238488.0
235	1525	1	0.165	238488.0
235	1527	1	0.165	238488.0
236	1526	1	0.165	238488.0
236	1528	1	0.165	238488.0
237	1529	1	0.165	238488.0
237	1692	1	0.165	238488.0
238	1522	1	0.165	238488.0
238	1530	1	0.165	238488.0
239	1523	1	0.165	238488.0
239	1532	1	0.165	238488.0
240	1522	1	0.165	238488.0
240	1527	1	0.165	238488.0
241	1528	1	0.165	238488.0
241	2025	1	0.165	238488.0
242	1523	1	0.165	238488.0
242	1529	1	0.165	238488.0
243	1524	1	0.165	238488.0
243	1530	1	0.165	238488.0
244	1525	1	0.165	238488.0
244	1531	1	0.165	238488.0
245	1526	1	0.165	238488.0
245	1532	1	0.165	238488.0
246	1521	1	0.165	238488.0
246	1532	1	0.165	238488.0
247	1522	1	0.165	238488.0
247	2035	1	0.165	238488.0
248	1523	1	0.165	238488.0
248	1530	1	0.165	238488.0
249	1524	1	0.165	238488.0
249	1528	1	0.165	238488.0
250	1525	1	0.165	238488.0
250	1529	1	0.165	238488.0
251	1515	1	0.165	238488.0
251	1534	1	0.165	238488.0
252	1533	1	0.165	238488.0
252	1684	1	0.165	238488.0
253	1517	1	0.165	238488.0
253	1535	1	0.165	238488.0
254	1536	1	0.165	238488.0
254	1566	1	0.165	238488.0
255	1537	1	0.165	238488.0
255	1567	1	0.165	238488.0
256	1538	1	0.165	238488.0
256	1568	1	0.165	238488.0
257	1537	1	0.165	238488.0
257	1539	1	0.165	238488.0
258	1538	1	0.165	238488.0
258	1540	1	0.165	238488.0
259	1541	1	0.165	238488.0
259	1704	1	0.165	238488.0
260	1534	1	0.165	238488.0
260	1542	1	0.165	238488.0
261	1531	1	0.165	238488.0
261	1533	1	0.165	238488.0
262	1535	1	0.165	238488.0
262	1544	1	0.165	238488.0
263	1534	1	0.165	238488.0
263	1539	1	0.165	238488.0
264	1540	1	0.165	238488.0
264	2037	1	0.165	238488.0
265	1535	1	0.165	238488.0
265	1541	1	0.165	238488.0
266	1536	1	0.165	238488.0
266	1542	1	0.165	238488.0
267	1537	1	0.165	238488.0
267	1543	1	0.165	238488.0
268	1538	1	0.165	238488.0
268	1544	1	0.165	238488.0
269	1533	1	0.165	238488.0
269	1544	1	0.165	238488.0
270	1534	1	0.165	238488.0
270	2047	1	0.165	238488.0
271	1535	1	0.165	238488.0
271	1542	1	0.165	238488.0
272	1536	1	0.165	238488.0
272	1540	1	0.165	238488.0
273	1537	1	0.165	238488.0
273	1541	1	0.165	238488.0
274	1527	1	0.165	238488.0
274	1538	1	0.165	238488.0
275	1527	1	0.165	238488.0
275	1546	1	0.165	238488.0
276	1545	1	0.165	238488.0
276	1696	1	0.165	238488.0
277	1529	1	0.165	238488.0
277	1547	1	0.165	238488.0
278	1549	1	0.165	238488.0
278	1551	1	0.165	238488.0
279	1550	1	0.165	238488.0
279	1552	1	0.165	238488.0
280	1553	1	0.165	238488.0
280	1716	1	0.165	238488.0
281	1546	1	0.165	238488.0
281	1554	1	0.165	238488.0
282	1547	1	0.165	238488.0
282	1556	1	0.165	238488.0
283	1546	1	0.165	238488.0
283	1551	1	0.165	238488.0
284	1552	1	0.165	238488.0
284	2049	1	0.165	238488.0
285	1547	1	0.165	238488.0
285	1553	1	0.165	238488.0
286	1548	1	0.165	238488.0
286	1554	1	0.165	238488.0
287	1549	1	0.165	238488.0
287	1555	1	0.165	238488.0
288	1550	1	0.165	238488.0
288	1556	1	0.165	238488.0
289	1545	1	0.165	238488.0
289	1556	1	0.165	238488.0
290	1546	1	0.165	238488.0
290	2059	1	0.165	238488.0
291	1547	1	0.165	238488.0
291	1554	1	0.165	238488.0
292	1548	1	0.165	238488.0
292	1552	1	0.165	238488.0
293	1549	1	0.165	238488.0
293	1553	1	0.165	238488.0
294	1539	1	0.165	238488.0
294	1558	1	0.165	238488.0
295	1557	1	0.165	238488.0
295	1708	1	0.165	238488.0
296	1541	1	0.165	238488.0
296	1559	1	0.165	238488.0
297	1561	1	0.165	238488.0
297	1563	1	0.165	238488.0
298	1562	1	0.165	238488.0
298	1564	1	0.165	238488.0
299	1565	1	0.165	238488.0
299	1728	1	0.165	238488.0
300	1558	1	0.165	238488.0
300	1566	1	0.165	238488.0
301	1555	1	0.165	238488.0
301	1557	1	0.165	238488.0
302	1559	1	0.165	238488.0
302	1568	1	0.165	238488.0
303	1558	1	0.165	238488.0
303	1563	1	0.165	238488.0
304	1564	1	0.165	238488.0
304	2061	1	0.165	238488.0
305	1559	1	0.165	238488.0
305	1565	1	0.165	238488.0
306	1560	1	0.165	238488.0
306	1566	1	0.165	238488.0
307	1561	1	0.165	238488.0
307	1567	1	0.165	238488.0
308	1562	1	0.165	238488.0
308	1568	1	0.165	238488.0
309	1557	1	0.165	238488.0
309	1568	1	0.165	238488.0
310	1558	1	0.165	238488.0
310	2071	1	0.165	238488.0
311	1559	1	0.165	238488.0
311	1566	1	0.165	238488.0
312	1560	1	0.165	238488.0
312	1564	1	0.165	238488.0
313	1561	1	0.165	238488.0
313	1565	1	0.165	238488.0
314	1551	1	0.165	238488.0
314	1562	1	0.165	238488.0
315	1570	1	0.165	238488.0
315	1719	1	0.165	238488.0
316	1569	1	0.165	238488.0
316	1888	1	0.165	238488.0
317	1572	1	0.165	238488.0
317	1602	1	0.165	238488.0
318	1573	1	0.165	238488.0
318	1603	1	0.165	238488.0
319	1574	1	0.165	238488.0
319	1604	1	0.165	238488.0
320	1573	1	0.165	238488.0
320	1575	1	0.165	238488.0
321	1574	1	0.165	238488.0
321	1576	1	0.165	238488.0
322	1577	1	0.165	238488.0
322	1740	1	0.165	238488.0
323	1570	1	0.165	238488.0
323	1578	1	0.165	238488.0
324	1571	1	0.165	238488.0
324	1580	1	0.165	238488.0
325	1570	1	0.165	238488.0
325	1575	1	0.165	238488.0
326	1401	1	0.165	238488.0
326	1576	1	0.165	238488.0
327	1571	1	0.165	238488.0
327	1577	1	0.165	238488.0
328	1572	1	0.165	238488.0
328	1578	1	0.165	238488.0
329	1573	1	0.165	238488.0
329	1579	1	0.165	238488.0
330	1574	1	0.165	238488.0
330	1580	1	0.165	238488.0
331	1569	1	0.165	238488.0
331	1580	1	0.165	238488.0
332	1411	1	0.165	238488.0
332	1570	1	0.165	238488.0
333	1571	1	0.165	238488.0
333	1578	1	0.165	238488.0
334	1572	1	0.165	238488.0
334	1576	1	0.165	238488.0
335	1573	1	0.165	238488.0
335	1577	1	0.165	238488.0
336	1582	1	0.165	238488.0
336	1731	1	0.165	238488.0
337	1581	1	0.165	238488.0
337	1900	1	0.165	238488.0
338	1584	1	0.165	238488.0
338	1614	1	0.165	238488.0
339	1585	1	0.165	238488.0
339	1615	1	0.165	238488.0
340	1586	1	0.165	238488.0
340	1616	1	0.165	238488.0
341	1585	1	0.165	238488.0
341	1587	1	0.165	238488.0
342	1586	1	0.165	238488.0
342	1588	1	0.165	238488.0
343	1589	1	0.165	238488.0
343	1752	1	0.165	238488.0
344	1582	1	0.165	238488.0
344	1590	1	0.165	238488.0
345	1579	1	0.165	238488.0
345	1581	1	0.165	238488.0
346	1583	1	0.165	238488.0
346	1592	1	0.165	238488.0
347	1582	1	0.165	238488.0
347	1587	1	0.165	238488.0
348	1413	1	0.165	238488.0
348	1588	1	0.165	238488.0
349	1583	1	0.165	238488.0
349	1589	1	0.165	238488.0
350	1584	1	0.165	238488.0
350	1590	1	0.165	238488.0
351	1585	1	0.165	238488.0
351	1591	1	0.165	238488.0
352	1586	1	0.165	238488.0
352	1592	1	0.165	238488.0
353	1581	1	0.165	238488.0
353	1592	1	0.165	238488.0
354	1423	1	0.165	238488.0
354	1582	1	0.165	238488.0
355	1583	1	0.165	238488.0
355	1590	1	0.165	238488.0
356	1584	1	0.165	238488.0
356	1588	1	0.165	238488.0
357	1585	1	0.165	238488.0
357	1589	1	0.165	238488.0
358	1575	1	0.165	238488.0
358	1586	1	0.165	238488.0
359	1575	1	0.165	238488.0
359	1594	1	0.165	238488.0
360	1593	1	0.165	238488.0
360	1744	1	0.165	238488.0
361	1577	1	0.165	238488.0
361	1595	1	0.165	238488.0
362	1596	1	0.165	238488.0
362	1626	1	0.165	238488.0
363	1597	1	0.165	238488.0
363	1627	1	0.165	238488.0
364	1598	1	0.165	238488.0
364	1628	1	0.165	238488.0
365	1597	1	0.165	238488.0
365	1599	1	0.165	238488.0
366	1598	1	0.165	238488.0
366	1600	1	0.165	238488.0
367	1601	1	0.165	238488.0
367	1764	1	0.165	238488.0
368	1594	1	0.165	238488.0
368	1602	1	0.165	238488.0
369	1595	1	0.165	238488.0
369	1604	1	0.165	238488.0
370	1594	1	0.165	238488.0
370	1599	1	0.165	238488.0
371	1425	1	0.165	238488.0
371	1600	1	0.165	238488.0
372	1595	1	0.165	238488.0
372	1601	1	0.165	238488.0
373	1596	1	0.165	238488.0
373	1602	1	0.165	238488.0
374	1597	1	0.165	238488.0
374	1603	1	0.165	238488.0
375	1598	1	0.165	238488.0
375	1604	1	0.165	238488.0
376	1593	1	0.165	238488.0
376	1604	1	0.165	238488.0
377	1435	1	0.165	238488.0
377	1594	1	0.165	238488.0
378	1595	1	0.165	238488.0
378	1602	1	0.165	238488.0
379	1596	1	0.165	238488.0
379	1600	1	0.165	238488.0
380	1597	1	0.165	238488.0
380	1601	1	0.165	238488.0
381	1587	1	0.165	238488.0
381	1606	1	0.165	238488.0
382	1605	1	0.165	238488.0
382	1756	1	0.165	238488.0
383	1589	1	0.165	238488.0
383	1607	1	0.165	238488.0
384	1608	1	0.165	238488.0
384	1638	1	0.165	238488.0
385	1609	1	0.165	238488.0
385	1639	1	0.165	238488.0
386	1610	1	0.165	238488.0
386	1640	1	0.165	238488.0
387	1609	1	0.165	238488.0
387	1611	1	0.165	238488.0
388	1610	1	0.165	238488.0
388	1612	1	0.165	238488.0
389	1613	1	0.165	238488.0
389	1776	1	0.165	238488.0
390	1606	1	0.165	238488.0
390	1614	1	0.165	238488.0
391	1603	1	0.165	238488.0
391	1605	1	0.165	238488.0
392	1607	1	0.165	238488.0
392	1616	1	0.165	238488.0
393	1606	1	0.165	238488.0
393	1611	1	0.165	238488.0
394	1437	1	0.165	238488.0
394	1612	1	0.165	238488.0
395	1607	1	0.165	238488.0
395	1613	1	0.165	238488.0
396	1608	1	0.165	238488.0
396	1614	1	0.165	238488.0
397	1609	1	0.165	238488.0
397	1615	1	0.165	238488.0
398	1610	1	0.165	238488.0
398	1616	1	0.165	238488.0
399	1605	1	0.165	238488.0
399	1616	1	0.165	238488.0
400	1447	1	0.165	238488.0
400	1606	1	0.165	238488.0
401	1607	1	0.165	238488.0
401	1614	1	0.165	238488.0
402	1608	1	0.165	238488.0
402	1612	1	0.165	238488.0
403	1609	1	0.165	238488.0
403	1613	1	0.165	238488.0
404	1599	1	0.165	238488.0
404	1610	1	0.165	238488.0
405	1599	1	0.165	238488.0
405	1618	1	0.165	238488.0
406	1617	1	0.165	238488.0
406	1768	1	0.165	238488.0
407	1601	1	0.165	238488.0
407	1619	1	0.165	238488.0
408	1620	1	0.165	238488.0
408	1650	1	0.165	238488.0
409	1621	1	0.165	238488.0
409	1651	1	0.165	238488.0
410	1622	1	0.165	238488.0
410	1652	1	0.165	238488.0
411	1621	1	0.165	238488.0
411	1623	1	0.165	238488.0
412	1622	1	0.165	238488.0
412	1624	1	0.165	238488.0
413	1625	1	0.165	238488.0
413	1788	1	0.165	238488.0
414	1618	1	0.165	238488.0
414	1626	1	0.165	238488.0
415	1619	1	0.165	238488.0
415	1628	1	0.165	238488.0
416	1618	1	0.165	238488.0
416	1623	1	0.165	238488.0
417	1449	1	0.165	238488.0
417	1624	1	0.165	238488.0
418	1619	1	0.165	238488.0
418	1625	1	0.165	238488.0
419	1620	1	0.165	238488.0
419	1626	1	0.165	238488.0
420	1621	1	0.165	238488.0
420	1627	1	0.165	238488.0
421	1622	1	0.165	238488.0
421	1628	1	0.165	238488.0
422	1617	1	0.165	238488.0
422	1628	1	0.165	238488.0
423	1459	1	0.165	238488.0
423	1618	1	0.165	238488.0
424	1619	1	0.165	238488.0
424	1626	1	0.165	238488.0
425	1620	1	0.165	238488.0
425	1624	1	0.165	238488.0
426	1621	1	0.165	238488.0
426	1625	1	0.165	238488.0
427	1611	1	0.165	238488.0
427	1630	1	0.165	238488.0
428	1629	1	0.165	238488.0
428	1780	1	0.165	238488.0
429	1613	1	0.165	238488.0
429	1631	1	0.165	238488.0
430	1632	1	0.165	238488.0
430	1662	1	0.165	238488.0
431	1633	1	0.165	238488.0
431	1663	1	0.165	238488.0
432	1634	1	0.165	238488.0
432	1664	1	0.165	238488.0
433	1633	1	0.165	238488.0
433	1635	1	0.165	238488.0
434	1634	1	0.165	238488.0
434	1636	1	0.165	238488.0
435	1637	1	0.165	238488.0
435	1800	1	0.165	238488.0
436	1630	1	0.165	238488.0
436	1638	1	0.165	238488.0
437	1627	1	0.165	238488.0
437	1629	1	0.165	238488.0
438	1631	1	0.165	238488.0
438	1640	1	0.165	238488.0
439	1630	1	0.165	238488.0
439	1635	1	0.165	238488.0
440	1461	1	0.165	238488.0
440	1636	1	0.165	238488.0
441	1631	1	0.165	238488.0
441	1637	1	0.165	238488.0
442	1632	1	0.165	238488.0
442	1638	1	0.165	238488.0
443	1633	1	0.165	238488.0
443	1639	1	0.165	238488.0
444	1634	1	0.165	238488.0
444	1640	1	0.165	238488.0
445	1629	1	0.165	238488.0
445	1640	1	0.165	238488.0
446	1471	1	0.165	238488.0
446	1630	1	0.165	238488.0
447	1631	1	0.165	238488.0
447	1638	1	0.165	238488.0
448	1632	1	0.165	238488.0
448	1636	1	0.165	238488.0
449	1633	1	0.165	238488.0
449	1637	1	0.165	238488.0
450	1623	1	0.165	238488.0
450	1634	1	0.165	238488.0
451	1623	1	0.165	238488.0
451	1642	1	0.165	238488.0
452	1641	1	0.165	238488.0
452	1792	1	0.165	238488.0
453	1625	1	0.165	238488.0
453	1643	1	0.165	238488.0
454	1644	1	0.165	238488.0
454	1674	1	0.165	238488.0
455	1645	1	0.165	238488.0
455	1675	1	0.165	238488.0
456	1646	1	0.165	238488.0
456	1676	1	0.165	238488.0
457	1645	1	0.165	238488.0
457	1647	1	0.165	238488.0
458	1646	1	0.165	238488.0
458	1648	1	0.165	238488.0
459	1649	1	0.165	238488.0
459	1812	1	0.165	238488.0
460	1642	1	0.165	238488.0
460	1650	1	0.165	238488.0
461	1643	1	0.165	238488.0
461	1652	1	0.165	238488.0
462	1642	1	0.165	238488.0
462	1647	1	0.165	238488.0
463	1473	1	0.165	238488.0
463	1648	1	0.165	238488.0
464	1643	1	0.165	238488.0
464	1649	1	0.165	238488.0
465	1644	1	0.165	238488.0
465	1650	1	0.165	238488.0
466	1645	1	0.165	238488.0
466	1651	1	0.165	238488.0
467	1646	1	0.165	238488.0
467	1652	1	0.165	238488.0
468	1641	1	0.165	238488.0
468	1652	1	0.165	238488.0
469	1483	1	0.165	238488.0
469	1642	1	0.165	238488.0
470	1643	1	0.165	238488.0
470	1650	1	0.165	238488.0
471	1644	1	0.165	238488.0
471	1648	1	0.165	238488.0
472	1645	1	0.165	238488.0
472	1649	1	0.165	238488.0
473	1635	1	0.165	238488.0
473	1654	1	0.165	238488.0
474	1653	1	0.165	238488.0
474	1804	1	0.165	238488.0
475	1637	1	0.165	238488.0
475	1655	1	0.165	238488.0
476	1656	1	0.165	238488.0
476	1686	1	0.165	238488.0
477	1657	1	0.165	238488.0
477	1687	1	0.165	238488.0
478	1658	1	0.165	238488.0
478	1688	1	0.165	238488.0
479	1657	1	0.165	238488.0
479	1659	1	0.165	238488.0
480	1658	1	0.165	238488.0
480	1660	1	0.165	238488.0
481	1661	1	0.165	238488.0
481	1824	1	0.165	238488.0
482	1654	1	0.165	238488.0
482	1662	1	0.165	238488.0
483	1651	1	0.165	238488.0
483	1653	1	0.165	238488.0
484	1655	1	0.165	238488.0
484	1664	1	0.165	238488.0
485	1654	1	0.165	238488.0
485	1659	1	0.165	238488.0
486	1485	1	0.165	238488.0
486	1660	1	0.165	238488.0
487	1655	1	0.165	238488.0
487	1661	1	0.165	238488.0
488	1656	1	0.165	238488.0
488	1662	1	0.165	238488.0
489	1657	1	0.165	238488.0
489	1663	1	0.165	238488.0
490	1658	1	0.165	238488.0
490	1664	1	0.165	238488.0
491	1653	1	0.165	238488.0
491	1664	1	0.165	238488.0
492	1495	1	0.165	238488.0
492	1654	1	0.165	238488.0
493	1655	1	0.165	238488.0
493	1662	1	0.165	238488.0
494	1656	1	0.165	238488.0
494	1660	1	0.165	238488.0
495	1657	1	0.165	238488.0
495	1661	1	0.165	238488.0
496	1647	1	0.165	238488.0
496	1658	1	0.165	238488.0
497	1647	1	0.165	238488.0
497	1666	1	0.165	238488.0
498	1665	1	0.165	238488.0
498	1816	1	0.165	238488.0
499	1649	1	0.165	238488.0
499	1667	1	0.165	238488.0
500	1668	1	0.165	238488.0
500	1698	1	0.165	238488.0
501	1669	1	0.165	238488.0
501	1699	1	0.165	238488.0
502	1670	1	0.165	238488.0
502	1700	1	0.165	238488.0
503	1669	1	0.165	238488.0
503	1671	1	0.165	238488.0
504	1670	1	0.165	238488.0
504	1672	1	0.165	238488.0
505	1673	1	0.165	238488.0
505	1836	1	0.165	238488.0
506	1666	1	0.165	238488.0
506	1674	1	0.165	238488.0
507	1667	1	0.165	238488.0
507	1676	1	0.165	238488.0
508	1666	1	0.165	238488.0
508	1671	1	0.165	238488.0
509	1497	1	0.165	238488.0
509	1672	1	0.165	238488.0
510	1667	1	0.165	238488.0
510	1673	1	0.165	238488.0
511	1668	1	0.165	238488.0
511	1674	1	0.165	238488.0
512	1669	1	0.165	238488.0
512	1675	1	0.165	238488.0
513	1670	1	0.165	238488.0
513	1676	1	0.165	238488.0
514	1665	1	0.165	238488.0
514	1676	1	0.165	238488.0
515	1507	1	0.165	238488.0
515	1666	1	0.165	238488.0
516	1667	1	0.165	238488.0
516	1674	1	0.165	238488.0
517	1668	1	0.165	238488.0
517	1672	1	0.165	238488.0
518	1669	1	0.165	238488.0
518	1673	1	0.165	238488.0
519	1659	1	0.165	238488.0
519	1678	1	0.165	238488.0
520	1677	1	0.165	238488.0
520	1828	1	0.165	238488.0
521	1661	1	0.165	238488.0
521	1679	1	0.165	238488.0
522	1680	1	0.165	238488.0
522	1710	1	0.165	238488.0
523	1681	1	0.165	238488.0
523	1711	1	0.165	238488.0
524	1682	1	0.165	238488.0
524	1712	1	0.165	238488.0
525	1681	1	0.165	238488.0
525	1683	1	0.165	238488.0
526	1682	1	0.165	238488.0
526	1684	1	0.165	238488.0
527	1685	1	0.165	238488.0
527	1848	1	0.165	238488.0
528	1678	1	0.165	238488.0
528	1686	1	0.165	238488.0
529	1675	1	0.165	238488.0
529	1677	1	0.165	238488.0
530	1679	1	0.165	238488.0
530	1688	1	0.165	238488.0
531	1678	1	0.165	238488.0
531	1683	1	0.165	238488.0
532	1509	1	0.165	238488.0
532	1684	1	0.165	238488.0
533	1679	1	0.165	238488.0
533	1685	1	0.165	238488.0
534	1680	1	0.165	238488.0
534	1686	1	0.165	238488.0
535	1681	1	0.165	238488.0
535	1687	1	0.165	238488.0
536	1682	1	0.165	238488.0
536	1688	1	0.165	238488.0
537	1677	1	0.165	238488.0
537	1688	1	0.165	238488.0
538	1519	1	0.165	238488.0
538	1678	1	0.165	238488.0
539	1679	1	0.165	238488.0
539	1686	1	0.165	238488.0
540	1680	1	0.165	238488.0
540	1684	1	0.165	238488.0
541	1681	1	0.165	238488.0
541	1685	1	0.165	238488.0
542	1671	1	0.165	238488.0
542	1682	1	0.165	238488.0
543	1671	1	0.165	238488.0
543	1690	1	0.165	238488.0
544	1689	1	0.165	238488.0
544	1840	1	0.165	238488.0
545	1673	1	0.165	238488.0
545	1691	1	0.165	238488.0
546	1692	1	0.165	238488.0
546	1722	1	0.165	238488.0
547	1693	1	0.165	238488.0
547	1723	1	0.165	238488.0
548	1694	1	0.165	238488.0
548	1724	1	0.165	238488.0
549	1693	1	0.165	238488.0
549	1695	1	0.165	238488.0
550	1694	1	0.165	238488.0
550	1696	1	0.165	238488.0
551	1697	1	0.165	238488.0
551	1860	1	0.165	238488.0
552	1690	1	0.165	238488.0
552	1698	1	0.165	238488.0
553	1691	1	0.165	238488.0
553	1700	1	0.165	238488.0
554	1690	1	0.165	238488.0
554	1695	1	0.165	238488.0
555	1521	1	0.165	238488.0
555	1696	1	0.165	238488.0
556	1691	1	0.165	238488.0
556	1697	1	0.165	238488.0
557	1692	1	0.165	238488.0
557	1698	1	0.165	238488.0
558	1693	1	0.165	238488.0
558	1699	1	0.165	238488.0
559	1694	1	0.165	238488.0
559	1700	1	0.165	238488.0
560	1689	1	0.165	238488.0
560	1700	1	0.165	238488.0
561	1531	1	0.165	238488.0
561	1690	1	0.165	238488.0
562	1691	1	0.165	238488.0
562	1698	1	0.165	238488.0
563	1692	1	0.165	238488.0
563	1696	1	0.165	238488.0
564	1693	1	0.165	238488.0
564	1697	1	0.165	238488.0
565	1683	1	0.165	238488.0
565	1702	1	0.165	238488.0
566	1701	1	0.165	238488.0
566	1852	1	0.165	238488.0
567	1685	1	0.165	238488.0
567	1703	1	0.165	238488.0
568	1704	1	0.165	238488.0
568	1734	1	0.165	238488.0
569	1705	1	0.165	238488.0
569	1735	1	0.165	238488.0
570	1706	1	0.165	238488.0
570	1736	1	0.165	238488.0
571	1705	1	0.165	238488.0
571	1707	1	0.165	238488.0
572	1706	1	0.165	238488.0
572	1708	1	0.165	238488.0
573	1709	1	0.165	238488.0
573	1872	1	0.165	238488.0
574	1702	1	0.165	238488.0
574	1710	1	0.165	238488.0
575	1699	1	0.165	238488.0
575	1701	1	0.165	238488.0
576	1703	1	0.165	238488.0
576	1712	1	0.165	238488.0
577	1702	1	0.165	238488.0
577	1707	1	0.165	238488.0
578	1533	1	0.165	238488.0
578	1708	1	0.165	238488.0
579	1703	1	0.165	238488.0
579	1709	1	0.165	238488.0
580	1704	1	0.165	238488.0
580	1710	1	0.165	238488.0
581	1705	1	0.165	238488.0
581	1711	1	0.165	238488.0
582	1706	1	0.165	238488.0
582	1712	1	0.165	238488.0
583	1701	1	0.165	238488.0
583	1712	1	0.165	238488.0
584	1543	1	0.165	238488.0
584	1702	1	0.165	238488.0
585	1703	1	0.165	238488.0
585	1710	1	0.165	238488.0
586	1704	1	0.165	238488.0
586	1708	1	0.165	238488.0
587	1705	1	0.165	238488.0
587	1709	1	0.165	238488.0
588	1695	1	0.165	238488.0
588	1706	1	0.165	238488.0
589	1695	1	0.165	238488.0
589	1714	1	0.165	238488.0
590	1713	1	0.165	238488.0
590	1864	1	0.165	238488.0
591	1697	1	0.165	238488.0
591	1715	1	0.165	238488.0
592	1717	1	0.165	238488.0
592	1719	1	0.165	238488.0
593	1718	1	0.165	238488.0
593	1720	1	0.165	238488.0
594	1721	1	0.165	238488.0
594	1884	1	0.165	238488.0
595	1714	1	0.165	238488.0
595	1722	1	0.165	238488.0
596	1715	1	0.165	238488.0
596	1724	1	0.165	238488.0
597	1714	1	0.165	238488.0
597	1719	1	0.165	238488.0
598	1545	1	0.165	238488.0
598	1720	1	0.165	238488.0
599	1715	1	0.165	238488.0
599	1721	1	0.165	238488.0
600	1716	1	0.165	238488.0
600	1722	1	0.165	238488.0
601	1717	1	0.165	238488.0
601	1723	1	0.165	238488.0
602	1718	1	0.165	238488.0
602	1724	1	0.165	238488.0
603	1713	1	0.165	238488.0
603	1724	1	0.165	238488.0
604	1555	1	0.165	238488.0
604	1714	1	0.165	238488.0
605	1715	1	0.165	238488.0
605	1722	1	0.165	238488.0
606	1716	1	0.165	238488.0
606	1720	1	0.165	238488.0
607	1717	1	0.165	238488.0
607	1721	1	0.165	238488.0
608	1707	1	0.165	238488.0
608	1726	1	0.165	238488.0
609	1725	1	0.165	238488.0
609	1876	1	0.165	238488.0
610	1709	1	0.165	238488.0
610	1727	1	0.165	238488.0
611	1729	1	0.165	238488.0
611	1731	1	0.165	238488.0
612	1730	1	0.165	238488.0
612	1732	1	0.165	238488.0
613	1733	1	0.165	238488.0
613	1896	1	0.165	238488.0
614	1726	1	0.165	238488.0
614	1734	1	0.165	238488.0
615	1723	1	0.165	238488.0
615	1725	1	0.165	238488.0
616	1727	1	0.165	238488.0
616	1736	1	0.165	238488.0
617	1726	1	0.165	238488.0
617	1731	1	0.165	238488.0
618	1557	1	0.165	238488.0
618	1732	1	0.165	238488.0
619	1727	1	0.165	238488.0
619	1733	1	0.165	238488.0
620	1728	1	0.165	238488.0
620	1734	1	0.165	238488.0
621	1729	1	0.165	238488.0
621	1735	1	0.165	238488.0
622	1730	1	0.165	238488.0
622	1736	1	0.165	238488.0
623	1725	1	0.165	238488.0
623	1736	1	0.165	238488.0
624	1567	1	0.165	238488.0
624	1726	1	0.165	238488.0
625	1727	1	0.165	238488.0
625	1734	1	0.165	238488.0
626	1728	1	0.165	238488.0
626	1732	1	0.165	238488.0
627	1729	1	0.165	238488.0
627	1733	1	0.165	238488.0
628	1719	1	0.165	238488.0
628	1730	1	0.165	238488.0
629	1738	1	0.165	238488.0
629	1887	1	0.165	238488.0
630	1737	1	0.165	238488.0
630	2056	1	0.165	238488.0
631	1740	1	0.165	238488.0
631	1770	1	0.165	238488.0
632	1741	1	0.165	238488.0
632	1771	1	0.165	238488.0
633	1742	1	0.165	238488.0
633	1772	1	0.165	238488.0
634	1741	1	0.165	238488.0
634	1743	1	0.165	238488.0
635	1742	1	0.165	238488.0
635	1744	1	0.165	238488.0
636	1745	1	0.165	238488.0
636	1908	1	0.165	238488.0
637	1738	1	0.165	238488.0
637	1746	1	0.165	238488.0
638	1739	1	0.165	238488.0
638	1748	1	0.165	238488.0
639	1738	1	0.165	238488.0
639	1743	1	0.165	238488.0
640	1569	1	0.165	238488.0
640	1744	1	0.165	238488.0
641	1739	1	0.165	238488.0
641	1745	1	0.165	238488.0
642	1740	1	0.165	238488.0
642	1746	1	0.165	238488.0
643	1741	1	0.165	238488.0
643	1747	1	0.165	238488.0
644	1742	1	0.165	238488.0
644	1748	1	0.165	238488.0
645	1737	1	0.165	238488.0
645	1748	1	0.165	238488.0
646	1579	1	0.165	238488.0
646	1738	1	0.165	238488.0
647	1739	1	0.165	238488.0
647	1746	1	0.165	238488.0
648	1740	1	0.165	238488.0
648	1744	1	0.165	238488.0
649	1741	1	0.165	238488.0
649	1745	1	0.165	238488.0
650	1750	1	0.165	238488.0
650	1899	1	0.165	238488.0
651	1749	1	0.165	238488.0
651	2068	1	0.165	238488.0
652	1752	1	0.165	238488.0
652	1782	1	0.165	238488.0
653	1753	1	0.165	238488.0
653	1783	1	0.165	238488.0
654	1754	1	0.165	238488.0
654	1784	1	0.165	238488.0
655	1753	1	0.165	238488.0
655	1755	1	0.165	238488.0
656	1754	1	0.165	238488.0
656	1756	1	0.165	238488.0
657	1757	1	0.165	238488.0
657	1920	1	0.165	238488.0
658	1750	1	0.165	238488.0
658	1758	1	0.165	238488.0
659	1747	1	0.165	238488.0
659	1749	1	0.165	238488.0
660	1751	1	0.165	238488.0
660	1760	1	0.165	238488.0
661	1750	1	0.165	238488.0
661	1755	1	0.165	238488.0
662	1581	1	0.165	238488.0
662	1756	1	0.165	238488.0
663	1751	1	0.165	238488.0
663	1757	1	0.165	238488.0
664	1752	1	0.165	238488.0
664	1758	1	0.165	238488.0
665	1753	1	0.165	238488.0
665	1759	1	0.165	238488.0
666	1754	1	0.165	238488.0
666	1760	1	0.165	238488.0
667	1749	1	0.165	238488.0
667	1760	1	0.165	238488.0
668	1591	1	0.165	238488.0
668	1750	1	0.165	238488.0
669	1751	1	0.165	238488.0
669	1758	1	0.165	238488.0
670	1752	1	0.165	238488.0
670	1756	1	0.165	238488.0
671	1753	1	0.165	238488.0
671	1757	1	0.165	238488.0
672	1743	1	0.165	238488.0
672	1754	1	0.165	238488.0
673	1743	1	0.165	238488.0
673	1762	1	0.165	238488.0
674	1761	1	0.165	238488.0
674	1912	1	0.165	238488.0
675	1745	1	0.165	238488.0
675	1763	1	0.165	238488.0
676	1764	1	0.165	238488.0
676	1794	1	0.165	238488.0
677	1765	1	0.165	238488.0
677	1795	1	0.165	238488.0
678	1766	1	0.165	238488.0
678	1796	1	0.165	238488.0
679	1765	1	0.165	238488.0
679	1767	1	0.165	238488.0
680	1766	1	0.165	238488.0
680	1768	1	0.165	238488.0
681	1769	1	0.165	238488.0
681	1932	1	0.165	238488.0
682	1762	1	0.165	238488.0
682	1770	1	0.165	238488.0
683	1763	1	0.165	238488.0
683	1772	1	0.165	238488.0
684	1762	1	0.165	238488.0
684	1767	1	0.165	238488.0
685	1593	1	0.165	238488.0
685	1768	1	0.165	238488.0
686	1763	1	0.165	238488.0
686	1769	1	0.165	238488.0
687	1764	1	0.165	238488.0
687	1770	1	0.165	238488.0
688	1765	1	0.165	238488.0
688	1771	1	0.165	238488.0
689	1766	1	0.165	238488.0
689	1772	1	0.165	238488.0
690	1761	1	0.165	238488.0
690	1772	1	0.165	238488.0
691	1603	1	0.165	238488.0
691	1762	1	0.165	238488.0
692	1763	1	0.165	238488.0
692	1770	1	0.165	238488.0
693	1764	1	0.165	238488.0
693	1768	1	0.165	238488.0
694	1765	1	0.165	238488.0
694	1769	1	0.165	238488.0
695	1755	1	0.165	238488.0
695	1774	1	0.165	238488.0
696	1773	1	0.165	238488.0
696	1924	1	0.165	238488.0
697	1757	1	0.165	238488.0
697	1775	1	0.165	238488.0
698	1776	1	0.165	238488.0
698	1806	1	0.165	238488.0
699	1777	1	0.165	238488.0
699	1807	1	0.165	238488.0
700	1778	1	0.165	238488.0
700	1808	1	0.165	238488.0
701	1777	1	0.165	238488.0
701	1779	1	0.165	238488.0
702	1778	1	0.165	238488.0
702	1780	1	0.165	238488.0
703	1781	1	0.165	238488.0
703	1944	1	0.165	238488.0
704	1774	1	0.165	238488.0
704	1782	1	0.165	238488.0
705	1771	1	0.165	238488.0
705	1773	1	0.165	238488.0
706	1775	1	0.165	238488.0
706	1784	1	0.165	238488.0
707	1774	1	0.165	238488.0
707	1779	1	0.165	238488.0
708	1605	1	0.165	238488.0
708	1780	1	0.165	238488.0
709	1775	1	0.165	238488.0
709	1781	1	0.165	238488.0
710	1776	1	0.165	238488.0
710	1782	1	0.165	238488.0
711	1777	1	0.165	238488.0
711	1783	1	0.165	238488.0
712	1778	1	0.165	238488.0
712	1784	1	0.165	238488.0
713	1773	1	0.165	238488.0
713	1784	1	0.165	238488.0
714	1615	1	0.165	238488.0
714	1774	1	0.165	238488.0
715	1775	1	0.165	238488.0
715	1782	1	0.165	238488.0
716	1776	1	0.165	238488.0
716	1780	1	0.165	238488.0
717	1777	1	0.165	238488.0
717	1781	1	0.165	238488.0
718	1767	1	0.165	238488.0
718	1778	1	0.165	238488.0
719	1767	1	0.165	238488.0
719	1786	1	0.165	238488.0
720	1785	1	0.165	238488.0
720	1936	1	0.165	238488.0
721	1769	1	0.165	238488.0
721	1787	1	0.165	238488.0
722	1788	1	0.165	238488.0
722	1818	1	0.165	238488.0
723	1789	1	0.165	238488.0
723	1819	1	0.165	238488.0
724	1790	1	0.165	238488.0
724	1820	1	0.165	238488.0
725	1789	1	0.165	238488.0
725	1791	1	0.165	238488.0
726	1790	1	0.165	238488.0
726	1792	1	0.165	238488.0
727	1793	1	0.165	238488.0
727	1956	1	0.165	238488.0
728	1786	1	0.165	238488.0
728	1794	1	0.165	238488.0
729	1787	1	0.165	238488.0
729	1796	1	0.165	238488.0
730	1786	1	0.165	238488.0
730	1791	1	0.165	238488.0
731	1617	1	0.165	238488.0
731	1792	1	0.165	238488.0
732	1787	1	0.165	238488.0
732	1793	1	0.165	238488.0
733	1788	1	0.165	238488.0
733	1794	1	0.165	238488.0
734	1789	1	0.165	238488.0
734	1795	1	0.165	238488.0
735	1790	1	0.165	238488.0
735	1796	1	0.165	238488.0
736	1785	1	0.165	238488.0
736	1796	1	0.165	238488.0
737	1627	1	0.165	238488.0
737	1786	1	0.165	238488.0
738	1787	1	0.165	238488.0
738	1794	1	0.165	238488.0
739	1788	1	0.165	238488.0
739	1792	1	0.165	238488.0
740	1789	1	0.165	238488.0
740	1793	1	0.165	238488.0
741	1779	1	0.165	238488.0
741	1798	1	0.165	238488.0
742	1797	1	0.165	238488.0
742	1948	1	0.165	238488.0
743	1781	1	0.165	238488.0
743	1799	1	0.165	238488.0
744	1800	1	0.165	238488.0
744	1830	1	0.165	238488.0
745	1801	1	0.165	238488.0
745	1831	1	0.165	238488.0
746	1802	1	0.165	238488.0
746	1832	1	0.165	238488.0
747	1801	1	0.165	238488.0
747	1803	1	0.165	238488.0
748	1802	1	0.165	238488.0
748	1804	1	0.165	238488.0
749	1805	1	0.165	238488.0
749	1968	1	0.165	238488.0
750	1798	1	0.165	238488.0
750	1806	1	0.165	238488.0
751	1795	1	0.165	238488.0
751	1797	1	0.165	238488.0
752	1799	1	0.165	238488.0
752	1808	1	0.165	238488.0
753	1798	1	0.165	238488.0
753	1803	1	0.165	238488.0
754	1629	1	0.165	238488.0
754	1804	1	0.165	238488.0
755	1799	1	0.165	238488.0
755	1805	1	0.165	238488.0
756	1800	1	0.165	238488.0
756	1806	1	0.165	238488.0
757	1801	1	0.165	238488.0
757	1807	1	0.165	238488.0
758	1802	1	0.165	238488.0
758	1808	1	0.165	238488.0
759	1797	1	0.165	238488.0
759	1808	1	0.165	238488.0
760	1639	1	0.165	238488.0
760	1798	1	0.165	238488.0
761	1799	1	0.165	238488.0
761	1806	1	0.165	238488.0
762	1800	1	0.165	238488.0
762	1804	1	0.165	238488.0
763	1801	1	0.165	238488.0
763	1805	1	0.165	238488.0
764	1791	1	0.165	238488.0
764	1802	1	0.165	238488.0
765	1791	1	0.165	238488.0
765	1810	1	0.165	238488.0
766	1809	1	0.165	238488.0
766	1960	1	0.165	238488.0
767	1793	1	0.165	238488.0
767	1811	1	0.165	238488.0
768	1812	1	0.165	238488.0
768	1842	1	0.165	238488.0
769	1813	1	0.165	238488.0
769	1843	1	0.165	238488.0
770	1814	1	0.165	238488.0
770	1844	1	0.165	238488.0
771	1813	1	0.165	238488.0
771	1815	1	0.165	238488.0
772	1814	1	0.165	238488.0
772	1816	1	0.165	238488.0
773	1817	1	0.165	238488.0
773	1980	1	0.165	238488.0
774	1810	1	0.165	238488.0
774	1818	1	0.165	238488.0
775	1811	1	0.165	238488.0
775	1820	1	0.165	238488.0
776	1810	1	0.165	238488.0
776	1815	1	0.165	238488.0
777	1641	1	0.165	238488.0
777	1816	1	0.165	238488.0
778	1811	1	0.165	238488.0
778	1817	1	0.165	238488.0
779	1812	1	0.165	238488.0
779	1818	1	0.165	238488.0
780	1813	1	0.165	238488.0
780	1819	1	0.165	238488.0
781	1814	1	0.165	238488.0
781	1820	1	0.165	238488.0
782	1809	1	0.165	238488.0
782	1820	1	0.165	238488.0
783	1651	1	0.165	238488.0
783	1810	1	0.165	238488.0
784	1811	1	0.165	238488.0
784	1818	1	0.165	238488.0
785	1812	1	0.165	238488.0
785	1816	1	0.165	238488.0
786	1813	1	0.165	238488.0
786	1817	1	0.165	238488.0
787	1803	1	0.165	238488.0
787	1822	1	0.165	238488.0
788	1821	1	0.165	238488.0
788	1972	1	0.165	238488.0
789	1805	1	0.165	238488.0
789	1823	1	0.165	238488.0
790	1824	1	0.165	238488.0
790	1854	1	0.165	238488.0
791	1825	1	0.165	238488.0
791	1855	1	0.165	238488.0
792	1826	1	0.165	238488.0
792	1856	1	0.165	238488.0
793	1825	1	0.165	238488.0
793	1827	1	0.165	238488.0
794	1826	1	0.165	238488.0
794	1828	1	0.165	238488.0
795	1829	1	0.165	238488.0
795	1992	1	0.165	238488.0
796	1822	1	0.165	238488.0
796	1830	1	0.165	238488.0
797	1819	1	0.165	238488.0
797	1821	1	0.165	238488.0
798	1823	1	0.165	238488.0
798	1832	1	0.165	238488.0
799	1822	1	0.165	238488.0
799	1827	1	0.165	238488.0
800	1653	1	0.165	238488.0
800	1828	1	0.165	238488.0
801	1823	1	0.165	238488.0
801	1829	1	0.165	238488.0
802	1824	1	0.165	238488.0
802	1830	1	0.165	238488.0
803	1825	1	0.165	238488.0
803	1831	1	0.165	238488.0
804	1826	1	0.165	238488.0
804	1832	1	0.165	238488.0
805	1821	1	0.165	238488.0
805	1832	1	0.165	238488.0
806	1663	1	0.165	238488.0
806	1822	1	0.165	238488.0
807	1823	1	0.165	238488.0
807	1830	1	0.165	238488.0
808	1824	1	0.165	238488.0
808	1828	1	0.165	238488.0
809	1825	1	0.165	238488.0
809	1829	1	0.165	238488.0
810	1815	1	0.165	238488.0
810	1826	1	0.165	238488.0
811	1815	1	0.165	238488.0
811	1834	1	0.165	238488.0
812	1833	1	0.165	238488.0
812	1984	1	0.165	238488.0
813	1817	1	0.165	238488.0
813	1835	1	0.165	238488.0
814	1836	1	0.165	238488.0
814	1866	1	0.165	238488.0
815	1837	1	0.165	238488.0
815	1867	1	0.165	238488.0
816	1838	1	0.165	238488.0
816	1868	1	0.165	238488.0
817	1837	1	0.165	238488.0
817	1839	1	0.165	238488.0
818	1838	1	0.165	238488.0
818	1840	1	0.165	238488.0
819	1841	1	0.165	238488.0
819	2004	1	0.165	238488.0
820	1834	1	0.165	238488.0
820	1842	1	0.165	238488.0
821	1835	1	0.165	238488.0
821	1844	1	0.165	238488.0
822	1834	1	0.165	238488.0
822	1839	1	0.165	238488.0
823	1665	1	0.165	238488.0
823	1840	1	0.165	238488.0
824	1835	1	0.165	238488.0
824	1841	1	0.165	238488.0
825	1836	1	0.165	238488.0
825	1842	1	0.165	238488.0
826	1837	1	0.165	238488.0
826	1843	1	0.165	238488.0
827	1838	1	0.165	238488.0
827	1844	1	0.165	238488.0
828	1833	1	0.165	238488.0
828	1844	1	0.165	238488.0
829	1675	1	0.165	238488.0
829	1834	1	0.165	238488.0
830	1835	1	0.165	238488.0
830	1842	1	0.165	238488.0
831	1836	1	0.165	238488.0
831	1840	1	0.165	238488.0
832	1837	1	0.165	238488.0
832	1841	1	0.165	238488.0
833	1827	1	0.165	238488.0
833	1846	1	0.165	238488.0
834	1845	1	0.165	238488.0
834	1996	1	0.165	238488.0
835	1829	1	0.165	238488.0
835	1847	1	0.165	238488.0
836	1848	1	0.165	238488.0
836	1878	1	0.165	238488.0
837	1849	1	0.165	238488.0
837	1879	1	0.165	238488.0
838	1850	1	0.165	238488.0
838	1880	1	0.165	238488.0
839	1849	1	0.165	238488.0
839	1851	1	0.165	238488.0
840	1850	1	0.165	238488.0
840	1852	1	0.165	238488.0
841	1853	1	0.165	238488.0
841	2016	1	0.165	238488.0
842	1846	1	0.165	238488.0
842	1854	1	0.165	238488.0
843	1843	1	0.165	238488.0
843	1845	1	0.165	238488.0
844	1847	1	0.165	238488.0
844	1856	1	0.165	238488.0
845	1846	1	0.165	238488.0
845	1851	1	0.165	238488.0
846	1677	1	0.165	238488.0
846	1852	1	0.165	238488.0
847	1847	1	0.165	238488.0
847	1853	1	0.165	238488.0
848	1848	1	0.165	238488.0
848	1854	1	0.165	238488.0
849	1849	1	0.165	238488.0
849	1855	1	0.165	238488.0
850	1850	1	0.165	238488.0
850	1856	1	0.165	238488.0
851	1845	1	0.165	238488.0
851	1856	1	0.165	238488.0
852	1687	1	0.165	238488.0
852	1846	1	0.165	238488.0
853	1847	1	0.165	238488.0
853	1854	1	0.165	238488.0
854	1848	1	0.165	238488.0
854	1852	1	0.165	238488.0
855	1849	1	0.165	238488.0
855	1853	1	0.165	238488.0
856	1839	1	0.165	238488.0
856	1850	1	0.165	238488.0
857	1839	1	0.165	238488.0
857	1858	1	0.165	238488.0
858	1857	1	0.165	238488.0
858	2008	1	0.165	238488.0
859	1841	1	0.165	238488.0
859	1859	1	0.165	238488.0
860	1860	1	0.165	238488.0
860	1890	1	0.165	238488.0
861	1861	1	0.165	238488.0
861	1891	1	0.165	238488.0
862	1862	1	0.165	238488.0
862	1892	1	0.165	238488.0
863	1861	1	0.165	238488.0
863	1863	1	0.165	238488.0
864	1862	1	0.165	238488.0
864	1864	1	0.165	238488.0
865	1865	1	0.165	238488.0
865	2028	1	0.165	238488.0
866	1858	1	0.165	238488.0
866	1866	1	0.165	238488.0
867	1859	1	0.165	238488.0
867	1868	1	0.165	238488.0
868	1858	1	0.165	238488.0
868	1863	1	0.165	238488.0
869	1689	1	0.165	238488.0
869	1864	1	0.165	238488.0
870	1859	1	0.165	238488.0
870	1865	1	0.165	238488.0
871	1860	1	0.165	238488.0
871	1866	1	0.165	238488.0
872	1861	1	0.165	238488.0
872	1867	1	0.165	238488.0
873	1862	1	0.165	238488.0
873	1868	1	0.165	238488.0
874	1857	1	0.165	238488.0
874	1868	1	0.165	238488.0
875	1699	1	0.165	238488.0
875	1858	1	0.165	238488.0
876	1859	1	0.165	238488.0
876	1866	1	0.165	238488.0
877	1860	1	0.165	238488.0
877	1864	1	0.165	238488.0
878	1861	1	0.165	238488.0
878	1865	1	0.165	238488.0
879	1851	1	0.165	238488.0
879	1870	1	0.165	238488.0
880	1869	1	0.165	238488.0
880	2020	1	0.165	238488.0
881	1853	1	0.165	238488.0
881	1871	1	0.165	238488.0
882	1872	1	0.165	238488.0
882	1902	1	0.165	238488.0
883	1873	1	0.165	238488.0
883	1903	1	0.165	238488.0
884	1874	1	0.165	238488.0
884	1904	1	0.165	238488.0
885	1873	1	0.165	238488.0
885	1875	1	0.165	238488.0
886	1874	1	0.165	238488.0
886	1876	1	0.165	238488.0
887	1877	1	0.165	238488.0
887	2040	1	0.165	238488.0
888	1870	1	0.165	238488.0
888	1878	1	0.165	238488.0
889	1867	1	0.165	238488.0
889	1869	1	0.165	238488.0
890	1871	1	0.165	238488.0
890	1880	1	0.165	238488.0
891	1870	1	0.165	238488.0
891	1875	1	0.165	238488.0
892	1701	1	0.165	238488.0
892	1876	1	0.165	238488.0
893	1871	1	0.165	238488.0
893	1877	1	0.165	238488.0
894	1872	1	0.165	238488.0
894	1878	1	0.165	238488.0
895	1873	1	0.165	238488.0
895	1879	1	0.165	238488.0
896	1874	1	0.165	238488.0
896	1880	1	0.165	238488.0
897	1869	1	0.165	238488.0
897	1880	1	0.165	238488.0
898	1711	1	0.165	238488.0
898	1870	1	0.165	238488.0
899	1871	1	0.165	238488.0
899	1878	1	0.165	238488.0
900	1872	1	0.165	238488.0
900	1876	1	0.165	238488.0
901	1873	1	0.165	238488.0
901	1877	1	0.165	238488.0
902	1863	1	0.165	238488.0
902	1874	1	0.165	238488.0
903	1863	1	0.165	238488.0
903	1882	1	0.165	238488.0
904	1881	1	0.165	238488.0
904	2032	1	0.165	238488.0
905	1865	1	0.165	238488.0
905	1883	1	0.165	238488.0
906	1885	1	0.165	238488.0
906	1887	1	0.165	238488.0
907	1886	1	0.165	238488.0
907	1888	1	0.165	238488.0
908	1889	1	0.165	238488.0
908	2052	1	0.165	238488.0
909	1882	1	0.165	238488.0
909	1890	1	0.165	238488.0
910	1883	1	0.165	238488.0
910	1892	1	0.165	238488.0
911	1882	1	0.165	238488.0
911	1887	1	0.165	238488.0
912	1713	1	0.165	238488.0
912	1888	1	0.165	238488.0
913	1883	1	0.165	238488.0
913	1889	1	0.165	238488.0
914	1884	1	0.165	238488.0
914	1890	1	0.165	238488.0
915	1885	1	0.165	238488.0
915	1891	1	0.165	238488.0
916	1886	1	0.165	238488.0
916	1892	1	0.165	238488.0
917	1881	1	0.165	238488.0
917	1892	1	0.165	238488.0
918	1723	1	0.165	238488.0
918	1882	1	0.165	238488.0
919	1883	1	0.165	238488.0
919	1890	1	0.165	238488.0
920	1884	1	0.165	238488.0
920	1888	1	0.165	238488.0
921	1885	1	0.165	238488.0
921	1889	1	0.165	238488.0
922	1875	1	0.165	238488.0
922	1894	1	0.165	238488.0
923	1893	1	0.165	238488.0
923	2044	1	0.165	238488.0
924	1877	1	0.165	238488.0
924	1895	1	0.165	238488.0
925	1897	1	0.165	238488.0
925	1899	1	0.165	238488.0
926	1898	1	0.165	238488.0
926	1900	1	0.165	238488.0
927	1901	1	0.165	238488.0
927	2064	1	0.165	238488.0
928	1894	1	0.165	238488.0
928	1902	1	0.165	238488.0
929	1891	1	0.165	238488.0
929	1893	1	0.165	238488.0
930	1895	1	0.165	238488.0
930	1904	1	0.165	238488.0
931	1894	1	0.165	238488.0
931	1899	1	0.165	238488.0
932	1725	1	0.165	238488.0
932	1900	1	0.165	238488.0
933	1895	1	0.165	238488.0
933	1901	1	0.165	238488.0
934	1896	1	0.165	238488.0
934	1902	1	0.165	238488.0
935	1897	1	0.165	238488.0
935	1903	1	0.165	238488.0
936	1898	1	0.165	238488.0
936	1904	1	0.165	238488.0
937	1893	1	0.165	238488.0
937	1904	1	0.165	238488.0
938	1735	1	0.165	238488.0
938	1894	1	0.165	238488.0
939	1895	1	0.165	238488.0
939	1902	1	0.165	238488.0
940	1896	1	0.165	238488.0
940	1900	1	0.165	238488.0
941	1897	1	0.165	238488.0
941	1901	1	0.165	238488.0
942	1887	1	0.165	238488.0
942	1898	1	0.165	238488.0
943	1906	1	0.165	238488.0
943	2055	1	0.165	238488.0
944	1908	1	0.165	238488.0
944	1938	1	0.165	238488.0
945	1909	1	0.165	238488.0
945	1939	1	0.165	238488.0
946	1910	1	0.165	238488.0
946	1940	1	0.165	238488.0
947	1909	1	0.165	238488.0
947	1911	1	0.165	238488.0
948	1910	1	0.165	238488.0
948	1912	1	0.165	238488.0
949	1404	1	0.165	238488.0
949	1913	1	0.165	238488.0
950	1906	1	0.165	238488.0
950	1914	1	0.165	238488.0
951	1907	1	0.165	238488.0
951	1916	1	0.165	238488.0
952	1906	1	0.165	238488.0
952	1911	1	0.165	238488.0
953	1737	1	0.165	238488.0
953	1912	1	0.165	238488.0
954	1907	1	0.165	238488.0
954	1913	1	0.165	238488.0
955	1908	1	0.165	238488.0
955	1914	1	0.165	238488.0
956	1909	1	0.165	238488.0
956	1915	1	0.165	238488.0
957	1910	1	0.165	238488.0
957	1916	1	0.165	238488.0
958	1905	1	0.165	238488.0
958	1916	1	0.165	238488.0
959	1747	1	0.165	238488.0
959	1906	1	0.165	238488.0
960	1907	1	0.165	238488.0
960	1914	1	0.165	238488.0
961	1908	1	0.165	238488.0
961	1912	1	0.165	238488.0
962	1909	1	0.165	238488.0
962	1913	1	0.165	238488.0
963	1918	1	0.165	238488.0
963	2067	1	0.165	238488.0
964	1920	1	0.165	238488.0
964	1950	1	0.165	238488.0
965	1921	1	0.165	238488.0
965	1951	1	0.165	238488.0
966	1922	1	0.165	238488.0
966	1952	1	0.165	238488.0
967	1921	1	0.165	238488.0
967	1923	1	0.165	238488.0
968	1922	1	0.165	238488.0
968	1924	1	0.165	238488.0
969	1416	1	0.165	238488.0
969	1925	1	0.165	238488.0
970	1918	1	0.165	238488.0
970	1926	1	0.165	238488.0
971	1915	1	0.165	238488.0
971	1917	1	0.165	238488.0
972	1919	1	0.165	238488.0
972	1928	1	0.165	238488.0
973	1918	1	0.165	238488.0
973	1923	1	0.165	238488.0
974	1749	1	0.165	238488.0
974	1924	1	0.165	238488.0
975	1919	1	0.165	238488.0
975	1925	1	0.165	238488.0
976	1920	1	0.165	238488.0
976	1926	1	0.165	238488.0
977	1921	1	0.165	238488.0
977	1927	1	0.165	238488.0
978	1922	1	0.165	238488.0
978	1928	1	0.165	238488.0
979	1917	1	0.165	238488.0
979	1928	1	0.165	238488.0
980	1759	1	0.165	238488.0
980	1918	1	0.165	238488.0
981	1919	1	0.165	238488.0
981	1926	1	0.165	238488.0
982	1920	1	0.165	238488.0
982	1924	1	0.165	238488.0
983	1921	1	0.165	238488.0
983	1925	1	0.165	238488.0
984	1911	1	0.165	238488.0
984	1922	1	0.165	238488.0
985	1911	1	0.165	238488.0
985	1930	1	0.165	238488.0
986	1913	1	0.165	238488.0
986	1931	1	0.165	238488.0
987	1932	1	0.165	238488.0
987	1962	1	0.165	238488.0
988	1933	1	0.165	238488.0
988	1963	1	0.165	238488.0
989	1934	1	0.165	238488.0
989	1964	1	0.165	238488.0
990	1933	1	0.165	238488.0
990	1935	1	0.165	238488.0
991	1934	1	0.165	238488.0
991	1936	1	0.165	238488.0
992	1428	1	0.165	238488.0
992	1937	1	0.165	238488.0
993	1930	1	0.165	238488.0
993	1938	1	0.165	238488.0
994	1931	1	0.165	238488.0
994	1940	1	0.165	238488.0
995	1930	1	0.165	238488.0
995	1935	1	0.165	238488.0
996	1761	1	0.165	238488.0
996	1936	1	0.165	238488.0
997	1931	1	0.165	238488.0
997	1937	1	0.165	238488.0
998	1932	1	0.165	238488.0
998	1938	1	0.165	238488.0
999	1933	1	0.165	238488.0
999	1939	1	0.165	238488.0
1000	1934	1	0.165	238488.0
1000	1940	1	0.165	238488.0
1001	1929	1	0.165	238488.0
1001	1940	1	0.165	238488.0
1002	1771	1	0.165	238488.0
1002	1930	1	0.165	238488.0
1003	1931	1	0.165	238488.0
1003	1938	1	0.165	238488.0
1004	1932	1	0.165	238488.0
1004	1936	1	0.165	238488.0
1005	1933	1	0.165	238488.0
1005	1937	1	0.165	238488.0
1006	1923	1	0.165	238488.0
1006	1942	1	0.165	238488.0
1007	1925	1	0.165	238488.0
1007	1943	1	0.165	238488.0
1008	1944	1	0.165	238488.0
1008	1974	1	0.165	238488.0
1009	1945	1	0.165	238488.0
1009	1975	1	0.165	238488.0
1010	1946	1	0.165	238488.0
1010	1976	1	0.165	238488.0
1011	1945	1	0.165	238488.0
1011	1947	1	0.165	238488.0
1012	1946	1	0.165	238488.0
1012	1948	1	0.165	238488.0
1013	1440	1	0.165	238488.0
1013	1949	1	0.165	238488.0
1014	1942	1	0.165	238488.0
1014	1950	1	0.165	238488.0
1015	1939	1	0.165	238488.0
1015	1941	1	0.165	238488.0
1016	1943	1	0.165	238488.0
1016	1952	1	0.165	238488.0
1017	1942	1	0.165	238488.0
1017	1947	1	0.165	238488.0
1018	1773	1	0.165	238488.0
1018	1948	1	0.165	238488.0
1019	1943	1	0.165	238488.0
1019	1949	1	0.165	238488.0
1020	1944	1	0.165	238488.0
1020	1950	1	0.165	238488.0
1021	1945	1	0.165	238488.0
1021	1951	1	0.165	238488.0
1022	1946	1	0.165	238488.0
1022	1952	1	0.165	238488.0
1023	1941	1	0.165	238488.0
1023	1952	1	0.165	238488.0
1024	1783	1	0.165	238488.0
1024	1942	1	0.165	238488.0
1025	1943	1	0.165	238488.0
1025	1950	1	0.165	238488.0
1026	1944	1	0.165	238488.0
1026	1948	1	0.165	238488.0
1027	1945	1	0.165	238488.0
1027	1949	1	0.165	238488.0
1028	1935	1	0.165	238488.0
1028	1946	1	0.165	238488.0
1029	1935	1	0.165	238488.0
1029	1954	1	0.165	238488.0
1030	1937	1	0.165	238488.0
1030	1955	1	0.165	238488.0
1031	1956	1	0.165	238488.0
1031	1986	1	0.165	238488.0
1032	1957	1	0.165	238488.0
1032	1987	1	0.165	238488.0
1033	1958	1	0.165	238488.0
1033	1988	1	0.165	238488.0
1034	1957	1	0.165	238488.0
1034	1959	1	0.165	238488.0
1035	1958	1	0.165	238488.0
1035	1960	1	0.165	238488.0
1036	1452	1	0.165	238488.0
1036	1961	1	0.165	238488.0
1037	1954	1	0.165	238488.0
1037	1962	1	0.165	238488.0
1038	1955	1	0.165	238488.0
1038	1964	1	0.165	238488.0
1039	1954	1	0.165	238488.0
1039	1959	1	0.165	238488.0
1040	1785	1	0.165	238488.0
1040	1960	1	0.165	238488.0
1041	1955	1	0.165	238488.0
1041	1961	1	0.165	238488.0
1042	1956	1	0.165	238488.0
1042	1962	1	0.165	238488.0
1043	1957	1	0.165	238488.0
1043	1963	1	0.165	238488.0
1044	1958	1	0.165	238488.0
1044	1964	1	0.165	238488.0
1045	1953	1	0.165	238488.0
1045	1964	1	0.165	238488.0
1046	1795	1	0.165	238488.0
1046	1954	1	0.165	238488.0
1047	1955	1	0.165	238488.0
1047	1962	1	0.165	238488.0
1048	1956	1	0.165	238488.0
1048	1960	1	0.165	238488.0
1049	1957	1	0.165	238488.0
1049	1961	1	0.165	238488.0
1050	1947	1	0.165	238488.0
1050	1966	1	0.165	238488.0
1051	1949	1	0.165	238488.0
1051	1967	1	0.165	238488.0
1052	1968	1	0.165	238488.0
1052	1998	1	0.165	238488.0
1053	1969	1	0.165	238488.0
1053	1999	1	0.165	238488.0
1054	1970	1	0.165	238488.0
1054	2000	1	0.165	238488.0
1055	1969	1	0.165	238488.0
1055	1971	1	0.165	238488.0
1056	1970	1	0.165	238488.0
1056	1972	1	0.165	238488.0
1057	1464	1	0.165	238488.0
1057	1973	1	0.165	238488.0
1058	1966	1	0.165	238488.0
1058	1974	1	0.165	238488.0
1059	1963	1	0.165	238488.0
1059	1965	1	0.165	238488.0
1060	1967	1	0.165	238488.0
1060	1976	1	0.165	238488.0
1061	1966	1	0.165	238488.0
1061	1971	1	0.165	238488.0
1062	1797	1	0.165	238488.0
1062	1972	1	0.165	238488.0
1063	1967	1	0.165	238488.0
1063	1973	1	0.165	238488.0
1064	1968	1	0.165	238488.0
1064	1974	1	0.165	238488.0
1065	1969	1	0.165	238488.0
1065	1975	1	0.165	238488.0
1066	1970	1	0.165	238488.0
1066	1976	1	0.165	238488.0
1067	1965	1	0.165	238488.0
1067	1976	1	0.165	238488.0
1068	1807	1	0.165	238488.0
1068	1966	1	0.165	238488.0
1069	1967	1	0.165	238488.0
1069	1974	1	0.165	238488.0
1070	1968	1	0.165	238488.0
1070	1972	1	0.165	238488.0
1071	1969	1	0.165	238488.0
1071	1973	1	0.165	238488.0
1072	1959	1	0.165	238488.0
1072	1970	1	0.165	238488.0
1073	1959	1	0.165	238488.0
1073	1978	1	0.165	238488.0
1074	1961	1	0.165	238488.0
1074	1979	1	0.165	238488.0
1075	1980	1	0.165	238488.0
1075	2010	1	0.165	238488.0
1076	1981	1	0.165	238488.0
1076	2011	1	0.165	238488.0
1077	1982	1	0.165	238488.0
1077	2012	1	0.165	238488.0
1078	1981	1	0.165	238488.0
1078	1983	1	0.165	238488.0
1079	1982	1	0.165	238488.0
1079	1984	1	0.165	238488.0
1080	1476	1	0.165	238488.0
1080	1985	1	0.165	238488.0
1081	1978	1	0.165	238488.0
1081	1986	1	0.165	238488.0
1082	1979	1	0.165	238488.0
1082	1988	1	0.165	238488.0
1083	1978	1	0.165	238488.0
1083	1983	1	0.165	238488.0
1084	1809	1	0.165	238488.0
1084	1984	1	0.165	238488.0
1085	1979	1	0.165	238488.0
1085	1985	1	0.165	238488.0
1086	1980	1	0.165	238488.0
1086	1986	1	0.165	238488.0
1087	1981	1	0.165	238488.0
1087	1987	1	0.165	238488.0
1088	1982	1	0.165	238488.0
1088	1988	1	0.165	238488.0
1089	1977	1	0.165	238488.0
1089	1988	1	0.165	238488.0
1090	1819	1	0.165	238488.0
1090	1978	1	0.165	238488.0
1091	1979	1	0.165	238488.0
1091	1986	1	0.165	238488.0
1092	1980	1	0.165	238488.0
1092	1984	1	0.165	238488.0
1093	1981	1	0.165	238488.0
1093	1985	1	0.165	238488.0
1094	1971	1	0.165	238488.0
1094	1990	1	0.165	238488.0
1095	1973	1	0.165	238488.0
1095	1991	1	0.165	238488.0
1096	1992	1	0.165	238488.0
1096	2022	1	0.165	238488.0
1097	1993	1	0.165	238488.0
1097	2023	1	0.165	238488.0
1098	1994	1	0.165	238488.0
1098	2024	1	0.165	238488.0
1099	1993	1	0.165	238488.0
1099	1995	1	0.165	238488.0
1100	1994	1	0.165	238488.0
1100	1996	1	0.165	238488.0
1101	1488	1	0.165	238488.0
1101	1997	1	0.165	238488.0
1102	1990	1	0.165	238488.0
1102	1998	1	0.165	238488.0
1103	1987	1	0.165	238488.0
1103	1989	1	0.165	238488.0
1104	1991	1	0.165	238488.0
1104	2000	1	0.165	238488.0
1105	1990	1	0.165	238488.0
1105	1995	1	0.165	238488.0
1106	1821	1	0.165	238488.0
1106	1996	1	0.165	238488.0
1107	1991	1	0.165	238488.0
1107	1997	1	0.165	238488.0
1108	1992	1	0.165	238488.0
1108	1998	1	0.165	238488.0
1109	1993	1	0.165	238488.0
1109	1999	1	0.165	238488.0
1110	1994	1	0.165	238488.0
1110	2000	1	0.165	238488.0
1111	1989	1	0.165	238488.0
1111	2000	1	0.165	238488.0
1112	1831	1	0.165	238488.0
1112	1990	1	0.165	238488.0
1113	1991	1	0.165	238488.0
1113	1998	1	0.165	238488.0
1114	1992	1	0.165	238488.0
1114	1996	1	0.165	238488.0
1115	1993	1	0.165	238488.0
1115	1997	1	0.165	238488.0
1116	1983	1	0.165	238488.0
1116	1994	1	0.165	238488.0
1117	1983	1	0.165	238488.0
1117	2002	1	0.165	238488.0
1118	1985	1	0.165	238488.0
1118	2003	1	0.165	238488.0
1119	2004	1	0.165	238488.0
1119	2034	1	0.165	238488.0
1120	2005	1	0.165	238488.0
1120	2035	1	0.165	238488.0
1121	2006	1	0.165	238488.0
1121	2036	1	0.165	238488.0
1122	2005	1	0.165	238488.0
1122	2007	1	0.165	238488.0
1123	2006	1	0.165	238488.0
1123	2008	1	0.165	238488.0
1124	1500	1	0.165	238488.0
1124	2009	1	0.165	238488.0
1125	2002	1	0.165	238488.0
1125	2010	1	0.165	238488.0
1126	2003	1	0.165	238488.0
1126	2012	1	0.165	238488.0
1127	2002	1	0.165	238488.0
1127	2007	1	0.165	238488.0
1128	1833	1	0.165	238488.0
1128	2008	1	0.165	238488.0
1129	2003	1	0.165	238488.0
1129	2009	1	0.165	238488.0
1130	2004	1	0.165	238488.0
1130	2010	1	0.165	238488.0
1131	2005	1	0.165	238488.0
1131	2011	1	0.165	238488.0
1132	2006	1	0.165	238488.0
1132	2012	1	0.165	238488.0
1133	2001	1	0.165	238488.0
1133	2012	1	0.165	238488.0
1134	1843	1	0.165	238488.0
1134	2002	1	0.165	238488.0
1135	2003	1	0.165	238488.0
1135	2010	1	0.165	238488.0
1136	2004	1	0.165	238488.0
1136	2008	1	0.165	238488.0
1137	2005	1	0.165	238488.0
1137	2009	1	0.165	238488.0
1138	1995	1	0.165	238488.0
1138	2014	1	0.165	238488.0
1139	1997	1	0.165	238488.0
1139	2015	1	0.165	238488.0
1140	2016	1	0.165	238488.0
1140	2046	1	0.165	238488.0
1141	2017	1	0.165	238488.0
1141	2047	1	0.165	238488.0
1142	2018	1	0.165	238488.0
1142	2048	1	0.165	238488.0
1143	2017	1	0.165	238488.0
1143	2019	1	0.165	238488.0
1144	2018	1	0.165	238488.0
1144	2020	1	0.165	238488.0
1145	1512	1	0.165	238488.0
1145	2021	1	0.165	238488.0
1146	2014	1	0.165	238488.0
1146	2022	1	0.165	238488.0
1147	2011	1	0.165	238488.0
1147	2013	1	0.165	238488.0
1148	2015	1	0.165	238488.0
1148	2024	1	0.165	238488.0
1149	2014	1	0.165	238488.0
1149	2019	1	0.165	238488.0
1150	1845	1	0.165	238488.0
1150	2020	1	0.165	238488.0
1151	2015	1	0.165	238488.0
1151	2021	1	0.165	238488.0
1152	2016	1	0.165	238488.0
1152	2022	1	0.165	238488.0
1153	2017	1	0.165	238488.0
1153	2023	1	0.165	238488.0
1154	2018	1	0.165	238488.0
1154	2024	1	0.165	238488.0
1155	2013	1	0.165	238488.0
1155	2024	1	0.165	238488.0
1156	1855	1	0.165	238488.0
1156	2014	1	0.165	238488.0
1157	2015	1	0.165	238488.0
1157	2022	1	0.165	238488.0
1158	2016	1	0.165	238488.0
1158	2020	1	0.165	238488.0
1159	2017	1	0.165	238488.0
1159	2021	1	0.165	238488.0
1160	2007	1	0.165	238488.0
1160	2018	1	0.165	238488.0
1161	2007	1	0.165	238488.0
1161	2026	1	0.165	238488.0
1162	2009	1	0.165	238488.0
1162	2027	1	0.165	238488.0
1163	2028	1	0.165	238488.0
1163	2058	1	0.165	238488.0
1164	2029	1	0.165	238488.0
1164	2059	1	0.165	238488.0
1165	2030	1	0.165	238488.0
1165	2060	1	0.165	238488.0
1166	2029	1	0.165	238488.0
1166	2031	1	0.165	238488.0
1167	2030	1	0.165	238488.0
1167	2032	1	0.165	238488.0
1168	1524	1	0.165	238488.0
1168	2033	1	0.165	238488.0
1169	2026	1	0.165	238488.0
1169	2034	1	0.165	238488.0
1170	2027	1	0.165	238488.0
1170	2036	1	0.165	238488.0
1171	2026	1	0.165	238488.0
1171	2031	1	0.165	238488.0
1172	1857	1	0.165	238488.0
1172	2032	1	0.165	238488.0
1173	2027	1	0.165	238488.0
1173	2033	1	0.165	238488.0
1174	2028	1	0.165	238488.0
1174	2034	1	0.165	238488.0
1175	2029	1	0.165	238488.0
1175	2035	1	0.165	238488.0
1176	2030	1	0.165	238488.0
1176	2036	1	0.165	238488.0
1177	2025	1	0.165	238488.0
1177	2036	1	0.165	238488.0
1178	1867	1	0.165	238488.0
1178	2026	1	0.165	238488.0
1179	2027	1	0.165	238488.0
1179	2034	1	0.165	238488.0
1180	2028	1	0.165	238488.0
1180	2032	1	0.165	238488.0
1181	2029	1	0.165	238488.0
1181	2033	1	0.165	238488.0
1182	2019	1	0.165	238488.0
1182	2038	1	0.165	238488.0
1183	2021	1	0.165	238488.0
1183	2039	1	0.165	238488.0
1184	2040	1	0.165	238488.0
1184	2070	1	0.165	238488.0
1185	2041	1	0.165	238488.0
1185	2071	1	0.165	238488.0
1186	2042	1	0.165	238488.0
1186	2072	1	0.165	238488.0
1187	2041	1	0.165	238488.0
1187	2043	1	0.165	238488.0
1188	2042	1	0.165	238488.0
1188	2044	1	0.165	238488.0
1189	1536	1	0.165	238488.0
1189	2045	1	0.165	238488.0
1190	2038	1	0.165	238488.0
1190	2046	1	0.165	238488.0
1191	2035	1	0.165	238488.0
1191	2037	1	0.165	238488.0
1192	2039	1	0.165	238488.0
1192	2048	1	0.165	238488.0
1193	2038	1	0.165	238488.0
1193	2043	1	0.165	238488.0
1194	1869	1	0.165	238488.0
1194	2044	1	0.165	238488.0
1195	2039	1	0.165	238488.0
1195	2045	1	0.165	238488.0
1196	2040	1	0.165	238488.0
1196	2046	1	0.165	238488.0
1197	2041	1	0.165	238488.0
1197	2047	1	0.165	238488.0
1198	2042	1	0.165	238488.0
1198	2048	1	0.165	238488.0
1199	2037	1	0.165	238488.0
1199	2048	1	0.165	238488.0
1200	1879	1	0.165	238488.0
1200	2038	1	0.165	238488.0
1201	2039	1	0.165	238488.0
1201	2046	1	0.165	238488.0
1202	2040	1	0.165	238488.0
1202	2044	1	0.165	238488.0
1203	2041	1	0.165	238488.0
1203	2045	1	0.165	238488.0
1204	2031	1	0.165	238488.0
1204	2042	1	0.165	238488.0
1205	2031	1	0.165	238488.0
1205	2050	1	0.165	238488.0
1206	2033	1	0.165	238488.0
1206	2051	1	0.165	238488.0
1207	2053	1	0.165	238488.0
1207	2055	1	0.165	238488.0
1208	2054	1	0.165	238488.0
1208	2056	1	0.165	238488.0
1209	1548	1	0.165	238488.0
1209	2057	1	0.165	238488.0
1210	2050	1	0.165	238488.0
1210	2058	1	0.165	238488.0
1211	2051	1	0.165	238488.0
1211	2060	1	0.165	238488.0
1212	2050	1	0.165	238488.0
1212	2055	1	0.165	238488.0
1213	1881	1	0.165	238488.0
1213	2056	1	0.165	238488.0
1214	2051	1	0.165	238488.0
1214	2057	1	0.165	238488.0
1215	2052	1	0.165	238488.0
1215	2058	1	0.165	238488.0
1216	2053	1	0.165	238488.0
1216	2059	1	0.165	238488.0
1217	2054	1	0.165	238488.0
1217	2060	1	0.165	238488.0
1218	2049	1	0.165	238488.0
1218	2060	1	0.165	238488.0
1219	1891	1	0.165	238488.0
1219	2050	1	0.165	238488.0
1220	2051	1	0.165	238488.0
1220	2058	1	0.165	238488.0
1221	2052	1	0.165	238488.0
1221	2056	1	0.165	238488.0
1222	2053	1	0.165	238488.0
1222	2057	1	0.165	238488.0
1223	2043	1	0.165	238488.0
1223	2062	1	0.165	238488.0
1224	2045	1	0.165	238488.0
1224	2063	1	0.165	238488.0
1225	2065	1	0.165	238488.0
1225	2067	1	0.165	238488.0
1226	2066	1	0.165	238488.0
1226	2068	1	0.165	238488.0
1227	1560	1	0.165	238488.0
1227	2069	1	0.165	238488.0
1228	2062	1	0.165	238488.0
1228	2070	1	0.165	238488.0
1229	2059	1	0.165	238488.0
1229	2061	1	0.165	238488.0
1230	2063	1	0.165	238488.0
1230	2072	1	0.165	238488.0
1231	2062	1	0.165	238488.0
1231	2067	1	0.165	238488.0
1232	1893	1	0.165	238488.0
1232	2068	1	0.165	238488.0
1233	2063	1	0.165	238488.0
1233	2069	1	0.165	238488.0
1234	2064	1	0.165	238488.0
1234	2070	1	0.165	238488.0
1235	2065	1	0.165	238488.0
1235	2071	1	0.165	238488.0
1236	2066	1	0.165	238488.0
1236	2072	1	0.165	238488.0
1237	2061	1	0.165	238488.0
1237	2072	1	0.165	238488.0
1238	1903	1	0.165	238488.0
1238	2062	1	0.165	238488.0
1239	2063	1	0.165	238488.0
1239	2070	1	0.165	238488.0
1240	2064	1	0.165	238488.0
1240	2068	1	0.165	238488.0
1241	2065	1	0.165	238488.0
1241	2069	1	0.165	238488.0
1242	2055	1	0.165	238488.0
1242	2066	1	0.165	238488.0
1243	1552	1	0.165	238488.0
1243	1905	1	0.165	238488.0
1244	1564	1	0.165	238488.0
1244	1917	1	0.165	238488.0
1245	1408	1	0.165	238488.0
1245	1929	1	0.165	238488.0
1246	1420	1	0.165	238488.0
1246	1941	1	0.165	238488.0
1247	1432	1	0.165	238488.0
1247	1953	1	0.165	238488.0
1248	1444	1	0.165	238488.0
1248	1965	1	0.165	238488.0
1249	1456	1	0.165	238488.0
1249	1977	1	0.165	238488.0
1250	1468	1	0.165	238488.0
1250	1989	1	0.165	238488.0
1251	1480	1	0.165	238488.0
1251	2001	1	0.165	238488.0
1252	1492	1	0.165	238488.0
1252	2013	1	0.165	238488.0
1253	1504	1	0.165	238488.0
1253	2025	1	0.165	238488.0
1254	1516	1	0.165	238488.0
1254	2037	1	0.165	238488.0
1255	1528	1	0.165	238488.0
1255	2049	1	0.165	238488.0
1256	1540	1	0.165	238488.0
1256	2061	1	0.165	238488.0
1257	1403	1	0.165	238488.0
1257	1553	1	0.165	238488.0
1258	1415	1	0.165	238488.0
1258	1565	1	0.165	238488.0
1259	1571	1	0.165	238488.0
1259	1721	1	0.165	238488.0
1260	1583	1	0.165	238488.0
1260	1733	1	0.165	238488.0
1261	1739	1	0.165	238488.0
1261	1889	1	0.165	238488.0
1262	1751	1	0.165	238488.0
1262	1901	1	0.165	238488.0
1263	1907	1	0.165	238488.0
1263	2057	1	0.165	238488.0
1264	1919	1	0.165	238488.0
1264	2069	1	0.165	238488.0
1265	1410	1	0.165	238488.0
1265	1548	1	0.165	238488.0
1266	1411	1	0.165	238488.0
1266	1549	1	0.165	238488.0
1267	1412	1	0.165	238488.0
1267	1550	1	0.165	238488.0
1268	1422	1	0.165	238488.0
1268	1560	1	0.165	238488.0
1269	1423	1	0.165	238488.0
1269	1561	1	0.165	238488.0
1270	1424	1	0.165	238488.0
1270	1562	1	0.165	238488.0
1271	1578	1	0.165	238488.0
1271	1716	1	0.165	238488.0
1272	1579	1	0.165	238488.0
1272	1717	1	0.165	238488.0
1273	1580	1	0.165	238488.0
1273	1718	1	0.165	238488.0
1274	1590	1	0.165	238488.0
1274	1728	1	0.165	238488.0
1275	1591	1	0.165	238488.0
1275	1729	1	0.165	238488.0
1276	1592	1	0.165	238488.0
1276	1730	1	0.165	238488.0
1277	1746	1	0.165	238488.0
1277	1884	1	0.165	238488.0
1278	1747	1	0.165	238488.0
1278	1885	1	0.165	238488.0
1279	1748	1	0.165	238488.0
1279	1886	1	0.165	238488.0
1280	1758	1	0.165	238488.0
1280	1896	1	0.165	238488.0
1281	1759	1	0.165	238488.0
1281	1897	1	0.165	238488.0
1282	1760	1	0.165	238488.0
1282	1898	1	0.165	238488.0
1283	1914	1	0.165	238488.0
1283	2052	1	0.165	238488.0
1284	1915	1	0.165	238488.0
1284	2053	1	0.165	238488.0
1285	1916	1	0.165	238488.0
1285	2054	1	0.165	238488.0
1286	1926	1	0.165	238488.0
1286	2064	1	0.165	238488.0
1287	1927	1	0.165	238488.0
1287	2065	1	0.165	238488.0
1288	1928	1	0.165	238488.0
1288	2066	1	0.165	238488.0
1289	1401	1	0.165	238488.0
1289	2073	1	0.094	414216.0
1290	1406	1	0.187	29999.278
1290	2074	1	0.109	292272.472
1290	2075	1	0.109	292272.472
1290	2076	1	0.109	292272.472
1291	1419	1	0.187	29999.278
1291	2077	1	0.109	292272.472
1291	2078	1	0.109	292272.472
1291	2079	1	0.109	292272.472
1292	1423	1	0.187	29999.278
1292	2080	1	0.109	292272.472
1292	2081	1	0.109	292272.472
1292	2082	1	0.109	292272.472
1293	1425	1	0.187	29999.278
1293	2083	1	0.109	292272.472
1293	2084	1	0.109	292272.472
1293	2085	1	0.109	292272.472
1294	1430	1	0.165	238488.0
1294	2086	1	0.094	414216.0
1295	1443	1	0.165	238488.0
1295	2087	1	0.094	414216.0
1296	1447	1	0.187	29999.278
1296	2088	1	0.109	292272.472
1296	2089	1	0.109	292272.472
1296	2090	1	0.109	292272.472
1297	1449	1	0.187	29999.278
1297	2091	1	0.109	292272.472
1297	2092	1	0.109	292272.472
1297	2093	1	0.109	292272.472
1298	1454	1	0.187	29999.278
1298	2094	1	0.109	292272.472
1298	2095	1	0.109	292272.472
1298	2096	1	0.109	292272.472
1299	1467	1	0.187	29999.278
1299	2097	1	0.109	292272.472
1299	2098	1	0.109	292272.472
1299	2099	1	0.109	292272.472
1300	1471	1	0.187	29999.278
1300	2100	1	0.109	292272.472
1300	2101	1	0.109	292272.472
1300	2102	1	0.109	292272.472
1301	1473	1	0.187	29999.278
1301	2103	1	0.109	292272.472
1301	2104	1	0.109	292272.472
1301	2105	1	0.109	292272.472
1302	1478	1	0.165	238488.0
1302	2106	1	0.094	414216.0
1303	1491	1	0.187	29999.278
1303	2107	1	0.109	292272.472
1303	2108	1	0.109	292272.472
1303	2109	1	0.109	292272.472
1304	1495	1	0.187	29999.278
1304	2110	1	0.109	292272.472
1304	2111	1	0.109	292272.472
1304	2112	1	0.109	292272.472
1305	1497	1	0.187	29999.278
1305	2113	1	0.109	292272.472
1305	2114	1	0.109	292272.472
1305	2115	1	0.109	292272.472
1306	1502	1	0.187	29999.278
1306	2116	1	0.109	292272.472
1306	2117	1	0.109	292272.472
1306	2118	1	0.109	292272.472
1307	1515	1	0.187	29999.278
1307	2119	1	0.109	292272.472
1307	2120	1	0.109	292272.472
1307	2121	1	0.109	292272.472
1308	1519	1	0.165	238488.0
1308	2122	1	0.094	414216.0
1309	1521	1	0.187	29999.278
1309	2123	1	0.109	292272.472
1309	2124	1	0.109	292272.472
1309	2125	1	0.109	292272.472
1310	1526	1	0.187	29999.278
1310	2126	1	0.109	292272.472
1310	2127	1	0.109	292272.472
1310	2128	1	0.109	292272.472
1311	1539	1	0.165	238488.0
1311	2129	1	0.094	414216.0
1312	1543	1	0.187	29999.278
1312	2130	1	0.109	292272.472
1312	2131	1	0.109	292272.472
1312	2132	1	0.109	292272.472
1313	1545	1	0.187	29999.278
1313	2133	1	0.109	292272.472
1313	2134	1	0.109	292272.472
1313	2135	1	0.109	292272.472
1314	1550	1	0.165	238488.0
1314	2136	1	0.094	414216.0
1315	1563	1	0.165	238488.0
1315	2137	1	0.094	414216.0
1316	1567	1	0.165	238488.0
1316	2138	1	0.094	414216.0
1317	1569	1	0.187	29999.278
1317	2139	1	0.109	292272.472
1317	2140	1	0.109	292272.472
1317	2141	1	0.109	292272.472
1318	1574	1	0.187	29999.278
1318	2142	1	0.109	292272.472
1318	2143	1	0.109	292272.472
1318	2144	1	0.109	292272.472
1319	1587	1	0.187	29999.278
1319	2145	1	0.109	292272.472
1319	2146	1	0.109	292272.472
1319	2147	1	0.109	292272.472
1320	1591	1	0.187	29999.278
1320	2148	1	0.109	292272.472
1320	2149	1	0.109	292272.472
1320	2150	1	0.109	292272.472
1321	1593	1	0.187	29999.278
1321	2151	1	0.109	292272.472
1321	2152	1	0.109	292272.472
1321	2153	1	0.109	292272.472
1322	1598	1	0.165	238488.0
1322	2154	1	0.094	414216.0
1323	1611	1	0.187	29999.278
1323	2155	1	0.109	292272.472
1323	2156	1	0.109	292272.472
1323	2157	1	0.109	292272.472
1324	1615	1	0.187	29999.278
1324	2158	1	0.109	292272.472
1324	2159	1	0.109	292272.472
1324	2160	1	0.109	292272.472
1325	1617	1	0.165	238488.0
1325	2161	1	0.094	414216.0
1326	1622	1	0.187	29999.278
1326	2162	1	0.109	292272.472
1326	2163	1	0.109	292272.472
1326	2164	1	0.109	292272.472
1327	1635	1	0.165	238488.0
1327	2165	1	0.094	414216.0
1328	1639	1	0.187	29999.278
1328	2166	1	0.109	292272.472
1328	2167	1	0.109	292272.472
1328	2168	1	0.109	292272.472
1329	1641	1	0.187	29999.278
1329	2169	1	0.109	292272.472
1329	2170	1	0.109	292272.472
1329	2171	1	0.109	292272.472
1330	1646	1	0.165	238488.0
1330	2172	1	0.094	414216.0
1331	1659	1	0.165	238488.0
1331	2173	1	0.094	414216.0
1332	1663	1	0.187	29999.278
1332	2174	1	0.109	292272.472
1332	2175	1	0.109	292272.472
1332	2176	1	0.109	292272.472
1333	1665	1	0.165	238488.0
1333	2177	1	0.094	414216.0
1334	1670	1	0.187	29999.278
1334	2178	1	0.109	292272.472
1334	2179	1	0.109	292272.472
1334	2180	1	0.109	292272.472
1335	1683	1	0.187	29999.278
1335	2181	1	0.109	292272.472
1335	2182	1	0.109	292272.472
1335	2183	1	0.109	292272.472
1336	1687	1	0.165	238488.0
1336	2184	1	0.094	414216.0
1337	1689	1	0.187	29999.278
1337	2185	1	0.109	292272.472
1337	2186	1	0.109	292272.472
1337	2187	1	0.109	292272.472
1338	1694	1	0.165	238488.0
1338	2188	1	0.094	414216.0
1339	1707	1	0.187	29999.278
1339	2189	1	0.109	292272.472
1339	2190	1	0.109	292272.472
1339	2191	1	0.109	292272.472
1340	1711	1	0.165	238488.0
1340	2192	1	0.094	414216.0
1341	1713	1	0.187	29999.278
1341	2193	1	0.109	292272.472
1341	2194	1	0.109	292272.472
1341	2195	1	0.109	292272.472
1342	1718	1	0.165	238488.0
1342	2196	1	0.094	414216.0
1343	1731	1	0.187	29999.278
1343	2197	1	0.109	292272.472
1343	2198	1	0.109	292272.472
1343	2199	1	0.109	292272.472
1344	1735	1	0.187	29999.278
1344	2200	1	0.109	292272.472
1344	2201	1	0.109	292272.472
1344	2202	1	0.109	292272.472
1345	1737	1	0.187	29999.278
1345	2203	1	0.109	292272.472
1345	2204	1	0.109	292272.472
1345	2205	1	0.109	292272.472
1346	1742	1	0.187	29999.278
1346	2206	1	0.109	292272.472
1346	2207	1	0.109	292272.472
1346	2208	1	0.109	292272.472
1347	1755	1	0.165	238488.0
1347	2209	1	0.094	414216.0
1348	1759	1	0.187	29999.278
1348	2210	1	0.109	292272.472
1348	2211	1	0.109	292272.472
1348	2212	1	0.109	292272.472
1349	1761	1	0.187	29999.278
1349	2213	1	0.109	292272.472
1349	2214	1	0.109	292272.472
1349	2215	1	0.109	292272.472
1350	1766	1	0.187	29999.278
1350	2216	1	0.109	292272.472
1350	2217	1	0.109	292272.472
1350	2218	1	0.109	292272.472
1351	1779	1	0.165	238488.0
1351	2219	1	0.094	414216.0
1352	1783	1	0.165	238488.0
1352	2220	1	0.094	414216.0
1353	1785	1	0.187	29999.278
1353	2221	1	0.109	292272.472
1353	2222	1	0.109	292272.472
1353	2223	1	0.109	292272.472
1354	1790	1	0.187	29999.278
1354	2224	1	0.109	292272.472
1354	2225	1	0.109	292272.472
1354	2226	1	0.109	292272.472
1355	1803	1	0.187	29999.278
1355	2227	1	0.109	292272.472
1355	2228	1	0.109	292272.472
1355	2229	1	0.109	292272.472
1356	1807	1	0.165	238488.0
1356	2230	1	0.094	414216.0
1357	1809	1	0.187	29999.278
1357	2231	1	0.109	292272.472
1357	2232	1	0.109	292272.472
1357	2233	1	0.109	292272.472
1358	1814	1	0.165	238488.0
1358	2234	1	0.094	414216.0
1359	1827	1	0.187	29999.278
1359	2235	1	0.109	292272.472
1359	2236	1	0.109	292272.472
1359	2237	1	0.109	292272.472
1360	1831	1	0.187	29999.278
1360	2238	1	0.109	292272.472
1360	2239	1	0.109	292272.472
1360	2240	1	0.109	292272.472
1361	1833	1	0.165	238488.0
1361	2241	1	0.094	414216.0
1362	1838	1	0.187	29999.278
1362	2242	1	0.109	292272.472
1362	2243	1	0.109	292272.472
1362	2244	1	0.109	292272.472
1363	1851	1	0.187	29999.278
1363	2245	1	0.109	292272.472
1363	2246	1	0.109	292272.472
1363	2247	1	0.109	292272.472
1364	1855	1	0.187	29999.278
1364	2248	1	0.109	292272.472
1364	2249	1	0.109	292272.472
1364	2250	1	0.109	292272.472
1365	1857	1	0.165	238488.0
1365	2251	1	0.094	414216.0
1366	1862	1	0.187	29999.278
1366	2252	1	0.109	292272.472
1366	2253	1	0.109	292272.472
1366	2254	1	0.109	292272.472
1367	1875	1	0.187	29999.278
1367	2255	1	0.109	292272.472
1367	2256	1	0.109	292272.472
1367	2257	1	0.109	292272.472
1368	1879	1	0.165	238488.0
1368	2258	1	0.094	414216.0
1369	1881	1	0.187	29999.278
1369	2259	1	0.109	292272.472
1369	2260	1	0.109	292272.472
1369	2261	1	0.109	292272.472
1370	1886	1	0.187	29999.278
1370	2262	1	0.109	292272.472
1370	2263	1	0.109	292272.472
1370	2264	1	0.109	292272.472
1371	1899	1	0.165	238488.0
1371	2265	1	0.094	414216.0
1372	1903	1	0.187	29999.278
1372	2266	1	0.109	292272.472
1372	2267	1	0.109	292272.472
1372	2268	1	0.109	292272.472
1373	1905	1	0.165	238488.0
1373	2269	1	0.094	414216.0
1374	1910	1	0.187	29999.278
1374	2270	1	0.109	292272.472
1374	2271	1	0.109	292272.472
1374	2272	1	0.109	292272.472
1375	1923	1	0.187	29999.278
1375	2273	1	0.109	292272.472
1375	2274	1	0.109	292272.472
1375	2275	1	0.109	292272.472
1376	1927	1	0.165	238488.0
1376	2276	1	0.094	414216.0
1377	1929	1	0.187	29999.278
1377	2277	1	0.109	292272.472
1377	2278	1	0.109	292272.472
1377	2279	1	0.109	292272.472
1378	1934	1	0.165	238488.0
1378	2280	1	0.094	414216.0
1379	1947	1	0.187	29999.278
1379	2281	1	0.109	292272.472
1379	2282	1	0.109	292272.472
1379	2283	1	0.109	292272.472
1380	1951	1	0.187	29999.278
1380	2284	1	0.109	292272.472
1380	2285	1	0.109	292272.472
1380	2286	1	0.109	292272.472
1381	1953	1	0.165	238488.0
1381	2287	1	0.094	414216.0
1382	1958	1	0.165	238488.0
1382	2288	1	0.094	414216.0
1383	1971	1	0.187	29999.278
1383	2289	1	0.109	292272.472
1383	2290	1	0.109	292272.472
1383	2291	1	0.109	292272.472
1384	1975	1	0.187	29999.278
1384	2292	1	0.109	292272.472
1384	2293	1	0.109	292272.472
1384	2294	1	0.109	292272.472
1385	1977	1	0.187	29999.278
1385	2295	1	0.109	292272.472
1385	2296	1	0.109	292272.472
1385	2297	1	0.109	292272.472
1386	1982	1	0.187	29999.278
1386	2298	1	0.109	292272.472
1386	2299	1	0.109	292272.472
1386	2300	1	0.109	292272.472
1387	1995	1	0.187	29999.278
1387	2301	1	0.109	292272.472
1387	2302	1	0.109	292272.472
1387	2303	1	0.109	292272.472
1388	1999	1	0.187	29999.278
1388	2304	1	0.109	292272.472
1388	2305	1	0.109	292272.472
1388	2306	1	0.109	292272.472
1389	2001	1	0.187	29999.278
1389	2307	1	0.109	292272.472
1389	2308	1	0.109	292272.472
1389	2309	1	0.109	292272.472
1390	2006	1	0.187	29999.278
1390	2310	1	0.109	292272.472
1390	2311	1	0.109	292272.472
1390	2312	1	0.109	292272.472
1391	2019	1	0.187	29999.278
1391	2313	1	0.109	292272.472
1391	2314	1	0.109	292272.472
1391	2315	1	0.109	292272.472
1392	2023	1	0.187	29999.278
1392	2316	1	0.109	292272.472
1392	2317	1	0.109	292272.472
1392	2318	1	0.109	292272.472
1393	2025	1	0.187	29999.278
1393	2319	1	0.109	292272.472
1393	2320	1	0.109	292272.472
1393	2321	1	0.109	292272.472
1394	2030	1	0.187	29999.278
1394	2322	1	0.109	292272.472
1394	2323	1	0.109	292272.472
1394	2324	1	0.109	292272.472
1395	2043	1	0.187	29999.278
1395	2325	1	0.109	292272.472
1395	2326	1	0.109	292272.472
1395	2327	1	0.109	292272.472
1396	2047	1	0.187	29999.278
1396	2328	1	0.109	292272.472
1396	2329	1	0.109	292272.472
1396	2330	1	0.109	292272.472
1397	2049	1	0.187	29999.278
1397	2331	1	0.109	292272.472
1397	2332	1	0.109	292272.472
1397	2333	1	0.109	292272.472
1398	2054	1	0.165	238488.0
1398	2334	1	0.094	414216.0
1399	2067	1	0.187	29999.278
1399	2335	1	0.109	292272.472
1399	2336	1	0.109	292272.472
1399	2337	1	0.109	292272.472
1400	2071	1	0.187	29999.278
1400	2338	1	0.109	292272.472
1400	2339	1	0.109	292272.472
1400	2340	1	0.109	292272.472

[ angles ]
;  ai   aj   ak  funct   angle     fc
1	1402	9	1	109.5	836.8
1	1402	11	1	109.5	836.8
1	1402	18	1	109.5	836.8
1	1551	278	1	109.5	836.8
1	1551	283	1	109.5	836.8
1	1551	314	1	109.5	836.8
2	1401	17	1	109.5	836.8
2	1401	326	1	109.5	836.8
2	1401	1289	1	109.5	836.8
2	1720	593	1	109.5	836.8
2	1720	598	1	109.5	836.8
2	1720	606	1	109.5	836.8
3	1404	14	1	109.5	836.8
3	1404	20	1	109.5	836.8
3	1404	949	1	109.5	836.8
3	1434	54	1	109.5	836.8
3	1434	59	1	109.5	836.8
3	1434	64	1	109.5	836.8
4	1405	6	1	109.5	836.8
4	1405	15	1	109.5	836.8
4	1405	21	1	109.5	836.8
4	1435	60	1	109.5	836.8
4	1435	77	1	109.5	836.8
4	1435	377	1	109.5	836.8
5	1406	7	1	109.5	836.8
5	1406	16	1	109.5	836.8
5	1406	1290	1	109.5	836.8
5	1436	55	1	109.5	836.8
5	1436	61	1	109.5	836.8
5	1436	62	1	109.5	836.8
6	1405	15	1	109.5	836.8
6	1405	21	1	109.5	836.8
6	1407	11	1	109.5	836.8
6	1407	44	1	109.5	836.8
6	1407	45	1	109.5	836.8
7	1406	16	1	109.5	836.8
7	1406	1290	1	109.5	836.8
7	1408	12	1	109.5	836.8
7	1408	20	1	109.5	836.8
7	1408	1245	1	109.5	836.8
8	1409	13	1	109.5	836.8
8	1409	21	1	109.5	836.8
8	1409	47	1	109.5	836.8
8	1572	317	1	109.5	836.8
8	1572	328	1	109.5	836.8
8	1572	334	1	109.5	836.8
9	1402	11	1	109.5	836.8
9	1402	18	1	109.5	836.8
9	1410	14	1	109.5	836.8
9	1410	19	1	109.5	836.8
9	1410	1265	1	109.5	836.8
10	1403	13	1	109.5	836.8
10	1403	19	1	109.5	836.8
10	1403	1257	1	109.5	836.8
10	1412	16	1	109.5	836.8
10	1412	17	1	109.5	836.8
10	1412	1267	1	109.5	836.8
11	1402	18	1	109.5	836.8
11	1407	44	1	109.5	836.8
11	1407	45	1	109.5	836.8
12	1408	20	1	109.5	836.8
12	1408	1245	1	109.5	836.8
12	1905	958	1	109.5	836.8
12	1905	1243	1	109.5	836.8
12	1905	1373	1	109.5	836.8
13	1403	19	1	109.5	836.8
13	1403	1257	1	109.5	836.8
13	1409	21	1	109.5	836.8
13	1409	47	1	109.5	836.8
14	1404	20	1	109.5	836.8
14	1404	949	1	109.5	836.8
14	1410	19	1	109.5	836.8
14	1410	1265	1	109.5	836.8
15	1405	21	1	109.5	836.8
15	1411	31	1	109.5	836.8
15	1411	332	1	109.5	836.8
15	1411	1266	1	109.5	836.8
16	1406	1290	1	109.5	836.8
16	1412	17	1	109.5	836.8
16	1412	1267	1	109.5	836.8
17	1401	326	1	109.5	836.8
17	1401	1289	1	109.5	836.8
17	1412	1267	1	109.5	836.8
18	1915	956	1	109.5	836.8
18	1915	971	1	109.5	836.8
18	1915	1284	1	109.5	836.8
19	1403	1257	1	109.5	836.8
19	1410	1265	1	109.5	836.8
20	1404	949	1	109.5	836.8
20	1408	1245	1	109.5	836.8
21	1409	47	1	109.5	836.8
22	1414	30	1	109.5	836.8
22	1414	33	1	109.5	836.8
22	1414	40	1	109.5	836.8
22	1563	297	1	109.5	836.8
22	1563	303	1	109.5	836.8
22	1563	1315	1	109.5	836.8
23	1413	31	1	109.5	836.8
23	1413	39	1	109.5	836.8
23	1413	348	1	109.5	836.8
23	1732	612	1	109.5	836.8
23	1732	618	1	109.5	836.8
23	1732	626	1	109.5	836.8
24	1416	36	1	109.5	836.8
24	1416	42	1	109.5	836.8
24	1416	969	1	109.5	836.8
24	1446	76	1	109.5	836.8
24	1446	82	1	109.5	836.8
24	1446	87	1	109.5	836.8
25	1417	27	1	109.5	836.8
25	1417	37	1	109.5	836.8
25	1417	43	1	109.5	836.8
25	1447	83	1	109.5	836.8
25	1447	400	1	109.5	836.8
25	1447	1296	1	109.5	836.8
26	1418	28	1	109.5	836.8
26	1418	38	1	109.5	836.8
26	1418	44	1	109.5	836.8
26	1448	78	1	109.5	836.8
26	1448	84	1	109.5	836.8
26	1448	85	1	109.5	836.8
27	1417	37	1	109.5	836.8
27	1417	43	1	109.5	836.8
27	1419	33	1	109.5	836.8
27	1419	67	1	109.5	836.8
27	1419	1291	1	109.5	836.8
28	1418	38	1	109.5	836.8
28	1418	44	1	109.5	836.8
28	1420	34	1	109.5	836.8
28	1420	42	1	109.5	836.8
28	1420	1246	1	109.5	836.8
29	1421	35	1	109.5	836.8
29	1421	43	1	109.5	836.8
29	1421	69	1	109.5	836.8
29	1584	338	1	109.5	836.8
29	1584	350	1	109.5	836.8
29	1584	356	1	109.5	836.8
30	1414	33	1	109.5	836.8
30	1414	40	1	109.5	836.8
30	1422	36	1	109.5	836.8
30	1422	41	1	109.5	836.8
30	1422	1268	1	109.5	836.8
31	1411	332	1	109.5	836.8
31	1411	1266	1	109.5	836.8
31	1413	39	1	109.5	836.8
31	1413	348	1	109.5	836.8
32	1415	35	1	109.5	836.8
32	1415	41	1	109.5	836.8
32	1415	1258	1	109.5	836.8
32	1424	38	1	109.5	836.8
32	1424	39	1	109.5	836.8
32	1424	1270	1	109.5	836.8
33	1414	40	1	109.5	836.8
33	1419	67	1	109.5	836.8
33	1419	1291	1	109.5	836.8
34	1420	42	1	109.5	836.8
34	1420	1246	1	109.5	836.8
34	1917	971	1	109.5	836.8
34	1917	979	1	109.5	836.8
34	1917	1244	1	109.5	836.8
35	1415	41	1	109.5	836.8
35	1415	1258	1	109.5	836.8
35	1421	43	1	109.5	836.8
35	1421	69	1	109.5	836.8
36	1416	42	1	109.5	836.8
36	1416	969	1	109.5	836.8
36	1422	41	1	109.5	836.8
36	1422	1268	1	109.5	836.8
37	1417	43	1	109.5	836.8
37	1423	354	1	109.5	836.8
37	1423	1269	1	109.5	836.8
37	1423	1292	1	109.5	836.8
38	1418	44	1	109.5	836.8
38	1424	39	1	109.5	836.8
38	1424	1270	1	109.5	836.8
39	1413	348	1	109.5	836.8
39	1424	1270	1	109.5	836.8
40	1927	977	1	109.5	836.8
40	1927	1287	1	109.5	836.8
40	1927	1376	1	109.5	836.8
41	1415	1258	1	109.5	836.8
41	1422	1268	1	109.5	836.8
42	1416	969	1	109.5	836.8
42	1420	1246	1	109.5	836.8
43	1421	69	1	109.5	836.8
44	1407	45	1	109.5	836.8
45	1426	54	1	109.5	836.8
45	1426	56	1	109.5	836.8
45	1426	63	1	109.5	836.8
46	1425	62	1	109.5	836.8
46	1425	371	1	109.5	836.8
46	1425	1293	1	109.5	836.8
46	1576	321	1	109.5	836.8
46	1576	326	1	109.5	836.8
46	1576	334	1	109.5	836.8
47	1427	55	1	109.5	836.8
47	1427	58	1	109.5	836.8
47	1427	64	1	109.5	836.8
48	1428	59	1	109.5	836.8
48	1428	65	1	109.5	836.8
48	1428	992	1	109.5	836.8
48	1458	100	1	109.5	836.8
48	1458	105	1	109.5	836.8
48	1458	110	1	109.5	836.8
49	1429	51	1	109.5	836.8
49	1429	60	1	109.5	836.8
49	1429	66	1	109.5	836.8
49	1459	106	1	109.5	836.8
49	1459	123	1	109.5	836.8
49	1459	423	1	109.5	836.8
50	1430	52	1	109.5	836.8
50	1430	61	1	109.5	836.8
50	1430	1294	1	109.5	836.8
50	1460	101	1	109.5	836.8
50	1460	107	1	109.5	836.8
50	1460	108	1	109.5	836.8
51	1429	60	1	109.5	836.8
51	1429	66	1	109.5	836.8
51	1431	56	1	109.5	836.8
51	1431	90	1	109.5	836.8
51	1431	91	1	109.5	836.8
52	1430	61	1	109.5	836.8
52	1430	1294	1	109.5	836.8
52	1432	57	1	109.5	836.8
52	1432	65	1	109.5	836.8
52	1432	1247	1	109.5	836.8
53	1433	58	1	109.5	836.8
53	1433	66	1	109.5	836.8
53	1433	93	1	109.5	836.8
53	1596	362	1	109.5	836.8
53	1596	373	1	109.5	836.8
53	1596	379	1	109.5	836.8
54	1426	56	1	109.5	836.8
54	1426	63	1	109.5	836.8
54	1434	59	1	109.5	836.8
54	1434	64	1	109.5	836.8
55	1427	58	1	109.5	836.8
55	1427	64	1	109.5	836.8
55	1436	61	1	109.5	836.8
55	1436	62	1	109.5	836.8
56	1426	63	1	109.5	836.8
56	1431	90	1	109.5	836.8
56	1431	91	1	109.5	836.8
57	1432	65	1	109.5	836.8
57	1432	1247	1	109.5	836.8
57	1929	1001	1	109.5	836.8
57	1929	1245	1	109.5	836.8
57	1929	1377	1	109.5	836.8
58	1427	64	1	109.5	836.8
58	1433	66	1	109.5	836.8
58	1433	93	1	109.5	836.8
59	1428	65	1	109.5	836.8
59	1428	992	1	109.5	836.8
59	1434	64	1	109.5	836.8
60	1429	66	1	109.5	836.8
60	1435	77	1	109.5	836.8
60	1435	377	1	109.5	836.8
61	1430	1294	1	109.5	836.8
61	1436	62	1	109.5	836.8
62	1425	371	1	109.5	836.8
62	1425	1293	1	109.5	836.8
63	1939	945	1	109.5	836.8
63	1939	999	1	109.5	836.8
63	1939	1015	1	109.5	836.8
65	1428	992	1	109.5	836.8
65	1432	1247	1	109.5	836.8
66	1433	93	1	109.5	836.8
67	1419	1291	1	109.5	836.8
67	1438	76	1	109.5	836.8
67	1438	79	1	109.5	836.8
67	1438	86	1	109.5	836.8
68	1437	77	1	109.5	836.8
68	1437	85	1	109.5	836.8
68	1437	394	1	109.5	836.8
68	1588	342	1	109.5	836.8
68	1588	348	1	109.5	836.8
68	1588	356	1	109.5	836.8
69	1439	78	1	109.5	836.8
69	1439	81	1	109.5	836.8
69	1439	87	1	109.5	836.8
70	1440	82	1	109.5	836.8
70	1440	88	1	109.5	836.8
70	1440	1013	1	109.5	836.8
70	1470	122	1	109.5	836.8
70	1470	128	1	109.5	836.8
70	1470	133	1	109.5	836.8
71	1441	73	1	109.5	836.8
71	1441	83	1	109.5	836.8
71	1441	89	1	109.5	836.8
71	1471	129	1	109.5	836.8
71	1471	446	1	109.5	836.8
71	1471	1300	1	109.5	836.8
72	1442	74	1	109.5	836.8
72	1442	84	1	109.5	836.8
72	1442	90	1	109.5	836.8
72	1472	124	1	109.5	836.8
72	1472	130	1	109.5	836.8
72	1472	131	1	109.5	836.8
73	1441	83	1	109.5	836.8
73	1441	89	1	109.5	836.8
73	1443	79	1	109.5	836.8
73	1443	113	1	109.5	836.8
73	1443	1295	1	109.5	836.8
74	1442	84	1	109.5	836.8
74	1442	90	1	109.5	836.8
74	1444	80	1	109.5	836.8
74	1444	88	1	109.5	836.8
74	1444	1248	1	109.5	836.8
75	1445	81	1	109.5	836.8
75	1445	89	1	109.5	836.8
75	1445	115	1	109.5	836.8
75	1608	384	1	109.5	836.8
75	1608	396	1	109.5	836.8
75	1608	402	1	109.5	836.8
76	1438	79	1	109.5	836.8
76	1438	86	1	109.5	836.8
76	1446	82	1	109.5	836.8
76	1446	87	1	109.5	836.8
77	1435	377	1	109.5	836.8
77	1437	85	1	109.5	836.8
77	1437	394	1	109.5	836.8
78	1439	81	1	109.5	836.8
78	1439	87	1	109.5	836.8
78	1448	84	1	109.5	836.8
78	1448	85	1	109.5	836.8
79	1438	86	1	109.5	836.8
79	1443	113	1	109.5	836.8
79	1443	1295	1	109.5	836.8
80	1444	88	1	109.5	836.8
80	1444	1248	1	109.5	836.8
80	1941	1015	1	109.5	836.8
80	1941	1023	1	109.5	836.8
80	1941	1246	1	109.5	836.8
81	1439	87	1	109.5	836.8
81	1445	89	1	109.5	836.8
81	1445	115	1	109.5	836.8
82	1440	88	1	109.5	836.8
82	1440	1013	1	109.5	836.8
82	1446	87	1	109.5	836.8
83	1441	89	1	109.5	836.8
83	1447	400	1	109.5	836.8
83	1447	1296	1	109.5	836.8
84	1442	90	1	109.5	836.8
84	1448	85	1	109.5	836.8
85	1437	394	1	109.5	836.8
86	1951	965	1	109.5	836.8
86	1951	1021	1	109.5	836.8
86	1951	1380	1	109.5	836.8
88	1440	1013	1	109.5	836.8
88	1444	1248	1	109.5	836.8
89	1445	115	1	109.5	836.8
90	1431	91	1	109.5	836.8
91	1450	100	1	109.5	836.8
91	1450	102	1	109.5	836.8
91	1450	109	1	109.5	836.8
92	1449	108	1	109.5	836.8
92	1449	417	1	109.5	836.8
92	1449	1297	1	109.5	836.8
92	1600	366	1	109.5	836.8
92	1600	371	1	109.5	836.8
92	1600	379	1	109.5	836.8
93	1451	101	1	109.5	836.8
93	1451	104	1	109.5	836.8
93	1451	110	1	109.5	836.8
94	1452	105	1	109.5	836.8
94	1452	111	1	109.5	836.8
94	1452	1036	1	109.5	836.8
94	1482	146	1	109.5	836.8
94	1482	151	1	109.5	836.8
94	1482	156	1	109.5	836.8
95	1453	97	1	109.5	836.8
95	1453	106	1	109.5	836.8
95	1453	112	1	109.5	836.8
95	1483	152	1	109.5	836.8
95	1483	169	1	109.5	836.8
95	1483	469	1	109.5	836.8
96	1454	98	1	109.5	836.8
96	1454	107	1	109.5	836.8
96	1454	1298	1	109.5	836.8
96	1484	147	1	109.5	836.8
96	1484	153	1	109.5	836.8
96	1484	154	1	109.5	836.8
97	1453	106	1	109.5	836.8
97	1453	112	1	109.5	836.8
97	1455	102	1	109.5	836.8
97	1455	136	1	109.5	836.8
97	1455	137	1	109.5	836.8
98	1454	107	1	109.5	836.8
98	1454	1298	1	109.5	836.8
98	1456	103	1	109.5	836.8
98	1456	111	1	109.5	836.8
98	1456	1249	1	109.5	836.8
99	1457	104	1	109.5	836.8
99	1457	112	1	109.5	836.8
99	1457	139	1	109.5	836.8
99	1620	408	1	109.5	836.8
99	1620	419	1	109.5	836.8
99	1620	425	1	109.5	836.8
100	1450	102	1	109.5	836.8
100	1450	109	1	109.5	836.8
100	1458	105	1	109.5	836.8
100	1458	110	1	109.5	836.8
101	1451	104	1	109.5	836.8
101	1451	110	1	109.5	836.8
101	1460	107	1	109.5	836.8
101	1460	108	1	109.5	836.8
102	1450	109	1	109.5	836.8
102	1455	136	1	109.5	836.8
102	1455	137	1	109.5	836.8
103	1456	111	1	109.5	836.8
103	1456	1249	1	109.5	836.8
103	1953	1045	1	109.5	836.8
103	1953	1247	1	109.5	836.8
103	1953	1381	1	109.5	836.8
104	1451	110	1	109.5	836.8
104	1457	112	1	109.5	836.8
104	1457	139	1	109.5	836.8
105	1452	111	1	109.5	836.8
105	1452	1036	1	109.5	836.8
105	1458	110	1	109.5	836.8
106	1453	112	1	109.5	836.8
106	1459	123	1	109.5	836.8
106	1459	423	1	109.5	836.8
107	1454	1298	1	109.5	836.8
107	1460	108	1	109.5	836.8
108	1449	417	1	109.5	836.8
108	1449	1297	1	109.5	836.8
109	1963	988	1	109.5	836.8
109	1963	1043	1	109.5	836.8
109	1963	1059	1	109.5	836.8
111	1452	1036	1	109.5	836.8
111	1456	1249	1	109.5	836.8
112	1457	139	1	109.5	836.8
113	1443	1295	1	109.5	836.8
113	1462	122	1	109.5	836.8
113	1462	125	1	109.5	836.8
113	1462	132	1	109.5	836.8
114	1461	123	1	109.5	836.8
114	1461	131	1	109.5	836.8
114	1461	440	1	109.5	836.8
114	1612	388	1	109.5	836.8
114	1612	394	1	109.5	836.8
114	1612	402	1	109.5	836.8
115	1463	124	1	109.5	836.8
115	1463	127	1	109.5	836.8
115	1463	133	1	109.5	836.8
116	1464	128	1	109.5	836.8
116	1464	134	1	109.5	836.8
116	1464	1057	1	109.5	836.8
116	1494	168	1	109.5	836.8
116	1494	174	1	109.5	836.8
116	1494	179	1	109.5	836.8
117	1465	119	1	109.5	836.8
117	1465	129	1	109.5	836.8
117	1465	135	1	109.5	836.8
117	1495	175	1	109.5	836.8
117	1495	492	1	109.5	836.8
117	1495	1304	1	109.5	836.8
118	1466	120	1	109.5	836.8
118	1466	130	1	109.5	836.8
118	1466	136	1	109.5	836.8
118	1496	170	1	109.5	836.8
118	1496	176	1	109.5	836.8
118	1496	177	1	109.5	836.8
119	1465	129	1	109.5	836.8
119	1465	135	1	109.5	836.8
119	1467	125	1	109.5	836.8
119	1467	159	1	109.5	836.8
119	1467	1299	1	109.5	836.8
120	1466	130	1	109.5	836.8
120	1466	136	1	109.5	836.8
120	1468	126	1	109.5	836.8
120	1468	134	1	109.5	836.8
120	1468	1250	1	109.5	836.8
121	1469	127	1	109.5	836.8
121	1469	135	1	109.5	836.8
121	1469	161	1	109.5	836.8
121	1632	430	1	109.5	836.8
121	1632	442	1	109.5	836.8
121	1632	448	1	109.5	836.8
122	1462	125	1	109.5	836.8
122	1462	132	1	109.5	836.8
122	1470	128	1	109.5	836.8
122	1470	133	1	109.5	836.8
123	1459	423	1	109.5	836.8
123	1461	131	1	109.5	836.8
123	1461	440	1	109.5	836.8
124	1463	127	1	109.5	836.8
124	1463	133	1	109.5	836.8
124	1472	130	1	109.5	836.8
124	1472	131	1	109.5	836.8
125	1462	132	1	109.5	836.8
125	1467	159	1	109.5	836.8
125	1467	1299	1	109.5	836.8
126	1468	134	1	109.5	836.8
126	1468	1250	1	109.5	836.8
126	1965	1059	1	109.5	836.8
126	1965	1067	1	109.5	836.8
126	1965	1248	1	109.5	836.8
127	1463	133	1	109.5	836.8
127	1469	135	1	109.5	836.8
127	1469	161	1	109.5	836.8
128	1464	134	1	109.5	836.8
128	1464	1057	1	109.5	836.8
128	1470	133	1	109.5	836.8
129	1465	135	1	109.5	836.8
129	1471	446	1	109.5	836.8
129	1471	1300	1	109.5	836.8
130	1466	136	1	109.5	836.8
130	1472	131	1	109.5	836.8
131	1461	440	1	109.5	836.8
132	1975	1009	1	109.5	836.8
132	1975	1065	1	109.5	836.8
132	1975	1384	1	109.5	836.8
134	1464	1057	1	109.5	836.8
134	1468	1250	1	109.5	836.8
135	1469	161	1	109.5	836.8
136	1455	137	1	109.5	836.8
137	1474	146	1	109.5	836.8
137	1474	148	1	109.5	836.8
137	1474	155	1	109.5	836.8
138	1473	154	1	109.5	836.8
138	1473	463	1	109.5	836.8
138	1473	1301	1	109.5	836.8
138	1624	412	1	109.5	836.8
138	1624	417	1	109.5	836.8
138	1624	425	1	109.5	836.8
139	1475	147	1	109.5	836.8
139	1475	150	1	109.5	836.8
139	1475	156	1	109.5	836.8
140	1476	151	1	109.5	836.8
140	1476	157	1	109.5	836.8
140	1476	1080	1	109.5	836.8
140	1506	192	1	109.5	836.8
140	1506	197	1	109.5	836.8
140	1506	202	1	109.5	836.8
141	1477	143	1	109.5	836.8
141	1477	152	1	109.5	836.8
141	1477	158	1	109.5	836.8
141	1507	198	1	109.5	836.8
141	1507	215	1	109.5	836.8
141	1507	515	1	109.5	836.8
142	1478	144	1	109.5	836.8
142	1478	153	1	109.5	836.8
142	1478	1302	1	109.5	836.8
142	1508	193	1	109.5	836.8
142	1508	199	1	109.5	836.8
142	1508	200	1	109.5	836.8
143	1477	152	1	109.5	836.8
143	1477	158	1	109.5	836.8
143	1479	148	1	109.5	836.8
143	1479	182	1	109.5	836.8
143	1479	183	1	109.5	836.8
144	1478	153	1	109.5	836.8
144	1478	1302	1	109.5	836.8
144	1480	149	1	109.5	836.8
144	1480	157	1	109.5	836.8
144	1480	1251	1	109.5	836.8
145	1481	150	1	109.5	836.8
145	1481	158	1	109.5	836.8
145	1481	185	1	109.5	836.8
145	1644	454	1	109.5	836.8
145	1644	465	1	109.5	836.8
145	1644	471	1	109.5	836.8
146	1474	148	1	109.5	836.8
146	1474	155	1	109.5	836.8
146	1482	151	1	109.5	836.8
146	1482	156	1	109.5	836.8
147	1475	150	1	109.5	836.8
147	1475	156	1	109.5	836.8
147	1484	153	1	109.5	836.8
147	1484	154	1	109.5	836.8
148	1474	155	1	109.5	836.8
148	1479	182	1	109.5	836.8
148	1479	183	1	109.5	836.8
149	1480	157	1	109.5	836.8
149	1480	1251	1	109.5	836.8
149	1977	1089	1	109.5	836.8
149	1977	1249	1	109.5	836.8
149	1977	1385	1	109.5	836.8
150	1475	156	1	109.5	836.8
150	1481	158	1	109.5	836.8
150	1481	185	1	109.5	836.8
151	1476	157	1	109.5	836.8
151	1476	1080	1	109.5	836.8
151	1482	156	1	109.5	836.8
152	1477	158	1	109.5	836.8
152	1483	169	1	109.5	836.8
152	1483	469	1	109.5	836.8
153	1478	1302	1	109.5	836.8
153	1484	154	1	109.5	836.8
154	1473	463	1	109.5	836.8
154	1473	1301	1	109.5	836.8
155	1987	1032	1	109.5	836.8
155	1987	1087	1	109.5	836.8
155	1987	1103	1	109.5	836.8
157	1476	1080	1	109.5	836.8
157	1480	1251	1	109.5	836.8
158	1481	185	1	109.5	836.8
159	1467	1299	1	109.5	836.8
159	1486	168	1	109.5	836.8
159	1486	171	1	109.5	836.8
159	1486	178	1	109.5	836.8
160	1485	169	1	109.5	836.8
160	1485	177	1	109.5	836.8
160	1485	486	1	109.5	836.8
160	1636	434	1	109.5	836.8
160	1636	440	1	109.5	836.8
160	1636	448	1	109.5	836.8
161	1487	170	1	109.5	836.8
161	1487	173	1	109.5	836.8
161	1487	179	1	109.5	836.8
162	1488	174	1	109.5	836.8
162	1488	180	1	109.5	836.8
162	1488	1101	1	109.5	836.8
162	1518	214	1	109.5	836.8
162	1518	220	1	109.5	836.8
162	1518	225	1	109.5	836.8
163	1489	165	1	109.5	836.8
163	1489	175	1	109.5	836.8
163	1489	181	1	109.5	836.8
163	1519	221	1	109.5	836.8
163	1519	538	1	109.5	836.8
163	1519	1308	1	109.5	836.8
164	1490	166	1	109.5	836.8
164	1490	176	1	109.5	836.8
164	1490	182	1	109.5	836.8
164	1520	216	1	109.5	836.8
164	1520	222	1	109.5	836.8
164	1520	223	1	109.5	836.8
165	1489	175	1	109.5	836.8
165	1489	181	1	109.5	836.8
165	1491	171	1	109.5	836.8
165	1491	205	1	109.5	836.8
165	1491	1303	1	109.5	836.8
166	1490	176	1	109.5	836.8
166	1490	182	1	109.5	836.8
166	1492	172	1	109.5	836.8
166	1492	180	1	109.5	836.8
166	1492	1252	1	109.5	836.8
167	1493	173	1	109.5	836.8
167	1493	181	1	109.5	836.8
167	1493	207	1	109.5	836.8
167	1656	476	1	109.5	836.8
167	1656	488	1	109.5	836.8
167	1656	494	1	109.5	836.8
168	1486	171	1	109.5	836.8
168	1486	178	1	109.5	836.8
168	1494	174	1	109.5	836.8
168	1494	179	1	109.5	836.8
169	1483	469	1	109.5	836.8
169	1485	177	1	109.5	836.8
169	1485	486	1	109.5	836.8
170	1487	173	1	109.5	836.8
170	1487	179	1	109.5	836.8
170	1496	176	1	109.5	836.8
170	1496	177	1	109.5	836.8
171	1486	178	1	109.5	836.8
171	1491	205	1	109.5	836.8
171	1491	1303	1	109.5	836.8
172	1492	180	1	109.5	836.8
172	1492	1252	1	109.5	836.8
172	1989	1103	1	109.5	836.8
172	1989	1111	1	109.5	836.8
172	1989	1250	1	109.5	836.8
173	1487	179	1	109.5	836.8
173	1493	181	1	109.5	836.8
173	1493	207	1	109.5	836.8
174	1488	180	1	109.5	836.8
174	1488	1101	1	109.5	836.8
174	1494	179	1	109.5	836.8
175	1489	181	1	109.5	836.8
175	1495	492	1	109.5	836.8
175	1495	1304	1	109.5	836.8
176	1490	182	1	109.5	836.8
176	1496	177	1	109.5	836.8
177	1485	486	1	109.5	836.8
178	1999	1053	1	109.5	836.8
178	1999	1109	1	109.5	836.8
178	1999	1388	1	109.5	836.8
180	1488	1101	1	109.5	836.8
180	1492	1252	1	109.5	836.8
181	1493	207	1	109.5	836.8
182	1479	183	1	109.5	836.8
183	1498	192	1	109.5	836.8
183	1498	194	1	109.5	836.8
183	1498	201	1	109.5	836.8
184	1497	200	1	109.5	836.8
184	1497	509	1	109.5	836.8
184	1497	1305	1	109.5	836.8
184	1648	458	1	109.5	836.8
184	1648	463	1	109.5	836.8
184	1648	471	1	109.5	836.8
185	1499	193	1	109.5	836.8
185	1499	196	1	109.5	836.8
185	1499	202	1	109.5	836.8
186	1500	197	1	109.5	836.8
186	1500	203	1	109.5	836.8
186	1500	1124	1	109.5	836.8
186	1530	238	1	109.5	836.8
186	1530	243	1	109.5	836.8
186	1530	248	1	109.5	836.8
187	1501	189	1	109.5	836.8
187	1501	198	1	109.5	836.8
187	1501	204	1	109.5	836.8
187	1531	244	1	109.5	836.8
187	1531	261	1	109.5	836.8
187	1531	561	1	109.5	836.8
188	1502	190	1	109.5	836.8
188	1502	199	1	109.5	836.8
188	1502	1306	1	109.5	836.8
188	1532	239	1	109.5	836.8
188	1532	245	1	109.5	836.8
188	1532	246	1	109.5	836.8
189	1501	198	1	109.5	836.8
189	1501	204	1	109.5	836.8
189	1503	194	1	109.5	836.8
189	1503	228	1	109.5	836.8
189	1503	229	1	109.5	836.8
190	1502	199	1	109.5	836.8
190	1502	1306	1	109.5	836.8
190	1504	195	1	109.5	836.8
190	1504	203	1	109.5	836.8
190	1504	1253	1	109.5	836.8
191	1505	196	1	109.5	836.8
191	1505	204	1	109.5	836.8
191	1505	231	1	109.5	836.8
191	1668	500	1	109.5	836.8
191	1668	511	1	109.5	836.8
191	1668	517	1	109.5	836.8
192	1498	194	1	109.5	836.8
192	1498	201	1	109.5	836.8
192	1506	197	1	109.5	836.8
192	1506	202	1	109.5	836.8
193	1499	196	1	109.5	836.8
193	1499	202	1	109.5	836.8
193	1508	199	1	109.5	836.8
193	1508	200	1	109.5	836.8
194	1498	201	1	109.5	836.8
194	1503	228	1	109.5	836.8
194	1503	229	1	109.5	836.8
195	1504	203	1	109.5	836.8
195	1504	1253	1	109.5	836.8
195	2001	1133	1	109.5	836.8
195	2001	1251	1	109.5	836.8
195	2001	1389	1	109.5	836.8
196	1499	202	1	109.5	836.8
196	1505	204	1	109.5	836.8
196	1505	231	1	109.5	836.8
197	1500	203	1	109.5	836.8
197	1500	1124	1	109.5	836.8
197	1506	202	1	109.5	836.8
198	1501	204	1	109.5	836.8
198	1507	215	1	109.5	836.8
198	1507	515	1	109.5	836.8
199	1502	1306	1	109.5	836.8
199	1508	200	1	109.5	836.8
200	1497	509	1	109.5	836.8
200	1497	1305	1	109.5	836.8
201	2011	1076	1	109.5	836.8
201	2011	1131	1	109.5	836.8
201	2011	1147	1	109.5	836.8
203	1500	1124	1	109.5	836.8
203	1504	1253	1	109.5	836.8
204	1505	231	1	109.5	836.8
205	1491	1303	1	109.5	836.8
205	1510	214	1	109.5	836.8
205	1510	217	1	109.5	836.8
205	1510	224	1	109.5	836.8
206	1509	215	1	109.5	836.8
206	1509	223	1	109.5	836.8
206	1509	532	1	109.5	836.8
206	1660	480	1	109.5	836.8
206	1660	486	1	109.5	836.8
206	1660	494	1	109.5	836.8
207	1511	216	1	109.5	836.8
207	1511	219	1	109.5	836.8
207	1511	225	1	109.5	836.8
208	1512	220	1	109.5	836.8
208	1512	226	1	109.5	836.8
208	1512	1145	1	109.5	836.8
208	1542	260	1	109.5	836.8
208	1542	266	1	109.5	836.8
208	1542	271	1	109.5	836.8
209	1513	211	1	109.5	836.8
209	1513	221	1	109.5	836.8
209	1513	227	1	109.5	836.8
209	1543	267	1	109.5	836.8
209	1543	584	1	109.5	836.8
209	1543	1312	1	109.5	836.8
210	1514	212	1	109.5	836.8
210	1514	222	1	109.5	836.8
210	1514	228	1	109.5	836.8
210	1544	262	1	109.5	836.8
210	1544	268	1	109.5	836.8
210	1544	269	1	109.5	836.8
211	1513	221	1	109.5	836.8
211	1513	227	1	109.5	836.8
211	1515	217	1	109.5	836.8
211	1515	251	1	109.5	836.8
211	1515	1307	1	109.5	836.8
212	1514	222	1	109.5	836.8
212	1514	228	1	109.5	836.8
212	1516	218	1	109.5	836.8
212	1516	226	1	109.5	836.8
212	1516	1254	1	109.5	836.8
213	1517	219	1	109.5	836.8
213	1517	227	1	109.5	836.8
213	1517	253	1	109.5	836.8
213	1680	522	1	109.5	836.8
213	1680	534	1	109.5	836.8
213	1680	540	1	109.5	836.8
214	1510	217	1	109.5	836.8
214	1510	224	1	109.5	836.8
214	1518	220	1	109.5	836.8
214	1518	225	1	109.5	836.8
215	1507	515	1	109.5	836.8
215	1509	223	1	109.5	836.8
215	1509	532	1	109.5	836.8
216	1511	219	1	109.5	836.8
216	1511	225	1	109.5	836.8
216	1520	222	1	109.5	836.8
216	1520	223	1	109.5	836.8
217	1510	224	1	109.5	836.8
217	1515	251	1	109.5	836.8
217	1515	1307	1	109.5	836.8
218	1516	226	1	109.5	836.8
218	1516	1254	1	109.5	836.8
218	2013	1147	1	109.5	836.8
218	2013	1155	1	109.5	836.8
218	2013	1252	1	109.5	836.8
219	1511	225	1	109.5	836.8
219	1517	227	1	109.5	836.8
219	1517	253	1	109.5	836.8
220	1512	226	1	109.5	836.8
220	1512	1145	1	109.5	836.8
220	1518	225	1	109.5	836.8
221	1513	227	1	109.5	836.8
221	1519	538	1	109.5	836.8
221	1519	1308	1	109.5	836.8
222	1514	228	1	109.5	836.8
222	1520	223	1	109.5	836.8
223	1509	532	1	109.5	836.8
224	2023	1097	1	109.5	836.8
224	2023	1153	1	109.5	836.8
224	2023	1392	1	109.5	836.8
226	1512	1145	1	109.5	836.8
226	1516	1254	1	109.5	836.8
227	1517	253	1	109.5	836.8
228	1503	229	1	109.5	836.8
229	1522	238	1	109.5	836.8
229	1522	240	1	109.5	836.8
229	1522	247	1	109.5	836.8
230	1521	246	1	109.5	836.8
230	1521	555	1	109.5	836.8
230	1521	1309	1	109.5	836.8
230	1672	504	1	109.5	836.8
230	1672	509	1	109.5	836.8
230	1672	517	1	109.5	836.8
231	1523	239	1	109.5	836.8
231	1523	242	1	109.5	836.8
231	1523	248	1	109.5	836.8
232	1524	243	1	109.5	836.8
232	1524	249	1	109.5	836.8
232	1524	1168	1	109.5	836.8
232	1554	281	1	109.5	836.8
232	1554	286	1	109.5	836.8
232	1554	291	1	109.5	836.8
233	1525	235	1	109.5	836.8
233	1525	244	1	109.5	836.8
233	1525	250	1	109.5	836.8
233	1555	287	1	109.5	836.8
233	1555	301	1	109.5	836.8
233	1555	604	1	109.5	836.8
234	1526	236	1	109.5	836.8
234	1526	245	1	109.5	836.8
234	1526	1310	1	109.5	836.8
234	1556	282	1	109.5	836.8
234	1556	288	1	109.5	836.8
234	1556	289	1	109.5	836.8
235	1525	244	1	109.5	836.8
235	1525	250	1	109.5	836.8
235	1527	240	1	109.5	836.8
235	1527	274	1	109.5	836.8
235	1527	275	1	109.5	836.8
236	1526	245	1	109.5	836.8
236	1526	1310	1	109.5	836.8
236	1528	241	1	109.5	836.8
236	1528	249	1	109.5	836.8
236	1528	1255	1	109.5	836.8
237	1529	242	1	109.5	836.8
237	1529	250	1	109.5	836.8
237	1529	277	1	109.5	836.8
237	1692	546	1	109.5	836.8
237	1692	557	1	109.5	836.8
237	1692	563	1	109.5	836.8
238	1522	240	1	109.5	836.8
238	1522	247	1	109.5	836.8
238	1530	243	1	109.5	836.8
238	1530	248	1	109.5	836.8
239	1523	242	1	109.5	836.8
239	1523	248	1	109.5	836.8
239	1532	245	1	109.5	836.8
239	1532	246	1	109.5	836.8
240	1522	247	1	109.5	836.8
240	1527	274	1	109.5	836.8
240	1527	275	1	109.5	836.8
241	1528	249	1	109.5	836.8
241	1528	1255	1	109.5	836.8
241	2025	1177	1	109.5	836.8
241	2025	1253	1	109.5	836.8
241	2025	1393	1	109.5	836.8
242	1523	248	1	109.5	836.8
242	1529	250	1	109.5	836.8
242	1529	277	1	109.5	836.8
243	1524	249	1	109.5	836.8
243	1524	1168	1	109.5	836.8
243	1530	248	1	109.5	836.8
244	1525	250	1	109.5	836.8
244	1531	261	1	109.5	836.8
244	1531	561	1	109.5	836.8
245	1526	1310	1	109.5	836.8
245	1532	246	1	109.5	836.8
246	1521	555	1	109.5	836.8
246	1521	1309	1	109.5	836.8
247	2035	1120	1	109.5	836.8
247	2035	1175	1	109.5	836.8
247	2035	1191	1	109.5	836.8
249	1524	1168	1	109.5	836.8
249	1528	1255	1	109.5	836.8
250	1529	277	1	109.5	836.8
251	1515	1307	1	109.5	836.8
251	1534	260	1	109.5	836.8
251	1534	263	1	109.5	836.8
251	1534	270	1	109.5	836.8
252	1533	261	1	109.5	836.8
252	1533	269	1	109.5	836.8
252	1533	578	1	109.5	836.8
252	1684	526	1	109.5	836.8
252	1684	532	1	109.5	836.8
252	1684	540	1	109.5	836.8
253	1535	262	1	109.5	836.8
253	1535	265	1	109.5	836.8
253	1535	271	1	109.5	836.8
254	1536	266	1	109.5	836.8
254	1536	272	1	109.5	836.8
254	1536	1189	1	109.5	836.8
254	1566	300	1	109.5	836.8
254	1566	306	1	109.5	836.8
254	1566	311	1	109.5	836.8
255	1537	257	1	109.5	836.8
255	1537	267	1	109.5	836.8
255	1537	273	1	109.5	836.8
255	1567	307	1	109.5	836.8
255	1567	624	1	109.5	836.8
255	1567	1316	1	109.5	836.8
256	1538	258	1	109.5	836.8
256	1538	268	1	109.5	836.8
256	1538	274	1	109.5	836.8
256	1568	302	1	109.5	836.8
256	1568	308	1	109.5	836.8
256	1568	309	1	109.5	836.8
257	1537	267	1	109.5	836.8
257	1537	273	1	109.5	836.8
257	1539	263	1	109.5	836.8
257	1539	294	1	109.5	836.8
257	1539	1311	1	109.5	836.8
258	1538	268	1	109.5	836.8
258	1538	274	1	109.5	836.8
258	1540	264	1	109.5	836.8
258	1540	272	1	109.5	836.8
258	1540	1256	1	109.5	836.8
259	1541	265	1	109.5	836.8
259	1541	273	1	109.5	836.8
259	1541	296	1	109.5	836.8
259	1704	568	1	109.5	836.8
259	1704	580	1	109.5	836.8
259	1704	586	1	109.5	836.8
260	1534	263	1	109.5	836.8
260	1534	270	1	109.5	836.8
260	1542	266	1	109.5	836.8
260	1542	271	1	109.5	836.8
261	1531	561	1	109.5	836.8
261	1533	269	1	109.5	836.8
261	1533	578	1	109.5	836.8
262	1535	265	1	109.5	836.8
262	1535	271	1	109.5	836.8
262	1544	268	1	109.5	836.8
262	1544	269	1	109.5	836.8
263	1534	270	1	109.5	836.8
263	1539	294	1	109.5	836.8
263	1539	1311	1	109.5	836.8
264	1540	272	1	109.5	836.8
264	1540	1256	1	109.5	836.8
264	2037	1191	1	109.5	836.8
264	2037	1199	1	109.5	836.8
264	2037	1254	1	109.5	836.8
265	1535	271	1	109.5	836.8
265	1541	273	1	109.5	836.8
265	1541	296	1	109.5	836.8
266	1536	272	1	109.5	836.8
266	1536	1189	1	109.5	836.8
266	1542	271	1	109.5	836.8
267	1537	273	1	109.5	836.8
267	1543	584	1	109.5	836.8
267	1543	1312	1	109.5	836.8
268	1538	274	1	109.5	836.8
268	1544	269	1	109.5	836.8
269	1533	578	1	109.5	836.8
270	2047	1141	1	109.5	836.8
270	2047	1197	1	109.5	836.8
270	2047	1396	1	109.5	836.8
272	1536	1189	1	109.5	836.8
272	1540	1256	1	109.5	836.8
273	1541	296	1	109.5	836.8
274	1527	275	1	109.5	836.8
275	1546	281	1	109.5	836.8
275	1546	283	1	109.5	836.8
275	1546	290	1	109.5	836.8
276	1545	289	1	109.5	836.8
276	1545	598	1	109.5	836.8
276	1545	1313	1	109.5	836.8
276	1696	550	1	109.5	836.8
276	1696	555	1	109.5	836.8
276	1696	563	1	109.5	836.8
277	1547	282	1	109.5	836.8
277	1547	285	1	109.5	836.8
277	1547	291	1	109.5	836.8
278	1549	287	1	109.5	836.8
278	1549	293	1	109.5	836.8
278	1549	1266	1	109.5	836.8
278	1551	283	1	109.5	836.8
278	1551	314	1	109.5	836.8
279	1550	288	1	109.5	836.8
279	1550	1267	1	109.5	836.8
279	1550	1314	1	109.5	836.8
279	1552	284	1	109.5	836.8
279	1552	292	1	109.5	836.8
279	1552	1243	1	109.5	836.8
280	1553	285	1	109.5	836.8
280	1553	293	1	109.5	836.8
280	1553	1257	1	109.5	836.8
280	1716	600	1	109.5	836.8
280	1716	606	1	109.5	836.8
280	1716	1271	1	109.5	836.8
281	1546	283	1	109.5	836.8
281	1546	290	1	109.5	836.8
281	1554	286	1	109.5	836.8
281	1554	291	1	109.5	836.8
282	1547	285	1	109.5	836.8
282	1547	291	1	109.5	836.8
282	1556	288	1	109.5	836.8
282	1556	289	1	109.5	836.8
283	1546	290	1	109.5	836.8
283	1551	314	1	109.5	836.8
284	1552	292	1	109.5	836.8
284	1552	1243	1	109.5	836.8
284	2049	1218	1	109.5	836.8
284	2049	1255	1	109.5	836.8
284	2049	1397	1	109.5	836.8
285	1547	291	1	109.5	836.8
285	1553	293	1	109.5	836.8
285	1553	1257	1	109.5	836.8
286	1548	292	1	109.5	836.8
286	1548	1209	1	109.5	836.8
286	1548	1265	1	109.5	836.8
286	1554	291	1	109.5	836.8
287	1549	293	1	109.5	836.8
287	1549	1266	1	109.5	836.8
287	1555	301	1	109.5	836.8
287	1555	604	1	109.5	836.8
288	1550	1267	1	109.5	836.8
288	1550	1314	1	109.5	836.8
288	1556	289	1	109.5	836.8
289	1545	598	1	109.5	836.8
289	1545	1313	1	109.5	836.8
290	2059	1164	1	109.5	836.8
290	2059	1216	1	109.5	836.8
290	2059	1229	1	109.5	836.8
292	1548	1209	1	109.5	836.8
292	1548	1265	1	109.5	836.8
292	1552	1243	1	109.5	836.8
293	1549	1266	1	109.5	836.8
293	1553	1257	1	109.5	836.8
294	1539	1311	1	109.5	836.8
294	1558	300	1	109.5	836.8
294	1558	303	1	109.5	836.8
294	1558	310	1	109.5	836.8
295	1557	301	1	109.5	836.8
295	1557	309	1	109.5	836.8
295	1557	618	1	109.5	836.8
295	1708	572	1	109.5	836.8
295	1708	578	1	109.5	836.8
295	1708	586	1	109.5	836.8
296	1559	302	1	109.5	836.8
296	1559	305	1	109.5	836.8
296	1559	311	1	109.5	836.8
297	1561	307	1	109.5	836.8
297	1561	313	1	109.5	836.8
297	1561	1269	1	109.5	836.8
297	1563	303	1	109.5	836.8
297	1563	1315	1	109.5	836.8
298	1562	308	1	109.5	836.8
298	1562	314	1	109.5	836.8
298	1562	1270	1	109.5	836.8
298	1564	304	1	109.5	836.8
298	1564	312	1	109.5	836.8
298	1564	1244	1	109.5	836.8
299	1565	305	1	109.5	836.8
299	1565	313	1	109.5	836.8
299	1565	1258	1	109.5	836.8
299	1728	620	1	109.5	836.8
299	1728	626	1	109.5	836.8
299	1728	1274	1	109.5	836.8
300	1558	303	1	109.5	836.8
300	1558	310	1	109.5	836.8
300	1566	306	1	109.5	836.8
300	1566	311	1	109.5	836.8
301	1555	604	1	109.5	836.8
301	1557	309	1	109.5	836.8
301	1557	618	1	109.5	836.8
302	1559	305	1	109.5	836.8
302	1559	311	1	109.5	836.8
302	1568	308	1	109.5	836.8
302	1568	309	1	109.5	836.8
303	1558	310	1	109.5	836.8
303	1563	1315	1	109.5	836.8
304	1564	312	1	109.5	836.8
304	1564	1244	1	109.5	836.8
304	2061	1229	1	109.5	836.8
304	2061	1237	1	109.5	836.8
304	2061	1256	1	109.5	836.8
305	1559	311	1	109.5	836.8
305	1565	313	1	109.5	836.8
305	1565	1258	1	109.5	836.8
306	1560	312	1	109.5	836.8
306	1560	1227	1	109.5	836.8
306	1560	1268	1	109.5	836.8
306	1566	311	1	109.5	836.8
307	1561	313	1	109.5	836.8
307	1561	1269	1	109.5	836.8
307	1567	624	1	109.5	836.8
307	1567	1316	1	109.5	836.8
308	1562	314	1	109.5	836.8
308	1562	1270	1	109.5	836.8
308	1568	309	1	109.5	836.8
309	1557	618	1	109.5	836.8
310	2071	1185	1	109.5	836.8
310	2071	1235	1	109.5	836.8
310	2071	1400	1	109.5	836.8
312	1560	1227	1	109.5	836.8
312	1560	1268	1	109.5	836.8
312	1564	1244	1	109.5	836.8
313	1561	1269	1	109.5	836.8
313	1565	1258	1	109.5	836.8
314	1562	1270	1	109.5	836.8
315	1570	323	1	109.5	836.8
315	1570	325	1	109.5	836.8
315	1570	332	1	109.5	836.8
315	1719	592	1	109.5	836.8
315	1719	597	1	109.5	836.8
315	1719	628	1	109.5	836.8
316	1569	331	1	109.5	836.8
316	1569	640	1	109.5	836.8
316	1569	1317	1	109.5	836.8
316	1888	907	1	109.5	836.8
316	1888	912	1	109.5	836.8
316	1888	920	1	109.5	836.8
317	1572	328	1	109.5	836.8
317	1572	334	1	109.5	836.8
317	1602	368	1	109.5	836.8
317	1602	373	1	109.5	836.8
317	1602	378	1	109.5	836.8
318	1573	320	1	109.5	836.8
318	1573	329	1	109.5	836.8
318	1573	335	1	109.5	836.8
318	1603	374	1	109.5	836.8
318	1603	391	1	109.5	836.8
318	1603	691	1	109.5	836.8
319	1574	321	1	109.5	836.8
319	1574	330	1	109.5	836.8
319	1574	1318	1	109.5	836.8
319	1604	369	1	109.5	836.8
319	1604	375	1	109.5	836.8
319	1604	376	1	109.5	836.8
320	1573	329	1	109.5	836.8
320	1573	335	1	109.5	836.8
320	1575	325	1	109.5	836.8
320	1575	358	1	109.5	836.8
320	1575	359	1	109.5	836.8
321	1574	330	1	109.5	836.8
321	1574	1318	1	109.5	836.8
321	1576	326	1	109.5	836.8
321	1576	334	1	109.5	836.8
322	1577	327	1	109.5	836.8
322	1577	335	1	109.5	836.8
322	1577	361	1	109.5	836.8
322	1740	631	1	109.5	836.8
322	1740	642	1	109.5	836.8
322	1740	648	1	109.5	836.8
323	1570	325	1	109.5	836.8
323	1570	332	1	109.5	836.8
323	1578	328	1	109.5	836.8
323	1578	333	1	109.5	836.8
323	1578	1271	1	109.5	836.8
324	1571	327	1	109.5	836.8
324	1571	333	1	109.5	836.8
324	1571	1259	1	109.5	836.8
324	1580	330	1	109.5	836.8
324	1580	331	1	109.5	836.8
324	1580	1273	1	109.5	836.8
325	1570	332	1	109.5	836.8
325	1575	358	1	109.5	836.8
325	1575	359	1	109.5	836.8
326	1401	1289	1	109.5	836.8
326	1576	334	1	109.5	836.8
327	1571	333	1	109.5	836.8
327	1571	1259	1	109.5	836.8
327	1577	335	1	109.5	836.8
327	1577	361	1	109.5	836.8
328	1572	334	1	109.5	836.8
328	1578	333	1	109.5	836.8
328	1578	1271	1	109.5	836.8
329	1573	335	1	109.5	836.8
329	1579	345	1	109.5	836.8
329	1579	646	1	109.5	836.8
329	1579	1272	1	109.5	836.8
330	1574	1318	1	109.5	836.8
330	1580	331	1	109.5	836.8
330	1580	1273	1	109.5	836.8
331	1569	640	1	109.5	836.8
331	1569	1317	1	109.5	836.8
331	1580	1273	1	109.5	836.8
332	1411	1266	1	109.5	836.8
333	1571	1259	1	109.5	836.8
333	1578	1271	1	109.5	836.8
335	1577	361	1	109.5	836.8
336	1582	344	1	109.5	836.8
336	1582	347	1	109.5	836.8
336	1582	354	1	109.5	836.8
336	1731	611	1	109.5	836.8
336	1731	617	1	109.5	836.8
336	1731	1343	1	109.5	836.8
337	1581	345	1	109.5	836.8
337	1581	353	1	109.5	836.8
337	1581	662	1	109.5	836.8
337	1900	926	1	109.5	836.8
337	1900	932	1	109.5	836.8
337	1900	940	1	109.5	836.8
338	1584	350	1	109.5	836.8
338	1584	356	1	109.5	836.8
338	1614	390	1	109.5	836.8
338	1614	396	1	109.5	836.8
338	1614	401	1	109.5	836.8
339	1585	341	1	109.5	836.8
339	1585	351	1	109.5	836.8
339	1585	357	1	109.5	836.8
339	1615	397	1	109.5	836.8
339	1615	714	1	109.5	836.8
339	1615	1324	1	109.5	836.8
340	1586	342	1	109.5	836.8
340	1586	352	1	109.5	836.8
340	1586	358	1	109.5	836.8
340	1616	392	1	109.5	836.8
340	1616	398	1	109.5	836.8
340	1616	399	1	109.5	836.8
341	1585	351	1	109.5	836.8
341	1585	357	1	109.5	836.8
341	1587	347	1	109.5	836.8
341	1587	381	1	109.5	836.8
341	1587	1319	1	109.5	836.8
342	1586	352	1	109.5	836.8
342	1586	358	1	109.5	836.8
342	1588	348	1	109.5	836.8
342	1588	356	1	109.5	836.8
343	1589	349	1	109.5	836.8
343	1589	357	1	109.5	836.8
343	1589	383	1	109.5	836.8
343	1752	652	1	109.5	836.8
343	1752	664	1	109.5	836.8
343	1752	670	1	109.5	836.8
344	1582	347	1	109.5	836.8
344	1582	354	1	109.5	836.8
344	1590	350	1	109.5	836.8
344	1590	355	1	109.5	836.8
344	1590	1274	1	109.5	836.8
345	1579	646	1	109.5	836.8
345	1579	1272	1	109.5	836.8
345	1581	353	1	109.5	836.8
345	1581	662	1	109.5	836.8
346	1583	349	1	109.5	836.8
346	1583	355	1	109.5	836.8
346	1583	1260	1	109.5	836.8
346	1592	352	1	109.5	836.8
346	1592	353	1	109.5	836.8
346	1592	1276	1	109.5	836.8
347	1582	354	1	109.5	836.8
347	1587	381	1	109.5	836.8
347	1587	1319	1	109.5	836.8
348	1588	356	1	109.5	836.8
349	1583	355	1	109.5	836.8
349	1583	1260	1	109.5	836.8
349	1589	357	1	109.5	836.8
349	1589	383	1	109.5	836.8
350	1584	356	1	109.5	836.8
350	1590	355	1	109.5	836.8
350	1590	1274	1	109.5	836.8
351	1585	357	1	109.5	836.8
351	1591	668	1	109.5	836.8
351	1591	1275	1	109.5	836.8
351	1591	1320	1	109.5	836.8
352	1586	358	1	109.5	836.8
352	1592	353	1	109.5	836.8
352	1592	1276	1	109.5	836.8
353	1581	662	1	109.5	836.8
353	1592	1276	1	109.5	836.8
354	1423	1269	1	109.5	836.8
354	1423	1292	1	109.5	836.8
355	1583	1260	1	109.5	836.8
355	1590	1274	1	109.5	836.8
357	1589	383	1	109.5	836.8
358	1575	359	1	109.5	836.8
359	1594	368	1	109.5	836.8
359	1594	370	1	109.5	836.8
359	1594	377	1	109.5	836.8
360	1593	376	1	109.5	836.8
360	1593	685	1	109.5	836.8
360	1593	1321	1	109.5	836.8
360	1744	635	1	109.5	836.8
360	1744	640	1	109.5	836.8
360	1744	648	1	109.5	836.8
361	1595	369	1	109.5	836.8
361	1595	372	1	109.5	836.8
361	1595	378	1	109.5	836.8
362	1596	373	1	109.5	836.8
362	1596	379	1	109.5	836.8
362	1626	414	1	109.5	836.8
362	1626	419	1	109.5	836.8
362	1626	424	1	109.5	836.8
363	1597	365	1	109.5	836.8
363	1597	374	1	109.5	836.8
363	1597	380	1	109.5	836.8
363	1627	420	1	109.5	836.8
363	1627	437	1	109.5	836.8
363	1627	737	1	109.5	836.8
364	1598	366	1	109.5	836.8
364	1598	375	1	109.5	836.8
364	1598	1322	1	109.5	836.8
364	1628	415	1	109.5	836.8
364	1628	421	1	109.5	836.8
364	1628	422	1	109.5	836.8
365	1597	374	1	109.5	836.8
365	1597	380	1	109.5	836.8
365	1599	370	1	109.5	836.8
365	1599	404	1	109.5	836.8
365	1599	405	1	109.5	836.8
366	1598	375	1	109.5	836.8
366	1598	1322	1	109.5	836.8
366	1600	371	1	109.5	836.8
366	1600	379	1	109.5	836.8
367	1601	372	1	109.5	836.8
367	1601	380	1	109.5	836.8
367	1601	407	1	109.5	836.8
367	1764	676	1	109.5	836.8
367	1764	687	1	109.5	836.8
367	1764	693	1	109.5	836.8
368	1594	370	1	109.5	836.8
368	1594	377	1	109.5	836.8
368	1602	373	1	109.5	836.8
368	1602	378	1	109.5	836.8
369	1595	372	1	109.5	836.8
369	1595	378	1	109.5	836.8
369	1604	375	1	109.5	836.8
369	1604	376	1	109.5	836.8
370	1594	377	1	109.5	836.8
370	1599	404	1	109.5	836.8
370	1599	405	1	109.5	836.8
371	1425	1293	1	109.5	836.8
371	1600	379	1	109.5	836.8
372	1595	378	1	109.5	836.8
372	1601	380	1	109.5	836.8
372	1601	407	1	109.5	836.8
373	1596	379	1	109.5	836.8
373	1602	378	1	109.5	836.8
374	1597	380	1	109.5	836.8
374	1603	391	1	109.5	836.8
374	1603	691	1	109.5	836.8
375	1598	1322	1	109.5	836.8
375	1604	376	1	109.5	836.8
376	1593	685	1	109.5	836.8
376	1593	1321	1	109.5	836.8
380	1601	407	1	109.5	836.8
381	1587	1319	1	109.5	836.8
381	1606	390	1	109.5	836.8
381	1606	393	1	109.5	836.8
381	1606	400	1	109.5	836.8
382	1605	391	1	109.5	836.8
382	1605	399	1	109.5	836.8
382	1605	708	1	109.5	836.8
382	1756	656	1	109.5	836.8
382	1756	662	1	109.5	836.8
382	1756	670	1	109.5	836.8
383	1607	392	1	109.5	836.8
383	1607	395	1	109.5	836.8
383	1607	401	1	109.5	836.8
384	1608	396	1	109.5	836.8
384	1608	402	1	109.5	836.8
384	1638	436	1	109.5	836.8
384	1638	442	1	109.5	836.8
384	1638	447	1	109.5	836.8
385	1609	387	1	109.5	836.8
385	1609	397	1	109.5	836.8
385	1609	403	1	109.5	836.8
385	1639	443	1	109.5	836.8
385	1639	760	1	109.5	836.8
385	1639	1328	1	109.5	836.8
386	1610	388	1	109.5	836.8
386	1610	398	1	109.5	836.8
386	1610	404	1	109.5	836.8
386	1640	438	1	109.5	836.8
386	1640	444	1	109.5	836.8
386	1640	445	1	109.5	836.8
387	1609	397	1	109.5	836.8
387	1609	403	1	109.5	836.8
387	1611	393	1	109.5	836.8
387	1611	427	1	109.5	836.8
387	1611	1323	1	109.5	836.8
388	1610	398	1	109.5	836.8
388	1610	404	1	109.5	836.8
388	1612	394	1	109.5	836.8
388	1612	402	1	109.5	836.8
389	1613	395	1	109.5	836.8
389	1613	403	1	109.5	836.8
389	1613	429	1	109.5	836.8
389	1776	698	1	109.5	836.8
389	1776	710	1	109.5	836.8
389	1776	716	1	109.5	836.8
390	1606	393	1	109.5	836.8
390	1606	400	1	109.5	836.8
390	1614	396	1	109.5	836.8
390	1614	401	1	109.5	836.8
391	1603	691	1	109.5	836.8
391	1605	399	1	109.5	836.8
391	1605	708	1	109.5	836.8
392	1607	395	1	109.5	836.8
392	1607	401	1	109.5	836.8
392	1616	398	1	109.5	836.8
392	1616	399	1	109.5	836.8
393	1606	400	1	109.5	836.8
393	1611	427	1	109.5	836.8
393	1611	1323	1	109.5	836.8
394	1612	402	1	109.5	836.8
395	1607	401	1	109.5	836.8
395	1613	403	1	109.5	836.8
395	1613	429	1	109.5	836.8
396	1608	402	1	109.5	836.8
396	1614	401	1	109.5	836.8
397	1609	403	1	109.5	836.8
397	1615	714	1	109.5	836.8
397	1615	1324	1	109.5	836.8
398	1610	404	1	109.5	836.8
398	1616	399	1	109.5	836.8
399	1605	708	1	109.5	836.8
400	1447	1296	1	109.5	836.8
403	1613	429	1	109.5	836.8
404	1599	405	1	109.5	836.8
405	1618	414	1	109.5	836.8
405	1618	416	1	109.5	836.8
405	1618	423	1	109.5	836.8
406	1617	422	1	109.5	836.8
406	1617	731	1	109.5	836.8
406	1617	1325	1	109.5	836.8
406	1768	680	1	109.5	836.8
406	1768	685	1	109.5	836.8
406	1768	693	1	109.5	836.8
407	1619	415	1	109.5	836.8
407	1619	418	1	109.5	836.8
407	1619	424	1	109.5	836.8
408	1620	419	1	109.5	836.8
408	1620	425	1	109.5	836.8
408	1650	460	1	109.5	836.8
408	1650	465	1	109.5	836.8
408	1650	470	1	109.5	836.8
409	1621	411	1	109.5	836.8
409	1621	420	1	109.5	836.8
409	1621	426	1	109.5	836.8
409	1651	466	1	109.5	836.8
409	1651	483	1	109.5	836.8
409	1651	783	1	109.5	836.8
410	1622	412	1	109.5	836.8
410	1622	421	1	109.5	836.8
410	1622	1326	1	109.5	836.8
410	1652	461	1	109.5	836.8
410	1652	467	1	109.5	836.8
410	1652	468	1	109.5	836.8
411	1621	420	1	109.5	836.8
411	1621	426	1	109.5	836.8
411	1623	416	1	109.5	836.8
411	1623	450	1	109.5	836.8
411	1623	451	1	109.5	836.8
412	1622	421	1	109.5	836.8
412	1622	1326	1	109.5	836.8
412	1624	417	1	109.5	836.8
412	1624	425	1	109.5	836.8
413	1625	418	1	109.5	836.8
413	1625	426	1	109.5	836.8
413	1625	453	1	109.5	836.8
413	1788	722	1	109.5	836.8
413	1788	733	1	109.5	836.8
413	1788	739	1	109.5	836.8
414	1618	416	1	109.5	836.8
414	1618	423	1	109.5	836.8
414	1626	419	1	109.5	836.8
414	1626	424	1	109.5	836.8
415	1619	418	1	109.5	836.8
415	1619	424	1	109.5	836.8
415	1628	421	1	109.5	836.8
415	1628	422	1	109.5	836.8
416	1618	423	1	109.5	836.8
416	1623	450	1	109.5	836.8
416	1623	451	1	109.5	836.8
417	1449	1297	1	109.5	836.8
417	1624	425	1	109.5	836.8
418	1619	424	1	109.5	836.8
418	1625	426	1	109.5	836.8
418	1625	453	1	109.5	836.8
419	1620	425	1	109.5	836.8
419	1626	424	1	109.5	836.8
420	1621	426	1	109.5	836.8
420	1627	437	1	109.5	836.8
420	1627	737	1	109.5	836.8
421	1622	1326	1	109.5	836.8
421	1628	422	1	109.5	836.8
422	1617	731	1	109.5	836.8
422	1617	1325	1	109.5	836.8
426	1625	453	1	109.5	836.8
427	1611	1323	1	109.5	836.8
427	1630	436	1	109.5	836.8
427	1630	439	1	109.5	836.8
427	1630	446	1	109.5	836.8
428	1629	437	1	109.5	836.8
428	1629	445	1	109.5	836.8
428	1629	754	1	109.5	836.8
428	1780	702	1	109.5	836.8
428	1780	708	1	109.5	836.8
428	1780	716	1	109.5	836.8
429	1631	438	1	109.5	836.8
429	1631	441	1	109.5	836.8
429	1631	447	1	109.5	836.8
430	1632	442	1	109.5	836.8
430	1632	448	1	109.5	836.8
430	1662	482	1	109.5	836.8
430	1662	488	1	109.5	836.8
430	1662	493	1	109.5	836.8
431	1633	433	1	109.5	836.8
431	1633	443	1	109.5	836.8
431	1633	449	1	109.5	836.8
431	1663	489	1	109.5	836.8
431	1663	806	1	109.5	836.8
431	1663	1332	1	109.5	836.8
432	1634	434	1	109.5	836.8
432	1634	444	1	109.5	836.8
432	1634	450	1	109.5	836.8
432	1664	484	1	109.5	836.8
432	1664	490	1	109.5	836.8
432	1664	491	1	109.5	836.8
433	1633	443	1	109.5	836.8
433	1633	449	1	109.5	836.8
433	1635	439	1	109.5	836.8
433	1635	473	1	109.5	836.8
433	1635	1327	1	109.5	836.8
434	1634	444	1	109.5	836.8
434	1634	450	1	109.5	836.8
434	1636	440	1	109.5	836.8
434	1636	448	1	109.5	836.8
435	1637	441	1	109.5	836.8
435	1637	449	1	109.5	836.8
435	1637	475	1	109.5	836.8
435	1800	744	1	109.5	836.8
435	1800	756	1	109.5	836.8
435	1800	762	1	109.5	836.8
436	1630	439	1	109.5	836.8
436	1630	446	1	109.5	836.8
436	1638	442	1	109.5	836.8
436	1638	447	1	109.5	836.8
437	1627	737	1	109.5	836.8
437	1629	445	1	109.5	836.8
437	1629	754	1	109.5	836.8
438	1631	441	1	109.5	836.8
438	1631	447	1	109.5	836.8
438	1640	444	1	109.5	836.8
438	1640	445	1	109.5	836.8
439	1630	446	1	109.5	836.8
439	1635	473	1	109.5	836.8
439	1635	1327	1	109.5	836.8
440	1636	448	1	109.5	836.8
441	1631	447	1	109.5	836.8
441	1637	449	1	109.5	836.8
441	1637	475	1	109.5	836.8
442	1632	448	1	109.5	836.8
442	1638	447	1	109.5	836.8
443	1633	449	1	109.5	836.8
443	1639	760	1	109.5	836.8
443	1639	1328	1	109.5	836.8
444	1634	450	1	109.5	836.8
444	1640	445	1	109.5	836.8
445	1629	754	1	109.5	836.8
446	1471	1300	1	109.5	836.8
449	1637	475	1	109.5	836.8
450	1623	451	1	109.5	836.8
451	1642	460	1	109.5	836.8
451	1642	462	1	109.5	836.8
451	1642	469	1	109.5	836.8
452	1641	468	1	109.5	836.8
452	1641	777	1	109.5	836.8
452	1641	1329	1	109.5	836.8
452	1792	726	1	109.5	836.8
452	1792	731	1	109.5	836.8
452	1792	739	1	109.5	836.8
453	1643	461	1	109.5	836.8
453	1643	464	1	109.5	836.8
453	1643	470	1	109.5	836.8
454	1644	465	1	109.5	836.8
454	1644	471	1	109.5	836.8
454	1674	506	1	109.5	836.8
454	1674	511	1	109.5	836.8
454	1674	516	1	109.5	836.8
455	1645	457	1	109.5	836.8
455	1645	466	1	109.5	836.8
455	1645	472	1	109.5	836.8
455	1675	512	1	109.5	836.8
455	1675	529	1	109.5	836.8
455	1675	829	1	109.5	836.8
456	1646	458	1	109.5	836.8
456	1646	467	1	109.5	836.8
456	1646	1330	1	109.5	836.8
456	1676	507	1	109.5	836.8
456	1676	513	1	109.5	836.8
456	1676	514	1	109.5	836.8
457	1645	466	1	109.5	836.8
457	1645	472	1	109.5	836.8
457	1647	462	1	109.5	836.8
457	1647	496	1	109.5	836.8
457	1647	497	1	109.5	836.8
458	1646	467	1	109.5	836.8
458	1646	1330	1	109.5	836.8
458	1648	463	1	109.5	836.8
458	1648	471	1	109.5	836.8
459	1649	464	1	109.5	836.8
459	1649	472	1	109.5	836.8
459	1649	499	1	109.5	836.8
459	1812	768	1	109.5	836.8
459	1812	779	1	109.5	836.8
459	1812	785	1	109.5	836.8
460	1642	462	1	109.5	836.8
460	1642	469	1	109.5	836.8
460	1650	465	1	109.5	836.8
460	1650	470	1	109.5	836.8
461	1643	464	1	109.5	836.8
461	1643	470	1	109.5	836.8
461	1652	467	1	109.5	836.8
461	1652	468	1	109.5	836.8
462	1642	469	1	109.5	836.8
462	1647	496	1	109.5	836.8
462	1647	497	1	109.5	836.8
463	1473	1301	1	109.5	836.8
463	1648	471	1	109.5	836.8
464	1643	470	1	109.5	836.8
464	1649	472	1	109.5	836.8
464	1649	499	1	109.5	836.8
465	1644	471	1	109.5	836.8
465	1650	470	1	109.5	836.8
466	1645	472	1	109.5	836.8
466	1651	483	1	109.5	836.8
466	1651	783	1	109.5	836.8
467	1646	1330	1	109.5	836.8
467	1652	468	1	109.5	836.8
468	1641	777	1	109.5	836.8
468	1641	1329	1	109.5	836.8
472	1649	499	1	109.5	836.8
473	1635	1327	1	109.5	836.8
473	1654	482	1	109.5	836.8
473	1654	485	1	109.5	836.8
473	1654	492	1	109.5	836.8
474	1653	483	1	109.5	836.8
474	1653	491	1	109.5	836.8
474	1653	800	1	109.5	836.8
474	1804	748	1	109.5	836.8
474	1804	754	1	109.5	836.8
474	1804	762	1	109.5	836.8
475	1655	484	1	109.5	836.8
475	1655	487	1	109.5	836.8
475	1655	493	1	109.5	836.8
476	1656	488	1	109.5	836.8
476	1656	494	1	109.5	836.8
476	1686	528	1	109.5	836.8
476	1686	534	1	109.5	836.8
476	1686	539	1	109.5	836.8
477	1657	479	1	109.5	836.8
477	1657	489	1	109.5	836.8
477	1657	495	1	109.5	836.8
477	1687	535	1	109.5	836.8
477	1687	852	1	109.5	836.8
477	1687	1336	1	109.5	836.8
478	1658	480	1	109.5	836.8
478	1658	490	1	109.5	836.8
478	1658	496	1	109.5	836.8
478	1688	530	1	109.5	836.8
478	1688	536	1	109.5	836.8
478	1688	537	1	109.5	836.8
479	1657	489	1	109.5	836.8
479	1657	495	1	109.5	836.8
479	1659	485	1	109.5	836.8
479	1659	519	1	109.5	836.8
479	1659	1331	1	109.5	836.8
480	1658	490	1	109.5	836.8
480	1658	496	1	109.5	836.8
480	1660	486	1	109.5	836.8
480	1660	494	1	109.5	836.8
481	1661	487	1	109.5	836.8
481	1661	495	1	109.5	836.8
481	1661	521	1	109.5	836.8
481	1824	790	1	109.5	836.8
481	1824	802	1	109.5	836.8
481	1824	808	1	109.5	836.8
482	1654	485	1	109.5	836.8
482	1654	492	1	109.5	836.8
482	1662	488	1	109.5	836.8
482	1662	493	1	109.5	836.8
483	1651	783	1	109.5	836.8
483	1653	491	1	109.5	836.8
483	1653	800	1	109.5	836.8
484	1655	487	1	109.5	836.8
484	1655	493	1	109.5	836.8
484	1664	490	1	109.5	836.8
484	1664	491	1	109.5	836.8
485	1654	492	1	109.5	836.8
485	1659	519	1	109.5	836.8
485	1659	1331	1	109.5	836.8
486	1660	494	1	109.5	836.8
487	1655	493	1	109.5	836.8
487	1661	495	1	109.5	836.8
487	1661	521	1	109.5	836.8
488	1656	494	1	109.5	836.8
488	1662	493	1	109.5	836.8
489	1657	495	1	109.5	836.8
489	1663	806	1	109.5	836.8
489	1663	1332	1	109.5	836.8
490	1658	496	1	109.5	836.8
490	1664	491	1	109.5	836.8
491	1653	800	1	109.5	836.8
492	1495	1304	1	109.5	836.8
495	1661	521	1	109.5	836.8
496	1647	497	1	109.5	836.8
497	1666	506	1	109.5	836.8
497	1666	508	1	109.5	836.8
497	1666	515	1	109.5	836.8
498	1665	514	1	109.5	836.8
498	1665	823	1	109.5	836.8
498	1665	1333	1	109.5	836.8
498	1816	772	1	109.5	836.8
498	1816	777	1	109.5	836.8
498	1816	785	1	109.5	836.8
499	1667	507	1	109.5	836.8
499	1667	510	1	109.5	836.8
499	1667	516	1	109.5	836.8
500	1668	511	1	109.5	836.8
500	1668	517	1	109.5	836.8
500	1698	552	1	109.5	836.8
500	1698	557	1	109.5	836.8
500	1698	562	1	109.5	836.8
501	1669	503	1	109.5	836.8
501	1669	512	1	109.5	836.8
501	1669	518	1	109.5	836.8
501	1699	558	1	109.5	836.8
501	1699	575	1	109.5	836.8
501	1699	875	1	109.5	836.8
502	1670	504	1	109.5	836.8
502	1670	513	1	109.5	836.8
502	1670	1334	1	109.5	836.8
502	1700	553	1	109.5	836.8
502	1700	559	1	109.5	836.8
502	1700	560	1	109.5	836.8
503	1669	512	1	109.5	836.8
503	1669	518	1	109.5	836.8
503	1671	508	1	109.5	836.8
503	1671	542	1	109.5	836.8
503	1671	543	1	109.5	836.8
504	1670	513	1	109.5	836.8
504	1670	1334	1	109.5	836.8
504	1672	509	1	109.5	836.8
504	1672	517	1	109.5	836.8
505	1673	510	1	109.5	836.8
505	1673	518	1	109.5	836.8
505	1673	545	1	109.5	836.8
505	1836	814	1	109.5	836.8
505	1836	825	1	109.5	836.8
505	1836	831	1	109.5	836.8
506	1666	508	1	109.5	836.8
506	1666	515	1	109.5	836.8
506	1674	511	1	109.5	836.8
506	1674	516	1	109.5	836.8
507	1667	510	1	109.5	836.8
507	1667	516	1	109.5	836.8
507	1676	513	1	109.5	836.8
507	1676	514	1	109.5	836.8
508	1666	515	1	109.5	836.8
508	1671	542	1	109.5	836.8
508	1671	543	1	109.5	836.8
509	1497	1305	1	109.5	836.8
509	1672	517	1	109.5	836.8
510	1667	516	1	109.5	836.8
510	1673	518	1	109.5	836.8
510	1673	545	1	109.5	836.8
511	1668	517	1	109.5	836.8
511	1674	516	1	109.5	836.8
512	1669	518	1	109.5	836.8
512	1675	529	1	109.5	836.8
512	1675	829	1	109.5	836.8
513	1670	1334	1	109.5	836.8
513	1676	514	1	109.5	836.8
514	1665	823	1	109.5	836.8
514	1665	1333	1	109.5	836.8
518	1673	545	1	109.5	836.8
519	1659	1331	1	109.5	836.8
519	1678	528	1	109.5	836.8
519	1678	531	1	109.5	836.8
519	1678	538	1	109.5	836.8
520	1677	529	1	109.5	836.8
520	1677	537	1	109.5	836.8
520	1677	846	1	109.5	836.8
520	1828	794	1	109.5	836.8
520	1828	800	1	109.5	836.8
520	1828	808	1	109.5	836.8
521	1679	530	1	109.5	836.8
521	1679	533	1	109.5	836.8
521	1679	539	1	109.5	836.8
522	1680	534	1	109.5	836.8
522	1680	540	1	109.5	836.8
522	1710	574	1	109.5	836.8
522	1710	580	1	109.5	836.8
522	1710	585	1	109.5	836.8
523	1681	525	1	109.5	836.8
523	1681	535	1	109.5	836.8
523	1681	541	1	109.5	836.8
523	1711	581	1	109.5	836.8
523	1711	898	1	109.5	836.8
523	1711	1340	1	109.5	836.8
524	1682	526	1	109.5	836.8
524	1682	536	1	109.5	836.8
524	1682	542	1	109.5	836.8
524	1712	576	1	109.5	836.8
524	1712	582	1	109.5	836.8
524	1712	583	1	109.5	836.8
525	1681	535	1	109.5	836.8
525	1681	541	1	109.5	836.8
525	1683	531	1	109.5	836.8
525	1683	565	1	109.5	836.8
525	1683	1335	1	109.5	836.8
526	1682	536	1	109.5	836.8
526	1682	542	1	109.5	836.8
526	1684	532	1	109.5	836.8
526	1684	540	1	109.5	836.8
527	1685	533	1	109.5	836.8
527	1685	541	1	109.5	836.8
527	1685	567	1	109.5	836.8
527	1848	836	1	109.5	836.8
527	1848	848	1	109.5	836.8
527	1848	854	1	109.5	836.8
528	1678	531	1	109.5	836.8
528	1678	538	1	109.5	836.8
528	1686	534	1	109.5	836.8
528	1686	539	1	109.5	836.8
529	1675	829	1	109.5	836.8
529	1677	537	1	109.5	836.8
529	1677	846	1	109.5	836.8
530	1679	533	1	109.5	836.8
530	1679	539	1	109.5	836.8
530	1688	536	1	109.5	836.8
530	1688	537	1	109.5	836.8
531	1678	538	1	109.5	836.8
531	1683	565	1	109.5	836.8
531	1683	1335	1	109.5	836.8
532	1684	540	1	109.5	836.8
533	1679	539	1	109.5	836.8
533	1685	541	1	109.5	836.8
533	1685	567	1	109.5	836.8
534	1680	540	1	109.5	836.8
534	1686	539	1	109.5	836.8
535	1681	541	1	109.5	836.8
535	1687	852	1	109.5	836.8
535	1687	1336	1	109.5	836.8
536	1682	542	1	109.5	836.8
536	1688	537	1	109.5	836.8
537	1677	846	1	109.5	836.8
538	1519	1308	1	109.5	836.8
541	1685	567	1	109.5	836.8
542	1671	543	1	109.5	836.8
543	1690	552	1	109.5	836.8
543	1690	554	1	109.5	836.8
543	1690	561	1	109.5	836.8
544	1689	560	1	109.5	836.8
544	1689	869	1	109.5	836.8
544	1689	1337	1	109.5	836.8
544	1840	818	1	109.5	836.8
544	1840	823	1	109.5	836.8
544	1840	831	1	109.5	836.8
545	1691	553	1	109.5	836.8
545	1691	556	1	109.5	836.8
545	1691	562	1	109.5	836.8
546	1692	557	1	109.5	836.8
546	1692	563	1	109.5	836.8
546	1722	595	1	109.5	836.8
546	1722	600	1	109.5	836.8
546	1722	605	1	109.5	836.8
547	1693	549	1	109.5	836.8
547	1693	558	1	109.5	836.8
547	1693	564	1	109.5	836.8
547	1723	601	1	109.5	836.8
547	1723	615	1	109.5	836.8
547	1723	918	1	109.5	836.8
548	1694	550	1	109.5	836.8
548	1694	559	1	109.5	836.8
548	1694	1338	1	109.5	836.8
548	1724	596	1	109.5	836.8
548	1724	602	1	109.5	836.8
548	1724	603	1	109.5	836.8
549	1693	558	1	109.5	836.8
549	1693	564	1	109.5	836.8
549	1695	554	1	109.5	836.8
549	1695	588	1	109.5	836.8
549	1695	589	1	109.5	836.8
550	1694	559	1	109.5	836.8
550	1694	1338	1	109.5	836.8
550	1696	555	1	109.5	836.8
550	1696	563	1	109.5	836.8
551	1697	556	1	109.5	836.8
551	1697	564	1	109.5	836.8
551	1697	591	1	109.5	836.8
551	1860	860	1	109.5	836.8
551	1860	871	1	109.5	836.8
551	1860	877	1	109.5	836.8
552	1690	554	1	109.5	836.8
552	1690	561	1	109.5	836.8
552	1698	557	1	109.5	836.8
552	1698	562	1	109.5	836.8
553	1691	556	1	109.5	836.8
553	1691	562	1	109.5	836.8
553	1700	559	1	109.5	836.8
553	1700	560	1	109.5	836.8
554	1690	561	1	109.5	836.8
554	1695	588	1	109.5	836.8
554	1695	589	1	109.5	836.8
555	1521	1309	1	109.5	836.8
555	1696	563	1	109.5	836.8
556	1691	562	1	109.5	836.8
556	1697	564	1	109.5	836.8
556	1697	591	1	109.5	836.8
557	1692	563	1	109.5	836.8
557	1698	562	1	109.5	836.8
558	1693	564	1	109.5	836.8
558	1699	575	1	109.5	836.8
558	1699	875	1	109.5	836.8
559	1694	1338	1	109.5	836.8
559	1700	560	1	109.5	836.8
560	1689	869	1	109.5	836.8
560	1689	1337	1	109.5	836.8
564	1697	591	1	109.5	836.8
565	1683	1335	1	109.5	836.8
565	1702	574	1	109.5	836.8
565	1702	577	1	109.5	836.8
565	1702	584	1	109.5	836.8
566	1701	575	1	109.5	836.8
566	1701	583	1	109.5	836.8
566	1701	892	1	109.5	836.8
566	1852	840	1	109.5	836.8
566	1852	846	1	109.5	836.8
566	1852	854	1	109.5	836.8
567	1703	576	1	109.5	836.8
567	1703	579	1	109.5	836.8
567	1703	585	1	109.5	836.8
568	1704	580	1	109.5	836.8
568	1704	586	1	109.5	836.8
568	1734	614	1	109.5	836.8
568	1734	620	1	109.5	836.8
568	1734	625	1	109.5	836.8
569	1705	571	1	109.5	836.8
569	1705	581	1	109.5	836.8
569	1705	587	1	109.5	836.8
569	1735	621	1	109.5	836.8
569	1735	938	1	109.5	836.8
569	1735	1344	1	109.5	836.8
570	1706	572	1	109.5	836.8
570	1706	582	1	109.5	836.8
570	1706	588	1	109.5	836.8
570	1736	616	1	109.5	836.8
570	1736	622	1	109.5	836.8
570	1736	623	1	109.5	836.8
571	1705	581	1	109.5	836.8
571	1705	587	1	109.5	836.8
571	1707	577	1	109.5	836.8
571	1707	608	1	109.5	836.8
571	1707	1339	1	109.5	836.8
572	1706	582	1	109.5	836.8
572	1706	588	1	109.5	836.8
572	1708	578	1	109.5	836.8
572	1708	586	1	109.5	836.8
573	1709	579	1	109.5	836.8
573	1709	587	1	109.5	836.8
573	1709	610	1	109.5	836.8
573	1872	882	1	109.5	836.8
573	1872	894	1	109.5	836.8
573	1872	900	1	109.5	836.8
574	1702	577	1	109.5	836.8
574	1702	584	1	109.5	836.8
574	1710	580	1	109.5	836.8
574	1710	585	1	109.5	836.8
575	1699	875	1	109.5	836.8
575	1701	583	1	109.5	836.8
575	1701	892	1	109.5	836.8
576	1703	579	1	109.5	836.8
576	1703	585	1	109.5	836.8
576	1712	582	1	109.5	836.8
576	1712	583	1	109.5	836.8
577	1702	584	1	109.5	836.8
577	1707	608	1	109.5	836.8
577	1707	1339	1	109.5	836.8
578	1708	586	1	109.5	836.8
579	1703	585	1	109.5	836.8
579	1709	587	1	109.5	836.8
579	1709	610	1	109.5	836.8
580	1704	586	1	109.5	836.8
580	1710	585	1	109.5	836.8
581	1705	587	1	109.5	836.8
581	1711	898	1	109.5	836.8
581	1711	1340	1	109.5	836.8
582	1706	588	1	109.5	836.8
582	1712	583	1	109.5	836.8
583	1701	892	1	109.5	836.8
584	1543	1312	1	109.5	836.8
587	1709	610	1	109.5	836.8
588	1695	589	1	109.5	836.8
589	1714	595	1	109.5	836.8
589	1714	597	1	109.5	836.8
589	1714	604	1	109.5	836.8
590	1713	603	1	109.5	836.8
590	1713	912	1	109.5	836.8
590	1713	1341	1	109.5	836.8
590	1864	864	1	109.5	836.8
590	1864	869	1	109.5	836.8
590	1864	877	1	109.5	836.8
591	1715	596	1	109.5	836.8
591	1715	599	1	109.5	836.8
591	1715	605	1	109.5	836.8
592	1717	601	1	109.5	836.8
592	1717	607	1	109.5	836.8
592	1717	1272	1	109.5	836.8
592	1719	597	1	109.5	836.8
592	1719	628	1	109.5	836.8
593	1718	602	1	109.5	836.8
593	1718	1273	1	109.5	836.8
593	1718	1342	1	109.5	836.8
593	1720	598	1	109.5	836.8
593	1720	606	1	109.5	836.8
594	1721	599	1	109.5	836.8
594	1721	607	1	109.5	836.8
594	1721	1259	1	109.5	836.8
594	1884	914	1	109.5	836.8
594	1884	920	1	109.5	836.8
594	1884	1277	1	109.5	836.8
595	1714	597	1	109.5	836.8
595	1714	604	1	109.5	836.8
595	1722	600	1	109.5	836.8
595	1722	605	1	109.5	836.8
596	1715	599	1	109.5	836.8
596	1715	605	1	109.5	836.8
596	1724	602	1	109.5	836.8
596	1724	603	1	109.5	836.8
597	1714	604	1	109.5	836.8
597	1719	628	1	109.5	836.8
598	1545	1313	1	109.5	836.8
598	1720	606	1	109.5	836.8
599	1715	605	1	109.5	836.8
599	1721	607	1	109.5	836.8
599	1721	1259	1	109.5	836.8
600	1716	606	1	109.5	836.8
600	1716	1271	1	109.5	836.8
600	1722	605	1	109.5	836.8
601	1717	607	1	109.5	836.8
601	1717	1272	1	109.5	836.8
601	1723	615	1	109.5	836.8
601	1723	918	1	109.5	836.8
602	1718	1273	1	109.5	836.8
602	1718	1342	1	109.5	836.8
602	1724	603	1	109.5	836.8
603	1713	912	1	109.5	836.8
603	1713	1341	1	109.5	836.8
606	1716	1271	1	109.5	836.8
607	1717	1272	1	109.5	836.8
607	1721	1259	1	109.5	836.8
608	1707	1339	1	109.5	836.8
608	1726	614	1	109.5	836.8
608	1726	617	1	109.5	836.8
608	1726	624	1	109.5	836.8
609	1725	615	1	109.5	836.8
609	1725	623	1	109.5	836.8
609	1725	932	1	109.5	836.8
609	1876	886	1	109.5	836.8
609	1876	892	1	109.5	836.8
609	1876	900	1	109.5	836.8
610	1727	616	1	109.5	836.8
610	1727	619	1	109.5	836.8
610	1727	625	1	109.5	836.8
611	1729	621	1	109.5	836.8
611	1729	627	1	109.5	836.8
611	1729	1275	1	109.5	836.8
611	1731	617	1	109.5	836.8
611	1731	1343	1	109.5	836.8
612	1730	622	1	109.5	836.8
612	1730	628	1	109.5	836.8
612	1730	1276	1	109.5	836.8
612	1732	618	1	109.5	836.8
612	1732	626	1	109.5	836.8
613	1733	619	1	109.5	836.8
613	1733	627	1	109.5	836.8
613	1733	1260	1	109.5	836.8
613	1896	934	1	109.5	836.8
613	1896	940	1	109.5	836.8
613	1896	1280	1	109.5	836.8
614	1726	617	1	109.5	836.8
614	1726	624	1	109.5	836.8
614	1734	620	1	109.5	836.8
614	1734	625	1	109.5	836.8
615	1723	918	1	109.5	836.8
615	1725	623	1	109.5	836.8
615	1725	932	1	109.5	836.8
616	1727	619	1	109.5	836.8
616	1727	625	1	109.5	836.8
616	1736	622	1	109.5	836.8
616	1736	623	1	109.5	836.8
617	1726	624	1	109.5	836.8
617	1731	1343	1	109.5	836.8
618	1732	626	1	109.5	836.8
619	1727	625	1	109.5	836.8
619	1733	627	1	109.5	836.8
619	1733	1260	1	109.5	836.8
620	1728	626	1	109.5	836.8
620	1728	1274	1	109.5	836.8
620	1734	625	1	109.5	836.8
621	1729	627	1	109.5	836.8
621	1729	1275	1	109.5	836.8
621	1735	938	1	109.5	836.8
621	1735	1344	1	109.5	836.8
622	1730	628	1	109.5	836.8
622	1730	1276	1	109.5	836.8
622	1736	623	1	109.5	836.8
623	1725	932	1	109.5	836.8
624	1567	1316	1	109.5	836.8
626	1728	1274	1	109.5	836.8
627	1729	1275	1	109.5	836.8
627	1733	1260	1	109.5	836.8
628	1730	1276	1	109.5	836.8
629	1738	637	1	109.5	836.8
629	1738	639	1	109.5	836.8
629	1738	646	1	109.5	836.8
629	1887	906	1	109.5	836.8
629	1887	911	1	109.5	836.8
629	1887	942	1	109.5	836.8
630	1737	645	1	109.5	836.8
630	1737	953	1	109.5	836.8
630	1737	1345	1	109.5	836.8
630	2056	1208	1	109.5	836.8
630	2056	1213	1	109.5	836.8
630	2056	1221	1	109.5	836.8
631	1740	642	1	109.5	836.8
631	1740	648	1	109.5	836.8
631	1770	682	1	109.5	836.8
631	1770	687	1	109.5	836.8
631	1770	692	1	109.5	836.8
632	1741	634	1	109.5	836.8
632	1741	643	1	109.5	836.8
632	1741	649	1	109.5	836.8
632	1771	688	1	109.5	836.8
632	1771	705	1	109.5	836.8
632	1771	1002	1	109.5	836.8
633	1742	635	1	109.5	836.8
633	1742	644	1	109.5	836.8
633	1742	1346	1	109.5	836.8
633	1772	683	1	109.5	836.8
633	1772	689	1	109.5	836.8
633	1772	690	1	109.5	836.8
634	1741	643	1	109.5	836.8
634	1741	649	1	109.5	836.8
634	1743	639	1	109.5	836.8
634	1743	672	1	109.5	836.8
634	1743	673	1	109.5	836.8
635	1742	644	1	109.5	836.8
635	1742	1346	1	109.5	836.8
635	1744	640	1	109.5	836.8
635	1744	648	1	109.5	836.8
636	1745	641	1	109.5	836.8
636	1745	649	1	109.5	836.8
636	1745	675	1	109.5	836.8
636	1908	944	1	109.5	836.8
636	1908	955	1	109.5	836.8
636	1908	961	1	109.5	836.8
637	1738	639	1	109.5	836.8
637	1738	646	1	109.5	836.8
637	1746	642	1	109.5	836.8
637	1746	647	1	109.5	836.8
637	1746	1277	1	109.5	836.8
638	1739	641	1	109.5	836.8
638	1739	647	1	109.5	836.8
638	1739	1261	1	109.5	836.8
638	1748	644	1	109.5	836.8
638	1748	645	1	109.5	836.8
638	1748	1279	1	109.5	836.8
639	1738	646	1	109.5	836.8
639	1743	672	1	109.5	836.8
639	1743	673	1	109.5	836.8
640	1569	1317	1	109.5	836.8
640	1744	648	1	109.5	836.8
641	1739	647	1	109.5	836.8
641	1739	1261	1	109.5	836.8
641	1745	649	1	109.5	836.8
641	1745	675	1	109.5	836.8
642	1740	648	1	109.5	836.8
642	1746	647	1	109.5	836.8
642	1746	1277	1	109.5	836.8
643	1741	649	1	109.5	836.8
643	1747	659	1	109.5	836.8
643	1747	959	1	109.5	836.8
643	1747	1278	1	109.5	836.8
644	1742	1346	1	109.5	836.8
644	1748	645	1	109.5	836.8
644	1748	1279	1	109.5	836.8
645	1737	953	1	109.5	836.8
645	1737	1345	1	109.5	836.8
645	1748	1279	1	109.5	836.8
646	1579	1272	1	109.5	836.8
647	1739	1261	1	109.5	836.8
647	1746	1277	1	109.5	836.8
649	1745	675	1	109.5	836.8
650	1750	658	1	109.5	836.8
650	1750	661	1	109.5	836.8
650	1750	668	1	109.5	836.8
650	1899	925	1	109.5	836.8
650	1899	931	1	109.5	836.8
650	1899	1371	1	109.5	836.8
651	1749	659	1	109.5	836.8
651	1749	667	1	109.5	836.8
651	1749	974	1	109.5	836.8
651	2068	1226	1	109.5	836.8
651	2068	1232	1	109.5	836.8
651	2068	1240	1	109.5	836.8
652	1752	664	1	109.5	836.8
652	1752	670	1	109.5	836.8
652	1782	704	1	109.5	836.8
652	1782	710	1	109.5	836.8
652	1782	715	1	109.5	836.8
653	1753	655	1	109.5	836.8
653	1753	665	1	109.5	836.8
653	1753	671	1	109.5	836.8
653	1783	711	1	109.5	836.8
653	1783	1024	1	109.5	836.8
653	1783	1352	1	109.5	836.8
654	1754	656	1	109.5	836.8
654	1754	666	1	109.5	836.8
654	1754	672	1	109.5	836.8
654	1784	706	1	109.5	836.8
654	1784	712	1	109.5	836.8
654	1784	713	1	109.5	836.8
655	1753	665	1	109.5	836.8
655	1753	671	1	109.5	836.8
655	1755	661	1	109.5	836.8
655	1755	695	1	109.5	836.8
655	1755	1347	1	109.5	836.8
656	1754	666	1	109.5	836.8
656	1754	672	1	109.5	836.8
656	1756	662	1	109.5	836.8
656	1756	670	1	109.5	836.8
657	1757	663	1	109.5	836.8
657	1757	671	1	109.5	836.8
657	1757	697	1	109.5	836.8
657	1920	964	1	109.5	836.8
657	1920	976	1	109.5	836.8
657	1920	982	1	109.5	836.8
658	1750	661	1	109.5	836.8
658	1750	668	1	109.5	836.8
658	1758	664	1	109.5	836.8
658	1758	669	1	109.5	836.8
658	1758	1280	1	109.5	836.8
659	1747	959	1	109.5	836.8
659	1747	1278	1	109.5	836.8
659	1749	667	1	109.5	836.8
659	1749	974	1	109.5	836.8
660	1751	663	1	109.5	836.8
660	1751	669	1	109.5	836.8
660	1751	1262	1	109.5	836.8
660	1760	666	1	109.5	836.8
660	1760	667	1	109.5	836.8
660	1760	1282	1	109.5	836.8
661	1750	668	1	109.5	836.8
661	1755	695	1	109.5	836.8
661	1755	1347	1	109.5	836.8
662	1756	670	1	109.5	836.8
663	1751	669	1	109.5	836.8
663	1751	1262	1	109.5	836.8
663	1757	671	1	109.5	836.8
663	1757	697	1	109.5	836.8
664	1752	670	1	109.5	836.8
664	1758	669	1	109.5	836.8
664	1758	1280	1	109.5	836.8
665	1753	671	1	109.5	836.8
665	1759	980	1	109.5	836.8
665	1759	1281	1	109.5	836.8
665	1759	1348	1	109.5	836.8
666	1754	672	1	109.5	836.8
666	1760	667	1	109.5	836.8
666	1760	1282	1	109.5	836.8
667	1749	974	1	109.5	836.8
667	1760	1282	1	109.5	836.8
668	1591	1275	1	109.5	836.8
668	1591	1320	1	109.5	836.8
669	1751	1262	1	109.5	836.8
669	1758	1280	1	109.5	836.8
671	1757	697	1	109.5	836.8
672	1743	673	1	109.5	836.8
673	1762	682	1	109.5	836.8
673	1762	684	1	109.5	836.8
673	1762	691	1	109.5	836.8
674	1761	690	1	109.5	836.8
674	1761	996	1	109.5	836.8
674	1761	1349	1	109.5	836.8
674	1912	948	1	109.5	836.8
674	1912	953	1	109.5	836.8
674	1912	961	1	109.5	836.8
675	1763	683	1	109.5	836.8
675	1763	686	1	109.5	836.8
675	1763	692	1	109.5	836.8
676	1764	687	1	109.5	836.8
676	1764	693	1	109.5	836.8
676	1794	728	1	109.5	836.8
676	1794	733	1	109.5	836.8
676	1794	738	1	109.5	836.8
677	1765	679	1	109.5	836.8
677	1765	688	1	109.5	836.8
677	1765	694	1	109.5	836.8
677	1795	734	1	109.5	836.8
677	1795	751	1	109.5	836.8
677	1795	1046	1	109.5	836.8
678	1766	680	1	109.5	836.8
678	1766	689	1	109.5	836.8
678	1766	1350	1	109.5	836.8
678	1796	729	1	109.5	836.8
678	1796	735	1	109.5	836.8
678	1796	736	1	109.5	836.8
679	1765	688	1	109.5	836.8
679	1765	694	1	109.5	836.8
679	1767	684	1	109.5	836.8
679	1767	718	1	109.5	836.8
679	1767	719	1	109.5	836.8
680	1766	689	1	109.5	836.8
680	1766	1350	1	109.5	836.8
680	1768	685	1	109.5	836.8
680	1768	693	1	109.5	836.8
681	1769	686	1	109.5	836.8
681	1769	694	1	109.5	836.8
681	1769	721	1	109.5	836.8
681	1932	987	1	109.5	836.8
681	1932	998	1	109.5	836.8
681	1932	1004	1	109.5	836.8
682	1762	684	1	109.5	836.8
682	1762	691	1	109.5	836.8
682	1770	687	1	109.5	836.8
682	1770	692	1	109.5	836.8
683	1763	686	1	109.5	836.8
683	1763	692	1	109.5	836.8
683	1772	689	1	109.5	836.8
683	1772	690	1	109.5	836.8
684	1762	691	1	109.5	836.8
684	1767	718	1	109.5	836.8
684	1767	719	1	109.5	836.8
685	1593	1321	1	109.5	836.8
685	1768	693	1	109.5	836.8
686	1763	692	1	109.5	836.8
686	1769	694	1	109.5	836.8
686	1769	721	1	109.5	836.8
687	1764	693	1	109.5	836.8
687	1770	692	1	109.5	836.8
688	1765	694	1	109.5	836.8
688	1771	705	1	109.5	836.8
688	1771	1002	1	109.5	836.8
689	1766	1350	1	109.5	836.8
689	1772	690	1	109.5	836.8
690	1761	996	1	109.5	836.8
690	1761	1349	1	109.5	836.8
694	1769	721	1	109.5	836.8
695	1755	1347	1	109.5	836.8
695	1774	704	1	109.5	836.8
695	1774	707	1	109.5	836.8
695	1774	714	1	109.5	836.8
696	1773	705	1	109.5	836.8
696	1773	713	1	109.5	836.8
696	1773	1018	1	109.5	836.8
696	1924	968	1	109.5	836.8
696	1924	974	1	109.5	836.8
696	1924	982	1	109.5	836.8
697	1775	706	1	109.5	836.8
697	1775	709	1	109.5	836.8
697	1775	715	1	109.5	836.8
698	1776	710	1	109.5	836.8
698	1776	716	1	109.5	836.8
698	1806	750	1	109.5	836.8
698	1806	756	1	109.5	836.8
698	1806	761	1	109.5	836.8
699	1777	701	1	109.5	836.8
699	1777	711	1	109.5	836.8
699	1777	717	1	109.5	836.8
699	1807	757	1	109.5	836.8
699	1807	1068	1	109.5	836.8
699	1807	1356	1	109.5	836.8
700	1778	702	1	109.5	836.8
700	1778	712	1	109.5	836.8
700	1778	718	1	109.5	836.8
700	1808	752	1	109.5	836.8
700	1808	758	1	109.5	836.8
700	1808	759	1	109.5	836.8
701	1777	711	1	109.5	836.8
701	1777	717	1	109.5	836.8
701	1779	707	1	109.5	836.8
701	1779	741	1	109.5	836.8
701	1779	1351	1	109.5	836.8
702	1778	712	1	109.5	836.8
702	1778	718	1	109.5	836.8
702	1780	708	1	109.5	836.8
702	1780	716	1	109.5	836.8
703	1781	709	1	109.5	836.8
703	1781	717	1	109.5	836.8
703	1781	743	1	109.5	836.8
703	1944	1008	1	109.5	836.8
703	1944	1020	1	109.5	836.8
703	1944	1026	1	109.5	836.8
704	1774	707	1	109.5	836.8
704	1774	714	1	109.5	836.8
704	1782	710	1	109.5	836.8
704	1782	715	1	109.5	836.8
705	1771	1002	1	109.5	836.8
705	1773	713	1	109.5	836.8
705	1773	1018	1	109.5	836.8
706	1775	709	1	109.5	836.8
706	1775	715	1	109.5	836.8
706	1784	712	1	109.5	836.8
706	1784	713	1	109.5	836.8
707	1774	714	1	109.5	836.8
707	1779	741	1	109.5	836.8
707	1779	1351	1	109.5	836.8
708	1780	716	1	109.5	836.8
709	1775	715	1	109.5	836.8
709	1781	717	1	109.5	836.8
709	1781	743	1	109.5	836.8
710	1776	716	1	109.5	836.8
710	1782	715	1	109.5	836.8
711	1777	717	1	109.5	836.8
711	1783	1024	1	109.5	836.8
711	1783	1352	1	109.5	836.8
712	1778	718	1	109.5	836.8
712	1784	713	1	109.5	836.8
713	1773	1018	1	109.5	836.8
714	1615	1324	1	109.5	836.8
717	1781	743	1	109.5	836.8
718	1767	719	1	109.5	836.8
719	1786	728	1	109.5	836.8
719	1786	730	1	109.5	836.8
719	1786	737	1	109.5	836.8
720	1785	736	1	109.5	836.8
720	1785	1040	1	109.5	836.8
720	1785	1353	1	109.5	836.8
720	1936	991	1	109.5	836.8
720	1936	996	1	109.5	836.8
720	1936	1004	1	109.5	836.8
721	1787	729	1	109.5	836.8
721	1787	732	1	109.5	836.8
721	1787	738	1	109.5	836.8
722	1788	733	1	109.5	836.8
722	1788	739	1	109.5	836.8
722	1818	774	1	109.5	836.8
722	1818	779	1	109.5	836.8
722	1818	784	1	109.5	836.8
723	1789	725	1	109.5	836.8
723	1789	734	1	109.5	836.8
723	1789	740	1	109.5	836.8
723	1819	780	1	109.5	836.8
723	1819	797	1	109.5	836.8
723	1819	1090	1	109.5	836.8
724	1790	726	1	109.5	836.8
724	1790	735	1	109.5	836.8
724	1790	1354	1	109.5	836.8
724	1820	775	1	109.5	836.8
724	1820	781	1	109.5	836.8
724	1820	782	1	109.5	836.8
725	1789	734	1	109.5	836.8
725	1789	740	1	109.5	836.8
725	1791	730	1	109.5	836.8
725	1791	764	1	109.5	836.8
725	1791	765	1	109.5	836.8
726	1790	735	1	109.5	836.8
726	1790	1354	1	109.5	836.8
726	1792	731	1	109.5	836.8
726	1792	739	1	109.5	836.8
727	1793	732	1	109.5	836.8
727	1793	740	1	109.5	836.8
727	1793	767	1	109.5	836.8
727	1956	1031	1	109.5	836.8
727	1956	1042	1	109.5	836.8
727	1956	1048	1	109.5	836.8
728	1786	730	1	109.5	836.8
728	1786	737	1	109.5	836.8
728	1794	733	1	109.5	836.8
728	1794	738	1	109.5	836.8
729	1787	732	1	109.5	836.8
729	1787	738	1	109.5	836.8
729	1796	735	1	109.5	836.8
729	1796	736	1	109.5	836.8
730	1786	737	1	109.5	836.8
730	1791	764	1	109.5	836.8
730	1791	765	1	109.5	836.8
731	1617	1325	1	109.5	836.8
731	1792	739	1	109.5	836.8
732	1787	738	1	109.5	836.8
732	1793	740	1	109.5	836.8
732	1793	767	1	109.5	836.8
733	1788	739	1	109.5	836.8
733	1794	738	1	109.5	836.8
734	1789	740	1	109.5	836.8
734	1795	751	1	109.5	836.8
734	1795	1046	1	109.5	836.8
735	1790	1354	1	109.5	836.8
735	1796	736	1	109.5	836.8
736	1785	1040	1	109.5	836.8
736	1785	1353	1	109.5	836.8
740	1793	767	1	109.5	836.8
741	1779	1351	1	109.5	836.8
741	1798	750	1	109.5	836.8
741	1798	753	1	109.5	836.8
741	1798	760	1	109.5	836.8
742	1797	751	1	109.5	836.8
742	1797	759	1	109.5	836.8
742	1797	1062	1	109.5	836.8
742	1948	1012	1	109.5	836.8
742	1948	1018	1	109.5	836.8
742	1948	1026	1	109.5	836.8
743	1799	752	1	109.5	836.8
743	1799	755	1	109.5	836.8
743	1799	761	1	109.5	836.8
744	1800	756	1	109.5	836.8
744	1800	762	1	109.5	836.8
744	1830	796	1	109.5	836.8
744	1830	802	1	109.5	836.8
744	1830	807	1	109.5	836.8
745	1801	747	1	109.5	836.8
745	1801	757	1	109.5	836.8
745	1801	763	1	109.5	836.8
745	1831	803	1	109.5	836.8
745	1831	1112	1	109.5	836.8
745	1831	1360	1	109.5	836.8
746	1802	748	1	109.5	836.8
746	1802	758	1	109.5	836.8
746	1802	764	1	109.5	836.8
746	1832	798	1	109.5	836.8
746	1832	804	1	109.5	836.8
746	1832	805	1	109.5	836.8
747	1801	757	1	109.5	836.8
747	1801	763	1	109.5	836.8
747	1803	753	1	109.5	836.8
747	1803	787	1	109.5	836.8
747	1803	1355	1	109.5	836.8
748	1802	758	1	109.5	836.8
748	1802	764	1	109.5	836.8
748	1804	754	1	109.5	836.8
748	1804	762	1	109.5	836.8
749	1805	755	1	109.5	836.8
749	1805	763	1	109.5	836.8
749	1805	789	1	109.5	836.8
749	1968	1052	1	109.5	836.8
749	1968	1064	1	109.5	836.8
749	1968	1070	1	109.5	836.8
750	1798	753	1	109.5	836.8
750	1798	760	1	109.5	836.8
750	1806	756	1	109.5	836.8
750	1806	761	1	109.5	836.8
751	1795	1046	1	109.5	836.8
751	1797	759	1	109.5	836.8
751	1797	1062	1	109.5	836.8
752	1799	755	1	109.5	836.8
752	1799	761	1	109.5	836.8
752	1808	758	1	109.5	836.8
752	1808	759	1	109.5	836.8
753	1798	760	1	109.5	836.8
753	1803	787	1	109.5	836.8
753	1803	1355	1	109.5	836.8
754	1804	762	1	109.5	836.8
755	1799	761	1	109.5	836.8
755	1805	763	1	109.5	836.8
755	1805	789	1	109.5	836.8
756	1800	762	1	109.5	836.8
756	1806	761	1	109.5	836.8
757	1801	763	1	109.5	836.8
757	1807	1068	1	109.5	836.8
757	1807	1356	1	109.5	836.8
758	1802	764	1	109.5	836.8
758	1808	759	1	109.5	836.8
759	1797	1062	1	109.5	836.8
760	1639	1328	1	109.5	836.8
763	1805	789	1	109.5	836.8
764	1791	765	1	109.5	836.8
765	1810	774	1	109.5	836.8
765	1810	776	1	109.5	836.8
765	1810	783	1	109.5	836.8
766	1809	782	1	109.5	836.8
766	1809	1084	1	109.5	836.8
766	1809	1357	1	109.5	836.8
766	1960	1035	1	109.5	836.8
766	1960	1040	1	109.5	836.8
766	1960	1048	1	109.5	836.8
767	1811	775	1	109.5	836.8
767	1811	778	1	109.5	836.8
767	1811	784	1	109.5	836.8
768	1812	779	1	109.5	836.8
768	1812	785	1	109.5	836.8
768	1842	820	1	109.5	836.8
768	1842	825	1	109.5	836.8
768	1842	830	1	109.5	836.8
769	1813	771	1	109.5	836.8
769	1813	780	1	109.5	836.8
769	1813	786	1	109.5	836.8
769	1843	826	1	109.5	836.8
769	1843	843	1	109.5	836.8
769	1843	1134	1	109.5	836.8
770	1814	772	1	109.5	836.8
770	1814	781	1	109.5	836.8
770	1814	1358	1	109.5	836.8
770	1844	821	1	109.5	836.8
770	1844	827	1	109.5	836.8
770	1844	828	1	109.5	836.8
771	1813	780	1	109.5	836.8
771	1813	786	1	109.5	836.8
771	1815	776	1	109.5	836.8
771	1815	810	1	109.5	836.8
771	1815	811	1	109.5	836.8
772	1814	781	1	109.5	836.8
772	1814	1358	1	109.5	836.8
772	1816	777	1	109.5	836.8
772	1816	785	1	109.5	836.8
773	1817	778	1	109.5	836.8
773	1817	786	1	109.5	836.8
773	1817	813	1	109.5	836.8
773	1980	1075	1	109.5	836.8
773	1980	1086	1	109.5	836.8
773	1980	1092	1	109.5	836.8
774	1810	776	1	109.5	836.8
774	1810	783	1	109.5	836.8
774	1818	779	1	109.5	836.8
774	1818	784	1	109.5	836.8
775	1811	778	1	109.5	836.8
775	1811	784	1	109.5	836.8
775	1820	781	1	109.5	836.8
775	1820	782	1	109.5	836.8
776	1810	783	1	109.5	836.8
776	1815	810	1	109.5	836.8
776	1815	811	1	109.5	836.8
777	1641	1329	1	109.5	836.8
777	1816	785	1	109.5	836.8
778	1811	784	1	109.5	836.8
778	1817	786	1	109.5	836.8
778	1817	813	1	109.5	836.8
779	1812	785	1	109.5	836.8
779	1818	784	1	109.5	836.8
780	1813	786	1	109.5	836.8
780	1819	797	1	109.5	836.8
780	1819	1090	1	109.5	836.8
781	1814	1358	1	109.5	836.8
781	1820	782	1	109.5	836.8
782	1809	1084	1	109.5	836.8
782	1809	1357	1	109.5	836.8
786	1817	813	1	109.5	836.8
787	1803	1355	1	109.5	836.8
787	1822	796	1	109.5	836.8
787	1822	799	1	109.5	836.8
787	1822	806	1	109.5	836.8
788	1821	797	1	109.5	836.8
788	1821	805	1	109.5	836.8
788	1821	1106	1	109.5	836.8
788	1972	1056	1	109.5	836.8
788	1972	1062	1	109.5	836.8
788	1972	1070	1	109.5	836.8
789	1823	798	1	109.5	836.8
789	1823	801	1	109.5	836.8
789	1823	807	1	109.5	836.8
790	1824	802	1	109.5	836.8
790	1824	808	1	109.5	836.8
790	1854	842	1	109.5	836.8
790	1854	848	1	109.5	836.8
790	1854	853	1	109.5	836.8
791	1825	793	1	109.5	836.8
791	1825	803	1	109.5	836.8
791	1825	809	1	109.5	836.8
791	1855	849	1	109.5	836.8
791	1855	1156	1	109.5	836.8
791	1855	1364	1	109.5	836.8
792	1826	794	1	109.5	836.8
792	1826	804	1	109.5	836.8
792	1826	810	1	109.5	836.8
792	1856	844	1	109.5	836.8
792	1856	850	1	109.5	836.8
792	1856	851	1	109.5	836.8
793	1825	803	1	109.5	836.8
793	1825	809	1	109.5	836.8
793	1827	799	1	109.5	836.8
793	1827	833	1	109.5	836.8
793	1827	1359	1	109.5	836.8
794	1826	804	1	109.5	836.8
794	1826	810	1	109.5	836.8
794	1828	800	1	109.5	836.8
794	1828	808	1	109.5	836.8
795	1829	801	1	109.5	836.8
795	1829	809	1	109.5	836.8
795	1829	835	1	109.5	836.8
795	1992	1096	1	109.5	836.8
795	1992	1108	1	109.5	836.8
795	1992	1114	1	109.5	836.8
796	1822	799	1	109.5	836.8
796	1822	806	1	109.5	836.8
796	1830	802	1	109.5	836.8
796	1830	807	1	109.5	836.8
797	1819	1090	1	109.5	836.8
797	1821	805	1	109.5	836.8
797	1821	1106	1	109.5	836.8
798	1823	801	1	109.5	836.8
798	1823	807	1	109.5	836.8
798	1832	804	1	109.5	836.8
798	1832	805	1	109.5	836.8
799	1822	806	1	109.5	836.8
799	1827	833	1	109.5	836.8
799	1827	1359	1	109.5	836.8
800	1828	808	1	109.5	836.8
801	1823	807	1	109.5	836.8
801	1829	809	1	109.5	836.8
801	1829	835	1	109.5	836.8
802	1824	808	1	109.5	836.8
802	1830	807	1	109.5	836.8
803	1825	809	1	109.5	836.8
803	1831	1112	1	109.5	836.8
803	1831	1360	1	109.5	836.8
804	1826	810	1	109.5	836.8
804	1832	805	1	109.5	836.8
805	1821	1106	1	109.5	836.8
806	1663	1332	1	109.5	836.8
809	1829	835	1	109.5	836.8
810	1815	811	1	109.5	836.8
811	1834	820	1	109.5	836.8
811	1834	822	1	109.5	836.8
811	1834	829	1	109.5	836.8
812	1833	828	1	109.5	836.8
812	1833	1128	1	109.5	836.8
812	1833	1361	1	109.5	836.8
812	1984	1079	1	109.5	836.8
812	1984	1084	1	109.5	836.8
812	1984	1092	1	109.5	836.8
813	1835	821	1	109.5	836.8
813	1835	824	1	109.5	836.8
813	1835	830	1	109.5	836.8
814	1836	825	1	109.5	836.8
814	1836	831	1	109.5	836.8
814	1866	866	1	109.5	836.8
814	1866	871	1	109.5	836.8
814	1866	876	1	109.5	836.8
815	1837	817	1	109.5	836.8
815	1837	826	1	109.5	836.8
815	1837	832	1	109.5	836.8
815	1867	872	1	109.5	836.8
815	1867	889	1	109.5	836.8
815	1867	1178	1	109.5	836.8
816	1838	818	1	109.5	836.8
816	1838	827	1	109.5	836.8
816	1838	1362	1	109.5	836.8
816	1868	867	1	109.5	836.8
816	1868	873	1	109.5	836.8
816	1868	874	1	109.5	836.8
817	1837	826	1	109.5	836.8
817	1837	832	1	109.5	836.8
817	1839	822	1	109.5	836.8
817	1839	856	1	109.5	836.8
817	1839	857	1	109.5	836.8
818	1838	827	1	109.5	836.8
818	1838	1362	1	109.5	836.8
818	1840	823	1	109.5	836.8
818	1840	831	1	109.5	836.8
819	1841	824	1	109.5	836.8
819	1841	832	1	109.5	836.8
819	1841	859	1	109.5	836.8
819	2004	1119	1	109.5	836.8
819	2004	1130	1	109.5	836.8
819	2004	1136	1	109.5	836.8
820	1834	822	1	109.5	836.8
820	1834	829	1	109.5	836.8
820	1842	825	1	109.5	836.8
820	1842	830	1	109.5	836.8
821	1835	824	1	109.5	836.8
821	1835	830	1	109.5	836.8
821	1844	827	1	109.5	836.8
821	1844	828	1	109.5	836.8
822	1834	829	1	109.5	836.8
822	1839	856	1	109.5	836.8
822	1839	857	1	109.5	836.8
823	1665	1333	1	109.5	836.8
823	1840	831	1	109.5	836.8
824	1835	830	1	109.5	836.8
824	1841	832	1	109.5	836.8
824	1841	859	1	109.5	836.8
825	1836	831	1	109.5	836.8
825	1842	830	1	109.5	836.8
826	1837	832	1	109.5	836.8
826	1843	843	1	109.5	836.8
826	1843	1134	1	109.5	836.8
827	1838	1362	1	109.5	836.8
827	1844	828	1	109.5	836.8
828	1833	1128	1	109.5	836.8
828	1833	1361	1	109.5	836.8
832	1841	859	1	109.5	836.8
833	1827	1359	1	109.5	836.8
833	1846	842	1	109.5	836.8
833	1846	845	1	109.5	836.8
833	1846	852	1	109.5	836.8
834	1845	843	1	109.5	836.8
834	1845	851	1	109.5	836.8
834	1845	1150	1	109.5	836.8
834	1996	1100	1	109.5	836.8
834	1996	1106	1	109.5	836.8
834	1996	1114	1	109.5	836.8
835	1847	844	1	109.5	836.8
835	1847	847	1	109.5	836.8
835	1847	853	1	109.5	836.8
836	1848	848	1	109.5	836.8
836	1848	854	1	109.5	836.8
836	1878	888	1	109.5	836.8
836	1878	894	1	109.5	836.8
836	1878	899	1	109.5	836.8
837	1849	839	1	109.5	836.8
837	1849	849	1	109.5	836.8
837	1849	855	1	109.5	836.8
837	1879	895	1	109.5	836.8
837	1879	1200	1	109.5	836.8
837	1879	1368	1	109.5	836.8
838	1850	840	1	109.5	836.8
838	1850	850	1	109.5	836.8
838	1850	856	1	109.5	836.8
838	1880	890	1	109.5	836.8
838	1880	896	1	109.5	836.8
838	1880	897	1	109.5	836.8
839	1849	849	1	109.5	836.8
839	1849	855	1	109.5	836.8
839	1851	845	1	109.5	836.8
839	1851	879	1	109.5	836.8
839	1851	1363	1	109.5	836.8
840	1850	850	1	109.5	836.8
840	1850	856	1	109.5	836.8
840	1852	846	1	109.5	836.8
840	1852	854	1	109.5	836.8
841	1853	847	1	109.5	836.8
841	1853	855	1	109.5	836.8
841	1853	881	1	109.5	836.8
841	2016	1140	1	109.5	836.8
841	2016	1152	1	109.5	836.8
841	2016	1158	1	109.5	836.8
842	1846	845	1	109.5	836.8
842	1846	852	1	109.5	836.8
842	1854	848	1	109.5	836.8
842	1854	853	1	109.5	836.8
843	1843	1134	1	109.5	836.8
843	1845	851	1	109.5	836.8
843	1845	1150	1	109.5	836.8
844	1847	847	1	109.5	836.8
844	1847	853	1	109.5	836.8
844	1856	850	1	109.5	836.8
844	1856	851	1	109.5	836.8
845	1846	852	1	109.5	836.8
845	1851	879	1	109.5	836.8
845	1851	1363	1	109.5	836.8
846	1852	854	1	109.5	836.8
847	1847	853	1	109.5	836.8
847	1853	855	1	109.5	836.8
847	1853	881	1	109.5	836.8
848	1848	854	1	109.5	836.8
848	1854	853	1	109.5	836.8
849	1849	855	1	109.5	836.8
849	1855	1156	1	109.5	836.8
849	1855	1364	1	109.5	836.8
850	1850	856	1	109.5	836.8
850	1856	851	1	109.5	836.8
851	1845	1150	1	109.5	836.8
852	1687	1336	1	109.5	836.8
855	1853	881	1	109.5	836.8
856	1839	857	1	109.5	836.8
857	1858	866	1	109.5	836.8
857	1858	868	1	109.5	836.8
857	1858	875	1	109.5	836.8
858	1857	874	1	109.5	836.8
858	1857	1172	1	109.5	836.8
858	1857	1365	1	109.5	836.8
858	2008	1123	1	109.5	836.8
858	2008	1128	1	109.5	836.8
858	2008	1136	1	109.5	836.8
859	1859	867	1	109.5	836.8
859	1859	870	1	109.5	836.8
859	1859	876	1	109.5	836.8
860	1860	871	1	109.5	836.8
860	1860	877	1	109.5	836.8
860	1890	909	1	109.5	836.8
860	1890	914	1	109.5	836.8
860	1890	919	1	109.5	836.8
861	1861	863	1	109.5	836.8
861	1861	872	1	109.5	836.8
861	1861	878	1	109.5	836.8
861	1891	915	1	109.5	836.8
861	1891	929	1	109.5	836.8
861	1891	1219	1	109.5	836.8
862	1862	864	1	109.5	836.8
862	1862	873	1	109.5	836.8
862	1862	1366	1	109.5	836.8
862	1892	910	1	109.5	836.8
862	1892	916	1	109.5	836.8
862	1892	917	1	109.5	836.8
863	1861	872	1	109.5	836.8
863	1861	878	1	109.5	836.8
863	1863	868	1	109.5	836.8
863	1863	902	1	109.5	836.8
863	1863	903	1	109.5	836.8
864	1862	873	1	109.5	836.8
864	1862	1366	1	109.5	836.8
864	1864	869	1	109.5	836.8
864	1864	877	1	109.5	836.8
865	1865	870	1	109.5	836.8
865	1865	878	1	109.5	836.8
865	1865	905	1	109.5	836.8
865	2028	1163	1	109.5	836.8
865	2028	1174	1	109.5	836.8
865	2028	1180	1	109.5	836.8
866	1858	868	1	109.5	836.8
866	1858	875	1	109.5	836.8
866	1866	871	1	109.5	836.8
866	1866	876	1	109.5	836.8
867	1859	870	1	109.5	836.8
867	1859	876	1	109.5	836.8
867	1868	873	1	109.5	836.8
867	1868	874	1	109.5	836.8
868	1858	875	1	109.5	836.8
868	1863	902	1	109.5	836.8
868	1863	903	1	109.5	836.8
869	1689	1337	1	109.5	836.8
869	1864	877	1	109.5	836.8
870	1859	876	1	109.5	836.8
870	1865	878	1	109.5	836.8
870	1865	905	1	109.5	836.8
871	1860	877	1	109.5	836.8
871	1866	876	1	109.5	836.8
872	1861	878	1	109.5	836.8
872	1867	889	1	109.5	836.8
872	1867	1178	1	109.5	836.8
873	1862	1366	1	109.5	836.8
873	1868	874	1	109.5	836.8
874	1857	1172	1	109.5	836.8
874	1857	1365	1	109.5	836.8
878	1865	905	1	109.5	836.8
879	1851	1363	1	109.5	836.8
879	1870	888	1	109.5	836.8
879	1870	891	1	109.5	836.8
879	1870	898	1	109.5	836.8
880	1869	889	1	109.5	836.8
880	1869	897	1	109.5	836.8
880	1869	1194	1	109.5	836.8
880	2020	1144	1	109.5	836.8
880	2020	1150	1	109.5	836.8
880	2020	1158	1	109.5	836.8
881	1871	890	1	109.5	836.8
881	1871	893	1	109.5	836.8
881	1871	899	1	109.5	836.8
882	1872	894	1	109.5	836.8
882	1872	900	1	109.5	836.8
882	1902	928	1	109.5	836.8
882	1902	934	1	109.5	836.8
882	1902	939	1	109.5	836.8
883	1873	885	1	109.5	836.8
883	1873	895	1	109.5	836.8
883	1873	901	1	109.5	836.8
883	1903	935	1	109.5	836.8
883	1903	1238	1	109.5	836.8
883	1903	1372	1	109.5	836.8
884	1874	886	1	109.5	836.8
884	1874	896	1	109.5	836.8
884	1874	902	1	109.5	836.8
884	1904	930	1	109.5	836.8
884	1904	936	1	109.5	836.8
884	1904	937	1	109.5	836.8
885	1873	895	1	109.5	836.8
885	1873	901	1	109.5	836.8
885	1875	891	1	109.5	836.8
885	1875	922	1	109.5	836.8
885	1875	1367	1	109.5	836.8
886	1874	896	1	109.5	836.8
886	1874	902	1	109.5	836.8
886	1876	892	1	109.5	836.8
886	1876	900	1	109.5	836.8
887	1877	893	1	109.5	836.8
887	1877	901	1	109.5	836.8
887	1877	924	1	109.5	836.8
887	2040	1184	1	109.5	836.8
887	2040	1196	1	109.5	836.8
887	2040	1202	1	109.5	836.8
888	1870	891	1	109.5	836.8
888	1870	898	1	109.5	836.8
888	1878	894	1	109.5	836.8
888	1878	899	1	109.5	836.8
889	1867	1178	1	109.5	836.8
889	1869	897	1	109.5	836.8
889	1869	1194	1	109.5	836.8
890	1871	893	1	109.5	836.8
890	1871	899	1	109.5	836.8
890	1880	896	1	109.5	836.8
890	1880	897	1	109.5	836.8
891	1870	898	1	109.5	836.8
891	1875	922	1	109.5	836.8
891	1875	1367	1	109.5	836.8
892	1876	900	1	109.5	836.8
893	1871	899	1	109.5	836.8
893	1877	901	1	109.5	836.8
893	1877	924	1	109.5	836.8
894	1872	900	1	109.5	836.8
894	1878	899	1	109.5	836.8
895	1873	901	1	109.5	836.8
895	1879	1200	1	109.5	836.8
895	1879	1368	1	109.5	836.8
896	1874	902	1	109.5	836.8
896	1880	897	1	109.5	836.8
897	1869	1194	1	109.5	836.8
898	1711	1340	1	109.5	836.8
901	1877	924	1	109.5	836.8
902	1863	903	1	109.5	836.8
903	1882	909	1	109.5	836.8
903	1882	911	1	109.5	836.8
903	1882	918	1	109.5	836.8
904	1881	917	1	109.5	836.8
904	1881	1213	1	109.5	836.8
904	1881	1369	1	109.5	836.8
904	2032	1167	1	109.5	836.8
904	2032	1172	1	109.5	836.8
904	2032	1180	1	109.5	836.8
905	1883	910	1	109.5	836.8
905	1883	913	1	109.5	836.8
905	1883	919	1	109.5	836.8
906	1885	915	1	109.5	836.8
906	1885	921	1	109.5	836.8
906	1885	1278	1	109.5	836.8
906	1887	911	1	109.5	836.8
906	1887	942	1	109.5	836.8
907	1886	916	1	109.5	836.8
907	1886	1279	1	109.5	836.8
907	1886	1370	1	109.5	836.8
907	1888	912	1	109.5	836.8
907	1888	920	1	109.5	836.8
908	1889	913	1	109.5	836.8
908	1889	921	1	109.5	836.8
908	1889	1261	1	109.5	836.8
908	2052	1215	1	109.5	836.8
908	2052	1221	1	109.5	836.8
908	2052	1283	1	109.5	836.8
909	1882	911	1	109.5	836.8
909	1882	918	1	109.5	836.8
909	1890	914	1	109.5	836.8
909	1890	919	1	109.5	836.8
910	1883	913	1	109.5	836.8
910	1883	919	1	109.5	836.8
910	1892	916	1	109.5	836.8
910	1892	917	1	109.5	836.8
911	1882	918	1	109.5	836.8
911	1887	942	1	109.5	836.8
912	1713	1341	1	109.5	836.8
912	1888	920	1	109.5	836.8
913	1883	919	1	109.5	836.8
913	1889	921	1	109.5	836.8
913	1889	1261	1	109.5	836.8
914	1884	920	1	109.5	836.8
914	1884	1277	1	109.5	836.8
914	1890	919	1	109.5	836.8
915	1885	921	1	109.5	836.8
915	1885	1278	1	109.5	836.8
915	1891	929	1	109.5	836.8
915	1891	1219	1	109.5	836.8
916	1886	1279	1	109.5	836.8
916	1886	1370	1	109.5	836.8
916	1892	917	1	109.5	836.8
917	1881	1213	1	109.5	836.8
917	1881	1369	1	109.5	836.8
920	1884	1277	1	109.5	836.8
921	1885	1278	1	109.5	836.8
921	1889	1261	1	109.5	836.8
922	1875	1367	1	109.5	836.8
922	1894	928	1	109.5	836.8
922	1894	931	1	109.5	836.8
922	1894	938	1	109.5	836.8
923	1893	929	1	109.5	836.8
923	1893	937	1	109.5	836.8
923	1893	1232	1	109.5	836.8
923	2044	1188	1	109.5	836.8
923	2044	1194	1	109.5	836.8
923	2044	1202	1	109.5	836.8
924	1895	930	1	109.5	836.8
924	1895	933	1	109.5	836.8
924	1895	939	1	109.5	836.8
925	1897	935	1	109.5	836.8
925	1897	941	1	109.5	836.8
925	1897	1281	1	109.5	836.8
925	1899	931	1	109.5	836.8
925	1899	1371	1	109.5	836.8
926	1898	936	1	109.5	836.8
926	1898	942	1	109.5	836.8
926	1898	1282	1	109.5	836.8
926	1900	932	1	109.5	836.8
926	1900	940	1	109.5	836.8
927	1901	933	1	109.5	836.8
927	1901	941	1	109.5	836.8
927	1901	1262	1	109.5	836.8
927	2064	1234	1	109.5	836.8
927	2064	1240	1	109.5	836.8
927	2064	1286	1	109.5	836.8
928	1894	931	1	109.5	836.8
928	1894	938	1	109.5	836.8
928	1902	934	1	109.5	836.8
928	1902	939	1	109.5	836.8
929	1891	1219	1	109.5	836.8
929	1893	937	1	109.5	836.8
929	1893	1232	1	109.5	836.8
930	1895	933	1	109.5	836.8
930	1895	939	1	109.5	836.8
930	1904	936	1	109.5	836.8
930	1904	937	1	109.5	836.8
931	1894	938	1	109.5	836.8
931	1899	1371	1	109.5	836.8
932	1900	940	1	109.5	836.8
933	1895	939	1	109.5	836.8
933	1901	941	1	109.5	836.8
933	1901	1262	1	109.5	836.8
934	1896	940	1	109.5	836.8
934	1896	1280	1	109.5	836.8
934	1902	939	1	109.5	836.8
935	1897	941	1	109.5	836.8
935	1897	1281	1	109.5	836.8
935	1903	1238	1	109.5	836.8
935	1903	1372	1	109.5	836.8
936	1898	942	1	109.5	836.8
936	1898	1282	1	109.5	836.8
936	1904	937	1	109.5	836.8
937	1893	1232	1	109.5	836.8
938	1735	1344	1	109.5	836.8
940	1896	1280	1	109.5	836.8
941	1897	1281	1	109.5	836.8
941	1901	1262	1	109.5	836.8
942	1898	1282	1	109.5	836.8
943	1906	950	1	109.5	836.8
943	1906	952	1	109.5	836.8
943	1906	959	1	109.5	836.8
943	2055	1207	1	109.5	836.8
943	2055	1212	1	109.5	836.8
943	2055	1242	1	109.5	836.8
944	1908	955	1	109.5	836.8
944	1908	961	1	109.5	836.8
944	1938	993	1	109.5	836.8
944	1938	998	1	109.5	836.8
944	1938	1003	1	109.5	836.8
945	1909	947	1	109.5	836.8
945	1909	956	1	109.5	836.8
945	1909	962	1	109.5	836.8
945	1939	999	1	109.5	836.8
945	1939	1015	1	109.5	836.8
946	1910	948	1	109.5	836.8
946	1910	957	1	109.5	836.8
946	1910	1374	1	109.5	836.8
946	1940	994	1	109.5	836.8
946	1940	1000	1	109.5	836.8
946	1940	1001	1	109.5	836.8
947	1909	956	1	109.5	836.8
947	1909	962	1	109.5	836.8
947	1911	952	1	109.5	836.8
947	1911	984	1	109.5	836.8
947	1911	985	1	109.5	836.8
948	1910	957	1	109.5	836.8
948	1910	1374	1	109.5	836.8
948	1912	953	1	109.5	836.8
948	1912	961	1	109.5	836.8
949	1913	954	1	109.5	836.8
949	1913	962	1	109.5	836.8
949	1913	986	1	109.5	836.8
950	1906	952	1	109.5	836.8
950	1906	959	1	109.5	836.8
950	1914	955	1	109.5	836.8
950	1914	960	1	109.5	836.8
950	1914	1283	1	109.5	836.8
951	1907	954	1	109.5	836.8
951	1907	960	1	109.5	836.8
951	1907	1263	1	109.5	836.8
951	1916	957	1	109.5	836.8
951	1916	958	1	109.5	836.8
951	1916	1285	1	109.5	836.8
952	1906	959	1	109.5	836.8
952	1911	984	1	109.5	836.8
952	1911	985	1	109.5	836.8
953	1737	1345	1	109.5	836.8
953	1912	961	1	109.5	836.8
954	1907	960	1	109.5	836.8
954	1907	1263	1	109.5	836.8
954	1913	962	1	109.5	836.8
954	1913	986	1	109.5	836.8
955	1908	961	1	109.5	836.8
955	1914	960	1	109.5	836.8
955	1914	1283	1	109.5	836.8
956	1909	962	1	109.5	836.8
956	1915	971	1	109.5	836.8
956	1915	1284	1	109.5	836.8
957	1910	1374	1	109.5	836.8
957	1916	958	1	109.5	836.8
957	1916	1285	1	109.5	836.8
958	1905	1243	1	109.5	836.8
958	1905	1373	1	109.5	836.8
958	1916	1285	1	109.5	836.8
959	1747	1278	1	109.5	836.8
960	1907	1263	1	109.5	836.8
960	1914	1283	1	109.5	836.8
962	1913	986	1	109.5	836.8
963	1918	970	1	109.5	836.8
963	1918	973	1	109.5	836.8
963	1918	980	1	109.5	836.8
963	2067	1225	1	109.5	836.8
963	2067	1231	1	109.5	836.8
963	2067	1399	1	109.5	836.8
964	1920	976	1	109.5	836.8
964	1920	982	1	109.5	836.8
964	1950	1014	1	109.5	836.8
964	1950	1020	1	109.5	836.8
964	1950	1025	1	109.5	836.8
965	1921	967	1	109.5	836.8
965	1921	977	1	109.5	836.8
965	1921	983	1	109.5	836.8
965	1951	1021	1	109.5	836.8
965	1951	1380	1	109.5	836.8
966	1922	968	1	109.5	836.8
966	1922	978	1	109.5	836.8
966	1922	984	1	109.5	836.8
966	1952	1016	1	109.5	836.8
966	1952	1022	1	109.5	836.8
966	1952	1023	1	109.5	836.8
967	1921	977	1	109.5	836.8
967	1921	983	1	109.5	836.8
967	1923	973	1	109.5	836.8
967	1923	1006	1	109.5	836.8
967	1923	1375	1	109.5	836.8
968	1922	978	1	109.5	836.8
968	1922	984	1	109.5	836.8
968	1924	974	1	109.5	836.8
968	1924	982	1	109.5	836.8
969	1925	975	1	109.5	836.8
969	1925	983	1	109.5	836.8
969	1925	1007	1	109.5	836.8
970	1918	973	1	109.5	836.8
970	1918	980	1	109.5	836.8
970	1926	976	1	109.5	836.8
970	1926	981	1	109.5	836.8
970	1926	1286	1	109.5	836.8
971	1915	1284	1	109.5	836.8
971	1917	979	1	109.5	836.8
971	1917	1244	1	109.5	836.8
972	1919	975	1	109.5	836.8
972	1919	981	1	109.5	836.8
972	1919	1264	1	109.5	836.8
972	1928	978	1	109.5	836.8
972	1928	979	1	109.5	836.8
972	1928	1288	1	109.5	836.8
973	1918	980	1	109.5	836.8
973	1923	1006	1	109.5	836.8
973	1923	1375	1	109.5	836.8
974	1924	982	1	109.5	836.8
975	1919	981	1	109.5	836.8
975	1919	1264	1	109.5	836.8
975	1925	983	1	109.5	836.8
975	1925	1007	1	109.5	836.8
976	1920	982	1	109.5	836.8
976	1926	981	1	109.5	836.8
976	1926	1286	1	109.5	836.8
977	1921	983	1	109.5	836.8
977	1927	1287	1	109.5	836.8
977	1927	1376	1	109.5	836.8
978	1922	984	1	109.5	836.8
978	1928	979	1	109.5	836.8
978	1928	1288	1	109.5	836.8
979	1917	1244	1	109.5	836.8
979	1928	1288	1	109.5	836.8
980	1759	1281	1	109.5	836.8
980	1759	1348	1	109.5	836.8
981	1919	1264	1	109.5	836.8
981	1926	1286	1	109.5	836.8
983	1925	1007	1	109.5	836.8
984	1911	985	1	109.5	836.8
985	1930	993	1	109.5	836.8
985	1930	995	1	109.5	836.8
985	1930	1002	1	109.5	836.8
986	1931	994	1	109.5	836.8
986	1931	997	1	109.5	836.8
986	1931	1003	1	109.5	836.8
987	1932	998	1	109.5	836.8
987	1932	1004	1	109.5	836.8
987	1962	1037	1	109.5	836.8
987	1962	1042	1	109.5	836.8
987	1962	1047	1	109.5	836.8
988	1933	990	1	109.5	836.8
988	1933	999	1	109.5	836.8
988	1933	1005	1	109.5	836.8
988	1963	1043	1	109.5	836.8
988	1963	1059	1	109.5	836.8
989	1934	991	1	109.5	836.8
989	1934	1000	1	109.5	836.8
989	1934	1378	1	109.5	836.8
989	1964	1038	1	109.5	836.8
989	1964	1044	1	109.5	836.8
989	1964	1045	1	109.5	836.8
990	1933	999	1	109.5	836.8
990	1933	1005	1	109.5	836.8
990	1935	995	1	109.5	836.8
990	1935	1028	1	109.5	836.8
990	1935	1029	1	109.5	836.8
991	1934	1000	1	109.5	836.8
991	1934	1378	1	109.5	836.8
991	1936	996	1	109.5	836.8
991	1936	1004	1	109.5	836.8
992	1937	997	1	109.5	836.8
992	1937	1005	1	109.5	836.8
992	1937	1030	1	109.5	836.8
993	1930	995	1	109.5	836.8
993	1930	1002	1	109.5	836.8
993	1938	998	1	109.5	836.8
993	1938	1003	1	109.5	836.8
994	1931	997	1	109.5	836.8
994	1931	1003	1	109.5	836.8
994	1940	1000	1	109.5	836.8
994	1940	1001	1	109.5	836.8
995	1930	1002	1	109.5	836.8
995	1935	1028	1	109.5	836.8
995	1935	1029	1	109.5	836.8
996	1761	1349	1	109.5	836.8
996	1936	1004	1	109.5	836.8
997	1931	1003	1	109.5	836.8
997	1937	1005	1	109.5	836.8
997	1937	1030	1	109.5	836.8
998	1932	1004	1	109.5	836.8
998	1938	1003	1	109.5	836.8
999	1933	1005	1	109.5	836.8
999	1939	1015	1	109.5	836.8
1000	1934	1378	1	109.5	836.8
1000	1940	1001	1	109.5	836.8
1001	1929	1245	1	109.5	836.8
1001	1929	1377	1	109.5	836.8
1005	1937	1030	1	109.5	836.8
1006	1923	1375	1	109.5	836.8
1006	1942	1014	1	109.5	836.8
1006	1942	1017	1	109.5	836.8
1006	1942	1024	1	109.5	836.8
1007	1943	1016	1	109.5	836.8
1007	1943	1019	1	109.5	836.8
1007	1943	1025	1	109.5	836.8
1008	1944	1020	1	109.5	836.8
1008	1944	1026	1	109.5	836.8
1008	1974	1058	1	109.5	836.8
1008	1974	1064	1	109.5	836.8
1008	1974	1069	1	109.5	836.8
1009	1945	1011	1	109.5	836.8
1009	1945	1021	1	109.5	836.8
1009	1945	1027	1	109.5	836.8
1009	1975	1065	1	109.5	836.8
1009	1975	1384	1	109.5	836.8
1010	1946	1012	1	109.5	836.8
1010	1946	1022	1	109.5	836.8
1010	1946	1028	1	109.5	836.8
1010	1976	1060	1	109.5	836.8
1010	1976	1066	1	109.5	836.8
1010	1976	1067	1	109.5	836.8
1011	1945	1021	1	109.5	836.8
1011	1945	1027	1	109.5	836.8
1011	1947	1017	1	109.5	836.8
1011	1947	1050	1	109.5	836.8
1011	1947	1379	1	109.5	836.8
1012	1946	1022	1	109.5	836.8
1012	1946	1028	1	109.5	836.8
1012	1948	1018	1	109.5	836.8
1012	1948	1026	1	109.5	836.8
1013	1949	1019	1	109.5	836.8
1013	1949	1027	1	109.5	836.8
1013	1949	1051	1	109.5	836.8
1014	1942	1017	1	109.5	836.8
1014	1942	1024	1	109.5	836.8
1014	1950	1020	1	109.5	836.8
1014	1950	1025	1	109.5	836.8
1015	1941	1023	1	109.5	836.8
1015	1941	1246	1	109.5	836.8
1016	1943	1019	1	109.5	836.8
1016	1943	1025	1	109.5	836.8
1016	1952	1022	1	109.5	836.8
1016	1952	1023	1	109.5	836.8
1017	1942	1024	1	109.5	836.8
1017	1947	1050	1	109.5	836.8
1017	1947	1379	1	109.5	836.8
1018	1948	1026	1	109.5	836.8
1019	1943	1025	1	109.5	836.8
1019	1949	1027	1	109.5	836.8
1019	1949	1051	1	109.5	836.8
1020	1944	1026	1	109.5	836.8
1020	1950	1025	1	109.5	836.8
1021	1945	1027	1	109.5	836.8
1021	1951	1380	1	109.5	836.8
1022	1946	1028	1	109.5	836.8
1022	1952	1023	1	109.5	836.8
1023	1941	1246	1	109.5	836.8
1024	1783	1352	1	109.5	836.8
1027	1949	1051	1	109.5	836.8
1028	1935	1029	1	109.5	836.8
1029	1954	1037	1	109.5	836.8
1029	1954	1039	1	109.5	836.8
1029	1954	1046	1	109.5	836.8
1030	1955	1038	1	109.5	836.8
1030	1955	1041	1	109.5	836.8
1030	1955	1047	1	109.5	836.8
1031	1956	1042	1	109.5	836.8
1031	1956	1048	1	109.5	836.8
1031	1986	1081	1	109.5	836.8
1031	1986	1086	1	109.5	836.8
1031	1986	1091	1	109.5	836.8
1032	1957	1034	1	109.5	836.8
1032	1957	1043	1	109.5	836.8
1032	1957	1049	1	109.5	836.8
1032	1987	1087	1	109.5	836.8
1032	1987	1103	1	109.5	836.8
1033	1958	1035	1	109.5	836.8
1033	1958	1044	1	109.5	836.8
1033	1958	1382	1	109.5	836.8
1033	1988	1082	1	109.5	836.8
1033	1988	1088	1	109.5	836.8
1033	1988	1089	1	109.5	836.8
1034	1957	1043	1	109.5	836.8
1034	1957	1049	1	109.5	836.8
1034	1959	1039	1	109.5	836.8
1034	1959	1072	1	109.5	836.8
1034	1959	1073	1	109.5	836.8
1035	1958	1044	1	109.5	836.8
1035	1958	1382	1	109.5	836.8
1035	1960	1040	1	109.5	836.8
1035	1960	1048	1	109.5	836.8
1036	1961	1041	1	109.5	836.8
1036	1961	1049	1	109.5	836.8
1036	1961	1074	1	109.5	836.8
1037	1954	1039	1	109.5	836.8
1037	1954	1046	1	109.5	836.8
1037	1962	1042	1	109.5	836.8
1037	1962	1047	1	109.5	836.8
1038	1955	1041	1	109.5	836.8
1038	1955	1047	1	109.5	836.8
1038	1964	1044	1	109.5	836.8
1038	1964	1045	1	109.5	836.8
1039	1954	1046	1	109.5	836.8
1039	1959	1072	1	109.5	836.8
1039	1959	1073	1	109.5	836.8
1040	1785	1353	1	109.5	836.8
1040	1960	1048	1	109.5	836.8
1041	1955	1047	1	109.5	836.8
1041	1961	1049	1	109.5	836.8
1041	1961	1074	1	109.5	836.8
1042	1956	1048	1	109.5	836.8
1042	1962	1047	1	109.5	836.8
1043	1957	1049	1	109.5	836.8
1043	1963	1059	1	109.5	836.8
1044	1958	1382	1	109.5	836.8
1044	1964	1045	1	109.5	836.8
1045	1953	1247	1	109.5	836.8
1045	1953	1381	1	109.5	836.8
1049	1961	1074	1	109.5	836.8
1050	1947	1379	1	109.5	836.8
1050	1966	1058	1	109.5	836.8
1050	1966	1061	1	109.5	836.8
1050	1966	1068	1	109.5	836.8
1051	1967	1060	1	109.5	836.8
1051	1967	1063	1	109.5	836.8
1051	1967	1069	1	109.5	836.8
1052	1968	1064	1	109.5	836.8
1052	1968	1070	1	109.5	836.8
1052	1998	1102	1	109.5	836.8
1052	1998	1108	1	109.5	836.8
1052	1998	1113	1	109.5	836.8
1053	1969	1055	1	109.5	836.8
1053	1969	1065	1	109.5	836.8
1053	1969	1071	1	109.5	836.8
1053	1999	1109	1	109.5	836.8
1053	1999	1388	1	109.5	836.8
1054	1970	1056	1	109.5	836.8
1054	1970	1066	1	109.5	836.8
1054	1970	1072	1	109.5	836.8
1054	2000	1104	1	109.5	836.8
1054	2000	1110	1	109.5	836.8
1054	2000	1111	1	109.5	836.8
1055	1969	1065	1	109.5	836.8
1055	1969	1071	1	109.5	836.8
1055	1971	1061	1	109.5	836.8
1055	1971	1094	1	109.5	836.8
1055	1971	1383	1	109.5	836.8
1056	1970	1066	1	109.5	836.8
1056	1970	1072	1	109.5	836.8
1056	1972	1062	1	109.5	836.8
1056	1972	1070	1	109.5	836.8
1057	1973	1063	1	109.5	836.8
1057	1973	1071	1	109.5	836.8
1057	1973	1095	1	109.5	836.8
1058	1966	1061	1	109.5	836.8
1058	1966	1068	1	109.5	836.8
1058	1974	1064	1	109.5	836.8
1058	1974	1069	1	109.5	836.8
1059	1965	1067	1	109.5	836.8
1059	1965	1248	1	109.5	836.8
1060	1967	1063	1	109.5	836.8
1060	1967	1069	1	109.5	836.8
1060	1976	1066	1	109.5	836.8
1060	1976	1067	1	109.5	836.8
1061	1966	1068	1	109.5	836.8
1061	1971	1094	1	109.5	836.8
1061	1971	1383	1	109.5	836.8
1062	1972	1070	1	109.5	836.8
1063	1967	1069	1	109.5	836.8
1063	1973	1071	1	109.5	836.8
1063	1973	1095	1	109.5	836.8
1064	1968	1070	1	109.5	836.8
1064	1974	1069	1	109.5	836.8
1065	1969	1071	1	109.5	836.8
1065	1975	1384	1	109.5	836.8
1066	1970	1072	1	109.5	836.8
1066	1976	1067	1	109.5	836.8
1067	1965	1248	1	109.5	836.8
1068	1807	1356	1	109.5	836.8
1071	1973	1095	1	109.5	836.8
1072	1959	1073	1	109.5	836.8
1073	1978	1081	1	109.5	836.8
1073	1978	1083	1	109.5	836.8
1073	1978	1090	1	109.5	836.8
1074	1979	1082	1	109.5	836.8
1074	1979	1085	1	109.5	836.8
1074	1979	1091	1	109.5	836.8
1075	1980	1086	1	109.5	836.8
1075	1980	1092	1	109.5	836.8
1075	2010	1125	1	109.5	836.8
1075	2010	1130	1	109.5	836.8
1075	2010	1135	1	109.5	836.8
1076	1981	1078	1	109.5	836.8
1076	1981	1087	1	109.5	836.8
1076	1981	1093	1	109.5	836.8
1076	2011	1131	1	109.5	836.8
1076	2011	1147	1	109.5	836.8
1077	1982	1079	1	109.5	836.8
1077	1982	1088	1	109.5	836.8
1077	1982	1386	1	109.5	836.8
1077	2012	1126	1	109.5	836.8
1077	2012	1132	1	109.5	836.8
1077	2012	1133	1	109.5	836.8
1078	1981	1087	1	109.5	836.8
1078	1981	1093	1	109.5	836.8
1078	1983	1083	1	109.5	836.8
1078	1983	1116	1	109.5	836.8
1078	1983	1117	1	109.5	836.8
1079	1982	1088	1	109.5	836.8
1079	1982	1386	1	109.5	836.8
1079	1984	1084	1	109.5	836.8
1079	1984	1092	1	109.5	836.8
1080	1985	1085	1	109.5	836.8
1080	1985	1093	1	109.5	836.8
1080	1985	1118	1	109.5	836.8
1081	1978	1083	1	109.5	836.8
1081	1978	1090	1	109.5	836.8
1081	1986	1086	1	109.5	836.8
1081	1986	1091	1	109.5	836.8
1082	1979	1085	1	109.5	836.8
1082	1979	1091	1	109.5	836.8
1082	1988	1088	1	109.5	836.8
1082	1988	1089	1	109.5	836.8
1083	1978	1090	1	109.5	836.8
1083	1983	1116	1	109.5	836.8
1083	1983	1117	1	109.5	836.8
1084	1809	1357	1	109.5	836.8
1084	1984	1092	1	109.5	836.8
1085	1979	1091	1	109.5	836.8
1085	1985	1093	1	109.5	836.8
1085	1985	1118	1	109.5	836.8
1086	1980	1092	1	109.5	836.8
1086	1986	1091	1	109.5	836.8
1087	1981	1093	1	109.5	836.8
1087	1987	1103	1	109.5	836.8
1088	1982	1386	1	109.5	836.8
1088	1988	1089	1	109.5	836.8
1089	1977	1249	1	109.5	836.8
1089	1977	1385	1	109.5	836.8
1093	1985	1118	1	109.5	836.8
1094	1971	1383	1	109.5	836.8
1094	1990	1102	1	109.5	836.8
1094	1990	1105	1	109.5	836.8
1094	1990	1112	1	109.5	836.8
1095	1991	1104	1	109.5	836.8
1095	1991	1107	1	109.5	836.8
1095	1991	1113	1	109.5	836.8
1096	1992	1108	1	109.5	836.8
1096	1992	1114	1	109.5	836.8
1096	2022	1146	1	109.5	836.8
1096	2022	1152	1	109.5	836.8
1096	2022	1157	1	109.5	836.8
1097	1993	1099	1	109.5	836.8
1097	1993	1109	1	109.5	836.8
1097	1993	1115	1	109.5	836.8
1097	2023	1153	1	109.5	836.8
1097	2023	1392	1	109.5	836.8
1098	1994	1100	1	109.5	836.8
1098	1994	1110	1	109.5	836.8
1098	1994	1116	1	109.5	836.8
1098	2024	1148	1	109.5	836.8
1098	2024	1154	1	109.5	836.8
1098	2024	1155	1	109.5	836.8
1099	1993	1109	1	109.5	836.8
1099	1993	1115	1	109.5	836.8
1099	1995	1105	1	109.5	836.8
1099	1995	1138	1	109.5	836.8
1099	1995	1387	1	109.5	836.8
1100	1994	1110	1	109.5	836.8
1100	1994	1116	1	109.5	836.8
1100	1996	1106	1	109.5	836.8
1100	1996	1114	1	109.5	836.8
1101	1997	1107	1	109.5	836.8
1101	1997	1115	1	109.5	836.8
1101	1997	1139	1	109.5	836.8
1102	1990	1105	1	109.5	836.8
1102	1990	1112	1	109.5	836.8
1102	1998	1108	1	109.5	836.8
1102	1998	1113	1	109.5	836.8
1103	1989	1111	1	109.5	836.8
1103	1989	1250	1	109.5	836.8
1104	1991	1107	1	109.5	836.8
1104	1991	1113	1	109.5	836.8
1104	2000	1110	1	109.5	836.8
1104	2000	1111	1	109.5	836.8
1105	1990	1112	1	109.5	836.8
1105	1995	1138	1	109.5	836.8
1105	1995	1387	1	109.5	836.8
1106	1996	1114	1	109.5	836.8
1107	1991	1113	1	109.5	836.8
1107	1997	1115	1	109.5	836.8
1107	1997	1139	1	109.5	836.8
1108	1992	1114	1	109.5	836.8
1108	1998	1113	1	109.5	836.8
1109	1993	1115	1	109.5	836.8
1109	1999	1388	1	109.5	836.8
1110	1994	1116	1	109.5	836.8
1110	2000	1111	1	109.5	836.8
1111	1989	1250	1	109.5	836.8
1112	1831	1360	1	109.5	836.8
1115	1997	1139	1	109.5	836.8
1116	1983	1117	1	109.5	836.8
1117	2002	1125	1	109.5	836.8
1117	2002	1127	1	109.5	836.8
1117	2002	1134	1	109.5	836.8
1118	2003	1126	1	109.5	836.8
1118	2003	1129	1	109.5	836.8
1118	2003	1135	1	109.5	836.8
1119	2004	1130	1	109.5	836.8
1119	2004	1136	1	109.5	836.8
1119	2034	1169	1	109.5	836.8
1119	2034	1174	1	109.5	836.8
1119	2034	1179	1	109.5	836.8
1120	2005	1122	1	109.5	836.8
1120	2005	1131	1	109.5	836.8
1120	2005	1137	1	109.5	836.8
1120	2035	1175	1	109.5	836.8
1120	2035	1191	1	109.5	836.8
1121	2006	1123	1	109.5	836.8
1121	2006	1132	1	109.5	836.8
1121	2006	1390	1	109.5	836.8
1121	2036	1170	1	109.5	836.8
1121	2036	1176	1	109.5	836.8
1121	2036	1177	1	109.5	836.8
1122	2005	1131	1	109.5	836.8
1122	2005	1137	1	109.5	836.8
1122	2007	1127	1	109.5	836.8
1122	2007	1160	1	109.5	836.8
1122	2007	1161	1	109.5	836.8
1123	2006	1132	1	109.5	836.8
1123	2006	1390	1	109.5	836.8
1123	2008	1128	1	109.5	836.8
1123	2008	1136	1	109.5	836.8
1124	2009	1129	1	109.5	836.8
1124	2009	1137	1	109.5	836.8
1124	2009	1162	1	109.5	836.8
1125	2002	1127	1	109.5	836.8
1125	2002	1134	1	109.5	836.8
1125	2010	1130	1	109.5	836.8
1125	2010	1135	1	109.5	836.8
1126	2003	1129	1	109.5	836.8
1126	2003	1135	1	109.5	836.8
1126	2012	1132	1	109.5	836.8
1126	2012	1133	1	109.5	836.8
1127	2002	1134	1	109.5	836.8
1127	2007	1160	1	109.5	836.8
1127	2007	1161	1	109.5	836.8
1128	1833	1361	1	109.5	836.8
1128	2008	1136	1	109.5	836.8
1129	2003	1135	1	109.5	836.8
1129	2009	1137	1	109.5	836.8
1129	2009	1162	1	109.5	836.8
1130	2004	1136	1	109.5	836.8
1130	2010	1135	1	109.5	836.8
1131	2005	1137	1	109.5	836.8
1131	2011	1147	1	109.5	836.8
1132	2006	1390	1	109.5	836.8
1132	2012	1133	1	109.5	836.8
1133	2001	1251	1	109.5	836.8
1133	2001	1389	1	109.5	836.8
1137	2009	1162	1	109.5	836.8
1138	1995	1387	1	109.5	836.8
1138	2014	1146	1	109.5	836.8
1138	2014	1149	1	109.5	836.8
1138	2014	1156	1	109.5	836.8
1139	2015	1148	1	109.5	836.8
1139	2015	1151	1	109.5	836.8
1139	2015	1157	1	109.5	836.8
1140	2016	1152	1	109.5	836.8
1140	2016	1158	1	109.5	836.8
1140	2046	1190	1	109.5	836.8
1140	2046	1196	1	109.5	836.8
1140	2046	1201	1	109.5	836.8
1141	2017	1143	1	109.5	836.8
1141	2017	1153	1	109.5	836.8
1141	2017	1159	1	109.5	836.8
1141	2047	1197	1	109.5	836.8
1141	2047	1396	1	109.5	836.8
1142	2018	1144	1	109.5	836.8
1142	2018	1154	1	109.5	836.8
1142	2018	1160	1	109.5	836.8
1142	2048	1192	1	109.5	836.8
1142	2048	1198	1	109.5	836.8
1142	2048	1199	1	109.5	836.8
1143	2017	1153	1	109.5	836.8
1143	2017	1159	1	109.5	836.8
1143	2019	1149	1	109.5	836.8
1143	2019	1182	1	109.5	836.8
1143	2019	1391	1	109.5	836.8
1144	2018	1154	1	109.5	836.8
1144	2018	1160	1	109.5	836.8
1144	2020	1150	1	109.5	836.8
1144	2020	1158	1	109.5	836.8
1145	2021	1151	1	109.5	836.8
1145	2021	1159	1	109.5	836.8
1145	2021	1183	1	109.5	836.8
1146	2014	1149	1	109.5	836.8
1146	2014	1156	1	109.5	836.8
1146	2022	1152	1	109.5	836.8
1146	2022	1157	1	109.5	836.8
1147	2013	1155	1	109.5	836.8
1147	2013	1252	1	109.5	836.8
1148	2015	1151	1	109.5	836.8
1148	2015	1157	1	109.5	836.8
1148	2024	1154	1	109.5	836.8
1148	2024	1155	1	109.5	836.8
1149	2014	1156	1	109.5	836.8
1149	2019	1182	1	109.5	836.8
1149	2019	1391	1	109.5	836.8
1150	2020	1158	1	109.5	836.8
1151	2015	1157	1	109.5	836.8
1151	2021	1159	1	109.5	836.8
1151	2021	1183	1	109.5	836.8
1152	2016	1158	1	109.5	836.8
1152	2022	1157	1	109.5	836.8
1153	2017	1159	1	109.5	836.8
1153	2023	1392	1	109.5	836.8
1154	2018	1160	1	109.5	836.8
1154	2024	1155	1	109.5	836.8
1155	2013	1252	1	109.5	836.8
1156	1855	1364	1	109.5	836.8
1159	2021	1183	1	109.5	836.8
1160	2007	1161	1	109.5	836.8
1161	2026	1169	1	109.5	836.8
1161	2026	1171	1	109.5	836.8
1161	2026	1178	1	109.5	836.8
1162	2027	1170	1	109.5	836.8
1162	2027	1173	1	109.5	836.8
1162	2027	1179	1	109.5	836.8
1163	2028	1174	1	109.5	836.8
1163	2028	1180	1	109.5	836.8
1163	2058	1210	1	109.5	836.8
1163	2058	1215	1	109.5	836.8
1163	2058	1220	1	109.5	836.8
1164	2029	1166	1	109.5	836.8
1164	2029	1175	1	109.5	836.8
1164	2029	1181	1	109.5	836.8
1164	2059	1216	1	109.5	836.8
1164	2059	1229	1	109.5	836.8
1165	2030	1167	1	109.5	836.8
1165	2030	1176	1	109.5	836.8
1165	2030	1394	1	109.5	836.8
1165	2060	1211	1	109.5	836.8
1165	2060	1217	1	109.5	836.8
1165	2060	1218	1	109.5	836.8
1166	2029	1175	1	109.5	836.8
1166	2029	1181	1	109.5	836.8
1166	2031	1171	1	109.5	836.8
1166	2031	1204	1	109.5	836.8
1166	2031	1205	1	109.5	836.8
1167	2030	1176	1	109.5	836.8
1167	2030	1394	1	109.5	836.8
1167	2032	1172	1	109.5	836.8
1167	2032	1180	1	109.5	836.8
1168	2033	1173	1	109.5	836.8
1168	2033	1181	1	109.5	836.8
1168	2033	1206	1	109.5	836.8
1169	2026	1171	1	109.5	836.8
1169	2026	1178	1	109.5	836.8
1169	2034	1174	1	109.5	836.8
1169	2034	1179	1	109.5	836.8
1170	2027	1173	1	109.5	836.8
1170	2027	1179	1	109.5	836.8
1170	2036	1176	1	109.5	836.8
1170	2036	1177	1	109.5	836.8
1171	2026	1178	1	109.5	836.8
1171	2031	1204	1	109.5	836.8
1171	2031	1205	1	109.5	836.8
1172	1857	1365	1	109.5	836.8
1172	2032	1180	1	109.5	836.8
1173	2027	1179	1	109.5	836.8
1173	2033	1181	1	109.5	836.8
1173	2033	1206	1	109.5	836.8
1174	2028	1180	1	109.5	836.8
1174	2034	1179	1	109.5	836.8
1175	2029	1181	1	109.5	836.8
1175	2035	1191	1	109.5	836.8
1176	2030	1394	1	109.5	836.8
1176	2036	1177	1	109.5	836.8
1177	2025	1253	1	109.5	836.8
1177	2025	1393	1	109.5	836.8
1181	2033	1206	1	109.5	836.8
1182	2019	1391	1	109.5	836.8
1182	2038	1190	1	109.5	836.8
1182	2038	1193	1	109.5	836.8
1182	2038	1200	1	109.5	836.8
1183	2039	1192	1	109.5	836.8
1183	2039	1195	1	109.5	836.8
1183	2039	1201	1	109.5	836.8
1184	2040	1196	1	109.5	836.8
1184	2040	1202	1	109.5	836.8
1184	2070	1228	1	109.5	836.8
1184	2070	1234	1	109.5	836.8
1184	2070	1239	1	109.5	836.8
1185	2041	1187	1	109.5	836.8
1185	2041	1197	1	109.5	836.8
1185	2041	1203	1	109.5	836.8
1185	2071	1235	1	109.5	836.8
1185	2071	1400	1	109.5	836.8
1186	2042	1188	1	109.5	836.8
1186	2042	1198	1	109.5	836.8
1186	2042	1204	1	109.5	836.8
1186	2072	1230	1	109.5	836.8
1186	2072	1236	1	109.5	836.8
1186	2072	1237	1	109.5	836.8
1187	2041	1197	1	109.5	836.8
1187	2041	1203	1	109.5	836.8
1187	2043	1193	1	109.5	836.8
1187	2043	1223	1	109.5	836.8
1187	2043	1395	1	109.5	836.8
1188	2042	1198	1	109.5	836.8
1188	2042	1204	1	109.5	836.8
1188	2044	1194	1	109.5	836.8
1188	2044	1202	1	109.5	836.8
1189	2045	1195	1	109.5	836.8
1189	2045	1203	1	109.5	836.8
1189	2045	1224	1	109.5	836.8
1190	2038	1193	1	109.5	836.8
1190	2038	1200	1	109.5	836.8
1190	2046	1196	1	109.5	836.8
1190	2046	1201	1	109.5	836.8
1191	2037	1199	1	109.5	836.8
1191	2037	1254	1	109.5	836.8
1192	2039	1195	1	109.5	836.8
1192	2039	1201	1	109.5	836.8
1192	2048	1198	1	109.5	836.8
1192	2048	1199	1	109.5	836.8
1193	2038	1200	1	109.5	836.8
1193	2043	1223	1	109.5	836.8
1193	2043	1395	1	109.5	836.8
1194	2044	1202	1	109.5	836.8
1195	2039	1201	1	109.5	836.8
1195	2045	1203	1	109.5	836.8
1195	2045	1224	1	109.5	836.8
1196	2040	1202	1	109.5	836.8
1196	2046	1201	1	109.5	836.8
1197	2041	1203	1	109.5	836.8
1197	2047	1396	1	109.5	836.8
1198	2042	1204	1	109.5	836.8
1198	2048	1199	1	109.5	836.8
1199	2037	1254	1	109.5	836.8
1200	1879	1368	1	109.5	836.8
1203	2045	1224	1	109.5	836.8
1204	2031	1205	1	109.5	836.8
1205	2050	1210	1	109.5	836.8
1205	2050	1212	1	109.5	836.8
1205	2050	1219	1	109.5	836.8
1206	2051	1211	1	109.5	836.8
1206	2051	1214	1	109.5	836.8
1206	2051	1220	1	109.5	836.8
1207	2053	1216	1	109.5	836.8
1207	2053	1222	1	109.5	836.8
1207	2053	1284	1	109.5	836.8
1207	2055	1212	1	109.5	836.8
1207	2055	1242	1	109.5	836.8
1208	2054	1217	1	109.5	836.8
1208	2054	1285	1	109.5	836.8
1208	2054	1398	1	109.5	836.8
1208	2056	1213	1	109.5	836.8
1208	2056	1221	1	109.5	836.8
1209	1548	1265	1	109.5	836.8
1209	2057	1214	1	109.5	836.8
1209	2057	1222	1	109.5	836.8
1209	2057	1263	1	109.5	836.8
1210	2050	1212	1	109.5	836.8
1210	2050	1219	1	109.5	836.8
1210	2058	1215	1	109.5	836.8
1210	2058	1220	1	109.5	836.8
1211	2051	1214	1	109.5	836.8
1211	2051	1220	1	109.5	836.8
1211	2060	1217	1	109.5	836.8
1211	2060	1218	1	109.5	836.8
1212	2050	1219	1	109.5	836.8
1212	2055	1242	1	109.5	836.8
1213	1881	1369	1	109.5	836.8
1213	2056	1221	1	109.5	836.8
1214	2051	1220	1	109.5	836.8
1214	2057	1222	1	109.5	836.8
1214	2057	1263	1	109.5	836.8
1215	2052	1221	1	109.5	836.8
1215	2052	1283	1	109.5	836.8
1215	2058	1220	1	109.5	836.8
1216	2053	1222	1	109.5	836.8
1216	2053	1284	1	109.5	836.8
1216	2059	1229	1	109.5	836.8
1217	2054	1285	1	109.5	836.8
1217	2054	1398	1	109.5	836.8
1217	2060	1218	1	109.5	836.8
1218	2049	1255	1	109.5	836.8
1218	2049	1397	1	109.5	836.8
1221	2052	1283	1	109.5	836.8
1222	2053	1284	1	109.5	836.8
1222	2057	1263	1	109.5	836.8
1223	2043	1395	1	109.5	836.8
1223	2062	1228	1	109.5	836.8
1223	2062	1231	1	109.5	836.8
1223	2062	1238	1	109.5	836.8
1224	2063	1230	1	109.5	836.8
1224	2063	1233	1	109.5	836.8
1224	2063	1239	1	109.5	836.8
1225	2065	1235	1	109.5	836.8
1225	2065	1241	1	109.5	836.8
1225	2065	1287	1	109.5	836.8
1225	2067	1231	1	109.5	836.8
1225	2067	1399	1	109.5	836.8
1226	2066	1236	1	109.5	836.8
1226	2066	1242	1	109.5	836.8
1226	2066	1288	1	109.5	836.8
1226	2068	1232	1	109.5	836.8
1226	2068	1240	1	109.5	836.8
1227	1560	1268	1	109.5	836.8
1227	2069	1233	1	109.5	836.8
1227	2069	1241	1	109.5	836.8
1227	2069	1264	1	109.5	836.8
1228	2062	1231	1	109.5	836.8
1228	2062	1238	1	109.5	836.8
1228	2070	1234	1	109.5	836.8
1228	2070	1239	1	109.5	836.8
1229	2061	1237	1	109.5	836.8
1229	2061	1256	1	109.5	836.8
1230	2063	1233	1	109.5	836.8
1230	2063	1239	1	109.5	836.8
1230	2072	1236	1	109.5	836.8
1230	2072	1237	1	109.5	836.8
1231	2062	1238	1	109.5	836.8
1231	2067	1399	1	109.5	836.8
1232	2068	1240	1	109.5	836.8
1233	2063	1239	1	109.5	836.8
1233	2069	1241	1	109.5	836.8
1233	2069	1264	1	109.5	836.8
1234	2064	1240	1	109.5	836.8
1234	2064	1286	1	109.5	836.8
1234	2070	1239	1	109.5	836.8
1235	2065	1241	1	109.5	836.8
1235	2065	1287	1	109.5	836.8
1235	2071	1400	1	109.5	836.8
1236	2066	1242	1	109.5	836.8
1236	2066	1288	1	109.5	836.8
1236	2072	1237	1	109.5	836.8
1237	2061	1256	1	109.5	836.8
1238	1903	1372	1	109.5	836.8
1240	2064	1286	1	109.5	836.8
1241	2065	1287	1	109.5	836.8
1241	2069	1264	1	109.5	836.8
1242	2066	1288	1	109.5	836.8
1243	1905	1373	1	109.5	836.8
1245	1929	1377	1	109.5	836.8
1247	1953	1381	1	109.5	836.8
1249	1977	1385	1	109.5	836.8
1251	2001	1389	1	109.5	836.8
1253	2025	1393	1	109.5	836.8
1255	2049	1397	1	109.5	836.8
1267	1550	1314	1	109.5	836.8
1269	1423	1292	1	109.5	836.8
1273	1718	1342	1	109.5	836.8
1275	1591	1320	1	109.5	836.8
1279	1886	1370	1	109.5	836.8
1281	1759	1348	1	109.5	836.8
1285	2054	1398	1	109.5	836.8
1287	1927	1376	1	109.5	836.8
1401	2	1720	1	149.0	836.8
1401	17	1412	1	149.0	836.8
1401	326	1576	1	149.0	836.8
1401	1289	2073	1	115.0	418.4
1402	1	1551	1	149.0	836.8
1402	9	1410	1	149.0	836.8
1402	11	1407	1	149.0	836.8
1402	18	1915	1	149.0	836.8
1403	10	1412	1	149.0	836.8
1403	13	1409	1	149.0	836.8
1403	19	1410	1	149.0	836.8
1403	1257	1553	1	149.0	836.8
1404	3	1434	1	149.0	836.8
1404	14	1410	1	149.0	836.8
1404	20	1408	1	149.0	836.8
1404	949	1913	1	149.0	836.8
1405	4	1435	1	149.0	836.8
1405	6	1407	1	149.0	836.8
1405	15	1411	1	149.0	836.8
1405	21	1409	1	149.0	836.8
1406	5	1436	1	149.0	836.8
1406	7	1408	1	149.0	836.8
1406	16	1412	1	149.0	836.8
1406	1290	2074	1	111.0	461.16
1406	1290	2075	1	111.0	461.16
1406	1290	2076	1	111.0	461.16
1407	44	1418	1	149.0	836.8
1407	45	1426	1	149.0	836.8
1408	12	1905	1	149.0	836.8
1408	1245	1929	1	149.0	836.8
1409	8	1572	1	149.0	836.8
1409	47	1427	1	149.0	836.8
1410	1265	1548	1	149.0	836.8
1411	31	1413	1	149.0	836.8
1411	332	1570	1	149.0	836.8
1411	1266	1549	1	149.0	836.8
1412	1267	1550	1	149.0	836.8
1413	23	1732	1	149.0	836.8
1413	39	1424	1	149.0	836.8
1413	348	1588	1	149.0	836.8
1414	22	1563	1	149.0	836.8
1414	30	1422	1	149.0	836.8
1414	33	1419	1	149.0	836.8
1414	40	1927	1	149.0	836.8
1415	32	1424	1	149.0	836.8
1415	35	1421	1	149.0	836.8
1415	41	1422	1	149.0	836.8
1415	1258	1565	1	149.0	836.8
1416	24	1446	1	149.0	836.8
1416	36	1422	1	149.0	836.8
1416	42	1420	1	149.0	836.8
1416	969	1925	1	149.0	836.8
1417	25	1447	1	149.0	836.8
1417	27	1419	1	149.0	836.8
1417	37	1423	1	149.0	836.8
1417	43	1421	1	149.0	836.8
1418	26	1448	1	149.0	836.8
1418	28	1420	1	149.0	836.8
1418	38	1424	1	149.0	836.8
1419	67	1438	1	149.0	836.8
1419	1291	2077	1	111.0	461.16
1419	1291	2078	1	111.0	461.16
1419	1291	2079	1	111.0	461.16
1420	34	1917	1	149.0	836.8
1420	1246	1941	1	149.0	836.8
1421	29	1584	1	149.0	836.8
1421	69	1439	1	149.0	836.8
1422	1268	1560	1	149.0	836.8
1423	354	1582	1	149.0	836.8
1423	1269	1561	1	149.0	836.8
1423	1292	2080	1	111.0	461.16
1423	1292	2081	1	111.0	461.16
1423	1292	2082	1	111.0	461.16
1424	1270	1562	1	149.0	836.8
1425	46	1576	1	149.0	836.8
1425	62	1436	1	149.0	836.8
1425	371	1600	1	149.0	836.8
1425	1293	2083	1	111.0	461.16
1425	1293	2084	1	111.0	461.16
1425	1293	2085	1	111.0	461.16
1426	54	1434	1	149.0	836.8
1426	56	1431	1	149.0	836.8
1426	63	1939	1	149.0	836.8
1427	55	1436	1	149.0	836.8
1427	58	1433	1	149.0	836.8
1427	64	1434	1	149.0	836.8
1428	48	1458	1	149.0	836.8
1428	59	1434	1	149.0	836.8
1428	65	1432	1	149.0	836.8
1428	992	1937	1	149.0	836.8
1429	49	1459	1	149.0	836.8
1429	51	1431	1	149.0	836.8
1429	60	1435	1	149.0	836.8
1429	66	1433	1	149.0	836.8
1430	50	1460	1	149.0	836.8
1430	52	1432	1	149.0	836.8
1430	61	1436	1	149.0	836.8
1430	1294	2086	1	115.0	418.4
1431	90	1442	1	149.0	836.8
1431	91	1450	1	149.0	836.8
1432	57	1929	1	149.0	836.8
1432	1247	1953	1	149.0	836.8
1433	53	1596	1	149.0	836.8
1433	93	1451	1	149.0	836.8
1435	77	1437	1	149.0	836.8
1435	377	1594	1	149.0	836.8
1437	68	1588	1	149.0	836.8
1437	85	1448	1	149.0	836.8
1437	394	1612	1	149.0	836.8
1438	76	1446	1	149.0	836.8
1438	79	1443	1	149.0	836.8
1438	86	1951	1	149.0	836.8
1439	78	1448	1	149.0	836.8
1439	81	1445	1	149.0	836.8
1439	87	1446	1	149.0	836.8
1440	70	1470	1	149.0	836.8
1440	82	1446	1	149.0	836.8
1440	88	1444	1	149.0	836.8
1440	1013	1949	1	149.0	836.8
1441	71	1471	1	149.0	836.8
1441	73	1443	1	149.0	836.8
1441	83	1447	1	149.0	836.8
1441	89	1445	1	149.0	836.8
1442	72	1472	1	149.0	836.8
1442	74	1444	1	149.0	836.8
1442	84	1448	1	149.0	836.8
1443	113	1462	1	149.0	836.8
1443	1295	2087	1	115.0	418.4
1444	80	1941	1	149.0	836.8
1444	1248	1965	1	149.0	836.8
1445	75	1608	1	149.0	836.8
1445	115	1463	1	149.0	836.8
1447	400	1606	1	149.0	836.8
1447	1296	2088	1	111.0	461.16
1447	1296	2089	1	111.0	461.16
1447	1296	2090	1	111.0	461.16
1449	92	1600	1	149.0	836.8
1449	108	1460	1	149.0	836.8
1449	417	1624	1	149.0	836.8
1449	1297	2091	1	111.0	461.16
1449	1297	2092	1	111.0	461.16
1449	1297	2093	1	111.0	461.16
1450	100	1458	1	149.0	836.8
1450	102	1455	1	149.0	836.8
1450	109	1963	1	149.0	836.8
1451	101	1460	1	149.0	836.8
1451	104	1457	1	149.0	836.8
1451	110	1458	1	149.0	836.8
1452	94	1482	1	149.0	836.8
1452	105	1458	1	149.0	836.8
1452	111	1456	1	149.0	836.8
1452	1036	1961	1	149.0	836.8
1453	95	1483	1	149.0	836.8
1453	97	1455	1	149.0	836.8
1453	106	1459	1	149.0	836.8
1453	112	1457	1	149.0	836.8
1454	96	1484	1	149.0	836.8
1454	98	1456	1	149.0	836.8
1454	107	1460	1	149.0	836.8
1454	1298	2094	1	111.0	461.16
1454	1298	2095	1	111.0	461.16
1454	1298	2096	1	111.0	461.16
1455	136	1466	1	149.0	836.8
1455	137	1474	1	149.0	836.8
1456	103	1953	1	149.0	836.8
1456	1249	1977	1	149.0	836.8
1457	99	1620	1	149.0	836.8
1457	139	1475	1	149.0	836.8
1459	123	1461	1	149.0	836.8
1459	423	1618	1	149.0	836.8
1461	114	1612	1	149.0	836.8
1461	131	1472	1	149.0	836.8
1461	440	1636	1	149.0	836.8
1462	122	1470	1	149.0	836.8
1462	125	1467	1	149.0	836.8
1462	132	1975	1	149.0	836.8
1463	124	1472	1	149.0	836.8
1463	127	1469	1	149.0	836.8
1463	133	1470	1	149.0	836.8
1464	116	1494	1	149.0	836.8
1464	128	1470	1	149.0	836.8
1464	134	1468	1	149.0	836.8
1464	1057	1973	1	149.0	836.8
1465	117	1495	1	149.0	836.8
1465	119	1467	1	149.0	836.8
1465	129	1471	1	149.0	836.8
1465	135	1469	1	149.0	836.8
1466	118	1496	1	149.0	836.8
1466	120	1468	1	149.0	836.8
1466	130	1472	1	149.0	836.8
1467	159	1486	1	149.0	836.8
1467	1299	2097	1	111.0	461.16
1467	1299	2098	1	111.0	461.16
1467	1299	2099	1	111.0	461.16
1468	126	1965	1	149.0	836.8
1468	1250	1989	1	149.0	836.8
1469	121	1632	1	149.0	836.8
1469	161	1487	1	149.0	836.8
1471	446	1630	1	149.0	836.8
1471	1300	2100	1	111.0	461.16
1471	1300	2101	1	111.0	461.16
1471	1300	2102	1	111.0	461.16
1473	138	1624	1	149.0	836.8
1473	154	1484	1	149.0	836.8
1473	463	1648	1	149.0	836.8
1473	1301	2103	1	111.0	461.16
1473	1301	2104	1	111.0	461.16
1473	1301	2105	1	111.0	461.16
1474	146	1482	1	149.0	836.8
1474	148	1479	1	149.0	836.8
1474	155	1987	1	149.0	836.8
1475	147	1484	1	149.0	836.8
1475	150	1481	1	149.0	836.8
1475	156	1482	1	149.0	836.8
1476	140	1506	1	149.0	836.8
1476	151	1482	1	149.0	836.8
1476	157	1480	1	149.0	836.8
1476	1080	1985	1	149.0	836.8
1477	141	1507	1	149.0	836.8
1477	143	1479	1	149.0	836.8
1477	152	1483	1	149.0	836.8
1477	158	1481	1	149.0	836.8
1478	142	1508	1	149.0	836.8
1478	144	1480	1	149.0	836.8
1478	153	1484	1	149.0	836.8
1478	1302	2106	1	115.0	418.4
1479	182	1490	1	149.0	836.8
1479	183	1498	1	149.0	836.8
1480	149	1977	1	149.0	836.8
1480	1251	2001	1	149.0	836.8
1481	145	1644	1	149.0	836.8
1481	185	1499	1	149.0	836.8
1483	169	1485	1	149.0	836.8
1483	469	1642	1	149.0	836.8
1485	160	1636	1	149.0	836.8
1485	177	1496	1	149.0	836.8
1485	486	1660	1	149.0	836.8
1486	168	1494	1	149.0	836.8
1486	171	1491	1	149.0	836.8
1486	178	1999	1	149.0	836.8
1487	170	1496	1	149.0	836.8
1487	173	1493	1	149.0	836.8
1487	179	1494	1	149.0	836.8
1488	162	1518	1	149.0	836.8
1488	174	1494	1	149.0	836.8
1488	180	1492	1	149.0	836.8
1488	1101	1997	1	149.0	836.8
1489	163	1519	1	149.0	836.8
1489	165	1491	1	149.0	836.8
1489	175	1495	1	149.0	836.8
1489	181	1493	1	149.0	836.8
1490	164	1520	1	149.0	836.8
1490	166	1492	1	149.0	836.8
1490	176	1496	1	149.0	836.8
1491	205	1510	1	149.0	836.8
1491	1303	2107	1	111.0	461.16
1491	1303	2108	1	111.0	461.16
1491	1303	2109	1	111.0	461.16
1492	172	1989	1	149.0	836.8
1492	1252	2013	1	149.0	836.8
1493	167	1656	1	149.0	836.8
1493	207	1511	1	149.0	836.8
1495	492	1654	1	149.0	836.8
1495	1304	2110	1	111.0	461.16
1495	1304	2111	1	111.0	461.16
1495	1304	2112	1	111.0	461.16
1497	184	1648	1	149.0	836.8
1497	200	1508	1	149.0	836.8
1497	509	1672	1	149.0	836.8
1497	1305	2113	1	111.0	461.16
1497	1305	2114	1	111.0	461.16
1497	1305	2115	1	111.0	461.16
1498	192	1506	1	149.0	836.8
1498	194	1503	1	149.0	836.8
1498	201	2011	1	149.0	836.8
1499	193	1508	1	149.0	836.8
1499	196	1505	1	149.0	836.8
1499	202	1506	1	149.0	836.8
1500	186	1530	1	149.0	836.8
1500	197	1506	1	149.0	836.8
1500	203	1504	1	149.0	836.8
1500	1124	2009	1	149.0	836.8
1501	187	1531	1	149.0	836.8
1501	189	1503	1	149.0	836.8
1501	198	1507	1	149.0	836.8
1501	204	1505	1	149.0	836.8
1502	188	1532	1	149.0	836.8
1502	190	1504	1	149.0	836.8
1502	199	1508	1	149.0	836.8
1502	1306	2116	1	111.0	461.16
1502	1306	2117	1	111.0	461.16
1502	1306	2118	1	111.0	461.16
1503	228	1514	1	149.0	836.8
1503	229	1522	1	149.0	836.8
1504	195	2001	1	149.0	836.8
1504	1253	2025	1	149.0	836.8
1505	191	1668	1	149.0	836.8
1505	231	1523	1	149.0	836.8
1507	215	1509	1	149.0	836.8
1507	515	1666	1	149.0	836.8
1509	206	1660	1	149.0	836.8
1509	223	1520	1	149.0	836.8
1509	532	1684	1	149.0	836.8
1510	214	1518	1	149.0	836.8
1510	217	1515	1	149.0	836.8
1510	224	2023	1	149.0	836.8
1511	216	1520	1	149.0	836.8
1511	219	1517	1	149.0	836.8
1511	225	1518	1	149.0	836.8
1512	208	1542	1	149.0	836.8
1512	220	1518	1	149.0	836.8
1512	226	1516	1	149.0	836.8
1512	1145	2021	1	149.0	836.8
1513	209	1543	1	149.0	836.8
1513	211	1515	1	149.0	836.8
1513	221	1519	1	149.0	836.8
1513	227	1517	1	149.0	836.8
1514	210	1544	1	149.0	836.8
1514	212	1516	1	149.0	836.8
1514	222	1520	1	149.0	836.8
1515	251	1534	1	149.0	836.8
1515	1307	2119	1	111.0	461.16
1515	1307	2120	1	111.0	461.16
1515	1307	2121	1	111.0	461.16
1516	218	2013	1	149.0	836.8
1516	1254	2037	1	149.0	836.8
1517	213	1680	1	149.0	836.8
1517	253	1535	1	149.0	836.8
1519	538	1678	1	149.0	836.8
1519	1308	2122	1	115.0	418.4
1521	230	1672	1	149.0	836.8
1521	246	1532	1	149.0	836.8
1521	555	1696	1	149.0	836.8
1521	1309	2123	1	111.0	461.16
1521	1309	2124	1	111.0	461.16
1521	1309	2125	1	111.0	461.16
1522	238	1530	1	149.0	836.8
1522	240	1527	1	149.0	836.8
1522	247	2035	1	149.0	836.8
1523	239	1532	1	149.0	836.8
1523	242	1529	1	149.0	836.8
1523	248	1530	1	149.0	836.8
1524	232	1554	1	149.0	836.8
1524	243	1530	1	149.0	836.8
1524	249	1528	1	149.0	836.8
1524	1168	2033	1	149.0	836.8
1525	233	1555	1	149.0	836.8
1525	235	1527	1	149.0	836.8
1525	244	1531	1	149.0	836.8
1525	250	1529	1	149.0	836.8
1526	234	1556	1	149.0	836.8
1526	236	1528	1	149.0	836.8
1526	245	1532	1	149.0	836.8
1526	1310	2126	1	111.0	461.16
1526	1310	2127	1	111.0	461.16
1526	1310	2128	1	111.0	461.16
1527	274	1538	1	149.0	836.8
1527	275	1546	1	149.0	836.8
1528	241	2025	1	149.0	836.8
1528	1255	2049	1	149.0	836.8
1529	237	1692	1	149.0	836.8
1529	277	1547	1	149.0	836.8
1531	261	1533	1	149.0	836.8
1531	561	1690	1	149.0	836.8
1533	252	1684	1	149.0	836.8
1533	269	1544	1	149.0	836.8
1533	578	1708	1	149.0	836.8
1534	260	1542	1	149.0	836.8
1534	263	1539	1	149.0	836.8
1534	270	2047	1	149.0	836.8
1535	262	1544	1	149.0	836.8
1535	265	1541	1	149.0	836.8
1535	271	1542	1	149.0	836.8
1536	254	1566	1	149.0	836.8
1536	266	1542	1	149.0	836.8
1536	272	1540	1	149.0	836.8
1536	1189	2045	1	149.0	836.8
1537	255	1567	1	149.0	836.8
1537	257	1539	1	149.0	836.8
1537	267	1543	1	149.0	836.8
1537	273	1541	1	149.0	836.8
1538	256	1568	1	149.0	836.8
1538	258	1540	1	149.0	836.8
1538	268	1544	1	149.0	836.8
1539	294	1558	1	149.0	836.8
1539	1311	2129	1	115.0	418.4
1540	264	2037	1	149.0	836.8
1540	1256	2061	1	149.0	836.8
1541	259	1704	1	149.0	836.8
1541	296	1559	1	149.0	836.8
1543	584	1702	1	149.0	836.8
1543	1312	2130	1	111.0	461.16
1543	1312	2131	1	111.0	461.16
1543	1312	2132	1	111.0	461.16
1545	276	1696	1	149.0	836.8
1545	289	1556	1	149.0	836.8
1545	598	1720	1	149.0	836.8
1545	1313	2133	1	111.0	461.16
1545	1313	2134	1	111.0	461.16
1545	1313	2135	1	111.0	461.16
1546	281	1554	1	149.0	836.8
1546	283	1551	1	149.0	836.8
1546	290	2059	1	149.0	836.8
1547	282	1556	1	149.0	836.8
1547	285	1553	1	149.0	836.8
1547	291	1554	1	149.0	836.8
1548	286	1554	1	149.0	836.8
1548	292	1552	1	149.0	836.8
1548	1209	2057	1	149.0	836.8
1549	278	1551	1	149.0	836.8
1549	287	1555	1	149.0	836.8
1549	293	1553	1	149.0	836.8
1550	279	1552	1	149.0	836.8
1550	288	1556	1	149.0	836.8
1550	1314	2136	1	115.0	418.4
1551	314	1562	1	149.0	836.8
1552	284	2049	1	149.0	836.8
1552	1243	1905	1	149.0	836.8
1553	280	1716	1	149.0	836.8
1555	301	1557	1	149.0	836.8
1555	604	1714	1	149.0	836.8
1557	295	1708	1	149.0	836.8
1557	309	1568	1	149.0	836.8
1557	618	1732	1	149.0	836.8
1558	300	1566	1	149.0	836.8
1558	303	1563	1	149.0	836.8
1558	310	2071	1	149.0	836.8
1559	302	1568	1	149.0	836.8
1559	305	1565	1	149.0	836.8
1559	311	1566	1	149.0	836.8
1560	306	1566	1	149.0	836.8
1560	312	1564	1	149.0	836.8
1560	1227	2069	1	149.0	836.8
1561	297	1563	1	149.0	836.8
1561	307	1567	1	149.0	836.8
1561	313	1565	1	149.0	836.8
1562	298	1564	1	149.0	836.8
1562	308	1568	1	149.0	836.8
1563	1315	2137	1	115.0	418.4
1564	304	2061	1	149.0	836.8
1564	1244	1917	1	149.0	836.8
1565	299	1728	1	149.0	836.8
1567	624	1726	1	149.0	836.8
1567	1316	2138	1	115.0	418.4
1569	316	1888	1	149.0	836.8
1569	331	1580	1	149.0	836.8
1569	640	1744	1	149.0	836.8
1569	1317	2139	1	111.0	461.16
1569	1317	2140	1	111.0	461.16
1569	1317	2141	1	111.0	461.16
1570	315	1719	1	149.0	836.8
1570	323	1578	1	149.0	836.8
1570	325	1575	1	149.0	836.8
1571	324	1580	1	149.0	836.8
1571	327	1577	1	149.0	836.8
1571	333	1578	1	149.0	836.8
1571	1259	1721	1	149.0	836.8
1572	317	1602	1	149.0	836.8
1572	328	1578	1	149.0	836.8
1572	334	1576	1	149.0	836.8
1573	318	1603	1	149.0	836.8
1573	320	1575	1	149.0	836.8
1573	329	1579	1	149.0	836.8
1573	335	1577	1	149.0	836.8
1574	319	1604	1	149.0	836.8
1574	321	1576	1	149.0	836.8
1574	330	1580	1	149.0	836.8
1574	1318	2142	1	111.0	461.16
1574	1318	2143	1	111.0	461.16
1574	1318	2144	1	111.0	461.16
1575	358	1586	1	149.0	836.8
1575	359	1594	1	149.0	836.8
1577	322	1740	1	149.0	836.8
1577	361	1595	1	149.0	836.8
1578	1271	1716	1	149.0	836.8
1579	345	1581	1	149.0	836.8
1579	646	1738	1	149.0	836.8
1579	1272	1717	1	149.0	836.8
1580	1273	1718	1	149.0	836.8
1581	337	1900	1	149.0	836.8
1581	353	1592	1	149.0	836.8
1581	662	1756	1	149.0	836.8
1582	336	1731	1	149.0	836.8
1582	344	1590	1	149.0	836.8
1582	347	1587	1	149.0	836.8
1583	346	1592	1	149.0	836.8
1583	349	1589	1	149.0	836.8
1583	355	1590	1	149.0	836.8
1583	1260	1733	1	149.0	836.8
1584	338	1614	1	149.0	836.8
1584	350	1590	1	149.0	836.8
1584	356	1588	1	149.0	836.8
1585	339	1615	1	149.0	836.8
1585	341	1587	1	149.0	836.8
1585	351	1591	1	149.0	836.8
1585	357	1589	1	149.0	836.8
1586	340	1616	1	149.0	836.8
1586	342	1588	1	149.0	836.8
1586	352	1592	1	149.0	836.8
1587	381	1606	1	149.0	836.8
1587	1319	2145	1	111.0	461.16
1587	1319	2146	1	111.0	461.16
1587	1319	2147	1	111.0	461.16
1589	343	1752	1	149.0	836.8
1589	383	1607	1	149.0	836.8
1590	1274	1728	1	149.0	836.8
1591	668	1750	1	149.0	836.8
1591	1275	1729	1	149.0	836.8
1591	1320	2148	1	111.0	461.16
1591	1320	2149	1	111.0	461.16
1591	1320	2150	1	111.0	461.16
1592	1276	1730	1	149.0	836.8
1593	360	1744	1	149.0	836.8
1593	376	1604	1	149.0	836.8
1593	685	1768	1	149.0	836.8
1593	1321	2151	1	111.0	461.16
1593	1321	2152	1	111.0	461.16
1593	1321	2153	1	111.0	461.16
1594	368	1602	1	149.0	836.8
1594	370	1599	1	149.0	836.8
1595	369	1604	1	149.0	836.8
1595	372	1601	1	149.0	836.8
1595	378	1602	1	149.0	836.8
1596	362	1626	1	149.0	836.8
1596	373	1602	1	149.0	836.8
1596	379	1600	1	149.0	836.8
1597	363	1627	1	149.0	836.8
1597	365	1599	1	149.0	836.8
1597	374	1603	1	149.0	836.8
1597	380	1601	1	149.0	836.8
1598	364	1628	1	149.0	836.8
1598	366	1600	1	149.0	836.8
1598	375	1604	1	149.0	836.8
1598	1322	2154	1	115.0	418.4
1599	404	1610	1	149.0	836.8
1599	405	1618	1	149.0	836.8
1601	367	1764	1	149.0	836.8
1601	407	1619	1	149.0	836.8
1603	391	1605	1	149.0	836.8
1603	691	1762	1	149.0	836.8
1605	382	1756	1	149.0	836.8
1605	399	1616	1	149.0	836.8
1605	708	1780	1	149.0	836.8
1606	390	1614	1	149.0	836.8
1606	393	1611	1	149.0	836.8
1607	392	1616	1	149.0	836.8
1607	395	1613	1	149.0	836.8
1607	401	1614	1	149.0	836.8
1608	384	1638	1	149.0	836.8
1608	396	1614	1	149.0	836.8
1608	402	1612	1	149.0	836.8
1609	385	1639	1	149.0	836.8
1609	387	1611	1	149.0	836.8
1609	397	1615	1	149.0	836.8
1609	403	1613	1	149.0	836.8
1610	386	1640	1	149.0	836.8
1610	388	1612	1	149.0	836.8
1610	398	1616	1	149.0	836.8
1611	427	1630	1	149.0	836.8
1611	1323	2155	1	111.0	461.16
1611	1323	2156	1	111.0	461.16
1611	1323	2157	1	111.0	461.16
1613	389	1776	1	149.0	836.8
1613	429	1631	1	149.0	836.8
1615	714	1774	1	149.0	836.8
1615	1324	2158	1	111.0	461.16
1615	1324	2159	1	111.0	461.16
1615	1324	2160	1	111.0	461.16
1617	406	1768	1	149.0	836.8
1617	422	1628	1	149.0	836.8
1617	731	1792	1	149.0	836.8
1617	1325	2161	1	115.0	418.4
1618	414	1626	1	149.0	836.8
1618	416	1623	1	149.0	836.8
1619	415	1628	1	149.0	836.8
1619	418	1625	1	149.0	836.8
1619	424	1626	1	149.0	836.8
1620	408	1650	1	149.0	836.8
1620	419	1626	1	149.0	836.8
1620	425	1624	1	149.0	836.8
1621	409	1651	1	149.0	836.8
1621	411	1623	1	149.0	836.8
1621	420	1627	1	149.0	836.8
1621	426	1625	1	149.0	836.8
1622	410	1652	1	149.0	836.8
1622	412	1624	1	149.0	836.8
1622	421	1628	1	149.0	836.8
1622	1326	2162	1	111.0	461.16
1622	1326	2163	1	111.0	461.16
1622	1326	2164	1	111.0	461.16
1623	450	1634	1	149.0	836.8
1623	451	1642	1	149.0	836.8
1625	413	1788	1	149.0	836.8
1625	453	1643	1	149.0	836.8
1627	437	1629	1	149.0	836.8
1627	737	1786	1	149.0	836.8
1629	428	1780	1	149.0	836.8
1629	445	1640	1	149.0	836.8
1629	754	1804	1	149.0	836.8
1630	436	1638	1	149.0	836.8
1630	439	1635	1	149.0	836.8
1631	438	1640	1	149.0	836.8
1631	441	1637	1	149.0	836.8
1631	447	1638	1	149.0	836.8
1632	430	1662	1	149.0	836.8
1632	442	1638	1	149.0	836.8
1632	448	1636	1	149.0	836.8
1633	431	1663	1	149.0	836.8
1633	433	1635	1	149.0	836.8
1633	443	1639	1	149.0	836.8
1633	449	1637	1	149.0	836.8
1634	432	1664	1	149.0	836.8
1634	434	1636	1	149.0	836.8
1634	444	1640	1	149.0	836.8
1635	473	1654	1	149.0	836.8
1635	1327	2165	1	115.0	418.4
1637	435	1800	1	149.0	836.8
1637	475	1655	1	149.0	836.8
1639	760	1798	1	149.0	836.8
1639	1328	2166	1	111.0	461.16
1639	1328	2167	1	111.0	461.16
1639	1328	2168	1	111.0	461.16
1641	452	1792	1	149.0	836.8
1641	468	1652	1	149.0	836.8
1641	777	1816	1	149.0	836.8
1641	1329	2169	1	111.0	461.16
1641	1329	2170	1	111.0	461.16
1641	1329	2171	1	111.0	461.16
1642	460	1650	1	149.0	836.8
1642	462	1647	1	149.0	836.8
1643	461	1652	1	149.0	836.8
1643	464	1649	1	149.0	836.8
1643	470	1650	1	149.0	836.8
1644	454	1674	1	149.0	836.8
1644	465	1650	1	149.0	836.8
1644	471	1648	1	149.0	836.8
1645	455	1675	1	149.0	836.8
1645	457	1647	1	149.0	836.8
1645	466	1651	1	149.0	836.8
1645	472	1649	1	149.0	836.8
1646	456	1676	1	149.0	836.8
1646	458	1648	1	149.0	836.8
1646	467	1652	1	149.0	836.8
1646	1330	2172	1	115.0	418.4
1647	496	1658	1	149.0	836.8
1647	497	1666	1	149.0	836.8
1649	459	1812	1	149.0	836.8
1649	499	1667	1	149.0	836.8
1651	483	1653	1	149.0	836.8
1651	783	1810	1	149.0	836.8
1653	474	1804	1	149.0	836.8
1653	491	1664	1	149.0	836.8
1653	800	1828	1	149.0	836.8
1654	482	1662	1	149.0	836.8
1654	485	1659	1	149.0	836.8
1655	484	1664	1	149.0	836.8
1655	487	1661	1	149.0	836.8
1655	493	1662	1	149.0	836.8
1656	476	1686	1	149.0	836.8
1656	488	1662	1	149.0	836.8
1656	494	1660	1	149.0	836.8
1657	477	1687	1	149.0	836.8
1657	479	1659	1	149.0	836.8
1657	489	1663	1	149.0	836.8
1657	495	1661	1	149.0	836.8
1658	478	1688	1	149.0	836.8
1658	480	1660	1	149.0	836.8
1658	490	1664	1	149.0	836.8
1659	519	1678	1	149.0	836.8
1659	1331	2173	1	115.0	418.4
1661	481	1824	1	149.0	836.8
1661	521	1679	1	149.0	836.8
1663	806	1822	1	149.0	836.8
1663	1332	2174	1	111.0	461.16
1663	1332	2175	1	111.0	461.16
1663	1332	2176	1	111.0	461.16
1665	498	1816	1	149.0	836.8
1665	514	1676	1	149.0	836.8
1665	823	1840	1	149.0	836.8
1665	1333	2177	1	115.0	418.4
1666	506	1674	1	149.0	836.8
1666	508	1671	1	149.0	836.8
1667	507	1676	1	149.0	836.8
1667	510	1673	1	149.0	836.8
1667	516	1674	1	149.0	836.8
1668	500	1698	1	149.0	836.8
1668	511	1674	1	149.0	836.8
1668	517	1672	1	149.0	836.8
1669	501	1699	1	149.0	836.8
1669	503	1671	1	149.0	836.8
1669	512	1675	1	149.0	836.8
1669	518	1673	1	149.0	836.8
1670	502	1700	1	149.0	836.8
1670	504	1672	1	149.0	836.8
1670	513	1676	1	149.0	836.8
1670	1334	2178	1	111.0	461.16
1670	1334	2179	1	111.0	461.16
1670	1334	2180	1	111.0	461.16
1671	542	1682	1	149.0	836.8
1671	543	1690	1	149.0	836.8
1673	505	1836	1	149.0	836.8
1673	545	1691	1	149.0	836.8
1675	529	1677	1	149.0	836.8
1675	829	1834	1	149.0	836.8
1677	520	1828	1	149.0	836.8
1677	537	1688	1	149.0	836.8
1677	846	1852	1	149.0	836.8
1678	528	1686	1	149.0	836.8
1678	531	1683	1	149.0	836.8
1679	530	1688	1	149.0	836.8
1679	533	1685	1	149.0	836.8
1679	539	1686	1	149.0	836.8
1680	522	1710	1	149.0	836.8
1680	534	1686	1	149.0	836.8
1680	540	1684	1	149.0	836.8
1681	523	1711	1	149.0	836.8
1681	525	1683	1	149.0	836.8
1681	535	1687	1	149.0	836.8
1681	541	1685	1	149.0	836.8
1682	524	1712	1	149.0	836.8
1682	526	1684	1	149.0	836.8
1682	536	1688	1	149.0	836.8
1683	565	1702	1	149.0	836.8
1683	1335	2181	1	111.0	461.16
1683	1335	2182	1	111.0	461.16
1683	1335	2183	1	111.0	461.16
1685	527	1848	1	149.0	836.8
1685	567	1703	1	149.0	836.8
1687	852	1846	1	149.0	836.8
1687	1336	2184	1	115.0	418.4
1689	544	1840	1	149.0	836.8
1689	560	1700	1	149.0	836.8
1689	869	1864	1	149.0	836.8
1689	1337	2185	1	111.0	461.16
1689	1337	2186	1	111.0	461.16
1689	1337	2187	1	111.0	461.16
1690	552	1698	1	149.0	836.8
1690	554	1695	1	149.0	836.8
1691	553	1700	1	149.0	836.8
1691	556	1697	1	149.0	836.8
1691	562	1698	1	149.0	836.8
1692	546	1722	1	149.0	836.8
1692	557	1698	1	149.0	836.8
1692	563	1696	1	149.0	836.8
1693	547	1723	1	149.0	836.8
1693	549	1695	1	149.0	836.8
1693	558	1699	1	149.0	836.8
1693	564	1697	1	149.0	836.8
1694	548	1724	1	149.0	836.8
1694	550	1696	1	149.0	836.8
1694	559	1700	1	149.0	836.8
1694	1338	2188	1	115.0	418.4
1695	588	1706	1	149.0	836.8
1695	589	1714	1	149.0	836.8
1697	551	1860	1	149.0	836.8
1697	591	1715	1	149.0	836.8
1699	575	1701	1	149.0	836.8
1699	875	1858	1	149.0	836.8
1701	566	1852	1	149.0	836.8
1701	583	1712	1	149.0	836.8
1701	892	1876	1	149.0	836.8
1702	574	1710	1	149.0	836.8
1702	577	1707	1	149.0	836.8
1703	576	1712	1	149.0	836.8
1703	579	1709	1	149.0	836.8
1703	585	1710	1	149.0	836.8
1704	568	1734	1	149.0	836.8
1704	580	1710	1	149.0	836.8
1704	586	1708	1	149.0	836.8
1705	569	1735	1	149.0	836.8
1705	571	1707	1	149.0	836.8
1705	581	1711	1	149.0	836.8
1705	587	1709	1	149.0	836.8
1706	570	1736	1	149.0	836.8
1706	572	1708	1	149.0	836.8
1706	582	1712	1	149.0	836.8
1707	608	1726	1	149.0	836.8
1707	1339	2189	1	111.0	461.16
1707	1339	2190	1	111.0	461.16
1707	1339	2191	1	111.0	461.16
1709	573	1872	1	149.0	836.8
1709	610	1727	1	149.0	836.8
1711	898	1870	1	149.0	836.8
1711	1340	2192	1	115.0	418.4
1713	590	1864	1	149.0	836.8
1713	603	1724	1	149.0	836.8
1713	912	1888	1	149.0	836.8
1713	1341	2193	1	111.0	461.16
1713	1341	2194	1	111.0	461.16
1713	1341	2195	1	111.0	461.16
1714	595	1722	1	149.0	836.8
1714	597	1719	1	149.0	836.8
1715	596	1724	1	149.0	836.8
1715	599	1721	1	149.0	836.8
1715	605	1722	1	149.0	836.8
1716	600	1722	1	149.0	836.8
1716	606	1720	1	149.0	836.8
1717	592	1719	1	149.0	836.8
1717	601	1723	1	149.0	836.8
1717	607	1721	1	149.0	836.8
1718	593	1720	1	149.0	836.8
1718	602	1724	1	149.0	836.8
1718	1342	2196	1	115.0	418.4
1719	628	1730	1	149.0	836.8
1721	594	1884	1	149.0	836.8
1723	615	1725	1	149.0	836.8
1723	918	1882	1	149.0	836.8
1725	609	1876	1	149.0	836.8
1725	623	1736	1	149.0	836.8
1725	932	1900	1	149.0	836.8
1726	614	1734	1	149.0	836.8
1726	617	1731	1	149.0	836.8
1727	616	1736	1	149.0	836.8
1727	619	1733	1	149.0	836.8
1727	625	1734	1	149.0	836.8
1728	620	1734	1	149.0	836.8
1728	626	1732	1	149.0	836.8
1729	611	1731	1	149.0	836.8
1729	621	1735	1	149.0	836.8
1729	627	1733	1	149.0	836.8
1730	612	1732	1	149.0	836.8
1730	622	1736	1	149.0	836.8
1731	1343	2197	1	111.0	461.16
1731	1343	2198	1	111.0	461.16
1731	1343	2199	1	111.0	461.16
1733	613	1896	1	149.0	836.8
1735	938	1894	1	149.0	836.8
1735	1344	2200	1	111.0	461.16
1735	1344	2201	1	111.0	461.16
1735	1344	2202	1	111.0	461.16
1737	630	2056	1	149.0	836.8
1737	645	1748	1	149.0	836.8
1737	953	1912	1	149.0	836.8
1737	1345	2203	1	111.0	461.16
1737	1345	2204	1	111.0	461.16
1737	1345	2205	1	111.0	461.16
1738	629	1887	1	149.0	836.8
1738	637	1746	1	149.0	836.8
1738	639	1743	1	149.0	836.8
1739	638	1748	1	149.0	836.8
1739	641	1745	1	149.0	836.8
1739	647	1746	1	149.0	836.8
1739	1261	1889	1	149.0	836.8
1740	631	1770	1	149.0	836.8
1740	642	1746	1	149.0	836.8
1740	648	1744	1	149.0	836.8
1741	632	1771	1	149.0	836.8
1741	634	1743	1	149.0	836.8
1741	643	1747	1	149.0	836.8
1741	649	1745	1	149.0	836.8
1742	633	1772	1	149.0	836.8
1742	635	1744	1	149.0	836.8
1742	644	1748	1	149.0	836.8
1742	1346	2206	1	111.0	461.16
1742	1346	2207	1	111.0	461.16
1742	1346	2208	1	111.0	461.16
1743	672	1754	1	149.0	836.8
1743	673	1762	1	149.0	836.8
1745	636	1908	1	149.0	836.8
1745	675	1763	1	149.0	836.8
1746	1277	1884	1	149.0	836.8
1747	659	1749	1	149.0	836.8
1747	959	1906	1	149.0	836.8
1747	1278	1885	1	149.0	836.8
1748	1279	1886	1	149.0	836.8
1749	651	2068	1	149.0	836.8
1749	667	1760	1	149.0	836.8
1749	974	1924	1	149.0	836.8
1750	650	1899	1	149.0	836.8
1750	658	1758	1	149.0	836.8
1750	661	1755	1	149.0	836.8
1751	660	1760	1	149.0	836.8
1751	663	1757	1	149.0	836.8
1751	669	1758	1	149.0	836.8
1751	1262	1901	1	149.0	836.8
1752	652	1782	1	149.0	836.8
1752	664	1758	1	149.0	836.8
1752	670	1756	1	149.0	836.8
1753	653	1783	1	149.0	836.8
1753	655	1755	1	149.0	836.8
1753	665	1759	1	149.0	836.8
1753	671	1757	1	149.0	836.8
1754	654	1784	1	149.0	836.8
1754	656	1756	1	149.0	836.8
1754	666	1760	1	149.0	836.8
1755	695	1774	1	149.0	836.8
1755	1347	2209	1	115.0	418.4
1757	657	1920	1	149.0	836.8
1757	697	1775	1	149.0	836.8
1758	1280	1896	1	149.0	836.8
1759	980	1918	1	149.0	836.8
1759	1281	1897	1	149.0	836.8
1759	1348	2210	1	111.0	461.16
1759	1348	2211	1	111.0	461.16
1759	1348	2212	1	111.0	461.16
1760	1282	1898	1	149.0	836.8
1761	674	1912	1	149.0	836.8
1761	690	1772	1	149.0	836.8
1761	996	1936	1	149.0	836.8
1761	1349	2213	1	111.0	461.16
1761	1349	2214	1	111.0	461.16
1761	1349	2215	1	111.0	461.16
1762	682	1770	1	149.0	836.8
1762	684	1767	1	149.0	836.8
1763	683	1772	1	149.0	836.8
1763	686	1769	1	149.0	836.8
1763	692	1770	1	149.0	836.8
1764	676	1794	1	149.0	836.8
1764	687	1770	1	149.0	836.8
1764	693	1768	1	149.0	836.8
1765	677	1795	1	149.0	836.8
1765	679	1767	1	149.0	836.8
1765	688	1771	1	149.0	836.8
1765	694	1769	1	149.0	836.8
1766	678	1796	1	149.0	836.8
1766	680	1768	1	149.0	836.8
1766	689	1772	1	149.0	836.8
1766	1350	2216	1	111.0	461.16
1766	1350	2217	1	111.0	461.16
1766	1350	2218	1	111.0	461.16
1767	718	1778	1	149.0	836.8
1767	719	1786	1	149.0	836.8
1769	681	1932	1	149.0	836.8
1769	721	1787	1	149.0	836.8
1771	705	1773	1	149.0	836.8
1771	1002	1930	1	149.0	836.8
1773	696	1924	1	149.0	836.8
1773	713	1784	1	149.0	836.8
1773	1018	1948	1	149.0	836.8
1774	704	1782	1	149.0	836.8
1774	707	1779	1	149.0	836.8
1775	706	1784	1	149.0	836.8
1775	709	1781	1	149.0	836.8
1775	715	1782	1	149.0	836.8
1776	698	1806	1	149.0	836.8
1776	710	1782	1	149.0	836.8
1776	716	1780	1	149.0	836.8
1777	699	1807	1	149.0	836.8
1777	701	1779	1	149.0	836.8
1777	711	1783	1	149.0	836.8
1777	717	1781	1	149.0	836.8
1778	700	1808	1	149.0	836.8
1778	702	1780	1	149.0	836.8
1778	712	1784	1	149.0	836.8
1779	741	1798	1	149.0	836.8
1779	1351	2219	1	115.0	418.4
1781	703	1944	1	149.0	836.8
1781	743	1799	1	149.0	836.8
1783	1024	1942	1	149.0	836.8
1783	1352	2220	1	115.0	418.4
1785	720	1936	1	149.0	836.8
1785	736	1796	1	149.0	836.8
1785	1040	1960	1	149.0	836.8
1785	1353	2221	1	111.0	461.16
1785	1353	2222	1	111.0	461.16
1785	1353	2223	1	111.0	461.16
1786	728	1794	1	149.0	836.8
1786	730	1791	1	149.0	836.8
1787	729	1796	1	149.0	836.8
1787	732	1793	1	149.0	836.8
1787	738	1794	1	149.0	836.8
1788	722	1818	1	149.0	836.8
1788	733	1794	1	149.0	836.8
1788	739	1792	1	149.0	836.8
1789	723	1819	1	149.0	836.8
1789	725	1791	1	149.0	836.8
1789	734	1795	1	149.0	836.8
1789	740	1793	1	149.0	836.8
1790	724	1820	1	149.0	836.8
1790	726	1792	1	149.0	836.8
1790	735	1796	1	149.0	836.8
1790	1354	2224	1	111.0	461.16
1790	1354	2225	1	111.0	461.16
1790	1354	2226	1	111.0	461.16
1791	764	1802	1	149.0	836.8
1791	765	1810	1	149.0	836.8
1793	727	1956	1	149.0	836.8
1793	767	1811	1	149.0	836.8
1795	751	1797	1	149.0	836.8
1795	1046	1954	1	149.0	836.8
1797	742	1948	1	149.0	836.8
1797	759	1808	1	149.0	836.8
1797	1062	1972	1	149.0	836.8
1798	750	1806	1	149.0	836.8
1798	753	1803	1	149.0	836.8
1799	752	1808	1	149.0	836.8
1799	755	1805	1	149.0	836.8
1799	761	1806	1	149.0	836.8
1800	744	1830	1	149.0	836.8
1800	756	1806	1	149.0	836.8
1800	762	1804	1	149.0	836.8
1801	745	1831	1	149.0	836.8
1801	747	1803	1	149.0	836.8
1801	757	1807	1	149.0	836.8
1801	763	1805	1	149.0	836.8
1802	746	1832	1	149.0	836.8
1802	748	1804	1	149.0	836.8
1802	758	1808	1	149.0	836.8
1803	787	1822	1	149.0	836.8
1803	1355	2227	1	111.0	461.16
1803	1355	2228	1	111.0	461.16
1803	1355	2229	1	111.0	461.16
1805	749	1968	1	149.0	836.8
1805	789	1823	1	149.0	836.8
1807	1068	1966	1	149.0	836.8
1807	1356	2230	1	115.0	418.4
1809	766	1960	1	149.0	836.8
1809	782	1820	1	149.0	836.8
1809	1084	1984	1	149.0	836.8
1809	1357	2231	1	111.0	461.16
1809	1357	2232	1	111.0	461.16
1809	1357	2233	1	111.0	461.16
1810	774	1818	1	149.0	836.8
1810	776	1815	1	149.0	836.8
1811	775	1820	1	149.0	836.8
1811	778	1817	1	149.0	836.8
1811	784	1818	1	149.0	836.8
1812	768	1842	1	149.0	836.8
1812	779	1818	1	149.0	836.8
1812	785	1816	1	149.0	836.8
1813	769	1843	1	149.0	836.8
1813	771	1815	1	149.0	836.8
1813	780	1819	1	149.0	836.8
1813	786	1817	1	149.0	836.8
1814	770	1844	1	149.0	836.8
1814	772	1816	1	149.0	836.8
1814	781	1820	1	149.0	836.8
1814	1358	2234	1	115.0	418.4
1815	810	1826	1	149.0	836.8
1815	811	1834	1	149.0	836.8
1817	773	1980	1	149.0	836.8
1817	813	1835	1	149.0	836.8
1819	797	1821	1	149.0	836.8
1819	1090	1978	1	149.0	836.8
1821	788	1972	1	149.0	836.8
1821	805	1832	1	149.0	836.8
1821	1106	1996	1	149.0	836.8
1822	796	1830	1	149.0	836.8
1822	799	1827	1	149.0	836.8
1823	798	1832	1	149.0	836.8
1823	801	1829	1	149.0	836.8
1823	807	1830	1	149.0	836.8
1824	790	1854	1	149.0	836.8
1824	802	1830	1	149.0	836.8
1824	808	1828	1	149.0	836.8
1825	791	1855	1	149.0	836.8
1825	793	1827	1	149.0	836.8
1825	803	1831	1	149.0	836.8
1825	809	1829	1	149.0	836.8
1826	792	1856	1	149.0	836.8
1826	794	1828	1	149.0	836.8
1826	804	1832	1	149.0	836.8
1827	833	1846	1	149.0	836.8
1827	1359	2235	1	111.0	461.16
1827	1359	2236	1	111.0	461.16
1827	1359	2237	1	111.0	461.16
1829	795	1992	1	149.0	836.8
1829	835	1847	1	149.0	836.8
1831	1112	1990	1	149.0	836.8
1831	1360	2238	1	111.0	461.16
1831	1360	2239	1	111.0	461.16
1831	1360	2240	1	111.0	461.16
1833	812	1984	1	149.0	836.8
1833	828	1844	1	149.0	836.8
1833	1128	2008	1	149.0	836.8
1833	1361	2241	1	115.0	418.4
1834	820	1842	1	149.0	836.8
1834	822	1839	1	149.0	836.8
1835	821	1844	1	149.0	836.8
1835	824	1841	1	149.0	836.8
1835	830	1842	1	149.0	836.8
1836	814	1866	1	149.0	836.8
1836	825	1842	1	149.0	836.8
1836	831	1840	1	149.0	836.8
1837	815	1867	1	149.0	836.8
1837	817	1839	1	149.0	836.8
1837	826	1843	1	149.0	836.8
1837	832	1841	1	149.0	836.8
1838	816	1868	1	149.0	836.8
1838	818	1840	1	149.0	836.8
1838	827	1844	1	149.0	836.8
1838	1362	2242	1	111.0	461.16
1838	1362	2243	1	111.0	461.16
1838	1362	2244	1	111.0	461.16
1839	856	1850	1	149.0	836.8
1839	857	1858	1	149.0	836.8
1841	819	2004	1	149.0	836.8
1841	859	1859	1	149.0	836.8
1843	843	1845	1	149.0	836.8
1843	1134	2002	1	149.0	836.8
1845	834	1996	1	149.0	836.8
1845	851	1856	1	149.0	836.8
1845	1150	2020	1	149.0	836.8
1846	842	1854	1	149.0	836.8
1846	845	1851	1	149.0	836.8
1847	844	1856	1	149.0	836.8
1847	847	1853	1	149.0	836.8
1847	853	1854	1	149.0	836.8
1848	836	1878	1	149.0	836.8
1848	848	1854	1	149.0	836.8
1848	854	1852	1	149.0	836.8
1849	837	1879	1	149.0	836.8
1849	839	1851	1	149.0	836.8
1849	849	1855	1	149.0	836.8
1849	855	1853	1	149.0	836.8
1850	838	1880	1	149.0	836.8
1850	840	1852	1	149.0	836.8
1850	850	1856	1	149.0	836.8
1851	879	1870	1	149.0	836.8
1851	1363	2245	1	111.0	461.16
1851	1363	2246	1	111.0	461.16
1851	1363	2247	1	111.0	461.16
1853	841	2016	1	149.0	836.8
1853	881	1871	1	149.0	836.8
1855	1156	2014	1	149.0	836.8
1855	1364	2248	1	111.0	461.16
1855	1364	2249	1	111.0	461.16
1855	1364	2250	1	111.0	461.16
1857	858	2008	1	149.0	836.8
1857	874	1868	1	149.0	836.8
1857	1172	2032	1	149.0	836.8
1857	1365	2251	1	115.0	418.4
1858	866	1866	1	149.0	836.8
1858	868	1863	1	149.0	836.8
1859	867	1868	1	149.0	836.8
1859	870	1865	1	149.0	836.8
1859	876	1866	1	149.0	836.8
1860	860	1890	1	149.0	836.8
1860	871	1866	1	149.0	836.8
1860	877	1864	1	149.0	836.8
1861	861	1891	1	149.0	836.8
1861	863	1863	1	149.0	836.8
1861	872	1867	1	149.0	836.8
1861	878	1865	1	149.0	836.8
1862	862	1892	1	149.0	836.8
1862	864	1864	1	149.0	836.8
1862	873	1868	1	149.0	836.8
1862	1366	2252	1	111.0	461.16
1862	1366	2253	1	111.0	461.16
1862	1366	2254	1	111.0	461.16
1863	902	1874	1	149.0	836.8
1863	903	1882	1	149.0	836.8
1865	865	2028	1	149.0	836.8
1865	905	1883	1	149.0	836.8
1867	889	1869	1	149.0	836.8
1867	1178	2026	1	149.0	836.8
1869	880	2020	1	149.0	836.8
1869	897	1880	1	149.0	836.8
1869	1194	2044	1	149.0	836.8
1870	888	1878	1	149.0	836.8
1870	891	1875	1	149.0	836.8
1871	890	1880	1	149.0	836.8
1871	893	1877	1	149.0	836.8
1871	899	1878	1	149.0	836.8
1872	882	1902	1	149.0	836.8
1872	894	1878	1	149.0	836.8
1872	900	1876	1	149.0	836.8
1873	883	1903	1	149.0	836.8
1873	885	1875	1	149.0	836.8
1873	895	1879	1	149.0	836.8
1873	901	1877	1	149.0	836.8
1874	884	1904	1	149.0	836.8
1874	886	1876	1	149.0	836.8
1874	896	1880	1	149.0	836.8
1875	922	1894	1	149.0	836.8
1875	1367	2255	1	111.0	461.16
1875	1367	2256	1	111.0	461.16
1875	1367	2257	1	111.0	461.16
1877	887	2040	1	149.0	836.8
1877	924	1895	1	149.0	836.8
1879	1200	2038	1	149.0	836.8
1879	1368	2258	1	115.0	418.4
1881	904	2032	1	149.0	836.8
1881	917	1892	1	149.0	836.8
1881	1213	2056	1	149.0	836.8
1881	1369	2259	1	111.0	461.16
1881	1369	2260	1	111.0	461.16
1881	1369	2261	1	111.0	461.16
1882	909	1890	1	149.0	836.8
1882	911	1887	1	149.0	836.8
1883	910	1892	1	149.0	836.8
1883	913	1889	1	149.0	836.8
1883	919	1890	1	149.0	836.8
1884	914	1890	1	149.0	836.8
1884	920	1888	1	149.0	836.8
1885	906	1887	1	149.0	836.8
1885	915	1891	1	149.0	836.8
1885	921	1889	1	149.0	836.8
1886	907	1888	1	149.0	836.8
1886	916	1892	1	149.0	836.8
1886	1370	2262	1	111.0	461.16
1886	1370	2263	1	111.0	461.16
1886	1370	2264	1	111.0	461.16
1887	942	1898	1	149.0	836.8
1889	908	2052	1	149.0	836.8
1891	929	1893	1	149.0	836.8
1891	1219	2050	1	149.0	836.8
1893	923	2044	1	149.0	836.8
1893	937	1904	1	149.0	836.8
1893	1232	2068	1	149.0	836.8
1894	928	1902	1	149.0	836.8
1894	931	1899	1	149.0	836.8
1895	930	1904	1	149.0	836.8
1895	933	1901	1	149.0	836.8
1895	939	1902	1	149.0	836.8
1896	934	1902	1	149.0	836.8
1896	940	1900	1	149.0	836.8
1897	925	1899	1	149.0	836.8
1897	935	1903	1	149.0	836.8
1897	941	1901	1	149.0	836.8
1898	926	1900	1	149.0	836.8
1898	936	1904	1	149.0	836.8
1899	1371	2265	1	115.0	418.4
1901	927	2064	1	149.0	836.8
1903	1238	2062	1	149.0	836.8
1903	1372	2266	1	111.0	461.16
1903	1372	2267	1	111.0	461.16
1903	1372	2268	1	111.0	461.16
1905	958	1916	1	149.0	836.8
1905	1373	2269	1	115.0	418.4
1906	943	2055	1	149.0	836.8
1906	950	1914	1	149.0	836.8
1906	952	1911	1	149.0	836.8
1907	951	1916	1	149.0	836.8
1907	954	1913	1	149.0	836.8
1907	960	1914	1	149.0	836.8
1907	1263	2057	1	149.0	836.8
1908	944	1938	1	149.0	836.8
1908	955	1914	1	149.0	836.8
1908	961	1912	1	149.0	836.8
1909	945	1939	1	149.0	836.8
1909	947	1911	1	149.0	836.8
1909	956	1915	1	149.0	836.8
1909	962	1913	1	149.0	836.8
1910	946	1940	1	149.0	836.8
1910	948	1912	1	149.0	836.8
1910	957	1916	1	149.0	836.8
1910	1374	2270	1	111.0	461.16
1910	1374	2271	1	111.0	461.16
1910	1374	2272	1	111.0	461.16
1911	984	1922	1	149.0	836.8
1911	985	1930	1	149.0	836.8
1913	986	1931	1	149.0	836.8
1914	1283	2052	1	149.0	836.8
1915	971	1917	1	149.0	836.8
1915	1284	2053	1	149.0	836.8
1916	1285	2054	1	149.0	836.8
1917	979	1928	1	149.0	836.8
1918	963	2067	1	149.0	836.8
1918	970	1926	1	149.0	836.8
1918	973	1923	1	149.0	836.8
1919	972	1928	1	149.0	836.8
1919	975	1925	1	149.0	836.8
1919	981	1926	1	149.0	836.8
1919	1264	2069	1	149.0	836.8
1920	964	1950	1	149.0	836.8
1920	976	1926	1	149.0	836.8
1920	982	1924	1	149.0	836.8
1921	965	1951	1	149.0	836.8
1921	967	1923	1	149.0	836.8
1921	977	1927	1	149.0	836.8
1921	983	1925	1	149.0	836.8
1922	966	1952	1	149.0	836.8
1922	968	1924	1	149.0	836.8
1922	978	1928	1	149.0	836.8
1923	1006	1942	1	149.0	836.8
1923	1375	2273	1	111.0	461.16
1923	1375	2274	1	111.0	461.16
1923	1375	2275	1	111.0	461.16
1925	1007	1943	1	149.0	836.8
1926	1286	2064	1	149.0	836.8
1927	1287	2065	1	149.0	836.8
1927	1376	2276	1	115.0	418.4
1928	1288	2066	1	149.0	836.8
1929	1001	1940	1	149.0	836.8
1929	1377	2277	1	111.0	461.16
1929	1377	2278	1	111.0	461.16
1929	1377	2279	1	111.0	461.16
1930	993	1938	1	149.0	836.8
1930	995	1935	1	149.0	836.8
1931	994	1940	1	149.0	836.8
1931	997	1937	1	149.0	836.8
1931	1003	1938	1	149.0	836.8
1932	987	1962	1	149.0	836.8
1932	998	1938	1	149.0	836.8
1932	1004	1936	1	149.0	836.8
1933	988	1963	1	149.0	836.8
1933	990	1935	1	149.0	836.8
1933	999	1939	1	149.0	836.8
1933	1005	1937	1	149.0	836.8
1934	989	1964	1	149.0	836.8
1934	991	1936	1	149.0	836.8
1934	1000	1940	1	149.0	836.8
1934	1378	2280	1	115.0	418.4
1935	1028	1946	1	149.0	836.8
1935	1029	1954	1	149.0	836.8
1937	1030	1955	1	149.0	836.8
1939	1015	1941	1	149.0	836.8
1941	1023	1952	1	149.0	836.8
1942	1014	1950	1	149.0	836.8
1942	1017	1947	1	149.0	836.8
1943	1016	1952	1	149.0	836.8
1943	1019	1949	1	149.0	836.8
1943	1025	1950	1	149.0	836.8
1944	1008	1974	1	149.0	836.8
1944	1020	1950	1	149.0	836.8
1944	1026	1948	1	149.0	836.8
1945	1009	1975	1	149.0	836.8
1945	1011	1947	1	149.0	836.8
1945	1021	1951	1	149.0	836.8
1945	1027	1949	1	149.0	836.8
1946	1010	1976	1	149.0	836.8
1946	1012	1948	1	149.0	836.8
1946	1022	1952	1	149.0	836.8
1947	1050	1966	1	149.0	836.8
1947	1379	2281	1	111.0	461.16
1947	1379	2282	1	111.0	461.16
1947	1379	2283	1	111.0	461.16
1949	1051	1967	1	149.0	836.8
1951	1380	2284	1	111.0	461.16
1951	1380	2285	1	111.0	461.16
1951	1380	2286	1	111.0	461.16
1953	1045	1964	1	149.0	836.8
1953	1381	2287	1	115.0	418.4
1954	1037	1962	1	149.0	836.8
1954	1039	1959	1	149.0	836.8
1955	1038	1964	1	149.0	836.8
1955	1041	1961	1	149.0	836.8
1955	1047	1962	1	149.0	836.8
1956	1031	1986	1	149.0	836.8
1956	1042	1962	1	149.0	836.8
1956	1048	1960	1	149.0	836.8
1957	1032	1987	1	149.0	836.8
1957	1034	1959	1	149.0	836.8
1957	1043	1963	1	149.0	836.8
1957	1049	1961	1	149.0	836.8
1958	1033	1988	1	149.0	836.8
1958	1035	1960	1	149.0	836.8
1958	1044	1964	1	149.0	836.8
1958	1382	2288	1	115.0	418.4
1959	1072	1970	1	149.0	836.8
1959	1073	1978	1	149.0	836.8
1961	1074	1979	1	149.0	836.8
1963	1059	1965	1	149.0	836.8
1965	1067	1976	1	149.0	836.8
1966	1058	1974	1	149.0	836.8
1966	1061	1971	1	149.0	836.8
1967	1060	1976	1	149.0	836.8
1967	1063	1973	1	149.0	836.8
1967	1069	1974	1	149.0	836.8
1968	1052	1998	1	149.0	836.8
1968	1064	1974	1	149.0	836.8
1968	1070	1972	1	149.0	836.8
1969	1053	1999	1	149.0	836.8
1969	1055	1971	1	149.0	836.8
1969	1065	1975	1	149.0	836.8
1969	1071	1973	1	149.0	836.8
1970	1054	2000	1	149.0	836.8
1970	1056	1972	1	149.0	836.8
1970	1066	1976	1	149.0	836.8
1971	1094	1990	1	149.0	836.8
1971	1383	2289	1	111.0	461.16
1971	1383	2290	1	111.0	461.16
1971	1383	2291	1	111.0	461.16
1973	1095	1991	1	149.0	836.8
1975	1384	2292	1	111.0	461.16
1975	1384	2293	1	111.0	461.16
1975	1384	2294	1	111.0	461.16
1977	1089	1988	1	149.0	836.8
1977	1385	2295	1	111.0	461.16
1977	1385	2296	1	111.0	461.16
1977	1385	2297	1	111.0	461.16
1978	1081	1986	1	149.0	836.8
1978	1083	1983	1	149.0	836.8
1979	1082	1988	1	149.0	836.8
1979	1085	1985	1	149.0	836.8
1979	1091	1986	1	149.0	836.8
1980	1075	2010	1	149.0	836.8
1980	1086	1986	1	149.0	836.8
1980	1092	1984	1	149.0	836.8
1981	1076	2011	1	149.0	836.8
1981	1078	1983	1	149.0	836.8
1981	1087	1987	1	149.0	836.8
1981	1093	1985	1	149.0	836.8
1982	1077	2012	1	149.0	836.8
1982	1079	1984	1	149.0	836.8
1982	1088	1988	1	149.0	836.8
1982	1386	2298	1	111.0	461.16
1982	1386	2299	1	111.0	461.16
1982	1386	2300	1	111.0	461.16
1983	1116	1994	1	149.0	836.8
1983	1117	2002	1	149.0	836.8
1985	1118	2003	1	149.0	836.8
1987	1103	1989	1	149.0	836.8
1989	1111	2000	1	149.0	836.8
1990	1102	1998	1	149.0	836.8
1990	1105	1995	1	149.0	836.8
1991	1104	2000	1	149.0	836.8
1991	1107	1997	1	149.0	836.8
1991	1113	1998	1	149.0	836.8
1992	1096	2022	1	149.0	836.8
1992	1108	1998	1	149.0	836.8
1992	1114	1996	1	149.0	836.8
1993	1097	2023	1	149.0	836.8
1993	1099	1995	1	149.0	836.8
1993	1109	1999	1	149.0	836.8
1993	1115	1997	1	149.0	836.8
1994	1098	2024	1	149.0	836.8
1994	1100	1996	1	149.0	836.8
1994	1110	2000	1	149.0	836.8
1995	1138	2014	1	149.0	836.8
1995	1387	2301	1	111.0	461.16
1995	1387	2302	1	111.0	461.16
1995	1387	2303	1	111.0	461.16
1997	1139	2015	1	149.0	836.8
1999	1388	2304	1	111.0	461.16
1999	1388	2305	1	111.0	461.16
1999	1388	2306	1	111.0	461.16
2001	1133	2012	1	149.0	836.8
2001	1389	2307	1	111.0	461.16
2001	1389	2308	1	111.0	461.16
2001	1389	2309	1	111.0	461.16
2002	1125	2010	1	149.0	836.8
2002	1127	2007	1	149.0	836.8
2003	1126	2012	1	149.0	836.8
2003	1129	2009	1	149.0	836.8
2003	1135	2010	1	149.0	836.8
2004	1119	2034	1	149.0	836.8
2004	1130	2010	1	149.0	836.8
2004	1136	2008	1	149.0	836.8
2005	1120	2035	1	149.0	836.8
2005	1122	2007	1	149.0	836.8
2005	1131	2011	1	149.0	836.8
2005	1137	2009	1	149.0	836.8
2006	1121	2036	1	149.0	836.8
2006	1123	2008	1	149.0	836.8
2006	1132	2012	1	149.0	836.8
2006	1390	2310	1	111.0	461.16
2006	1390	2311	1	111.0	461.16
2006	1390	2312	1	111.0	461.16
2007	1160	2018	1	149.0	836.8
2007	1161	2026	1	149.0	836.8
2009	1162	2027	1	149.0	836.8
2011	1147	2013	1	149.0	836.8
2013	1155	2024	1	149.0	836.8
2014	1146	2022	1	149.0	836.8
2014	1149	2019	1	149.0	836.8
2015	1148	2024	1	149.0	836.8
2015	1151	2021	1	149.0	836.8
2015	1157	2022	1	149.0	836.8
2016	1140	2046	1	149.0	836.8
2016	1152	2022	1	149.0	836.8
2016	1158	2020	1	149.0	836.8
2017	1141	2047	1	149.0	836.8
2017	1143	2019	1	149.0	836.8
2017	1153	2023	1	149.0	836.8
2017	1159	2021	1	149.0	836.8
2018	1142	2048	1	149.0	836.8
2018	1144	2020	1	149.0	836.8
2018	1154	2024	1	149.0	836.8
2019	1182	2038	1	149.0	836.8
2019	1391	2313	1	111.0	461.16
2019	1391	2314	1	111.0	461.16
2019	1391	2315	1	111.0	461.16
2021	1183	2039	1	149.0	836.8
2023	1392	2316	1	111.0	461.16
2023	1392	2317	1	111.0	461.16
2023	1392	2318	1	111.0	461.16
2025	1177	2036	1	149.0	836.8
2025	1393	2319	1	111.0	461.16
2025	1393	2320	1	111.0	461.16
2025	1393	2321	1	111.0	461.16
2026	1169	2034	1	149.0	836.8
2026	1171	2031	1	149.0	836.8
2027	1170	2036	1	149.0	836.8
2027	1173	2033	1	149.0	836.8
2027	1179	2034	1	149.0	836.8
2028	1163	2058	1	149.0	836.8
2028	1174	2034	1	149.0	836.8
2028	1180	2032	1	149.0	836.8
2029	1164	2059	1	149.0	836.8
2029	1166	2031	1	149.0	836.8
2029	1175	2035	1	149.0	836.8
2029	1181	2033	1	149.0	836.8
2030	1165	2060	1	149.0	836.8
2030	1167	2032	1	149.0	836.8
2030	1176	2036	1	149.0	836.8
2030	1394	2322	1	111.0	461.16
2030	1394	2323	1	111.0	461.16
2030	1394	2324	1	111.0	461.16
2031	1204	2042	1	149.0	836.8
2031	1205	2050	1	149.0	836.8
2033	1206	2051	1	149.0	836.8
2035	1191	2037	1	149.0	836.8
2037	1199	2048	1	149.0	836.8
2038	1190	2046	1	149.0	836.8
2038	1193	2043	1	149.0	836.8
2039	1192	2048	1	149.0	836.8
2039	1195	2045	1	149.0	836.8
2039	1201	2046	1	149.0	836.8
2040	1184	2070	1	149.0	836.8
2040	1196	2046	1	149.0	836.8
2040	1202	2044	1	149.0	836.8
2041	1185	2071	1	149.0	836.8
2041	1187	2043	1	149.0	836.8
2041	1197	2047	1	149.0	836.8
2041	1203	2045	1	149.0	836.8
2042	1186	2072	1	149.0	836.8
2042	1188	2044	1	149.0	836.8
2042	1198	2048	1	149.0	836.8
2043	1223	2062	1	149.0	836.8
2043	1395	2325	1	111.0	461.16
2043	1395	2326	1	111.0	461.16
2043	1395	2327	1	111.0	461.16
2045	1224	2063	1	149.0	836.8
2047	1396	2328	1	111.0	461.16
2047	1396	2329	1	111.0	461.16
2047	1396	2330	1	111.0	461.16
2049	1218	2060	1	149.0	836.8
2049	1397	2331	1	111.0	461.16
2049	1397	2332	1	111.0	461.16
2049	1397	2333	1	111.0	461.16
2050	1210	2058	1	149.0	836.8
2050	1212	2055	1	149.0	836.8
2051	1211	2060	1	149.0	836.8
2051	1214	2057	1	149.0	836.8
2051	1220	2058	1	149.0	836.8
2052	1215	2058	1	149.0	836.8
2052	1221	2056	1	149.0	836.8
2053	1207	2055	1	149.0	836.8
2053	1216	2059	1	149.0	836.8
2053	1222	2057	1	149.0	836.8
2054	1208	2056	1	149.0	836.8
2054	1217	2060	1	149.0	836.8
2054	1398	2334	1	115.0	418.4
2055	1242	2066	1	149.0	836.8
2059	1229	2061	1	149.0	836.8
2061	1237	2072	1	149.0	836.8
2062	1228	2070	1	149.0	836.8
2062	1231	2067	1	149.0	836.8
2063	1230	2072	1	149.0	836.8
2063	1233	2069	1	149.0	836.8
2063	1239	2070	1	149.0	836.8
2064	1234	2070	1	149.0	836.8
2064	1240	2068	1	149.0	836.8
2065	1225	2067	1	149.0	836.8
2065	1235	2071	1	149.0	836.8
2065	1241	2069	1	149.0	836.8
2066	1226	2068	1	149.0	836.8
2066	1236	2072	1	149.0	836.8
2067	1399	2335	1	111.0	461.16
2067	1399	2336	1	111.0	461.16
2067	1399	2337	1	111.0	461.16
2071	1400	2338	1	111.0	461.16
2071	1400	2339	1	111.0	461.16
2071	1400	2340	1	111.0	461.16
2074	1290	2075	1	108.0	419.83
2074	1290	2076	1	108.0	419.83
2075	1290	2076	1	108.0	419.83
2077	1291	2078	1	108.0	419.83
2077	1291	2079	1	108.0	419.83
2078	1291	2079	1	108.0	419.83
2080	1292	2081	1	108.0	419.83
2080	1292	2082	1	108.0	419.83
2081	1292	2082	1	108.0	419.83
2083	1293	2084	1	108.0	419.83
2083	1293	2085	1	108.0	419.83
2084	1293	2085	1	108.0	419.83
2088	1296	2089	1	108.0	419.83
2088	1296	2090	1	108.0	419.83
2089	1296	2090	1	108.0	419.83
2091	1297	2092	1	108.0	419.83
2091	1297	2093	1	108.0	419.83
2092	1297	2093	1	108.0	419.83
2094	1298	2095	1	108.0	419.83
2094	1298	2096	1	108.0	419.83
2095	1298	2096	1	108.0	419.83
2097	1299	2098	1	108.0	419.83
2097	1299	2099	1	108.0	419.83
2098	1299	2099	1	108.0	419.83
2100	1300	2101	1	108.0	419.83
2100	1300	2102	1	108.0	419.83
2101	1300	2102	1	108.0	419.83
2103	1301	2104	1	108.0	419.83
2103	1301	2105	1	108.0	419.83
2104	1301	2105	1	108.0	419.83
2107	1303	2108	1	108.0	419.83
2107	1303	2109	1	108.0	419.83
2108	1303	2109	1	108.0	419.83
2110	1304	2111	1	108.0	419.83
2110	1304	2112	1	108.0	419.83
2111	1304	2112	1	108.0	419.83
2113	1305	2114	1	108.0	419.83
2113	1305	2115	1	108.0	419.83
2114	1305	2115	1	108.0	419.83
2116	1306	2117	1	108.0	419.83
2116	1306	2118	1	108.0	419.83
2117	1306	2118	1	108.0	419.83
2119	1307	2120	1	108.0	419.83
2119	1307	2121	1	108.0	419.83
2120	1307	2121	1	108.0	419.83
2123	1309	2124	1	108.0	419.83
2123	1309	2125	1	108.0	419.83
2124	1309	2125	1	108.0	419.83
2126	1310	2127	1	108.0	419.83
2126	1310	2128	1	108.0	419.83
2127	1310	2128	1	108.0	419.83
2130	1312	2131	1	108.0	419.83
2130	1312	2132	1	108.0	419.83
2131	1312	2132	1	108.0	419.83
2133	1313	2134	1	108.0	419.83
2133	1313	2135	1	108.0	419.83
2134	1313	2135	1	108.0	419.83
2139	1317	2140	1	108.0	419.83
2139	1317	2141	1	108.0	419.83
2140	1317	2141	1	108.0	419.83
2142	1318	2143	1	108.0	419.83
2142	1318	2144	1	108.0	419.83
2143	1318	2144	1	108.0	419.83
2145	1319	2146	1	108.0	419.83
2145	1319	2147	1	108.0	419.83
2146	1319	2147	1	108.0	419.83
2148	1320	2149	1	108.0	419.83
2148	1320	2150	1	108.0	419.83
2149	1320	2150	1	108.0	419.83
2151	1321	2152	1	108.0	419.83
2151	1321	2153	1	108.0	419.83
2152	1321	2153	1	108.0	419.83
2155	1323	2156	1	108.0	419.83
2155	1323	2157	1	108.0	419.83
2156	1323	2157	1	108.0	419.83
2158	1324	2159	1	108.0	419.83
2158	1324	2160	1	108.0	419.83
2159	1324	2160	1	108.0	419.83
2162	1326	2163	1	108.0	419.83
2162	1326	2164	1	108.0	419.83
2163	1326	2164	1	108.0	419.83
2166	1328	2167	1	108.0	419.83
2166	1328	2168	1	108.0	419.83
2167	1328	2168	1	108.0	419.83
2169	1329	2170	1	108.0	419.83
2169	1329	2171	1	108.0	419.83
2170	1329	2171	1	108.0	419.83
2174	1332	2175	1	108.0	419.83
2174	1332	2176	1	108.0	419.83
2175	1332	2176	1	108.0	419.83
2178	1334	2179	1	108.0	419.83
2178	1334	2180	1	108.0	419.83
2179	1334	2180	1	108.0	419.83
2181	1335	2182	1	108.0	419.83
2181	1335	2183	1	108.0	419.83
2182	1335	2183	1	108.0	419.83
2185	1337	2186	1	108.0	419.83
2185	1337	2187	1	108.0	419.83
2186	1337	2187	1	108.0	419.83
2189	1339	2190	1	108.0	419.83
2189	1339	2191	1	108.0	419.83
2190	1339	2191	1	108.0	419.83
2193	1341	2194	1	108.0	419.83
2193	1341	2195	1	108.0	419.83
2194	1341	2195	1	108.0	419.83
2197	1343	2198	1	108.0	419.83
2197	1343	2199	1	108.0	419.83
2198	1343	2199	1	108.0	419.83
2200	1344	2201	1	108.0	419.83
2200	1344	2202	1	108.0	419.83
2201	1344	2202	1	108.0	419.83
2203	1345	2204	1	108.0	419.83
2203	1345	2205	1	108.0	419.83
2204	1345	2205	1	108.0	419.83
2206	1346	2207	1	108.0	419.83
2206	1346	2208	1	108.0	419.83
2207	1346	2208	1	108.0	419.83
2210	1348	2211	1	108.0	419.83
2210	1348	2212	1	108.0	419.83
2211	1348	2212	1	108.0	419.83
2213	1349	2214	1	108.0	419.83
2213	1349	2215	1	108.0	419.83
2214	1349	2215	1	108.0	419.83
2216	1350	2217	1	108.0	419.83
2216	1350	2218	1	108.0	419.83
2217	1350	2218	1	108.0	419.83
2221	1353	2222	1	108.0	419.83
2221	1353	2223	1	108.0	419.83
2222	1353	2223	1	108.0	419.83
2224	1354	2225	1	108.0	419.83
2224	1354	2226	1	108.0	419.83
2225	1354	2226	1	108.0	419.83
2227	1355	2228	1	108.0	419.83
2227	1355	2229	1	108.0	419.83
2228	1355	2229	1	108.0	419.83
2231	1357	2232	1	108.0	419.83
2231	1357	2233	1	108.0	419.83
2232	1357	2233	1	108.0	419.83
2235	1359	2236	1	108.0	419.83
2235	1359	2237	1	108.0	419.83
2236	1359	2237	1	108.0	419.83
2238	1360	2239	1	108.0	419.83
2238	1360	2240	1	108.0	419.83
2239	1360	2240	1	108.0	419.83
2242	1362	2243	1	108.0	419.83
2242	1362	2244	1	108.0	419.83
2243	1362	2244	1	108.0	419.83
2245	1363	2246	1	108.0	419.83
2245	1363	2247	1	108.0	419.83
2246	1363	2247	1	108.0	419.83
2248	1364	2249	1	108.0	419.83
2248	1364	2250	1	108.0	419.83
2249	1364	2250	1	108.0	419.83
2252	1366	2253	1	108.0	419.83
2252	1366	2254	1	108.0	419.83
2253	1366	2254	1	108.0	419.83
2255	1367	2256	1	108.0	419.83
2255	1367	2257	1	108.0	419.83
2256	1367	2257	1	108.0	419.83
2259	1369	2260	1	108.0	419.83
2259	1369	2261	1	108.0	419.83
2260	1369	2261	1	108.0	419.83
2262	1370	2263	1	108.0	419.83
2262	1370	2264	1	108.0	419.83
2263	1370	2264	1	108.0	419.83
2266	1372	2267	1	108.0	419.83
2266	1372	2268	1	108.0	419.83
2267	1372	2268	1	108.0	419.83
2270	1374	2271	1	108.0	419.83
2270	1374	2272	1	108.0	419.83
2271	1374	2272	1	108.0	419.83
2273	1375	2274	1	108.0	419.83
2273	1375	2275	1	108.0	419.83
2274	1375	2275	1	108.0	419.83
2277	1377	2278	1	108.0	419.83
2277	1377	2279	1	108.0	419.83
2278	1377	2279	1	108.0	419.83
2281	1379	2282	1	108.0	419.83
2281	1379	2283	1	108.0	419.83
2282	1379	2283	1	108.0	419.83
2284	1380	2285	1	108.0	419.83
2284	1380	2286	1	108.0	419.83
2285	1380	2286	1	108.0	419.83
2289	1383	2290	1	108.0	419.83
2289	1383	2291	1	108.0	419.83
2290	1383	2291	1	108.0	419.83
2292	1384	2293	1	108.0	419.83
2292	1384	2294	1	108.0	419.83
2293	1384	2294	1	108.0	419.83
2295	1385	2296	1	108.0	419.83
2295	1385	2297	1	108.0	419.83
2296	1385	2297	1	108.0	419.83
2298	1386	2299	1	108.0	419.83
2298	1386	2300	1	108.0	419.83
2299	1386	2300	1	108.0	419.83
2301	1387	2302	1	108.0	419.83
2301	1387	2303	1	108.0	419.83
2302	1387	2303	1	108.0	419.83
2304	1388	2305	1	108.0	419.83
2304	1388	2306	1	108.0	419.83
2305	1388	2306	1	108.0	419.83
2307	1389	2308	1	108.0	419.83
2307	1389	2309	1	108.0	419.83
2308	1389	2309	1	108.0	419.83
2310	1390	2311	1	108.0	419.83
2310	1390	2312	1	108.0	419.83
2311	1390	2312	1	108.0	419.83
2313	1391	2314	1	108.0	419.83
2313	1391	2315	1	108.0	419.83
2314	1391	2315	1	108.0	419.83
2316	1392	2317	1	108.0	419.83
2316	1392	2318	1	108.0	419.83
2317	1392	2318	1	108.0	419.83
2319	1393	2320	1	108.0	419.83
2319	1393	2321	1	108.0	419.83
2320	1393	2321	1	108.0	419.83
2322	1394	2323	1	108.0	419.83
2322	1394	2324	1	108.0	419.83
2323	1394	2324	1	108.0	419.83
2325	1395	2326	1	108.0	419.83
2325	1395	2327	1	108.0	419.83
2326	1395	2327	1	108.0	419.83
2328	1396	2329	1	108.0	419.83
2328	1396	2330	1	108.0	419.83
2329	1396	2330	1	108.0	419.83
2331	1397	2332	1	108.0	419.83
2331	1397	2333	1	108.0	419.83
2332	1397	2333	1	108.0	419.83
2335	1399	2336	1	108.0	419.83
2335	1399	2337	1	108.0	419.83
2336	1399	2337	1	108.0	419.83
2338	1400	2339	1	108.0	419.83
2338	1400	2340	1	108.0	419.83
2339	1400	2340	1	108.0	419.83
