[ moleculetype ]
; Name   nrexcl
Sil     2

[ atoms ]
;  nr  type  resnr  resid  atom  cgnr  charge    mass
1	Ob	1	Sil	Ob	1	-0.550000011920929	15.999
2	Ob	1	Sil	Ob	2	-0.550000011920929	15.999
3	Ob	1	Sil	Ob	3	-0.550000011920929	15.999
4	Ob	1	Sil	Ob	4	-0.550000011920929	15.999
5	Ob	1	Sil	Ob	5	-0.550000011920929	15.999
6	Ob	1	Sil	Ob	6	-0.550000011920929	15.999
7	Ob	1	Sil	Ob	7	-0.550000011920929	15.999
8	Ob	1	Sil	Ob	8	-0.550000011920929	15.999
9	Ob	1	Sil	Ob	9	-0.550000011920929	15.999
10	Ob	1	Sil	Ob	10	-0.550000011920929	15.999
11	Ob	1	Sil	Ob	11	-0.550000011920929	15.999
12	Ob	1	Sil	Ob	12	-0.550000011920929	15.999
13	Ob	1	Sil	Ob	13	-0.550000011920929	15.999
14	Ob	1	Sil	Ob	14	-0.550000011920929	15.999
15	Ob	1	Sil	Ob	15	-0.550000011920929	15.999
16	Ob	1	Sil	Ob	16	-0.550000011920929	15.999
17	Ob	1	Sil	Ob	17	-0.550000011920929	15.999
18	Ob	1	Sil	Ob	18	-0.550000011920929	15.999
19	Ob	1	Sil	Ob	19	-0.550000011920929	15.999
20	Ob	1	Sil	Ob	20	-0.550000011920929	15.999
21	Ob	1	Sil	Ob	21	-0.550000011920929	15.999
22	Ob	1	Sil	Ob	22	-0.550000011920929	15.999
23	Ob	1	Sil	Ob	23	-0.550000011920929	15.999
24	Ob	1	Sil	Ob	24	-0.550000011920929	15.999
25	Ob	1	Sil	Ob	25	-0.550000011920929	15.999
26	Ob	1	Sil	Ob	26	-0.550000011920929	15.999
27	Ob	1	Sil	Ob	27	-0.550000011920929	15.999
28	Ob	1	Sil	Ob	28	-0.550000011920929	15.999
29	Ob	1	Sil	Ob	29	-0.550000011920929	15.999
30	Ob	1	Sil	Ob	30	-0.550000011920929	15.999
31	Ob	1	Sil	Ob	31	-0.550000011920929	15.999
32	Ob	1	Sil	Ob	32	-0.550000011920929	15.999
33	Ob	1	Sil	Ob	33	-0.550000011920929	15.999
34	Ob	1	Sil	Ob	34	-0.550000011920929	15.999
35	Ob	1	Sil	Ob	35	-0.550000011920929	15.999
36	Ob	1	Sil	Ob	36	-0.550000011920929	15.999
37	Ob	1	Sil	Ob	37	-0.550000011920929	15.999
38	Ob	1	Sil	Ob	38	-0.550000011920929	15.999
39	Ob	1	Sil	Ob	39	-0.550000011920929	15.999
40	Ob	1	Sil	Ob	40	-0.550000011920929	15.999
41	Ob	1	Sil	Ob	41	-0.550000011920929	15.999
42	Ob	1	Sil	Ob	42	-0.550000011920929	15.999
43	Ob	1	Sil	Ob	43	-0.550000011920929	15.999
44	Ob	1	Sil	Ob	44	-0.550000011920929	15.999
45	Ob	1	Sil	Ob	45	-0.550000011920929	15.999
46	Ob	1	Sil	Ob	46	-0.550000011920929	15.999
47	Ob	1	Sil	Ob	47	-0.550000011920929	15.999
48	Ob	1	Sil	Ob	48	-0.550000011920929	15.999
49	Ob	1	Sil	Ob	49	-0.550000011920929	15.999
50	Ob	1	Sil	Ob	50	-0.550000011920929	15.999
51	Ob	1	Sil	Ob	51	-0.550000011920929	15.999
52	Ob	1	Sil	Ob	52	-0.550000011920929	15.999
53	Ob	1	Sil	Ob	53	-0.550000011920929	15.999
54	Ob	1	Sil	Ob	54	-0.550000011920929	15.999
55	Ob	1	Sil	Ob	55	-0.550000011920929	15.999
56	Ob	1	Sil	Ob	56	-0.550000011920929	15.999
57	Ob	1	Sil	Ob	57	-0.550000011920929	15.999
58	Ob	1	Sil	Ob	58	-0.550000011920929	15.999
59	Ob	1	Sil	Ob	59	-0.550000011920929	15.999
60	Ob	1	Sil	Ob	60	-0.550000011920929	15.999
61	Ob	1	Sil	Ob	61	-0.550000011920929	15.999
62	Ob	1	Sil	Ob	62	-0.550000011920929	15.999
63	Ob	1	Sil	Ob	63	-0.550000011920929	15.999
64	Ob	1	Sil	Ob	64	-0.550000011920929	15.999
65	Ob	1	Sil	Ob	65	-0.550000011920929	15.999
66	Ob	1	Sil	Ob	66	-0.550000011920929	15.999
67	Ob	1	Sil	Ob	67	-0.550000011920929	15.999
68	Ob	1	Sil	Ob	68	-0.550000011920929	15.999
69	Ob	1	Sil	Ob	69	-0.550000011920929	15.999
70	Ob	1	Sil	Ob	70	-0.550000011920929	15.999
71	Ob	1	Sil	Ob	71	-0.550000011920929	15.999
72	Ob	1	Sil	Ob	72	-0.550000011920929	15.999
73	Ob	1	Sil	Ob	73	-0.550000011920929	15.999
74	Ob	1	Sil	Ob	74	-0.550000011920929	15.999
75	Ob	1	Sil	Ob	75	-0.550000011920929	15.999
76	Ob	1	Sil	Ob	76	-0.550000011920929	15.999
77	Ob	1	Sil	Ob	77	-0.550000011920929	15.999
78	Ob	1	Sil	Ob	78	-0.550000011920929	15.999
79	Ob	1	Sil	Ob	79	-0.550000011920929	15.999
80	Ob	1	Sil	Ob	80	-0.550000011920929	15.999
81	Ob	1	Sil	Ob	81	-0.550000011920929	15.999
82	Ob	1	Sil	Ob	82	-0.550000011920929	15.999
83	Ob	1	Sil	Ob	83	-0.550000011920929	15.999
84	Ob	1	Sil	Ob	84	-0.550000011920929	15.999
85	Ob	1	Sil	Ob	85	-0.550000011920929	15.999
86	Ob	1	Sil	Ob	86	-0.550000011920929	15.999
87	Ob	1	Sil	Ob	87	-0.550000011920929	15.999
88	Ob	1	Sil	Ob	88	-0.550000011920929	15.999
89	Ob	1	Sil	Ob	89	-0.550000011920929	15.999
90	Ob	1	Sil	Ob	90	-0.550000011920929	15.999
91	Ob	1	Sil	Ob	91	-0.550000011920929	15.999
92	Ob	1	Sil	Ob	92	-0.550000011920929	15.999
93	Ob	1	Sil	Ob	93	-0.550000011920929	15.999
94	Ob	1	Sil	Ob	94	-0.550000011920929	15.999
95	Ob	1	Sil	Ob	95	-0.550000011920929	15.999
96	Ob	1	Sil	Ob	96	-0.550000011920929	15.999
97	Ob	1	Sil	Ob	97	-0.550000011920929	15.999
98	Ob	1	Sil	Ob	98	-0.550000011920929	15.999
99	Ob	1	Sil	Ob	99	-0.550000011920929	15.999
100	Ob	1	Sil	Ob	100	-0.550000011920929	15.999
101	Ob	1	Sil	Ob	101	-0.550000011920929	15.999
102	Ob	1	Sil	Ob	102	-0.550000011920929	15.999
103	Ob	1	Sil	Ob	103	-0.550000011920929	15.999
104	Ob	1	Sil	Ob	104	-0.550000011920929	15.999
105	Ob	1	Sil	Ob	105	-0.550000011920929	15.999
106	Ob	1	Sil	Ob	106	-0.550000011920929	15.999
107	Ob	1	Sil	Ob	107	-0.550000011920929	15.999
108	Ob	1	Sil	Ob	108	-0.550000011920929	15.999
109	Ob	1	Sil	Ob	109	-0.550000011920929	15.999
110	Ob	1	Sil	Ob	110	-0.550000011920929	15.999
111	Ob	1	Sil	Ob	111	-0.550000011920929	15.999
112	Ob	1	Sil	Ob	112	-0.550000011920929	15.999
113	Ob	1	Sil	Ob	113	-0.550000011920929	15.999
114	Ob	1	Sil	Ob	114	-0.550000011920929	15.999
115	Ob	1	Sil	Ob	115	-0.550000011920929	15.999
116	Ob	1	Sil	Ob	116	-0.550000011920929	15.999
117	Ob	1	Sil	Ob	117	-0.550000011920929	15.999
118	Ob	1	Sil	Ob	118	-0.550000011920929	15.999
119	Ob	1	Sil	Ob	119	-0.550000011920929	15.999
120	Ob	1	Sil	Ob	120	-0.550000011920929	15.999
121	Ob	1	Sil	Ob	121	-0.550000011920929	15.999
122	Ob	1	Sil	Ob	122	-0.550000011920929	15.999
123	Ob	1	Sil	Ob	123	-0.550000011920929	15.999
124	Ob	1	Sil	Ob	124	-0.550000011920929	15.999
125	Ob	1	Sil	Ob	125	-0.550000011920929	15.999
126	Ob	1	Sil	Ob	126	-0.550000011920929	15.999
127	Ob	1	Sil	Ob	127	-0.550000011920929	15.999
128	Ob	1	Sil	Ob	128	-0.550000011920929	15.999
129	Ob	1	Sil	Ob	129	-0.550000011920929	15.999
130	Ob	1	Sil	Ob	130	-0.550000011920929	15.999
131	Ob	1	Sil	Ob	131	-0.550000011920929	15.999
132	Ob	1	Sil	Ob	132	-0.550000011920929	15.999
133	Ob	1	Sil	Ob	133	-0.550000011920929	15.999
134	Ob	1	Sil	Ob	134	-0.550000011920929	15.999
135	Ob	1	Sil	Ob	135	-0.550000011920929	15.999
136	Ob	1	Sil	Ob	136	-0.550000011920929	15.999
137	Ob	1	Sil	Ob	137	-0.550000011920929	15.999
138	Ob	1	Sil	Ob	138	-0.550000011920929	15.999
139	Ob	1	Sil	Ob	139	-0.550000011920929	15.999
140	Ob	1	Sil	Ob	140	-0.550000011920929	15.999
141	Ob	1	Sil	Ob	141	-0.550000011920929	15.999
142	Ob	1	Sil	Ob	142	-0.550000011920929	15.999
143	Ob	1	Sil	Ob	143	-0.550000011920929	15.999
144	Ob	1	Sil	Ob	144	-0.550000011920929	15.999
145	Ob	1	Sil	Ob	145	-0.550000011920929	15.999
146	Ob	1	Sil	Ob	146	-0.550000011920929	15.999
147	Ob	1	Sil	Ob	147	-0.550000011920929	15.999
148	Ob	1	Sil	Ob	148	-0.550000011920929	15.999
149	Ob	1	Sil	Ob	149	-0.550000011920929	15.999
150	Ob	1	Sil	Ob	150	-0.550000011920929	15.999
151	Ob	1	Sil	Ob	151	-0.550000011920929	15.999
152	Ob	1	Sil	Ob	152	-0.550000011920929	15.999
153	Ob	1	Sil	Ob	153	-0.550000011920929	15.999
154	Ob	1	Sil	Ob	154	-0.550000011920929	15.999
155	Ob	1	Sil	Ob	155	-0.550000011920929	15.999
156	Ob	1	Sil	Ob	156	-0.550000011920929	15.999
157	Ob	1	Sil	Ob	157	-0.550000011920929	15.999
158	Ob	1	Sil	Ob	158	-0.550000011920929	15.999
159	Ob	1	Sil	Ob	159	-0.550000011920929	15.999
160	Ob	1	Sil	Ob	160	-0.550000011920929	15.999
161	Ob	1	Sil	Ob	161	-0.550000011920929	15.999
162	Ob	1	Sil	Ob	162	-0.550000011920929	15.999
163	Ob	1	Sil	Ob	163	-0.550000011920929	15.999
164	Ob	1	Sil	Ob	164	-0.550000011920929	15.999
165	Ob	1	Sil	Ob	165	-0.550000011920929	15.999
166	Ob	1	Sil	Ob	166	-0.550000011920929	15.999
167	Ob	1	Sil	Ob	167	-0.550000011920929	15.999
168	Ob	1	Sil	Ob	168	-0.550000011920929	15.999
169	Ob	1	Sil	Ob	169	-0.550000011920929	15.999
170	Ob	1	Sil	Ob	170	-0.550000011920929	15.999
171	Ob	1	Sil	Ob	171	-0.550000011920929	15.999
172	Ob	1	Sil	Ob	172	-0.550000011920929	15.999
173	Ob	1	Sil	Ob	173	-0.550000011920929	15.999
174	Ob	1	Sil	Ob	174	-0.550000011920929	15.999
175	Ob	1	Sil	Ob	175	-0.550000011920929	15.999
176	Ob	1	Sil	Ob	176	-0.550000011920929	15.999
177	Ob	1	Sil	Ob	177	-0.550000011920929	15.999
178	Ob	1	Sil	Ob	178	-0.550000011920929	15.999
179	Ob	1	Sil	Ob	179	-0.550000011920929	15.999
180	Ob	1	Sil	Ob	180	-0.550000011920929	15.999
181	Ob	1	Sil	Ob	181	-0.550000011920929	15.999
182	Ob	1	Sil	Ob	182	-0.550000011920929	15.999
183	Ob	1	Sil	Ob	183	-0.550000011920929	15.999
184	Ob	1	Sil	Ob	184	-0.550000011920929	15.999
185	Ob	1	Sil	Ob	185	-0.550000011920929	15.999
186	Ob	1	Sil	Ob	186	-0.550000011920929	15.999
187	Ob	1	Sil	Ob	187	-0.550000011920929	15.999
188	Ob	1	Sil	Ob	188	-0.550000011920929	15.999
189	Ob	1	Sil	Ob	189	-0.550000011920929	15.999
190	Ob	1	Sil	Ob	190	-0.550000011920929	15.999
191	Ob	1	Sil	Ob	191	-0.550000011920929	15.999
192	Ob	1	Sil	Ob	192	-0.550000011920929	15.999
193	Ob	1	Sil	Ob	193	-0.550000011920929	15.999
194	Ob	1	Sil	Ob	194	-0.550000011920929	15.999
195	Ob	1	Sil	Ob	195	-0.550000011920929	15.999
196	Ob	1	Sil	Ob	196	-0.550000011920929	15.999
197	Ob	1	Sil	Ob	197	-0.550000011920929	15.999
198	Ob	1	Sil	Ob	198	-0.550000011920929	15.999
199	Ob	1	Sil	Ob	199	-0.550000011920929	15.999
200	Ob	1	Sil	Ob	200	-0.550000011920929	15.999
201	Ob	1	Sil	Ob	201	-0.550000011920929	15.999
202	Ob	1	Sil	Ob	202	-0.550000011920929	15.999
203	Ob	1	Sil	Ob	203	-0.550000011920929	15.999
204	Ob	1	Sil	Ob	204	-0.550000011920929	15.999
205	Ob	1	Sil	Ob	205	-0.550000011920929	15.999
206	Ob	1	Sil	Ob	206	-0.550000011920929	15.999
207	Ob	1	Sil	Ob	207	-0.550000011920929	15.999
208	Ob	1	Sil	Ob	208	-0.550000011920929	15.999
209	Ob	1	Sil	Ob	209	-0.550000011920929	15.999
210	Ob	1	Sil	Ob	210	-0.550000011920929	15.999
211	Ob	1	Sil	Ob	211	-0.550000011920929	15.999
212	Ob	1	Sil	Ob	212	-0.550000011920929	15.999
213	Ob	1	Sil	Ob	213	-0.550000011920929	15.999
214	Ob	1	Sil	Ob	214	-0.550000011920929	15.999
215	Ob	1	Sil	Ob	215	-0.550000011920929	15.999
216	Ob	1	Sil	Ob	216	-0.550000011920929	15.999
217	Ob	1	Sil	Ob	217	-0.550000011920929	15.999
218	Ob	1	Sil	Ob	218	-0.550000011920929	15.999
219	Ob	1	Sil	Ob	219	-0.550000011920929	15.999
220	Ob	1	Sil	Ob	220	-0.550000011920929	15.999
221	Ob	1	Sil	Ob	221	-0.550000011920929	15.999
222	Ob	1	Sil	Ob	222	-0.550000011920929	15.999
223	Ob	1	Sil	Ob	223	-0.550000011920929	15.999
224	Ob	1	Sil	Ob	224	-0.550000011920929	15.999
225	Ob	1	Sil	Ob	225	-0.550000011920929	15.999
226	Ob	1	Sil	Ob	226	-0.550000011920929	15.999
227	Ob	1	Sil	Ob	227	-0.550000011920929	15.999
228	Ob	1	Sil	Ob	228	-0.550000011920929	15.999
229	Ob	1	Sil	Ob	229	-0.550000011920929	15.999
230	Ob	1	Sil	Ob	230	-0.550000011920929	15.999
231	Ob	1	Sil	Ob	231	-0.550000011920929	15.999
232	Ob	1	Sil	Ob	232	-0.550000011920929	15.999
233	Ob	1	Sil	Ob	233	-0.550000011920929	15.999
234	Ob	1	Sil	Ob	234	-0.550000011920929	15.999
235	Ob	1	Sil	Ob	235	-0.550000011920929	15.999
236	Ob	1	Sil	Ob	236	-0.550000011920929	15.999
237	Ob	1	Sil	Ob	237	-0.550000011920929	15.999
238	Ob	1	Sil	Ob	238	-0.550000011920929	15.999
239	Ob	1	Sil	Ob	239	-0.550000011920929	15.999
240	Ob	1	Sil	Ob	240	-0.550000011920929	15.999
241	Ob	1	Sil	Ob	241	-0.550000011920929	15.999
242	Ob	1	Sil	Ob	242	-0.550000011920929	15.999
243	Ob	1	Sil	Ob	243	-0.550000011920929	15.999
244	Ob	1	Sil	Ob	244	-0.550000011920929	15.999
245	Ob	1	Sil	Ob	245	-0.550000011920929	15.999
246	Ob	1	Sil	Ob	246	-0.550000011920929	15.999
247	Ob	1	Sil	Ob	247	-0.550000011920929	15.999
248	Ob	1	Sil	Ob	248	-0.550000011920929	15.999
249	Ob	1	Sil	Ob	249	-0.550000011920929	15.999
250	Ob	1	Sil	Ob	250	-0.550000011920929	15.999
251	Ob	1	Sil	Ob	251	-0.550000011920929	15.999
252	Ob	1	Sil	Ob	252	-0.550000011920929	15.999
253	Ob	1	Sil	Ob	253	-0.550000011920929	15.999
254	Ob	1	Sil	Ob	254	-0.550000011920929	15.999
255	Ob	1	Sil	Ob	255	-0.550000011920929	15.999
256	Ob	1	Sil	Ob	256	-0.550000011920929	15.999
257	Ob	1	Sil	Ob	257	-0.550000011920929	15.999
258	Ob	1	Sil	Ob	258	-0.550000011920929	15.999
259	Ob	1	Sil	Ob	259	-0.550000011920929	15.999
260	Ob	1	Sil	Ob	260	-0.550000011920929	15.999
261	Ob	1	Sil	Ob	261	-0.550000011920929	15.999
262	Ob	1	Sil	Ob	262	-0.550000011920929	15.999
263	Ob	1	Sil	Ob	263	-0.550000011920929	15.999
264	Ob	1	Sil	Ob	264	-0.550000011920929	15.999
265	Ob	1	Sil	Ob	265	-0.550000011920929	15.999
266	Ob	1	Sil	Ob	266	-0.550000011920929	15.999
267	Ob	1	Sil	Ob	267	-0.550000011920929	15.999
268	Ob	1	Sil	Ob	268	-0.550000011920929	15.999
269	Ob	1	Sil	Ob	269	-0.550000011920929	15.999
270	Ob	1	Sil	Ob	270	-0.550000011920929	15.999
271	Ob	1	Sil	Ob	271	-0.550000011920929	15.999
272	Ob	1	Sil	Ob	272	-0.550000011920929	15.999
273	Ob	1	Sil	Ob	273	-0.550000011920929	15.999
274	Ob	1	Sil	Ob	274	-0.550000011920929	15.999
275	Ob	1	Sil	Ob	275	-0.550000011920929	15.999
276	Ob	1	Sil	Ob	276	-0.550000011920929	15.999
277	Ob	1	Sil	Ob	277	-0.550000011920929	15.999
278	Ob	1	Sil	Ob	278	-0.550000011920929	15.999
279	Ob	1	Sil	Ob	279	-0.550000011920929	15.999
280	Ob	1	Sil	Ob	280	-0.550000011920929	15.999
281	Ob	1	Sil	Ob	281	-0.550000011920929	15.999
282	Ob	1	Sil	Ob	282	-0.550000011920929	15.999
283	Ob	1	Sil	Ob	283	-0.550000011920929	15.999
284	Ob	1	Sil	Ob	284	-0.550000011920929	15.999
285	Ob	1	Sil	Ob	285	-0.550000011920929	15.999
286	Ob	1	Sil	Ob	286	-0.550000011920929	15.999
287	Ob	1	Sil	Ob	287	-0.550000011920929	15.999
288	Ob	1	Sil	Ob	288	-0.550000011920929	15.999
289	Ob	1	Sil	Ob	289	-0.550000011920929	15.999
290	Ob	1	Sil	Ob	290	-0.550000011920929	15.999
291	Ob	1	Sil	Ob	291	-0.550000011920929	15.999
292	Ob	1	Sil	Ob	292	-0.550000011920929	15.999
293	Ob	1	Sil	Ob	293	-0.550000011920929	15.999
294	Ob	1	Sil	Ob	294	-0.550000011920929	15.999
295	Ob	1	Sil	Ob	295	-0.550000011920929	15.999
296	Ob	1	Sil	Ob	296	-0.550000011920929	15.999
297	Ob	1	Sil	Ob	297	-0.550000011920929	15.999
298	Ob	1	Sil	Ob	298	-0.550000011920929	15.999
299	Ob	1	Sil	Ob	299	-0.550000011920929	15.999
300	Ob	1	Sil	Ob	300	-0.550000011920929	15.999
301	Ob	1	Sil	Ob	301	-0.550000011920929	15.999
302	Ob	1	Sil	Ob	302	-0.550000011920929	15.999
303	Ob	1	Sil	Ob	303	-0.550000011920929	15.999
304	Ob	1	Sil	Ob	304	-0.550000011920929	15.999
305	Ob	1	Sil	Ob	305	-0.550000011920929	15.999
306	Ob	1	Sil	Ob	306	-0.550000011920929	15.999
307	Ob	1	Sil	Ob	307	-0.550000011920929	15.999
308	Ob	1	Sil	Ob	308	-0.550000011920929	15.999
309	Ob	1	Sil	Ob	309	-0.550000011920929	15.999
310	Ob	1	Sil	Ob	310	-0.550000011920929	15.999
311	Ob	1	Sil	Ob	311	-0.550000011920929	15.999
312	Ob	1	Sil	Ob	312	-0.550000011920929	15.999
313	Ob	1	Sil	Ob	313	-0.550000011920929	15.999
314	Ob	1	Sil	Ob	314	-0.550000011920929	15.999
315	Ob	1	Sil	Ob	315	-0.550000011920929	15.999
316	Ob	1	Sil	Ob	316	-0.550000011920929	15.999
317	Ob	1	Sil	Ob	317	-0.550000011920929	15.999
318	Ob	1	Sil	Ob	318	-0.550000011920929	15.999
319	Ob	1	Sil	Ob	319	-0.550000011920929	15.999
320	Ob	1	Sil	Ob	320	-0.550000011920929	15.999
321	Ob	1	Sil	Ob	321	-0.550000011920929	15.999
322	Ob	1	Sil	Ob	322	-0.550000011920929	15.999
323	Ob	1	Sil	Ob	323	-0.550000011920929	15.999
324	Ob	1	Sil	Ob	324	-0.550000011920929	15.999
325	Ob	1	Sil	Ob	325	-0.550000011920929	15.999
326	Ob	1	Sil	Ob	326	-0.550000011920929	15.999
327	Ob	1	Sil	Ob	327	-0.550000011920929	15.999
328	Ob	1	Sil	Ob	328	-0.550000011920929	15.999
329	Ob	1	Sil	Ob	329	-0.550000011920929	15.999
330	Ob	1	Sil	Ob	330	-0.550000011920929	15.999
331	Ob	1	Sil	Ob	331	-0.550000011920929	15.999
332	Ob	1	Sil	Ob	332	-0.550000011920929	15.999
333	Ob	1	Sil	Ob	333	-0.550000011920929	15.999
334	Ob	1	Sil	Ob	334	-0.550000011920929	15.999
335	Ob	1	Sil	Ob	335	-0.550000011920929	15.999
336	Ob	1	Sil	Ob	336	-0.550000011920929	15.999
337	Ob	1	Sil	Ob	337	-0.550000011920929	15.999
338	Ob	1	Sil	Ob	338	-0.550000011920929	15.999
339	Ob	1	Sil	Ob	339	-0.550000011920929	15.999
340	Ob	1	Sil	Ob	340	-0.550000011920929	15.999
341	Ob	1	Sil	Ob	341	-0.550000011920929	15.999
342	Ob	1	Sil	Ob	342	-0.550000011920929	15.999
343	Ob	1	Sil	Ob	343	-0.550000011920929	15.999
344	Ob	1	Sil	Ob	344	-0.550000011920929	15.999
345	Ob	1	Sil	Ob	345	-0.550000011920929	15.999
346	Ob	1	Sil	Ob	346	-0.550000011920929	15.999
347	Ob	1	Sil	Ob	347	-0.550000011920929	15.999
348	Ob	1	Sil	Ob	348	-0.550000011920929	15.999
349	Ob	1	Sil	Ob	349	-0.550000011920929	15.999
350	Ob	1	Sil	Ob	350	-0.550000011920929	15.999
351	Ob	1	Sil	Ob	351	-0.550000011920929	15.999
352	Ob	1	Sil	Ob	352	-0.550000011920929	15.999
353	Ob	1	Sil	Ob	353	-0.550000011920929	15.999
354	Ob	1	Sil	Ob	354	-0.550000011920929	15.999
355	Ob	1	Sil	Ob	355	-0.550000011920929	15.999
356	Ob	1	Sil	Ob	356	-0.550000011920929	15.999
357	Ob	1	Sil	Ob	357	-0.550000011920929	15.999
358	Ob	1	Sil	Ob	358	-0.550000011920929	15.999
359	Ob	1	Sil	Ob	359	-0.550000011920929	15.999
360	Ob	1	Sil	Ob	360	-0.550000011920929	15.999
361	Ob	1	Sil	Ob	361	-0.550000011920929	15.999
362	Ob	1	Sil	Ob	362	-0.550000011920929	15.999
363	Ob	1	Sil	Ob	363	-0.550000011920929	15.999
364	Ob	1	Sil	Ob	364	-0.550000011920929	15.999
365	Ob	1	Sil	Ob	365	-0.550000011920929	15.999
366	Ob	1	Sil	Ob	366	-0.550000011920929	15.999
367	Ob	1	Sil	Ob	367	-0.550000011920929	15.999
368	Ob	1	Sil	Ob	368	-0.550000011920929	15.999
369	Ob	1	Sil	Ob	369	-0.550000011920929	15.999
370	Ob	1	Sil	Ob	370	-0.550000011920929	15.999
371	Ob	1	Sil	Ob	371	-0.550000011920929	15.999
372	Ob	1	Sil	Ob	372	-0.550000011920929	15.999
373	Ob	1	Sil	Ob	373	-0.550000011920929	15.999
374	Ob	1	Sil	Ob	374	-0.550000011920929	15.999
375	Ob	1	Sil	Ob	375	-0.550000011920929	15.999
376	Ob	1	Sil	Ob	376	-0.550000011920929	15.999
377	Ob	1	Sil	Ob	377	-0.550000011920929	15.999
378	Ob	1	Sil	Ob	378	-0.550000011920929	15.999
379	Ob	1	Sil	Ob	379	-0.550000011920929	15.999
380	Ob	1	Sil	Ob	380	-0.550000011920929	15.999
381	Ob	1	Sil	Ob	381	-0.550000011920929	15.999
382	Ob	1	Sil	Ob	382	-0.550000011920929	15.999
383	Ob	1	Sil	Ob	383	-0.550000011920929	15.999
384	Ob	1	Sil	Ob	384	-0.550000011920929	15.999
385	Ob	1	Sil	Ob	385	-0.550000011920929	15.999
386	Ob	1	Sil	Ob	386	-0.550000011920929	15.999
387	Ob	1	Sil	Ob	387	-0.550000011920929	15.999
388	Ob	1	Sil	Ob	388	-0.550000011920929	15.999
389	Ob	1	Sil	Ob	389	-0.550000011920929	15.999
390	Ob	1	Sil	Ob	390	-0.550000011920929	15.999
391	Ob	1	Sil	Ob	391	-0.550000011920929	15.999
392	Ob	1	Sil	Ob	392	-0.550000011920929	15.999
393	Ob	1	Sil	Ob	393	-0.550000011920929	15.999
394	Ob	1	Sil	Ob	394	-0.550000011920929	15.999
395	Ob	1	Sil	Ob	395	-0.550000011920929	15.999
396	Ob	1	Sil	Ob	396	-0.550000011920929	15.999
397	Ob	1	Sil	Ob	397	-0.550000011920929	15.999
398	Ob	1	Sil	Ob	398	-0.550000011920929	15.999
399	Ob	1	Sil	Ob	399	-0.550000011920929	15.999
400	Ob	1	Sil	Ob	400	-0.550000011920929	15.999
401	Ob	1	Sil	Ob	401	-0.550000011920929	15.999
402	Ob	1	Sil	Ob	402	-0.550000011920929	15.999
403	Ob	1	Sil	Ob	403	-0.550000011920929	15.999
404	Ob	1	Sil	Ob	404	-0.550000011920929	15.999
405	Ob	1	Sil	Ob	405	-0.550000011920929	15.999
406	Ob	1	Sil	Ob	406	-0.550000011920929	15.999
407	Ob	1	Sil	Ob	407	-0.550000011920929	15.999
408	Ob	1	Sil	Ob	408	-0.550000011920929	15.999
409	Ob	1	Sil	Ob	409	-0.550000011920929	15.999
410	Ob	1	Sil	Ob	410	-0.550000011920929	15.999
411	Ob	1	Sil	Ob	411	-0.550000011920929	15.999
412	Ob	1	Sil	Ob	412	-0.550000011920929	15.999
413	Ob	1	Sil	Ob	413	-0.550000011920929	15.999
414	Ob	1	Sil	Ob	414	-0.550000011920929	15.999
415	Ob	1	Sil	Ob	415	-0.550000011920929	15.999
416	Ob	1	Sil	Ob	416	-0.550000011920929	15.999
417	Ob	1	Sil	Ob	417	-0.550000011920929	15.999
418	Ob	1	Sil	Ob	418	-0.550000011920929	15.999
419	Ob	1	Sil	Ob	419	-0.550000011920929	15.999
420	Ob	1	Sil	Ob	420	-0.550000011920929	15.999
421	Ob	1	Sil	Ob	421	-0.550000011920929	15.999
422	Ob	1	Sil	Ob	422	-0.550000011920929	15.999
423	Ob	1	Sil	Ob	423	-0.550000011920929	15.999
424	Ob	1	Sil	Ob	424	-0.550000011920929	15.999
425	Ob	1	Sil	Ob	425	-0.550000011920929	15.999
426	Ob	1	Sil	Ob	426	-0.550000011920929	15.999
427	Ob	1	Sil	Ob	427	-0.550000011920929	15.999
428	Ob	1	Sil	Ob	428	-0.550000011920929	15.999
429	Ob	1	Sil	Ob	429	-0.550000011920929	15.999
430	Ob	1	Sil	Ob	430	-0.550000011920929	15.999
431	Ob	1	Sil	Ob	431	-0.550000011920929	15.999
432	Ob	1	Sil	Ob	432	-0.550000011920929	15.999
433	Ob	1	Sil	Ob	433	-0.550000011920929	15.999
434	Ob	1	Sil	Ob	434	-0.550000011920929	15.999
435	Ob	1	Sil	Ob	435	-0.550000011920929	15.999
436	Ob	1	Sil	Ob	436	-0.550000011920929	15.999
437	Ob	1	Sil	Ob	437	-0.550000011920929	15.999
438	Ob	1	Sil	Ob	438	-0.550000011920929	15.999
439	Ob	1	Sil	Ob	439	-0.550000011920929	15.999
440	Ob	1	Sil	Ob	440	-0.550000011920929	15.999
441	Ob	1	Sil	Ob	441	-0.550000011920929	15.999
442	Ob	1	Sil	Ob	442	-0.550000011920929	15.999
443	Ob	1	Sil	Ob	443	-0.550000011920929	15.999
444	Ob	1	Sil	Ob	444	-0.550000011920929	15.999
445	Ob	1	Sil	Ob	445	-0.550000011920929	15.999
446	Ob	1	Sil	Ob	446	-0.550000011920929	15.999
447	Ob	1	Sil	Ob	447	-0.550000011920929	15.999
448	Ob	1	Sil	Ob	448	-0.550000011920929	15.999
449	Ob	1	Sil	Ob	449	-0.550000011920929	15.999
450	Ob	1	Sil	Ob	450	-0.550000011920929	15.999
451	Ob	1	Sil	Ob	451	-0.550000011920929	15.999
452	Ob	1	Sil	Ob	452	-0.550000011920929	15.999
453	Ob	1	Sil	Ob	453	-0.550000011920929	15.999
454	Ob	1	Sil	Ob	454	-0.550000011920929	15.999
455	Ob	1	Sil	Ob	455	-0.550000011920929	15.999
456	Ob	1	Sil	Ob	456	-0.550000011920929	15.999
457	Ob	1	Sil	Ob	457	-0.550000011920929	15.999
458	Ob	1	Sil	Ob	458	-0.550000011920929	15.999
459	Ob	1	Sil	Ob	459	-0.550000011920929	15.999
460	Ob	1	Sil	Ob	460	-0.550000011920929	15.999
461	Ob	1	Sil	Ob	461	-0.550000011920929	15.999
462	Ob	1	Sil	Ob	462	-0.550000011920929	15.999
463	Ob	1	Sil	Ob	463	-0.550000011920929	15.999
464	Ob	1	Sil	Ob	464	-0.550000011920929	15.999
465	Ob	1	Sil	Ob	465	-0.550000011920929	15.999
466	Ob	1	Sil	Ob	466	-0.550000011920929	15.999
467	Ob	1	Sil	Ob	467	-0.550000011920929	15.999
468	Ob	1	Sil	Ob	468	-0.550000011920929	15.999
469	Ob	1	Sil	Ob	469	-0.550000011920929	15.999
470	Ob	1	Sil	Ob	470	-0.550000011920929	15.999
471	Ob	1	Sil	Ob	471	-0.550000011920929	15.999
472	Ob	1	Sil	Ob	472	-0.550000011920929	15.999
473	Ob	1	Sil	Ob	473	-0.550000011920929	15.999
474	Ob	1	Sil	Ob	474	-0.550000011920929	15.999
475	Ob	1	Sil	Ob	475	-0.550000011920929	15.999
476	Ob	1	Sil	Ob	476	-0.550000011920929	15.999
477	Ob	1	Sil	Ob	477	-0.550000011920929	15.999
478	Ob	1	Sil	Ob	478	-0.550000011920929	15.999
479	Ob	1	Sil	Ob	479	-0.550000011920929	15.999
480	Ob	1	Sil	Ob	480	-0.550000011920929	15.999
481	Ob	1	Sil	Ob	481	-0.550000011920929	15.999
482	Ob	1	Sil	Ob	482	-0.550000011920929	15.999
483	Ob	1	Sil	Ob	483	-0.550000011920929	15.999
484	Ob	1	Sil	Ob	484	-0.550000011920929	15.999
485	Ob	1	Sil	Ob	485	-0.550000011920929	15.999
486	Ob	1	Sil	Ob	486	-0.550000011920929	15.999
487	Ob	1	Sil	Ob	487	-0.550000011920929	15.999
488	Ob	1	Sil	Ob	488	-0.550000011920929	15.999
489	Ob	1	Sil	Ob	489	-0.550000011920929	15.999
490	Ob	1	Sil	Ob	490	-0.550000011920929	15.999
491	Ob	1	Sil	Ob	491	-0.550000011920929	15.999
492	Ob	1	Sil	Ob	492	-0.550000011920929	15.999
493	Ob	1	Sil	Ob	493	-0.550000011920929	15.999
494	Ob	1	Sil	Ob	494	-0.550000011920929	15.999
495	Ob	1	Sil	Ob	495	-0.550000011920929	15.999
496	Ob	1	Sil	Ob	496	-0.550000011920929	15.999
497	Ob	1	Sil	Ob	497	-0.550000011920929	15.999
498	Ob	1	Sil	Ob	498	-0.550000011920929	15.999
499	Ob	1	Sil	Ob	499	-0.550000011920929	15.999
500	Ob	1	Sil	Ob	500	-0.550000011920929	15.999
501	Ob	1	Sil	Ob	501	-0.550000011920929	15.999
502	Ob	1	Sil	Ob	502	-0.550000011920929	15.999
503	Ob	1	Sil	Ob	503	-0.550000011920929	15.999
504	Ob	1	Sil	Ob	504	-0.550000011920929	15.999
505	Ob	1	Sil	Ob	505	-0.550000011920929	15.999
506	Ob	1	Sil	Ob	506	-0.550000011920929	15.999
507	Ob	1	Sil	Ob	507	-0.550000011920929	15.999
508	Ob	1	Sil	Ob	508	-0.550000011920929	15.999
509	Ob	1	Sil	Ob	509	-0.550000011920929	15.999
510	Ob	1	Sil	Ob	510	-0.550000011920929	15.999
511	Ob	1	Sil	Ob	511	-0.550000011920929	15.999
512	Ob	1	Sil	Ob	512	-0.550000011920929	15.999
513	Ob	1	Sil	Ob	513	-0.550000011920929	15.999
514	Ob	1	Sil	Ob	514	-0.550000011920929	15.999
515	Ob	1	Sil	Ob	515	-0.550000011920929	15.999
516	Ob	1	Sil	Ob	516	-0.550000011920929	15.999
517	Ob	1	Sil	Ob	517	-0.550000011920929	15.999
518	Ob	1	Sil	Ob	518	-0.550000011920929	15.999
519	Ob	1	Sil	Ob	519	-0.550000011920929	15.999
520	Ob	1	Sil	Ob	520	-0.550000011920929	15.999
521	Ob	1	Sil	Ob	521	-0.550000011920929	15.999
522	Ob	1	Sil	Ob	522	-0.550000011920929	15.999
523	Ob	1	Sil	Ob	523	-0.550000011920929	15.999
524	Ob	1	Sil	Ob	524	-0.550000011920929	15.999
525	Ob	1	Sil	Ob	525	-0.550000011920929	15.999
526	Ob	1	Sil	Ob	526	-0.550000011920929	15.999
527	Ob	1	Sil	Ob	527	-0.550000011920929	15.999
528	Ob	1	Sil	Ob	528	-0.550000011920929	15.999
529	Ob	1	Sil	Ob	529	-0.550000011920929	15.999
530	Ob	1	Sil	Ob	530	-0.550000011920929	15.999
531	Ob	1	Sil	Ob	531	-0.550000011920929	15.999
532	Ob	1	Sil	Ob	532	-0.550000011920929	15.999
533	Ob	1	Sil	Ob	533	-0.550000011920929	15.999
534	Ob	1	Sil	Ob	534	-0.550000011920929	15.999
535	Ob	1	Sil	Ob	535	-0.550000011920929	15.999
536	Ob	1	Sil	Ob	536	-0.550000011920929	15.999
537	Ob	1	Sil	Ob	537	-0.550000011920929	15.999
538	Ob	1	Sil	Ob	538	-0.550000011920929	15.999
539	Ob	1	Sil	Ob	539	-0.550000011920929	15.999
540	Ob	1	Sil	Ob	540	-0.550000011920929	15.999
541	Ob	1	Sil	Ob	541	-0.550000011920929	15.999
542	Ob	1	Sil	Ob	542	-0.550000011920929	15.999
543	Ob	1	Sil	Ob	543	-0.550000011920929	15.999
544	Ob	1	Sil	Ob	544	-0.550000011920929	15.999
545	Ob	1	Sil	Ob	545	-0.550000011920929	15.999
546	Ob	1	Sil	Ob	546	-0.550000011920929	15.999
547	Ob	1	Sil	Ob	547	-0.550000011920929	15.999
548	Ob	1	Sil	Ob	548	-0.550000011920929	15.999
549	Ob	1	Sil	Ob	549	-0.550000011920929	15.999
550	Ob	1	Sil	Ob	550	-0.550000011920929	15.999
551	Ob	1	Sil	Ob	551	-0.550000011920929	15.999
552	Ob	1	Sil	Ob	552	-0.550000011920929	15.999
553	Ob	1	Sil	Ob	553	-0.550000011920929	15.999
554	Ob	1	Sil	Ob	554	-0.550000011920929	15.999
555	Ob	1	Sil	Ob	555	-0.550000011920929	15.999
556	Ob	1	Sil	Ob	556	-0.550000011920929	15.999
557	Ob	1	Sil	Ob	557	-0.550000011920929	15.999
558	Ob	1	Sil	Ob	558	-0.550000011920929	15.999
559	Ob	1	Sil	Ob	559	-0.550000011920929	15.999
560	Ob	1	Sil	Ob	560	-0.550000011920929	15.999
561	Ob	1	Sil	Ob	561	-0.550000011920929	15.999
562	Ob	1	Sil	Ob	562	-0.550000011920929	15.999
563	Ob	1	Sil	Ob	563	-0.550000011920929	15.999
564	Ob	1	Sil	Ob	564	-0.550000011920929	15.999
565	Ob	1	Sil	Ob	565	-0.550000011920929	15.999
566	Ob	1	Sil	Ob	566	-0.550000011920929	15.999
567	Ob	1	Sil	Ob	567	-0.550000011920929	15.999
568	Ob	1	Sil	Ob	568	-0.550000011920929	15.999
569	Ob	1	Sil	Ob	569	-0.550000011920929	15.999
570	Ob	1	Sil	Ob	570	-0.550000011920929	15.999
571	Ob	1	Sil	Ob	571	-0.550000011920929	15.999
572	Ob	1	Sil	Ob	572	-0.550000011920929	15.999
573	Ob	1	Sil	Ob	573	-0.550000011920929	15.999
574	Ob	1	Sil	Ob	574	-0.550000011920929	15.999
575	Ob	1	Sil	Ob	575	-0.550000011920929	15.999
576	Ob	1	Sil	Ob	576	-0.550000011920929	15.999
577	Ob	1	Sil	Ob	577	-0.550000011920929	15.999
578	Ob	1	Sil	Ob	578	-0.550000011920929	15.999
579	Ob	1	Sil	Ob	579	-0.550000011920929	15.999
580	Ob	1	Sil	Ob	580	-0.550000011920929	15.999
581	Ob	1	Sil	Ob	581	-0.550000011920929	15.999
582	Ob	1	Sil	Ob	582	-0.550000011920929	15.999
583	Ob	1	Sil	Ob	583	-0.550000011920929	15.999
584	Ob	1	Sil	Ob	584	-0.550000011920929	15.999
585	Ob	1	Sil	Ob	585	-0.550000011920929	15.999
586	Ob	1	Sil	Ob	586	-0.550000011920929	15.999
587	Ob	1	Sil	Ob	587	-0.550000011920929	15.999
588	Ob	1	Sil	Ob	588	-0.550000011920929	15.999
589	Ob	1	Sil	Ob	589	-0.550000011920929	15.999
590	Ob	1	Sil	Ob	590	-0.550000011920929	15.999
591	Ob	1	Sil	Ob	591	-0.550000011920929	15.999
592	Ob	1	Sil	Ob	592	-0.550000011920929	15.999
593	Ob	1	Sil	Ob	593	-0.550000011920929	15.999
594	Ob	1	Sil	Ob	594	-0.550000011920929	15.999
595	Ob	1	Sil	Ob	595	-0.550000011920929	15.999
596	Ob	1	Sil	Ob	596	-0.550000011920929	15.999
597	Ob	1	Sil	Ob	597	-0.550000011920929	15.999
598	Ob	1	Sil	Ob	598	-0.550000011920929	15.999
599	Ob	1	Sil	Ob	599	-0.550000011920929	15.999
600	Ob	1	Sil	Ob	600	-0.550000011920929	15.999
601	Ob	1	Sil	Ob	601	-0.550000011920929	15.999
602	Ob	1	Sil	Ob	602	-0.550000011920929	15.999
603	Ob	1	Sil	Ob	603	-0.550000011920929	15.999
604	Ob	1	Sil	Ob	604	-0.550000011920929	15.999
605	Ob	1	Sil	Ob	605	-0.550000011920929	15.999
606	Ob	1	Sil	Ob	606	-0.550000011920929	15.999
607	Ob	1	Sil	Ob	607	-0.550000011920929	15.999
608	Ob	1	Sil	Ob	608	-0.550000011920929	15.999
609	Ob	1	Sil	Ob	609	-0.550000011920929	15.999
610	Ob	1	Sil	Ob	610	-0.550000011920929	15.999
611	Ob	1	Sil	Ob	611	-0.550000011920929	15.999
612	Ob	1	Sil	Ob	612	-0.550000011920929	15.999
613	Ob	1	Sil	Ob	613	-0.550000011920929	15.999
614	Ob	1	Sil	Ob	614	-0.550000011920929	15.999
615	Ob	1	Sil	Ob	615	-0.550000011920929	15.999
616	Ob	1	Sil	Ob	616	-0.550000011920929	15.999
617	Ob	1	Sil	Ob	617	-0.550000011920929	15.999
618	Ob	1	Sil	Ob	618	-0.550000011920929	15.999
619	Ob	1	Sil	Ob	619	-0.550000011920929	15.999
620	Ob	1	Sil	Ob	620	-0.550000011920929	15.999
621	Ob	1	Sil	Ob	621	-0.550000011920929	15.999
622	Ob	1	Sil	Ob	622	-0.550000011920929	15.999
623	Ob	1	Sil	Ob	623	-0.550000011920929	15.999
624	Ob	1	Sil	Ob	624	-0.550000011920929	15.999
625	Ob	1	Sil	Ob	625	-0.550000011920929	15.999
626	Ob	1	Sil	Ob	626	-0.550000011920929	15.999
627	Ob	1	Sil	Ob	627	-0.550000011920929	15.999
628	Ob	1	Sil	Ob	628	-0.550000011920929	15.999
629	Ob	1	Sil	Ob	629	-0.550000011920929	15.999
630	Ob	1	Sil	Ob	630	-0.550000011920929	15.999
631	Ob	1	Sil	Ob	631	-0.550000011920929	15.999
632	Ob	1	Sil	Ob	632	-0.550000011920929	15.999
633	Ob	1	Sil	Ob	633	-0.550000011920929	15.999
634	Ob	1	Sil	Ob	634	-0.550000011920929	15.999
635	Ob	1	Sil	Ob	635	-0.550000011920929	15.999
636	Ob	1	Sil	Ob	636	-0.550000011920929	15.999
637	Ob	1	Sil	Ob	637	-0.550000011920929	15.999
638	Ob	1	Sil	Ob	638	-0.550000011920929	15.999
639	Ob	1	Sil	Ob	639	-0.550000011920929	15.999
640	Ob	1	Sil	Ob	640	-0.550000011920929	15.999
641	Ob	1	Sil	Ob	641	-0.550000011920929	15.999
642	Ob	1	Sil	Ob	642	-0.550000011920929	15.999
643	Ob	1	Sil	Ob	643	-0.550000011920929	15.999
644	Ob	1	Sil	Ob	644	-0.550000011920929	15.999
645	Ob	1	Sil	Ob	645	-0.550000011920929	15.999
646	Ob	1	Sil	Ob	646	-0.550000011920929	15.999
647	Ob	1	Sil	Ob	647	-0.550000011920929	15.999
648	Ob	1	Sil	Ob	648	-0.550000011920929	15.999
649	Ob	1	Sil	Ob	649	-0.550000011920929	15.999
650	Ob	1	Sil	Ob	650	-0.550000011920929	15.999
651	Ob	1	Sil	Ob	651	-0.550000011920929	15.999
652	Ob	1	Sil	Ob	652	-0.550000011920929	15.999
653	Ob	1	Sil	Ob	653	-0.550000011920929	15.999
654	Ob	1	Sil	Ob	654	-0.550000011920929	15.999
655	Ob	1	Sil	Ob	655	-0.550000011920929	15.999
656	Ob	1	Sil	Ob	656	-0.550000011920929	15.999
657	Ob	1	Sil	Ob	657	-0.550000011920929	15.999
658	Ob	1	Sil	Ob	658	-0.550000011920929	15.999
659	Ob	1	Sil	Ob	659	-0.550000011920929	15.999
660	Ob	1	Sil	Ob	660	-0.550000011920929	15.999
661	Ob	1	Sil	Ob	661	-0.550000011920929	15.999
662	Ob	1	Sil	Ob	662	-0.550000011920929	15.999
663	Ob	1	Sil	Ob	663	-0.550000011920929	15.999
664	Ob	1	Sil	Ob	664	-0.550000011920929	15.999
665	Ob	1	Sil	Ob	665	-0.550000011920929	15.999
666	Ob	1	Sil	Ob	666	-0.550000011920929	15.999
667	Ob	1	Sil	Ob	667	-0.550000011920929	15.999
668	Ob	1	Sil	Ob	668	-0.550000011920929	15.999
669	Ob	1	Sil	Ob	669	-0.550000011920929	15.999
670	Ob	1	Sil	Ob	670	-0.550000011920929	15.999
671	Ob	1	Sil	Ob	671	-0.550000011920929	15.999
672	Ob	1	Sil	Ob	672	-0.550000011920929	15.999
673	Ob	1	Sil	Ob	673	-0.550000011920929	15.999
674	Ob	1	Sil	Ob	674	-0.550000011920929	15.999
675	Ob	1	Sil	Ob	675	-0.550000011920929	15.999
676	Ob	1	Sil	Ob	676	-0.550000011920929	15.999
677	Ob	1	Sil	Ob	677	-0.550000011920929	15.999
678	Ob	1	Sil	Ob	678	-0.550000011920929	15.999
679	Ob	1	Sil	Ob	679	-0.550000011920929	15.999
680	Ob	1	Sil	Ob	680	-0.550000011920929	15.999
681	Ob	1	Sil	Ob	681	-0.550000011920929	15.999
682	Ob	1	Sil	Ob	682	-0.550000011920929	15.999
683	Ob	1	Sil	Ob	683	-0.550000011920929	15.999
684	Ob	1	Sil	Ob	684	-0.550000011920929	15.999
685	Ob	1	Sil	Ob	685	-0.550000011920929	15.999
686	Ob	1	Sil	Ob	686	-0.550000011920929	15.999
687	Ob	1	Sil	Ob	687	-0.550000011920929	15.999
688	Ob	1	Sil	Ob	688	-0.550000011920929	15.999
689	Ob	1	Sil	Ob	689	-0.550000011920929	15.999
690	Ob	1	Sil	Ob	690	-0.550000011920929	15.999
691	Ob	1	Sil	Ob	691	-0.550000011920929	15.999
692	Ob	1	Sil	Ob	692	-0.550000011920929	15.999
693	Ob	1	Sil	Ob	693	-0.550000011920929	15.999
694	Ob	1	Sil	Ob	694	-0.550000011920929	15.999
695	Ob	1	Sil	Ob	695	-0.550000011920929	15.999
696	Ob	1	Sil	Ob	696	-0.550000011920929	15.999
697	Ob	1	Sil	Ob	697	-0.550000011920929	15.999
698	Ob	1	Sil	Ob	698	-0.550000011920929	15.999
699	Ob	1	Sil	Ob	699	-0.550000011920929	15.999
700	Ob	1	Sil	Ob	700	-0.550000011920929	15.999
701	Ob	1	Sil	Ob	701	-0.550000011920929	15.999
702	Ob	1	Sil	Ob	702	-0.550000011920929	15.999
703	Ob	1	Sil	Ob	703	-0.550000011920929	15.999
704	Ob	1	Sil	Ob	704	-0.550000011920929	15.999
705	Ob	1	Sil	Ob	705	-0.550000011920929	15.999
706	Ob	1	Sil	Ob	706	-0.550000011920929	15.999
707	Ob	1	Sil	Ob	707	-0.550000011920929	15.999
708	Ob	1	Sil	Ob	708	-0.550000011920929	15.999
709	Ob	1	Sil	Ob	709	-0.550000011920929	15.999
710	Ob	1	Sil	Ob	710	-0.550000011920929	15.999
711	Ob	1	Sil	Ob	711	-0.550000011920929	15.999
712	Ob	1	Sil	Ob	712	-0.550000011920929	15.999
713	Ob	1	Sil	Ob	713	-0.550000011920929	15.999
714	Ob	1	Sil	Ob	714	-0.550000011920929	15.999
715	Ob	1	Sil	Ob	715	-0.550000011920929	15.999
716	Ob	1	Sil	Ob	716	-0.550000011920929	15.999
717	Ob	1	Sil	Ob	717	-0.550000011920929	15.999
718	Ob	1	Sil	Ob	718	-0.550000011920929	15.999
719	Ob	1	Sil	Ob	719	-0.550000011920929	15.999
720	Ob	1	Sil	Ob	720	-0.550000011920929	15.999
721	Ob	1	Sil	Ob	721	-0.550000011920929	15.999
722	Ob	1	Sil	Ob	722	-0.550000011920929	15.999
723	Ob	1	Sil	Ob	723	-0.550000011920929	15.999
724	Ob	1	Sil	Ob	724	-0.550000011920929	15.999
725	Ob	1	Sil	Ob	725	-0.550000011920929	15.999
726	Ob	1	Sil	Ob	726	-0.550000011920929	15.999
727	Ob	1	Sil	Ob	727	-0.550000011920929	15.999
728	Ob	1	Sil	Ob	728	-0.550000011920929	15.999
729	Ob	1	Sil	Ob	729	-0.550000011920929	15.999
730	Ob	1	Sil	Ob	730	-0.550000011920929	15.999
731	Ob	1	Sil	Ob	731	-0.550000011920929	15.999
732	Ob	1	Sil	Ob	732	-0.550000011920929	15.999
733	Ob	1	Sil	Ob	733	-0.550000011920929	15.999
734	Ob	1	Sil	Ob	734	-0.550000011920929	15.999
735	Ob	1	Sil	Ob	735	-0.550000011920929	15.999
736	Ob	1	Sil	Ob	736	-0.550000011920929	15.999
737	Ob	1	Sil	Ob	737	-0.550000011920929	15.999
738	Ob	1	Sil	Ob	738	-0.550000011920929	15.999
739	Ob	1	Sil	Ob	739	-0.550000011920929	15.999
740	Ob	1	Sil	Ob	740	-0.550000011920929	15.999
741	Ob	1	Sil	Ob	741	-0.550000011920929	15.999
742	Ob	1	Sil	Ob	742	-0.550000011920929	15.999
743	Ob	1	Sil	Ob	743	-0.550000011920929	15.999
744	Ob	1	Sil	Ob	744	-0.550000011920929	15.999
745	Ob	1	Sil	Ob	745	-0.550000011920929	15.999
746	Ob	1	Sil	Ob	746	-0.550000011920929	15.999
747	Ob	1	Sil	Ob	747	-0.550000011920929	15.999
748	Ob	1	Sil	Ob	748	-0.550000011920929	15.999
749	Ob	1	Sil	Ob	749	-0.550000011920929	15.999
750	Ob	1	Sil	Ob	750	-0.550000011920929	15.999
751	Ob	1	Sil	Ob	751	-0.550000011920929	15.999
752	Ob	1	Sil	Ob	752	-0.550000011920929	15.999
753	Ob	1	Sil	Ob	753	-0.550000011920929	15.999
754	Ob	1	Sil	Ob	754	-0.550000011920929	15.999
755	Ob	1	Sil	Ob	755	-0.550000011920929	15.999
756	Ob	1	Sil	Ob	756	-0.550000011920929	15.999
757	Ob	1	Sil	Ob	757	-0.550000011920929	15.999
758	Ob	1	Sil	Ob	758	-0.550000011920929	15.999
759	Ob	1	Sil	Ob	759	-0.550000011920929	15.999
760	Ob	1	Sil	Ob	760	-0.550000011920929	15.999
761	Ob	1	Sil	Ob	761	-0.550000011920929	15.999
762	Ob	1	Sil	Ob	762	-0.550000011920929	15.999
763	Ob	1	Sil	Ob	763	-0.550000011920929	15.999
764	Ob	1	Sil	Ob	764	-0.550000011920929	15.999
765	Ob	1	Sil	Ob	765	-0.550000011920929	15.999
766	Ob	1	Sil	Ob	766	-0.550000011920929	15.999
767	Ob	1	Sil	Ob	767	-0.550000011920929	15.999
768	Ob	1	Sil	Ob	768	-0.550000011920929	15.999
769	Ob	1	Sil	Ob	769	-0.550000011920929	15.999
770	Ob	1	Sil	Ob	770	-0.550000011920929	15.999
771	Ob	1	Sil	Ob	771	-0.550000011920929	15.999
772	Ob	1	Sil	Ob	772	-0.550000011920929	15.999
773	Ob	1	Sil	Ob	773	-0.550000011920929	15.999
774	Ob	1	Sil	Ob	774	-0.550000011920929	15.999
775	Ob	1	Sil	Ob	775	-0.550000011920929	15.999
776	Ob	1	Sil	Ob	776	-0.550000011920929	15.999
777	Ob	1	Sil	Ob	777	-0.550000011920929	15.999
778	Ob	1	Sil	Ob	778	-0.550000011920929	15.999
779	Ob	1	Sil	Ob	779	-0.550000011920929	15.999
780	Ob	1	Sil	Ob	780	-0.550000011920929	15.999
781	Ob	1	Sil	Ob	781	-0.550000011920929	15.999
782	Ob	1	Sil	Ob	782	-0.550000011920929	15.999
783	Ob	1	Sil	Ob	783	-0.550000011920929	15.999
784	Ob	1	Sil	Ob	784	-0.550000011920929	15.999
785	Ob	1	Sil	Ob	785	-0.550000011920929	15.999
786	Ob	1	Sil	Ob	786	-0.550000011920929	15.999
787	Ob	1	Sil	Ob	787	-0.550000011920929	15.999
788	Ob	1	Sil	Ob	788	-0.550000011920929	15.999
789	Ob	1	Sil	Ob	789	-0.550000011920929	15.999
790	Ob	1	Sil	Ob	790	-0.550000011920929	15.999
791	Ob	1	Sil	Ob	791	-0.550000011920929	15.999
792	Ob	1	Sil	Ob	792	-0.550000011920929	15.999
793	Ob	1	Sil	Ob	793	-0.550000011920929	15.999
794	Ob	1	Sil	Ob	794	-0.550000011920929	15.999
795	Ob	1	Sil	Ob	795	-0.550000011920929	15.999
796	Ob	1	Sil	Ob	796	-0.550000011920929	15.999
797	Ob	1	Sil	Ob	797	-0.550000011920929	15.999
798	Ob	1	Sil	Ob	798	-0.550000011920929	15.999
799	Ob	1	Sil	Ob	799	-0.550000011920929	15.999
800	Ob	1	Sil	Ob	800	-0.550000011920929	15.999
801	Ob	1	Sil	Ob	801	-0.550000011920929	15.999
802	Ob	1	Sil	Ob	802	-0.550000011920929	15.999
803	Ob	1	Sil	Ob	803	-0.550000011920929	15.999
804	Ob	1	Sil	Ob	804	-0.550000011920929	15.999
805	Ob	1	Sil	Ob	805	-0.550000011920929	15.999
806	Ob	1	Sil	Ob	806	-0.550000011920929	15.999
807	Ob	1	Sil	Ob	807	-0.550000011920929	15.999
808	Ob	1	Sil	Ob	808	-0.550000011920929	15.999
809	Ob	1	Sil	Ob	809	-0.550000011920929	15.999
810	Ob	1	Sil	Ob	810	-0.550000011920929	15.999
811	Ob	1	Sil	Ob	811	-0.550000011920929	15.999
812	Ob	1	Sil	Ob	812	-0.550000011920929	15.999
813	Ob	1	Sil	Ob	813	-0.550000011920929	15.999
814	Ob	1	Sil	Ob	814	-0.550000011920929	15.999
815	Ob	1	Sil	Ob	815	-0.550000011920929	15.999
816	Ob	1	Sil	Ob	816	-0.550000011920929	15.999
817	Ob	1	Sil	Ob	817	-0.550000011920929	15.999
818	Ob	1	Sil	Ob	818	-0.550000011920929	15.999
819	Ob	1	Sil	Ob	819	-0.550000011920929	15.999
820	Ob	1	Sil	Ob	820	-0.550000011920929	15.999
821	Ob	1	Sil	Ob	821	-0.550000011920929	15.999
822	Ob	1	Sil	Ob	822	-0.550000011920929	15.999
823	Ob	1	Sil	Ob	823	-0.550000011920929	15.999
824	Ob	1	Sil	Ob	824	-0.550000011920929	15.999
825	Ob	1	Sil	Ob	825	-0.550000011920929	15.999
826	Ob	1	Sil	Ob	826	-0.550000011920929	15.999
827	Ob	1	Sil	Ob	827	-0.550000011920929	15.999
828	Ob	1	Sil	Ob	828	-0.550000011920929	15.999
829	Ob	1	Sil	Ob	829	-0.550000011920929	15.999
830	Ob	1	Sil	Ob	830	-0.550000011920929	15.999
831	Ob	1	Sil	Ob	831	-0.550000011920929	15.999
832	Ob	1	Sil	Ob	832	-0.550000011920929	15.999
833	Ob	1	Sil	Ob	833	-0.550000011920929	15.999
834	Ob	1	Sil	Ob	834	-0.550000011920929	15.999
835	Ob	1	Sil	Ob	835	-0.550000011920929	15.999
836	Ob	1	Sil	Ob	836	-0.550000011920929	15.999
837	Ob	1	Sil	Ob	837	-0.550000011920929	15.999
838	Ob	1	Sil	Ob	838	-0.550000011920929	15.999
839	Ob	1	Sil	Ob	839	-0.550000011920929	15.999
840	Ob	1	Sil	Ob	840	-0.550000011920929	15.999
841	Ob	1	Sil	Ob	841	-0.550000011920929	15.999
842	Ob	1	Sil	Ob	842	-0.550000011920929	15.999
843	Ob	1	Sil	Ob	843	-0.550000011920929	15.999
844	Ob	1	Sil	Ob	844	-0.550000011920929	15.999
845	Ob	1	Sil	Ob	845	-0.550000011920929	15.999
846	Ob	1	Sil	Ob	846	-0.550000011920929	15.999
847	Ob	1	Sil	Ob	847	-0.550000011920929	15.999
848	Ob	1	Sil	Ob	848	-0.550000011920929	15.999
849	Ob	1	Sil	Ob	849	-0.550000011920929	15.999
850	Ob	1	Sil	Ob	850	-0.550000011920929	15.999
851	Ob	1	Sil	Ob	851	-0.550000011920929	15.999
852	Ob	1	Sil	Ob	852	-0.550000011920929	15.999
853	Ob	1	Sil	Ob	853	-0.550000011920929	15.999
854	Ob	1	Sil	Ob	854	-0.550000011920929	15.999
855	Ob	1	Sil	Ob	855	-0.550000011920929	15.999
856	Ob	1	Sil	Ob	856	-0.550000011920929	15.999
857	Ob	1	Sil	Ob	857	-0.550000011920929	15.999
858	Ob	1	Sil	Ob	858	-0.550000011920929	15.999
859	Ob	1	Sil	Ob	859	-0.550000011920929	15.999
860	Ob	1	Sil	Ob	860	-0.550000011920929	15.999
861	Ob	1	Sil	Ob	861	-0.550000011920929	15.999
862	Ob	1	Sil	Ob	862	-0.550000011920929	15.999
863	Ob	1	Sil	Ob	863	-0.550000011920929	15.999
864	Ob	1	Sil	Ob	864	-0.550000011920929	15.999
865	Ob	1	Sil	Ob	865	-0.550000011920929	15.999
866	Ob	1	Sil	Ob	866	-0.550000011920929	15.999
867	Ob	1	Sil	Ob	867	-0.550000011920929	15.999
868	Ob	1	Sil	Ob	868	-0.550000011920929	15.999
869	Ob	1	Sil	Ob	869	-0.550000011920929	15.999
870	Ob	1	Sil	Ob	870	-0.550000011920929	15.999
871	Ob	1	Sil	Ob	871	-0.550000011920929	15.999
872	Ob	1	Sil	Ob	872	-0.550000011920929	15.999
873	Ob	1	Sil	Ob	873	-0.550000011920929	15.999
874	Ob	1	Sil	Ob	874	-0.550000011920929	15.999
875	Ob	1	Sil	Ob	875	-0.550000011920929	15.999
876	Ob	1	Sil	Ob	876	-0.550000011920929	15.999
877	Ob	1	Sil	Ob	877	-0.550000011920929	15.999
878	Ob	1	Sil	Ob	878	-0.550000011920929	15.999
879	Ob	1	Sil	Ob	879	-0.550000011920929	15.999
880	Ob	1	Sil	Ob	880	-0.550000011920929	15.999
881	Ob	1	Sil	Ob	881	-0.550000011920929	15.999
882	Ob	1	Sil	Ob	882	-0.550000011920929	15.999
883	Ob	1	Sil	Ob	883	-0.550000011920929	15.999
884	Ob	1	Sil	Ob	884	-0.550000011920929	15.999
885	Ob	1	Sil	Ob	885	-0.550000011920929	15.999
886	Ob	1	Sil	Ob	886	-0.550000011920929	15.999
887	Ob	1	Sil	Ob	887	-0.550000011920929	15.999
888	Ob	1	Sil	Ob	888	-0.550000011920929	15.999
889	Ob	1	Sil	Ob	889	-0.550000011920929	15.999
890	Ob	1	Sil	Ob	890	-0.550000011920929	15.999
891	Ob	1	Sil	Ob	891	-0.550000011920929	15.999
892	Ob	1	Sil	Ob	892	-0.550000011920929	15.999
893	Ob	1	Sil	Ob	893	-0.550000011920929	15.999
894	Ob	1	Sil	Ob	894	-0.550000011920929	15.999
895	Ob	1	Sil	Ob	895	-0.550000011920929	15.999
896	Ob	1	Sil	Ob	896	-0.550000011920929	15.999
897	Ob	1	Sil	Ob	897	-0.550000011920929	15.999
898	Ob	1	Sil	Ob	898	-0.550000011920929	15.999
899	Ob	1	Sil	Ob	899	-0.550000011920929	15.999
900	Ob	1	Sil	Ob	900	-0.550000011920929	15.999
901	Ob	1	Sil	Ob	901	-0.550000011920929	15.999
902	Ob	1	Sil	Ob	902	-0.550000011920929	15.999
903	Ob	1	Sil	Ob	903	-0.550000011920929	15.999
904	Ob	1	Sil	Ob	904	-0.550000011920929	15.999
905	Ob	1	Sil	Ob	905	-0.550000011920929	15.999
906	Ob	1	Sil	Ob	906	-0.550000011920929	15.999
907	Ob	1	Sil	Ob	907	-0.550000011920929	15.999
908	Ob	1	Sil	Ob	908	-0.550000011920929	15.999
909	Ob	1	Sil	Ob	909	-0.550000011920929	15.999
910	Ob	1	Sil	Ob	910	-0.550000011920929	15.999
911	Ob	1	Sil	Ob	911	-0.550000011920929	15.999
912	Ob	1	Sil	Ob	912	-0.550000011920929	15.999
913	Ob	1	Sil	Ob	913	-0.550000011920929	15.999
914	Ob	1	Sil	Ob	914	-0.550000011920929	15.999
915	Ob	1	Sil	Ob	915	-0.550000011920929	15.999
916	Ob	1	Sil	Ob	916	-0.550000011920929	15.999
917	Ob	1	Sil	Ob	917	-0.550000011920929	15.999
918	Ob	1	Sil	Ob	918	-0.550000011920929	15.999
919	Ob	1	Sil	Ob	919	-0.550000011920929	15.999
920	Ob	1	Sil	Ob	920	-0.550000011920929	15.999
921	Ob	1	Sil	Ob	921	-0.550000011920929	15.999
922	Ob	1	Sil	Ob	922	-0.550000011920929	15.999
923	Ob	1	Sil	Ob	923	-0.550000011920929	15.999
924	Ob	1	Sil	Ob	924	-0.550000011920929	15.999
925	Ob	1	Sil	Ob	925	-0.550000011920929	15.999
926	Ob	1	Sil	Ob	926	-0.550000011920929	15.999
927	Ob	1	Sil	Ob	927	-0.550000011920929	15.999
928	Ob	1	Sil	Ob	928	-0.550000011920929	15.999
929	Ob	1	Sil	Ob	929	-0.550000011920929	15.999
930	Ob	1	Sil	Ob	930	-0.550000011920929	15.999
931	Ob	1	Sil	Ob	931	-0.550000011920929	15.999
932	Ob	1	Sil	Ob	932	-0.550000011920929	15.999
933	Ob	1	Sil	Ob	933	-0.550000011920929	15.999
934	Ob	1	Sil	Ob	934	-0.550000011920929	15.999
935	Ob	1	Sil	Ob	935	-0.550000011920929	15.999
936	Ob	1	Sil	Ob	936	-0.550000011920929	15.999
937	Ob	1	Sil	Ob	937	-0.550000011920929	15.999
938	Ob	1	Sil	Ob	938	-0.550000011920929	15.999
939	Ob	1	Sil	Ob	939	-0.550000011920929	15.999
940	Ob	1	Sil	Ob	940	-0.550000011920929	15.999
941	Ob	1	Sil	Ob	941	-0.550000011920929	15.999
942	Ob	1	Sil	Ob	942	-0.550000011920929	15.999
943	Ob	1	Sil	Ob	943	-0.550000011920929	15.999
944	Ob	1	Sil	Ob	944	-0.550000011920929	15.999
945	Ob	1	Sil	Ob	945	-0.550000011920929	15.999
946	Ob	1	Sil	Ob	946	-0.550000011920929	15.999
947	Ob	1	Sil	Ob	947	-0.550000011920929	15.999
948	Ob	1	Sil	Ob	948	-0.550000011920929	15.999
949	Ob	1	Sil	Ob	949	-0.550000011920929	15.999
950	Ob	1	Sil	Ob	950	-0.550000011920929	15.999
951	Ob	1	Sil	Ob	951	-0.550000011920929	15.999
952	Ob	1	Sil	Ob	952	-0.550000011920929	15.999
953	Ob	1	Sil	Ob	953	-0.550000011920929	15.999
954	Ob	1	Sil	Ob	954	-0.550000011920929	15.999
955	Ob	1	Sil	Ob	955	-0.550000011920929	15.999
956	Ob	1	Sil	Ob	956	-0.550000011920929	15.999
957	Ob	1	Sil	Ob	957	-0.550000011920929	15.999
958	Ob	1	Sil	Ob	958	-0.550000011920929	15.999
959	Ob	1	Sil	Ob	959	-0.550000011920929	15.999
960	Ob	1	Sil	Ob	960	-0.550000011920929	15.999
961	Ob	1	Sil	Ob	961	-0.550000011920929	15.999
962	Ob	1	Sil	Ob	962	-0.550000011920929	15.999
963	Ob	1	Sil	Ob	963	-0.550000011920929	15.999
964	Ob	1	Sil	Ob	964	-0.550000011920929	15.999
965	Ob	1	Sil	Ob	965	-0.550000011920929	15.999
966	Ob	1	Sil	Ob	966	-0.550000011920929	15.999
967	Ob	1	Sil	Ob	967	-0.550000011920929	15.999
968	Ob	1	Sil	Ob	968	-0.550000011920929	15.999
969	Ob	1	Sil	Ob	969	-0.550000011920929	15.999
970	Ob	1	Sil	Ob	970	-0.550000011920929	15.999
971	Ob	1	Sil	Ob	971	-0.550000011920929	15.999
972	Ob	1	Sil	Ob	972	-0.550000011920929	15.999
973	Ob	1	Sil	Ob	973	-0.550000011920929	15.999
974	Ob	1	Sil	Ob	974	-0.550000011920929	15.999
975	Ob	1	Sil	Ob	975	-0.550000011920929	15.999
976	Ob	1	Sil	Ob	976	-0.550000011920929	15.999
977	Ob	1	Sil	Ob	977	-0.550000011920929	15.999
978	Ob	1	Sil	Ob	978	-0.550000011920929	15.999
979	Ob	1	Sil	Ob	979	-0.550000011920929	15.999
980	Ob	1	Sil	Ob	980	-0.550000011920929	15.999
981	Ob	1	Sil	Ob	981	-0.550000011920929	15.999
982	Ob	1	Sil	Ob	982	-0.550000011920929	15.999
983	Ob	1	Sil	Ob	983	-0.550000011920929	15.999
984	Ob	1	Sil	Ob	984	-0.550000011920929	15.999
985	Ob	1	Sil	Ob	985	-0.550000011920929	15.999
986	Ob	1	Sil	Ob	986	-0.550000011920929	15.999
987	Ob	1	Sil	Ob	987	-0.550000011920929	15.999
988	Ob	1	Sil	Ob	988	-0.550000011920929	15.999
989	Ob	1	Sil	Ob	989	-0.550000011920929	15.999
990	Ob	1	Sil	Ob	990	-0.550000011920929	15.999
991	Ob	1	Sil	Ob	991	-0.550000011920929	15.999
992	Ob	1	Sil	Ob	992	-0.550000011920929	15.999
993	Ob	1	Sil	Ob	993	-0.550000011920929	15.999
994	Ob	1	Sil	Ob	994	-0.550000011920929	15.999
995	Ob	1	Sil	Ob	995	-0.550000011920929	15.999
996	Ob	1	Sil	Ob	996	-0.550000011920929	15.999
997	Ob	1	Sil	Ob	997	-0.550000011920929	15.999
998	Ob	1	Sil	Ob	998	-0.550000011920929	15.999
999	Ob	1	Sil	Ob	999	-0.550000011920929	15.999
1000	Ob	1	Sil	Ob	1000	-0.550000011920929	15.999
1001	Ob	1	Sil	Ob	1001	-0.550000011920929	15.999
1002	Ob	1	Sil	Ob	1002	-0.550000011920929	15.999
1003	Ob	1	Sil	Ob	1003	-0.550000011920929	15.999
1004	Ob	1	Sil	Ob	1004	-0.550000011920929	15.999
1005	Ob	1	Sil	Ob	1005	-0.550000011920929	15.999
1006	Ob	1	Sil	Ob	1006	-0.550000011920929	15.999
1007	Ob	1	Sil	Ob	1007	-0.550000011920929	15.999
1008	Ob	1	Sil	Ob	1008	-0.550000011920929	15.999
1009	Ob	1	Sil	Ob	1009	-0.550000011920929	15.999
1010	Ob	1	Sil	Ob	1010	-0.550000011920929	15.999
1011	Ob	1	Sil	Ob	1011	-0.550000011920929	15.999
1012	Ob	1	Sil	Ob	1012	-0.550000011920929	15.999
1013	Ob	1	Sil	Ob	1013	-0.550000011920929	15.999
1014	Ob	1	Sil	Ob	1014	-0.550000011920929	15.999
1015	Ob	1	Sil	Ob	1015	-0.550000011920929	15.999
1016	Ob	1	Sil	Ob	1016	-0.550000011920929	15.999
1017	Ob	1	Sil	Ob	1017	-0.550000011920929	15.999
1018	Ob	1	Sil	Ob	1018	-0.550000011920929	15.999
1019	Ob	1	Sil	Ob	1019	-0.550000011920929	15.999
1020	Ob	1	Sil	Ob	1020	-0.550000011920929	15.999
1021	Ob	1	Sil	Ob	1021	-0.550000011920929	15.999
1022	Ob	1	Sil	Ob	1022	-0.550000011920929	15.999
1023	Ob	1	Sil	Ob	1023	-0.550000011920929	15.999
1024	Ob	1	Sil	Ob	1024	-0.550000011920929	15.999
1025	Ob	1	Sil	Ob	1025	-0.550000011920929	15.999
1026	Ob	1	Sil	Ob	1026	-0.550000011920929	15.999
1027	Ob	1	Sil	Ob	1027	-0.550000011920929	15.999
1028	Ob	1	Sil	Ob	1028	-0.550000011920929	15.999
1029	Ob	1	Sil	Ob	1029	-0.550000011920929	15.999
1030	Ob	1	Sil	Ob	1030	-0.550000011920929	15.999
1031	Ob	1	Sil	Ob	1031	-0.550000011920929	15.999
1032	Ob	1	Sil	Ob	1032	-0.550000011920929	15.999
1033	Ob	1	Sil	Ob	1033	-0.550000011920929	15.999
1034	Ob	1	Sil	Ob	1034	-0.550000011920929	15.999
1035	Ob	1	Sil	Ob	1035	-0.550000011920929	15.999
1036	Ob	1	Sil	Ob	1036	-0.550000011920929	15.999
1037	Ob	1	Sil	Ob	1037	-0.550000011920929	15.999
1038	Ob	1	Sil	Ob	1038	-0.550000011920929	15.999
1039	Ob	1	Sil	Ob	1039	-0.550000011920929	15.999
1040	Ob	1	Sil	Ob	1040	-0.550000011920929	15.999
1041	Ob	1	Sil	Ob	1041	-0.550000011920929	15.999
1042	Ob	1	Sil	Ob	1042	-0.550000011920929	15.999
1043	Ob	1	Sil	Ob	1043	-0.550000011920929	15.999
1044	Ob	1	Sil	Ob	1044	-0.550000011920929	15.999
1045	Ob	1	Sil	Ob	1045	-0.550000011920929	15.999
1046	Ob	1	Sil	Ob	1046	-0.550000011920929	15.999
1047	Ob	1	Sil	Ob	1047	-0.550000011920929	15.999
1048	Ob	1	Sil	Ob	1048	-0.550000011920929	15.999
1049	Ob	1	Sil	Ob	1049	-0.550000011920929	15.999
1050	Ob	1	Sil	Ob	1050	-0.550000011920929	15.999
1051	Ob	1	Sil	Ob	1051	-0.550000011920929	15.999
1052	Ob	1	Sil	Ob	1052	-0.550000011920929	15.999
1053	Ob	1	Sil	Ob	1053	-0.550000011920929	15.999
1054	Ob	1	Sil	Ob	1054	-0.550000011920929	15.999
1055	Ob	1	Sil	Ob	1055	-0.550000011920929	15.999
1056	Ob	1	Sil	Ob	1056	-0.550000011920929	15.999
1057	Ob	1	Sil	Ob	1057	-0.550000011920929	15.999
1058	Ob	1	Sil	Ob	1058	-0.550000011920929	15.999
1059	Ob	1	Sil	Ob	1059	-0.550000011920929	15.999
1060	Ob	1	Sil	Ob	1060	-0.550000011920929	15.999
1061	Ob	1	Sil	Ob	1061	-0.550000011920929	15.999
1062	Ob	1	Sil	Ob	1062	-0.550000011920929	15.999
1063	Ob	1	Sil	Ob	1063	-0.550000011920929	15.999
1064	Ob	1	Sil	Ob	1064	-0.550000011920929	15.999
1065	Ob	1	Sil	Ob	1065	-0.550000011920929	15.999
1066	Ob	1	Sil	Ob	1066	-0.550000011920929	15.999
1067	Ob	1	Sil	Ob	1067	-0.550000011920929	15.999
1068	Ob	1	Sil	Ob	1068	-0.550000011920929	15.999
1069	Ob	1	Sil	Ob	1069	-0.550000011920929	15.999
1070	Ob	1	Sil	Ob	1070	-0.550000011920929	15.999
1071	Ob	1	Sil	Ob	1071	-0.550000011920929	15.999
1072	Ob	1	Sil	Ob	1072	-0.550000011920929	15.999
1073	Ob	1	Sil	Ob	1073	-0.550000011920929	15.999
1074	Ob	1	Sil	Ob	1074	-0.550000011920929	15.999
1075	Ob	1	Sil	Ob	1075	-0.550000011920929	15.999
1076	Ob	1	Sil	Ob	1076	-0.550000011920929	15.999
1077	Ob	1	Sil	Ob	1077	-0.550000011920929	15.999
1078	Ob	1	Sil	Ob	1078	-0.550000011920929	15.999
1079	Ob	1	Sil	Ob	1079	-0.550000011920929	15.999
1080	Ob	1	Sil	Ob	1080	-0.550000011920929	15.999
1081	Ob	1	Sil	Ob	1081	-0.550000011920929	15.999
1082	Ob	1	Sil	Ob	1082	-0.550000011920929	15.999
1083	Ob	1	Sil	Ob	1083	-0.550000011920929	15.999
1084	Ob	1	Sil	Ob	1084	-0.550000011920929	15.999
1085	Ob	1	Sil	Ob	1085	-0.550000011920929	15.999
1086	Ob	1	Sil	Ob	1086	-0.550000011920929	15.999
1087	Ob	1	Sil	Ob	1087	-0.550000011920929	15.999
1088	Ob	1	Sil	Ob	1088	-0.550000011920929	15.999
1089	Ob	1	Sil	Ob	1089	-0.550000011920929	15.999
1090	Ob	1	Sil	Ob	1090	-0.550000011920929	15.999
1091	Ob	1	Sil	Ob	1091	-0.550000011920929	15.999
1092	Ob	1	Sil	Ob	1092	-0.550000011920929	15.999
1093	Ob	1	Sil	Ob	1093	-0.550000011920929	15.999
1094	Ob	1	Sil	Ob	1094	-0.550000011920929	15.999
1095	Ob	1	Sil	Ob	1095	-0.550000011920929	15.999
1096	Ob	1	Sil	Ob	1096	-0.550000011920929	15.999
1097	Ob	1	Sil	Ob	1097	-0.550000011920929	15.999
1098	Ob	1	Sil	Ob	1098	-0.550000011920929	15.999
1099	Ob	1	Sil	Ob	1099	-0.550000011920929	15.999
1100	Ob	1	Sil	Ob	1100	-0.550000011920929	15.999
1101	Ob	1	Sil	Ob	1101	-0.550000011920929	15.999
1102	Ob	1	Sil	Ob	1102	-0.550000011920929	15.999
1103	Ob	1	Sil	Ob	1103	-0.550000011920929	15.999
1104	Ob	1	Sil	Ob	1104	-0.550000011920929	15.999
1105	Ob	1	Sil	Ob	1105	-0.550000011920929	15.999
1106	Ob	1	Sil	Ob	1106	-0.550000011920929	15.999
1107	Ob	1	Sil	Ob	1107	-0.550000011920929	15.999
1108	Ob	1	Sil	Ob	1108	-0.550000011920929	15.999
1109	Ob	1	Sil	Ob	1109	-0.550000011920929	15.999
1110	Ob	1	Sil	Ob	1110	-0.550000011920929	15.999
1111	Ob	1	Sil	Ob	1111	-0.550000011920929	15.999
1112	Ob	1	Sil	Ob	1112	-0.550000011920929	15.999
1113	Ob	1	Sil	Ob	1113	-0.550000011920929	15.999
1114	Ob	1	Sil	Ob	1114	-0.550000011920929	15.999
1115	Ob	1	Sil	Ob	1115	-0.550000011920929	15.999
1116	Ob	1	Sil	Ob	1116	-0.550000011920929	15.999
1117	Ob	1	Sil	Ob	1117	-0.550000011920929	15.999
1118	Ob	1	Sil	Ob	1118	-0.550000011920929	15.999
1119	Ob	1	Sil	Ob	1119	-0.550000011920929	15.999
1120	Ob	1	Sil	Ob	1120	-0.550000011920929	15.999
1121	Ob	1	Sil	Ob	1121	-0.550000011920929	15.999
1122	Ob	1	Sil	Ob	1122	-0.550000011920929	15.999
1123	Ob	1	Sil	Ob	1123	-0.550000011920929	15.999
1124	Ob	1	Sil	Ob	1124	-0.550000011920929	15.999
1125	Ob	1	Sil	Ob	1125	-0.550000011920929	15.999
1126	Ob	1	Sil	Ob	1126	-0.550000011920929	15.999
1127	Ob	1	Sil	Ob	1127	-0.550000011920929	15.999
1128	Ob	1	Sil	Ob	1128	-0.550000011920929	15.999
1129	Ob	1	Sil	Ob	1129	-0.550000011920929	15.999
1130	Ob	1	Sil	Ob	1130	-0.550000011920929	15.999
1131	Ob	1	Sil	Ob	1131	-0.550000011920929	15.999
1132	Ob	1	Sil	Ob	1132	-0.550000011920929	15.999
1133	Ob	1	Sil	Ob	1133	-0.550000011920929	15.999
1134	Ob	1	Sil	Ob	1134	-0.550000011920929	15.999
1135	Ob	1	Sil	Ob	1135	-0.550000011920929	15.999
1136	Ob	1	Sil	Ob	1136	-0.550000011920929	15.999
1137	Ob	1	Sil	Ob	1137	-0.550000011920929	15.999
1138	Ob	1	Sil	Ob	1138	-0.550000011920929	15.999
1139	Ob	1	Sil	Ob	1139	-0.550000011920929	15.999
1140	Ob	1	Sil	Ob	1140	-0.550000011920929	15.999
1141	Ob	1	Sil	Ob	1141	-0.550000011920929	15.999
1142	Ob	1	Sil	Ob	1142	-0.550000011920929	15.999
1143	Ob	1	Sil	Ob	1143	-0.550000011920929	15.999
1144	Ob	1	Sil	Ob	1144	-0.550000011920929	15.999
1145	Ob	1	Sil	Ob	1145	-0.550000011920929	15.999
1146	Ob	1	Sil	Ob	1146	-0.550000011920929	15.999
1147	Ob	1	Sil	Ob	1147	-0.550000011920929	15.999
1148	Ob	1	Sil	Ob	1148	-0.550000011920929	15.999
1149	Ob	1	Sil	Ob	1149	-0.550000011920929	15.999
1150	Ob	1	Sil	Ob	1150	-0.550000011920929	15.999
1151	Ob	1	Sil	Ob	1151	-0.550000011920929	15.999
1152	Ob	1	Sil	Ob	1152	-0.550000011920929	15.999
1153	Ob	1	Sil	Ob	1153	-0.550000011920929	15.999
1154	Ob	1	Sil	Ob	1154	-0.550000011920929	15.999
1155	Ob	1	Sil	Ob	1155	-0.550000011920929	15.999
1156	Ob	1	Sil	Ob	1156	-0.550000011920929	15.999
1157	Ob	1	Sil	Ob	1157	-0.550000011920929	15.999
1158	Ob	1	Sil	Ob	1158	-0.550000011920929	15.999
1159	Ob	1	Sil	Ob	1159	-0.550000011920929	15.999
1160	Ob	1	Sil	Ob	1160	-0.550000011920929	15.999
1161	Ob	1	Sil	Ob	1161	-0.550000011920929	15.999
1162	Ob	1	Sil	Ob	1162	-0.550000011920929	15.999
1163	Ob	1	Sil	Ob	1163	-0.550000011920929	15.999
1164	Ob	1	Sil	Ob	1164	-0.550000011920929	15.999
1165	Ob	1	Sil	Ob	1165	-0.550000011920929	15.999
1166	Ob	1	Sil	Ob	1166	-0.550000011920929	15.999
1167	Ob	1	Sil	Ob	1167	-0.550000011920929	15.999
1168	Ob	1	Sil	Ob	1168	-0.550000011920929	15.999
1169	Ob	1	Sil	Ob	1169	-0.550000011920929	15.999
1170	Ob	1	Sil	Ob	1170	-0.550000011920929	15.999
1171	Ob	1	Sil	Ob	1171	-0.550000011920929	15.999
1172	Ob	1	Sil	Ob	1172	-0.550000011920929	15.999
1173	Ob	1	Sil	Ob	1173	-0.550000011920929	15.999
1174	Ob	1	Sil	Ob	1174	-0.550000011920929	15.999
1175	Ob	1	Sil	Ob	1175	-0.550000011920929	15.999
1176	Ob	1	Sil	Ob	1176	-0.550000011920929	15.999
1177	Ob	1	Sil	Ob	1177	-0.550000011920929	15.999
1178	Ob	1	Sil	Ob	1178	-0.550000011920929	15.999
1179	Ob	1	Sil	Ob	1179	-0.550000011920929	15.999
1180	Ob	1	Sil	Ob	1180	-0.550000011920929	15.999
1181	Ob	1	Sil	Ob	1181	-0.550000011920929	15.999
1182	Ob	1	Sil	Ob	1182	-0.550000011920929	15.999
1183	Ob	1	Sil	Ob	1183	-0.550000011920929	15.999
1184	Ob	1	Sil	Ob	1184	-0.550000011920929	15.999
1185	Ob	1	Sil	Ob	1185	-0.550000011920929	15.999
1186	Ob	1	Sil	Ob	1186	-0.550000011920929	15.999
1187	Ob	1	Sil	Ob	1187	-0.550000011920929	15.999
1188	Ob	1	Sil	Ob	1188	-0.550000011920929	15.999
1189	Ob	1	Sil	Ob	1189	-0.550000011920929	15.999
1190	Ob	1	Sil	Ob	1190	-0.550000011920929	15.999
1191	Ob	1	Sil	Ob	1191	-0.550000011920929	15.999
1192	Ob	1	Sil	Ob	1192	-0.550000011920929	15.999
1193	Ob	1	Sil	Ob	1193	-0.550000011920929	15.999
1194	Ob	1	Sil	Ob	1194	-0.550000011920929	15.999
1195	Ob	1	Sil	Ob	1195	-0.550000011920929	15.999
1196	Ob	1	Sil	Ob	1196	-0.550000011920929	15.999
1197	Ob	1	Sil	Ob	1197	-0.550000011920929	15.999
1198	Ob	1	Sil	Ob	1198	-0.550000011920929	15.999
1199	Ob	1	Sil	Ob	1199	-0.550000011920929	15.999
1200	Ob	1	Sil	Ob	1200	-0.550000011920929	15.999
1201	Ob	1	Sil	Ob	1201	-0.550000011920929	15.999
1202	Ob	1	Sil	Ob	1202	-0.550000011920929	15.999
1203	Ob	1	Sil	Ob	1203	-0.550000011920929	15.999
1204	Ob	1	Sil	Ob	1204	-0.550000011920929	15.999
1205	Ob	1	Sil	Ob	1205	-0.550000011920929	15.999
1206	Ob	1	Sil	Ob	1206	-0.550000011920929	15.999
1207	Ob	1	Sil	Ob	1207	-0.550000011920929	15.999
1208	Ob	1	Sil	Ob	1208	-0.550000011920929	15.999
1209	Ob	1	Sil	Ob	1209	-0.550000011920929	15.999
1210	Ob	1	Sil	Ob	1210	-0.550000011920929	15.999
1211	Ob	1	Sil	Ob	1211	-0.550000011920929	15.999
1212	Ob	1	Sil	Ob	1212	-0.550000011920929	15.999
1213	Ob	1	Sil	Ob	1213	-0.550000011920929	15.999
1214	Ob	1	Sil	Ob	1214	-0.550000011920929	15.999
1215	Ob	1	Sil	Ob	1215	-0.550000011920929	15.999
1216	Ob	1	Sil	Ob	1216	-0.550000011920929	15.999
1217	Ob	1	Sil	Ob	1217	-0.550000011920929	15.999
1218	Ob	1	Sil	Ob	1218	-0.550000011920929	15.999
1219	Ob	1	Sil	Ob	1219	-0.550000011920929	15.999
1220	Ob	1	Sil	Ob	1220	-0.550000011920929	15.999
1221	Ob	1	Sil	Ob	1221	-0.550000011920929	15.999
1222	Ob	1	Sil	Ob	1222	-0.550000011920929	15.999
1223	Ob	1	Sil	Ob	1223	-0.550000011920929	15.999
1224	Ob	1	Sil	Ob	1224	-0.550000011920929	15.999
1225	Ob	1	Sil	Ob	1225	-0.550000011920929	15.999
1226	Ob	1	Sil	Ob	1226	-0.550000011920929	15.999
1227	Ob	1	Sil	Ob	1227	-0.550000011920929	15.999
1228	Ob	1	Sil	Ob	1228	-0.550000011920929	15.999
1229	Ob	1	Sil	Ob	1229	-0.550000011920929	15.999
1230	Ob	1	Sil	Ob	1230	-0.550000011920929	15.999
1231	Ob	1	Sil	Ob	1231	-0.550000011920929	15.999
1232	Ob	1	Sil	Ob	1232	-0.550000011920929	15.999
1233	Ob	1	Sil	Ob	1233	-0.550000011920929	15.999
1234	Ob	1	Sil	Ob	1234	-0.550000011920929	15.999
1235	Ob	1	Sil	Ob	1235	-0.550000011920929	15.999
1236	Ob	1	Sil	Ob	1236	-0.550000011920929	15.999
1237	Ob	1	Sil	Ob	1237	-0.550000011920929	15.999
1238	Ob	1	Sil	Ob	1238	-0.550000011920929	15.999
1239	Ob	1	Sil	Ob	1239	-0.550000011920929	15.999
1240	Ob	1	Sil	Ob	1240	-0.550000011920929	15.999
1241	Ob	1	Sil	Ob	1241	-0.550000011920929	15.999
1242	Ob	1	Sil	Ob	1242	-0.550000011920929	15.999
1243	Ob	1	Sil	Ob	1243	-0.550000011920929	15.999
1244	Ob	1	Sil	Ob	1244	-0.550000011920929	15.999
1245	Ob	1	Sil	Ob	1245	-0.550000011920929	15.999
1246	Ob	1	Sil	Ob	1246	-0.550000011920929	15.999
1247	Ob	1	Sil	Ob	1247	-0.550000011920929	15.999
1248	Ob	1	Sil	Ob	1248	-0.550000011920929	15.999
1249	Ob	1	Sil	Ob	1249	-0.550000011920929	15.999
1250	Ob	1	Sil	Ob	1250	-0.550000011920929	15.999
1251	Ob	1	Sil	Ob	1251	-0.550000011920929	15.999
1252	Ob	1	Sil	Ob	1252	-0.550000011920929	15.999
1253	Ob	1	Sil	Ob	1253	-0.550000011920929	15.999
1254	Ob	1	Sil	Ob	1254	-0.550000011920929	15.999
1255	Ob	1	Sil	Ob	1255	-0.550000011920929	15.999
1256	Ob	1	Sil	Ob	1256	-0.550000011920929	15.999
1257	Ob	1	Sil	Ob	1257	-0.550000011920929	15.999
1258	Ob	1	Sil	Ob	1258	-0.550000011920929	15.999
1259	Ob	1	Sil	Ob	1259	-0.550000011920929	15.999
1260	Ob	1	Sil	Ob	1260	-0.550000011920929	15.999
1261	Ob	1	Sil	Ob	1261	-0.550000011920929	15.999
1262	Ob	1	Sil	Ob	1262	-0.550000011920929	15.999
1263	Ob	1	Sil	Ob	1263	-0.550000011920929	15.999
1264	Ob	1	Sil	Ob	1264	-0.550000011920929	15.999
1265	Ob	1	Sil	Ob	1265	-0.550000011920929	15.999
1266	Ob	1	Sil	Ob	1266	-0.550000011920929	15.999
1267	Ob	1	Sil	Ob	1267	-0.550000011920929	15.999
1268	Ob	1	Sil	Ob	1268	-0.550000011920929	15.999
1269	Ob	1	Sil	Ob	1269	-0.550000011920929	15.999
1270	Ob	1	Sil	Ob	1270	-0.550000011920929	15.999
1271	Ob	1	Sil	Ob	1271	-0.550000011920929	15.999
1272	Ob	1	Sil	Ob	1272	-0.550000011920929	15.999
1273	Ob	1	Sil	Ob	1273	-0.550000011920929	15.999
1274	Ob	1	Sil	Ob	1274	-0.550000011920929	15.999
1275	Ob	1	Sil	Ob	1275	-0.550000011920929	15.999
1276	Ob	1	Sil	Ob	1276	-0.550000011920929	15.999
1277	Ob	1	Sil	Ob	1277	-0.550000011920929	15.999
1278	Ob	1	Sil	Ob	1278	-0.550000011920929	15.999
1279	Ob	1	Sil	Ob	1279	-0.550000011920929	15.999
1280	Ob	1	Sil	Ob	1280	-0.550000011920929	15.999
1281	Ob	1	Sil	Ob	1281	-0.550000011920929	15.999
1282	Ob	1	Sil	Ob	1282	-0.550000011920929	15.999
1283	Ob	1	Sil	Ob	1283	-0.550000011920929	15.999
1284	Ob	1	Sil	Ob	1284	-0.550000011920929	15.999
1285	Ob	1	Sil	Ob	1285	-0.550000011920929	15.999
1286	Ob	1	Sil	Ob	1286	-0.550000011920929	15.999
1287	Ob	1	Sil	Ob	1287	-0.550000011920929	15.999
1288	Ob	1	Sil	Ob	1288	-0.550000011920929	15.999
1289	Ob	1	Sil	Ob	1289	-0.550000011920929	15.999
1290	Ob	1	Sil	Ob	1290	-0.550000011920929	15.999
1291	Ob	1	Sil	Ob	1291	-0.550000011920929	15.999
1292	Ob	1	Sil	Ob	1292	-0.550000011920929	15.999
1293	Ob	1	Sil	Ob	1293	-0.550000011920929	15.999
1294	Ob	1	Sil	Ob	1294	-0.550000011920929	15.999
1295	Ob	1	Sil	Ob	1295	-0.550000011920929	15.999
1296	Ob	1	Sil	Ob	1296	-0.550000011920929	15.999
1297	Ob	1	Sil	Ob	1297	-0.550000011920929	15.999
1298	Ob	1	Sil	Ob	1298	-0.550000011920929	15.999
1299	Ob	1	Sil	Ob	1299	-0.550000011920929	15.999
1300	Ob	1	Sil	Ob	1300	-0.550000011920929	15.999
1301	Ob	1	Sil	Ob	1301	-0.550000011920929	15.999
1302	Ob	1	Sil	Ob	1302	-0.550000011920929	15.999
1303	Ob	1	Sil	Ob	1303	-0.550000011920929	15.999
1304	Ob	1	Sil	Ob	1304	-0.550000011920929	15.999
1305	Ob	1	Sil	Ob	1305	-0.550000011920929	15.999
1306	Ob	1	Sil	Ob	1306	-0.550000011920929	15.999
1307	Ob	1	Sil	Ob	1307	-0.550000011920929	15.999
1308	Ob	1	Sil	Ob	1308	-0.550000011920929	15.999
1309	Ob	1	Sil	Ob	1309	-0.550000011920929	15.999
1310	Ob	1	Sil	Ob	1310	-0.550000011920929	15.999
1311	Ob	1	Sil	Ob	1311	-0.550000011920929	15.999
1312	Ob	1	Sil	Ob	1312	-0.550000011920929	15.999
1313	Ob	1	Sil	Ob	1313	-0.550000011920929	15.999
1314	Ob	1	Sil	Ob	1314	-0.550000011920929	15.999
1315	Ob	1	Sil	Ob	1315	-0.550000011920929	15.999
1316	Ob	1	Sil	Ob	1316	-0.550000011920929	15.999
1317	Cm	1	Sil	Cm	1317	-0.3499999940395355	12.011
1318	Cm	1	Sil	Cm	1318	-0.3499999940395355	12.011
1319	Cm	1	Sil	Cm	1319	-0.3499999940395355	12.011
1320	Cm	1	Sil	Cm	1320	-0.3499999940395355	12.011
1321	Cm	1	Sil	Cm	1321	-0.3499999940395355	12.011
1322	Cm	1	Sil	Cm	1322	-0.3499999940395355	12.011
1323	Cm	1	Sil	Cm	1323	-0.3499999940395355	12.011
1324	Cm	1	Sil	Cm	1324	-0.3499999940395355	12.011
1325	Cm	1	Sil	Cm	1325	-0.3499999940395355	12.011
1326	Cm	1	Sil	Cm	1326	-0.3499999940395355	12.011
1327	Cm	1	Sil	Cm	1327	-0.3499999940395355	12.011
1328	Cm	1	Sil	Cm	1328	-0.3499999940395355	12.011
1329	Cm	1	Sil	Cm	1329	-0.3499999940395355	12.011
1330	Cm	1	Sil	Cm	1330	-0.3499999940395355	12.011
1331	Cm	1	Sil	Cm	1331	-0.3499999940395355	12.011
1332	Cm	1	Sil	Cm	1332	-0.3499999940395355	12.011
1333	Cm	1	Sil	Cm	1333	-0.3499999940395355	12.011
1334	Cm	1	Sil	Cm	1334	-0.3499999940395355	12.011
1335	Cm	1	Sil	Cm	1335	-0.3499999940395355	12.011
1336	Cm	1	Sil	Cm	1336	-0.3499999940395355	12.011
1337	Cm	1	Sil	Cm	1337	-0.3499999940395355	12.011
1338	Cm	1	Sil	Cm	1338	-0.3499999940395355	12.011
1339	Cm	1	Sil	Cm	1339	-0.3499999940395355	12.011
1340	Cm	1	Sil	Cm	1340	-0.3499999940395355	12.011
1341	Cm	1	Sil	Cm	1341	-0.3499999940395355	12.011
1342	Cm	1	Sil	Cm	1342	-0.3499999940395355	12.011
1343	Cm	1	Sil	Cm	1343	-0.3499999940395355	12.011
1344	Cm	1	Sil	Cm	1344	-0.3499999940395355	12.011
1345	Cm	1	Sil	Cm	1345	-0.3499999940395355	12.011
1346	Cm	1	Sil	Cm	1346	-0.3499999940395355	12.011
1347	Cm	1	Sil	Cm	1347	-0.3499999940395355	12.011
1348	Cm	1	Sil	Cm	1348	-0.3499999940395355	12.011
1349	Cm	1	Sil	Cm	1349	-0.3499999940395355	12.011
1350	Cm	1	Sil	Cm	1350	-0.3499999940395355	12.011
1351	Cm	1	Sil	Cm	1351	-0.3499999940395355	12.011
1352	Cm	1	Sil	Cm	1352	-0.3499999940395355	12.011
1353	Cm	1	Sil	Cm	1353	-0.3499999940395355	12.011
1354	Cm	1	Sil	Cm	1354	-0.3499999940395355	12.011
1355	Cm	1	Sil	Cm	1355	-0.3499999940395355	12.011
1356	Cm	1	Sil	Cm	1356	-0.3499999940395355	12.011
1357	Cm	1	Sil	Cm	1357	-0.3499999940395355	12.011
1358	Cm	1	Sil	Cm	1358	-0.3499999940395355	12.011
1359	Cm	1	Sil	Cm	1359	-0.3499999940395355	12.011
1360	Cm	1	Sil	Cm	1360	-0.3499999940395355	12.011
1361	Cm	1	Sil	Cm	1361	-0.3499999940395355	12.011
1362	Cm	1	Sil	Cm	1362	-0.3499999940395355	12.011
1363	Cm	1	Sil	Cm	1363	-0.3499999940395355	12.011
1364	Cm	1	Sil	Cm	1364	-0.3499999940395355	12.011
1365	Cm	1	Sil	Cm	1365	-0.3499999940395355	12.011
1366	Cm	1	Sil	Cm	1366	-0.3499999940395355	12.011
1367	Cm	1	Sil	Cm	1367	-0.3499999940395355	12.011
1368	Cm	1	Sil	Cm	1368	-0.3499999940395355	12.011
1369	Cm	1	Sil	Cm	1369	-0.3499999940395355	12.011
1370	Cm	1	Sil	Cm	1370	-0.3499999940395355	12.011
1371	Cm	1	Sil	Cm	1371	-0.3499999940395355	12.011
1372	Cm	1	Sil	Cm	1372	-0.3499999940395355	12.011
1373	Sib	1	Sil	Sib	1373	1.100000023841858	28.0855
1374	Sib	1	Sil	Sib	1374	1.100000023841858	28.0855
1375	Sib	1	Sil	Sib	1375	1.100000023841858	28.0855
1376	Sib	1	Sil	Sib	1376	1.100000023841858	28.0855
1377	Sib	1	Sil	Sib	1377	1.100000023841858	28.0855
1378	Sim	1	Sil	Sim	1378	0.9110000133514404	28.0855
1379	Sib	1	Sil	Sib	1379	1.100000023841858	28.0855
1380	Sib	1	Sil	Sib	1380	1.100000023841858	28.0855
1381	Sib	1	Sil	Sib	1381	1.100000023841858	28.0855
1382	Sib	1	Sil	Sib	1382	1.100000023841858	28.0855
1383	Sib	1	Sil	Sib	1383	1.100000023841858	28.0855
1384	Sib	1	Sil	Sib	1384	1.100000023841858	28.0855
1385	Sib	1	Sil	Sib	1385	1.100000023841858	28.0855
1386	Sib	1	Sil	Sib	1386	1.100000023841858	28.0855
1387	Sib	1	Sil	Sib	1387	1.100000023841858	28.0855
1388	Sib	1	Sil	Sib	1388	1.100000023841858	28.0855
1389	Sib	1	Sil	Sib	1389	1.100000023841858	28.0855
1390	Sib	1	Sil	Sib	1390	1.100000023841858	28.0855
1391	Sib	1	Sil	Sib	1391	1.100000023841858	28.0855
1392	Sib	1	Sil	Sib	1392	1.100000023841858	28.0855
1393	Sib	1	Sil	Sib	1393	1.100000023841858	28.0855
1394	Sib	1	Sil	Sib	1394	1.100000023841858	28.0855
1395	Sim	1	Sil	Sim	1395	0.9110000133514404	28.0855
1396	Sib	1	Sil	Sib	1396	1.100000023841858	28.0855
1397	Sim	1	Sil	Sim	1397	0.9110000133514404	28.0855
1398	Sib	1	Sil	Sib	1398	1.100000023841858	28.0855
1399	Sib	1	Sil	Sib	1399	1.100000023841858	28.0855
1400	Sib	1	Sil	Sib	1400	1.100000023841858	28.0855
1401	Sib	1	Sil	Sib	1401	1.100000023841858	28.0855
1402	Sim	1	Sil	Sim	1402	0.9110000133514404	28.0855
1403	Sib	1	Sil	Sib	1403	1.100000023841858	28.0855
1404	Sib	1	Sil	Sib	1404	1.100000023841858	28.0855
1405	Sib	1	Sil	Sib	1405	1.100000023841858	28.0855
1406	Sib	1	Sil	Sib	1406	1.100000023841858	28.0855
1407	Sib	1	Sil	Sib	1407	1.100000023841858	28.0855
1408	Sib	1	Sil	Sib	1408	1.100000023841858	28.0855
1409	Sib	1	Sil	Sib	1409	1.100000023841858	28.0855
1410	Sib	1	Sil	Sib	1410	1.100000023841858	28.0855
1411	Sib	1	Sil	Sib	1411	1.100000023841858	28.0855
1412	Sib	1	Sil	Sib	1412	1.100000023841858	28.0855
1413	Sib	1	Sil	Sib	1413	1.100000023841858	28.0855
1414	Sib	1	Sil	Sib	1414	1.100000023841858	28.0855
1415	Sim	1	Sil	Sim	1415	0.9110000133514404	28.0855
1416	Sib	1	Sil	Sib	1416	1.100000023841858	28.0855
1417	Sib	1	Sil	Sib	1417	1.100000023841858	28.0855
1418	Sib	1	Sil	Sib	1418	1.100000023841858	28.0855
1419	Sim	1	Sil	Sim	1419	0.9110000133514404	28.0855
1420	Sib	1	Sil	Sib	1420	1.100000023841858	28.0855
1421	Sib	1	Sil	Sib	1421	1.100000023841858	28.0855
1422	Sib	1	Sil	Sib	1422	1.100000023841858	28.0855
1423	Sib	1	Sil	Sib	1423	1.100000023841858	28.0855
1424	Sib	1	Sil	Sib	1424	1.100000023841858	28.0855
1425	Sib	1	Sil	Sib	1425	1.100000023841858	28.0855
1426	Sib	1	Sil	Sib	1426	1.100000023841858	28.0855
1427	Sib	1	Sil	Sib	1427	1.100000023841858	28.0855
1428	Sib	1	Sil	Sib	1428	1.100000023841858	28.0855
1429	Sib	1	Sil	Sib	1429	1.100000023841858	28.0855
1430	Sib	1	Sil	Sib	1430	1.100000023841858	28.0855
1431	Sib	1	Sil	Sib	1431	1.100000023841858	28.0855
1432	Sib	1	Sil	Sib	1432	1.100000023841858	28.0855
1433	Sib	1	Sil	Sib	1433	1.100000023841858	28.0855
1434	Sib	1	Sil	Sib	1434	1.100000023841858	28.0855
1435	Sib	1	Sil	Sib	1435	1.100000023841858	28.0855
1436	Sib	1	Sil	Sib	1436	1.100000023841858	28.0855
1437	Sib	1	Sil	Sib	1437	1.100000023841858	28.0855
1438	Sib	1	Sil	Sib	1438	1.100000023841858	28.0855
1439	Sib	1	Sil	Sib	1439	1.100000023841858	28.0855
1440	Sib	1	Sil	Sib	1440	1.100000023841858	28.0855
1441	Sib	1	Sil	Sib	1441	1.100000023841858	28.0855
1442	Sib	1	Sil	Sib	1442	1.100000023841858	28.0855
1443	Sib	1	Sil	Sib	1443	1.100000023841858	28.0855
1444	Sib	1	Sil	Sib	1444	1.100000023841858	28.0855
1445	Sim	1	Sil	Sim	1445	0.9110000133514404	28.0855
1446	Sib	1	Sil	Sib	1446	1.100000023841858	28.0855
1447	Sib	1	Sil	Sib	1447	1.100000023841858	28.0855
1448	Sib	1	Sil	Sib	1448	1.100000023841858	28.0855
1449	Sib	1	Sil	Sib	1449	1.100000023841858	28.0855
1450	Sib	1	Sil	Sib	1450	1.100000023841858	28.0855
1451	Sib	1	Sil	Sib	1451	1.100000023841858	28.0855
1452	Sib	1	Sil	Sib	1452	1.100000023841858	28.0855
1453	Sib	1	Sil	Sib	1453	1.100000023841858	28.0855
1454	Sib	1	Sil	Sib	1454	1.100000023841858	28.0855
1455	Sib	1	Sil	Sib	1455	1.100000023841858	28.0855
1456	Sib	1	Sil	Sib	1456	1.100000023841858	28.0855
1457	Sib	1	Sil	Sib	1457	1.100000023841858	28.0855
1458	Sib	1	Sil	Sib	1458	1.100000023841858	28.0855
1459	Sib	1	Sil	Sib	1459	1.100000023841858	28.0855
1460	Sib	1	Sil	Sib	1460	1.100000023841858	28.0855
1461	Sib	1	Sil	Sib	1461	1.100000023841858	28.0855
1462	Sib	1	Sil	Sib	1462	1.100000023841858	28.0855
1463	Sim	1	Sil	Sim	1463	0.9110000133514404	28.0855
1464	Sib	1	Sil	Sib	1464	1.100000023841858	28.0855
1465	Sib	1	Sil	Sib	1465	1.100000023841858	28.0855
1466	Sib	1	Sil	Sib	1466	1.100000023841858	28.0855
1467	Sib	1	Sil	Sib	1467	1.100000023841858	28.0855
1468	Sib	1	Sil	Sib	1468	1.100000023841858	28.0855
1469	Sib	1	Sil	Sib	1469	1.100000023841858	28.0855
1470	Sib	1	Sil	Sib	1470	1.100000023841858	28.0855
1471	Sib	1	Sil	Sib	1471	1.100000023841858	28.0855
1472	Sib	1	Sil	Sib	1472	1.100000023841858	28.0855
1473	Sib	1	Sil	Sib	1473	1.100000023841858	28.0855
1474	Sim	1	Sil	Sim	1474	0.9110000133514404	28.0855
1475	Sib	1	Sil	Sib	1475	1.100000023841858	28.0855
1476	Sib	1	Sil	Sib	1476	1.100000023841858	28.0855
1477	Sib	1	Sil	Sib	1477	1.100000023841858	28.0855
1478	Sib	1	Sil	Sib	1478	1.100000023841858	28.0855
1479	Sib	1	Sil	Sib	1479	1.100000023841858	28.0855
1480	Sib	1	Sil	Sib	1480	1.100000023841858	28.0855
1481	Sib	1	Sil	Sib	1481	1.100000023841858	28.0855
1482	Sib	1	Sil	Sib	1482	1.100000023841858	28.0855
1483	Sib	1	Sil	Sib	1483	1.100000023841858	28.0855
1484	Sib	1	Sil	Sib	1484	1.100000023841858	28.0855
1485	Sib	1	Sil	Sib	1485	1.100000023841858	28.0855
1486	Sib	1	Sil	Sib	1486	1.100000023841858	28.0855
1487	Sib	1	Sil	Sib	1487	1.100000023841858	28.0855
1488	Sib	1	Sil	Sib	1488	1.100000023841858	28.0855
1489	Sib	1	Sil	Sib	1489	1.100000023841858	28.0855
1490	Sib	1	Sil	Sib	1490	1.100000023841858	28.0855
1491	Sim	1	Sil	Sim	1491	0.9110000133514404	28.0855
1492	Sib	1	Sil	Sib	1492	1.100000023841858	28.0855
1493	Sib	1	Sil	Sib	1493	1.100000023841858	28.0855
1494	Sib	1	Sil	Sib	1494	1.100000023841858	28.0855
1495	Sib	1	Sil	Sib	1495	1.100000023841858	28.0855
1496	Sib	1	Sil	Sib	1496	1.100000023841858	28.0855
1497	Sib	1	Sil	Sib	1497	1.100000023841858	28.0855
1498	Sib	1	Sil	Sib	1498	1.100000023841858	28.0855
1499	Sib	1	Sil	Sib	1499	1.100000023841858	28.0855
1500	Sib	1	Sil	Sib	1500	1.100000023841858	28.0855
1501	Sib	1	Sil	Sib	1501	1.100000023841858	28.0855
1502	Sib	1	Sil	Sib	1502	1.100000023841858	28.0855
1503	Sib	1	Sil	Sib	1503	1.100000023841858	28.0855
1504	Sib	1	Sil	Sib	1504	1.100000023841858	28.0855
1505	Sib	1	Sil	Sib	1505	1.100000023841858	28.0855
1506	Sib	1	Sil	Sib	1506	1.100000023841858	28.0855
1507	Sib	1	Sil	Sib	1507	1.100000023841858	28.0855
1508	Sib	1	Sil	Sib	1508	1.100000023841858	28.0855
1509	Sib	1	Sil	Sib	1509	1.100000023841858	28.0855
1510	Sib	1	Sil	Sib	1510	1.100000023841858	28.0855
1511	Sim	1	Sil	Sim	1511	0.9110000133514404	28.0855
1512	Sib	1	Sil	Sib	1512	1.100000023841858	28.0855
1513	Sib	1	Sil	Sib	1513	1.100000023841858	28.0855
1514	Sib	1	Sil	Sib	1514	1.100000023841858	28.0855
1515	Sim	1	Sil	Sim	1515	0.9110000133514404	28.0855
1516	Sib	1	Sil	Sib	1516	1.100000023841858	28.0855
1517	Sim	1	Sil	Sim	1517	0.9110000133514404	28.0855
1518	Sib	1	Sil	Sib	1518	1.100000023841858	28.0855
1519	Sib	1	Sil	Sib	1519	1.100000023841858	28.0855
1520	Sib	1	Sil	Sib	1520	1.100000023841858	28.0855
1521	Sib	1	Sil	Sib	1521	1.100000023841858	28.0855
1522	Sim	1	Sil	Sim	1522	0.9110000133514404	28.0855
1523	Sib	1	Sil	Sib	1523	1.100000023841858	28.0855
1524	Sib	1	Sil	Sib	1524	1.100000023841858	28.0855
1525	Sib	1	Sil	Sib	1525	1.100000023841858	28.0855
1526	Sib	1	Sil	Sib	1526	1.100000023841858	28.0855
1527	Sib	1	Sil	Sib	1527	1.100000023841858	28.0855
1528	Sib	1	Sil	Sib	1528	1.100000023841858	28.0855
1529	Sib	1	Sil	Sib	1529	1.100000023841858	28.0855
1530	Sib	1	Sil	Sib	1530	1.100000023841858	28.0855
1531	Sib	1	Sil	Sib	1531	1.100000023841858	28.0855
1532	Sib	1	Sil	Sib	1532	1.100000023841858	28.0855
1533	Sib	1	Sil	Sib	1533	1.100000023841858	28.0855
1534	Sib	1	Sil	Sib	1534	1.100000023841858	28.0855
1535	Sib	1	Sil	Sib	1535	1.100000023841858	28.0855
1536	Sib	1	Sil	Sib	1536	1.100000023841858	28.0855
1537	Sib	1	Sil	Sib	1537	1.100000023841858	28.0855
1538	Sib	1	Sil	Sib	1538	1.100000023841858	28.0855
1539	Sib	1	Sil	Sib	1539	1.100000023841858	28.0855
1540	Sib	1	Sil	Sib	1540	1.100000023841858	28.0855
1541	Sib	1	Sil	Sib	1541	1.100000023841858	28.0855
1542	Sib	1	Sil	Sib	1542	1.100000023841858	28.0855
1543	Sib	1	Sil	Sib	1543	1.100000023841858	28.0855
1544	Sib	1	Sil	Sib	1544	1.100000023841858	28.0855
1545	Sib	1	Sil	Sib	1545	1.100000023841858	28.0855
1546	Sib	1	Sil	Sib	1546	1.100000023841858	28.0855
1547	Sib	1	Sil	Sib	1547	1.100000023841858	28.0855
1548	Sib	1	Sil	Sib	1548	1.100000023841858	28.0855
1549	Sib	1	Sil	Sib	1549	1.100000023841858	28.0855
1550	Sib	1	Sil	Sib	1550	1.100000023841858	28.0855
1551	Sib	1	Sil	Sib	1551	1.100000023841858	28.0855
1552	Sib	1	Sil	Sib	1552	1.100000023841858	28.0855
1553	Sib	1	Sil	Sib	1553	1.100000023841858	28.0855
1554	Sib	1	Sil	Sib	1554	1.100000023841858	28.0855
1555	Sib	1	Sil	Sib	1555	1.100000023841858	28.0855
1556	Sib	1	Sil	Sib	1556	1.100000023841858	28.0855
1557	Sib	1	Sil	Sib	1557	1.100000023841858	28.0855
1558	Sib	1	Sil	Sib	1558	1.100000023841858	28.0855
1559	Sim	1	Sil	Sim	1559	0.9110000133514404	28.0855
1560	Sib	1	Sil	Sib	1560	1.100000023841858	28.0855
1561	Sib	1	Sil	Sib	1561	1.100000023841858	28.0855
1562	Sib	1	Sil	Sib	1562	1.100000023841858	28.0855
1563	Sim	1	Sil	Sim	1563	0.9110000133514404	28.0855
1564	Sib	1	Sil	Sib	1564	1.100000023841858	28.0855
1565	Sim	1	Sil	Sim	1565	0.9110000133514404	28.0855
1566	Sib	1	Sil	Sib	1566	1.100000023841858	28.0855
1567	Sib	1	Sil	Sib	1567	1.100000023841858	28.0855
1568	Sib	1	Sil	Sib	1568	1.100000023841858	28.0855
1569	Sib	1	Sil	Sib	1569	1.100000023841858	28.0855
1570	Sim	1	Sil	Sim	1570	0.9110000133514404	28.0855
1571	Sib	1	Sil	Sib	1571	1.100000023841858	28.0855
1572	Sib	1	Sil	Sib	1572	1.100000023841858	28.0855
1573	Sib	1	Sil	Sib	1573	1.100000023841858	28.0855
1574	Sib	1	Sil	Sib	1574	1.100000023841858	28.0855
1575	Sib	1	Sil	Sib	1575	1.100000023841858	28.0855
1576	Sib	1	Sil	Sib	1576	1.100000023841858	28.0855
1577	Sib	1	Sil	Sib	1577	1.100000023841858	28.0855
1578	Sib	1	Sil	Sib	1578	1.100000023841858	28.0855
1579	Sib	1	Sil	Sib	1579	1.100000023841858	28.0855
1580	Sib	1	Sil	Sib	1580	1.100000023841858	28.0855
1581	Sib	1	Sil	Sib	1581	1.100000023841858	28.0855
1582	Sib	1	Sil	Sib	1582	1.100000023841858	28.0855
1583	Sib	1	Sil	Sib	1583	1.100000023841858	28.0855
1584	Sib	1	Sil	Sib	1584	1.100000023841858	28.0855
1585	Sib	1	Sil	Sib	1585	1.100000023841858	28.0855
1586	Sib	1	Sil	Sib	1586	1.100000023841858	28.0855
1587	Sib	1	Sil	Sib	1587	1.100000023841858	28.0855
1588	Sib	1	Sil	Sib	1588	1.100000023841858	28.0855
1589	Sib	1	Sil	Sib	1589	1.100000023841858	28.0855
1590	Sib	1	Sil	Sib	1590	1.100000023841858	28.0855
1591	Sib	1	Sil	Sib	1591	1.100000023841858	28.0855
1592	Sib	1	Sil	Sib	1592	1.100000023841858	28.0855
1593	Sib	1	Sil	Sib	1593	1.100000023841858	28.0855
1594	Sim	1	Sil	Sim	1594	0.9110000133514404	28.0855
1595	Sib	1	Sil	Sib	1595	1.100000023841858	28.0855
1596	Sib	1	Sil	Sib	1596	1.100000023841858	28.0855
1597	Sib	1	Sil	Sib	1597	1.100000023841858	28.0855
1598	Sib	1	Sil	Sib	1598	1.100000023841858	28.0855
1599	Sib	1	Sil	Sib	1599	1.100000023841858	28.0855
1600	Sib	1	Sil	Sib	1600	1.100000023841858	28.0855
1601	Sib	1	Sil	Sib	1601	1.100000023841858	28.0855
1602	Sib	1	Sil	Sib	1602	1.100000023841858	28.0855
1603	Sib	1	Sil	Sib	1603	1.100000023841858	28.0855
1604	Sib	1	Sil	Sib	1604	1.100000023841858	28.0855
1605	Sib	1	Sil	Sib	1605	1.100000023841858	28.0855
1606	Sib	1	Sil	Sib	1606	1.100000023841858	28.0855
1607	Sim	1	Sil	Sim	1607	0.9110000133514404	28.0855
1608	Sib	1	Sil	Sib	1608	1.100000023841858	28.0855
1609	Sib	1	Sil	Sib	1609	1.100000023841858	28.0855
1610	Sib	1	Sil	Sib	1610	1.100000023841858	28.0855
1611	Sim	1	Sil	Sim	1611	0.9110000133514404	28.0855
1612	Sib	1	Sil	Sib	1612	1.100000023841858	28.0855
1613	Sim	1	Sil	Sim	1613	0.9110000133514404	28.0855
1614	Sib	1	Sil	Sib	1614	1.100000023841858	28.0855
1615	Sib	1	Sil	Sib	1615	1.100000023841858	28.0855
1616	Sib	1	Sil	Sib	1616	1.100000023841858	28.0855
1617	Sib	1	Sil	Sib	1617	1.100000023841858	28.0855
1618	Sib	1	Sil	Sib	1618	1.100000023841858	28.0855
1619	Sib	1	Sil	Sib	1619	1.100000023841858	28.0855
1620	Sib	1	Sil	Sib	1620	1.100000023841858	28.0855
1621	Sib	1	Sil	Sib	1621	1.100000023841858	28.0855
1622	Sib	1	Sil	Sib	1622	1.100000023841858	28.0855
1623	Sib	1	Sil	Sib	1623	1.100000023841858	28.0855
1624	Sib	1	Sil	Sib	1624	1.100000023841858	28.0855
1625	Sib	1	Sil	Sib	1625	1.100000023841858	28.0855
1626	Sib	1	Sil	Sib	1626	1.100000023841858	28.0855
1627	Sib	1	Sil	Sib	1627	1.100000023841858	28.0855
1628	Sib	1	Sil	Sib	1628	1.100000023841858	28.0855
1629	Sib	1	Sil	Sib	1629	1.100000023841858	28.0855
1630	Sib	1	Sil	Sib	1630	1.100000023841858	28.0855
1631	Sib	1	Sil	Sib	1631	1.100000023841858	28.0855
1632	Sib	1	Sil	Sib	1632	1.100000023841858	28.0855
1633	Sib	1	Sil	Sib	1633	1.100000023841858	28.0855
1634	Sib	1	Sil	Sib	1634	1.100000023841858	28.0855
1635	Sim	1	Sil	Sim	1635	0.9110000133514404	28.0855
1636	Sib	1	Sil	Sib	1636	1.100000023841858	28.0855
1637	Sib	1	Sil	Sib	1637	1.100000023841858	28.0855
1638	Sib	1	Sil	Sib	1638	1.100000023841858	28.0855
1639	Sib	1	Sil	Sib	1639	1.100000023841858	28.0855
1640	Sib	1	Sil	Sib	1640	1.100000023841858	28.0855
1641	Sib	1	Sil	Sib	1641	1.100000023841858	28.0855
1642	Sim	1	Sil	Sim	1642	0.9110000133514404	28.0855
1643	Sib	1	Sil	Sib	1643	1.100000023841858	28.0855
1644	Sib	1	Sil	Sib	1644	1.100000023841858	28.0855
1645	Sib	1	Sil	Sib	1645	1.100000023841858	28.0855
1646	Sib	1	Sil	Sib	1646	1.100000023841858	28.0855
1647	Sib	1	Sil	Sib	1647	1.100000023841858	28.0855
1648	Sib	1	Sil	Sib	1648	1.100000023841858	28.0855
1649	Sib	1	Sil	Sib	1649	1.100000023841858	28.0855
1650	Sib	1	Sil	Sib	1650	1.100000023841858	28.0855
1651	Sib	1	Sil	Sib	1651	1.100000023841858	28.0855
1652	Sib	1	Sil	Sib	1652	1.100000023841858	28.0855
1653	Sib	1	Sil	Sib	1653	1.100000023841858	28.0855
1654	Sib	1	Sil	Sib	1654	1.100000023841858	28.0855
1655	Sim	1	Sil	Sim	1655	0.9110000133514404	28.0855
1656	Sib	1	Sil	Sib	1656	1.100000023841858	28.0855
1657	Sib	1	Sil	Sib	1657	1.100000023841858	28.0855
1658	Sib	1	Sil	Sib	1658	1.100000023841858	28.0855
1659	Sib	1	Sil	Sib	1659	1.100000023841858	28.0855
1660	Sib	1	Sil	Sib	1660	1.100000023841858	28.0855
1661	Sib	1	Sil	Sib	1661	1.100000023841858	28.0855
1662	Sib	1	Sil	Sib	1662	1.100000023841858	28.0855
1663	Sib	1	Sil	Sib	1663	1.100000023841858	28.0855
1664	Sib	1	Sil	Sib	1664	1.100000023841858	28.0855
1665	Sib	1	Sil	Sib	1665	1.100000023841858	28.0855
1666	Sim	1	Sil	Sim	1666	0.9110000133514404	28.0855
1667	Sib	1	Sil	Sib	1667	1.100000023841858	28.0855
1668	Sib	1	Sil	Sib	1668	1.100000023841858	28.0855
1669	Sib	1	Sil	Sib	1669	1.100000023841858	28.0855
1670	Sib	1	Sil	Sib	1670	1.100000023841858	28.0855
1671	Sib	1	Sil	Sib	1671	1.100000023841858	28.0855
1672	Sib	1	Sil	Sib	1672	1.100000023841858	28.0855
1673	Sib	1	Sil	Sib	1673	1.100000023841858	28.0855
1674	Sib	1	Sil	Sib	1674	1.100000023841858	28.0855
1675	Sib	1	Sil	Sib	1675	1.100000023841858	28.0855
1676	Sib	1	Sil	Sib	1676	1.100000023841858	28.0855
1677	Sib	1	Sil	Sib	1677	1.100000023841858	28.0855
1678	Sib	1	Sil	Sib	1678	1.100000023841858	28.0855
1679	Sim	1	Sil	Sim	1679	0.9110000133514404	28.0855
1680	Sib	1	Sil	Sib	1680	1.100000023841858	28.0855
1681	Sib	1	Sil	Sib	1681	1.100000023841858	28.0855
1682	Sib	1	Sil	Sib	1682	1.100000023841858	28.0855
1683	Sib	1	Sil	Sib	1683	1.100000023841858	28.0855
1684	Sib	1	Sil	Sib	1684	1.100000023841858	28.0855
1685	Sim	1	Sil	Sim	1685	0.9110000133514404	28.0855
1686	Sib	1	Sil	Sib	1686	1.100000023841858	28.0855
1687	Sib	1	Sil	Sib	1687	1.100000023841858	28.0855
1688	Sib	1	Sil	Sib	1688	1.100000023841858	28.0855
1689	Sib	1	Sil	Sib	1689	1.100000023841858	28.0855
1690	Sim	1	Sil	Sim	1690	0.9110000133514404	28.0855
1691	Sib	1	Sil	Sib	1691	1.100000023841858	28.0855
1692	Sib	1	Sil	Sib	1692	1.100000023841858	28.0855
1693	Sib	1	Sil	Sib	1693	1.100000023841858	28.0855
1694	Sib	1	Sil	Sib	1694	1.100000023841858	28.0855
1695	Sib	1	Sil	Sib	1695	1.100000023841858	28.0855
1696	Sib	1	Sil	Sib	1696	1.100000023841858	28.0855
1697	Sib	1	Sil	Sib	1697	1.100000023841858	28.0855
1698	Sib	1	Sil	Sib	1698	1.100000023841858	28.0855
1699	Sib	1	Sil	Sib	1699	1.100000023841858	28.0855
1700	Sib	1	Sil	Sib	1700	1.100000023841858	28.0855
1701	Sib	1	Sil	Sib	1701	1.100000023841858	28.0855
1702	Sib	1	Sil	Sib	1702	1.100000023841858	28.0855
1703	Sib	1	Sil	Sib	1703	1.100000023841858	28.0855
1704	Sib	1	Sil	Sib	1704	1.100000023841858	28.0855
1705	Sib	1	Sil	Sib	1705	1.100000023841858	28.0855
1706	Sib	1	Sil	Sib	1706	1.100000023841858	28.0855
1707	Sim	1	Sil	Sim	1707	0.9110000133514404	28.0855
1708	Sib	1	Sil	Sib	1708	1.100000023841858	28.0855
1709	Sim	1	Sil	Sim	1709	0.9110000133514404	28.0855
1710	Sib	1	Sil	Sib	1710	1.100000023841858	28.0855
1711	Sib	1	Sil	Sib	1711	1.100000023841858	28.0855
1712	Sib	1	Sil	Sib	1712	1.100000023841858	28.0855
1713	Sib	1	Sil	Sib	1713	1.100000023841858	28.0855
1714	Sib	1	Sil	Sib	1714	1.100000023841858	28.0855
1715	Sib	1	Sil	Sib	1715	1.100000023841858	28.0855
1716	Sib	1	Sil	Sib	1716	1.100000023841858	28.0855
1717	Sib	1	Sil	Sib	1717	1.100000023841858	28.0855
1718	Sib	1	Sil	Sib	1718	1.100000023841858	28.0855
1719	Sib	1	Sil	Sib	1719	1.100000023841858	28.0855
1720	Sib	1	Sil	Sib	1720	1.100000023841858	28.0855
1721	Sib	1	Sil	Sib	1721	1.100000023841858	28.0855
1722	Sib	1	Sil	Sib	1722	1.100000023841858	28.0855
1723	Sib	1	Sil	Sib	1723	1.100000023841858	28.0855
1724	Sib	1	Sil	Sib	1724	1.100000023841858	28.0855
1725	Sib	1	Sil	Sib	1725	1.100000023841858	28.0855
1726	Sib	1	Sil	Sib	1726	1.100000023841858	28.0855
1727	Sib	1	Sil	Sib	1727	1.100000023841858	28.0855
1728	Sib	1	Sil	Sib	1728	1.100000023841858	28.0855
1729	Sib	1	Sil	Sib	1729	1.100000023841858	28.0855
1730	Sib	1	Sil	Sib	1730	1.100000023841858	28.0855
1731	Sib	1	Sil	Sib	1731	1.100000023841858	28.0855
1732	Sib	1	Sil	Sib	1732	1.100000023841858	28.0855
1733	Sim	1	Sil	Sim	1733	0.9110000133514404	28.0855
1734	Sib	1	Sil	Sib	1734	1.100000023841858	28.0855
1735	Sib	1	Sil	Sib	1735	1.100000023841858	28.0855
1736	Sib	1	Sil	Sib	1736	1.100000023841858	28.0855
1737	Sib	1	Sil	Sib	1737	1.100000023841858	28.0855
1738	Sib	1	Sil	Sib	1738	1.100000023841858	28.0855
1739	Sib	1	Sil	Sib	1739	1.100000023841858	28.0855
1740	Sib	1	Sil	Sib	1740	1.100000023841858	28.0855
1741	Sib	1	Sil	Sib	1741	1.100000023841858	28.0855
1742	Sib	1	Sil	Sib	1742	1.100000023841858	28.0855
1743	Sib	1	Sil	Sib	1743	1.100000023841858	28.0855
1744	Sib	1	Sil	Sib	1744	1.100000023841858	28.0855
1745	Sib	1	Sil	Sib	1745	1.100000023841858	28.0855
1746	Sib	1	Sil	Sib	1746	1.100000023841858	28.0855
1747	Sib	1	Sil	Sib	1747	1.100000023841858	28.0855
1748	Sib	1	Sil	Sib	1748	1.100000023841858	28.0855
1749	Sib	1	Sil	Sib	1749	1.100000023841858	28.0855
1750	Sib	1	Sil	Sib	1750	1.100000023841858	28.0855
1751	Sib	1	Sil	Sib	1751	1.100000023841858	28.0855
1752	Sib	1	Sil	Sib	1752	1.100000023841858	28.0855
1753	Sib	1	Sil	Sib	1753	1.100000023841858	28.0855
1754	Sib	1	Sil	Sib	1754	1.100000023841858	28.0855
1755	Sim	1	Sil	Sim	1755	0.9110000133514404	28.0855
1756	Sib	1	Sil	Sib	1756	1.100000023841858	28.0855
1757	Sim	1	Sil	Sim	1757	0.9110000133514404	28.0855
1758	Sib	1	Sil	Sib	1758	1.100000023841858	28.0855
1759	Sib	1	Sil	Sib	1759	1.100000023841858	28.0855
1760	Sib	1	Sil	Sib	1760	1.100000023841858	28.0855
1761	Sib	1	Sil	Sib	1761	1.100000023841858	28.0855
1762	Sim	1	Sil	Sim	1762	0.9110000133514404	28.0855
1763	Sib	1	Sil	Sib	1763	1.100000023841858	28.0855
1764	Sib	1	Sil	Sib	1764	1.100000023841858	28.0855
1765	Sib	1	Sil	Sib	1765	1.100000023841858	28.0855
1766	Sib	1	Sil	Sib	1766	1.100000023841858	28.0855
1767	Sib	1	Sil	Sib	1767	1.100000023841858	28.0855
1768	Sib	1	Sil	Sib	1768	1.100000023841858	28.0855
1769	Sib	1	Sil	Sib	1769	1.100000023841858	28.0855
1770	Sib	1	Sil	Sib	1770	1.100000023841858	28.0855
1771	Sib	1	Sil	Sib	1771	1.100000023841858	28.0855
1772	Sib	1	Sil	Sib	1772	1.100000023841858	28.0855
1773	Sib	1	Sil	Sib	1773	1.100000023841858	28.0855
1774	Sib	1	Sil	Sib	1774	1.100000023841858	28.0855
1775	Sim	1	Sil	Sim	1775	0.9110000133514404	28.0855
1776	Sib	1	Sil	Sib	1776	1.100000023841858	28.0855
1777	Sib	1	Sil	Sib	1777	1.100000023841858	28.0855
1778	Sib	1	Sil	Sib	1778	1.100000023841858	28.0855
1779	Sib	1	Sil	Sib	1779	1.100000023841858	28.0855
1780	Sib	1	Sil	Sib	1780	1.100000023841858	28.0855
1781	Sib	1	Sil	Sib	1781	1.100000023841858	28.0855
1782	Sib	1	Sil	Sib	1782	1.100000023841858	28.0855
1783	Sib	1	Sil	Sib	1783	1.100000023841858	28.0855
1784	Sib	1	Sil	Sib	1784	1.100000023841858	28.0855
1785	Sib	1	Sil	Sib	1785	1.100000023841858	28.0855
1786	Sib	1	Sil	Sib	1786	1.100000023841858	28.0855
1787	Sib	1	Sil	Sib	1787	1.100000023841858	28.0855
1788	Sib	1	Sil	Sib	1788	1.100000023841858	28.0855
1789	Sib	1	Sil	Sib	1789	1.100000023841858	28.0855
1790	Sib	1	Sil	Sib	1790	1.100000023841858	28.0855
1791	Sib	1	Sil	Sib	1791	1.100000023841858	28.0855
1792	Sib	1	Sil	Sib	1792	1.100000023841858	28.0855
1793	Sib	1	Sil	Sib	1793	1.100000023841858	28.0855
1794	Sib	1	Sil	Sib	1794	1.100000023841858	28.0855
1795	Sib	1	Sil	Sib	1795	1.100000023841858	28.0855
1796	Sib	1	Sil	Sib	1796	1.100000023841858	28.0855
1797	Sib	1	Sil	Sib	1797	1.100000023841858	28.0855
1798	Sib	1	Sil	Sib	1798	1.100000023841858	28.0855
1799	Sib	1	Sil	Sib	1799	1.100000023841858	28.0855
1800	Sib	1	Sil	Sib	1800	1.100000023841858	28.0855
1801	Sib	1	Sil	Sib	1801	1.100000023841858	28.0855
1802	Sib	1	Sil	Sib	1802	1.100000023841858	28.0855
1803	Sim	1	Sil	Sim	1803	0.9110000133514404	28.0855
1804	Sib	1	Sil	Sib	1804	1.100000023841858	28.0855
1805	Sib	1	Sil	Sib	1805	1.100000023841858	28.0855
1806	Sib	1	Sil	Sib	1806	1.100000023841858	28.0855
1807	Sib	1	Sil	Sib	1807	1.100000023841858	28.0855
1808	Sib	1	Sil	Sib	1808	1.100000023841858	28.0855
1809	Sib	1	Sil	Sib	1809	1.100000023841858	28.0855
1810	Sim	1	Sil	Sim	1810	0.9110000133514404	28.0855
1811	Sib	1	Sil	Sib	1811	1.100000023841858	28.0855
1812	Sib	1	Sil	Sib	1812	1.100000023841858	28.0855
1813	Sib	1	Sil	Sib	1813	1.100000023841858	28.0855
1814	Sib	1	Sil	Sib	1814	1.100000023841858	28.0855
1815	Sib	1	Sil	Sib	1815	1.100000023841858	28.0855
1816	Sib	1	Sil	Sib	1816	1.100000023841858	28.0855
1817	Sib	1	Sil	Sib	1817	1.100000023841858	28.0855
1818	Sib	1	Sil	Sib	1818	1.100000023841858	28.0855
1819	Sib	1	Sil	Sib	1819	1.100000023841858	28.0855
1820	Sib	1	Sil	Sib	1820	1.100000023841858	28.0855
1821	Sib	1	Sil	Sib	1821	1.100000023841858	28.0855
1822	Sib	1	Sil	Sib	1822	1.100000023841858	28.0855
1823	Sim	1	Sil	Sim	1823	0.9110000133514404	28.0855
1824	Sib	1	Sil	Sib	1824	1.100000023841858	28.0855
1825	Sib	1	Sil	Sib	1825	1.100000023841858	28.0855
1826	Sib	1	Sil	Sib	1826	1.100000023841858	28.0855
1827	Sib	1	Sil	Sib	1827	1.100000023841858	28.0855
1828	Sib	1	Sil	Sib	1828	1.100000023841858	28.0855
1829	Sim	1	Sil	Sim	1829	0.9110000133514404	28.0855
1830	Sib	1	Sil	Sib	1830	1.100000023841858	28.0855
1831	Sib	1	Sil	Sib	1831	1.100000023841858	28.0855
1832	Sib	1	Sil	Sib	1832	1.100000023841858	28.0855
1833	Sib	1	Sil	Sib	1833	1.100000023841858	28.0855
1834	Sib	1	Sil	Sib	1834	1.100000023841858	28.0855
1835	Sib	1	Sil	Sib	1835	1.100000023841858	28.0855
1836	Sib	1	Sil	Sib	1836	1.100000023841858	28.0855
1837	Sib	1	Sil	Sib	1837	1.100000023841858	28.0855
1838	Sib	1	Sil	Sib	1838	1.100000023841858	28.0855
1839	Sib	1	Sil	Sib	1839	1.100000023841858	28.0855
1840	Sib	1	Sil	Sib	1840	1.100000023841858	28.0855
1841	Sib	1	Sil	Sib	1841	1.100000023841858	28.0855
1842	Sib	1	Sil	Sib	1842	1.100000023841858	28.0855
1843	Sib	1	Sil	Sib	1843	1.100000023841858	28.0855
1844	Sib	1	Sil	Sib	1844	1.100000023841858	28.0855
1845	Sib	1	Sil	Sib	1845	1.100000023841858	28.0855
1846	Sib	1	Sil	Sib	1846	1.100000023841858	28.0855
1847	Sib	1	Sil	Sib	1847	1.100000023841858	28.0855
1848	Sib	1	Sil	Sib	1848	1.100000023841858	28.0855
1849	Sib	1	Sil	Sib	1849	1.100000023841858	28.0855
1850	Sib	1	Sil	Sib	1850	1.100000023841858	28.0855
1851	Sim	1	Sil	Sim	1851	0.9110000133514404	28.0855
1852	Sib	1	Sil	Sib	1852	1.100000023841858	28.0855
1853	Sim	1	Sil	Sim	1853	0.9110000133514404	28.0855
1854	Sib	1	Sil	Sib	1854	1.100000023841858	28.0855
1855	Sib	1	Sil	Sib	1855	1.100000023841858	28.0855
1856	Sib	1	Sil	Sib	1856	1.100000023841858	28.0855
1857	Sib	1	Sil	Sib	1857	1.100000023841858	28.0855
1858	Sim	1	Sil	Sim	1858	0.9110000133514404	28.0855
1859	Sib	1	Sil	Sib	1859	1.100000023841858	28.0855
1860	Sib	1	Sil	Sib	1860	1.100000023841858	28.0855
1861	Sib	1	Sil	Sib	1861	1.100000023841858	28.0855
1862	Sib	1	Sil	Sib	1862	1.100000023841858	28.0855
1863	Sib	1	Sil	Sib	1863	1.100000023841858	28.0855
1864	Sib	1	Sil	Sib	1864	1.100000023841858	28.0855
1865	Sib	1	Sil	Sib	1865	1.100000023841858	28.0855
1866	Sib	1	Sil	Sib	1866	1.100000023841858	28.0855
1867	Sib	1	Sil	Sib	1867	1.100000023841858	28.0855
1868	Sib	1	Sil	Sib	1868	1.100000023841858	28.0855
1869	Sib	1	Sil	Sib	1869	1.100000023841858	28.0855
1870	Sib	1	Sil	Sib	1870	1.100000023841858	28.0855
1871	Sim	1	Sil	Sim	1871	0.9110000133514404	28.0855
1872	Sib	1	Sil	Sib	1872	1.100000023841858	28.0855
1873	Sib	1	Sil	Sib	1873	1.100000023841858	28.0855
1874	Sib	1	Sil	Sib	1874	1.100000023841858	28.0855
1875	Sib	1	Sil	Sib	1875	1.100000023841858	28.0855
1876	Sib	1	Sil	Sib	1876	1.100000023841858	28.0855
1877	Sim	1	Sil	Sim	1877	0.9110000133514404	28.0855
1878	Sib	1	Sil	Sib	1878	1.100000023841858	28.0855
1879	Sib	1	Sil	Sib	1879	1.100000023841858	28.0855
1880	Sib	1	Sil	Sib	1880	1.100000023841858	28.0855
1881	Sib	1	Sil	Sib	1881	1.100000023841858	28.0855
1882	Sim	1	Sil	Sim	1882	0.9110000133514404	28.0855
1883	Sib	1	Sil	Sib	1883	1.100000023841858	28.0855
1884	Sib	1	Sil	Sib	1884	1.100000023841858	28.0855
1885	Sib	1	Sil	Sib	1885	1.100000023841858	28.0855
1886	Sib	1	Sil	Sib	1886	1.100000023841858	28.0855
1887	Sib	1	Sil	Sib	1887	1.100000023841858	28.0855
1888	Sib	1	Sil	Sib	1888	1.100000023841858	28.0855
1889	Sib	1	Sil	Sib	1889	1.100000023841858	28.0855
1890	Sib	1	Sil	Sib	1890	1.100000023841858	28.0855
1891	Sib	1	Sil	Sib	1891	1.100000023841858	28.0855
1892	Sib	1	Sil	Sib	1892	1.100000023841858	28.0855
1893	Sib	1	Sil	Sib	1893	1.100000023841858	28.0855
1894	Sib	1	Sil	Sib	1894	1.100000023841858	28.0855
1895	Sib	1	Sil	Sib	1895	1.100000023841858	28.0855
1896	Sib	1	Sil	Sib	1896	1.100000023841858	28.0855
1897	Sib	1	Sil	Sib	1897	1.100000023841858	28.0855
1898	Sib	1	Sil	Sib	1898	1.100000023841858	28.0855
1899	Sim	1	Sil	Sim	1899	0.9110000133514404	28.0855
1900	Sib	1	Sil	Sib	1900	1.100000023841858	28.0855
1901	Sib	1	Sil	Sib	1901	1.100000023841858	28.0855
1902	Sib	1	Sil	Sib	1902	1.100000023841858	28.0855
1903	Sib	1	Sil	Sib	1903	1.100000023841858	28.0855
1904	Sib	1	Sil	Sib	1904	1.100000023841858	28.0855
1905	Sib	1	Sil	Sib	1905	1.100000023841858	28.0855
1906	Sib	1	Sil	Sib	1906	1.100000023841858	28.0855
1907	Sib	1	Sil	Sib	1907	1.100000023841858	28.0855
1908	Sib	1	Sil	Sib	1908	1.100000023841858	28.0855
1909	Sib	1	Sil	Sib	1909	1.100000023841858	28.0855
1910	Sib	1	Sil	Sib	1910	1.100000023841858	28.0855
1911	Sib	1	Sil	Sib	1911	1.100000023841858	28.0855
1912	Sib	1	Sil	Sib	1912	1.100000023841858	28.0855
1913	Sib	1	Sil	Sib	1913	1.100000023841858	28.0855
1914	Sib	1	Sil	Sib	1914	1.100000023841858	28.0855
1915	Sib	1	Sil	Sib	1915	1.100000023841858	28.0855
1916	Sib	1	Sil	Sib	1916	1.100000023841858	28.0855
1917	Sib	1	Sil	Sib	1917	1.100000023841858	28.0855
1918	Sib	1	Sil	Sib	1918	1.100000023841858	28.0855
1919	Sim	1	Sil	Sim	1919	0.9110000133514404	28.0855
1920	Sib	1	Sil	Sib	1920	1.100000023841858	28.0855
1921	Sib	1	Sil	Sib	1921	1.100000023841858	28.0855
1922	Sib	1	Sil	Sib	1922	1.100000023841858	28.0855
1923	Sib	1	Sil	Sib	1923	1.100000023841858	28.0855
1924	Sib	1	Sil	Sib	1924	1.100000023841858	28.0855
1925	Sim	1	Sil	Sim	1925	0.9110000133514404	28.0855
1926	Sib	1	Sil	Sib	1926	1.100000023841858	28.0855
1927	Sib	1	Sil	Sib	1927	1.100000023841858	28.0855
1928	Sib	1	Sil	Sib	1928	1.100000023841858	28.0855
1929	Sib	1	Sil	Sib	1929	1.100000023841858	28.0855
1930	Sib	1	Sil	Sib	1930	1.100000023841858	28.0855
1931	Sib	1	Sil	Sib	1931	1.100000023841858	28.0855
1932	Sib	1	Sil	Sib	1932	1.100000023841858	28.0855
1933	Sib	1	Sil	Sib	1933	1.100000023841858	28.0855
1934	Sib	1	Sil	Sib	1934	1.100000023841858	28.0855
1935	Sib	1	Sil	Sib	1935	1.100000023841858	28.0855
1936	Sib	1	Sil	Sib	1936	1.100000023841858	28.0855
1937	Sib	1	Sil	Sib	1937	1.100000023841858	28.0855
1938	Sib	1	Sil	Sib	1938	1.100000023841858	28.0855
1939	Sib	1	Sil	Sib	1939	1.100000023841858	28.0855
1940	Sib	1	Sil	Sib	1940	1.100000023841858	28.0855
1941	Sib	1	Sil	Sib	1941	1.100000023841858	28.0855
1942	Sib	1	Sil	Sib	1942	1.100000023841858	28.0855
1943	Sim	1	Sil	Sim	1943	0.9110000133514404	28.0855
1944	Sib	1	Sil	Sib	1944	1.100000023841858	28.0855
1945	Sib	1	Sil	Sib	1945	1.100000023841858	28.0855
1946	Sib	1	Sil	Sib	1946	1.100000023841858	28.0855
1947	Sib	1	Sil	Sib	1947	1.100000023841858	28.0855
1948	Sib	1	Sil	Sib	1948	1.100000023841858	28.0855
1949	Sib	1	Sil	Sib	1949	1.100000023841858	28.0855
1950	Sib	1	Sil	Sib	1950	1.100000023841858	28.0855
1951	Sib	1	Sil	Sib	1951	1.100000023841858	28.0855
1952	Sib	1	Sil	Sib	1952	1.100000023841858	28.0855
1953	Sib	1	Sil	Sib	1953	1.100000023841858	28.0855
1954	Sim	1	Sil	Sim	1954	0.9110000133514404	28.0855
1955	Sib	1	Sil	Sib	1955	1.100000023841858	28.0855
1956	Sib	1	Sil	Sib	1956	1.100000023841858	28.0855
1957	Sib	1	Sil	Sib	1957	1.100000023841858	28.0855
1958	Sib	1	Sil	Sib	1958	1.100000023841858	28.0855
1959	Sib	1	Sil	Sib	1959	1.100000023841858	28.0855
1960	Sib	1	Sil	Sib	1960	1.100000023841858	28.0855
1961	Sib	1	Sil	Sib	1961	1.100000023841858	28.0855
1962	Sib	1	Sil	Sib	1962	1.100000023841858	28.0855
1963	Sib	1	Sil	Sib	1963	1.100000023841858	28.0855
1964	Sib	1	Sil	Sib	1964	1.100000023841858	28.0855
1965	Sib	1	Sil	Sib	1965	1.100000023841858	28.0855
1966	Sib	1	Sil	Sib	1966	1.100000023841858	28.0855
1967	Sib	1	Sil	Sib	1967	1.100000023841858	28.0855
1968	Sib	1	Sil	Sib	1968	1.100000023841858	28.0855
1969	Sib	1	Sil	Sib	1969	1.100000023841858	28.0855
1970	Sib	1	Sil	Sib	1970	1.100000023841858	28.0855
1971	Sim	1	Sil	Sim	1971	0.9110000133514404	28.0855
1972	Sib	1	Sil	Sib	1972	1.100000023841858	28.0855
1973	Sim	1	Sil	Sim	1973	0.9110000133514404	28.0855
1974	Sib	1	Sil	Sib	1974	1.100000023841858	28.0855
1975	Sib	1	Sil	Sib	1975	1.100000023841858	28.0855
1976	Sib	1	Sil	Sib	1976	1.100000023841858	28.0855
1977	Sib	1	Sil	Sib	1977	1.100000023841858	28.0855
1978	Sib	1	Sil	Sib	1978	1.100000023841858	28.0855
1979	Sib	1	Sil	Sib	1979	1.100000023841858	28.0855
1980	Sib	1	Sil	Sib	1980	1.100000023841858	28.0855
1981	Sib	1	Sil	Sib	1981	1.100000023841858	28.0855
1982	Sib	1	Sil	Sib	1982	1.100000023841858	28.0855
1983	Sib	1	Sil	Sib	1983	1.100000023841858	28.0855
1984	Sib	1	Sil	Sib	1984	1.100000023841858	28.0855
1985	Sib	1	Sil	Sib	1985	1.100000023841858	28.0855
1986	Sib	1	Sil	Sib	1986	1.100000023841858	28.0855
1987	Sib	1	Sil	Sib	1987	1.100000023841858	28.0855
1988	Sib	1	Sil	Sib	1988	1.100000023841858	28.0855
1989	Sib	1	Sil	Sib	1989	1.100000023841858	28.0855
1990	Sib	1	Sil	Sib	1990	1.100000023841858	28.0855
1991	Sim	1	Sil	Sim	1991	0.9110000133514404	28.0855
1992	Sib	1	Sil	Sib	1992	1.100000023841858	28.0855
1993	Sib	1	Sil	Sib	1993	1.100000023841858	28.0855
1994	Sib	1	Sil	Sib	1994	1.100000023841858	28.0855
1995	Sib	1	Sil	Sib	1995	1.100000023841858	28.0855
1996	Sib	1	Sil	Sib	1996	1.100000023841858	28.0855
1997	Sib	1	Sil	Sib	1997	1.100000023841858	28.0855
1998	Sib	1	Sil	Sib	1998	1.100000023841858	28.0855
1999	Sib	1	Sil	Sib	1999	1.100000023841858	28.0855
2000	Sib	1	Sil	Sib	2000	1.100000023841858	28.0855
2001	Sib	1	Sil	Sib	2001	1.100000023841858	28.0855
2002	Sib	1	Sil	Sib	2002	1.100000023841858	28.0855
2003	Sib	1	Sil	Sib	2003	1.100000023841858	28.0855
2004	Sib	1	Sil	Sib	2004	1.100000023841858	28.0855
2005	Sib	1	Sil	Sib	2005	1.100000023841858	28.0855
2006	Sib	1	Sil	Sib	2006	1.100000023841858	28.0855
2007	Sib	1	Sil	Sib	2007	1.100000023841858	28.0855
2008	Sib	1	Sil	Sib	2008	1.100000023841858	28.0855
2009	Sib	1	Sil	Sib	2009	1.100000023841858	28.0855
2010	Sib	1	Sil	Sib	2010	1.100000023841858	28.0855
2011	Sib	1	Sil	Sib	2011	1.100000023841858	28.0855
2012	Sib	1	Sil	Sib	2012	1.100000023841858	28.0855
2013	Sib	1	Sil	Sib	2013	1.100000023841858	28.0855
2014	Sib	1	Sil	Sib	2014	1.100000023841858	28.0855
2015	Sib	1	Sil	Sib	2015	1.100000023841858	28.0855
2016	Sib	1	Sil	Sib	2016	1.100000023841858	28.0855
2017	Sib	1	Sil	Sib	2017	1.100000023841858	28.0855
2018	Sib	1	Sil	Sib	2018	1.100000023841858	28.0855
2019	Sim	1	Sil	Sim	2019	0.9110000133514404	28.0855
2020	Sib	1	Sil	Sib	2020	1.100000023841858	28.0855
2021	Sib	1	Sil	Sib	2021	1.100000023841858	28.0855
2022	Sib	1	Sil	Sib	2022	1.100000023841858	28.0855
2023	Sib	1	Sil	Sib	2023	1.100000023841858	28.0855
2024	Sib	1	Sil	Sib	2024	1.100000023841858	28.0855
2025	Sib	1	Sil	Sib	2025	1.100000023841858	28.0855
2026	Sib	1	Sil	Sib	2026	1.100000023841858	28.0855
2027	Sib	1	Sil	Sib	2027	1.100000023841858	28.0855
2028	Sib	1	Sil	Sib	2028	1.100000023841858	28.0855
2029	Sib	1	Sil	Sib	2029	1.100000023841858	28.0855
2030	Sib	1	Sil	Sib	2030	1.100000023841858	28.0855
2031	Sib	1	Sil	Sib	2031	1.100000023841858	28.0855
2032	Sib	1	Sil	Sib	2032	1.100000023841858	28.0855
2033	Sib	1	Sil	Sib	2033	1.100000023841858	28.0855
2034	Sib	1	Sil	Sib	2034	1.100000023841858	28.0855
2035	Sib	1	Sil	Sib	2035	1.100000023841858	28.0855
2036	Sib	1	Sil	Sib	2036	1.100000023841858	28.0855
2037	Sib	1	Sil	Sib	2037	1.100000023841858	28.0855
2038	Sib	1	Sil	Sib	2038	1.100000023841858	28.0855
2039	Sim	1	Sil	Sim	2039	0.9110000133514404	28.0855
2040	Sib	1	Sil	Sib	2040	1.100000023841858	28.0855
2041	Sib	1	Sil	Sib	2041	1.100000023841858	28.0855
2042	Sib	1	Sil	Sib	2042	1.100000023841858	28.0855
2043	Sib	1	Sil	Sib	2043	1.100000023841858	28.0855
2044	Sib	1	Sil	Sib	2044	1.100000023841858	28.0855
2045	Hm	1	Sil	Hm	2045	0.08799999952316284	1.00784
2046	Hm	1	Sil	Hm	2046	0.08799999952316284	1.00784
2047	Hm	1	Sil	Hm	2047	0.08799999952316284	1.00784
2048	Hm	1	Sil	Hm	2048	0.08799999952316284	1.00784
2049	Hm	1	Sil	Hm	2049	0.08799999952316284	1.00784
2050	Hm	1	Sil	Hm	2050	0.08799999952316284	1.00784
2051	Hm	1	Sil	Hm	2051	0.08799999952316284	1.00784
2052	Hm	1	Sil	Hm	2052	0.08799999952316284	1.00784
2053	Hm	1	Sil	Hm	2053	0.08799999952316284	1.00784
2054	Hm	1	Sil	Hm	2054	0.08799999952316284	1.00784
2055	Hm	1	Sil	Hm	2055	0.08799999952316284	1.00784
2056	Hm	1	Sil	Hm	2056	0.08799999952316284	1.00784
2057	Hm	1	Sil	Hm	2057	0.08799999952316284	1.00784
2058	Hm	1	Sil	Hm	2058	0.08799999952316284	1.00784
2059	Hm	1	Sil	Hm	2059	0.08799999952316284	1.00784
2060	Hm	1	Sil	Hm	2060	0.08799999952316284	1.00784
2061	Hm	1	Sil	Hm	2061	0.08799999952316284	1.00784
2062	Hm	1	Sil	Hm	2062	0.08799999952316284	1.00784
2063	Hm	1	Sil	Hm	2063	0.08799999952316284	1.00784
2064	Hm	1	Sil	Hm	2064	0.08799999952316284	1.00784
2065	Hm	1	Sil	Hm	2065	0.08799999952316284	1.00784
2066	Hm	1	Sil	Hm	2066	0.08799999952316284	1.00784
2067	Hm	1	Sil	Hm	2067	0.08799999952316284	1.00784
2068	Hm	1	Sil	Hm	2068	0.08799999952316284	1.00784
2069	Hm	1	Sil	Hm	2069	0.08799999952316284	1.00784
2070	Hm	1	Sil	Hm	2070	0.08799999952316284	1.00784
2071	Hm	1	Sil	Hm	2071	0.08799999952316284	1.00784
2072	Hm	1	Sil	Hm	2072	0.08799999952316284	1.00784
2073	Hm	1	Sil	Hm	2073	0.08799999952316284	1.00784
2074	Hm	1	Sil	Hm	2074	0.08799999952316284	1.00784
2075	Hm	1	Sil	Hm	2075	0.08799999952316284	1.00784
2076	Hm	1	Sil	Hm	2076	0.08799999952316284	1.00784
2077	Hm	1	Sil	Hm	2077	0.08799999952316284	1.00784
2078	Hm	1	Sil	Hm	2078	0.08799999952316284	1.00784
2079	Hm	1	Sil	Hm	2079	0.08799999952316284	1.00784
2080	Hm	1	Sil	Hm	2080	0.08799999952316284	1.00784
2081	Hm	1	Sil	Hm	2081	0.08799999952316284	1.00784
2082	Hm	1	Sil	Hm	2082	0.08799999952316284	1.00784
2083	Hm	1	Sil	Hm	2083	0.08799999952316284	1.00784
2084	Hm	1	Sil	Hm	2084	0.08799999952316284	1.00784
2085	Hm	1	Sil	Hm	2085	0.08799999952316284	1.00784
2086	Hm	1	Sil	Hm	2086	0.08799999952316284	1.00784
2087	Hm	1	Sil	Hm	2087	0.08799999952316284	1.00784
2088	Hm	1	Sil	Hm	2088	0.08799999952316284	1.00784
2089	Hm	1	Sil	Hm	2089	0.08799999952316284	1.00784
2090	Hm	1	Sil	Hm	2090	0.08799999952316284	1.00784
2091	Hm	1	Sil	Hm	2091	0.08799999952316284	1.00784
2092	Hm	1	Sil	Hm	2092	0.08799999952316284	1.00784
2093	Hm	1	Sil	Hm	2093	0.08799999952316284	1.00784
2094	Hm	1	Sil	Hm	2094	0.08799999952316284	1.00784
2095	Hm	1	Sil	Hm	2095	0.08799999952316284	1.00784
2096	Hm	1	Sil	Hm	2096	0.08799999952316284	1.00784
2097	Hm	1	Sil	Hm	2097	0.08799999952316284	1.00784
2098	Hm	1	Sil	Hm	2098	0.08799999952316284	1.00784
2099	Hm	1	Sil	Hm	2099	0.08799999952316284	1.00784
2100	Hm	1	Sil	Hm	2100	0.08799999952316284	1.00784
2101	Hm	1	Sil	Hm	2101	0.08799999952316284	1.00784
2102	Hm	1	Sil	Hm	2102	0.08799999952316284	1.00784
2103	Hm	1	Sil	Hm	2103	0.08799999952316284	1.00784
2104	Hm	1	Sil	Hm	2104	0.08799999952316284	1.00784
2105	Hm	1	Sil	Hm	2105	0.08799999952316284	1.00784
2106	Hm	1	Sil	Hm	2106	0.08799999952316284	1.00784
2107	Hm	1	Sil	Hm	2107	0.08799999952316284	1.00784
2108	Hm	1	Sil	Hm	2108	0.08799999952316284	1.00784
2109	Hm	1	Sil	Hm	2109	0.08799999952316284	1.00784
2110	Hm	1	Sil	Hm	2110	0.08799999952316284	1.00784
2111	Hm	1	Sil	Hm	2111	0.08799999952316284	1.00784
2112	Hm	1	Sil	Hm	2112	0.08799999952316284	1.00784
2113	Hm	1	Sil	Hm	2113	0.08799999952316284	1.00784
2114	Hm	1	Sil	Hm	2114	0.08799999952316284	1.00784
2115	Hm	1	Sil	Hm	2115	0.08799999952316284	1.00784
2116	Hm	1	Sil	Hm	2116	0.08799999952316284	1.00784
2117	Hm	1	Sil	Hm	2117	0.08799999952316284	1.00784
2118	Hm	1	Sil	Hm	2118	0.08799999952316284	1.00784
2119	Hm	1	Sil	Hm	2119	0.08799999952316284	1.00784
2120	Hm	1	Sil	Hm	2120	0.08799999952316284	1.00784
2121	Hm	1	Sil	Hm	2121	0.08799999952316284	1.00784
2122	Hm	1	Sil	Hm	2122	0.08799999952316284	1.00784
2123	Hm	1	Sil	Hm	2123	0.08799999952316284	1.00784
2124	Hm	1	Sil	Hm	2124	0.08799999952316284	1.00784
2125	Hm	1	Sil	Hm	2125	0.08799999952316284	1.00784
2126	Hm	1	Sil	Hm	2126	0.08799999952316284	1.00784
2127	Hm	1	Sil	Hm	2127	0.08799999952316284	1.00784
2128	Hm	1	Sil	Hm	2128	0.08799999952316284	1.00784
2129	Hm	1	Sil	Hm	2129	0.08799999952316284	1.00784
2130	Hm	1	Sil	Hm	2130	0.08799999952316284	1.00784
2131	Hm	1	Sil	Hm	2131	0.08799999952316284	1.00784
2132	Hm	1	Sil	Hm	2132	0.08799999952316284	1.00784
2133	Hm	1	Sil	Hm	2133	0.08799999952316284	1.00784
2134	Hm	1	Sil	Hm	2134	0.08799999952316284	1.00784
2135	Hm	1	Sil	Hm	2135	0.08799999952316284	1.00784
2136	Hm	1	Sil	Hm	2136	0.08799999952316284	1.00784
2137	Hm	1	Sil	Hm	2137	0.08799999952316284	1.00784
2138	Hm	1	Sil	Hm	2138	0.08799999952316284	1.00784
2139	Hm	1	Sil	Hm	2139	0.08799999952316284	1.00784
2140	Hm	1	Sil	Hm	2140	0.08799999952316284	1.00784
2141	Hm	1	Sil	Hm	2141	0.08799999952316284	1.00784
2142	Hm	1	Sil	Hm	2142	0.08799999952316284	1.00784
2143	Hm	1	Sil	Hm	2143	0.08799999952316284	1.00784
2144	Hm	1	Sil	Hm	2144	0.08799999952316284	1.00784
2145	Hm	1	Sil	Hm	2145	0.08799999952316284	1.00784
2146	Hm	1	Sil	Hm	2146	0.08799999952316284	1.00784
2147	Hm	1	Sil	Hm	2147	0.08799999952316284	1.00784
2148	Hm	1	Sil	Hm	2148	0.08799999952316284	1.00784
2149	Hm	1	Sil	Hm	2149	0.08799999952316284	1.00784
2150	Hm	1	Sil	Hm	2150	0.08799999952316284	1.00784
2151	Hm	1	Sil	Hm	2151	0.08799999952316284	1.00784
2152	Hm	1	Sil	Hm	2152	0.08799999952316284	1.00784
2153	Hm	1	Sil	Hm	2153	0.08799999952316284	1.00784
2154	Hm	1	Sil	Hm	2154	0.08799999952316284	1.00784
2155	Hm	1	Sil	Hm	2155	0.08799999952316284	1.00784
2156	Hm	1	Sil	Hm	2156	0.08799999952316284	1.00784
2157	Hm	1	Sil	Hm	2157	0.08799999952316284	1.00784
2158	Hm	1	Sil	Hm	2158	0.08799999952316284	1.00784
2159	Hm	1	Sil	Hm	2159	0.08799999952316284	1.00784
2160	Hm	1	Sil	Hm	2160	0.08799999952316284	1.00784
2161	Hm	1	Sil	Hm	2161	0.08799999952316284	1.00784
2162	Hm	1	Sil	Hm	2162	0.08799999952316284	1.00784
2163	Hm	1	Sil	Hm	2163	0.08799999952316284	1.00784
2164	Hm	1	Sil	Hm	2164	0.08799999952316284	1.00784
2165	Hm	1	Sil	Hm	2165	0.08799999952316284	1.00784
2166	Hm	1	Sil	Hm	2166	0.08799999952316284	1.00784
2167	Hm	1	Sil	Hm	2167	0.08799999952316284	1.00784
2168	Hm	1	Sil	Hm	2168	0.08799999952316284	1.00784
2169	Hm	1	Sil	Hm	2169	0.08799999952316284	1.00784
2170	Hm	1	Sil	Hm	2170	0.08799999952316284	1.00784
2171	Hm	1	Sil	Hm	2171	0.08799999952316284	1.00784
2172	Hm	1	Sil	Hm	2172	0.08799999952316284	1.00784
2173	Hm	1	Sil	Hm	2173	0.08799999952316284	1.00784
2174	Hm	1	Sil	Hm	2174	0.08799999952316284	1.00784
2175	Hm	1	Sil	Hm	2175	0.08799999952316284	1.00784
2176	Hm	1	Sil	Hm	2176	0.08799999952316284	1.00784
2177	Hm	1	Sil	Hm	2177	0.08799999952316284	1.00784
2178	Hm	1	Sil	Hm	2178	0.08799999952316284	1.00784
2179	Hm	1	Sil	Hm	2179	0.08799999952316284	1.00784
2180	Hm	1	Sil	Hm	2180	0.08799999952316284	1.00784
2181	Hm	1	Sil	Hm	2181	0.08799999952316284	1.00784
2182	Hm	1	Sil	Hm	2182	0.08799999952316284	1.00784
2183	Hm	1	Sil	Hm	2183	0.08799999952316284	1.00784
2184	Hm	1	Sil	Hm	2184	0.08799999952316284	1.00784
2185	Hm	1	Sil	Hm	2185	0.08799999952316284	1.00784
2186	Hm	1	Sil	Hm	2186	0.08799999952316284	1.00784
2187	Hm	1	Sil	Hm	2187	0.08799999952316284	1.00784
2188	Hm	1	Sil	Hm	2188	0.08799999952316284	1.00784
2189	Hm	1	Sil	Hm	2189	0.08799999952316284	1.00784
2190	Hm	1	Sil	Hm	2190	0.08799999952316284	1.00784
2191	Hm	1	Sil	Hm	2191	0.08799999952316284	1.00784
2192	Hm	1	Sil	Hm	2192	0.08799999952316284	1.00784
2193	Hm	1	Sil	Hm	2193	0.08799999952316284	1.00784
2194	Hm	1	Sil	Hm	2194	0.08799999952316284	1.00784
2195	Hm	1	Sil	Hm	2195	0.08799999952316284	1.00784
2196	Hm	1	Sil	Hm	2196	0.08799999952316284	1.00784
2197	Hm	1	Sil	Hm	2197	0.08799999952316284	1.00784
2198	Hm	1	Sil	Hm	2198	0.08799999952316284	1.00784
2199	Hm	1	Sil	Hm	2199	0.08799999952316284	1.00784
2200	Hm	1	Sil	Hm	2200	0.08799999952316284	1.00784
2201	Hm	1	Sil	Hm	2201	0.08799999952316284	1.00784
2202	Hm	1	Sil	Hm	2202	0.08799999952316284	1.00784
2203	Hm	1	Sil	Hm	2203	0.08799999952316284	1.00784
2204	Hm	1	Sil	Hm	2204	0.08799999952316284	1.00784
2205	Hm	1	Sil	Hm	2205	0.08799999952316284	1.00784
2206	Hm	1	Sil	Hm	2206	0.08799999952316284	1.00784
2207	Hm	1	Sil	Hm	2207	0.08799999952316284	1.00784
2208	Hm	1	Sil	Hm	2208	0.08799999952316284	1.00784
2209	Hm	1	Sil	Hm	2209	0.08799999952316284	1.00784
2210	Hm	1	Sil	Hm	2210	0.08799999952316284	1.00784
2211	Hm	1	Sil	Hm	2211	0.08799999952316284	1.00784
2212	Hm	1	Sil	Hm	2212	0.08799999952316284	1.00784

[ bonds ]
;  ai   aj  funct   c0         c1
1	1374	1	0.165	238488.0
1	1523	1	0.165	238488.0
2	1373	1	0.165	238488.0
2	1692	1	0.165	238488.0
3	1375	1	0.165	238488.0
3	1525	1	0.165	238488.0
4	1376	1	0.165	238488.0
4	1406	1	0.165	238488.0
5	1377	1	0.165	238488.0
5	1407	1	0.165	238488.0
6	1378	1	0.165	238488.0
6	1408	1	0.165	238488.0
7	1377	1	0.165	238488.0
7	1379	1	0.165	238488.0
8	1378	1	0.165	238488.0
8	1380	1	0.165	238488.0
9	1381	1	0.165	238488.0
9	1544	1	0.165	238488.0
10	1374	1	0.165	238488.0
10	1382	1	0.165	238488.0
11	1373	1	0.165	238488.0
11	1546	1	0.165	238488.0
12	1375	1	0.165	238488.0
12	1384	1	0.165	238488.0
13	1374	1	0.165	238488.0
13	1379	1	0.165	238488.0
14	1375	1	0.165	238488.0
14	1381	1	0.165	238488.0
15	1376	1	0.165	238488.0
15	1382	1	0.165	238488.0
16	1377	1	0.165	238488.0
16	1383	1	0.165	238488.0
17	1378	1	0.165	238488.0
17	1384	1	0.165	238488.0
18	1373	1	0.165	238488.0
18	1384	1	0.165	238488.0
19	1374	1	0.165	238488.0
19	1887	1	0.165	238488.0
20	1375	1	0.165	238488.0
20	1382	1	0.165	238488.0
21	1376	1	0.165	238488.0
21	1380	1	0.165	238488.0
22	1377	1	0.165	238488.0
22	1381	1	0.165	238488.0
23	1386	1	0.165	238488.0
23	1535	1	0.165	238488.0
24	1385	1	0.165	238488.0
24	1704	1	0.165	238488.0
25	1387	1	0.165	238488.0
25	1537	1	0.165	238488.0
26	1388	1	0.165	238488.0
26	1418	1	0.165	238488.0
27	1389	1	0.165	238488.0
27	1419	1	0.165	238488.0
28	1390	1	0.165	238488.0
28	1420	1	0.165	238488.0
29	1389	1	0.165	238488.0
29	1391	1	0.165	238488.0
30	1390	1	0.165	238488.0
30	1392	1	0.165	238488.0
31	1393	1	0.165	238488.0
31	1556	1	0.165	238488.0
32	1386	1	0.165	238488.0
32	1394	1	0.165	238488.0
33	1383	1	0.165	238488.0
33	1385	1	0.165	238488.0
34	1387	1	0.165	238488.0
34	1396	1	0.165	238488.0
35	1386	1	0.165	238488.0
35	1391	1	0.165	238488.0
36	1387	1	0.165	238488.0
36	1393	1	0.165	238488.0
37	1388	1	0.165	238488.0
37	1394	1	0.165	238488.0
38	1389	1	0.165	238488.0
38	1395	1	0.165	238488.0
39	1390	1	0.165	238488.0
39	1396	1	0.165	238488.0
40	1385	1	0.165	238488.0
40	1396	1	0.165	238488.0
41	1386	1	0.165	238488.0
41	1899	1	0.165	238488.0
42	1387	1	0.165	238488.0
42	1394	1	0.165	238488.0
43	1388	1	0.165	238488.0
43	1392	1	0.165	238488.0
44	1389	1	0.165	238488.0
44	1393	1	0.165	238488.0
45	1379	1	0.165	238488.0
45	1390	1	0.165	238488.0
46	1443	1	0.165	238488.0
46	1583	1	0.165	238488.0
47	1439	1	0.165	238488.0
47	1947	1	0.165	238488.0
48	1487	1	0.165	238488.0
48	1995	1	0.165	238488.0
49	1539	1	0.165	238488.0
49	1703	1	0.165	238488.0
50	1535	1	0.165	238488.0
50	2043	1	0.165	238488.0
51	1587	1	0.165	238488.0
51	1727	1	0.165	238488.0
52	1467	1	0.165	238488.0
52	1631	1	0.165	238488.0
53	1731	1	0.165	238488.0
53	1895	1	0.165	238488.0
54	1751	1	0.165	238488.0
54	1779	1	0.165	238488.0
55	1659	1	0.165	238488.0
55	1799	1	0.165	238488.0
56	1827	1	0.165	238488.0
56	1967	1	0.165	238488.0
57	1683	1	0.165	238488.0
57	1847	1	0.165	238488.0
58	1875	1	0.165	238488.0
58	2015	1	0.165	238488.0
59	1391	1	0.165	238488.0
59	1923	1	0.165	238488.0
60	1379	1	0.165	238488.0
60	1398	1	0.165	238488.0
61	1397	1	0.165	238488.0
61	1548	1	0.165	238488.0
62	1381	1	0.165	238488.0
62	1399	1	0.165	238488.0
63	1400	1	0.165	238488.0
63	1430	1	0.165	238488.0
64	1401	1	0.165	238488.0
64	1431	1	0.165	238488.0
65	1402	1	0.165	238488.0
65	1432	1	0.165	238488.0
66	1401	1	0.165	238488.0
66	1403	1	0.165	238488.0
67	1402	1	0.165	238488.0
67	1404	1	0.165	238488.0
68	1405	1	0.165	238488.0
68	1568	1	0.165	238488.0
69	1398	1	0.165	238488.0
69	1406	1	0.165	238488.0
70	1399	1	0.165	238488.0
70	1408	1	0.165	238488.0
71	1398	1	0.165	238488.0
71	1403	1	0.165	238488.0
72	1399	1	0.165	238488.0
72	1405	1	0.165	238488.0
73	1400	1	0.165	238488.0
73	1406	1	0.165	238488.0
74	1401	1	0.165	238488.0
74	1407	1	0.165	238488.0
75	1402	1	0.165	238488.0
75	1408	1	0.165	238488.0
76	1397	1	0.165	238488.0
76	1408	1	0.165	238488.0
77	1398	1	0.165	238488.0
77	1911	1	0.165	238488.0
78	1399	1	0.165	238488.0
78	1406	1	0.165	238488.0
79	1400	1	0.165	238488.0
79	1404	1	0.165	238488.0
80	1401	1	0.165	238488.0
80	1405	1	0.165	238488.0
81	1391	1	0.165	238488.0
81	1410	1	0.165	238488.0
82	1409	1	0.165	238488.0
82	1560	1	0.165	238488.0
83	1393	1	0.165	238488.0
83	1411	1	0.165	238488.0
84	1412	1	0.165	238488.0
84	1442	1	0.165	238488.0
85	1413	1	0.165	238488.0
85	1443	1	0.165	238488.0
86	1414	1	0.165	238488.0
86	1444	1	0.165	238488.0
87	1413	1	0.165	238488.0
87	1415	1	0.165	238488.0
88	1414	1	0.165	238488.0
88	1416	1	0.165	238488.0
89	1417	1	0.165	238488.0
89	1580	1	0.165	238488.0
90	1410	1	0.165	238488.0
90	1418	1	0.165	238488.0
91	1407	1	0.165	238488.0
91	1409	1	0.165	238488.0
92	1411	1	0.165	238488.0
92	1420	1	0.165	238488.0
93	1410	1	0.165	238488.0
93	1415	1	0.165	238488.0
94	1411	1	0.165	238488.0
94	1417	1	0.165	238488.0
95	1412	1	0.165	238488.0
95	1418	1	0.165	238488.0
96	1413	1	0.165	238488.0
96	1419	1	0.165	238488.0
97	1414	1	0.165	238488.0
97	1420	1	0.165	238488.0
98	1409	1	0.165	238488.0
98	1420	1	0.165	238488.0
99	1410	1	0.165	238488.0
99	1923	1	0.165	238488.0
100	1411	1	0.165	238488.0
100	1418	1	0.165	238488.0
101	1412	1	0.165	238488.0
101	1416	1	0.165	238488.0
102	1413	1	0.165	238488.0
102	1417	1	0.165	238488.0
103	1403	1	0.165	238488.0
103	1414	1	0.165	238488.0
104	1403	1	0.165	238488.0
104	1422	1	0.165	238488.0
105	1421	1	0.165	238488.0
105	1572	1	0.165	238488.0
106	1405	1	0.165	238488.0
106	1423	1	0.165	238488.0
107	1424	1	0.165	238488.0
107	1454	1	0.165	238488.0
108	1425	1	0.165	238488.0
108	1455	1	0.165	238488.0
109	1426	1	0.165	238488.0
109	1456	1	0.165	238488.0
110	1425	1	0.165	238488.0
110	1427	1	0.165	238488.0
111	1426	1	0.165	238488.0
111	1428	1	0.165	238488.0
112	1429	1	0.165	238488.0
112	1592	1	0.165	238488.0
113	1422	1	0.165	238488.0
113	1430	1	0.165	238488.0
114	1421	1	0.165	238488.0
114	1426	1	0.165	238488.0
115	1423	1	0.165	238488.0
115	1432	1	0.165	238488.0
116	1422	1	0.165	238488.0
116	1427	1	0.165	238488.0
117	1423	1	0.165	238488.0
117	1429	1	0.165	238488.0
118	1424	1	0.165	238488.0
118	1430	1	0.165	238488.0
119	1425	1	0.165	238488.0
119	1431	1	0.165	238488.0
120	1426	1	0.165	238488.0
120	1432	1	0.165	238488.0
121	1421	1	0.165	238488.0
121	1432	1	0.165	238488.0
122	1422	1	0.165	238488.0
122	1935	1	0.165	238488.0
123	1423	1	0.165	238488.0
123	1430	1	0.165	238488.0
124	1424	1	0.165	238488.0
124	1428	1	0.165	238488.0
125	1425	1	0.165	238488.0
125	1429	1	0.165	238488.0
126	1415	1	0.165	238488.0
126	1434	1	0.165	238488.0
127	1433	1	0.165	238488.0
127	1584	1	0.165	238488.0
128	1417	1	0.165	238488.0
128	1435	1	0.165	238488.0
129	1436	1	0.165	238488.0
129	1466	1	0.165	238488.0
130	1437	1	0.165	238488.0
130	1467	1	0.165	238488.0
131	1438	1	0.165	238488.0
131	1468	1	0.165	238488.0
132	1437	1	0.165	238488.0
132	1439	1	0.165	238488.0
133	1438	1	0.165	238488.0
133	1440	1	0.165	238488.0
134	1441	1	0.165	238488.0
134	1604	1	0.165	238488.0
135	1434	1	0.165	238488.0
135	1442	1	0.165	238488.0
136	1431	1	0.165	238488.0
136	1433	1	0.165	238488.0
137	1435	1	0.165	238488.0
137	1444	1	0.165	238488.0
138	1434	1	0.165	238488.0
138	1439	1	0.165	238488.0
139	1435	1	0.165	238488.0
139	1441	1	0.165	238488.0
140	1436	1	0.165	238488.0
140	1442	1	0.165	238488.0
141	1437	1	0.165	238488.0
141	1443	1	0.165	238488.0
142	1438	1	0.165	238488.0
142	1444	1	0.165	238488.0
143	1433	1	0.165	238488.0
143	1444	1	0.165	238488.0
144	1434	1	0.165	238488.0
144	1947	1	0.165	238488.0
145	1435	1	0.165	238488.0
145	1442	1	0.165	238488.0
146	1436	1	0.165	238488.0
146	1440	1	0.165	238488.0
147	1437	1	0.165	238488.0
147	1441	1	0.165	238488.0
148	1427	1	0.165	238488.0
148	1438	1	0.165	238488.0
149	1427	1	0.165	238488.0
149	1446	1	0.165	238488.0
150	1445	1	0.165	238488.0
150	1596	1	0.165	238488.0
151	1429	1	0.165	238488.0
151	1447	1	0.165	238488.0
152	1448	1	0.165	238488.0
152	1478	1	0.165	238488.0
153	1449	1	0.165	238488.0
153	1479	1	0.165	238488.0
154	1450	1	0.165	238488.0
154	1480	1	0.165	238488.0
155	1449	1	0.165	238488.0
155	1451	1	0.165	238488.0
156	1450	1	0.165	238488.0
156	1452	1	0.165	238488.0
157	1453	1	0.165	238488.0
157	1616	1	0.165	238488.0
158	1446	1	0.165	238488.0
158	1454	1	0.165	238488.0
159	1447	1	0.165	238488.0
159	1456	1	0.165	238488.0
160	1446	1	0.165	238488.0
160	1451	1	0.165	238488.0
161	1447	1	0.165	238488.0
161	1453	1	0.165	238488.0
162	1448	1	0.165	238488.0
162	1454	1	0.165	238488.0
163	1449	1	0.165	238488.0
163	1455	1	0.165	238488.0
164	1450	1	0.165	238488.0
164	1456	1	0.165	238488.0
165	1445	1	0.165	238488.0
165	1456	1	0.165	238488.0
166	1446	1	0.165	238488.0
166	1959	1	0.165	238488.0
167	1447	1	0.165	238488.0
167	1454	1	0.165	238488.0
168	1448	1	0.165	238488.0
168	1452	1	0.165	238488.0
169	1449	1	0.165	238488.0
169	1453	1	0.165	238488.0
170	1439	1	0.165	238488.0
170	1458	1	0.165	238488.0
171	1457	1	0.165	238488.0
171	1608	1	0.165	238488.0
172	1441	1	0.165	238488.0
172	1459	1	0.165	238488.0
173	1460	1	0.165	238488.0
173	1490	1	0.165	238488.0
174	1461	1	0.165	238488.0
174	1491	1	0.165	238488.0
175	1462	1	0.165	238488.0
175	1492	1	0.165	238488.0
176	1461	1	0.165	238488.0
176	1463	1	0.165	238488.0
177	1462	1	0.165	238488.0
177	1464	1	0.165	238488.0
178	1465	1	0.165	238488.0
178	1628	1	0.165	238488.0
179	1458	1	0.165	238488.0
179	1466	1	0.165	238488.0
180	1455	1	0.165	238488.0
180	1457	1	0.165	238488.0
181	1459	1	0.165	238488.0
181	1468	1	0.165	238488.0
182	1458	1	0.165	238488.0
182	1463	1	0.165	238488.0
183	1459	1	0.165	238488.0
183	1465	1	0.165	238488.0
184	1460	1	0.165	238488.0
184	1466	1	0.165	238488.0
185	1461	1	0.165	238488.0
185	1467	1	0.165	238488.0
186	1462	1	0.165	238488.0
186	1468	1	0.165	238488.0
187	1457	1	0.165	238488.0
187	1468	1	0.165	238488.0
188	1458	1	0.165	238488.0
188	1971	1	0.165	238488.0
189	1459	1	0.165	238488.0
189	1466	1	0.165	238488.0
190	1460	1	0.165	238488.0
190	1464	1	0.165	238488.0
191	1461	1	0.165	238488.0
191	1465	1	0.165	238488.0
192	1451	1	0.165	238488.0
192	1462	1	0.165	238488.0
193	1451	1	0.165	238488.0
193	1470	1	0.165	238488.0
194	1469	1	0.165	238488.0
194	1620	1	0.165	238488.0
195	1453	1	0.165	238488.0
195	1471	1	0.165	238488.0
196	1472	1	0.165	238488.0
196	1502	1	0.165	238488.0
197	1473	1	0.165	238488.0
197	1503	1	0.165	238488.0
198	1474	1	0.165	238488.0
198	1504	1	0.165	238488.0
199	1473	1	0.165	238488.0
199	1475	1	0.165	238488.0
200	1474	1	0.165	238488.0
200	1476	1	0.165	238488.0
201	1477	1	0.165	238488.0
201	1640	1	0.165	238488.0
202	1470	1	0.165	238488.0
202	1478	1	0.165	238488.0
203	1469	1	0.165	238488.0
203	1618	1	0.165	238488.0
204	1471	1	0.165	238488.0
204	1480	1	0.165	238488.0
205	1470	1	0.165	238488.0
205	1475	1	0.165	238488.0
206	1471	1	0.165	238488.0
206	1477	1	0.165	238488.0
207	1472	1	0.165	238488.0
207	1478	1	0.165	238488.0
208	1473	1	0.165	238488.0
208	1479	1	0.165	238488.0
209	1474	1	0.165	238488.0
209	1480	1	0.165	238488.0
210	1469	1	0.165	238488.0
210	1480	1	0.165	238488.0
211	1470	1	0.165	238488.0
211	1983	1	0.165	238488.0
212	1471	1	0.165	238488.0
212	1478	1	0.165	238488.0
213	1472	1	0.165	238488.0
213	1476	1	0.165	238488.0
214	1473	1	0.165	238488.0
214	1477	1	0.165	238488.0
215	1463	1	0.165	238488.0
215	1482	1	0.165	238488.0
216	1481	1	0.165	238488.0
216	1632	1	0.165	238488.0
217	1465	1	0.165	238488.0
217	1483	1	0.165	238488.0
218	1484	1	0.165	238488.0
218	1514	1	0.165	238488.0
219	1485	1	0.165	238488.0
219	1515	1	0.165	238488.0
220	1486	1	0.165	238488.0
220	1516	1	0.165	238488.0
221	1485	1	0.165	238488.0
221	1487	1	0.165	238488.0
222	1486	1	0.165	238488.0
222	1488	1	0.165	238488.0
223	1489	1	0.165	238488.0
223	1652	1	0.165	238488.0
224	1482	1	0.165	238488.0
224	1490	1	0.165	238488.0
225	1479	1	0.165	238488.0
225	1481	1	0.165	238488.0
226	1483	1	0.165	238488.0
226	1492	1	0.165	238488.0
227	1482	1	0.165	238488.0
227	1487	1	0.165	238488.0
228	1483	1	0.165	238488.0
228	1489	1	0.165	238488.0
229	1484	1	0.165	238488.0
229	1490	1	0.165	238488.0
230	1485	1	0.165	238488.0
230	1491	1	0.165	238488.0
231	1486	1	0.165	238488.0
231	1492	1	0.165	238488.0
232	1481	1	0.165	238488.0
232	1492	1	0.165	238488.0
233	1482	1	0.165	238488.0
233	1995	1	0.165	238488.0
234	1483	1	0.165	238488.0
234	1490	1	0.165	238488.0
235	1484	1	0.165	238488.0
235	1488	1	0.165	238488.0
236	1485	1	0.165	238488.0
236	1489	1	0.165	238488.0
237	1475	1	0.165	238488.0
237	1486	1	0.165	238488.0
238	1475	1	0.165	238488.0
238	1494	1	0.165	238488.0
239	1493	1	0.165	238488.0
239	1644	1	0.165	238488.0
240	1477	1	0.165	238488.0
240	1495	1	0.165	238488.0
241	1496	1	0.165	238488.0
241	1526	1	0.165	238488.0
242	1497	1	0.165	238488.0
242	1527	1	0.165	238488.0
243	1498	1	0.165	238488.0
243	1528	1	0.165	238488.0
244	1497	1	0.165	238488.0
244	1499	1	0.165	238488.0
245	1498	1	0.165	238488.0
245	1500	1	0.165	238488.0
246	1501	1	0.165	238488.0
246	1664	1	0.165	238488.0
247	1494	1	0.165	238488.0
247	1502	1	0.165	238488.0
248	1495	1	0.165	238488.0
248	1504	1	0.165	238488.0
249	1494	1	0.165	238488.0
249	1499	1	0.165	238488.0
250	1495	1	0.165	238488.0
250	1501	1	0.165	238488.0
251	1496	1	0.165	238488.0
251	1502	1	0.165	238488.0
252	1497	1	0.165	238488.0
252	1503	1	0.165	238488.0
253	1498	1	0.165	238488.0
253	1504	1	0.165	238488.0
254	1493	1	0.165	238488.0
254	1504	1	0.165	238488.0
255	1494	1	0.165	238488.0
255	2007	1	0.165	238488.0
256	1495	1	0.165	238488.0
256	1502	1	0.165	238488.0
257	1496	1	0.165	238488.0
257	1500	1	0.165	238488.0
258	1497	1	0.165	238488.0
258	1501	1	0.165	238488.0
259	1493	1	0.165	238488.0
259	1498	1	0.165	238488.0
260	1487	1	0.165	238488.0
260	1506	1	0.165	238488.0
261	1505	1	0.165	238488.0
261	1656	1	0.165	238488.0
262	1489	1	0.165	238488.0
262	1507	1	0.165	238488.0
263	1508	1	0.165	238488.0
263	1538	1	0.165	238488.0
264	1509	1	0.165	238488.0
264	1539	1	0.165	238488.0
265	1510	1	0.165	238488.0
265	1540	1	0.165	238488.0
266	1509	1	0.165	238488.0
266	1511	1	0.165	238488.0
267	1510	1	0.165	238488.0
267	1512	1	0.165	238488.0
268	1513	1	0.165	238488.0
268	1676	1	0.165	238488.0
269	1506	1	0.165	238488.0
269	1514	1	0.165	238488.0
270	1503	1	0.165	238488.0
270	1505	1	0.165	238488.0
271	1507	1	0.165	238488.0
271	1516	1	0.165	238488.0
272	1506	1	0.165	238488.0
272	1511	1	0.165	238488.0
273	1507	1	0.165	238488.0
273	1513	1	0.165	238488.0
274	1508	1	0.165	238488.0
274	1514	1	0.165	238488.0
275	1509	1	0.165	238488.0
275	1515	1	0.165	238488.0
276	1510	1	0.165	238488.0
276	1516	1	0.165	238488.0
277	1505	1	0.165	238488.0
277	1516	1	0.165	238488.0
278	1506	1	0.165	238488.0
278	2019	1	0.165	238488.0
279	1507	1	0.165	238488.0
279	1514	1	0.165	238488.0
280	1508	1	0.165	238488.0
280	1512	1	0.165	238488.0
281	1509	1	0.165	238488.0
281	1513	1	0.165	238488.0
282	1499	1	0.165	238488.0
282	1510	1	0.165	238488.0
283	1499	1	0.165	238488.0
283	1518	1	0.165	238488.0
284	1517	1	0.165	238488.0
284	1668	1	0.165	238488.0
285	1501	1	0.165	238488.0
285	1519	1	0.165	238488.0
286	1382	1	0.165	238488.0
286	1520	1	0.165	238488.0
287	1383	1	0.165	238488.0
287	1521	1	0.165	238488.0
288	1384	1	0.165	238488.0
288	1522	1	0.165	238488.0
289	1521	1	0.165	238488.0
289	1523	1	0.165	238488.0
290	1522	1	0.165	238488.0
290	1524	1	0.165	238488.0
291	1525	1	0.165	238488.0
291	1688	1	0.165	238488.0
292	1518	1	0.165	238488.0
292	1526	1	0.165	238488.0
293	1519	1	0.165	238488.0
293	1528	1	0.165	238488.0
294	1518	1	0.165	238488.0
294	1523	1	0.165	238488.0
295	1519	1	0.165	238488.0
295	1525	1	0.165	238488.0
296	1520	1	0.165	238488.0
296	1526	1	0.165	238488.0
297	1521	1	0.165	238488.0
297	1527	1	0.165	238488.0
298	1522	1	0.165	238488.0
298	1528	1	0.165	238488.0
299	1517	1	0.165	238488.0
299	1528	1	0.165	238488.0
300	1518	1	0.165	238488.0
300	2031	1	0.165	238488.0
301	1519	1	0.165	238488.0
301	1526	1	0.165	238488.0
302	1520	1	0.165	238488.0
302	1524	1	0.165	238488.0
303	1521	1	0.165	238488.0
303	1525	1	0.165	238488.0
304	1511	1	0.165	238488.0
304	1530	1	0.165	238488.0
305	1529	1	0.165	238488.0
305	1680	1	0.165	238488.0
306	1513	1	0.165	238488.0
306	1531	1	0.165	238488.0
307	1394	1	0.165	238488.0
307	1532	1	0.165	238488.0
308	1395	1	0.165	238488.0
308	1533	1	0.165	238488.0
309	1396	1	0.165	238488.0
309	1534	1	0.165	238488.0
310	1533	1	0.165	238488.0
310	1535	1	0.165	238488.0
311	1534	1	0.165	238488.0
311	1536	1	0.165	238488.0
312	1537	1	0.165	238488.0
312	1700	1	0.165	238488.0
313	1530	1	0.165	238488.0
313	1538	1	0.165	238488.0
314	1527	1	0.165	238488.0
314	1529	1	0.165	238488.0
315	1531	1	0.165	238488.0
315	1540	1	0.165	238488.0
316	1530	1	0.165	238488.0
316	1535	1	0.165	238488.0
317	1531	1	0.165	238488.0
317	1537	1	0.165	238488.0
318	1532	1	0.165	238488.0
318	1538	1	0.165	238488.0
319	1533	1	0.165	238488.0
319	1539	1	0.165	238488.0
320	1534	1	0.165	238488.0
320	1540	1	0.165	238488.0
321	1529	1	0.165	238488.0
321	1540	1	0.165	238488.0
322	1530	1	0.165	238488.0
322	2043	1	0.165	238488.0
323	1531	1	0.165	238488.0
323	1538	1	0.165	238488.0
324	1532	1	0.165	238488.0
324	1536	1	0.165	238488.0
325	1533	1	0.165	238488.0
325	1537	1	0.165	238488.0
326	1523	1	0.165	238488.0
326	1534	1	0.165	238488.0
327	1542	1	0.165	238488.0
327	1691	1	0.165	238488.0
328	1541	1	0.165	238488.0
328	1860	1	0.165	238488.0
329	1543	1	0.165	238488.0
329	1693	1	0.165	238488.0
330	1544	1	0.165	238488.0
330	1574	1	0.165	238488.0
331	1545	1	0.165	238488.0
331	1575	1	0.165	238488.0
332	1546	1	0.165	238488.0
332	1576	1	0.165	238488.0
333	1545	1	0.165	238488.0
333	1547	1	0.165	238488.0
334	1546	1	0.165	238488.0
334	1548	1	0.165	238488.0
335	1549	1	0.165	238488.0
335	1712	1	0.165	238488.0
336	1542	1	0.165	238488.0
336	1550	1	0.165	238488.0
337	1541	1	0.165	238488.0
337	1714	1	0.165	238488.0
338	1543	1	0.165	238488.0
338	1552	1	0.165	238488.0
339	1542	1	0.165	238488.0
339	1547	1	0.165	238488.0
340	1373	1	0.165	238488.0
340	1548	1	0.165	238488.0
341	1543	1	0.165	238488.0
341	1549	1	0.165	238488.0
342	1544	1	0.165	238488.0
342	1550	1	0.165	238488.0
343	1545	1	0.165	238488.0
343	1551	1	0.165	238488.0
344	1546	1	0.165	238488.0
344	1552	1	0.165	238488.0
345	1541	1	0.165	238488.0
345	1552	1	0.165	238488.0
346	1383	1	0.165	238488.0
346	1542	1	0.165	238488.0
347	1543	1	0.165	238488.0
347	1550	1	0.165	238488.0
348	1544	1	0.165	238488.0
348	1548	1	0.165	238488.0
349	1545	1	0.165	238488.0
349	1549	1	0.165	238488.0
350	1554	1	0.165	238488.0
350	1703	1	0.165	238488.0
351	1553	1	0.165	238488.0
351	1872	1	0.165	238488.0
352	1555	1	0.165	238488.0
352	1705	1	0.165	238488.0
353	1556	1	0.165	238488.0
353	1586	1	0.165	238488.0
354	1557	1	0.165	238488.0
354	1587	1	0.165	238488.0
355	1558	1	0.165	238488.0
355	1588	1	0.165	238488.0
356	1557	1	0.165	238488.0
356	1559	1	0.165	238488.0
357	1558	1	0.165	238488.0
357	1560	1	0.165	238488.0
358	1561	1	0.165	238488.0
358	1724	1	0.165	238488.0
359	1554	1	0.165	238488.0
359	1562	1	0.165	238488.0
360	1551	1	0.165	238488.0
360	1553	1	0.165	238488.0
361	1555	1	0.165	238488.0
361	1564	1	0.165	238488.0
362	1554	1	0.165	238488.0
362	1559	1	0.165	238488.0
363	1385	1	0.165	238488.0
363	1560	1	0.165	238488.0
364	1555	1	0.165	238488.0
364	1561	1	0.165	238488.0
365	1556	1	0.165	238488.0
365	1562	1	0.165	238488.0
366	1557	1	0.165	238488.0
366	1563	1	0.165	238488.0
367	1558	1	0.165	238488.0
367	1564	1	0.165	238488.0
368	1553	1	0.165	238488.0
368	1564	1	0.165	238488.0
369	1395	1	0.165	238488.0
369	1554	1	0.165	238488.0
370	1555	1	0.165	238488.0
370	1562	1	0.165	238488.0
371	1556	1	0.165	238488.0
371	1560	1	0.165	238488.0
372	1557	1	0.165	238488.0
372	1561	1	0.165	238488.0
373	1547	1	0.165	238488.0
373	1558	1	0.165	238488.0
374	1547	1	0.165	238488.0
374	1566	1	0.165	238488.0
375	1565	1	0.165	238488.0
375	1716	1	0.165	238488.0
376	1549	1	0.165	238488.0
376	1567	1	0.165	238488.0
377	1568	1	0.165	238488.0
377	1598	1	0.165	238488.0
378	1569	1	0.165	238488.0
378	1599	1	0.165	238488.0
379	1570	1	0.165	238488.0
379	1600	1	0.165	238488.0
380	1569	1	0.165	238488.0
380	1571	1	0.165	238488.0
381	1570	1	0.165	238488.0
381	1572	1	0.165	238488.0
382	1573	1	0.165	238488.0
382	1736	1	0.165	238488.0
383	1566	1	0.165	238488.0
383	1574	1	0.165	238488.0
384	1567	1	0.165	238488.0
384	1576	1	0.165	238488.0
385	1566	1	0.165	238488.0
385	1571	1	0.165	238488.0
386	1397	1	0.165	238488.0
386	1572	1	0.165	238488.0
387	1567	1	0.165	238488.0
387	1573	1	0.165	238488.0
388	1568	1	0.165	238488.0
388	1574	1	0.165	238488.0
389	1569	1	0.165	238488.0
389	1575	1	0.165	238488.0
390	1570	1	0.165	238488.0
390	1576	1	0.165	238488.0
391	1565	1	0.165	238488.0
391	1576	1	0.165	238488.0
392	1407	1	0.165	238488.0
392	1566	1	0.165	238488.0
393	1567	1	0.165	238488.0
393	1574	1	0.165	238488.0
394	1568	1	0.165	238488.0
394	1572	1	0.165	238488.0
395	1569	1	0.165	238488.0
395	1573	1	0.165	238488.0
396	1559	1	0.165	238488.0
396	1578	1	0.165	238488.0
397	1577	1	0.165	238488.0
397	1728	1	0.165	238488.0
398	1561	1	0.165	238488.0
398	1579	1	0.165	238488.0
399	1580	1	0.165	238488.0
399	1610	1	0.165	238488.0
400	1581	1	0.165	238488.0
400	1611	1	0.165	238488.0
401	1582	1	0.165	238488.0
401	1612	1	0.165	238488.0
402	1581	1	0.165	238488.0
402	1583	1	0.165	238488.0
403	1582	1	0.165	238488.0
403	1584	1	0.165	238488.0
404	1585	1	0.165	238488.0
404	1748	1	0.165	238488.0
405	1578	1	0.165	238488.0
405	1586	1	0.165	238488.0
406	1575	1	0.165	238488.0
406	1577	1	0.165	238488.0
407	1579	1	0.165	238488.0
407	1588	1	0.165	238488.0
408	1578	1	0.165	238488.0
408	1583	1	0.165	238488.0
409	1409	1	0.165	238488.0
409	1584	1	0.165	238488.0
410	1579	1	0.165	238488.0
410	1585	1	0.165	238488.0
411	1580	1	0.165	238488.0
411	1586	1	0.165	238488.0
412	1581	1	0.165	238488.0
412	1587	1	0.165	238488.0
413	1582	1	0.165	238488.0
413	1588	1	0.165	238488.0
414	1577	1	0.165	238488.0
414	1588	1	0.165	238488.0
415	1419	1	0.165	238488.0
415	1578	1	0.165	238488.0
416	1579	1	0.165	238488.0
416	1586	1	0.165	238488.0
417	1580	1	0.165	238488.0
417	1584	1	0.165	238488.0
418	1581	1	0.165	238488.0
418	1585	1	0.165	238488.0
419	1571	1	0.165	238488.0
419	1582	1	0.165	238488.0
420	1571	1	0.165	238488.0
420	1590	1	0.165	238488.0
421	1589	1	0.165	238488.0
421	1740	1	0.165	238488.0
422	1573	1	0.165	238488.0
422	1591	1	0.165	238488.0
423	1592	1	0.165	238488.0
423	1622	1	0.165	238488.0
424	1593	1	0.165	238488.0
424	1623	1	0.165	238488.0
425	1594	1	0.165	238488.0
425	1624	1	0.165	238488.0
426	1593	1	0.165	238488.0
426	1595	1	0.165	238488.0
427	1594	1	0.165	238488.0
427	1596	1	0.165	238488.0
428	1597	1	0.165	238488.0
428	1760	1	0.165	238488.0
429	1590	1	0.165	238488.0
429	1598	1	0.165	238488.0
430	1589	1	0.165	238488.0
430	1738	1	0.165	238488.0
431	1591	1	0.165	238488.0
431	1600	1	0.165	238488.0
432	1590	1	0.165	238488.0
432	1595	1	0.165	238488.0
433	1421	1	0.165	238488.0
433	1596	1	0.165	238488.0
434	1591	1	0.165	238488.0
434	1597	1	0.165	238488.0
435	1592	1	0.165	238488.0
435	1598	1	0.165	238488.0
436	1593	1	0.165	238488.0
436	1599	1	0.165	238488.0
437	1594	1	0.165	238488.0
437	1600	1	0.165	238488.0
438	1589	1	0.165	238488.0
438	1600	1	0.165	238488.0
439	1431	1	0.165	238488.0
439	1590	1	0.165	238488.0
440	1591	1	0.165	238488.0
440	1598	1	0.165	238488.0
441	1592	1	0.165	238488.0
441	1596	1	0.165	238488.0
442	1593	1	0.165	238488.0
442	1597	1	0.165	238488.0
443	1583	1	0.165	238488.0
443	1602	1	0.165	238488.0
444	1601	1	0.165	238488.0
444	1752	1	0.165	238488.0
445	1585	1	0.165	238488.0
445	1603	1	0.165	238488.0
446	1604	1	0.165	238488.0
446	1634	1	0.165	238488.0
447	1605	1	0.165	238488.0
447	1635	1	0.165	238488.0
448	1606	1	0.165	238488.0
448	1636	1	0.165	238488.0
449	1605	1	0.165	238488.0
449	1607	1	0.165	238488.0
450	1606	1	0.165	238488.0
450	1608	1	0.165	238488.0
451	1609	1	0.165	238488.0
451	1772	1	0.165	238488.0
452	1602	1	0.165	238488.0
452	1610	1	0.165	238488.0
453	1599	1	0.165	238488.0
453	1601	1	0.165	238488.0
454	1603	1	0.165	238488.0
454	1612	1	0.165	238488.0
455	1602	1	0.165	238488.0
455	1607	1	0.165	238488.0
456	1433	1	0.165	238488.0
456	1608	1	0.165	238488.0
457	1603	1	0.165	238488.0
457	1609	1	0.165	238488.0
458	1604	1	0.165	238488.0
458	1610	1	0.165	238488.0
459	1605	1	0.165	238488.0
459	1611	1	0.165	238488.0
460	1606	1	0.165	238488.0
460	1612	1	0.165	238488.0
461	1601	1	0.165	238488.0
461	1612	1	0.165	238488.0
462	1443	1	0.165	238488.0
462	1602	1	0.165	238488.0
463	1603	1	0.165	238488.0
463	1610	1	0.165	238488.0
464	1604	1	0.165	238488.0
464	1608	1	0.165	238488.0
465	1605	1	0.165	238488.0
465	1609	1	0.165	238488.0
466	1595	1	0.165	238488.0
466	1606	1	0.165	238488.0
467	1595	1	0.165	238488.0
467	1614	1	0.165	238488.0
468	1613	1	0.165	238488.0
468	1764	1	0.165	238488.0
469	1597	1	0.165	238488.0
469	1615	1	0.165	238488.0
470	1616	1	0.165	238488.0
470	1646	1	0.165	238488.0
471	1617	1	0.165	238488.0
471	1647	1	0.165	238488.0
472	1618	1	0.165	238488.0
472	1648	1	0.165	238488.0
473	1617	1	0.165	238488.0
473	1619	1	0.165	238488.0
474	1618	1	0.165	238488.0
474	1620	1	0.165	238488.0
475	1621	1	0.165	238488.0
475	1784	1	0.165	238488.0
476	1614	1	0.165	238488.0
476	1622	1	0.165	238488.0
477	1615	1	0.165	238488.0
477	1624	1	0.165	238488.0
478	1614	1	0.165	238488.0
478	1619	1	0.165	238488.0
479	1445	1	0.165	238488.0
479	1620	1	0.165	238488.0
480	1615	1	0.165	238488.0
480	1621	1	0.165	238488.0
481	1616	1	0.165	238488.0
481	1622	1	0.165	238488.0
482	1617	1	0.165	238488.0
482	1623	1	0.165	238488.0
483	1618	1	0.165	238488.0
483	1624	1	0.165	238488.0
484	1613	1	0.165	238488.0
484	1624	1	0.165	238488.0
485	1455	1	0.165	238488.0
485	1614	1	0.165	238488.0
486	1615	1	0.165	238488.0
486	1622	1	0.165	238488.0
487	1616	1	0.165	238488.0
487	1620	1	0.165	238488.0
488	1617	1	0.165	238488.0
488	1621	1	0.165	238488.0
489	1607	1	0.165	238488.0
489	1626	1	0.165	238488.0
490	1625	1	0.165	238488.0
490	1776	1	0.165	238488.0
491	1609	1	0.165	238488.0
491	1627	1	0.165	238488.0
492	1628	1	0.165	238488.0
492	1658	1	0.165	238488.0
493	1629	1	0.165	238488.0
493	1659	1	0.165	238488.0
494	1630	1	0.165	238488.0
494	1660	1	0.165	238488.0
495	1629	1	0.165	238488.0
495	1631	1	0.165	238488.0
496	1630	1	0.165	238488.0
496	1632	1	0.165	238488.0
497	1633	1	0.165	238488.0
497	1796	1	0.165	238488.0
498	1626	1	0.165	238488.0
498	1634	1	0.165	238488.0
499	1623	1	0.165	238488.0
499	1625	1	0.165	238488.0
500	1627	1	0.165	238488.0
500	1636	1	0.165	238488.0
501	1626	1	0.165	238488.0
501	1631	1	0.165	238488.0
502	1457	1	0.165	238488.0
502	1632	1	0.165	238488.0
503	1627	1	0.165	238488.0
503	1633	1	0.165	238488.0
504	1628	1	0.165	238488.0
504	1634	1	0.165	238488.0
505	1629	1	0.165	238488.0
505	1635	1	0.165	238488.0
506	1630	1	0.165	238488.0
506	1636	1	0.165	238488.0
507	1625	1	0.165	238488.0
507	1636	1	0.165	238488.0
508	1467	1	0.165	238488.0
508	1626	1	0.165	238488.0
509	1627	1	0.165	238488.0
509	1634	1	0.165	238488.0
510	1628	1	0.165	238488.0
510	1632	1	0.165	238488.0
511	1629	1	0.165	238488.0
511	1633	1	0.165	238488.0
512	1619	1	0.165	238488.0
512	1630	1	0.165	238488.0
513	1619	1	0.165	238488.0
513	1638	1	0.165	238488.0
514	1637	1	0.165	238488.0
514	1788	1	0.165	238488.0
515	1621	1	0.165	238488.0
515	1639	1	0.165	238488.0
516	1640	1	0.165	238488.0
516	1670	1	0.165	238488.0
517	1641	1	0.165	238488.0
517	1671	1	0.165	238488.0
518	1642	1	0.165	238488.0
518	1672	1	0.165	238488.0
519	1641	1	0.165	238488.0
519	1643	1	0.165	238488.0
520	1642	1	0.165	238488.0
520	1644	1	0.165	238488.0
521	1645	1	0.165	238488.0
521	1808	1	0.165	238488.0
522	1638	1	0.165	238488.0
522	1646	1	0.165	238488.0
523	1639	1	0.165	238488.0
523	1648	1	0.165	238488.0
524	1638	1	0.165	238488.0
524	1643	1	0.165	238488.0
525	1469	1	0.165	238488.0
525	1644	1	0.165	238488.0
526	1639	1	0.165	238488.0
526	1645	1	0.165	238488.0
527	1640	1	0.165	238488.0
527	1646	1	0.165	238488.0
528	1641	1	0.165	238488.0
528	1647	1	0.165	238488.0
529	1642	1	0.165	238488.0
529	1648	1	0.165	238488.0
530	1637	1	0.165	238488.0
530	1648	1	0.165	238488.0
531	1479	1	0.165	238488.0
531	1638	1	0.165	238488.0
532	1639	1	0.165	238488.0
532	1646	1	0.165	238488.0
533	1640	1	0.165	238488.0
533	1644	1	0.165	238488.0
534	1641	1	0.165	238488.0
534	1645	1	0.165	238488.0
535	1631	1	0.165	238488.0
535	1650	1	0.165	238488.0
536	1649	1	0.165	238488.0
536	1800	1	0.165	238488.0
537	1633	1	0.165	238488.0
537	1651	1	0.165	238488.0
538	1652	1	0.165	238488.0
538	1682	1	0.165	238488.0
539	1653	1	0.165	238488.0
539	1683	1	0.165	238488.0
540	1654	1	0.165	238488.0
540	1684	1	0.165	238488.0
541	1653	1	0.165	238488.0
541	1655	1	0.165	238488.0
542	1654	1	0.165	238488.0
542	1656	1	0.165	238488.0
543	1657	1	0.165	238488.0
543	1820	1	0.165	238488.0
544	1650	1	0.165	238488.0
544	1658	1	0.165	238488.0
545	1647	1	0.165	238488.0
545	1649	1	0.165	238488.0
546	1651	1	0.165	238488.0
546	1660	1	0.165	238488.0
547	1650	1	0.165	238488.0
547	1655	1	0.165	238488.0
548	1481	1	0.165	238488.0
548	1656	1	0.165	238488.0
549	1651	1	0.165	238488.0
549	1657	1	0.165	238488.0
550	1652	1	0.165	238488.0
550	1658	1	0.165	238488.0
551	1653	1	0.165	238488.0
551	1659	1	0.165	238488.0
552	1654	1	0.165	238488.0
552	1660	1	0.165	238488.0
553	1649	1	0.165	238488.0
553	1660	1	0.165	238488.0
554	1491	1	0.165	238488.0
554	1650	1	0.165	238488.0
555	1651	1	0.165	238488.0
555	1658	1	0.165	238488.0
556	1652	1	0.165	238488.0
556	1656	1	0.165	238488.0
557	1653	1	0.165	238488.0
557	1657	1	0.165	238488.0
558	1643	1	0.165	238488.0
558	1654	1	0.165	238488.0
559	1643	1	0.165	238488.0
559	1662	1	0.165	238488.0
560	1661	1	0.165	238488.0
560	1812	1	0.165	238488.0
561	1645	1	0.165	238488.0
561	1663	1	0.165	238488.0
562	1664	1	0.165	238488.0
562	1694	1	0.165	238488.0
563	1665	1	0.165	238488.0
563	1695	1	0.165	238488.0
564	1666	1	0.165	238488.0
564	1696	1	0.165	238488.0
565	1665	1	0.165	238488.0
565	1667	1	0.165	238488.0
566	1666	1	0.165	238488.0
566	1668	1	0.165	238488.0
567	1669	1	0.165	238488.0
567	1832	1	0.165	238488.0
568	1662	1	0.165	238488.0
568	1670	1	0.165	238488.0
569	1661	1	0.165	238488.0
569	1834	1	0.165	238488.0
570	1663	1	0.165	238488.0
570	1672	1	0.165	238488.0
571	1662	1	0.165	238488.0
571	1667	1	0.165	238488.0
572	1493	1	0.165	238488.0
572	1668	1	0.165	238488.0
573	1663	1	0.165	238488.0
573	1669	1	0.165	238488.0
574	1664	1	0.165	238488.0
574	1670	1	0.165	238488.0
575	1665	1	0.165	238488.0
575	1671	1	0.165	238488.0
576	1666	1	0.165	238488.0
576	1672	1	0.165	238488.0
577	1661	1	0.165	238488.0
577	1672	1	0.165	238488.0
578	1503	1	0.165	238488.0
578	1662	1	0.165	238488.0
579	1663	1	0.165	238488.0
579	1670	1	0.165	238488.0
580	1664	1	0.165	238488.0
580	1668	1	0.165	238488.0
581	1665	1	0.165	238488.0
581	1669	1	0.165	238488.0
582	1655	1	0.165	238488.0
582	1674	1	0.165	238488.0
583	1673	1	0.165	238488.0
583	1824	1	0.165	238488.0
584	1657	1	0.165	238488.0
584	1675	1	0.165	238488.0
585	1676	1	0.165	238488.0
585	1706	1	0.165	238488.0
586	1677	1	0.165	238488.0
586	1707	1	0.165	238488.0
587	1678	1	0.165	238488.0
587	1708	1	0.165	238488.0
588	1677	1	0.165	238488.0
588	1679	1	0.165	238488.0
589	1678	1	0.165	238488.0
589	1680	1	0.165	238488.0
590	1681	1	0.165	238488.0
590	1844	1	0.165	238488.0
591	1674	1	0.165	238488.0
591	1682	1	0.165	238488.0
592	1671	1	0.165	238488.0
592	1673	1	0.165	238488.0
593	1675	1	0.165	238488.0
593	1684	1	0.165	238488.0
594	1674	1	0.165	238488.0
594	1679	1	0.165	238488.0
595	1505	1	0.165	238488.0
595	1680	1	0.165	238488.0
596	1675	1	0.165	238488.0
596	1681	1	0.165	238488.0
597	1676	1	0.165	238488.0
597	1682	1	0.165	238488.0
598	1677	1	0.165	238488.0
598	1683	1	0.165	238488.0
599	1678	1	0.165	238488.0
599	1684	1	0.165	238488.0
600	1673	1	0.165	238488.0
600	1684	1	0.165	238488.0
601	1515	1	0.165	238488.0
601	1674	1	0.165	238488.0
602	1675	1	0.165	238488.0
602	1682	1	0.165	238488.0
603	1676	1	0.165	238488.0
603	1680	1	0.165	238488.0
604	1677	1	0.165	238488.0
604	1681	1	0.165	238488.0
605	1667	1	0.165	238488.0
605	1678	1	0.165	238488.0
606	1667	1	0.165	238488.0
606	1686	1	0.165	238488.0
607	1685	1	0.165	238488.0
607	1836	1	0.165	238488.0
608	1669	1	0.165	238488.0
608	1687	1	0.165	238488.0
609	1550	1	0.165	238488.0
609	1688	1	0.165	238488.0
610	1551	1	0.165	238488.0
610	1689	1	0.165	238488.0
611	1552	1	0.165	238488.0
611	1690	1	0.165	238488.0
612	1689	1	0.165	238488.0
612	1691	1	0.165	238488.0
613	1690	1	0.165	238488.0
613	1692	1	0.165	238488.0
614	1693	1	0.165	238488.0
614	1856	1	0.165	238488.0
615	1686	1	0.165	238488.0
615	1694	1	0.165	238488.0
616	1687	1	0.165	238488.0
616	1696	1	0.165	238488.0
617	1686	1	0.165	238488.0
617	1691	1	0.165	238488.0
618	1517	1	0.165	238488.0
618	1692	1	0.165	238488.0
619	1687	1	0.165	238488.0
619	1693	1	0.165	238488.0
620	1688	1	0.165	238488.0
620	1694	1	0.165	238488.0
621	1689	1	0.165	238488.0
621	1695	1	0.165	238488.0
622	1690	1	0.165	238488.0
622	1696	1	0.165	238488.0
623	1685	1	0.165	238488.0
623	1696	1	0.165	238488.0
624	1527	1	0.165	238488.0
624	1686	1	0.165	238488.0
625	1687	1	0.165	238488.0
625	1694	1	0.165	238488.0
626	1688	1	0.165	238488.0
626	1692	1	0.165	238488.0
627	1689	1	0.165	238488.0
627	1693	1	0.165	238488.0
628	1679	1	0.165	238488.0
628	1698	1	0.165	238488.0
629	1697	1	0.165	238488.0
629	1848	1	0.165	238488.0
630	1681	1	0.165	238488.0
630	1699	1	0.165	238488.0
631	1562	1	0.165	238488.0
631	1700	1	0.165	238488.0
632	1563	1	0.165	238488.0
632	1701	1	0.165	238488.0
633	1564	1	0.165	238488.0
633	1702	1	0.165	238488.0
634	1701	1	0.165	238488.0
634	1703	1	0.165	238488.0
635	1702	1	0.165	238488.0
635	1704	1	0.165	238488.0
636	1705	1	0.165	238488.0
636	1868	1	0.165	238488.0
637	1698	1	0.165	238488.0
637	1706	1	0.165	238488.0
638	1695	1	0.165	238488.0
638	1697	1	0.165	238488.0
639	1699	1	0.165	238488.0
639	1708	1	0.165	238488.0
640	1698	1	0.165	238488.0
640	1703	1	0.165	238488.0
641	1529	1	0.165	238488.0
641	1704	1	0.165	238488.0
642	1699	1	0.165	238488.0
642	1705	1	0.165	238488.0
643	1700	1	0.165	238488.0
643	1706	1	0.165	238488.0
644	1701	1	0.165	238488.0
644	1707	1	0.165	238488.0
645	1702	1	0.165	238488.0
645	1708	1	0.165	238488.0
646	1697	1	0.165	238488.0
646	1708	1	0.165	238488.0
647	1539	1	0.165	238488.0
647	1698	1	0.165	238488.0
648	1699	1	0.165	238488.0
648	1706	1	0.165	238488.0
649	1700	1	0.165	238488.0
649	1704	1	0.165	238488.0
650	1701	1	0.165	238488.0
650	1705	1	0.165	238488.0
651	1691	1	0.165	238488.0
651	1702	1	0.165	238488.0
652	1710	1	0.165	238488.0
652	1859	1	0.165	238488.0
653	1709	1	0.165	238488.0
653	2028	1	0.165	238488.0
654	1711	1	0.165	238488.0
654	1861	1	0.165	238488.0
655	1712	1	0.165	238488.0
655	1742	1	0.165	238488.0
656	1713	1	0.165	238488.0
656	1743	1	0.165	238488.0
657	1714	1	0.165	238488.0
657	1744	1	0.165	238488.0
658	1713	1	0.165	238488.0
658	1715	1	0.165	238488.0
659	1714	1	0.165	238488.0
659	1716	1	0.165	238488.0
660	1717	1	0.165	238488.0
660	1880	1	0.165	238488.0
661	1710	1	0.165	238488.0
661	1718	1	0.165	238488.0
662	1711	1	0.165	238488.0
662	1720	1	0.165	238488.0
663	1710	1	0.165	238488.0
663	1715	1	0.165	238488.0
664	1541	1	0.165	238488.0
664	1716	1	0.165	238488.0
665	1711	1	0.165	238488.0
665	1717	1	0.165	238488.0
666	1712	1	0.165	238488.0
666	1718	1	0.165	238488.0
667	1713	1	0.165	238488.0
667	1719	1	0.165	238488.0
668	1714	1	0.165	238488.0
668	1720	1	0.165	238488.0
669	1709	1	0.165	238488.0
669	1720	1	0.165	238488.0
670	1551	1	0.165	238488.0
670	1710	1	0.165	238488.0
671	1711	1	0.165	238488.0
671	1718	1	0.165	238488.0
672	1712	1	0.165	238488.0
672	1716	1	0.165	238488.0
673	1713	1	0.165	238488.0
673	1717	1	0.165	238488.0
674	1722	1	0.165	238488.0
674	1871	1	0.165	238488.0
675	1721	1	0.165	238488.0
675	2040	1	0.165	238488.0
676	1723	1	0.165	238488.0
676	1873	1	0.165	238488.0
677	1724	1	0.165	238488.0
677	1754	1	0.165	238488.0
678	1725	1	0.165	238488.0
678	1755	1	0.165	238488.0
679	1726	1	0.165	238488.0
679	1756	1	0.165	238488.0
680	1725	1	0.165	238488.0
680	1727	1	0.165	238488.0
681	1726	1	0.165	238488.0
681	1728	1	0.165	238488.0
682	1729	1	0.165	238488.0
682	1892	1	0.165	238488.0
683	1722	1	0.165	238488.0
683	1730	1	0.165	238488.0
684	1719	1	0.165	238488.0
684	1721	1	0.165	238488.0
685	1723	1	0.165	238488.0
685	1732	1	0.165	238488.0
686	1722	1	0.165	238488.0
686	1727	1	0.165	238488.0
687	1553	1	0.165	238488.0
687	1728	1	0.165	238488.0
688	1723	1	0.165	238488.0
688	1729	1	0.165	238488.0
689	1724	1	0.165	238488.0
689	1730	1	0.165	238488.0
690	1725	1	0.165	238488.0
690	1731	1	0.165	238488.0
691	1726	1	0.165	238488.0
691	1732	1	0.165	238488.0
692	1721	1	0.165	238488.0
692	1732	1	0.165	238488.0
693	1563	1	0.165	238488.0
693	1722	1	0.165	238488.0
694	1723	1	0.165	238488.0
694	1730	1	0.165	238488.0
695	1724	1	0.165	238488.0
695	1728	1	0.165	238488.0
696	1725	1	0.165	238488.0
696	1729	1	0.165	238488.0
697	1715	1	0.165	238488.0
697	1726	1	0.165	238488.0
698	1715	1	0.165	238488.0
698	1734	1	0.165	238488.0
699	1733	1	0.165	238488.0
699	1884	1	0.165	238488.0
700	1717	1	0.165	238488.0
700	1735	1	0.165	238488.0
701	1736	1	0.165	238488.0
701	1766	1	0.165	238488.0
702	1737	1	0.165	238488.0
702	1767	1	0.165	238488.0
703	1738	1	0.165	238488.0
703	1768	1	0.165	238488.0
704	1737	1	0.165	238488.0
704	1739	1	0.165	238488.0
705	1738	1	0.165	238488.0
705	1740	1	0.165	238488.0
706	1741	1	0.165	238488.0
706	1904	1	0.165	238488.0
707	1734	1	0.165	238488.0
707	1742	1	0.165	238488.0
708	1735	1	0.165	238488.0
708	1744	1	0.165	238488.0
709	1734	1	0.165	238488.0
709	1739	1	0.165	238488.0
710	1565	1	0.165	238488.0
710	1740	1	0.165	238488.0
711	1735	1	0.165	238488.0
711	1741	1	0.165	238488.0
712	1736	1	0.165	238488.0
712	1742	1	0.165	238488.0
713	1737	1	0.165	238488.0
713	1743	1	0.165	238488.0
714	1738	1	0.165	238488.0
714	1744	1	0.165	238488.0
715	1733	1	0.165	238488.0
715	1744	1	0.165	238488.0
716	1575	1	0.165	238488.0
716	1734	1	0.165	238488.0
717	1735	1	0.165	238488.0
717	1742	1	0.165	238488.0
718	1736	1	0.165	238488.0
718	1740	1	0.165	238488.0
719	1737	1	0.165	238488.0
719	1741	1	0.165	238488.0
720	1727	1	0.165	238488.0
720	1746	1	0.165	238488.0
721	1745	1	0.165	238488.0
721	1896	1	0.165	238488.0
722	1729	1	0.165	238488.0
722	1747	1	0.165	238488.0
723	1748	1	0.165	238488.0
723	1778	1	0.165	238488.0
724	1749	1	0.165	238488.0
724	1779	1	0.165	238488.0
725	1750	1	0.165	238488.0
725	1780	1	0.165	238488.0
726	1749	1	0.165	238488.0
726	1751	1	0.165	238488.0
727	1750	1	0.165	238488.0
727	1752	1	0.165	238488.0
728	1753	1	0.165	238488.0
728	1916	1	0.165	238488.0
729	1746	1	0.165	238488.0
729	1754	1	0.165	238488.0
730	1743	1	0.165	238488.0
730	1745	1	0.165	238488.0
731	1747	1	0.165	238488.0
731	1756	1	0.165	238488.0
732	1746	1	0.165	238488.0
732	1751	1	0.165	238488.0
733	1577	1	0.165	238488.0
733	1752	1	0.165	238488.0
734	1747	1	0.165	238488.0
734	1753	1	0.165	238488.0
735	1748	1	0.165	238488.0
735	1754	1	0.165	238488.0
736	1749	1	0.165	238488.0
736	1755	1	0.165	238488.0
737	1750	1	0.165	238488.0
737	1756	1	0.165	238488.0
738	1745	1	0.165	238488.0
738	1756	1	0.165	238488.0
739	1587	1	0.165	238488.0
739	1746	1	0.165	238488.0
740	1747	1	0.165	238488.0
740	1754	1	0.165	238488.0
741	1748	1	0.165	238488.0
741	1752	1	0.165	238488.0
742	1749	1	0.165	238488.0
742	1753	1	0.165	238488.0
743	1739	1	0.165	238488.0
743	1750	1	0.165	238488.0
744	1739	1	0.165	238488.0
744	1758	1	0.165	238488.0
745	1757	1	0.165	238488.0
745	1908	1	0.165	238488.0
746	1741	1	0.165	238488.0
746	1759	1	0.165	238488.0
747	1760	1	0.165	238488.0
747	1790	1	0.165	238488.0
748	1761	1	0.165	238488.0
748	1791	1	0.165	238488.0
749	1762	1	0.165	238488.0
749	1792	1	0.165	238488.0
750	1761	1	0.165	238488.0
750	1763	1	0.165	238488.0
751	1762	1	0.165	238488.0
751	1764	1	0.165	238488.0
752	1765	1	0.165	238488.0
752	1928	1	0.165	238488.0
753	1758	1	0.165	238488.0
753	1766	1	0.165	238488.0
754	1759	1	0.165	238488.0
754	1768	1	0.165	238488.0
755	1758	1	0.165	238488.0
755	1763	1	0.165	238488.0
756	1589	1	0.165	238488.0
756	1764	1	0.165	238488.0
757	1759	1	0.165	238488.0
757	1765	1	0.165	238488.0
758	1760	1	0.165	238488.0
758	1766	1	0.165	238488.0
759	1761	1	0.165	238488.0
759	1767	1	0.165	238488.0
760	1762	1	0.165	238488.0
760	1768	1	0.165	238488.0
761	1757	1	0.165	238488.0
761	1768	1	0.165	238488.0
762	1599	1	0.165	238488.0
762	1758	1	0.165	238488.0
763	1759	1	0.165	238488.0
763	1766	1	0.165	238488.0
764	1760	1	0.165	238488.0
764	1764	1	0.165	238488.0
765	1761	1	0.165	238488.0
765	1765	1	0.165	238488.0
766	1751	1	0.165	238488.0
766	1770	1	0.165	238488.0
767	1769	1	0.165	238488.0
767	1920	1	0.165	238488.0
768	1753	1	0.165	238488.0
768	1771	1	0.165	238488.0
769	1772	1	0.165	238488.0
769	1802	1	0.165	238488.0
770	1773	1	0.165	238488.0
770	1803	1	0.165	238488.0
771	1774	1	0.165	238488.0
771	1804	1	0.165	238488.0
772	1773	1	0.165	238488.0
772	1775	1	0.165	238488.0
773	1774	1	0.165	238488.0
773	1776	1	0.165	238488.0
774	1777	1	0.165	238488.0
774	1940	1	0.165	238488.0
775	1770	1	0.165	238488.0
775	1778	1	0.165	238488.0
776	1767	1	0.165	238488.0
776	1769	1	0.165	238488.0
777	1771	1	0.165	238488.0
777	1780	1	0.165	238488.0
778	1770	1	0.165	238488.0
778	1775	1	0.165	238488.0
779	1601	1	0.165	238488.0
779	1776	1	0.165	238488.0
780	1771	1	0.165	238488.0
780	1777	1	0.165	238488.0
781	1772	1	0.165	238488.0
781	1778	1	0.165	238488.0
782	1773	1	0.165	238488.0
782	1779	1	0.165	238488.0
783	1774	1	0.165	238488.0
783	1780	1	0.165	238488.0
784	1769	1	0.165	238488.0
784	1780	1	0.165	238488.0
785	1611	1	0.165	238488.0
785	1770	1	0.165	238488.0
786	1771	1	0.165	238488.0
786	1778	1	0.165	238488.0
787	1772	1	0.165	238488.0
787	1776	1	0.165	238488.0
788	1773	1	0.165	238488.0
788	1777	1	0.165	238488.0
789	1763	1	0.165	238488.0
789	1774	1	0.165	238488.0
790	1763	1	0.165	238488.0
790	1782	1	0.165	238488.0
791	1781	1	0.165	238488.0
791	1932	1	0.165	238488.0
792	1765	1	0.165	238488.0
792	1783	1	0.165	238488.0
793	1784	1	0.165	238488.0
793	1814	1	0.165	238488.0
794	1785	1	0.165	238488.0
794	1815	1	0.165	238488.0
795	1786	1	0.165	238488.0
795	1816	1	0.165	238488.0
796	1785	1	0.165	238488.0
796	1787	1	0.165	238488.0
797	1786	1	0.165	238488.0
797	1788	1	0.165	238488.0
798	1789	1	0.165	238488.0
798	1952	1	0.165	238488.0
799	1782	1	0.165	238488.0
799	1790	1	0.165	238488.0
800	1781	1	0.165	238488.0
800	1930	1	0.165	238488.0
801	1783	1	0.165	238488.0
801	1792	1	0.165	238488.0
802	1782	1	0.165	238488.0
802	1787	1	0.165	238488.0
803	1613	1	0.165	238488.0
803	1788	1	0.165	238488.0
804	1783	1	0.165	238488.0
804	1789	1	0.165	238488.0
805	1784	1	0.165	238488.0
805	1790	1	0.165	238488.0
806	1785	1	0.165	238488.0
806	1791	1	0.165	238488.0
807	1786	1	0.165	238488.0
807	1792	1	0.165	238488.0
808	1781	1	0.165	238488.0
808	1792	1	0.165	238488.0
809	1623	1	0.165	238488.0
809	1782	1	0.165	238488.0
810	1783	1	0.165	238488.0
810	1790	1	0.165	238488.0
811	1784	1	0.165	238488.0
811	1788	1	0.165	238488.0
812	1785	1	0.165	238488.0
812	1789	1	0.165	238488.0
813	1637	1	0.165	238488.0
813	1786	1	0.165	238488.0
814	1775	1	0.165	238488.0
814	1794	1	0.165	238488.0
815	1793	1	0.165	238488.0
815	1944	1	0.165	238488.0
816	1777	1	0.165	238488.0
816	1795	1	0.165	238488.0
817	1796	1	0.165	238488.0
817	1826	1	0.165	238488.0
818	1797	1	0.165	238488.0
818	1827	1	0.165	238488.0
819	1798	1	0.165	238488.0
819	1828	1	0.165	238488.0
820	1797	1	0.165	238488.0
820	1799	1	0.165	238488.0
821	1798	1	0.165	238488.0
821	1800	1	0.165	238488.0
822	1801	1	0.165	238488.0
822	1964	1	0.165	238488.0
823	1794	1	0.165	238488.0
823	1802	1	0.165	238488.0
824	1791	1	0.165	238488.0
824	1793	1	0.165	238488.0
825	1795	1	0.165	238488.0
825	1804	1	0.165	238488.0
826	1794	1	0.165	238488.0
826	1799	1	0.165	238488.0
827	1625	1	0.165	238488.0
827	1800	1	0.165	238488.0
828	1795	1	0.165	238488.0
828	1801	1	0.165	238488.0
829	1796	1	0.165	238488.0
829	1802	1	0.165	238488.0
830	1797	1	0.165	238488.0
830	1803	1	0.165	238488.0
831	1798	1	0.165	238488.0
831	1804	1	0.165	238488.0
832	1793	1	0.165	238488.0
832	1804	1	0.165	238488.0
833	1635	1	0.165	238488.0
833	1794	1	0.165	238488.0
834	1795	1	0.165	238488.0
834	1802	1	0.165	238488.0
835	1796	1	0.165	238488.0
835	1800	1	0.165	238488.0
836	1797	1	0.165	238488.0
836	1801	1	0.165	238488.0
837	1787	1	0.165	238488.0
837	1798	1	0.165	238488.0
838	1787	1	0.165	238488.0
838	1806	1	0.165	238488.0
839	1805	1	0.165	238488.0
839	1956	1	0.165	238488.0
840	1789	1	0.165	238488.0
840	1807	1	0.165	238488.0
841	1808	1	0.165	238488.0
841	1838	1	0.165	238488.0
842	1809	1	0.165	238488.0
842	1839	1	0.165	238488.0
843	1810	1	0.165	238488.0
843	1840	1	0.165	238488.0
844	1809	1	0.165	238488.0
844	1811	1	0.165	238488.0
845	1810	1	0.165	238488.0
845	1812	1	0.165	238488.0
846	1813	1	0.165	238488.0
846	1976	1	0.165	238488.0
847	1806	1	0.165	238488.0
847	1814	1	0.165	238488.0
848	1805	1	0.165	238488.0
848	1978	1	0.165	238488.0
849	1807	1	0.165	238488.0
849	1816	1	0.165	238488.0
850	1806	1	0.165	238488.0
850	1811	1	0.165	238488.0
851	1637	1	0.165	238488.0
851	1812	1	0.165	238488.0
852	1807	1	0.165	238488.0
852	1813	1	0.165	238488.0
853	1808	1	0.165	238488.0
853	1814	1	0.165	238488.0
854	1809	1	0.165	238488.0
854	1815	1	0.165	238488.0
855	1810	1	0.165	238488.0
855	1816	1	0.165	238488.0
856	1805	1	0.165	238488.0
856	1816	1	0.165	238488.0
857	1647	1	0.165	238488.0
857	1806	1	0.165	238488.0
858	1807	1	0.165	238488.0
858	1814	1	0.165	238488.0
859	1808	1	0.165	238488.0
859	1812	1	0.165	238488.0
860	1809	1	0.165	238488.0
860	1813	1	0.165	238488.0
861	1799	1	0.165	238488.0
861	1818	1	0.165	238488.0
862	1817	1	0.165	238488.0
862	1968	1	0.165	238488.0
863	1801	1	0.165	238488.0
863	1819	1	0.165	238488.0
864	1820	1	0.165	238488.0
864	1850	1	0.165	238488.0
865	1821	1	0.165	238488.0
865	1851	1	0.165	238488.0
866	1822	1	0.165	238488.0
866	1852	1	0.165	238488.0
867	1821	1	0.165	238488.0
867	1823	1	0.165	238488.0
868	1822	1	0.165	238488.0
868	1824	1	0.165	238488.0
869	1825	1	0.165	238488.0
869	1988	1	0.165	238488.0
870	1818	1	0.165	238488.0
870	1826	1	0.165	238488.0
871	1815	1	0.165	238488.0
871	1817	1	0.165	238488.0
872	1819	1	0.165	238488.0
872	1828	1	0.165	238488.0
873	1818	1	0.165	238488.0
873	1823	1	0.165	238488.0
874	1649	1	0.165	238488.0
874	1824	1	0.165	238488.0
875	1819	1	0.165	238488.0
875	1825	1	0.165	238488.0
876	1820	1	0.165	238488.0
876	1826	1	0.165	238488.0
877	1821	1	0.165	238488.0
877	1827	1	0.165	238488.0
878	1822	1	0.165	238488.0
878	1828	1	0.165	238488.0
879	1817	1	0.165	238488.0
879	1828	1	0.165	238488.0
880	1659	1	0.165	238488.0
880	1818	1	0.165	238488.0
881	1819	1	0.165	238488.0
881	1826	1	0.165	238488.0
882	1820	1	0.165	238488.0
882	1824	1	0.165	238488.0
883	1821	1	0.165	238488.0
883	1825	1	0.165	238488.0
884	1811	1	0.165	238488.0
884	1822	1	0.165	238488.0
885	1811	1	0.165	238488.0
885	1830	1	0.165	238488.0
886	1829	1	0.165	238488.0
886	1980	1	0.165	238488.0
887	1813	1	0.165	238488.0
887	1831	1	0.165	238488.0
888	1832	1	0.165	238488.0
888	1862	1	0.165	238488.0
889	1833	1	0.165	238488.0
889	1863	1	0.165	238488.0
890	1834	1	0.165	238488.0
890	1864	1	0.165	238488.0
891	1833	1	0.165	238488.0
891	1835	1	0.165	238488.0
892	1834	1	0.165	238488.0
892	1836	1	0.165	238488.0
893	1837	1	0.165	238488.0
893	2000	1	0.165	238488.0
894	1830	1	0.165	238488.0
894	1838	1	0.165	238488.0
895	1831	1	0.165	238488.0
895	1840	1	0.165	238488.0
896	1830	1	0.165	238488.0
896	1835	1	0.165	238488.0
897	1661	1	0.165	238488.0
897	1836	1	0.165	238488.0
898	1831	1	0.165	238488.0
898	1837	1	0.165	238488.0
899	1832	1	0.165	238488.0
899	1838	1	0.165	238488.0
900	1833	1	0.165	238488.0
900	1839	1	0.165	238488.0
901	1834	1	0.165	238488.0
901	1840	1	0.165	238488.0
902	1829	1	0.165	238488.0
902	1840	1	0.165	238488.0
903	1671	1	0.165	238488.0
903	1830	1	0.165	238488.0
904	1831	1	0.165	238488.0
904	1838	1	0.165	238488.0
905	1832	1	0.165	238488.0
905	1836	1	0.165	238488.0
906	1833	1	0.165	238488.0
906	1837	1	0.165	238488.0
907	1823	1	0.165	238488.0
907	1842	1	0.165	238488.0
908	1841	1	0.165	238488.0
908	1992	1	0.165	238488.0
909	1825	1	0.165	238488.0
909	1843	1	0.165	238488.0
910	1844	1	0.165	238488.0
910	1874	1	0.165	238488.0
911	1845	1	0.165	238488.0
911	1875	1	0.165	238488.0
912	1846	1	0.165	238488.0
912	1876	1	0.165	238488.0
913	1845	1	0.165	238488.0
913	1847	1	0.165	238488.0
914	1846	1	0.165	238488.0
914	1848	1	0.165	238488.0
915	1849	1	0.165	238488.0
915	2012	1	0.165	238488.0
916	1842	1	0.165	238488.0
916	1850	1	0.165	238488.0
917	1839	1	0.165	238488.0
917	1841	1	0.165	238488.0
918	1843	1	0.165	238488.0
918	1852	1	0.165	238488.0
919	1842	1	0.165	238488.0
919	1847	1	0.165	238488.0
920	1673	1	0.165	238488.0
920	1848	1	0.165	238488.0
921	1843	1	0.165	238488.0
921	1849	1	0.165	238488.0
922	1844	1	0.165	238488.0
922	1850	1	0.165	238488.0
923	1845	1	0.165	238488.0
923	1851	1	0.165	238488.0
924	1846	1	0.165	238488.0
924	1852	1	0.165	238488.0
925	1841	1	0.165	238488.0
925	1852	1	0.165	238488.0
926	1683	1	0.165	238488.0
926	1842	1	0.165	238488.0
927	1843	1	0.165	238488.0
927	1850	1	0.165	238488.0
928	1844	1	0.165	238488.0
928	1848	1	0.165	238488.0
929	1845	1	0.165	238488.0
929	1849	1	0.165	238488.0
930	1835	1	0.165	238488.0
930	1846	1	0.165	238488.0
931	1835	1	0.165	238488.0
931	1854	1	0.165	238488.0
932	1853	1	0.165	238488.0
932	2004	1	0.165	238488.0
933	1837	1	0.165	238488.0
933	1855	1	0.165	238488.0
934	1718	1	0.165	238488.0
934	1856	1	0.165	238488.0
935	1719	1	0.165	238488.0
935	1857	1	0.165	238488.0
936	1720	1	0.165	238488.0
936	1858	1	0.165	238488.0
937	1857	1	0.165	238488.0
937	1859	1	0.165	238488.0
938	1858	1	0.165	238488.0
938	1860	1	0.165	238488.0
939	1861	1	0.165	238488.0
939	2024	1	0.165	238488.0
940	1854	1	0.165	238488.0
940	1862	1	0.165	238488.0
941	1855	1	0.165	238488.0
941	1864	1	0.165	238488.0
942	1854	1	0.165	238488.0
942	1859	1	0.165	238488.0
943	1685	1	0.165	238488.0
943	1860	1	0.165	238488.0
944	1855	1	0.165	238488.0
944	1861	1	0.165	238488.0
945	1856	1	0.165	238488.0
945	1862	1	0.165	238488.0
946	1857	1	0.165	238488.0
946	1863	1	0.165	238488.0
947	1858	1	0.165	238488.0
947	1864	1	0.165	238488.0
948	1853	1	0.165	238488.0
948	1864	1	0.165	238488.0
949	1695	1	0.165	238488.0
949	1854	1	0.165	238488.0
950	1855	1	0.165	238488.0
950	1862	1	0.165	238488.0
951	1856	1	0.165	238488.0
951	1860	1	0.165	238488.0
952	1857	1	0.165	238488.0
952	1861	1	0.165	238488.0
953	1847	1	0.165	238488.0
953	1866	1	0.165	238488.0
954	1865	1	0.165	238488.0
954	2016	1	0.165	238488.0
955	1849	1	0.165	238488.0
955	1867	1	0.165	238488.0
956	1730	1	0.165	238488.0
956	1868	1	0.165	238488.0
957	1731	1	0.165	238488.0
957	1869	1	0.165	238488.0
958	1732	1	0.165	238488.0
958	1870	1	0.165	238488.0
959	1869	1	0.165	238488.0
959	1871	1	0.165	238488.0
960	1870	1	0.165	238488.0
960	1872	1	0.165	238488.0
961	1873	1	0.165	238488.0
961	2036	1	0.165	238488.0
962	1866	1	0.165	238488.0
962	1874	1	0.165	238488.0
963	1863	1	0.165	238488.0
963	1865	1	0.165	238488.0
964	1867	1	0.165	238488.0
964	1876	1	0.165	238488.0
965	1866	1	0.165	238488.0
965	1871	1	0.165	238488.0
966	1697	1	0.165	238488.0
966	1872	1	0.165	238488.0
967	1867	1	0.165	238488.0
967	1873	1	0.165	238488.0
968	1868	1	0.165	238488.0
968	1874	1	0.165	238488.0
969	1869	1	0.165	238488.0
969	1875	1	0.165	238488.0
970	1870	1	0.165	238488.0
970	1876	1	0.165	238488.0
971	1865	1	0.165	238488.0
971	1876	1	0.165	238488.0
972	1707	1	0.165	238488.0
972	1866	1	0.165	238488.0
973	1867	1	0.165	238488.0
973	1874	1	0.165	238488.0
974	1868	1	0.165	238488.0
974	1872	1	0.165	238488.0
975	1869	1	0.165	238488.0
975	1873	1	0.165	238488.0
976	1859	1	0.165	238488.0
976	1870	1	0.165	238488.0
977	1878	1	0.165	238488.0
977	2027	1	0.165	238488.0
978	1879	1	0.165	238488.0
978	2029	1	0.165	238488.0
979	1880	1	0.165	238488.0
979	1910	1	0.165	238488.0
980	1881	1	0.165	238488.0
980	1911	1	0.165	238488.0
981	1882	1	0.165	238488.0
981	1912	1	0.165	238488.0
982	1881	1	0.165	238488.0
982	1883	1	0.165	238488.0
983	1882	1	0.165	238488.0
983	1884	1	0.165	238488.0
984	1376	1	0.165	238488.0
984	1885	1	0.165	238488.0
985	1878	1	0.165	238488.0
985	1886	1	0.165	238488.0
986	1879	1	0.165	238488.0
986	1888	1	0.165	238488.0
987	1878	1	0.165	238488.0
987	1883	1	0.165	238488.0
988	1709	1	0.165	238488.0
988	1884	1	0.165	238488.0
989	1879	1	0.165	238488.0
989	1885	1	0.165	238488.0
990	1880	1	0.165	238488.0
990	1886	1	0.165	238488.0
991	1881	1	0.165	238488.0
991	1887	1	0.165	238488.0
992	1882	1	0.165	238488.0
992	1888	1	0.165	238488.0
993	1877	1	0.165	238488.0
993	1888	1	0.165	238488.0
994	1719	1	0.165	238488.0
994	1878	1	0.165	238488.0
995	1879	1	0.165	238488.0
995	1886	1	0.165	238488.0
996	1880	1	0.165	238488.0
996	1884	1	0.165	238488.0
997	1881	1	0.165	238488.0
997	1885	1	0.165	238488.0
998	1890	1	0.165	238488.0
998	2039	1	0.165	238488.0
999	1891	1	0.165	238488.0
999	2041	1	0.165	238488.0
1000	1892	1	0.165	238488.0
1000	1922	1	0.165	238488.0
1001	1893	1	0.165	238488.0
1001	1923	1	0.165	238488.0
1002	1894	1	0.165	238488.0
1002	1924	1	0.165	238488.0
1003	1893	1	0.165	238488.0
1003	1895	1	0.165	238488.0
1004	1894	1	0.165	238488.0
1004	1896	1	0.165	238488.0
1005	1388	1	0.165	238488.0
1005	1897	1	0.165	238488.0
1006	1890	1	0.165	238488.0
1006	1898	1	0.165	238488.0
1007	1891	1	0.165	238488.0
1007	1900	1	0.165	238488.0
1008	1890	1	0.165	238488.0
1008	1895	1	0.165	238488.0
1009	1721	1	0.165	238488.0
1009	1896	1	0.165	238488.0
1010	1891	1	0.165	238488.0
1010	1897	1	0.165	238488.0
1011	1892	1	0.165	238488.0
1011	1898	1	0.165	238488.0
1012	1893	1	0.165	238488.0
1012	1899	1	0.165	238488.0
1013	1894	1	0.165	238488.0
1013	1900	1	0.165	238488.0
1014	1889	1	0.165	238488.0
1014	1900	1	0.165	238488.0
1015	1731	1	0.165	238488.0
1015	1890	1	0.165	238488.0
1016	1891	1	0.165	238488.0
1016	1898	1	0.165	238488.0
1017	1892	1	0.165	238488.0
1017	1896	1	0.165	238488.0
1018	1893	1	0.165	238488.0
1018	1897	1	0.165	238488.0
1019	1883	1	0.165	238488.0
1019	1894	1	0.165	238488.0
1020	1883	1	0.165	238488.0
1020	1902	1	0.165	238488.0
1021	1885	1	0.165	238488.0
1021	1903	1	0.165	238488.0
1022	1904	1	0.165	238488.0
1022	1934	1	0.165	238488.0
1023	1905	1	0.165	238488.0
1023	1935	1	0.165	238488.0
1024	1906	1	0.165	238488.0
1024	1936	1	0.165	238488.0
1025	1905	1	0.165	238488.0
1025	1907	1	0.165	238488.0
1026	1906	1	0.165	238488.0
1026	1908	1	0.165	238488.0
1027	1400	1	0.165	238488.0
1027	1909	1	0.165	238488.0
1028	1902	1	0.165	238488.0
1028	1910	1	0.165	238488.0
1029	1903	1	0.165	238488.0
1029	1912	1	0.165	238488.0
1030	1902	1	0.165	238488.0
1030	1907	1	0.165	238488.0
1031	1733	1	0.165	238488.0
1031	1908	1	0.165	238488.0
1032	1903	1	0.165	238488.0
1032	1909	1	0.165	238488.0
1033	1904	1	0.165	238488.0
1033	1910	1	0.165	238488.0
1034	1905	1	0.165	238488.0
1034	1911	1	0.165	238488.0
1035	1906	1	0.165	238488.0
1035	1912	1	0.165	238488.0
1036	1901	1	0.165	238488.0
1036	1912	1	0.165	238488.0
1037	1743	1	0.165	238488.0
1037	1902	1	0.165	238488.0
1038	1903	1	0.165	238488.0
1038	1910	1	0.165	238488.0
1039	1904	1	0.165	238488.0
1039	1908	1	0.165	238488.0
1040	1905	1	0.165	238488.0
1040	1909	1	0.165	238488.0
1041	1901	1	0.165	238488.0
1041	1906	1	0.165	238488.0
1042	1895	1	0.165	238488.0
1042	1914	1	0.165	238488.0
1043	1897	1	0.165	238488.0
1043	1915	1	0.165	238488.0
1044	1916	1	0.165	238488.0
1044	1946	1	0.165	238488.0
1045	1917	1	0.165	238488.0
1045	1947	1	0.165	238488.0
1046	1918	1	0.165	238488.0
1046	1948	1	0.165	238488.0
1047	1917	1	0.165	238488.0
1047	1919	1	0.165	238488.0
1048	1918	1	0.165	238488.0
1048	1920	1	0.165	238488.0
1049	1412	1	0.165	238488.0
1049	1921	1	0.165	238488.0
1050	1914	1	0.165	238488.0
1050	1922	1	0.165	238488.0
1051	1915	1	0.165	238488.0
1051	1924	1	0.165	238488.0
1052	1914	1	0.165	238488.0
1052	1919	1	0.165	238488.0
1053	1745	1	0.165	238488.0
1053	1920	1	0.165	238488.0
1054	1915	1	0.165	238488.0
1054	1921	1	0.165	238488.0
1055	1916	1	0.165	238488.0
1055	1922	1	0.165	238488.0
1056	1917	1	0.165	238488.0
1056	1923	1	0.165	238488.0
1057	1918	1	0.165	238488.0
1057	1924	1	0.165	238488.0
1058	1913	1	0.165	238488.0
1058	1924	1	0.165	238488.0
1059	1755	1	0.165	238488.0
1059	1914	1	0.165	238488.0
1060	1915	1	0.165	238488.0
1060	1922	1	0.165	238488.0
1061	1916	1	0.165	238488.0
1061	1920	1	0.165	238488.0
1062	1917	1	0.165	238488.0
1062	1921	1	0.165	238488.0
1063	1907	1	0.165	238488.0
1063	1918	1	0.165	238488.0
1064	1907	1	0.165	238488.0
1064	1926	1	0.165	238488.0
1065	1909	1	0.165	238488.0
1065	1927	1	0.165	238488.0
1066	1928	1	0.165	238488.0
1066	1958	1	0.165	238488.0
1067	1929	1	0.165	238488.0
1067	1959	1	0.165	238488.0
1068	1930	1	0.165	238488.0
1068	1960	1	0.165	238488.0
1069	1929	1	0.165	238488.0
1069	1931	1	0.165	238488.0
1070	1930	1	0.165	238488.0
1070	1932	1	0.165	238488.0
1071	1424	1	0.165	238488.0
1071	1933	1	0.165	238488.0
1072	1926	1	0.165	238488.0
1072	1934	1	0.165	238488.0
1073	1927	1	0.165	238488.0
1073	1936	1	0.165	238488.0
1074	1926	1	0.165	238488.0
1074	1931	1	0.165	238488.0
1075	1757	1	0.165	238488.0
1075	1932	1	0.165	238488.0
1076	1927	1	0.165	238488.0
1076	1933	1	0.165	238488.0
1077	1928	1	0.165	238488.0
1077	1934	1	0.165	238488.0
1078	1929	1	0.165	238488.0
1078	1935	1	0.165	238488.0
1079	1930	1	0.165	238488.0
1079	1936	1	0.165	238488.0
1080	1925	1	0.165	238488.0
1080	1936	1	0.165	238488.0
1081	1767	1	0.165	238488.0
1081	1926	1	0.165	238488.0
1082	1927	1	0.165	238488.0
1082	1934	1	0.165	238488.0
1083	1928	1	0.165	238488.0
1083	1932	1	0.165	238488.0
1084	1929	1	0.165	238488.0
1084	1933	1	0.165	238488.0
1085	1919	1	0.165	238488.0
1085	1938	1	0.165	238488.0
1086	1921	1	0.165	238488.0
1086	1939	1	0.165	238488.0
1087	1940	1	0.165	238488.0
1087	1970	1	0.165	238488.0
1088	1941	1	0.165	238488.0
1088	1971	1	0.165	238488.0
1089	1942	1	0.165	238488.0
1089	1972	1	0.165	238488.0
1090	1941	1	0.165	238488.0
1090	1943	1	0.165	238488.0
1091	1942	1	0.165	238488.0
1091	1944	1	0.165	238488.0
1092	1436	1	0.165	238488.0
1092	1945	1	0.165	238488.0
1093	1938	1	0.165	238488.0
1093	1946	1	0.165	238488.0
1094	1939	1	0.165	238488.0
1094	1948	1	0.165	238488.0
1095	1938	1	0.165	238488.0
1095	1943	1	0.165	238488.0
1096	1769	1	0.165	238488.0
1096	1944	1	0.165	238488.0
1097	1939	1	0.165	238488.0
1097	1945	1	0.165	238488.0
1098	1940	1	0.165	238488.0
1098	1946	1	0.165	238488.0
1099	1941	1	0.165	238488.0
1099	1947	1	0.165	238488.0
1100	1942	1	0.165	238488.0
1100	1948	1	0.165	238488.0
1101	1937	1	0.165	238488.0
1101	1948	1	0.165	238488.0
1102	1779	1	0.165	238488.0
1102	1938	1	0.165	238488.0
1103	1939	1	0.165	238488.0
1103	1946	1	0.165	238488.0
1104	1940	1	0.165	238488.0
1104	1944	1	0.165	238488.0
1105	1941	1	0.165	238488.0
1105	1945	1	0.165	238488.0
1106	1931	1	0.165	238488.0
1106	1942	1	0.165	238488.0
1107	1931	1	0.165	238488.0
1107	1950	1	0.165	238488.0
1108	1933	1	0.165	238488.0
1108	1951	1	0.165	238488.0
1109	1952	1	0.165	238488.0
1109	1982	1	0.165	238488.0
1110	1953	1	0.165	238488.0
1110	1983	1	0.165	238488.0
1111	1954	1	0.165	238488.0
1111	1984	1	0.165	238488.0
1112	1953	1	0.165	238488.0
1112	1955	1	0.165	238488.0
1113	1954	1	0.165	238488.0
1113	1956	1	0.165	238488.0
1114	1448	1	0.165	238488.0
1114	1957	1	0.165	238488.0
1115	1950	1	0.165	238488.0
1115	1958	1	0.165	238488.0
1116	1951	1	0.165	238488.0
1116	1960	1	0.165	238488.0
1117	1950	1	0.165	238488.0
1117	1955	1	0.165	238488.0
1118	1781	1	0.165	238488.0
1118	1956	1	0.165	238488.0
1119	1951	1	0.165	238488.0
1119	1957	1	0.165	238488.0
1120	1952	1	0.165	238488.0
1120	1958	1	0.165	238488.0
1121	1953	1	0.165	238488.0
1121	1959	1	0.165	238488.0
1122	1954	1	0.165	238488.0
1122	1960	1	0.165	238488.0
1123	1949	1	0.165	238488.0
1123	1960	1	0.165	238488.0
1124	1791	1	0.165	238488.0
1124	1950	1	0.165	238488.0
1125	1951	1	0.165	238488.0
1125	1958	1	0.165	238488.0
1126	1952	1	0.165	238488.0
1126	1956	1	0.165	238488.0
1127	1953	1	0.165	238488.0
1127	1957	1	0.165	238488.0
1128	1943	1	0.165	238488.0
1128	1962	1	0.165	238488.0
1129	1945	1	0.165	238488.0
1129	1963	1	0.165	238488.0
1130	1964	1	0.165	238488.0
1130	1994	1	0.165	238488.0
1131	1965	1	0.165	238488.0
1131	1995	1	0.165	238488.0
1132	1966	1	0.165	238488.0
1132	1996	1	0.165	238488.0
1133	1965	1	0.165	238488.0
1133	1967	1	0.165	238488.0
1134	1966	1	0.165	238488.0
1134	1968	1	0.165	238488.0
1135	1460	1	0.165	238488.0
1135	1969	1	0.165	238488.0
1136	1962	1	0.165	238488.0
1136	1970	1	0.165	238488.0
1137	1963	1	0.165	238488.0
1137	1972	1	0.165	238488.0
1138	1962	1	0.165	238488.0
1138	1967	1	0.165	238488.0
1139	1793	1	0.165	238488.0
1139	1968	1	0.165	238488.0
1140	1963	1	0.165	238488.0
1140	1969	1	0.165	238488.0
1141	1964	1	0.165	238488.0
1141	1970	1	0.165	238488.0
1142	1965	1	0.165	238488.0
1142	1971	1	0.165	238488.0
1143	1966	1	0.165	238488.0
1143	1972	1	0.165	238488.0
1144	1961	1	0.165	238488.0
1144	1972	1	0.165	238488.0
1145	1803	1	0.165	238488.0
1145	1962	1	0.165	238488.0
1146	1963	1	0.165	238488.0
1146	1970	1	0.165	238488.0
1147	1964	1	0.165	238488.0
1147	1968	1	0.165	238488.0
1148	1965	1	0.165	238488.0
1148	1969	1	0.165	238488.0
1149	1955	1	0.165	238488.0
1149	1966	1	0.165	238488.0
1150	1955	1	0.165	238488.0
1150	1974	1	0.165	238488.0
1151	1957	1	0.165	238488.0
1151	1975	1	0.165	238488.0
1152	1976	1	0.165	238488.0
1152	2006	1	0.165	238488.0
1153	1977	1	0.165	238488.0
1153	2007	1	0.165	238488.0
1154	1978	1	0.165	238488.0
1154	2008	1	0.165	238488.0
1155	1977	1	0.165	238488.0
1155	1979	1	0.165	238488.0
1156	1978	1	0.165	238488.0
1156	1980	1	0.165	238488.0
1157	1472	1	0.165	238488.0
1157	1981	1	0.165	238488.0
1158	1974	1	0.165	238488.0
1158	1982	1	0.165	238488.0
1159	1975	1	0.165	238488.0
1159	1984	1	0.165	238488.0
1160	1974	1	0.165	238488.0
1160	1979	1	0.165	238488.0
1161	1805	1	0.165	238488.0
1161	1980	1	0.165	238488.0
1162	1975	1	0.165	238488.0
1162	1981	1	0.165	238488.0
1163	1976	1	0.165	238488.0
1163	1982	1	0.165	238488.0
1164	1977	1	0.165	238488.0
1164	1983	1	0.165	238488.0
1165	1978	1	0.165	238488.0
1165	1984	1	0.165	238488.0
1166	1973	1	0.165	238488.0
1166	1984	1	0.165	238488.0
1167	1815	1	0.165	238488.0
1167	1974	1	0.165	238488.0
1168	1975	1	0.165	238488.0
1168	1982	1	0.165	238488.0
1169	1976	1	0.165	238488.0
1169	1980	1	0.165	238488.0
1170	1977	1	0.165	238488.0
1170	1981	1	0.165	238488.0
1171	1967	1	0.165	238488.0
1171	1986	1	0.165	238488.0
1172	1969	1	0.165	238488.0
1172	1987	1	0.165	238488.0
1173	1988	1	0.165	238488.0
1173	2018	1	0.165	238488.0
1174	1989	1	0.165	238488.0
1174	2019	1	0.165	238488.0
1175	1990	1	0.165	238488.0
1175	2020	1	0.165	238488.0
1176	1989	1	0.165	238488.0
1176	1991	1	0.165	238488.0
1177	1990	1	0.165	238488.0
1177	1992	1	0.165	238488.0
1178	1484	1	0.165	238488.0
1178	1993	1	0.165	238488.0
1179	1986	1	0.165	238488.0
1179	1994	1	0.165	238488.0
1180	1987	1	0.165	238488.0
1180	1996	1	0.165	238488.0
1181	1986	1	0.165	238488.0
1181	1991	1	0.165	238488.0
1182	1817	1	0.165	238488.0
1182	1992	1	0.165	238488.0
1183	1987	1	0.165	238488.0
1183	1993	1	0.165	238488.0
1184	1988	1	0.165	238488.0
1184	1994	1	0.165	238488.0
1185	1989	1	0.165	238488.0
1185	1995	1	0.165	238488.0
1186	1990	1	0.165	238488.0
1186	1996	1	0.165	238488.0
1187	1985	1	0.165	238488.0
1187	1996	1	0.165	238488.0
1188	1827	1	0.165	238488.0
1188	1986	1	0.165	238488.0
1189	1987	1	0.165	238488.0
1189	1994	1	0.165	238488.0
1190	1988	1	0.165	238488.0
1190	1992	1	0.165	238488.0
1191	1989	1	0.165	238488.0
1191	1993	1	0.165	238488.0
1192	1979	1	0.165	238488.0
1192	1990	1	0.165	238488.0
1193	1979	1	0.165	238488.0
1193	1998	1	0.165	238488.0
1194	1981	1	0.165	238488.0
1194	1999	1	0.165	238488.0
1195	2000	1	0.165	238488.0
1195	2030	1	0.165	238488.0
1196	2001	1	0.165	238488.0
1196	2031	1	0.165	238488.0
1197	2002	1	0.165	238488.0
1197	2032	1	0.165	238488.0
1198	2001	1	0.165	238488.0
1198	2003	1	0.165	238488.0
1199	2002	1	0.165	238488.0
1199	2004	1	0.165	238488.0
1200	1496	1	0.165	238488.0
1200	2005	1	0.165	238488.0
1201	1998	1	0.165	238488.0
1201	2006	1	0.165	238488.0
1202	1999	1	0.165	238488.0
1202	2008	1	0.165	238488.0
1203	1998	1	0.165	238488.0
1203	2003	1	0.165	238488.0
1204	1829	1	0.165	238488.0
1204	2004	1	0.165	238488.0
1205	1999	1	0.165	238488.0
1205	2005	1	0.165	238488.0
1206	2000	1	0.165	238488.0
1206	2006	1	0.165	238488.0
1207	2001	1	0.165	238488.0
1207	2007	1	0.165	238488.0
1208	2002	1	0.165	238488.0
1208	2008	1	0.165	238488.0
1209	1997	1	0.165	238488.0
1209	2008	1	0.165	238488.0
1210	1839	1	0.165	238488.0
1210	1998	1	0.165	238488.0
1211	1999	1	0.165	238488.0
1211	2006	1	0.165	238488.0
1212	2000	1	0.165	238488.0
1212	2004	1	0.165	238488.0
1213	2001	1	0.165	238488.0
1213	2005	1	0.165	238488.0
1214	1991	1	0.165	238488.0
1214	2010	1	0.165	238488.0
1215	1993	1	0.165	238488.0
1215	2011	1	0.165	238488.0
1216	2012	1	0.165	238488.0
1216	2042	1	0.165	238488.0
1217	2013	1	0.165	238488.0
1217	2043	1	0.165	238488.0
1218	2014	1	0.165	238488.0
1218	2044	1	0.165	238488.0
1219	2013	1	0.165	238488.0
1219	2015	1	0.165	238488.0
1220	2014	1	0.165	238488.0
1220	2016	1	0.165	238488.0
1221	1508	1	0.165	238488.0
1221	2017	1	0.165	238488.0
1222	2010	1	0.165	238488.0
1222	2018	1	0.165	238488.0
1223	2011	1	0.165	238488.0
1223	2020	1	0.165	238488.0
1224	2010	1	0.165	238488.0
1224	2015	1	0.165	238488.0
1225	1841	1	0.165	238488.0
1225	2016	1	0.165	238488.0
1226	2011	1	0.165	238488.0
1226	2017	1	0.165	238488.0
1227	2012	1	0.165	238488.0
1227	2018	1	0.165	238488.0
1228	2013	1	0.165	238488.0
1228	2019	1	0.165	238488.0
1229	2014	1	0.165	238488.0
1229	2020	1	0.165	238488.0
1230	2009	1	0.165	238488.0
1230	2020	1	0.165	238488.0
1231	1851	1	0.165	238488.0
1231	2010	1	0.165	238488.0
1232	2011	1	0.165	238488.0
1232	2018	1	0.165	238488.0
1233	2012	1	0.165	238488.0
1233	2016	1	0.165	238488.0
1234	2013	1	0.165	238488.0
1234	2017	1	0.165	238488.0
1235	2003	1	0.165	238488.0
1235	2014	1	0.165	238488.0
1236	2003	1	0.165	238488.0
1236	2022	1	0.165	238488.0
1237	2005	1	0.165	238488.0
1237	2023	1	0.165	238488.0
1238	1886	1	0.165	238488.0
1238	2024	1	0.165	238488.0
1239	1887	1	0.165	238488.0
1239	2025	1	0.165	238488.0
1240	1888	1	0.165	238488.0
1240	2026	1	0.165	238488.0
1241	2025	1	0.165	238488.0
1241	2027	1	0.165	238488.0
1242	2026	1	0.165	238488.0
1242	2028	1	0.165	238488.0
1243	1520	1	0.165	238488.0
1243	2029	1	0.165	238488.0
1244	2022	1	0.165	238488.0
1244	2030	1	0.165	238488.0
1245	2023	1	0.165	238488.0
1245	2032	1	0.165	238488.0
1246	2022	1	0.165	238488.0
1246	2027	1	0.165	238488.0
1247	1853	1	0.165	238488.0
1247	2028	1	0.165	238488.0
1248	2023	1	0.165	238488.0
1248	2029	1	0.165	238488.0
1249	2024	1	0.165	238488.0
1249	2030	1	0.165	238488.0
1250	2025	1	0.165	238488.0
1250	2031	1	0.165	238488.0
1251	2026	1	0.165	238488.0
1251	2032	1	0.165	238488.0
1252	2021	1	0.165	238488.0
1252	2032	1	0.165	238488.0
1253	1863	1	0.165	238488.0
1253	2022	1	0.165	238488.0
1254	2023	1	0.165	238488.0
1254	2030	1	0.165	238488.0
1255	2024	1	0.165	238488.0
1255	2028	1	0.165	238488.0
1256	2025	1	0.165	238488.0
1256	2029	1	0.165	238488.0
1257	2015	1	0.165	238488.0
1257	2034	1	0.165	238488.0
1258	2017	1	0.165	238488.0
1258	2035	1	0.165	238488.0
1259	1898	1	0.165	238488.0
1259	2036	1	0.165	238488.0
1260	1899	1	0.165	238488.0
1260	2037	1	0.165	238488.0
1261	1900	1	0.165	238488.0
1261	2038	1	0.165	238488.0
1262	2037	1	0.165	238488.0
1262	2039	1	0.165	238488.0
1263	2038	1	0.165	238488.0
1263	2040	1	0.165	238488.0
1264	1532	1	0.165	238488.0
1264	2041	1	0.165	238488.0
1265	2034	1	0.165	238488.0
1265	2042	1	0.165	238488.0
1266	2035	1	0.165	238488.0
1266	2044	1	0.165	238488.0
1267	2034	1	0.165	238488.0
1267	2039	1	0.165	238488.0
1268	1865	1	0.165	238488.0
1268	2040	1	0.165	238488.0
1269	2035	1	0.165	238488.0
1269	2041	1	0.165	238488.0
1270	2036	1	0.165	238488.0
1270	2042	1	0.165	238488.0
1271	2037	1	0.165	238488.0
1271	2043	1	0.165	238488.0
1272	2038	1	0.165	238488.0
1272	2044	1	0.165	238488.0
1273	2033	1	0.165	238488.0
1273	2044	1	0.165	238488.0
1274	1875	1	0.165	238488.0
1274	2034	1	0.165	238488.0
1275	2035	1	0.165	238488.0
1275	2042	1	0.165	238488.0
1276	2036	1	0.165	238488.0
1276	2040	1	0.165	238488.0
1277	2037	1	0.165	238488.0
1277	2041	1	0.165	238488.0
1278	2027	1	0.165	238488.0
1278	2038	1	0.165	238488.0
1279	1524	1	0.165	238488.0
1279	1877	1	0.165	238488.0
1280	1536	1	0.165	238488.0
1280	1889	1	0.165	238488.0
1281	1887	1	0.165	238488.0
1281	1889	1	0.165	238488.0
1282	1380	1	0.165	238488.0
1282	1901	1	0.165	238488.0
1283	1392	1	0.165	238488.0
1283	1913	1	0.165	238488.0
1284	1911	1	0.165	238488.0
1284	1913	1	0.165	238488.0
1285	1404	1	0.165	238488.0
1285	1925	1	0.165	238488.0
1286	1416	1	0.165	238488.0
1286	1937	1	0.165	238488.0
1287	1935	1	0.165	238488.0
1287	1937	1	0.165	238488.0
1288	1428	1	0.165	238488.0
1288	1949	1	0.165	238488.0
1289	1450	1	0.165	238488.0
1289	1949	1	0.165	238488.0
1290	1440	1	0.165	238488.0
1290	1961	1	0.165	238488.0
1291	1959	1	0.165	238488.0
1291	1961	1	0.165	238488.0
1292	1452	1	0.165	238488.0
1292	1973	1	0.165	238488.0
1293	1464	1	0.165	238488.0
1293	1985	1	0.165	238488.0
1294	1983	1	0.165	238488.0
1294	1985	1	0.165	238488.0
1295	1476	1	0.165	238488.0
1295	1997	1	0.165	238488.0
1296	1997	1	0.165	238488.0
1296	2002	1	0.165	238488.0
1297	1488	1	0.165	238488.0
1297	2009	1	0.165	238488.0
1298	2007	1	0.165	238488.0
1298	2009	1	0.165	238488.0
1299	1500	1	0.165	238488.0
1299	2021	1	0.165	238488.0
1300	2021	1	0.165	238488.0
1300	2026	1	0.165	238488.0
1301	1512	1	0.165	238488.0
1301	2033	1	0.165	238488.0
1302	2031	1	0.165	238488.0
1302	2033	1	0.165	238488.0
1303	1380	1	0.165	238488.0
1303	1877	1	0.165	238488.0
1304	1392	1	0.165	238488.0
1304	1889	1	0.165	238488.0
1305	1404	1	0.165	238488.0
1305	1901	1	0.165	238488.0
1306	1416	1	0.165	238488.0
1306	1913	1	0.165	238488.0
1307	1428	1	0.165	238488.0
1307	1925	1	0.165	238488.0
1308	1440	1	0.165	238488.0
1308	1937	1	0.165	238488.0
1309	1452	1	0.165	238488.0
1309	1949	1	0.165	238488.0
1310	1464	1	0.165	238488.0
1310	1961	1	0.165	238488.0
1311	1476	1	0.165	238488.0
1311	1973	1	0.165	238488.0
1312	1488	1	0.165	238488.0
1312	1985	1	0.165	238488.0
1313	1500	1	0.165	238488.0
1313	1997	1	0.165	238488.0
1314	1512	1	0.165	238488.0
1314	2009	1	0.165	238488.0
1315	1524	1	0.165	238488.0
1315	2021	1	0.165	238488.0
1316	1536	1	0.165	238488.0
1316	2033	1	0.165	238488.0
1317	1378	1	0.187	29999.278
1317	2045	1	0.109	292272.472
1317	2046	1	0.109	292272.472
1317	2047	1	0.109	292272.472
1318	1395	1	0.187	29999.278
1318	2048	1	0.109	292272.472
1318	2049	1	0.109	292272.472
1318	2050	1	0.109	292272.472
1319	1419	1	0.187	29999.278
1319	2051	1	0.109	292272.472
1319	2052	1	0.109	292272.472
1319	2053	1	0.109	292272.472
1320	1415	1	0.187	29999.278
1320	2054	1	0.109	292272.472
1320	2055	1	0.109	292272.472
1320	2056	1	0.109	292272.472
1321	1463	1	0.187	29999.278
1321	2057	1	0.109	292272.472
1321	2058	1	0.109	292272.472
1321	2059	1	0.109	292272.472
1322	1491	1	0.187	29999.278
1322	2060	1	0.109	292272.472
1322	2061	1	0.109	292272.472
1322	2062	1	0.109	292272.472
1323	1515	1	0.187	29999.278
1323	2063	1	0.109	292272.472
1323	2064	1	0.109	292272.472
1323	2065	1	0.109	292272.472
1324	1511	1	0.187	29999.278
1324	2066	1	0.109	292272.472
1324	2067	1	0.109	292272.472
1324	2068	1	0.109	292272.472
1325	1563	1	0.187	29999.278
1325	2069	1	0.109	292272.472
1325	2070	1	0.109	292272.472
1325	2071	1	0.109	292272.472
1326	1559	1	0.187	29999.278
1326	2072	1	0.109	292272.472
1326	2073	1	0.109	292272.472
1326	2074	1	0.109	292272.472
1327	1611	1	0.187	29999.278
1327	2075	1	0.109	292272.472
1327	2076	1	0.109	292272.472
1327	2077	1	0.109	292272.472
1328	1607	1	0.187	29999.278
1328	2078	1	0.109	292272.472
1328	2079	1	0.109	292272.472
1328	2080	1	0.109	292272.472
1329	1635	1	0.187	29999.278
1329	2081	1	0.109	292272.472
1329	2082	1	0.109	292272.472
1329	2083	1	0.109	292272.472
1330	1655	1	0.187	29999.278
1330	2084	1	0.109	292272.472
1330	2085	1	0.109	292272.472
1330	2086	1	0.109	292272.472
1331	1679	1	0.187	29999.278
1331	2087	1	0.109	292272.472
1331	2088	1	0.109	292272.472
1331	2089	1	0.109	292272.472
1332	1707	1	0.187	29999.278
1332	2090	1	0.109	292272.472
1332	2091	1	0.109	292272.472
1332	2092	1	0.109	292272.472
1333	1755	1	0.187	29999.278
1333	2093	1	0.109	292272.472
1333	2094	1	0.109	292272.472
1333	2095	1	0.109	292272.472
1334	1775	1	0.187	29999.278
1334	2096	1	0.109	292272.472
1334	2097	1	0.109	292272.472
1334	2098	1	0.109	292272.472
1335	1803	1	0.187	29999.278
1335	2099	1	0.109	292272.472
1335	2100	1	0.109	292272.472
1335	2101	1	0.109	292272.472
1336	1823	1	0.187	29999.278
1336	2102	1	0.109	292272.472
1336	2103	1	0.109	292272.472
1336	2104	1	0.109	292272.472
1337	1851	1	0.187	29999.278
1337	2105	1	0.109	292272.472
1337	2106	1	0.109	292272.472
1337	2107	1	0.109	292272.472
1338	1871	1	0.187	29999.278
1338	2108	1	0.109	292272.472
1338	2109	1	0.109	292272.472
1338	2110	1	0.109	292272.472
1339	1919	1	0.187	29999.278
1339	2111	1	0.109	292272.472
1339	2112	1	0.109	292272.472
1339	2113	1	0.109	292272.472
1340	1943	1	0.187	29999.278
1340	2114	1	0.109	292272.472
1340	2115	1	0.109	292272.472
1340	2116	1	0.109	292272.472
1341	1991	1	0.187	29999.278
1341	2117	1	0.109	292272.472
1341	2118	1	0.109	292272.472
1341	2119	1	0.109	292272.472
1342	2039	1	0.187	29999.278
1342	2120	1	0.109	292272.472
1342	2121	1	0.109	292272.472
1342	2122	1	0.109	292272.472
1343	1899	1	0.187	29999.278
1343	2123	1	0.109	292272.472
1343	2124	1	0.109	292272.472
1343	2125	1	0.109	292272.472
1344	1971	1	0.187	29999.278
1344	2126	1	0.109	292272.472
1344	2127	1	0.109	292272.472
1344	2128	1	0.109	292272.472
1345	2019	1	0.187	29999.278
1345	2129	1	0.109	292272.472
1345	2130	1	0.109	292272.472
1345	2131	1	0.109	292272.472
1346	1397	1	0.187	29999.278
1346	2132	1	0.109	292272.472
1346	2133	1	0.109	292272.472
1346	2134	1	0.109	292272.472
1347	1402	1	0.187	29999.278
1347	2135	1	0.109	292272.472
1347	2136	1	0.109	292272.472
1347	2137	1	0.109	292272.472
1348	1445	1	0.187	29999.278
1348	2138	1	0.109	292272.472
1348	2139	1	0.109	292272.472
1348	2140	1	0.109	292272.472
1349	1474	1	0.187	29999.278
1349	2141	1	0.109	292272.472
1349	2142	1	0.109	292272.472
1349	2143	1	0.109	292272.472
1350	1517	1	0.187	29999.278
1350	2144	1	0.109	292272.472
1350	2145	1	0.109	292272.472
1350	2146	1	0.109	292272.472
1351	1522	1	0.187	29999.278
1351	2147	1	0.109	292272.472
1351	2148	1	0.109	292272.472
1351	2149	1	0.109	292272.472
1352	1565	1	0.187	29999.278
1352	2150	1	0.109	292272.472
1352	2151	1	0.109	292272.472
1352	2152	1	0.109	292272.472
1353	1570	1	0.187	29999.278
1353	2153	1	0.109	292272.472
1353	2154	1	0.109	292272.472
1353	2155	1	0.109	292272.472
1354	1594	1	0.187	29999.278
1354	2156	1	0.109	292272.472
1354	2157	1	0.109	292272.472
1354	2158	1	0.109	292272.472
1355	1613	1	0.187	29999.278
1355	2159	1	0.109	292272.472
1355	2160	1	0.109	292272.472
1355	2161	1	0.109	292272.472
1356	1642	1	0.187	29999.278
1356	2162	1	0.109	292272.472
1356	2163	1	0.109	292272.472
1356	2164	1	0.109	292272.472
1357	1666	1	0.187	29999.278
1357	2165	1	0.109	292272.472
1357	2166	1	0.109	292272.472
1357	2167	1	0.109	292272.472
1358	1685	1	0.187	29999.278
1358	2168	1	0.109	292272.472
1358	2169	1	0.109	292272.472
1358	2170	1	0.109	292272.472
1359	1690	1	0.187	29999.278
1359	2171	1	0.109	292272.472
1359	2172	1	0.109	292272.472
1359	2173	1	0.109	292272.472
1360	1709	1	0.187	29999.278
1360	2174	1	0.109	292272.472
1360	2175	1	0.109	292272.472
1360	2176	1	0.109	292272.472
1361	1733	1	0.187	29999.278
1361	2177	1	0.109	292272.472
1361	2178	1	0.109	292272.472
1361	2179	1	0.109	292272.472
1362	1757	1	0.187	29999.278
1362	2180	1	0.109	292272.472
1362	2181	1	0.109	292272.472
1362	2182	1	0.109	292272.472
1363	1762	1	0.187	29999.278
1363	2183	1	0.109	292272.472
1363	2184	1	0.109	292272.472
1363	2185	1	0.109	292272.472
1364	1810	1	0.187	29999.278
1364	2186	1	0.109	292272.472
1364	2187	1	0.109	292272.472
1364	2188	1	0.109	292272.472
1365	1829	1	0.187	29999.278
1365	2189	1	0.109	292272.472
1365	2190	1	0.109	292272.472
1365	2191	1	0.109	292272.472
1366	1853	1	0.187	29999.278
1366	2192	1	0.109	292272.472
1366	2193	1	0.109	292272.472
1366	2194	1	0.109	292272.472
1367	1858	1	0.187	29999.278
1367	2195	1	0.109	292272.472
1367	2196	1	0.109	292272.472
1367	2197	1	0.109	292272.472
1368	1882	1	0.187	29999.278
1368	2198	1	0.109	292272.472
1368	2199	1	0.109	292272.472
1368	2200	1	0.109	292272.472
1369	1954	1	0.187	29999.278
1369	2201	1	0.109	292272.472
1369	2202	1	0.109	292272.472
1369	2203	1	0.109	292272.472
1370	1877	1	0.187	29999.278
1370	2204	1	0.109	292272.472
1370	2205	1	0.109	292272.472
1370	2206	1	0.109	292272.472
1371	1925	1	0.187	29999.278
1371	2207	1	0.109	292272.472
1371	2208	1	0.109	292272.472
1371	2209	1	0.109	292272.472
1372	1973	1	0.187	29999.278
1372	2210	1	0.109	292272.472
1372	2211	1	0.109	292272.472
1372	2212	1	0.109	292272.472

[ angles ]
;  ai   aj   ak  funct   angle     fc
1	1374	10	1	109.5	836.8
1	1374	13	1	109.5	836.8
1	1374	19	1	109.5	836.8
1	1523	289	1	109.5	836.8
1	1523	294	1	109.5	836.8
1	1523	326	1	109.5	836.8
2	1373	11	1	109.5	836.8
2	1373	18	1	109.5	836.8
2	1373	340	1	109.5	836.8
2	1692	613	1	109.5	836.8
2	1692	618	1	109.5	836.8
2	1692	626	1	109.5	836.8
3	1375	12	1	109.5	836.8
3	1375	14	1	109.5	836.8
3	1375	20	1	109.5	836.8
3	1525	291	1	109.5	836.8
3	1525	295	1	109.5	836.8
3	1525	303	1	109.5	836.8
4	1376	15	1	109.5	836.8
4	1376	21	1	109.5	836.8
4	1376	984	1	109.5	836.8
4	1406	69	1	109.5	836.8
4	1406	73	1	109.5	836.8
4	1406	78	1	109.5	836.8
5	1377	7	1	109.5	836.8
5	1377	16	1	109.5	836.8
5	1377	22	1	109.5	836.8
5	1407	74	1	109.5	836.8
5	1407	91	1	109.5	836.8
5	1407	392	1	109.5	836.8
6	1378	8	1	109.5	836.8
6	1378	17	1	109.5	836.8
6	1378	1317	1	109.5	836.8
6	1408	70	1	109.5	836.8
6	1408	75	1	109.5	836.8
6	1408	76	1	109.5	836.8
7	1377	16	1	109.5	836.8
7	1377	22	1	109.5	836.8
7	1379	13	1	109.5	836.8
7	1379	45	1	109.5	836.8
7	1379	60	1	109.5	836.8
8	1378	17	1	109.5	836.8
8	1378	1317	1	109.5	836.8
8	1380	21	1	109.5	836.8
8	1380	1282	1	109.5	836.8
8	1380	1303	1	109.5	836.8
9	1381	14	1	109.5	836.8
9	1381	22	1	109.5	836.8
9	1381	62	1	109.5	836.8
9	1544	330	1	109.5	836.8
9	1544	342	1	109.5	836.8
9	1544	348	1	109.5	836.8
10	1374	13	1	109.5	836.8
10	1374	19	1	109.5	836.8
10	1382	15	1	109.5	836.8
10	1382	20	1	109.5	836.8
10	1382	286	1	109.5	836.8
11	1373	18	1	109.5	836.8
11	1373	340	1	109.5	836.8
11	1546	332	1	109.5	836.8
11	1546	334	1	109.5	836.8
11	1546	344	1	109.5	836.8
12	1375	14	1	109.5	836.8
12	1375	20	1	109.5	836.8
12	1384	17	1	109.5	836.8
12	1384	18	1	109.5	836.8
12	1384	288	1	109.5	836.8
13	1374	19	1	109.5	836.8
13	1379	45	1	109.5	836.8
13	1379	60	1	109.5	836.8
14	1375	20	1	109.5	836.8
14	1381	22	1	109.5	836.8
14	1381	62	1	109.5	836.8
15	1376	21	1	109.5	836.8
15	1376	984	1	109.5	836.8
15	1382	20	1	109.5	836.8
15	1382	286	1	109.5	836.8
16	1377	22	1	109.5	836.8
16	1383	33	1	109.5	836.8
16	1383	287	1	109.5	836.8
16	1383	346	1	109.5	836.8
17	1378	1317	1	109.5	836.8
17	1384	18	1	109.5	836.8
17	1384	288	1	109.5	836.8
18	1373	340	1	109.5	836.8
18	1384	288	1	109.5	836.8
19	1887	991	1	109.5	836.8
19	1887	1239	1	109.5	836.8
19	1887	1281	1	109.5	836.8
20	1382	286	1	109.5	836.8
21	1376	984	1	109.5	836.8
21	1380	1282	1	109.5	836.8
21	1380	1303	1	109.5	836.8
22	1381	62	1	109.5	836.8
23	1386	32	1	109.5	836.8
23	1386	35	1	109.5	836.8
23	1386	41	1	109.5	836.8
23	1535	50	1	109.5	836.8
23	1535	310	1	109.5	836.8
23	1535	316	1	109.5	836.8
24	1385	33	1	109.5	836.8
24	1385	40	1	109.5	836.8
24	1385	363	1	109.5	836.8
24	1704	635	1	109.5	836.8
24	1704	641	1	109.5	836.8
24	1704	649	1	109.5	836.8
25	1387	34	1	109.5	836.8
25	1387	36	1	109.5	836.8
25	1387	42	1	109.5	836.8
25	1537	312	1	109.5	836.8
25	1537	317	1	109.5	836.8
25	1537	325	1	109.5	836.8
26	1388	37	1	109.5	836.8
26	1388	43	1	109.5	836.8
26	1388	1005	1	109.5	836.8
26	1418	90	1	109.5	836.8
26	1418	95	1	109.5	836.8
26	1418	100	1	109.5	836.8
27	1389	29	1	109.5	836.8
27	1389	38	1	109.5	836.8
27	1389	44	1	109.5	836.8
27	1419	96	1	109.5	836.8
27	1419	415	1	109.5	836.8
27	1419	1319	1	109.5	836.8
28	1390	30	1	109.5	836.8
28	1390	39	1	109.5	836.8
28	1390	45	1	109.5	836.8
28	1420	92	1	109.5	836.8
28	1420	97	1	109.5	836.8
28	1420	98	1	109.5	836.8
29	1389	38	1	109.5	836.8
29	1389	44	1	109.5	836.8
29	1391	35	1	109.5	836.8
29	1391	59	1	109.5	836.8
29	1391	81	1	109.5	836.8
30	1390	39	1	109.5	836.8
30	1390	45	1	109.5	836.8
30	1392	43	1	109.5	836.8
30	1392	1283	1	109.5	836.8
30	1392	1304	1	109.5	836.8
31	1393	36	1	109.5	836.8
31	1393	44	1	109.5	836.8
31	1393	83	1	109.5	836.8
31	1556	353	1	109.5	836.8
31	1556	365	1	109.5	836.8
31	1556	371	1	109.5	836.8
32	1386	35	1	109.5	836.8
32	1386	41	1	109.5	836.8
32	1394	37	1	109.5	836.8
32	1394	42	1	109.5	836.8
32	1394	307	1	109.5	836.8
33	1383	287	1	109.5	836.8
33	1383	346	1	109.5	836.8
33	1385	40	1	109.5	836.8
33	1385	363	1	109.5	836.8
34	1387	36	1	109.5	836.8
34	1387	42	1	109.5	836.8
34	1396	39	1	109.5	836.8
34	1396	40	1	109.5	836.8
34	1396	309	1	109.5	836.8
35	1386	41	1	109.5	836.8
35	1391	59	1	109.5	836.8
35	1391	81	1	109.5	836.8
36	1387	42	1	109.5	836.8
36	1393	44	1	109.5	836.8
36	1393	83	1	109.5	836.8
37	1388	43	1	109.5	836.8
37	1388	1005	1	109.5	836.8
37	1394	42	1	109.5	836.8
37	1394	307	1	109.5	836.8
38	1389	44	1	109.5	836.8
38	1395	308	1	109.5	836.8
38	1395	369	1	109.5	836.8
38	1395	1318	1	109.5	836.8
39	1390	45	1	109.5	836.8
39	1396	40	1	109.5	836.8
39	1396	309	1	109.5	836.8
40	1385	363	1	109.5	836.8
40	1396	309	1	109.5	836.8
41	1899	1012	1	109.5	836.8
41	1899	1260	1	109.5	836.8
41	1899	1343	1	109.5	836.8
42	1394	307	1	109.5	836.8
43	1388	1005	1	109.5	836.8
43	1392	1283	1	109.5	836.8
43	1392	1304	1	109.5	836.8
44	1393	83	1	109.5	836.8
45	1379	60	1	109.5	836.8
46	1443	85	1	109.5	836.8
46	1443	141	1	109.5	836.8
46	1443	462	1	109.5	836.8
46	1583	402	1	109.5	836.8
46	1583	408	1	109.5	836.8
46	1583	443	1	109.5	836.8
47	1439	132	1	109.5	836.8
47	1439	138	1	109.5	836.8
47	1439	170	1	109.5	836.8
47	1947	144	1	109.5	836.8
47	1947	1045	1	109.5	836.8
47	1947	1099	1	109.5	836.8
48	1487	221	1	109.5	836.8
48	1487	227	1	109.5	836.8
48	1487	260	1	109.5	836.8
48	1995	233	1	109.5	836.8
48	1995	1131	1	109.5	836.8
48	1995	1185	1	109.5	836.8
49	1539	264	1	109.5	836.8
49	1539	319	1	109.5	836.8
49	1539	647	1	109.5	836.8
49	1703	350	1	109.5	836.8
49	1703	634	1	109.5	836.8
49	1703	640	1	109.5	836.8
50	1535	310	1	109.5	836.8
50	1535	316	1	109.5	836.8
50	2043	322	1	109.5	836.8
50	2043	1217	1	109.5	836.8
50	2043	1271	1	109.5	836.8
51	1587	354	1	109.5	836.8
51	1587	412	1	109.5	836.8
51	1587	739	1	109.5	836.8
51	1727	680	1	109.5	836.8
51	1727	686	1	109.5	836.8
51	1727	720	1	109.5	836.8
52	1467	130	1	109.5	836.8
52	1467	185	1	109.5	836.8
52	1467	508	1	109.5	836.8
52	1631	495	1	109.5	836.8
52	1631	501	1	109.5	836.8
52	1631	535	1	109.5	836.8
53	1731	690	1	109.5	836.8
53	1731	957	1	109.5	836.8
53	1731	1015	1	109.5	836.8
53	1895	1003	1	109.5	836.8
53	1895	1008	1	109.5	836.8
53	1895	1042	1	109.5	836.8
54	1751	726	1	109.5	836.8
54	1751	732	1	109.5	836.8
54	1751	766	1	109.5	836.8
54	1779	724	1	109.5	836.8
54	1779	782	1	109.5	836.8
54	1779	1102	1	109.5	836.8
55	1659	493	1	109.5	836.8
55	1659	551	1	109.5	836.8
55	1659	880	1	109.5	836.8
55	1799	820	1	109.5	836.8
55	1799	826	1	109.5	836.8
55	1799	861	1	109.5	836.8
56	1827	818	1	109.5	836.8
56	1827	877	1	109.5	836.8
56	1827	1188	1	109.5	836.8
56	1967	1133	1	109.5	836.8
56	1967	1138	1	109.5	836.8
56	1967	1171	1	109.5	836.8
57	1683	539	1	109.5	836.8
57	1683	598	1	109.5	836.8
57	1683	926	1	109.5	836.8
57	1847	913	1	109.5	836.8
57	1847	919	1	109.5	836.8
57	1847	953	1	109.5	836.8
58	1875	911	1	109.5	836.8
58	1875	969	1	109.5	836.8
58	1875	1274	1	109.5	836.8
58	2015	1219	1	109.5	836.8
58	2015	1224	1	109.5	836.8
58	2015	1257	1	109.5	836.8
59	1391	81	1	109.5	836.8
59	1923	99	1	109.5	836.8
59	1923	1001	1	109.5	836.8
59	1923	1056	1	109.5	836.8
60	1398	69	1	109.5	836.8
60	1398	71	1	109.5	836.8
60	1398	77	1	109.5	836.8
61	1397	76	1	109.5	836.8
61	1397	386	1	109.5	836.8
61	1397	1346	1	109.5	836.8
61	1548	334	1	109.5	836.8
61	1548	340	1	109.5	836.8
61	1548	348	1	109.5	836.8
62	1399	70	1	109.5	836.8
62	1399	72	1	109.5	836.8
62	1399	78	1	109.5	836.8
63	1400	73	1	109.5	836.8
63	1400	79	1	109.5	836.8
63	1400	1027	1	109.5	836.8
63	1430	113	1	109.5	836.8
63	1430	118	1	109.5	836.8
63	1430	123	1	109.5	836.8
64	1401	66	1	109.5	836.8
64	1401	74	1	109.5	836.8
64	1401	80	1	109.5	836.8
64	1431	119	1	109.5	836.8
64	1431	136	1	109.5	836.8
64	1431	439	1	109.5	836.8
65	1402	67	1	109.5	836.8
65	1402	75	1	109.5	836.8
65	1402	1347	1	109.5	836.8
65	1432	115	1	109.5	836.8
65	1432	120	1	109.5	836.8
65	1432	121	1	109.5	836.8
66	1401	74	1	109.5	836.8
66	1401	80	1	109.5	836.8
66	1403	71	1	109.5	836.8
66	1403	103	1	109.5	836.8
66	1403	104	1	109.5	836.8
67	1402	75	1	109.5	836.8
67	1402	1347	1	109.5	836.8
67	1404	79	1	109.5	836.8
67	1404	1285	1	109.5	836.8
67	1404	1305	1	109.5	836.8
68	1405	72	1	109.5	836.8
68	1405	80	1	109.5	836.8
68	1405	106	1	109.5	836.8
68	1568	377	1	109.5	836.8
68	1568	388	1	109.5	836.8
68	1568	394	1	109.5	836.8
69	1398	71	1	109.5	836.8
69	1398	77	1	109.5	836.8
69	1406	73	1	109.5	836.8
69	1406	78	1	109.5	836.8
70	1399	72	1	109.5	836.8
70	1399	78	1	109.5	836.8
70	1408	75	1	109.5	836.8
70	1408	76	1	109.5	836.8
71	1398	77	1	109.5	836.8
71	1403	103	1	109.5	836.8
71	1403	104	1	109.5	836.8
72	1399	78	1	109.5	836.8
72	1405	80	1	109.5	836.8
72	1405	106	1	109.5	836.8
73	1400	79	1	109.5	836.8
73	1400	1027	1	109.5	836.8
73	1406	78	1	109.5	836.8
74	1401	80	1	109.5	836.8
74	1407	91	1	109.5	836.8
74	1407	392	1	109.5	836.8
75	1402	1347	1	109.5	836.8
75	1408	76	1	109.5	836.8
76	1397	386	1	109.5	836.8
76	1397	1346	1	109.5	836.8
77	1911	980	1	109.5	836.8
77	1911	1034	1	109.5	836.8
77	1911	1284	1	109.5	836.8
79	1400	1027	1	109.5	836.8
79	1404	1285	1	109.5	836.8
79	1404	1305	1	109.5	836.8
80	1405	106	1	109.5	836.8
81	1410	90	1	109.5	836.8
81	1410	93	1	109.5	836.8
81	1410	99	1	109.5	836.8
82	1409	91	1	109.5	836.8
82	1409	98	1	109.5	836.8
82	1409	409	1	109.5	836.8
82	1560	357	1	109.5	836.8
82	1560	363	1	109.5	836.8
82	1560	371	1	109.5	836.8
83	1411	92	1	109.5	836.8
83	1411	94	1	109.5	836.8
83	1411	100	1	109.5	836.8
84	1412	95	1	109.5	836.8
84	1412	101	1	109.5	836.8
84	1412	1049	1	109.5	836.8
84	1442	135	1	109.5	836.8
84	1442	140	1	109.5	836.8
84	1442	145	1	109.5	836.8
85	1413	87	1	109.5	836.8
85	1413	96	1	109.5	836.8
85	1413	102	1	109.5	836.8
85	1443	141	1	109.5	836.8
85	1443	462	1	109.5	836.8
86	1414	88	1	109.5	836.8
86	1414	97	1	109.5	836.8
86	1414	103	1	109.5	836.8
86	1444	137	1	109.5	836.8
86	1444	142	1	109.5	836.8
86	1444	143	1	109.5	836.8
87	1413	96	1	109.5	836.8
87	1413	102	1	109.5	836.8
87	1415	93	1	109.5	836.8
87	1415	126	1	109.5	836.8
87	1415	1320	1	109.5	836.8
88	1414	97	1	109.5	836.8
88	1414	103	1	109.5	836.8
88	1416	101	1	109.5	836.8
88	1416	1286	1	109.5	836.8
88	1416	1306	1	109.5	836.8
89	1417	94	1	109.5	836.8
89	1417	102	1	109.5	836.8
89	1417	128	1	109.5	836.8
89	1580	399	1	109.5	836.8
89	1580	411	1	109.5	836.8
89	1580	417	1	109.5	836.8
90	1410	93	1	109.5	836.8
90	1410	99	1	109.5	836.8
90	1418	95	1	109.5	836.8
90	1418	100	1	109.5	836.8
91	1407	392	1	109.5	836.8
91	1409	98	1	109.5	836.8
91	1409	409	1	109.5	836.8
92	1411	94	1	109.5	836.8
92	1411	100	1	109.5	836.8
92	1420	97	1	109.5	836.8
92	1420	98	1	109.5	836.8
93	1410	99	1	109.5	836.8
93	1415	126	1	109.5	836.8
93	1415	1320	1	109.5	836.8
94	1411	100	1	109.5	836.8
94	1417	102	1	109.5	836.8
94	1417	128	1	109.5	836.8
95	1412	101	1	109.5	836.8
95	1412	1049	1	109.5	836.8
95	1418	100	1	109.5	836.8
96	1413	102	1	109.5	836.8
96	1419	415	1	109.5	836.8
96	1419	1319	1	109.5	836.8
97	1414	103	1	109.5	836.8
97	1420	98	1	109.5	836.8
98	1409	409	1	109.5	836.8
99	1923	1001	1	109.5	836.8
99	1923	1056	1	109.5	836.8
101	1412	1049	1	109.5	836.8
101	1416	1286	1	109.5	836.8
101	1416	1306	1	109.5	836.8
102	1417	128	1	109.5	836.8
103	1403	104	1	109.5	836.8
104	1422	113	1	109.5	836.8
104	1422	116	1	109.5	836.8
104	1422	122	1	109.5	836.8
105	1421	114	1	109.5	836.8
105	1421	121	1	109.5	836.8
105	1421	433	1	109.5	836.8
105	1572	381	1	109.5	836.8
105	1572	386	1	109.5	836.8
105	1572	394	1	109.5	836.8
106	1423	115	1	109.5	836.8
106	1423	117	1	109.5	836.8
106	1423	123	1	109.5	836.8
107	1424	118	1	109.5	836.8
107	1424	124	1	109.5	836.8
107	1424	1071	1	109.5	836.8
107	1454	158	1	109.5	836.8
107	1454	162	1	109.5	836.8
107	1454	167	1	109.5	836.8
108	1425	110	1	109.5	836.8
108	1425	119	1	109.5	836.8
108	1425	125	1	109.5	836.8
108	1455	163	1	109.5	836.8
108	1455	180	1	109.5	836.8
108	1455	485	1	109.5	836.8
109	1426	111	1	109.5	836.8
109	1426	114	1	109.5	836.8
109	1426	120	1	109.5	836.8
109	1456	159	1	109.5	836.8
109	1456	164	1	109.5	836.8
109	1456	165	1	109.5	836.8
110	1425	119	1	109.5	836.8
110	1425	125	1	109.5	836.8
110	1427	116	1	109.5	836.8
110	1427	148	1	109.5	836.8
110	1427	149	1	109.5	836.8
111	1426	114	1	109.5	836.8
111	1426	120	1	109.5	836.8
111	1428	124	1	109.5	836.8
111	1428	1288	1	109.5	836.8
111	1428	1307	1	109.5	836.8
112	1429	117	1	109.5	836.8
112	1429	125	1	109.5	836.8
112	1429	151	1	109.5	836.8
112	1592	423	1	109.5	836.8
112	1592	435	1	109.5	836.8
112	1592	441	1	109.5	836.8
113	1422	116	1	109.5	836.8
113	1422	122	1	109.5	836.8
113	1430	118	1	109.5	836.8
113	1430	123	1	109.5	836.8
114	1421	121	1	109.5	836.8
114	1421	433	1	109.5	836.8
114	1426	120	1	109.5	836.8
115	1423	117	1	109.5	836.8
115	1423	123	1	109.5	836.8
115	1432	120	1	109.5	836.8
115	1432	121	1	109.5	836.8
116	1422	122	1	109.5	836.8
116	1427	148	1	109.5	836.8
116	1427	149	1	109.5	836.8
117	1423	123	1	109.5	836.8
117	1429	125	1	109.5	836.8
117	1429	151	1	109.5	836.8
118	1424	124	1	109.5	836.8
118	1424	1071	1	109.5	836.8
118	1430	123	1	109.5	836.8
119	1425	125	1	109.5	836.8
119	1431	136	1	109.5	836.8
119	1431	439	1	109.5	836.8
120	1432	121	1	109.5	836.8
121	1421	433	1	109.5	836.8
122	1935	1023	1	109.5	836.8
122	1935	1078	1	109.5	836.8
122	1935	1287	1	109.5	836.8
124	1424	1071	1	109.5	836.8
124	1428	1288	1	109.5	836.8
124	1428	1307	1	109.5	836.8
125	1429	151	1	109.5	836.8
126	1415	1320	1	109.5	836.8
126	1434	135	1	109.5	836.8
126	1434	138	1	109.5	836.8
126	1434	144	1	109.5	836.8
127	1433	136	1	109.5	836.8
127	1433	143	1	109.5	836.8
127	1433	456	1	109.5	836.8
127	1584	403	1	109.5	836.8
127	1584	409	1	109.5	836.8
127	1584	417	1	109.5	836.8
128	1435	137	1	109.5	836.8
128	1435	139	1	109.5	836.8
128	1435	145	1	109.5	836.8
129	1436	140	1	109.5	836.8
129	1436	146	1	109.5	836.8
129	1436	1092	1	109.5	836.8
129	1466	179	1	109.5	836.8
129	1466	184	1	109.5	836.8
129	1466	189	1	109.5	836.8
130	1437	132	1	109.5	836.8
130	1437	141	1	109.5	836.8
130	1437	147	1	109.5	836.8
130	1467	185	1	109.5	836.8
130	1467	508	1	109.5	836.8
131	1438	133	1	109.5	836.8
131	1438	142	1	109.5	836.8
131	1438	148	1	109.5	836.8
131	1468	181	1	109.5	836.8
131	1468	186	1	109.5	836.8
131	1468	187	1	109.5	836.8
132	1437	141	1	109.5	836.8
132	1437	147	1	109.5	836.8
132	1439	138	1	109.5	836.8
132	1439	170	1	109.5	836.8
133	1438	142	1	109.5	836.8
133	1438	148	1	109.5	836.8
133	1440	146	1	109.5	836.8
133	1440	1290	1	109.5	836.8
133	1440	1308	1	109.5	836.8
134	1441	139	1	109.5	836.8
134	1441	147	1	109.5	836.8
134	1441	172	1	109.5	836.8
134	1604	446	1	109.5	836.8
134	1604	458	1	109.5	836.8
134	1604	464	1	109.5	836.8
135	1434	138	1	109.5	836.8
135	1434	144	1	109.5	836.8
135	1442	140	1	109.5	836.8
135	1442	145	1	109.5	836.8
136	1431	439	1	109.5	836.8
136	1433	143	1	109.5	836.8
136	1433	456	1	109.5	836.8
137	1435	139	1	109.5	836.8
137	1435	145	1	109.5	836.8
137	1444	142	1	109.5	836.8
137	1444	143	1	109.5	836.8
138	1434	144	1	109.5	836.8
138	1439	170	1	109.5	836.8
139	1435	145	1	109.5	836.8
139	1441	147	1	109.5	836.8
139	1441	172	1	109.5	836.8
140	1436	146	1	109.5	836.8
140	1436	1092	1	109.5	836.8
140	1442	145	1	109.5	836.8
141	1437	147	1	109.5	836.8
141	1443	462	1	109.5	836.8
142	1438	148	1	109.5	836.8
142	1444	143	1	109.5	836.8
143	1433	456	1	109.5	836.8
144	1947	1045	1	109.5	836.8
144	1947	1099	1	109.5	836.8
146	1436	1092	1	109.5	836.8
146	1440	1290	1	109.5	836.8
146	1440	1308	1	109.5	836.8
147	1441	172	1	109.5	836.8
148	1427	149	1	109.5	836.8
149	1446	158	1	109.5	836.8
149	1446	160	1	109.5	836.8
149	1446	166	1	109.5	836.8
150	1445	165	1	109.5	836.8
150	1445	479	1	109.5	836.8
150	1445	1348	1	109.5	836.8
150	1596	427	1	109.5	836.8
150	1596	433	1	109.5	836.8
150	1596	441	1	109.5	836.8
151	1447	159	1	109.5	836.8
151	1447	161	1	109.5	836.8
151	1447	167	1	109.5	836.8
152	1448	162	1	109.5	836.8
152	1448	168	1	109.5	836.8
152	1448	1114	1	109.5	836.8
152	1478	202	1	109.5	836.8
152	1478	207	1	109.5	836.8
152	1478	212	1	109.5	836.8
153	1449	155	1	109.5	836.8
153	1449	163	1	109.5	836.8
153	1449	169	1	109.5	836.8
153	1479	208	1	109.5	836.8
153	1479	225	1	109.5	836.8
153	1479	531	1	109.5	836.8
154	1450	156	1	109.5	836.8
154	1450	164	1	109.5	836.8
154	1450	1289	1	109.5	836.8
154	1480	204	1	109.5	836.8
154	1480	209	1	109.5	836.8
154	1480	210	1	109.5	836.8
155	1449	163	1	109.5	836.8
155	1449	169	1	109.5	836.8
155	1451	160	1	109.5	836.8
155	1451	192	1	109.5	836.8
155	1451	193	1	109.5	836.8
156	1450	164	1	109.5	836.8
156	1450	1289	1	109.5	836.8
156	1452	168	1	109.5	836.8
156	1452	1292	1	109.5	836.8
156	1452	1309	1	109.5	836.8
157	1453	161	1	109.5	836.8
157	1453	169	1	109.5	836.8
157	1453	195	1	109.5	836.8
157	1616	470	1	109.5	836.8
157	1616	481	1	109.5	836.8
157	1616	487	1	109.5	836.8
158	1446	160	1	109.5	836.8
158	1446	166	1	109.5	836.8
158	1454	162	1	109.5	836.8
158	1454	167	1	109.5	836.8
159	1447	161	1	109.5	836.8
159	1447	167	1	109.5	836.8
159	1456	164	1	109.5	836.8
159	1456	165	1	109.5	836.8
160	1446	166	1	109.5	836.8
160	1451	192	1	109.5	836.8
160	1451	193	1	109.5	836.8
161	1447	167	1	109.5	836.8
161	1453	169	1	109.5	836.8
161	1453	195	1	109.5	836.8
162	1448	168	1	109.5	836.8
162	1448	1114	1	109.5	836.8
162	1454	167	1	109.5	836.8
163	1449	169	1	109.5	836.8
163	1455	180	1	109.5	836.8
163	1455	485	1	109.5	836.8
164	1450	1289	1	109.5	836.8
164	1456	165	1	109.5	836.8
165	1445	479	1	109.5	836.8
165	1445	1348	1	109.5	836.8
166	1959	1067	1	109.5	836.8
166	1959	1121	1	109.5	836.8
166	1959	1291	1	109.5	836.8
168	1448	1114	1	109.5	836.8
168	1452	1292	1	109.5	836.8
168	1452	1309	1	109.5	836.8
169	1453	195	1	109.5	836.8
170	1458	179	1	109.5	836.8
170	1458	182	1	109.5	836.8
170	1458	188	1	109.5	836.8
171	1457	180	1	109.5	836.8
171	1457	187	1	109.5	836.8
171	1457	502	1	109.5	836.8
171	1608	450	1	109.5	836.8
171	1608	456	1	109.5	836.8
171	1608	464	1	109.5	836.8
172	1459	181	1	109.5	836.8
172	1459	183	1	109.5	836.8
172	1459	189	1	109.5	836.8
173	1460	184	1	109.5	836.8
173	1460	190	1	109.5	836.8
173	1460	1135	1	109.5	836.8
173	1490	224	1	109.5	836.8
173	1490	229	1	109.5	836.8
173	1490	234	1	109.5	836.8
174	1461	176	1	109.5	836.8
174	1461	185	1	109.5	836.8
174	1461	191	1	109.5	836.8
174	1491	230	1	109.5	836.8
174	1491	554	1	109.5	836.8
174	1491	1322	1	109.5	836.8
175	1462	177	1	109.5	836.8
175	1462	186	1	109.5	836.8
175	1462	192	1	109.5	836.8
175	1492	226	1	109.5	836.8
175	1492	231	1	109.5	836.8
175	1492	232	1	109.5	836.8
176	1461	185	1	109.5	836.8
176	1461	191	1	109.5	836.8
176	1463	182	1	109.5	836.8
176	1463	215	1	109.5	836.8
176	1463	1321	1	109.5	836.8
177	1462	186	1	109.5	836.8
177	1462	192	1	109.5	836.8
177	1464	190	1	109.5	836.8
177	1464	1293	1	109.5	836.8
177	1464	1310	1	109.5	836.8
178	1465	183	1	109.5	836.8
178	1465	191	1	109.5	836.8
178	1465	217	1	109.5	836.8
178	1628	492	1	109.5	836.8
178	1628	504	1	109.5	836.8
178	1628	510	1	109.5	836.8
179	1458	182	1	109.5	836.8
179	1458	188	1	109.5	836.8
179	1466	184	1	109.5	836.8
179	1466	189	1	109.5	836.8
180	1455	485	1	109.5	836.8
180	1457	187	1	109.5	836.8
180	1457	502	1	109.5	836.8
181	1459	183	1	109.5	836.8
181	1459	189	1	109.5	836.8
181	1468	186	1	109.5	836.8
181	1468	187	1	109.5	836.8
182	1458	188	1	109.5	836.8
182	1463	215	1	109.5	836.8
182	1463	1321	1	109.5	836.8
183	1459	189	1	109.5	836.8
183	1465	191	1	109.5	836.8
183	1465	217	1	109.5	836.8
184	1460	190	1	109.5	836.8
184	1460	1135	1	109.5	836.8
184	1466	189	1	109.5	836.8
185	1461	191	1	109.5	836.8
185	1467	508	1	109.5	836.8
186	1462	192	1	109.5	836.8
186	1468	187	1	109.5	836.8
187	1457	502	1	109.5	836.8
188	1971	1088	1	109.5	836.8
188	1971	1142	1	109.5	836.8
188	1971	1344	1	109.5	836.8
190	1460	1135	1	109.5	836.8
190	1464	1293	1	109.5	836.8
190	1464	1310	1	109.5	836.8
191	1465	217	1	109.5	836.8
192	1451	193	1	109.5	836.8
193	1470	202	1	109.5	836.8
193	1470	205	1	109.5	836.8
193	1470	211	1	109.5	836.8
194	1469	203	1	109.5	836.8
194	1469	210	1	109.5	836.8
194	1469	525	1	109.5	836.8
194	1620	474	1	109.5	836.8
194	1620	479	1	109.5	836.8
194	1620	487	1	109.5	836.8
195	1471	204	1	109.5	836.8
195	1471	206	1	109.5	836.8
195	1471	212	1	109.5	836.8
196	1472	207	1	109.5	836.8
196	1472	213	1	109.5	836.8
196	1472	1157	1	109.5	836.8
196	1502	247	1	109.5	836.8
196	1502	251	1	109.5	836.8
196	1502	256	1	109.5	836.8
197	1473	199	1	109.5	836.8
197	1473	208	1	109.5	836.8
197	1473	214	1	109.5	836.8
197	1503	252	1	109.5	836.8
197	1503	270	1	109.5	836.8
197	1503	578	1	109.5	836.8
198	1474	200	1	109.5	836.8
198	1474	209	1	109.5	836.8
198	1474	1349	1	109.5	836.8
198	1504	248	1	109.5	836.8
198	1504	253	1	109.5	836.8
198	1504	254	1	109.5	836.8
199	1473	208	1	109.5	836.8
199	1473	214	1	109.5	836.8
199	1475	205	1	109.5	836.8
199	1475	237	1	109.5	836.8
199	1475	238	1	109.5	836.8
200	1474	209	1	109.5	836.8
200	1474	1349	1	109.5	836.8
200	1476	213	1	109.5	836.8
200	1476	1295	1	109.5	836.8
200	1476	1311	1	109.5	836.8
201	1477	206	1	109.5	836.8
201	1477	214	1	109.5	836.8
201	1477	240	1	109.5	836.8
201	1640	516	1	109.5	836.8
201	1640	527	1	109.5	836.8
201	1640	533	1	109.5	836.8
202	1470	205	1	109.5	836.8
202	1470	211	1	109.5	836.8
202	1478	207	1	109.5	836.8
202	1478	212	1	109.5	836.8
203	1469	210	1	109.5	836.8
203	1469	525	1	109.5	836.8
203	1618	472	1	109.5	836.8
203	1618	474	1	109.5	836.8
203	1618	483	1	109.5	836.8
204	1471	206	1	109.5	836.8
204	1471	212	1	109.5	836.8
204	1480	209	1	109.5	836.8
204	1480	210	1	109.5	836.8
205	1470	211	1	109.5	836.8
205	1475	237	1	109.5	836.8
205	1475	238	1	109.5	836.8
206	1471	212	1	109.5	836.8
206	1477	214	1	109.5	836.8
206	1477	240	1	109.5	836.8
207	1472	213	1	109.5	836.8
207	1472	1157	1	109.5	836.8
207	1478	212	1	109.5	836.8
208	1473	214	1	109.5	836.8
208	1479	225	1	109.5	836.8
208	1479	531	1	109.5	836.8
209	1474	1349	1	109.5	836.8
209	1480	210	1	109.5	836.8
210	1469	525	1	109.5	836.8
211	1983	1110	1	109.5	836.8
211	1983	1164	1	109.5	836.8
211	1983	1294	1	109.5	836.8
213	1472	1157	1	109.5	836.8
213	1476	1295	1	109.5	836.8
213	1476	1311	1	109.5	836.8
214	1477	240	1	109.5	836.8
215	1463	1321	1	109.5	836.8
215	1482	224	1	109.5	836.8
215	1482	227	1	109.5	836.8
215	1482	233	1	109.5	836.8
216	1481	225	1	109.5	836.8
216	1481	232	1	109.5	836.8
216	1481	548	1	109.5	836.8
216	1632	496	1	109.5	836.8
216	1632	502	1	109.5	836.8
216	1632	510	1	109.5	836.8
217	1483	226	1	109.5	836.8
217	1483	228	1	109.5	836.8
217	1483	234	1	109.5	836.8
218	1484	229	1	109.5	836.8
218	1484	235	1	109.5	836.8
218	1484	1178	1	109.5	836.8
218	1514	269	1	109.5	836.8
218	1514	274	1	109.5	836.8
218	1514	279	1	109.5	836.8
219	1485	221	1	109.5	836.8
219	1485	230	1	109.5	836.8
219	1485	236	1	109.5	836.8
219	1515	275	1	109.5	836.8
219	1515	601	1	109.5	836.8
219	1515	1323	1	109.5	836.8
220	1486	222	1	109.5	836.8
220	1486	231	1	109.5	836.8
220	1486	237	1	109.5	836.8
220	1516	271	1	109.5	836.8
220	1516	276	1	109.5	836.8
220	1516	277	1	109.5	836.8
221	1485	230	1	109.5	836.8
221	1485	236	1	109.5	836.8
221	1487	227	1	109.5	836.8
221	1487	260	1	109.5	836.8
222	1486	231	1	109.5	836.8
222	1486	237	1	109.5	836.8
222	1488	235	1	109.5	836.8
222	1488	1297	1	109.5	836.8
222	1488	1312	1	109.5	836.8
223	1489	228	1	109.5	836.8
223	1489	236	1	109.5	836.8
223	1489	262	1	109.5	836.8
223	1652	538	1	109.5	836.8
223	1652	550	1	109.5	836.8
223	1652	556	1	109.5	836.8
224	1482	227	1	109.5	836.8
224	1482	233	1	109.5	836.8
224	1490	229	1	109.5	836.8
224	1490	234	1	109.5	836.8
225	1479	531	1	109.5	836.8
225	1481	232	1	109.5	836.8
225	1481	548	1	109.5	836.8
226	1483	228	1	109.5	836.8
226	1483	234	1	109.5	836.8
226	1492	231	1	109.5	836.8
226	1492	232	1	109.5	836.8
227	1482	233	1	109.5	836.8
227	1487	260	1	109.5	836.8
228	1483	234	1	109.5	836.8
228	1489	236	1	109.5	836.8
228	1489	262	1	109.5	836.8
229	1484	235	1	109.5	836.8
229	1484	1178	1	109.5	836.8
229	1490	234	1	109.5	836.8
230	1485	236	1	109.5	836.8
230	1491	554	1	109.5	836.8
230	1491	1322	1	109.5	836.8
231	1486	237	1	109.5	836.8
231	1492	232	1	109.5	836.8
232	1481	548	1	109.5	836.8
233	1995	1131	1	109.5	836.8
233	1995	1185	1	109.5	836.8
235	1484	1178	1	109.5	836.8
235	1488	1297	1	109.5	836.8
235	1488	1312	1	109.5	836.8
236	1489	262	1	109.5	836.8
237	1475	238	1	109.5	836.8
238	1494	247	1	109.5	836.8
238	1494	249	1	109.5	836.8
238	1494	255	1	109.5	836.8
239	1493	254	1	109.5	836.8
239	1493	259	1	109.5	836.8
239	1493	572	1	109.5	836.8
239	1644	520	1	109.5	836.8
239	1644	525	1	109.5	836.8
239	1644	533	1	109.5	836.8
240	1495	248	1	109.5	836.8
240	1495	250	1	109.5	836.8
240	1495	256	1	109.5	836.8
241	1496	251	1	109.5	836.8
241	1496	257	1	109.5	836.8
241	1496	1200	1	109.5	836.8
241	1526	292	1	109.5	836.8
241	1526	296	1	109.5	836.8
241	1526	301	1	109.5	836.8
242	1497	244	1	109.5	836.8
242	1497	252	1	109.5	836.8
242	1497	258	1	109.5	836.8
242	1527	297	1	109.5	836.8
242	1527	314	1	109.5	836.8
242	1527	624	1	109.5	836.8
243	1498	245	1	109.5	836.8
243	1498	253	1	109.5	836.8
243	1498	259	1	109.5	836.8
243	1528	293	1	109.5	836.8
243	1528	298	1	109.5	836.8
243	1528	299	1	109.5	836.8
244	1497	252	1	109.5	836.8
244	1497	258	1	109.5	836.8
244	1499	249	1	109.5	836.8
244	1499	282	1	109.5	836.8
244	1499	283	1	109.5	836.8
245	1498	253	1	109.5	836.8
245	1498	259	1	109.5	836.8
245	1500	257	1	109.5	836.8
245	1500	1299	1	109.5	836.8
245	1500	1313	1	109.5	836.8
246	1501	250	1	109.5	836.8
246	1501	258	1	109.5	836.8
246	1501	285	1	109.5	836.8
246	1664	562	1	109.5	836.8
246	1664	574	1	109.5	836.8
246	1664	580	1	109.5	836.8
247	1494	249	1	109.5	836.8
247	1494	255	1	109.5	836.8
247	1502	251	1	109.5	836.8
247	1502	256	1	109.5	836.8
248	1495	250	1	109.5	836.8
248	1495	256	1	109.5	836.8
248	1504	253	1	109.5	836.8
248	1504	254	1	109.5	836.8
249	1494	255	1	109.5	836.8
249	1499	282	1	109.5	836.8
249	1499	283	1	109.5	836.8
250	1495	256	1	109.5	836.8
250	1501	258	1	109.5	836.8
250	1501	285	1	109.5	836.8
251	1496	257	1	109.5	836.8
251	1496	1200	1	109.5	836.8
251	1502	256	1	109.5	836.8
252	1497	258	1	109.5	836.8
252	1503	270	1	109.5	836.8
252	1503	578	1	109.5	836.8
253	1498	259	1	109.5	836.8
253	1504	254	1	109.5	836.8
254	1493	259	1	109.5	836.8
254	1493	572	1	109.5	836.8
255	2007	1153	1	109.5	836.8
255	2007	1207	1	109.5	836.8
255	2007	1298	1	109.5	836.8
257	1496	1200	1	109.5	836.8
257	1500	1299	1	109.5	836.8
257	1500	1313	1	109.5	836.8
258	1501	285	1	109.5	836.8
259	1493	572	1	109.5	836.8
260	1506	269	1	109.5	836.8
260	1506	272	1	109.5	836.8
260	1506	278	1	109.5	836.8
261	1505	270	1	109.5	836.8
261	1505	277	1	109.5	836.8
261	1505	595	1	109.5	836.8
261	1656	542	1	109.5	836.8
261	1656	548	1	109.5	836.8
261	1656	556	1	109.5	836.8
262	1507	271	1	109.5	836.8
262	1507	273	1	109.5	836.8
262	1507	279	1	109.5	836.8
263	1508	274	1	109.5	836.8
263	1508	280	1	109.5	836.8
263	1508	1221	1	109.5	836.8
263	1538	313	1	109.5	836.8
263	1538	318	1	109.5	836.8
263	1538	323	1	109.5	836.8
264	1509	266	1	109.5	836.8
264	1509	275	1	109.5	836.8
264	1509	281	1	109.5	836.8
264	1539	319	1	109.5	836.8
264	1539	647	1	109.5	836.8
265	1510	267	1	109.5	836.8
265	1510	276	1	109.5	836.8
265	1510	282	1	109.5	836.8
265	1540	315	1	109.5	836.8
265	1540	320	1	109.5	836.8
265	1540	321	1	109.5	836.8
266	1509	275	1	109.5	836.8
266	1509	281	1	109.5	836.8
266	1511	272	1	109.5	836.8
266	1511	304	1	109.5	836.8
266	1511	1324	1	109.5	836.8
267	1510	276	1	109.5	836.8
267	1510	282	1	109.5	836.8
267	1512	280	1	109.5	836.8
267	1512	1301	1	109.5	836.8
267	1512	1314	1	109.5	836.8
268	1513	273	1	109.5	836.8
268	1513	281	1	109.5	836.8
268	1513	306	1	109.5	836.8
268	1676	585	1	109.5	836.8
268	1676	597	1	109.5	836.8
268	1676	603	1	109.5	836.8
269	1506	272	1	109.5	836.8
269	1506	278	1	109.5	836.8
269	1514	274	1	109.5	836.8
269	1514	279	1	109.5	836.8
270	1503	578	1	109.5	836.8
270	1505	277	1	109.5	836.8
270	1505	595	1	109.5	836.8
271	1507	273	1	109.5	836.8
271	1507	279	1	109.5	836.8
271	1516	276	1	109.5	836.8
271	1516	277	1	109.5	836.8
272	1506	278	1	109.5	836.8
272	1511	304	1	109.5	836.8
272	1511	1324	1	109.5	836.8
273	1507	279	1	109.5	836.8
273	1513	281	1	109.5	836.8
273	1513	306	1	109.5	836.8
274	1508	280	1	109.5	836.8
274	1508	1221	1	109.5	836.8
274	1514	279	1	109.5	836.8
275	1509	281	1	109.5	836.8
275	1515	601	1	109.5	836.8
275	1515	1323	1	109.5	836.8
276	1510	282	1	109.5	836.8
276	1516	277	1	109.5	836.8
277	1505	595	1	109.5	836.8
278	2019	1174	1	109.5	836.8
278	2019	1228	1	109.5	836.8
278	2019	1345	1	109.5	836.8
280	1508	1221	1	109.5	836.8
280	1512	1301	1	109.5	836.8
280	1512	1314	1	109.5	836.8
281	1513	306	1	109.5	836.8
282	1499	283	1	109.5	836.8
283	1518	292	1	109.5	836.8
283	1518	294	1	109.5	836.8
283	1518	300	1	109.5	836.8
284	1517	299	1	109.5	836.8
284	1517	618	1	109.5	836.8
284	1517	1350	1	109.5	836.8
284	1668	566	1	109.5	836.8
284	1668	572	1	109.5	836.8
284	1668	580	1	109.5	836.8
285	1519	293	1	109.5	836.8
285	1519	295	1	109.5	836.8
285	1519	301	1	109.5	836.8
286	1520	296	1	109.5	836.8
286	1520	302	1	109.5	836.8
286	1520	1243	1	109.5	836.8
287	1383	346	1	109.5	836.8
287	1521	289	1	109.5	836.8
287	1521	297	1	109.5	836.8
287	1521	303	1	109.5	836.8
288	1522	290	1	109.5	836.8
288	1522	298	1	109.5	836.8
288	1522	1351	1	109.5	836.8
289	1521	297	1	109.5	836.8
289	1521	303	1	109.5	836.8
289	1523	294	1	109.5	836.8
289	1523	326	1	109.5	836.8
290	1522	298	1	109.5	836.8
290	1522	1351	1	109.5	836.8
290	1524	302	1	109.5	836.8
290	1524	1279	1	109.5	836.8
290	1524	1315	1	109.5	836.8
291	1525	295	1	109.5	836.8
291	1525	303	1	109.5	836.8
291	1688	609	1	109.5	836.8
291	1688	620	1	109.5	836.8
291	1688	626	1	109.5	836.8
292	1518	294	1	109.5	836.8
292	1518	300	1	109.5	836.8
292	1526	296	1	109.5	836.8
292	1526	301	1	109.5	836.8
293	1519	295	1	109.5	836.8
293	1519	301	1	109.5	836.8
293	1528	298	1	109.5	836.8
293	1528	299	1	109.5	836.8
294	1518	300	1	109.5	836.8
294	1523	326	1	109.5	836.8
295	1519	301	1	109.5	836.8
295	1525	303	1	109.5	836.8
296	1520	302	1	109.5	836.8
296	1520	1243	1	109.5	836.8
296	1526	301	1	109.5	836.8
297	1521	303	1	109.5	836.8
297	1527	314	1	109.5	836.8
297	1527	624	1	109.5	836.8
298	1522	1351	1	109.5	836.8
298	1528	299	1	109.5	836.8
299	1517	618	1	109.5	836.8
299	1517	1350	1	109.5	836.8
300	2031	1196	1	109.5	836.8
300	2031	1250	1	109.5	836.8
300	2031	1302	1	109.5	836.8
302	1520	1243	1	109.5	836.8
302	1524	1279	1	109.5	836.8
302	1524	1315	1	109.5	836.8
304	1511	1324	1	109.5	836.8
304	1530	313	1	109.5	836.8
304	1530	316	1	109.5	836.8
304	1530	322	1	109.5	836.8
305	1529	314	1	109.5	836.8
305	1529	321	1	109.5	836.8
305	1529	641	1	109.5	836.8
305	1680	589	1	109.5	836.8
305	1680	595	1	109.5	836.8
305	1680	603	1	109.5	836.8
306	1531	315	1	109.5	836.8
306	1531	317	1	109.5	836.8
306	1531	323	1	109.5	836.8
307	1532	318	1	109.5	836.8
307	1532	324	1	109.5	836.8
307	1532	1264	1	109.5	836.8
308	1395	369	1	109.5	836.8
308	1395	1318	1	109.5	836.8
308	1533	310	1	109.5	836.8
308	1533	319	1	109.5	836.8
308	1533	325	1	109.5	836.8
309	1534	311	1	109.5	836.8
309	1534	320	1	109.5	836.8
309	1534	326	1	109.5	836.8
310	1533	319	1	109.5	836.8
310	1533	325	1	109.5	836.8
310	1535	316	1	109.5	836.8
311	1534	320	1	109.5	836.8
311	1534	326	1	109.5	836.8
311	1536	324	1	109.5	836.8
311	1536	1280	1	109.5	836.8
311	1536	1316	1	109.5	836.8
312	1537	317	1	109.5	836.8
312	1537	325	1	109.5	836.8
312	1700	631	1	109.5	836.8
312	1700	643	1	109.5	836.8
312	1700	649	1	109.5	836.8
313	1530	316	1	109.5	836.8
313	1530	322	1	109.5	836.8
313	1538	318	1	109.5	836.8
313	1538	323	1	109.5	836.8
314	1527	624	1	109.5	836.8
314	1529	321	1	109.5	836.8
314	1529	641	1	109.5	836.8
315	1531	317	1	109.5	836.8
315	1531	323	1	109.5	836.8
315	1540	320	1	109.5	836.8
315	1540	321	1	109.5	836.8
316	1530	322	1	109.5	836.8
317	1531	323	1	109.5	836.8
317	1537	325	1	109.5	836.8
318	1532	324	1	109.5	836.8
318	1532	1264	1	109.5	836.8
318	1538	323	1	109.5	836.8
319	1533	325	1	109.5	836.8
319	1539	647	1	109.5	836.8
320	1534	326	1	109.5	836.8
320	1540	321	1	109.5	836.8
321	1529	641	1	109.5	836.8
322	2043	1217	1	109.5	836.8
322	2043	1271	1	109.5	836.8
324	1532	1264	1	109.5	836.8
324	1536	1280	1	109.5	836.8
324	1536	1316	1	109.5	836.8
327	1542	336	1	109.5	836.8
327	1542	339	1	109.5	836.8
327	1542	346	1	109.5	836.8
327	1691	612	1	109.5	836.8
327	1691	617	1	109.5	836.8
327	1691	651	1	109.5	836.8
328	1541	337	1	109.5	836.8
328	1541	345	1	109.5	836.8
328	1541	664	1	109.5	836.8
328	1860	938	1	109.5	836.8
328	1860	943	1	109.5	836.8
328	1860	951	1	109.5	836.8
329	1543	338	1	109.5	836.8
329	1543	341	1	109.5	836.8
329	1543	347	1	109.5	836.8
329	1693	614	1	109.5	836.8
329	1693	619	1	109.5	836.8
329	1693	627	1	109.5	836.8
330	1544	342	1	109.5	836.8
330	1544	348	1	109.5	836.8
330	1574	383	1	109.5	836.8
330	1574	388	1	109.5	836.8
330	1574	393	1	109.5	836.8
331	1545	333	1	109.5	836.8
331	1545	343	1	109.5	836.8
331	1545	349	1	109.5	836.8
331	1575	389	1	109.5	836.8
331	1575	406	1	109.5	836.8
331	1575	716	1	109.5	836.8
332	1546	334	1	109.5	836.8
332	1546	344	1	109.5	836.8
332	1576	384	1	109.5	836.8
332	1576	390	1	109.5	836.8
332	1576	391	1	109.5	836.8
333	1545	343	1	109.5	836.8
333	1545	349	1	109.5	836.8
333	1547	339	1	109.5	836.8
333	1547	373	1	109.5	836.8
333	1547	374	1	109.5	836.8
334	1546	344	1	109.5	836.8
334	1548	340	1	109.5	836.8
334	1548	348	1	109.5	836.8
335	1549	341	1	109.5	836.8
335	1549	349	1	109.5	836.8
335	1549	376	1	109.5	836.8
335	1712	655	1	109.5	836.8
335	1712	666	1	109.5	836.8
335	1712	672	1	109.5	836.8
336	1542	339	1	109.5	836.8
336	1542	346	1	109.5	836.8
336	1550	342	1	109.5	836.8
336	1550	347	1	109.5	836.8
336	1550	609	1	109.5	836.8
337	1541	345	1	109.5	836.8
337	1541	664	1	109.5	836.8
337	1714	657	1	109.5	836.8
337	1714	659	1	109.5	836.8
337	1714	668	1	109.5	836.8
338	1543	341	1	109.5	836.8
338	1543	347	1	109.5	836.8
338	1552	344	1	109.5	836.8
338	1552	345	1	109.5	836.8
338	1552	611	1	109.5	836.8
339	1542	346	1	109.5	836.8
339	1547	373	1	109.5	836.8
339	1547	374	1	109.5	836.8
340	1548	348	1	109.5	836.8
341	1543	347	1	109.5	836.8
341	1549	349	1	109.5	836.8
341	1549	376	1	109.5	836.8
342	1544	348	1	109.5	836.8
342	1550	347	1	109.5	836.8
342	1550	609	1	109.5	836.8
343	1545	349	1	109.5	836.8
343	1551	360	1	109.5	836.8
343	1551	610	1	109.5	836.8
343	1551	670	1	109.5	836.8
344	1552	345	1	109.5	836.8
344	1552	611	1	109.5	836.8
345	1541	664	1	109.5	836.8
345	1552	611	1	109.5	836.8
347	1550	609	1	109.5	836.8
349	1549	376	1	109.5	836.8
350	1554	359	1	109.5	836.8
350	1554	362	1	109.5	836.8
350	1554	369	1	109.5	836.8
350	1703	634	1	109.5	836.8
350	1703	640	1	109.5	836.8
351	1553	360	1	109.5	836.8
351	1553	368	1	109.5	836.8
351	1553	687	1	109.5	836.8
351	1872	960	1	109.5	836.8
351	1872	966	1	109.5	836.8
351	1872	974	1	109.5	836.8
352	1555	361	1	109.5	836.8
352	1555	364	1	109.5	836.8
352	1555	370	1	109.5	836.8
352	1705	636	1	109.5	836.8
352	1705	642	1	109.5	836.8
352	1705	650	1	109.5	836.8
353	1556	365	1	109.5	836.8
353	1556	371	1	109.5	836.8
353	1586	405	1	109.5	836.8
353	1586	411	1	109.5	836.8
353	1586	416	1	109.5	836.8
354	1557	356	1	109.5	836.8
354	1557	366	1	109.5	836.8
354	1557	372	1	109.5	836.8
354	1587	412	1	109.5	836.8
354	1587	739	1	109.5	836.8
355	1558	357	1	109.5	836.8
355	1558	367	1	109.5	836.8
355	1558	373	1	109.5	836.8
355	1588	407	1	109.5	836.8
355	1588	413	1	109.5	836.8
355	1588	414	1	109.5	836.8
356	1557	366	1	109.5	836.8
356	1557	372	1	109.5	836.8
356	1559	362	1	109.5	836.8
356	1559	396	1	109.5	836.8
356	1559	1326	1	109.5	836.8
357	1558	367	1	109.5	836.8
357	1558	373	1	109.5	836.8
357	1560	363	1	109.5	836.8
357	1560	371	1	109.5	836.8
358	1561	364	1	109.5	836.8
358	1561	372	1	109.5	836.8
358	1561	398	1	109.5	836.8
358	1724	677	1	109.5	836.8
358	1724	689	1	109.5	836.8
358	1724	695	1	109.5	836.8
359	1554	362	1	109.5	836.8
359	1554	369	1	109.5	836.8
359	1562	365	1	109.5	836.8
359	1562	370	1	109.5	836.8
359	1562	631	1	109.5	836.8
360	1551	610	1	109.5	836.8
360	1551	670	1	109.5	836.8
360	1553	368	1	109.5	836.8
360	1553	687	1	109.5	836.8
361	1555	364	1	109.5	836.8
361	1555	370	1	109.5	836.8
361	1564	367	1	109.5	836.8
361	1564	368	1	109.5	836.8
361	1564	633	1	109.5	836.8
362	1554	369	1	109.5	836.8
362	1559	396	1	109.5	836.8
362	1559	1326	1	109.5	836.8
363	1560	371	1	109.5	836.8
364	1555	370	1	109.5	836.8
364	1561	372	1	109.5	836.8
364	1561	398	1	109.5	836.8
365	1556	371	1	109.5	836.8
365	1562	370	1	109.5	836.8
365	1562	631	1	109.5	836.8
366	1557	372	1	109.5	836.8
366	1563	632	1	109.5	836.8
366	1563	693	1	109.5	836.8
366	1563	1325	1	109.5	836.8
367	1558	373	1	109.5	836.8
367	1564	368	1	109.5	836.8
367	1564	633	1	109.5	836.8
368	1553	687	1	109.5	836.8
368	1564	633	1	109.5	836.8
369	1395	1318	1	109.5	836.8
370	1562	631	1	109.5	836.8
372	1561	398	1	109.5	836.8
373	1547	374	1	109.5	836.8
374	1566	383	1	109.5	836.8
374	1566	385	1	109.5	836.8
374	1566	392	1	109.5	836.8
375	1565	391	1	109.5	836.8
375	1565	710	1	109.5	836.8
375	1565	1352	1	109.5	836.8
375	1716	659	1	109.5	836.8
375	1716	664	1	109.5	836.8
375	1716	672	1	109.5	836.8
376	1567	384	1	109.5	836.8
376	1567	387	1	109.5	836.8
376	1567	393	1	109.5	836.8
377	1568	388	1	109.5	836.8
377	1568	394	1	109.5	836.8
377	1598	429	1	109.5	836.8
377	1598	435	1	109.5	836.8
377	1598	440	1	109.5	836.8
378	1569	380	1	109.5	836.8
378	1569	389	1	109.5	836.8
378	1569	395	1	109.5	836.8
378	1599	436	1	109.5	836.8
378	1599	453	1	109.5	836.8
378	1599	762	1	109.5	836.8
379	1570	381	1	109.5	836.8
379	1570	390	1	109.5	836.8
379	1570	1353	1	109.5	836.8
379	1600	431	1	109.5	836.8
379	1600	437	1	109.5	836.8
379	1600	438	1	109.5	836.8
380	1569	389	1	109.5	836.8
380	1569	395	1	109.5	836.8
380	1571	385	1	109.5	836.8
380	1571	419	1	109.5	836.8
380	1571	420	1	109.5	836.8
381	1570	390	1	109.5	836.8
381	1570	1353	1	109.5	836.8
381	1572	386	1	109.5	836.8
381	1572	394	1	109.5	836.8
382	1573	387	1	109.5	836.8
382	1573	395	1	109.5	836.8
382	1573	422	1	109.5	836.8
382	1736	701	1	109.5	836.8
382	1736	712	1	109.5	836.8
382	1736	718	1	109.5	836.8
383	1566	385	1	109.5	836.8
383	1566	392	1	109.5	836.8
383	1574	388	1	109.5	836.8
383	1574	393	1	109.5	836.8
384	1567	387	1	109.5	836.8
384	1567	393	1	109.5	836.8
384	1576	390	1	109.5	836.8
384	1576	391	1	109.5	836.8
385	1566	392	1	109.5	836.8
385	1571	419	1	109.5	836.8
385	1571	420	1	109.5	836.8
386	1397	1346	1	109.5	836.8
386	1572	394	1	109.5	836.8
387	1567	393	1	109.5	836.8
387	1573	395	1	109.5	836.8
387	1573	422	1	109.5	836.8
388	1568	394	1	109.5	836.8
388	1574	393	1	109.5	836.8
389	1569	395	1	109.5	836.8
389	1575	406	1	109.5	836.8
389	1575	716	1	109.5	836.8
390	1570	1353	1	109.5	836.8
390	1576	391	1	109.5	836.8
391	1565	710	1	109.5	836.8
391	1565	1352	1	109.5	836.8
395	1573	422	1	109.5	836.8
396	1559	1326	1	109.5	836.8
396	1578	405	1	109.5	836.8
396	1578	408	1	109.5	836.8
396	1578	415	1	109.5	836.8
397	1577	406	1	109.5	836.8
397	1577	414	1	109.5	836.8
397	1577	733	1	109.5	836.8
397	1728	681	1	109.5	836.8
397	1728	687	1	109.5	836.8
397	1728	695	1	109.5	836.8
398	1579	407	1	109.5	836.8
398	1579	410	1	109.5	836.8
398	1579	416	1	109.5	836.8
399	1580	411	1	109.5	836.8
399	1580	417	1	109.5	836.8
399	1610	452	1	109.5	836.8
399	1610	458	1	109.5	836.8
399	1610	463	1	109.5	836.8
400	1581	402	1	109.5	836.8
400	1581	412	1	109.5	836.8
400	1581	418	1	109.5	836.8
400	1611	459	1	109.5	836.8
400	1611	785	1	109.5	836.8
400	1611	1327	1	109.5	836.8
401	1582	403	1	109.5	836.8
401	1582	413	1	109.5	836.8
401	1582	419	1	109.5	836.8
401	1612	454	1	109.5	836.8
401	1612	460	1	109.5	836.8
401	1612	461	1	109.5	836.8
402	1581	412	1	109.5	836.8
402	1581	418	1	109.5	836.8
402	1583	408	1	109.5	836.8
402	1583	443	1	109.5	836.8
403	1582	413	1	109.5	836.8
403	1582	419	1	109.5	836.8
403	1584	409	1	109.5	836.8
403	1584	417	1	109.5	836.8
404	1585	410	1	109.5	836.8
404	1585	418	1	109.5	836.8
404	1585	445	1	109.5	836.8
404	1748	723	1	109.5	836.8
404	1748	735	1	109.5	836.8
404	1748	741	1	109.5	836.8
405	1578	408	1	109.5	836.8
405	1578	415	1	109.5	836.8
405	1586	411	1	109.5	836.8
405	1586	416	1	109.5	836.8
406	1575	716	1	109.5	836.8
406	1577	414	1	109.5	836.8
406	1577	733	1	109.5	836.8
407	1579	410	1	109.5	836.8
407	1579	416	1	109.5	836.8
407	1588	413	1	109.5	836.8
407	1588	414	1	109.5	836.8
408	1578	415	1	109.5	836.8
408	1583	443	1	109.5	836.8
409	1584	417	1	109.5	836.8
410	1579	416	1	109.5	836.8
410	1585	418	1	109.5	836.8
410	1585	445	1	109.5	836.8
411	1580	417	1	109.5	836.8
411	1586	416	1	109.5	836.8
412	1581	418	1	109.5	836.8
412	1587	739	1	109.5	836.8
413	1582	419	1	109.5	836.8
413	1588	414	1	109.5	836.8
414	1577	733	1	109.5	836.8
415	1419	1319	1	109.5	836.8
418	1585	445	1	109.5	836.8
419	1571	420	1	109.5	836.8
420	1590	429	1	109.5	836.8
420	1590	432	1	109.5	836.8
420	1590	439	1	109.5	836.8
421	1589	430	1	109.5	836.8
421	1589	438	1	109.5	836.8
421	1589	756	1	109.5	836.8
421	1740	705	1	109.5	836.8
421	1740	710	1	109.5	836.8
421	1740	718	1	109.5	836.8
422	1591	431	1	109.5	836.8
422	1591	434	1	109.5	836.8
422	1591	440	1	109.5	836.8
423	1592	435	1	109.5	836.8
423	1592	441	1	109.5	836.8
423	1622	476	1	109.5	836.8
423	1622	481	1	109.5	836.8
423	1622	486	1	109.5	836.8
424	1593	426	1	109.5	836.8
424	1593	436	1	109.5	836.8
424	1593	442	1	109.5	836.8
424	1623	482	1	109.5	836.8
424	1623	499	1	109.5	836.8
424	1623	809	1	109.5	836.8
425	1594	427	1	109.5	836.8
425	1594	437	1	109.5	836.8
425	1594	1354	1	109.5	836.8
425	1624	477	1	109.5	836.8
425	1624	483	1	109.5	836.8
425	1624	484	1	109.5	836.8
426	1593	436	1	109.5	836.8
426	1593	442	1	109.5	836.8
426	1595	432	1	109.5	836.8
426	1595	466	1	109.5	836.8
426	1595	467	1	109.5	836.8
427	1594	437	1	109.5	836.8
427	1594	1354	1	109.5	836.8
427	1596	433	1	109.5	836.8
427	1596	441	1	109.5	836.8
428	1597	434	1	109.5	836.8
428	1597	442	1	109.5	836.8
428	1597	469	1	109.5	836.8
428	1760	747	1	109.5	836.8
428	1760	758	1	109.5	836.8
428	1760	764	1	109.5	836.8
429	1590	432	1	109.5	836.8
429	1590	439	1	109.5	836.8
429	1598	435	1	109.5	836.8
429	1598	440	1	109.5	836.8
430	1589	438	1	109.5	836.8
430	1589	756	1	109.5	836.8
430	1738	703	1	109.5	836.8
430	1738	705	1	109.5	836.8
430	1738	714	1	109.5	836.8
431	1591	434	1	109.5	836.8
431	1591	440	1	109.5	836.8
431	1600	437	1	109.5	836.8
431	1600	438	1	109.5	836.8
432	1590	439	1	109.5	836.8
432	1595	466	1	109.5	836.8
432	1595	467	1	109.5	836.8
433	1596	441	1	109.5	836.8
434	1591	440	1	109.5	836.8
434	1597	442	1	109.5	836.8
434	1597	469	1	109.5	836.8
435	1592	441	1	109.5	836.8
435	1598	440	1	109.5	836.8
436	1593	442	1	109.5	836.8
436	1599	453	1	109.5	836.8
436	1599	762	1	109.5	836.8
437	1594	1354	1	109.5	836.8
437	1600	438	1	109.5	836.8
438	1589	756	1	109.5	836.8
442	1597	469	1	109.5	836.8
443	1602	452	1	109.5	836.8
443	1602	455	1	109.5	836.8
443	1602	462	1	109.5	836.8
444	1601	453	1	109.5	836.8
444	1601	461	1	109.5	836.8
444	1601	779	1	109.5	836.8
444	1752	727	1	109.5	836.8
444	1752	733	1	109.5	836.8
444	1752	741	1	109.5	836.8
445	1603	454	1	109.5	836.8
445	1603	457	1	109.5	836.8
445	1603	463	1	109.5	836.8
446	1604	458	1	109.5	836.8
446	1604	464	1	109.5	836.8
446	1634	498	1	109.5	836.8
446	1634	504	1	109.5	836.8
446	1634	509	1	109.5	836.8
447	1605	449	1	109.5	836.8
447	1605	459	1	109.5	836.8
447	1605	465	1	109.5	836.8
447	1635	505	1	109.5	836.8
447	1635	833	1	109.5	836.8
447	1635	1329	1	109.5	836.8
448	1606	450	1	109.5	836.8
448	1606	460	1	109.5	836.8
448	1606	466	1	109.5	836.8
448	1636	500	1	109.5	836.8
448	1636	506	1	109.5	836.8
448	1636	507	1	109.5	836.8
449	1605	459	1	109.5	836.8
449	1605	465	1	109.5	836.8
449	1607	455	1	109.5	836.8
449	1607	489	1	109.5	836.8
449	1607	1328	1	109.5	836.8
450	1606	460	1	109.5	836.8
450	1606	466	1	109.5	836.8
450	1608	456	1	109.5	836.8
450	1608	464	1	109.5	836.8
451	1609	457	1	109.5	836.8
451	1609	465	1	109.5	836.8
451	1609	491	1	109.5	836.8
451	1772	769	1	109.5	836.8
451	1772	781	1	109.5	836.8
451	1772	787	1	109.5	836.8
452	1602	455	1	109.5	836.8
452	1602	462	1	109.5	836.8
452	1610	458	1	109.5	836.8
452	1610	463	1	109.5	836.8
453	1599	762	1	109.5	836.8
453	1601	461	1	109.5	836.8
453	1601	779	1	109.5	836.8
454	1603	457	1	109.5	836.8
454	1603	463	1	109.5	836.8
454	1612	460	1	109.5	836.8
454	1612	461	1	109.5	836.8
455	1602	462	1	109.5	836.8
455	1607	489	1	109.5	836.8
455	1607	1328	1	109.5	836.8
456	1608	464	1	109.5	836.8
457	1603	463	1	109.5	836.8
457	1609	465	1	109.5	836.8
457	1609	491	1	109.5	836.8
458	1604	464	1	109.5	836.8
458	1610	463	1	109.5	836.8
459	1605	465	1	109.5	836.8
459	1611	785	1	109.5	836.8
459	1611	1327	1	109.5	836.8
460	1606	466	1	109.5	836.8
460	1612	461	1	109.5	836.8
461	1601	779	1	109.5	836.8
465	1609	491	1	109.5	836.8
466	1595	467	1	109.5	836.8
467	1614	476	1	109.5	836.8
467	1614	478	1	109.5	836.8
467	1614	485	1	109.5	836.8
468	1613	484	1	109.5	836.8
468	1613	803	1	109.5	836.8
468	1613	1355	1	109.5	836.8
468	1764	751	1	109.5	836.8
468	1764	756	1	109.5	836.8
468	1764	764	1	109.5	836.8
469	1615	477	1	109.5	836.8
469	1615	480	1	109.5	836.8
469	1615	486	1	109.5	836.8
470	1616	481	1	109.5	836.8
470	1616	487	1	109.5	836.8
470	1646	522	1	109.5	836.8
470	1646	527	1	109.5	836.8
470	1646	532	1	109.5	836.8
471	1617	473	1	109.5	836.8
471	1617	482	1	109.5	836.8
471	1617	488	1	109.5	836.8
471	1647	528	1	109.5	836.8
471	1647	545	1	109.5	836.8
471	1647	857	1	109.5	836.8
472	1618	474	1	109.5	836.8
472	1618	483	1	109.5	836.8
472	1648	523	1	109.5	836.8
472	1648	529	1	109.5	836.8
472	1648	530	1	109.5	836.8
473	1617	482	1	109.5	836.8
473	1617	488	1	109.5	836.8
473	1619	478	1	109.5	836.8
473	1619	512	1	109.5	836.8
473	1619	513	1	109.5	836.8
474	1618	483	1	109.5	836.8
474	1620	479	1	109.5	836.8
474	1620	487	1	109.5	836.8
475	1621	480	1	109.5	836.8
475	1621	488	1	109.5	836.8
475	1621	515	1	109.5	836.8
475	1784	793	1	109.5	836.8
475	1784	805	1	109.5	836.8
475	1784	811	1	109.5	836.8
476	1614	478	1	109.5	836.8
476	1614	485	1	109.5	836.8
476	1622	481	1	109.5	836.8
476	1622	486	1	109.5	836.8
477	1615	480	1	109.5	836.8
477	1615	486	1	109.5	836.8
477	1624	483	1	109.5	836.8
477	1624	484	1	109.5	836.8
478	1614	485	1	109.5	836.8
478	1619	512	1	109.5	836.8
478	1619	513	1	109.5	836.8
479	1445	1348	1	109.5	836.8
479	1620	487	1	109.5	836.8
480	1615	486	1	109.5	836.8
480	1621	488	1	109.5	836.8
480	1621	515	1	109.5	836.8
481	1616	487	1	109.5	836.8
481	1622	486	1	109.5	836.8
482	1617	488	1	109.5	836.8
482	1623	499	1	109.5	836.8
482	1623	809	1	109.5	836.8
483	1624	484	1	109.5	836.8
484	1613	803	1	109.5	836.8
484	1613	1355	1	109.5	836.8
488	1621	515	1	109.5	836.8
489	1607	1328	1	109.5	836.8
489	1626	498	1	109.5	836.8
489	1626	501	1	109.5	836.8
489	1626	508	1	109.5	836.8
490	1625	499	1	109.5	836.8
490	1625	507	1	109.5	836.8
490	1625	827	1	109.5	836.8
490	1776	773	1	109.5	836.8
490	1776	779	1	109.5	836.8
490	1776	787	1	109.5	836.8
491	1627	500	1	109.5	836.8
491	1627	503	1	109.5	836.8
491	1627	509	1	109.5	836.8
492	1628	504	1	109.5	836.8
492	1628	510	1	109.5	836.8
492	1658	544	1	109.5	836.8
492	1658	550	1	109.5	836.8
492	1658	555	1	109.5	836.8
493	1629	495	1	109.5	836.8
493	1629	505	1	109.5	836.8
493	1629	511	1	109.5	836.8
493	1659	551	1	109.5	836.8
493	1659	880	1	109.5	836.8
494	1630	496	1	109.5	836.8
494	1630	506	1	109.5	836.8
494	1630	512	1	109.5	836.8
494	1660	546	1	109.5	836.8
494	1660	552	1	109.5	836.8
494	1660	553	1	109.5	836.8
495	1629	505	1	109.5	836.8
495	1629	511	1	109.5	836.8
495	1631	501	1	109.5	836.8
495	1631	535	1	109.5	836.8
496	1630	506	1	109.5	836.8
496	1630	512	1	109.5	836.8
496	1632	502	1	109.5	836.8
496	1632	510	1	109.5	836.8
497	1633	503	1	109.5	836.8
497	1633	511	1	109.5	836.8
497	1633	537	1	109.5	836.8
497	1796	817	1	109.5	836.8
497	1796	829	1	109.5	836.8
497	1796	835	1	109.5	836.8
498	1626	501	1	109.5	836.8
498	1626	508	1	109.5	836.8
498	1634	504	1	109.5	836.8
498	1634	509	1	109.5	836.8
499	1623	809	1	109.5	836.8
499	1625	507	1	109.5	836.8
499	1625	827	1	109.5	836.8
500	1627	503	1	109.5	836.8
500	1627	509	1	109.5	836.8
500	1636	506	1	109.5	836.8
500	1636	507	1	109.5	836.8
501	1626	508	1	109.5	836.8
501	1631	535	1	109.5	836.8
502	1632	510	1	109.5	836.8
503	1627	509	1	109.5	836.8
503	1633	511	1	109.5	836.8
503	1633	537	1	109.5	836.8
504	1628	510	1	109.5	836.8
504	1634	509	1	109.5	836.8
505	1629	511	1	109.5	836.8
505	1635	833	1	109.5	836.8
505	1635	1329	1	109.5	836.8
506	1630	512	1	109.5	836.8
506	1636	507	1	109.5	836.8
507	1625	827	1	109.5	836.8
511	1633	537	1	109.5	836.8
512	1619	513	1	109.5	836.8
513	1638	522	1	109.5	836.8
513	1638	524	1	109.5	836.8
513	1638	531	1	109.5	836.8
514	1637	530	1	109.5	836.8
514	1637	813	1	109.5	836.8
514	1637	851	1	109.5	836.8
514	1788	797	1	109.5	836.8
514	1788	803	1	109.5	836.8
514	1788	811	1	109.5	836.8
515	1639	523	1	109.5	836.8
515	1639	526	1	109.5	836.8
515	1639	532	1	109.5	836.8
516	1640	527	1	109.5	836.8
516	1640	533	1	109.5	836.8
516	1670	568	1	109.5	836.8
516	1670	574	1	109.5	836.8
516	1670	579	1	109.5	836.8
517	1641	519	1	109.5	836.8
517	1641	528	1	109.5	836.8
517	1641	534	1	109.5	836.8
517	1671	575	1	109.5	836.8
517	1671	592	1	109.5	836.8
517	1671	903	1	109.5	836.8
518	1642	520	1	109.5	836.8
518	1642	529	1	109.5	836.8
518	1642	1356	1	109.5	836.8
518	1672	570	1	109.5	836.8
518	1672	576	1	109.5	836.8
518	1672	577	1	109.5	836.8
519	1641	528	1	109.5	836.8
519	1641	534	1	109.5	836.8
519	1643	524	1	109.5	836.8
519	1643	558	1	109.5	836.8
519	1643	559	1	109.5	836.8
520	1642	529	1	109.5	836.8
520	1642	1356	1	109.5	836.8
520	1644	525	1	109.5	836.8
520	1644	533	1	109.5	836.8
521	1645	526	1	109.5	836.8
521	1645	534	1	109.5	836.8
521	1645	561	1	109.5	836.8
521	1808	841	1	109.5	836.8
521	1808	853	1	109.5	836.8
521	1808	859	1	109.5	836.8
522	1638	524	1	109.5	836.8
522	1638	531	1	109.5	836.8
522	1646	527	1	109.5	836.8
522	1646	532	1	109.5	836.8
523	1639	526	1	109.5	836.8
523	1639	532	1	109.5	836.8
523	1648	529	1	109.5	836.8
523	1648	530	1	109.5	836.8
524	1638	531	1	109.5	836.8
524	1643	558	1	109.5	836.8
524	1643	559	1	109.5	836.8
525	1644	533	1	109.5	836.8
526	1639	532	1	109.5	836.8
526	1645	534	1	109.5	836.8
526	1645	561	1	109.5	836.8
527	1640	533	1	109.5	836.8
527	1646	532	1	109.5	836.8
528	1641	534	1	109.5	836.8
528	1647	545	1	109.5	836.8
528	1647	857	1	109.5	836.8
529	1642	1356	1	109.5	836.8
529	1648	530	1	109.5	836.8
530	1637	813	1	109.5	836.8
530	1637	851	1	109.5	836.8
534	1645	561	1	109.5	836.8
535	1650	544	1	109.5	836.8
535	1650	547	1	109.5	836.8
535	1650	554	1	109.5	836.8
536	1649	545	1	109.5	836.8
536	1649	553	1	109.5	836.8
536	1649	874	1	109.5	836.8
536	1800	821	1	109.5	836.8
536	1800	827	1	109.5	836.8
536	1800	835	1	109.5	836.8
537	1651	546	1	109.5	836.8
537	1651	549	1	109.5	836.8
537	1651	555	1	109.5	836.8
538	1652	550	1	109.5	836.8
538	1652	556	1	109.5	836.8
538	1682	591	1	109.5	836.8
538	1682	597	1	109.5	836.8
538	1682	602	1	109.5	836.8
539	1653	541	1	109.5	836.8
539	1653	551	1	109.5	836.8
539	1653	557	1	109.5	836.8
539	1683	598	1	109.5	836.8
539	1683	926	1	109.5	836.8
540	1654	542	1	109.5	836.8
540	1654	552	1	109.5	836.8
540	1654	558	1	109.5	836.8
540	1684	593	1	109.5	836.8
540	1684	599	1	109.5	836.8
540	1684	600	1	109.5	836.8
541	1653	551	1	109.5	836.8
541	1653	557	1	109.5	836.8
541	1655	547	1	109.5	836.8
541	1655	582	1	109.5	836.8
541	1655	1330	1	109.5	836.8
542	1654	552	1	109.5	836.8
542	1654	558	1	109.5	836.8
542	1656	548	1	109.5	836.8
542	1656	556	1	109.5	836.8
543	1657	549	1	109.5	836.8
543	1657	557	1	109.5	836.8
543	1657	584	1	109.5	836.8
543	1820	864	1	109.5	836.8
543	1820	876	1	109.5	836.8
543	1820	882	1	109.5	836.8
544	1650	547	1	109.5	836.8
544	1650	554	1	109.5	836.8
544	1658	550	1	109.5	836.8
544	1658	555	1	109.5	836.8
545	1647	857	1	109.5	836.8
545	1649	553	1	109.5	836.8
545	1649	874	1	109.5	836.8
546	1651	549	1	109.5	836.8
546	1651	555	1	109.5	836.8
546	1660	552	1	109.5	836.8
546	1660	553	1	109.5	836.8
547	1650	554	1	109.5	836.8
547	1655	582	1	109.5	836.8
547	1655	1330	1	109.5	836.8
548	1656	556	1	109.5	836.8
549	1651	555	1	109.5	836.8
549	1657	557	1	109.5	836.8
549	1657	584	1	109.5	836.8
550	1652	556	1	109.5	836.8
550	1658	555	1	109.5	836.8
551	1653	557	1	109.5	836.8
551	1659	880	1	109.5	836.8
552	1654	558	1	109.5	836.8
552	1660	553	1	109.5	836.8
553	1649	874	1	109.5	836.8
554	1491	1322	1	109.5	836.8
557	1657	584	1	109.5	836.8
558	1643	559	1	109.5	836.8
559	1662	568	1	109.5	836.8
559	1662	571	1	109.5	836.8
559	1662	578	1	109.5	836.8
560	1661	569	1	109.5	836.8
560	1661	577	1	109.5	836.8
560	1661	897	1	109.5	836.8
560	1812	845	1	109.5	836.8
560	1812	851	1	109.5	836.8
560	1812	859	1	109.5	836.8
561	1663	570	1	109.5	836.8
561	1663	573	1	109.5	836.8
561	1663	579	1	109.5	836.8
562	1664	574	1	109.5	836.8
562	1664	580	1	109.5	836.8
562	1694	615	1	109.5	836.8
562	1694	620	1	109.5	836.8
562	1694	625	1	109.5	836.8
563	1665	565	1	109.5	836.8
563	1665	575	1	109.5	836.8
563	1665	581	1	109.5	836.8
563	1695	621	1	109.5	836.8
563	1695	638	1	109.5	836.8
563	1695	949	1	109.5	836.8
564	1666	566	1	109.5	836.8
564	1666	576	1	109.5	836.8
564	1666	1357	1	109.5	836.8
564	1696	616	1	109.5	836.8
564	1696	622	1	109.5	836.8
564	1696	623	1	109.5	836.8
565	1665	575	1	109.5	836.8
565	1665	581	1	109.5	836.8
565	1667	571	1	109.5	836.8
565	1667	605	1	109.5	836.8
565	1667	606	1	109.5	836.8
566	1666	576	1	109.5	836.8
566	1666	1357	1	109.5	836.8
566	1668	572	1	109.5	836.8
566	1668	580	1	109.5	836.8
567	1669	573	1	109.5	836.8
567	1669	581	1	109.5	836.8
567	1669	608	1	109.5	836.8
567	1832	888	1	109.5	836.8
567	1832	899	1	109.5	836.8
567	1832	905	1	109.5	836.8
568	1662	571	1	109.5	836.8
568	1662	578	1	109.5	836.8
568	1670	574	1	109.5	836.8
568	1670	579	1	109.5	836.8
569	1661	577	1	109.5	836.8
569	1661	897	1	109.5	836.8
569	1834	890	1	109.5	836.8
569	1834	892	1	109.5	836.8
569	1834	901	1	109.5	836.8
570	1663	573	1	109.5	836.8
570	1663	579	1	109.5	836.8
570	1672	576	1	109.5	836.8
570	1672	577	1	109.5	836.8
571	1662	578	1	109.5	836.8
571	1667	605	1	109.5	836.8
571	1667	606	1	109.5	836.8
572	1668	580	1	109.5	836.8
573	1663	579	1	109.5	836.8
573	1669	581	1	109.5	836.8
573	1669	608	1	109.5	836.8
574	1664	580	1	109.5	836.8
574	1670	579	1	109.5	836.8
575	1665	581	1	109.5	836.8
575	1671	592	1	109.5	836.8
575	1671	903	1	109.5	836.8
576	1666	1357	1	109.5	836.8
576	1672	577	1	109.5	836.8
577	1661	897	1	109.5	836.8
581	1669	608	1	109.5	836.8
582	1655	1330	1	109.5	836.8
582	1674	591	1	109.5	836.8
582	1674	594	1	109.5	836.8
582	1674	601	1	109.5	836.8
583	1673	592	1	109.5	836.8
583	1673	600	1	109.5	836.8
583	1673	920	1	109.5	836.8
583	1824	868	1	109.5	836.8
583	1824	874	1	109.5	836.8
583	1824	882	1	109.5	836.8
584	1675	593	1	109.5	836.8
584	1675	596	1	109.5	836.8
584	1675	602	1	109.5	836.8
585	1676	597	1	109.5	836.8
585	1676	603	1	109.5	836.8
585	1706	637	1	109.5	836.8
585	1706	643	1	109.5	836.8
585	1706	648	1	109.5	836.8
586	1677	588	1	109.5	836.8
586	1677	598	1	109.5	836.8
586	1677	604	1	109.5	836.8
586	1707	644	1	109.5	836.8
586	1707	972	1	109.5	836.8
586	1707	1332	1	109.5	836.8
587	1678	589	1	109.5	836.8
587	1678	599	1	109.5	836.8
587	1678	605	1	109.5	836.8
587	1708	639	1	109.5	836.8
587	1708	645	1	109.5	836.8
587	1708	646	1	109.5	836.8
588	1677	598	1	109.5	836.8
588	1677	604	1	109.5	836.8
588	1679	594	1	109.5	836.8
588	1679	628	1	109.5	836.8
588	1679	1331	1	109.5	836.8
589	1678	599	1	109.5	836.8
589	1678	605	1	109.5	836.8
589	1680	595	1	109.5	836.8
589	1680	603	1	109.5	836.8
590	1681	596	1	109.5	836.8
590	1681	604	1	109.5	836.8
590	1681	630	1	109.5	836.8
590	1844	910	1	109.5	836.8
590	1844	922	1	109.5	836.8
590	1844	928	1	109.5	836.8
591	1674	594	1	109.5	836.8
591	1674	601	1	109.5	836.8
591	1682	597	1	109.5	836.8
591	1682	602	1	109.5	836.8
592	1671	903	1	109.5	836.8
592	1673	600	1	109.5	836.8
592	1673	920	1	109.5	836.8
593	1675	596	1	109.5	836.8
593	1675	602	1	109.5	836.8
593	1684	599	1	109.5	836.8
593	1684	600	1	109.5	836.8
594	1674	601	1	109.5	836.8
594	1679	628	1	109.5	836.8
594	1679	1331	1	109.5	836.8
595	1680	603	1	109.5	836.8
596	1675	602	1	109.5	836.8
596	1681	604	1	109.5	836.8
596	1681	630	1	109.5	836.8
597	1676	603	1	109.5	836.8
597	1682	602	1	109.5	836.8
598	1677	604	1	109.5	836.8
598	1683	926	1	109.5	836.8
599	1678	605	1	109.5	836.8
599	1684	600	1	109.5	836.8
600	1673	920	1	109.5	836.8
601	1515	1323	1	109.5	836.8
604	1681	630	1	109.5	836.8
605	1667	606	1	109.5	836.8
606	1686	615	1	109.5	836.8
606	1686	617	1	109.5	836.8
606	1686	624	1	109.5	836.8
607	1685	623	1	109.5	836.8
607	1685	943	1	109.5	836.8
607	1685	1358	1	109.5	836.8
607	1836	892	1	109.5	836.8
607	1836	897	1	109.5	836.8
607	1836	905	1	109.5	836.8
608	1687	616	1	109.5	836.8
608	1687	619	1	109.5	836.8
608	1687	625	1	109.5	836.8
609	1688	620	1	109.5	836.8
609	1688	626	1	109.5	836.8
610	1551	670	1	109.5	836.8
610	1689	612	1	109.5	836.8
610	1689	621	1	109.5	836.8
610	1689	627	1	109.5	836.8
611	1690	613	1	109.5	836.8
611	1690	622	1	109.5	836.8
611	1690	1359	1	109.5	836.8
612	1689	621	1	109.5	836.8
612	1689	627	1	109.5	836.8
612	1691	617	1	109.5	836.8
612	1691	651	1	109.5	836.8
613	1690	622	1	109.5	836.8
613	1690	1359	1	109.5	836.8
613	1692	618	1	109.5	836.8
613	1692	626	1	109.5	836.8
614	1693	619	1	109.5	836.8
614	1693	627	1	109.5	836.8
614	1856	934	1	109.5	836.8
614	1856	945	1	109.5	836.8
614	1856	951	1	109.5	836.8
615	1686	617	1	109.5	836.8
615	1686	624	1	109.5	836.8
615	1694	620	1	109.5	836.8
615	1694	625	1	109.5	836.8
616	1687	619	1	109.5	836.8
616	1687	625	1	109.5	836.8
616	1696	622	1	109.5	836.8
616	1696	623	1	109.5	836.8
617	1686	624	1	109.5	836.8
617	1691	651	1	109.5	836.8
618	1517	1350	1	109.5	836.8
618	1692	626	1	109.5	836.8
619	1687	625	1	109.5	836.8
619	1693	627	1	109.5	836.8
620	1688	626	1	109.5	836.8
620	1694	625	1	109.5	836.8
621	1689	627	1	109.5	836.8
621	1695	638	1	109.5	836.8
621	1695	949	1	109.5	836.8
622	1690	1359	1	109.5	836.8
622	1696	623	1	109.5	836.8
623	1685	943	1	109.5	836.8
623	1685	1358	1	109.5	836.8
628	1679	1331	1	109.5	836.8
628	1698	637	1	109.5	836.8
628	1698	640	1	109.5	836.8
628	1698	647	1	109.5	836.8
629	1697	638	1	109.5	836.8
629	1697	646	1	109.5	836.8
629	1697	966	1	109.5	836.8
629	1848	914	1	109.5	836.8
629	1848	920	1	109.5	836.8
629	1848	928	1	109.5	836.8
630	1699	639	1	109.5	836.8
630	1699	642	1	109.5	836.8
630	1699	648	1	109.5	836.8
631	1700	643	1	109.5	836.8
631	1700	649	1	109.5	836.8
632	1563	693	1	109.5	836.8
632	1563	1325	1	109.5	836.8
632	1701	634	1	109.5	836.8
632	1701	644	1	109.5	836.8
632	1701	650	1	109.5	836.8
633	1702	635	1	109.5	836.8
633	1702	645	1	109.5	836.8
633	1702	651	1	109.5	836.8
634	1701	644	1	109.5	836.8
634	1701	650	1	109.5	836.8
634	1703	640	1	109.5	836.8
635	1702	645	1	109.5	836.8
635	1702	651	1	109.5	836.8
635	1704	641	1	109.5	836.8
635	1704	649	1	109.5	836.8
636	1705	642	1	109.5	836.8
636	1705	650	1	109.5	836.8
636	1868	956	1	109.5	836.8
636	1868	968	1	109.5	836.8
636	1868	974	1	109.5	836.8
637	1698	640	1	109.5	836.8
637	1698	647	1	109.5	836.8
637	1706	643	1	109.5	836.8
637	1706	648	1	109.5	836.8
638	1695	949	1	109.5	836.8
638	1697	646	1	109.5	836.8
638	1697	966	1	109.5	836.8
639	1699	642	1	109.5	836.8
639	1699	648	1	109.5	836.8
639	1708	645	1	109.5	836.8
639	1708	646	1	109.5	836.8
640	1698	647	1	109.5	836.8
641	1704	649	1	109.5	836.8
642	1699	648	1	109.5	836.8
642	1705	650	1	109.5	836.8
643	1700	649	1	109.5	836.8
643	1706	648	1	109.5	836.8
644	1701	650	1	109.5	836.8
644	1707	972	1	109.5	836.8
644	1707	1332	1	109.5	836.8
645	1702	651	1	109.5	836.8
645	1708	646	1	109.5	836.8
646	1697	966	1	109.5	836.8
652	1710	661	1	109.5	836.8
652	1710	663	1	109.5	836.8
652	1710	670	1	109.5	836.8
652	1859	937	1	109.5	836.8
652	1859	942	1	109.5	836.8
652	1859	976	1	109.5	836.8
653	1709	669	1	109.5	836.8
653	1709	988	1	109.5	836.8
653	1709	1360	1	109.5	836.8
653	2028	1242	1	109.5	836.8
653	2028	1247	1	109.5	836.8
653	2028	1255	1	109.5	836.8
654	1711	662	1	109.5	836.8
654	1711	665	1	109.5	836.8
654	1711	671	1	109.5	836.8
654	1861	939	1	109.5	836.8
654	1861	944	1	109.5	836.8
654	1861	952	1	109.5	836.8
655	1712	666	1	109.5	836.8
655	1712	672	1	109.5	836.8
655	1742	707	1	109.5	836.8
655	1742	712	1	109.5	836.8
655	1742	717	1	109.5	836.8
656	1713	658	1	109.5	836.8
656	1713	667	1	109.5	836.8
656	1713	673	1	109.5	836.8
656	1743	713	1	109.5	836.8
656	1743	730	1	109.5	836.8
656	1743	1037	1	109.5	836.8
657	1714	659	1	109.5	836.8
657	1714	668	1	109.5	836.8
657	1744	708	1	109.5	836.8
657	1744	714	1	109.5	836.8
657	1744	715	1	109.5	836.8
658	1713	667	1	109.5	836.8
658	1713	673	1	109.5	836.8
658	1715	663	1	109.5	836.8
658	1715	697	1	109.5	836.8
658	1715	698	1	109.5	836.8
659	1714	668	1	109.5	836.8
659	1716	664	1	109.5	836.8
659	1716	672	1	109.5	836.8
660	1717	665	1	109.5	836.8
660	1717	673	1	109.5	836.8
660	1717	700	1	109.5	836.8
660	1880	979	1	109.5	836.8
660	1880	990	1	109.5	836.8
660	1880	996	1	109.5	836.8
661	1710	663	1	109.5	836.8
661	1710	670	1	109.5	836.8
661	1718	666	1	109.5	836.8
661	1718	671	1	109.5	836.8
661	1718	934	1	109.5	836.8
662	1711	665	1	109.5	836.8
662	1711	671	1	109.5	836.8
662	1720	668	1	109.5	836.8
662	1720	669	1	109.5	836.8
662	1720	936	1	109.5	836.8
663	1710	670	1	109.5	836.8
663	1715	697	1	109.5	836.8
663	1715	698	1	109.5	836.8
664	1716	672	1	109.5	836.8
665	1711	671	1	109.5	836.8
665	1717	673	1	109.5	836.8
665	1717	700	1	109.5	836.8
666	1712	672	1	109.5	836.8
666	1718	671	1	109.5	836.8
666	1718	934	1	109.5	836.8
667	1713	673	1	109.5	836.8
667	1719	684	1	109.5	836.8
667	1719	935	1	109.5	836.8
667	1719	994	1	109.5	836.8
668	1720	669	1	109.5	836.8
668	1720	936	1	109.5	836.8
669	1709	988	1	109.5	836.8
669	1709	1360	1	109.5	836.8
669	1720	936	1	109.5	836.8
671	1718	934	1	109.5	836.8
673	1717	700	1	109.5	836.8
674	1722	683	1	109.5	836.8
674	1722	686	1	109.5	836.8
674	1722	693	1	109.5	836.8
674	1871	959	1	109.5	836.8
674	1871	965	1	109.5	836.8
674	1871	1338	1	109.5	836.8
675	1721	684	1	109.5	836.8
675	1721	692	1	109.5	836.8
675	1721	1009	1	109.5	836.8
675	2040	1263	1	109.5	836.8
675	2040	1268	1	109.5	836.8
675	2040	1276	1	109.5	836.8
676	1723	685	1	109.5	836.8
676	1723	688	1	109.5	836.8
676	1723	694	1	109.5	836.8
676	1873	961	1	109.5	836.8
676	1873	967	1	109.5	836.8
676	1873	975	1	109.5	836.8
677	1724	689	1	109.5	836.8
677	1724	695	1	109.5	836.8
677	1754	729	1	109.5	836.8
677	1754	735	1	109.5	836.8
677	1754	740	1	109.5	836.8
678	1725	680	1	109.5	836.8
678	1725	690	1	109.5	836.8
678	1725	696	1	109.5	836.8
678	1755	736	1	109.5	836.8
678	1755	1059	1	109.5	836.8
678	1755	1333	1	109.5	836.8
679	1726	681	1	109.5	836.8
679	1726	691	1	109.5	836.8
679	1726	697	1	109.5	836.8
679	1756	731	1	109.5	836.8
679	1756	737	1	109.5	836.8
679	1756	738	1	109.5	836.8
680	1725	690	1	109.5	836.8
680	1725	696	1	109.5	836.8
680	1727	686	1	109.5	836.8
680	1727	720	1	109.5	836.8
681	1726	691	1	109.5	836.8
681	1726	697	1	109.5	836.8
681	1728	687	1	109.5	836.8
681	1728	695	1	109.5	836.8
682	1729	688	1	109.5	836.8
682	1729	696	1	109.5	836.8
682	1729	722	1	109.5	836.8
682	1892	1000	1	109.5	836.8
682	1892	1011	1	109.5	836.8
682	1892	1017	1	109.5	836.8
683	1722	686	1	109.5	836.8
683	1722	693	1	109.5	836.8
683	1730	689	1	109.5	836.8
683	1730	694	1	109.5	836.8
683	1730	956	1	109.5	836.8
684	1719	935	1	109.5	836.8
684	1719	994	1	109.5	836.8
684	1721	692	1	109.5	836.8
684	1721	1009	1	109.5	836.8
685	1723	688	1	109.5	836.8
685	1723	694	1	109.5	836.8
685	1732	691	1	109.5	836.8
685	1732	692	1	109.5	836.8
685	1732	958	1	109.5	836.8
686	1722	693	1	109.5	836.8
686	1727	720	1	109.5	836.8
687	1728	695	1	109.5	836.8
688	1723	694	1	109.5	836.8
688	1729	696	1	109.5	836.8
688	1729	722	1	109.5	836.8
689	1724	695	1	109.5	836.8
689	1730	694	1	109.5	836.8
689	1730	956	1	109.5	836.8
690	1725	696	1	109.5	836.8
690	1731	957	1	109.5	836.8
690	1731	1015	1	109.5	836.8
691	1726	697	1	109.5	836.8
691	1732	692	1	109.5	836.8
691	1732	958	1	109.5	836.8
692	1721	1009	1	109.5	836.8
692	1732	958	1	109.5	836.8
693	1563	1325	1	109.5	836.8
694	1730	956	1	109.5	836.8
696	1729	722	1	109.5	836.8
697	1715	698	1	109.5	836.8
698	1734	707	1	109.5	836.8
698	1734	709	1	109.5	836.8
698	1734	716	1	109.5	836.8
699	1733	715	1	109.5	836.8
699	1733	1031	1	109.5	836.8
699	1733	1361	1	109.5	836.8
699	1884	983	1	109.5	836.8
699	1884	988	1	109.5	836.8
699	1884	996	1	109.5	836.8
700	1735	708	1	109.5	836.8
700	1735	711	1	109.5	836.8
700	1735	717	1	109.5	836.8
701	1736	712	1	109.5	836.8
701	1736	718	1	109.5	836.8
701	1766	753	1	109.5	836.8
701	1766	758	1	109.5	836.8
701	1766	763	1	109.5	836.8
702	1737	704	1	109.5	836.8
702	1737	713	1	109.5	836.8
702	1737	719	1	109.5	836.8
702	1767	759	1	109.5	836.8
702	1767	776	1	109.5	836.8
702	1767	1081	1	109.5	836.8
703	1738	705	1	109.5	836.8
703	1738	714	1	109.5	836.8
703	1768	754	1	109.5	836.8
703	1768	760	1	109.5	836.8
703	1768	761	1	109.5	836.8
704	1737	713	1	109.5	836.8
704	1737	719	1	109.5	836.8
704	1739	709	1	109.5	836.8
704	1739	743	1	109.5	836.8
704	1739	744	1	109.5	836.8
705	1738	714	1	109.5	836.8
705	1740	710	1	109.5	836.8
705	1740	718	1	109.5	836.8
706	1741	711	1	109.5	836.8
706	1741	719	1	109.5	836.8
706	1741	746	1	109.5	836.8
706	1904	1022	1	109.5	836.8
706	1904	1033	1	109.5	836.8
706	1904	1039	1	109.5	836.8
707	1734	709	1	109.5	836.8
707	1734	716	1	109.5	836.8
707	1742	712	1	109.5	836.8
707	1742	717	1	109.5	836.8
708	1735	711	1	109.5	836.8
708	1735	717	1	109.5	836.8
708	1744	714	1	109.5	836.8
708	1744	715	1	109.5	836.8
709	1734	716	1	109.5	836.8
709	1739	743	1	109.5	836.8
709	1739	744	1	109.5	836.8
710	1565	1352	1	109.5	836.8
710	1740	718	1	109.5	836.8
711	1735	717	1	109.5	836.8
711	1741	719	1	109.5	836.8
711	1741	746	1	109.5	836.8
712	1736	718	1	109.5	836.8
712	1742	717	1	109.5	836.8
713	1737	719	1	109.5	836.8
713	1743	730	1	109.5	836.8
713	1743	1037	1	109.5	836.8
714	1744	715	1	109.5	836.8
715	1733	1031	1	109.5	836.8
715	1733	1361	1	109.5	836.8
719	1741	746	1	109.5	836.8
720	1746	729	1	109.5	836.8
720	1746	732	1	109.5	836.8
720	1746	739	1	109.5	836.8
721	1745	730	1	109.5	836.8
721	1745	738	1	109.5	836.8
721	1745	1053	1	109.5	836.8
721	1896	1004	1	109.5	836.8
721	1896	1009	1	109.5	836.8
721	1896	1017	1	109.5	836.8
722	1747	731	1	109.5	836.8
722	1747	734	1	109.5	836.8
722	1747	740	1	109.5	836.8
723	1748	735	1	109.5	836.8
723	1748	741	1	109.5	836.8
723	1778	775	1	109.5	836.8
723	1778	781	1	109.5	836.8
723	1778	786	1	109.5	836.8
724	1749	726	1	109.5	836.8
724	1749	736	1	109.5	836.8
724	1749	742	1	109.5	836.8
724	1779	782	1	109.5	836.8
724	1779	1102	1	109.5	836.8
725	1750	727	1	109.5	836.8
725	1750	737	1	109.5	836.8
725	1750	743	1	109.5	836.8
725	1780	777	1	109.5	836.8
725	1780	783	1	109.5	836.8
725	1780	784	1	109.5	836.8
726	1749	736	1	109.5	836.8
726	1749	742	1	109.5	836.8
726	1751	732	1	109.5	836.8
726	1751	766	1	109.5	836.8
727	1750	737	1	109.5	836.8
727	1750	743	1	109.5	836.8
727	1752	733	1	109.5	836.8
727	1752	741	1	109.5	836.8
728	1753	734	1	109.5	836.8
728	1753	742	1	109.5	836.8
728	1753	768	1	109.5	836.8
728	1916	1044	1	109.5	836.8
728	1916	1055	1	109.5	836.8
728	1916	1061	1	109.5	836.8
729	1746	732	1	109.5	836.8
729	1746	739	1	109.5	836.8
729	1754	735	1	109.5	836.8
729	1754	740	1	109.5	836.8
730	1743	1037	1	109.5	836.8
730	1745	738	1	109.5	836.8
730	1745	1053	1	109.5	836.8
731	1747	734	1	109.5	836.8
731	1747	740	1	109.5	836.8
731	1756	737	1	109.5	836.8
731	1756	738	1	109.5	836.8
732	1746	739	1	109.5	836.8
732	1751	766	1	109.5	836.8
733	1752	741	1	109.5	836.8
734	1747	740	1	109.5	836.8
734	1753	742	1	109.5	836.8
734	1753	768	1	109.5	836.8
735	1748	741	1	109.5	836.8
735	1754	740	1	109.5	836.8
736	1749	742	1	109.5	836.8
736	1755	1059	1	109.5	836.8
736	1755	1333	1	109.5	836.8
737	1750	743	1	109.5	836.8
737	1756	738	1	109.5	836.8
738	1745	1053	1	109.5	836.8
742	1753	768	1	109.5	836.8
743	1739	744	1	109.5	836.8
744	1758	753	1	109.5	836.8
744	1758	755	1	109.5	836.8
744	1758	762	1	109.5	836.8
745	1757	761	1	109.5	836.8
745	1757	1075	1	109.5	836.8
745	1757	1362	1	109.5	836.8
745	1908	1026	1	109.5	836.8
745	1908	1031	1	109.5	836.8
745	1908	1039	1	109.5	836.8
746	1759	754	1	109.5	836.8
746	1759	757	1	109.5	836.8
746	1759	763	1	109.5	836.8
747	1760	758	1	109.5	836.8
747	1760	764	1	109.5	836.8
747	1790	799	1	109.5	836.8
747	1790	805	1	109.5	836.8
747	1790	810	1	109.5	836.8
748	1761	750	1	109.5	836.8
748	1761	759	1	109.5	836.8
748	1761	765	1	109.5	836.8
748	1791	806	1	109.5	836.8
748	1791	824	1	109.5	836.8
748	1791	1124	1	109.5	836.8
749	1762	751	1	109.5	836.8
749	1762	760	1	109.5	836.8
749	1762	1363	1	109.5	836.8
749	1792	801	1	109.5	836.8
749	1792	807	1	109.5	836.8
749	1792	808	1	109.5	836.8
750	1761	759	1	109.5	836.8
750	1761	765	1	109.5	836.8
750	1763	755	1	109.5	836.8
750	1763	789	1	109.5	836.8
750	1763	790	1	109.5	836.8
751	1762	760	1	109.5	836.8
751	1762	1363	1	109.5	836.8
751	1764	756	1	109.5	836.8
751	1764	764	1	109.5	836.8
752	1765	757	1	109.5	836.8
752	1765	765	1	109.5	836.8
752	1765	792	1	109.5	836.8
752	1928	1066	1	109.5	836.8
752	1928	1077	1	109.5	836.8
752	1928	1083	1	109.5	836.8
753	1758	755	1	109.5	836.8
753	1758	762	1	109.5	836.8
753	1766	758	1	109.5	836.8
753	1766	763	1	109.5	836.8
754	1759	757	1	109.5	836.8
754	1759	763	1	109.5	836.8
754	1768	760	1	109.5	836.8
754	1768	761	1	109.5	836.8
755	1758	762	1	109.5	836.8
755	1763	789	1	109.5	836.8
755	1763	790	1	109.5	836.8
756	1764	764	1	109.5	836.8
757	1759	763	1	109.5	836.8
757	1765	765	1	109.5	836.8
757	1765	792	1	109.5	836.8
758	1760	764	1	109.5	836.8
758	1766	763	1	109.5	836.8
759	1761	765	1	109.5	836.8
759	1767	776	1	109.5	836.8
759	1767	1081	1	109.5	836.8
760	1762	1363	1	109.5	836.8
760	1768	761	1	109.5	836.8
761	1757	1075	1	109.5	836.8
761	1757	1362	1	109.5	836.8
765	1765	792	1	109.5	836.8
766	1770	775	1	109.5	836.8
766	1770	778	1	109.5	836.8
766	1770	785	1	109.5	836.8
767	1769	776	1	109.5	836.8
767	1769	784	1	109.5	836.8
767	1769	1096	1	109.5	836.8
767	1920	1048	1	109.5	836.8
767	1920	1053	1	109.5	836.8
767	1920	1061	1	109.5	836.8
768	1771	777	1	109.5	836.8
768	1771	780	1	109.5	836.8
768	1771	786	1	109.5	836.8
769	1772	781	1	109.5	836.8
769	1772	787	1	109.5	836.8
769	1802	823	1	109.5	836.8
769	1802	829	1	109.5	836.8
769	1802	834	1	109.5	836.8
770	1773	772	1	109.5	836.8
770	1773	782	1	109.5	836.8
770	1773	788	1	109.5	836.8
770	1803	830	1	109.5	836.8
770	1803	1145	1	109.5	836.8
770	1803	1335	1	109.5	836.8
771	1774	773	1	109.5	836.8
771	1774	783	1	109.5	836.8
771	1774	789	1	109.5	836.8
771	1804	825	1	109.5	836.8
771	1804	831	1	109.5	836.8
771	1804	832	1	109.5	836.8
772	1773	782	1	109.5	836.8
772	1773	788	1	109.5	836.8
772	1775	778	1	109.5	836.8
772	1775	814	1	109.5	836.8
772	1775	1334	1	109.5	836.8
773	1774	783	1	109.5	836.8
773	1774	789	1	109.5	836.8
773	1776	779	1	109.5	836.8
773	1776	787	1	109.5	836.8
774	1777	780	1	109.5	836.8
774	1777	788	1	109.5	836.8
774	1777	816	1	109.5	836.8
774	1940	1087	1	109.5	836.8
774	1940	1098	1	109.5	836.8
774	1940	1104	1	109.5	836.8
775	1770	778	1	109.5	836.8
775	1770	785	1	109.5	836.8
775	1778	781	1	109.5	836.8
775	1778	786	1	109.5	836.8
776	1767	1081	1	109.5	836.8
776	1769	784	1	109.5	836.8
776	1769	1096	1	109.5	836.8
777	1771	780	1	109.5	836.8
777	1771	786	1	109.5	836.8
777	1780	783	1	109.5	836.8
777	1780	784	1	109.5	836.8
778	1770	785	1	109.5	836.8
778	1775	814	1	109.5	836.8
778	1775	1334	1	109.5	836.8
779	1776	787	1	109.5	836.8
780	1771	786	1	109.5	836.8
780	1777	788	1	109.5	836.8
780	1777	816	1	109.5	836.8
781	1772	787	1	109.5	836.8
781	1778	786	1	109.5	836.8
782	1773	788	1	109.5	836.8
782	1779	1102	1	109.5	836.8
783	1774	789	1	109.5	836.8
783	1780	784	1	109.5	836.8
784	1769	1096	1	109.5	836.8
785	1611	1327	1	109.5	836.8
788	1777	816	1	109.5	836.8
789	1763	790	1	109.5	836.8
790	1782	799	1	109.5	836.8
790	1782	802	1	109.5	836.8
790	1782	809	1	109.5	836.8
791	1781	800	1	109.5	836.8
791	1781	808	1	109.5	836.8
791	1781	1118	1	109.5	836.8
791	1932	1070	1	109.5	836.8
791	1932	1075	1	109.5	836.8
791	1932	1083	1	109.5	836.8
792	1783	801	1	109.5	836.8
792	1783	804	1	109.5	836.8
792	1783	810	1	109.5	836.8
793	1784	805	1	109.5	836.8
793	1784	811	1	109.5	836.8
793	1814	847	1	109.5	836.8
793	1814	853	1	109.5	836.8
793	1814	858	1	109.5	836.8
794	1785	796	1	109.5	836.8
794	1785	806	1	109.5	836.8
794	1785	812	1	109.5	836.8
794	1815	854	1	109.5	836.8
794	1815	871	1	109.5	836.8
794	1815	1167	1	109.5	836.8
795	1786	797	1	109.5	836.8
795	1786	807	1	109.5	836.8
795	1786	813	1	109.5	836.8
795	1816	849	1	109.5	836.8
795	1816	855	1	109.5	836.8
795	1816	856	1	109.5	836.8
796	1785	806	1	109.5	836.8
796	1785	812	1	109.5	836.8
796	1787	802	1	109.5	836.8
796	1787	837	1	109.5	836.8
796	1787	838	1	109.5	836.8
797	1786	807	1	109.5	836.8
797	1786	813	1	109.5	836.8
797	1788	803	1	109.5	836.8
797	1788	811	1	109.5	836.8
798	1789	804	1	109.5	836.8
798	1789	812	1	109.5	836.8
798	1789	840	1	109.5	836.8
798	1952	1109	1	109.5	836.8
798	1952	1120	1	109.5	836.8
798	1952	1126	1	109.5	836.8
799	1782	802	1	109.5	836.8
799	1782	809	1	109.5	836.8
799	1790	805	1	109.5	836.8
799	1790	810	1	109.5	836.8
800	1781	808	1	109.5	836.8
800	1781	1118	1	109.5	836.8
800	1930	1068	1	109.5	836.8
800	1930	1070	1	109.5	836.8
800	1930	1079	1	109.5	836.8
801	1783	804	1	109.5	836.8
801	1783	810	1	109.5	836.8
801	1792	807	1	109.5	836.8
801	1792	808	1	109.5	836.8
802	1782	809	1	109.5	836.8
802	1787	837	1	109.5	836.8
802	1787	838	1	109.5	836.8
803	1613	1355	1	109.5	836.8
803	1788	811	1	109.5	836.8
804	1783	810	1	109.5	836.8
804	1789	812	1	109.5	836.8
804	1789	840	1	109.5	836.8
805	1784	811	1	109.5	836.8
805	1790	810	1	109.5	836.8
806	1785	812	1	109.5	836.8
806	1791	824	1	109.5	836.8
806	1791	1124	1	109.5	836.8
807	1786	813	1	109.5	836.8
807	1792	808	1	109.5	836.8
808	1781	1118	1	109.5	836.8
812	1789	840	1	109.5	836.8
813	1637	851	1	109.5	836.8
814	1775	1334	1	109.5	836.8
814	1794	823	1	109.5	836.8
814	1794	826	1	109.5	836.8
814	1794	833	1	109.5	836.8
815	1793	824	1	109.5	836.8
815	1793	832	1	109.5	836.8
815	1793	1139	1	109.5	836.8
815	1944	1091	1	109.5	836.8
815	1944	1096	1	109.5	836.8
815	1944	1104	1	109.5	836.8
816	1795	825	1	109.5	836.8
816	1795	828	1	109.5	836.8
816	1795	834	1	109.5	836.8
817	1796	829	1	109.5	836.8
817	1796	835	1	109.5	836.8
817	1826	870	1	109.5	836.8
817	1826	876	1	109.5	836.8
817	1826	881	1	109.5	836.8
818	1797	820	1	109.5	836.8
818	1797	830	1	109.5	836.8
818	1797	836	1	109.5	836.8
818	1827	877	1	109.5	836.8
818	1827	1188	1	109.5	836.8
819	1798	821	1	109.5	836.8
819	1798	831	1	109.5	836.8
819	1798	837	1	109.5	836.8
819	1828	872	1	109.5	836.8
819	1828	878	1	109.5	836.8
819	1828	879	1	109.5	836.8
820	1797	830	1	109.5	836.8
820	1797	836	1	109.5	836.8
820	1799	826	1	109.5	836.8
820	1799	861	1	109.5	836.8
821	1798	831	1	109.5	836.8
821	1798	837	1	109.5	836.8
821	1800	827	1	109.5	836.8
821	1800	835	1	109.5	836.8
822	1801	828	1	109.5	836.8
822	1801	836	1	109.5	836.8
822	1801	863	1	109.5	836.8
822	1964	1130	1	109.5	836.8
822	1964	1141	1	109.5	836.8
822	1964	1147	1	109.5	836.8
823	1794	826	1	109.5	836.8
823	1794	833	1	109.5	836.8
823	1802	829	1	109.5	836.8
823	1802	834	1	109.5	836.8
824	1791	1124	1	109.5	836.8
824	1793	832	1	109.5	836.8
824	1793	1139	1	109.5	836.8
825	1795	828	1	109.5	836.8
825	1795	834	1	109.5	836.8
825	1804	831	1	109.5	836.8
825	1804	832	1	109.5	836.8
826	1794	833	1	109.5	836.8
826	1799	861	1	109.5	836.8
827	1800	835	1	109.5	836.8
828	1795	834	1	109.5	836.8
828	1801	836	1	109.5	836.8
828	1801	863	1	109.5	836.8
829	1796	835	1	109.5	836.8
829	1802	834	1	109.5	836.8
830	1797	836	1	109.5	836.8
830	1803	1145	1	109.5	836.8
830	1803	1335	1	109.5	836.8
831	1798	837	1	109.5	836.8
831	1804	832	1	109.5	836.8
832	1793	1139	1	109.5	836.8
833	1635	1329	1	109.5	836.8
836	1801	863	1	109.5	836.8
837	1787	838	1	109.5	836.8
838	1806	847	1	109.5	836.8
838	1806	850	1	109.5	836.8
838	1806	857	1	109.5	836.8
839	1805	848	1	109.5	836.8
839	1805	856	1	109.5	836.8
839	1805	1161	1	109.5	836.8
839	1956	1113	1	109.5	836.8
839	1956	1118	1	109.5	836.8
839	1956	1126	1	109.5	836.8
840	1807	849	1	109.5	836.8
840	1807	852	1	109.5	836.8
840	1807	858	1	109.5	836.8
841	1808	853	1	109.5	836.8
841	1808	859	1	109.5	836.8
841	1838	894	1	109.5	836.8
841	1838	899	1	109.5	836.8
841	1838	904	1	109.5	836.8
842	1809	844	1	109.5	836.8
842	1809	854	1	109.5	836.8
842	1809	860	1	109.5	836.8
842	1839	900	1	109.5	836.8
842	1839	917	1	109.5	836.8
842	1839	1210	1	109.5	836.8
843	1810	845	1	109.5	836.8
843	1810	855	1	109.5	836.8
843	1810	1364	1	109.5	836.8
843	1840	895	1	109.5	836.8
843	1840	901	1	109.5	836.8
843	1840	902	1	109.5	836.8
844	1809	854	1	109.5	836.8
844	1809	860	1	109.5	836.8
844	1811	850	1	109.5	836.8
844	1811	884	1	109.5	836.8
844	1811	885	1	109.5	836.8
845	1810	855	1	109.5	836.8
845	1810	1364	1	109.5	836.8
845	1812	851	1	109.5	836.8
845	1812	859	1	109.5	836.8
846	1813	852	1	109.5	836.8
846	1813	860	1	109.5	836.8
846	1813	887	1	109.5	836.8
846	1976	1152	1	109.5	836.8
846	1976	1163	1	109.5	836.8
846	1976	1169	1	109.5	836.8
847	1806	850	1	109.5	836.8
847	1806	857	1	109.5	836.8
847	1814	853	1	109.5	836.8
847	1814	858	1	109.5	836.8
848	1805	856	1	109.5	836.8
848	1805	1161	1	109.5	836.8
848	1978	1154	1	109.5	836.8
848	1978	1156	1	109.5	836.8
848	1978	1165	1	109.5	836.8
849	1807	852	1	109.5	836.8
849	1807	858	1	109.5	836.8
849	1816	855	1	109.5	836.8
849	1816	856	1	109.5	836.8
850	1806	857	1	109.5	836.8
850	1811	884	1	109.5	836.8
850	1811	885	1	109.5	836.8
851	1812	859	1	109.5	836.8
852	1807	858	1	109.5	836.8
852	1813	860	1	109.5	836.8
852	1813	887	1	109.5	836.8
853	1808	859	1	109.5	836.8
853	1814	858	1	109.5	836.8
854	1809	860	1	109.5	836.8
854	1815	871	1	109.5	836.8
854	1815	1167	1	109.5	836.8
855	1810	1364	1	109.5	836.8
855	1816	856	1	109.5	836.8
856	1805	1161	1	109.5	836.8
860	1813	887	1	109.5	836.8
861	1818	870	1	109.5	836.8
861	1818	873	1	109.5	836.8
861	1818	880	1	109.5	836.8
862	1817	871	1	109.5	836.8
862	1817	879	1	109.5	836.8
862	1817	1182	1	109.5	836.8
862	1968	1134	1	109.5	836.8
862	1968	1139	1	109.5	836.8
862	1968	1147	1	109.5	836.8
863	1819	872	1	109.5	836.8
863	1819	875	1	109.5	836.8
863	1819	881	1	109.5	836.8
864	1820	876	1	109.5	836.8
864	1820	882	1	109.5	836.8
864	1850	916	1	109.5	836.8
864	1850	922	1	109.5	836.8
864	1850	927	1	109.5	836.8
865	1821	867	1	109.5	836.8
865	1821	877	1	109.5	836.8
865	1821	883	1	109.5	836.8
865	1851	923	1	109.5	836.8
865	1851	1231	1	109.5	836.8
865	1851	1337	1	109.5	836.8
866	1822	868	1	109.5	836.8
866	1822	878	1	109.5	836.8
866	1822	884	1	109.5	836.8
866	1852	918	1	109.5	836.8
866	1852	924	1	109.5	836.8
866	1852	925	1	109.5	836.8
867	1821	877	1	109.5	836.8
867	1821	883	1	109.5	836.8
867	1823	873	1	109.5	836.8
867	1823	907	1	109.5	836.8
867	1823	1336	1	109.5	836.8
868	1822	878	1	109.5	836.8
868	1822	884	1	109.5	836.8
868	1824	874	1	109.5	836.8
868	1824	882	1	109.5	836.8
869	1825	875	1	109.5	836.8
869	1825	883	1	109.5	836.8
869	1825	909	1	109.5	836.8
869	1988	1173	1	109.5	836.8
869	1988	1184	1	109.5	836.8
869	1988	1190	1	109.5	836.8
870	1818	873	1	109.5	836.8
870	1818	880	1	109.5	836.8
870	1826	876	1	109.5	836.8
870	1826	881	1	109.5	836.8
871	1815	1167	1	109.5	836.8
871	1817	879	1	109.5	836.8
871	1817	1182	1	109.5	836.8
872	1819	875	1	109.5	836.8
872	1819	881	1	109.5	836.8
872	1828	878	1	109.5	836.8
872	1828	879	1	109.5	836.8
873	1818	880	1	109.5	836.8
873	1823	907	1	109.5	836.8
873	1823	1336	1	109.5	836.8
874	1824	882	1	109.5	836.8
875	1819	881	1	109.5	836.8
875	1825	883	1	109.5	836.8
875	1825	909	1	109.5	836.8
876	1820	882	1	109.5	836.8
876	1826	881	1	109.5	836.8
877	1821	883	1	109.5	836.8
877	1827	1188	1	109.5	836.8
878	1822	884	1	109.5	836.8
878	1828	879	1	109.5	836.8
879	1817	1182	1	109.5	836.8
883	1825	909	1	109.5	836.8
884	1811	885	1	109.5	836.8
885	1830	894	1	109.5	836.8
885	1830	896	1	109.5	836.8
885	1830	903	1	109.5	836.8
886	1829	902	1	109.5	836.8
886	1829	1204	1	109.5	836.8
886	1829	1365	1	109.5	836.8
886	1980	1156	1	109.5	836.8
886	1980	1161	1	109.5	836.8
886	1980	1169	1	109.5	836.8
887	1831	895	1	109.5	836.8
887	1831	898	1	109.5	836.8
887	1831	904	1	109.5	836.8
888	1832	899	1	109.5	836.8
888	1832	905	1	109.5	836.8
888	1862	940	1	109.5	836.8
888	1862	945	1	109.5	836.8
888	1862	950	1	109.5	836.8
889	1833	891	1	109.5	836.8
889	1833	900	1	109.5	836.8
889	1833	906	1	109.5	836.8
889	1863	946	1	109.5	836.8
889	1863	963	1	109.5	836.8
889	1863	1253	1	109.5	836.8
890	1834	892	1	109.5	836.8
890	1834	901	1	109.5	836.8
890	1864	941	1	109.5	836.8
890	1864	947	1	109.5	836.8
890	1864	948	1	109.5	836.8
891	1833	900	1	109.5	836.8
891	1833	906	1	109.5	836.8
891	1835	896	1	109.5	836.8
891	1835	930	1	109.5	836.8
891	1835	931	1	109.5	836.8
892	1834	901	1	109.5	836.8
892	1836	897	1	109.5	836.8
892	1836	905	1	109.5	836.8
893	1837	898	1	109.5	836.8
893	1837	906	1	109.5	836.8
893	1837	933	1	109.5	836.8
893	2000	1195	1	109.5	836.8
893	2000	1206	1	109.5	836.8
893	2000	1212	1	109.5	836.8
894	1830	896	1	109.5	836.8
894	1830	903	1	109.5	836.8
894	1838	899	1	109.5	836.8
894	1838	904	1	109.5	836.8
895	1831	898	1	109.5	836.8
895	1831	904	1	109.5	836.8
895	1840	901	1	109.5	836.8
895	1840	902	1	109.5	836.8
896	1830	903	1	109.5	836.8
896	1835	930	1	109.5	836.8
896	1835	931	1	109.5	836.8
897	1836	905	1	109.5	836.8
898	1831	904	1	109.5	836.8
898	1837	906	1	109.5	836.8
898	1837	933	1	109.5	836.8
899	1832	905	1	109.5	836.8
899	1838	904	1	109.5	836.8
900	1833	906	1	109.5	836.8
900	1839	917	1	109.5	836.8
900	1839	1210	1	109.5	836.8
901	1840	902	1	109.5	836.8
902	1829	1204	1	109.5	836.8
902	1829	1365	1	109.5	836.8
906	1837	933	1	109.5	836.8
907	1823	1336	1	109.5	836.8
907	1842	916	1	109.5	836.8
907	1842	919	1	109.5	836.8
907	1842	926	1	109.5	836.8
908	1841	917	1	109.5	836.8
908	1841	925	1	109.5	836.8
908	1841	1225	1	109.5	836.8
908	1992	1177	1	109.5	836.8
908	1992	1182	1	109.5	836.8
908	1992	1190	1	109.5	836.8
909	1843	918	1	109.5	836.8
909	1843	921	1	109.5	836.8
909	1843	927	1	109.5	836.8
910	1844	922	1	109.5	836.8
910	1844	928	1	109.5	836.8
910	1874	962	1	109.5	836.8
910	1874	968	1	109.5	836.8
910	1874	973	1	109.5	836.8
911	1845	913	1	109.5	836.8
911	1845	923	1	109.5	836.8
911	1845	929	1	109.5	836.8
911	1875	969	1	109.5	836.8
911	1875	1274	1	109.5	836.8
912	1846	914	1	109.5	836.8
912	1846	924	1	109.5	836.8
912	1846	930	1	109.5	836.8
912	1876	964	1	109.5	836.8
912	1876	970	1	109.5	836.8
912	1876	971	1	109.5	836.8
913	1845	923	1	109.5	836.8
913	1845	929	1	109.5	836.8
913	1847	919	1	109.5	836.8
913	1847	953	1	109.5	836.8
914	1846	924	1	109.5	836.8
914	1846	930	1	109.5	836.8
914	1848	920	1	109.5	836.8
914	1848	928	1	109.5	836.8
915	1849	921	1	109.5	836.8
915	1849	929	1	109.5	836.8
915	1849	955	1	109.5	836.8
915	2012	1216	1	109.5	836.8
915	2012	1227	1	109.5	836.8
915	2012	1233	1	109.5	836.8
916	1842	919	1	109.5	836.8
916	1842	926	1	109.5	836.8
916	1850	922	1	109.5	836.8
916	1850	927	1	109.5	836.8
917	1839	1210	1	109.5	836.8
917	1841	925	1	109.5	836.8
917	1841	1225	1	109.5	836.8
918	1843	921	1	109.5	836.8
918	1843	927	1	109.5	836.8
918	1852	924	1	109.5	836.8
918	1852	925	1	109.5	836.8
919	1842	926	1	109.5	836.8
919	1847	953	1	109.5	836.8
920	1848	928	1	109.5	836.8
921	1843	927	1	109.5	836.8
921	1849	929	1	109.5	836.8
921	1849	955	1	109.5	836.8
922	1844	928	1	109.5	836.8
922	1850	927	1	109.5	836.8
923	1845	929	1	109.5	836.8
923	1851	1231	1	109.5	836.8
923	1851	1337	1	109.5	836.8
924	1846	930	1	109.5	836.8
924	1852	925	1	109.5	836.8
925	1841	1225	1	109.5	836.8
929	1849	955	1	109.5	836.8
930	1835	931	1	109.5	836.8
931	1854	940	1	109.5	836.8
931	1854	942	1	109.5	836.8
931	1854	949	1	109.5	836.8
932	1853	948	1	109.5	836.8
932	1853	1247	1	109.5	836.8
932	1853	1366	1	109.5	836.8
932	2004	1199	1	109.5	836.8
932	2004	1204	1	109.5	836.8
932	2004	1212	1	109.5	836.8
933	1855	941	1	109.5	836.8
933	1855	944	1	109.5	836.8
933	1855	950	1	109.5	836.8
934	1856	945	1	109.5	836.8
934	1856	951	1	109.5	836.8
935	1719	994	1	109.5	836.8
935	1857	937	1	109.5	836.8
935	1857	946	1	109.5	836.8
935	1857	952	1	109.5	836.8
936	1858	938	1	109.5	836.8
936	1858	947	1	109.5	836.8
936	1858	1367	1	109.5	836.8
937	1857	946	1	109.5	836.8
937	1857	952	1	109.5	836.8
937	1859	942	1	109.5	836.8
937	1859	976	1	109.5	836.8
938	1858	947	1	109.5	836.8
938	1858	1367	1	109.5	836.8
938	1860	943	1	109.5	836.8
938	1860	951	1	109.5	836.8
939	1861	944	1	109.5	836.8
939	1861	952	1	109.5	836.8
939	2024	1238	1	109.5	836.8
939	2024	1249	1	109.5	836.8
939	2024	1255	1	109.5	836.8
940	1854	942	1	109.5	836.8
940	1854	949	1	109.5	836.8
940	1862	945	1	109.5	836.8
940	1862	950	1	109.5	836.8
941	1855	944	1	109.5	836.8
941	1855	950	1	109.5	836.8
941	1864	947	1	109.5	836.8
941	1864	948	1	109.5	836.8
942	1854	949	1	109.5	836.8
942	1859	976	1	109.5	836.8
943	1685	1358	1	109.5	836.8
943	1860	951	1	109.5	836.8
944	1855	950	1	109.5	836.8
944	1861	952	1	109.5	836.8
945	1856	951	1	109.5	836.8
945	1862	950	1	109.5	836.8
946	1857	952	1	109.5	836.8
946	1863	963	1	109.5	836.8
946	1863	1253	1	109.5	836.8
947	1858	1367	1	109.5	836.8
947	1864	948	1	109.5	836.8
948	1853	1247	1	109.5	836.8
948	1853	1366	1	109.5	836.8
953	1866	962	1	109.5	836.8
953	1866	965	1	109.5	836.8
953	1866	972	1	109.5	836.8
954	1865	963	1	109.5	836.8
954	1865	971	1	109.5	836.8
954	1865	1268	1	109.5	836.8
954	2016	1220	1	109.5	836.8
954	2016	1225	1	109.5	836.8
954	2016	1233	1	109.5	836.8
955	1867	964	1	109.5	836.8
955	1867	967	1	109.5	836.8
955	1867	973	1	109.5	836.8
956	1868	968	1	109.5	836.8
956	1868	974	1	109.5	836.8
957	1731	1015	1	109.5	836.8
957	1869	959	1	109.5	836.8
957	1869	969	1	109.5	836.8
957	1869	975	1	109.5	836.8
958	1870	960	1	109.5	836.8
958	1870	970	1	109.5	836.8
958	1870	976	1	109.5	836.8
959	1869	969	1	109.5	836.8
959	1869	975	1	109.5	836.8
959	1871	965	1	109.5	836.8
959	1871	1338	1	109.5	836.8
960	1870	970	1	109.5	836.8
960	1870	976	1	109.5	836.8
960	1872	966	1	109.5	836.8
960	1872	974	1	109.5	836.8
961	1873	967	1	109.5	836.8
961	1873	975	1	109.5	836.8
961	2036	1259	1	109.5	836.8
961	2036	1270	1	109.5	836.8
961	2036	1276	1	109.5	836.8
962	1866	965	1	109.5	836.8
962	1866	972	1	109.5	836.8
962	1874	968	1	109.5	836.8
962	1874	973	1	109.5	836.8
963	1863	1253	1	109.5	836.8
963	1865	971	1	109.5	836.8
963	1865	1268	1	109.5	836.8
964	1867	967	1	109.5	836.8
964	1867	973	1	109.5	836.8
964	1876	970	1	109.5	836.8
964	1876	971	1	109.5	836.8
965	1866	972	1	109.5	836.8
965	1871	1338	1	109.5	836.8
966	1872	974	1	109.5	836.8
967	1867	973	1	109.5	836.8
967	1873	975	1	109.5	836.8
968	1868	974	1	109.5	836.8
968	1874	973	1	109.5	836.8
969	1869	975	1	109.5	836.8
969	1875	1274	1	109.5	836.8
970	1870	976	1	109.5	836.8
970	1876	971	1	109.5	836.8
971	1865	1268	1	109.5	836.8
972	1707	1332	1	109.5	836.8
977	1878	985	1	109.5	836.8
977	1878	987	1	109.5	836.8
977	1878	994	1	109.5	836.8
977	2027	1241	1	109.5	836.8
977	2027	1246	1	109.5	836.8
977	2027	1278	1	109.5	836.8
978	1879	986	1	109.5	836.8
978	1879	989	1	109.5	836.8
978	1879	995	1	109.5	836.8
978	2029	1243	1	109.5	836.8
978	2029	1248	1	109.5	836.8
978	2029	1256	1	109.5	836.8
979	1880	990	1	109.5	836.8
979	1880	996	1	109.5	836.8
979	1910	1028	1	109.5	836.8
979	1910	1033	1	109.5	836.8
979	1910	1038	1	109.5	836.8
980	1881	982	1	109.5	836.8
980	1881	991	1	109.5	836.8
980	1881	997	1	109.5	836.8
980	1911	1034	1	109.5	836.8
980	1911	1284	1	109.5	836.8
981	1882	983	1	109.5	836.8
981	1882	992	1	109.5	836.8
981	1882	1368	1	109.5	836.8
981	1912	1029	1	109.5	836.8
981	1912	1035	1	109.5	836.8
981	1912	1036	1	109.5	836.8
982	1881	991	1	109.5	836.8
982	1881	997	1	109.5	836.8
982	1883	987	1	109.5	836.8
982	1883	1019	1	109.5	836.8
982	1883	1020	1	109.5	836.8
983	1882	992	1	109.5	836.8
983	1882	1368	1	109.5	836.8
983	1884	988	1	109.5	836.8
983	1884	996	1	109.5	836.8
984	1885	989	1	109.5	836.8
984	1885	997	1	109.5	836.8
984	1885	1021	1	109.5	836.8
985	1878	987	1	109.5	836.8
985	1878	994	1	109.5	836.8
985	1886	990	1	109.5	836.8
985	1886	995	1	109.5	836.8
985	1886	1238	1	109.5	836.8
986	1879	989	1	109.5	836.8
986	1879	995	1	109.5	836.8
986	1888	992	1	109.5	836.8
986	1888	993	1	109.5	836.8
986	1888	1240	1	109.5	836.8
987	1878	994	1	109.5	836.8
987	1883	1019	1	109.5	836.8
987	1883	1020	1	109.5	836.8
988	1709	1360	1	109.5	836.8
988	1884	996	1	109.5	836.8
989	1879	995	1	109.5	836.8
989	1885	997	1	109.5	836.8
989	1885	1021	1	109.5	836.8
990	1880	996	1	109.5	836.8
990	1886	995	1	109.5	836.8
990	1886	1238	1	109.5	836.8
991	1881	997	1	109.5	836.8
991	1887	1239	1	109.5	836.8
991	1887	1281	1	109.5	836.8
992	1882	1368	1	109.5	836.8
992	1888	993	1	109.5	836.8
992	1888	1240	1	109.5	836.8
993	1877	1279	1	109.5	836.8
993	1877	1303	1	109.5	836.8
993	1877	1370	1	109.5	836.8
993	1888	1240	1	109.5	836.8
995	1886	1238	1	109.5	836.8
997	1885	1021	1	109.5	836.8
998	1890	1006	1	109.5	836.8
998	1890	1008	1	109.5	836.8
998	1890	1015	1	109.5	836.8
998	2039	1262	1	109.5	836.8
998	2039	1267	1	109.5	836.8
998	2039	1342	1	109.5	836.8
999	1891	1007	1	109.5	836.8
999	1891	1010	1	109.5	836.8
999	1891	1016	1	109.5	836.8
999	2041	1264	1	109.5	836.8
999	2041	1269	1	109.5	836.8
999	2041	1277	1	109.5	836.8
1000	1892	1011	1	109.5	836.8
1000	1892	1017	1	109.5	836.8
1000	1922	1050	1	109.5	836.8
1000	1922	1055	1	109.5	836.8
1000	1922	1060	1	109.5	836.8
1001	1893	1003	1	109.5	836.8
1001	1893	1012	1	109.5	836.8
1001	1893	1018	1	109.5	836.8
1001	1923	1056	1	109.5	836.8
1002	1894	1004	1	109.5	836.8
1002	1894	1013	1	109.5	836.8
1002	1894	1019	1	109.5	836.8
1002	1924	1051	1	109.5	836.8
1002	1924	1057	1	109.5	836.8
1002	1924	1058	1	109.5	836.8
1003	1893	1012	1	109.5	836.8
1003	1893	1018	1	109.5	836.8
1003	1895	1008	1	109.5	836.8
1003	1895	1042	1	109.5	836.8
1004	1894	1013	1	109.5	836.8
1004	1894	1019	1	109.5	836.8
1004	1896	1009	1	109.5	836.8
1004	1896	1017	1	109.5	836.8
1005	1897	1010	1	109.5	836.8
1005	1897	1018	1	109.5	836.8
1005	1897	1043	1	109.5	836.8
1006	1890	1008	1	109.5	836.8
1006	1890	1015	1	109.5	836.8
1006	1898	1011	1	109.5	836.8
1006	1898	1016	1	109.5	836.8
1006	1898	1259	1	109.5	836.8
1007	1891	1010	1	109.5	836.8
1007	1891	1016	1	109.5	836.8
1007	1900	1013	1	109.5	836.8
1007	1900	1014	1	109.5	836.8
1007	1900	1261	1	109.5	836.8
1008	1890	1015	1	109.5	836.8
1008	1895	1042	1	109.5	836.8
1009	1896	1017	1	109.5	836.8
1010	1891	1016	1	109.5	836.8
1010	1897	1018	1	109.5	836.8
1010	1897	1043	1	109.5	836.8
1011	1892	1017	1	109.5	836.8
1011	1898	1016	1	109.5	836.8
1011	1898	1259	1	109.5	836.8
1012	1893	1018	1	109.5	836.8
1012	1899	1260	1	109.5	836.8
1012	1899	1343	1	109.5	836.8
1013	1894	1019	1	109.5	836.8
1013	1900	1014	1	109.5	836.8
1013	1900	1261	1	109.5	836.8
1014	1889	1280	1	109.5	836.8
1014	1889	1281	1	109.5	836.8
1014	1889	1304	1	109.5	836.8
1014	1900	1261	1	109.5	836.8
1016	1898	1259	1	109.5	836.8
1018	1897	1043	1	109.5	836.8
1019	1883	1020	1	109.5	836.8
1020	1902	1028	1	109.5	836.8
1020	1902	1030	1	109.5	836.8
1020	1902	1037	1	109.5	836.8
1021	1903	1029	1	109.5	836.8
1021	1903	1032	1	109.5	836.8
1021	1903	1038	1	109.5	836.8
1022	1904	1033	1	109.5	836.8
1022	1904	1039	1	109.5	836.8
1022	1934	1072	1	109.5	836.8
1022	1934	1077	1	109.5	836.8
1022	1934	1082	1	109.5	836.8
1023	1905	1025	1	109.5	836.8
1023	1905	1034	1	109.5	836.8
1023	1905	1040	1	109.5	836.8
1023	1935	1078	1	109.5	836.8
1023	1935	1287	1	109.5	836.8
1024	1906	1026	1	109.5	836.8
1024	1906	1035	1	109.5	836.8
1024	1906	1041	1	109.5	836.8
1024	1936	1073	1	109.5	836.8
1024	1936	1079	1	109.5	836.8
1024	1936	1080	1	109.5	836.8
1025	1905	1034	1	109.5	836.8
1025	1905	1040	1	109.5	836.8
1025	1907	1030	1	109.5	836.8
1025	1907	1063	1	109.5	836.8
1025	1907	1064	1	109.5	836.8
1026	1906	1035	1	109.5	836.8
1026	1906	1041	1	109.5	836.8
1026	1908	1031	1	109.5	836.8
1026	1908	1039	1	109.5	836.8
1027	1909	1032	1	109.5	836.8
1027	1909	1040	1	109.5	836.8
1027	1909	1065	1	109.5	836.8
1028	1902	1030	1	109.5	836.8
1028	1902	1037	1	109.5	836.8
1028	1910	1033	1	109.5	836.8
1028	1910	1038	1	109.5	836.8
1029	1903	1032	1	109.5	836.8
1029	1903	1038	1	109.5	836.8
1029	1912	1035	1	109.5	836.8
1029	1912	1036	1	109.5	836.8
1030	1902	1037	1	109.5	836.8
1030	1907	1063	1	109.5	836.8
1030	1907	1064	1	109.5	836.8
1031	1733	1361	1	109.5	836.8
1031	1908	1039	1	109.5	836.8
1032	1903	1038	1	109.5	836.8
1032	1909	1040	1	109.5	836.8
1032	1909	1065	1	109.5	836.8
1033	1904	1039	1	109.5	836.8
1033	1910	1038	1	109.5	836.8
1034	1905	1040	1	109.5	836.8
1034	1911	1284	1	109.5	836.8
1035	1906	1041	1	109.5	836.8
1035	1912	1036	1	109.5	836.8
1036	1901	1041	1	109.5	836.8
1036	1901	1282	1	109.5	836.8
1036	1901	1305	1	109.5	836.8
1040	1909	1065	1	109.5	836.8
1041	1901	1282	1	109.5	836.8
1041	1901	1305	1	109.5	836.8
1042	1914	1050	1	109.5	836.8
1042	1914	1052	1	109.5	836.8
1042	1914	1059	1	109.5	836.8
1043	1915	1051	1	109.5	836.8
1043	1915	1054	1	109.5	836.8
1043	1915	1060	1	109.5	836.8
1044	1916	1055	1	109.5	836.8
1044	1916	1061	1	109.5	836.8
1044	1946	1093	1	109.5	836.8
1044	1946	1098	1	109.5	836.8
1044	1946	1103	1	109.5	836.8
1045	1917	1047	1	109.5	836.8
1045	1917	1056	1	109.5	836.8
1045	1917	1062	1	109.5	836.8
1045	1947	1099	1	109.5	836.8
1046	1918	1048	1	109.5	836.8
1046	1918	1057	1	109.5	836.8
1046	1918	1063	1	109.5	836.8
1046	1948	1094	1	109.5	836.8
1046	1948	1100	1	109.5	836.8
1046	1948	1101	1	109.5	836.8
1047	1917	1056	1	109.5	836.8
1047	1917	1062	1	109.5	836.8
1047	1919	1052	1	109.5	836.8
1047	1919	1085	1	109.5	836.8
1047	1919	1339	1	109.5	836.8
1048	1918	1057	1	109.5	836.8
1048	1918	1063	1	109.5	836.8
1048	1920	1053	1	109.5	836.8
1048	1920	1061	1	109.5	836.8
1049	1921	1054	1	109.5	836.8
1049	1921	1062	1	109.5	836.8
1049	1921	1086	1	109.5	836.8
1050	1914	1052	1	109.5	836.8
1050	1914	1059	1	109.5	836.8
1050	1922	1055	1	109.5	836.8
1050	1922	1060	1	109.5	836.8
1051	1915	1054	1	109.5	836.8
1051	1915	1060	1	109.5	836.8
1051	1924	1057	1	109.5	836.8
1051	1924	1058	1	109.5	836.8
1052	1914	1059	1	109.5	836.8
1052	1919	1085	1	109.5	836.8
1052	1919	1339	1	109.5	836.8
1053	1920	1061	1	109.5	836.8
1054	1915	1060	1	109.5	836.8
1054	1921	1062	1	109.5	836.8
1054	1921	1086	1	109.5	836.8
1055	1916	1061	1	109.5	836.8
1055	1922	1060	1	109.5	836.8
1056	1917	1062	1	109.5	836.8
1057	1918	1063	1	109.5	836.8
1057	1924	1058	1	109.5	836.8
1058	1913	1283	1	109.5	836.8
1058	1913	1284	1	109.5	836.8
1058	1913	1306	1	109.5	836.8
1059	1755	1333	1	109.5	836.8
1062	1921	1086	1	109.5	836.8
1063	1907	1064	1	109.5	836.8
1064	1926	1072	1	109.5	836.8
1064	1926	1074	1	109.5	836.8
1064	1926	1081	1	109.5	836.8
1065	1927	1073	1	109.5	836.8
1065	1927	1076	1	109.5	836.8
1065	1927	1082	1	109.5	836.8
1066	1928	1077	1	109.5	836.8
1066	1928	1083	1	109.5	836.8
1066	1958	1115	1	109.5	836.8
1066	1958	1120	1	109.5	836.8
1066	1958	1125	1	109.5	836.8
1067	1929	1069	1	109.5	836.8
1067	1929	1078	1	109.5	836.8
1067	1929	1084	1	109.5	836.8
1067	1959	1121	1	109.5	836.8
1067	1959	1291	1	109.5	836.8
1068	1930	1070	1	109.5	836.8
1068	1930	1079	1	109.5	836.8
1068	1960	1116	1	109.5	836.8
1068	1960	1122	1	109.5	836.8
1068	1960	1123	1	109.5	836.8
1069	1929	1078	1	109.5	836.8
1069	1929	1084	1	109.5	836.8
1069	1931	1074	1	109.5	836.8
1069	1931	1106	1	109.5	836.8
1069	1931	1107	1	109.5	836.8
1070	1930	1079	1	109.5	836.8
1070	1932	1075	1	109.5	836.8
1070	1932	1083	1	109.5	836.8
1071	1933	1076	1	109.5	836.8
1071	1933	1084	1	109.5	836.8
1071	1933	1108	1	109.5	836.8
1072	1926	1074	1	109.5	836.8
1072	1926	1081	1	109.5	836.8
1072	1934	1077	1	109.5	836.8
1072	1934	1082	1	109.5	836.8
1073	1927	1076	1	109.5	836.8
1073	1927	1082	1	109.5	836.8
1073	1936	1079	1	109.5	836.8
1073	1936	1080	1	109.5	836.8
1074	1926	1081	1	109.5	836.8
1074	1931	1106	1	109.5	836.8
1074	1931	1107	1	109.5	836.8
1075	1757	1362	1	109.5	836.8
1075	1932	1083	1	109.5	836.8
1076	1927	1082	1	109.5	836.8
1076	1933	1084	1	109.5	836.8
1076	1933	1108	1	109.5	836.8
1077	1928	1083	1	109.5	836.8
1077	1934	1082	1	109.5	836.8
1078	1929	1084	1	109.5	836.8
1078	1935	1287	1	109.5	836.8
1079	1936	1080	1	109.5	836.8
1080	1925	1285	1	109.5	836.8
1080	1925	1307	1	109.5	836.8
1080	1925	1371	1	109.5	836.8
1084	1933	1108	1	109.5	836.8
1085	1919	1339	1	109.5	836.8
1085	1938	1093	1	109.5	836.8
1085	1938	1095	1	109.5	836.8
1085	1938	1102	1	109.5	836.8
1086	1939	1094	1	109.5	836.8
1086	1939	1097	1	109.5	836.8
1086	1939	1103	1	109.5	836.8
1087	1940	1098	1	109.5	836.8
1087	1940	1104	1	109.5	836.8
1087	1970	1136	1	109.5	836.8
1087	1970	1141	1	109.5	836.8
1087	1970	1146	1	109.5	836.8
1088	1941	1090	1	109.5	836.8
1088	1941	1099	1	109.5	836.8
1088	1941	1105	1	109.5	836.8
1088	1971	1142	1	109.5	836.8
1088	1971	1344	1	109.5	836.8
1089	1942	1091	1	109.5	836.8
1089	1942	1100	1	109.5	836.8
1089	1942	1106	1	109.5	836.8
1089	1972	1137	1	109.5	836.8
1089	1972	1143	1	109.5	836.8
1089	1972	1144	1	109.5	836.8
1090	1941	1099	1	109.5	836.8
1090	1941	1105	1	109.5	836.8
1090	1943	1095	1	109.5	836.8
1090	1943	1128	1	109.5	836.8
1090	1943	1340	1	109.5	836.8
1091	1942	1100	1	109.5	836.8
1091	1942	1106	1	109.5	836.8
1091	1944	1096	1	109.5	836.8
1091	1944	1104	1	109.5	836.8
1092	1945	1097	1	109.5	836.8
1092	1945	1105	1	109.5	836.8
1092	1945	1129	1	109.5	836.8
1093	1938	1095	1	109.5	836.8
1093	1938	1102	1	109.5	836.8
1093	1946	1098	1	109.5	836.8
1093	1946	1103	1	109.5	836.8
1094	1939	1097	1	109.5	836.8
1094	1939	1103	1	109.5	836.8
1094	1948	1100	1	109.5	836.8
1094	1948	1101	1	109.5	836.8
1095	1938	1102	1	109.5	836.8
1095	1943	1128	1	109.5	836.8
1095	1943	1340	1	109.5	836.8
1096	1944	1104	1	109.5	836.8
1097	1939	1103	1	109.5	836.8
1097	1945	1105	1	109.5	836.8
1097	1945	1129	1	109.5	836.8
1098	1940	1104	1	109.5	836.8
1098	1946	1103	1	109.5	836.8
1099	1941	1105	1	109.5	836.8
1100	1942	1106	1	109.5	836.8
1100	1948	1101	1	109.5	836.8
1101	1937	1286	1	109.5	836.8
1101	1937	1287	1	109.5	836.8
1101	1937	1308	1	109.5	836.8
1105	1945	1129	1	109.5	836.8
1106	1931	1107	1	109.5	836.8
1107	1950	1115	1	109.5	836.8
1107	1950	1117	1	109.5	836.8
1107	1950	1124	1	109.5	836.8
1108	1951	1116	1	109.5	836.8
1108	1951	1119	1	109.5	836.8
1108	1951	1125	1	109.5	836.8
1109	1952	1120	1	109.5	836.8
1109	1952	1126	1	109.5	836.8
1109	1982	1158	1	109.5	836.8
1109	1982	1163	1	109.5	836.8
1109	1982	1168	1	109.5	836.8
1110	1953	1112	1	109.5	836.8
1110	1953	1121	1	109.5	836.8
1110	1953	1127	1	109.5	836.8
1110	1983	1164	1	109.5	836.8
1110	1983	1294	1	109.5	836.8
1111	1954	1113	1	109.5	836.8
1111	1954	1122	1	109.5	836.8
1111	1954	1369	1	109.5	836.8
1111	1984	1159	1	109.5	836.8
1111	1984	1165	1	109.5	836.8
1111	1984	1166	1	109.5	836.8
1112	1953	1121	1	109.5	836.8
1112	1953	1127	1	109.5	836.8
1112	1955	1117	1	109.5	836.8
1112	1955	1149	1	109.5	836.8
1112	1955	1150	1	109.5	836.8
1113	1954	1122	1	109.5	836.8
1113	1954	1369	1	109.5	836.8
1113	1956	1118	1	109.5	836.8
1113	1956	1126	1	109.5	836.8
1114	1957	1119	1	109.5	836.8
1114	1957	1127	1	109.5	836.8
1114	1957	1151	1	109.5	836.8
1115	1950	1117	1	109.5	836.8
1115	1950	1124	1	109.5	836.8
1115	1958	1120	1	109.5	836.8
1115	1958	1125	1	109.5	836.8
1116	1951	1119	1	109.5	836.8
1116	1951	1125	1	109.5	836.8
1116	1960	1122	1	109.5	836.8
1116	1960	1123	1	109.5	836.8
1117	1950	1124	1	109.5	836.8
1117	1955	1149	1	109.5	836.8
1117	1955	1150	1	109.5	836.8
1118	1956	1126	1	109.5	836.8
1119	1951	1125	1	109.5	836.8
1119	1957	1127	1	109.5	836.8
1119	1957	1151	1	109.5	836.8
1120	1952	1126	1	109.5	836.8
1120	1958	1125	1	109.5	836.8
1121	1953	1127	1	109.5	836.8
1121	1959	1291	1	109.5	836.8
1122	1954	1369	1	109.5	836.8
1122	1960	1123	1	109.5	836.8
1123	1949	1288	1	109.5	836.8
1123	1949	1289	1	109.5	836.8
1123	1949	1309	1	109.5	836.8
1127	1957	1151	1	109.5	836.8
1128	1943	1340	1	109.5	836.8
1128	1962	1136	1	109.5	836.8
1128	1962	1138	1	109.5	836.8
1128	1962	1145	1	109.5	836.8
1129	1963	1137	1	109.5	836.8
1129	1963	1140	1	109.5	836.8
1129	1963	1146	1	109.5	836.8
1130	1964	1141	1	109.5	836.8
1130	1964	1147	1	109.5	836.8
1130	1994	1179	1	109.5	836.8
1130	1994	1184	1	109.5	836.8
1130	1994	1189	1	109.5	836.8
1131	1965	1133	1	109.5	836.8
1131	1965	1142	1	109.5	836.8
1131	1965	1148	1	109.5	836.8
1131	1995	1185	1	109.5	836.8
1132	1966	1134	1	109.5	836.8
1132	1966	1143	1	109.5	836.8
1132	1966	1149	1	109.5	836.8
1132	1996	1180	1	109.5	836.8
1132	1996	1186	1	109.5	836.8
1132	1996	1187	1	109.5	836.8
1133	1965	1142	1	109.5	836.8
1133	1965	1148	1	109.5	836.8
1133	1967	1138	1	109.5	836.8
1133	1967	1171	1	109.5	836.8
1134	1966	1143	1	109.5	836.8
1134	1966	1149	1	109.5	836.8
1134	1968	1139	1	109.5	836.8
1134	1968	1147	1	109.5	836.8
1135	1969	1140	1	109.5	836.8
1135	1969	1148	1	109.5	836.8
1135	1969	1172	1	109.5	836.8
1136	1962	1138	1	109.5	836.8
1136	1962	1145	1	109.5	836.8
1136	1970	1141	1	109.5	836.8
1136	1970	1146	1	109.5	836.8
1137	1963	1140	1	109.5	836.8
1137	1963	1146	1	109.5	836.8
1137	1972	1143	1	109.5	836.8
1137	1972	1144	1	109.5	836.8
1138	1962	1145	1	109.5	836.8
1138	1967	1171	1	109.5	836.8
1139	1968	1147	1	109.5	836.8
1140	1963	1146	1	109.5	836.8
1140	1969	1148	1	109.5	836.8
1140	1969	1172	1	109.5	836.8
1141	1964	1147	1	109.5	836.8
1141	1970	1146	1	109.5	836.8
1142	1965	1148	1	109.5	836.8
1142	1971	1344	1	109.5	836.8
1143	1966	1149	1	109.5	836.8
1143	1972	1144	1	109.5	836.8
1144	1961	1290	1	109.5	836.8
1144	1961	1291	1	109.5	836.8
1144	1961	1310	1	109.5	836.8
1145	1803	1335	1	109.5	836.8
1148	1969	1172	1	109.5	836.8
1149	1955	1150	1	109.5	836.8
1150	1974	1158	1	109.5	836.8
1150	1974	1160	1	109.5	836.8
1150	1974	1167	1	109.5	836.8
1151	1975	1159	1	109.5	836.8
1151	1975	1162	1	109.5	836.8
1151	1975	1168	1	109.5	836.8
1152	1976	1163	1	109.5	836.8
1152	1976	1169	1	109.5	836.8
1152	2006	1201	1	109.5	836.8
1152	2006	1206	1	109.5	836.8
1152	2006	1211	1	109.5	836.8
1153	1977	1155	1	109.5	836.8
1153	1977	1164	1	109.5	836.8
1153	1977	1170	1	109.5	836.8
1153	2007	1207	1	109.5	836.8
1153	2007	1298	1	109.5	836.8
1154	1978	1156	1	109.5	836.8
1154	1978	1165	1	109.5	836.8
1154	2008	1202	1	109.5	836.8
1154	2008	1208	1	109.5	836.8
1154	2008	1209	1	109.5	836.8
1155	1977	1164	1	109.5	836.8
1155	1977	1170	1	109.5	836.8
1155	1979	1160	1	109.5	836.8
1155	1979	1192	1	109.5	836.8
1155	1979	1193	1	109.5	836.8
1156	1978	1165	1	109.5	836.8
1156	1980	1161	1	109.5	836.8
1156	1980	1169	1	109.5	836.8
1157	1981	1162	1	109.5	836.8
1157	1981	1170	1	109.5	836.8
1157	1981	1194	1	109.5	836.8
1158	1974	1160	1	109.5	836.8
1158	1974	1167	1	109.5	836.8
1158	1982	1163	1	109.5	836.8
1158	1982	1168	1	109.5	836.8
1159	1975	1162	1	109.5	836.8
1159	1975	1168	1	109.5	836.8
1159	1984	1165	1	109.5	836.8
1159	1984	1166	1	109.5	836.8
1160	1974	1167	1	109.5	836.8
1160	1979	1192	1	109.5	836.8
1160	1979	1193	1	109.5	836.8
1161	1980	1169	1	109.5	836.8
1162	1975	1168	1	109.5	836.8
1162	1981	1170	1	109.5	836.8
1162	1981	1194	1	109.5	836.8
1163	1976	1169	1	109.5	836.8
1163	1982	1168	1	109.5	836.8
1164	1977	1170	1	109.5	836.8
1164	1983	1294	1	109.5	836.8
1165	1984	1166	1	109.5	836.8
1166	1973	1292	1	109.5	836.8
1166	1973	1311	1	109.5	836.8
1166	1973	1372	1	109.5	836.8
1170	1981	1194	1	109.5	836.8
1171	1986	1179	1	109.5	836.8
1171	1986	1181	1	109.5	836.8
1171	1986	1188	1	109.5	836.8
1172	1987	1180	1	109.5	836.8
1172	1987	1183	1	109.5	836.8
1172	1987	1189	1	109.5	836.8
1173	1988	1184	1	109.5	836.8
1173	1988	1190	1	109.5	836.8
1173	2018	1222	1	109.5	836.8
1173	2018	1227	1	109.5	836.8
1173	2018	1232	1	109.5	836.8
1174	1989	1176	1	109.5	836.8
1174	1989	1185	1	109.5	836.8
1174	1989	1191	1	109.5	836.8
1174	2019	1228	1	109.5	836.8
1174	2019	1345	1	109.5	836.8
1175	1990	1177	1	109.5	836.8
1175	1990	1186	1	109.5	836.8
1175	1990	1192	1	109.5	836.8
1175	2020	1223	1	109.5	836.8
1175	2020	1229	1	109.5	836.8
1175	2020	1230	1	109.5	836.8
1176	1989	1185	1	109.5	836.8
1176	1989	1191	1	109.5	836.8
1176	1991	1181	1	109.5	836.8
1176	1991	1214	1	109.5	836.8
1176	1991	1341	1	109.5	836.8
1177	1990	1186	1	109.5	836.8
1177	1990	1192	1	109.5	836.8
1177	1992	1182	1	109.5	836.8
1177	1992	1190	1	109.5	836.8
1178	1993	1183	1	109.5	836.8
1178	1993	1191	1	109.5	836.8
1178	1993	1215	1	109.5	836.8
1179	1986	1181	1	109.5	836.8
1179	1986	1188	1	109.5	836.8
1179	1994	1184	1	109.5	836.8
1179	1994	1189	1	109.5	836.8
1180	1987	1183	1	109.5	836.8
1180	1987	1189	1	109.5	836.8
1180	1996	1186	1	109.5	836.8
1180	1996	1187	1	109.5	836.8
1181	1986	1188	1	109.5	836.8
1181	1991	1214	1	109.5	836.8
1181	1991	1341	1	109.5	836.8
1182	1992	1190	1	109.5	836.8
1183	1987	1189	1	109.5	836.8
1183	1993	1191	1	109.5	836.8
1183	1993	1215	1	109.5	836.8
1184	1988	1190	1	109.5	836.8
1184	1994	1189	1	109.5	836.8
1185	1989	1191	1	109.5	836.8
1186	1990	1192	1	109.5	836.8
1186	1996	1187	1	109.5	836.8
1187	1985	1293	1	109.5	836.8
1187	1985	1294	1	109.5	836.8
1187	1985	1312	1	109.5	836.8
1191	1993	1215	1	109.5	836.8
1192	1979	1193	1	109.5	836.8
1193	1998	1201	1	109.5	836.8
1193	1998	1203	1	109.5	836.8
1193	1998	1210	1	109.5	836.8
1194	1999	1202	1	109.5	836.8
1194	1999	1205	1	109.5	836.8
1194	1999	1211	1	109.5	836.8
1195	2000	1206	1	109.5	836.8
1195	2000	1212	1	109.5	836.8
1195	2030	1244	1	109.5	836.8
1195	2030	1249	1	109.5	836.8
1195	2030	1254	1	109.5	836.8
1196	2001	1198	1	109.5	836.8
1196	2001	1207	1	109.5	836.8
1196	2001	1213	1	109.5	836.8
1196	2031	1250	1	109.5	836.8
1196	2031	1302	1	109.5	836.8
1197	2002	1199	1	109.5	836.8
1197	2002	1208	1	109.5	836.8
1197	2002	1296	1	109.5	836.8
1197	2032	1245	1	109.5	836.8
1197	2032	1251	1	109.5	836.8
1197	2032	1252	1	109.5	836.8
1198	2001	1207	1	109.5	836.8
1198	2001	1213	1	109.5	836.8
1198	2003	1203	1	109.5	836.8
1198	2003	1235	1	109.5	836.8
1198	2003	1236	1	109.5	836.8
1199	2002	1208	1	109.5	836.8
1199	2002	1296	1	109.5	836.8
1199	2004	1204	1	109.5	836.8
1199	2004	1212	1	109.5	836.8
1200	2005	1205	1	109.5	836.8
1200	2005	1213	1	109.5	836.8
1200	2005	1237	1	109.5	836.8
1201	1998	1203	1	109.5	836.8
1201	1998	1210	1	109.5	836.8
1201	2006	1206	1	109.5	836.8
1201	2006	1211	1	109.5	836.8
1202	1999	1205	1	109.5	836.8
1202	1999	1211	1	109.5	836.8
1202	2008	1208	1	109.5	836.8
1202	2008	1209	1	109.5	836.8
1203	1998	1210	1	109.5	836.8
1203	2003	1235	1	109.5	836.8
1203	2003	1236	1	109.5	836.8
1204	1829	1365	1	109.5	836.8
1204	2004	1212	1	109.5	836.8
1205	1999	1211	1	109.5	836.8
1205	2005	1213	1	109.5	836.8
1205	2005	1237	1	109.5	836.8
1206	2000	1212	1	109.5	836.8
1206	2006	1211	1	109.5	836.8
1207	2001	1213	1	109.5	836.8
1207	2007	1298	1	109.5	836.8
1208	2002	1296	1	109.5	836.8
1208	2008	1209	1	109.5	836.8
1209	1997	1295	1	109.5	836.8
1209	1997	1296	1	109.5	836.8
1209	1997	1313	1	109.5	836.8
1213	2005	1237	1	109.5	836.8
1214	1991	1341	1	109.5	836.8
1214	2010	1222	1	109.5	836.8
1214	2010	1224	1	109.5	836.8
1214	2010	1231	1	109.5	836.8
1215	2011	1223	1	109.5	836.8
1215	2011	1226	1	109.5	836.8
1215	2011	1232	1	109.5	836.8
1216	2012	1227	1	109.5	836.8
1216	2012	1233	1	109.5	836.8
1216	2042	1265	1	109.5	836.8
1216	2042	1270	1	109.5	836.8
1216	2042	1275	1	109.5	836.8
1217	2013	1219	1	109.5	836.8
1217	2013	1228	1	109.5	836.8
1217	2013	1234	1	109.5	836.8
1217	2043	1271	1	109.5	836.8
1218	2014	1220	1	109.5	836.8
1218	2014	1229	1	109.5	836.8
1218	2014	1235	1	109.5	836.8
1218	2044	1266	1	109.5	836.8
1218	2044	1272	1	109.5	836.8
1218	2044	1273	1	109.5	836.8
1219	2013	1228	1	109.5	836.8
1219	2013	1234	1	109.5	836.8
1219	2015	1224	1	109.5	836.8
1219	2015	1257	1	109.5	836.8
1220	2014	1229	1	109.5	836.8
1220	2014	1235	1	109.5	836.8
1220	2016	1225	1	109.5	836.8
1220	2016	1233	1	109.5	836.8
1221	2017	1226	1	109.5	836.8
1221	2017	1234	1	109.5	836.8
1221	2017	1258	1	109.5	836.8
1222	2010	1224	1	109.5	836.8
1222	2010	1231	1	109.5	836.8
1222	2018	1227	1	109.5	836.8
1222	2018	1232	1	109.5	836.8
1223	2011	1226	1	109.5	836.8
1223	2011	1232	1	109.5	836.8
1223	2020	1229	1	109.5	836.8
1223	2020	1230	1	109.5	836.8
1224	2010	1231	1	109.5	836.8
1224	2015	1257	1	109.5	836.8
1225	2016	1233	1	109.5	836.8
1226	2011	1232	1	109.5	836.8
1226	2017	1234	1	109.5	836.8
1226	2017	1258	1	109.5	836.8
1227	2012	1233	1	109.5	836.8
1227	2018	1232	1	109.5	836.8
1228	2013	1234	1	109.5	836.8
1228	2019	1345	1	109.5	836.8
1229	2014	1235	1	109.5	836.8
1229	2020	1230	1	109.5	836.8
1230	2009	1297	1	109.5	836.8
1230	2009	1298	1	109.5	836.8
1230	2009	1314	1	109.5	836.8
1231	1851	1337	1	109.5	836.8
1234	2017	1258	1	109.5	836.8
1235	2003	1236	1	109.5	836.8
1236	2022	1244	1	109.5	836.8
1236	2022	1246	1	109.5	836.8
1236	2022	1253	1	109.5	836.8
1237	2023	1245	1	109.5	836.8
1237	2023	1248	1	109.5	836.8
1237	2023	1254	1	109.5	836.8
1238	2024	1249	1	109.5	836.8
1238	2024	1255	1	109.5	836.8
1239	1887	1281	1	109.5	836.8
1239	2025	1241	1	109.5	836.8
1239	2025	1250	1	109.5	836.8
1239	2025	1256	1	109.5	836.8
1240	2026	1242	1	109.5	836.8
1240	2026	1251	1	109.5	836.8
1240	2026	1300	1	109.5	836.8
1241	2025	1250	1	109.5	836.8
1241	2025	1256	1	109.5	836.8
1241	2027	1246	1	109.5	836.8
1241	2027	1278	1	109.5	836.8
1242	2026	1251	1	109.5	836.8
1242	2026	1300	1	109.5	836.8
1242	2028	1247	1	109.5	836.8
1242	2028	1255	1	109.5	836.8
1243	2029	1248	1	109.5	836.8
1243	2029	1256	1	109.5	836.8
1244	2022	1246	1	109.5	836.8
1244	2022	1253	1	109.5	836.8
1244	2030	1249	1	109.5	836.8
1244	2030	1254	1	109.5	836.8
1245	2023	1248	1	109.5	836.8
1245	2023	1254	1	109.5	836.8
1245	2032	1251	1	109.5	836.8
1245	2032	1252	1	109.5	836.8
1246	2022	1253	1	109.5	836.8
1246	2027	1278	1	109.5	836.8
1247	1853	1366	1	109.5	836.8
1247	2028	1255	1	109.5	836.8
1248	2023	1254	1	109.5	836.8
1248	2029	1256	1	109.5	836.8
1249	2024	1255	1	109.5	836.8
1249	2030	1254	1	109.5	836.8
1250	2025	1256	1	109.5	836.8
1250	2031	1302	1	109.5	836.8
1251	2026	1300	1	109.5	836.8
1251	2032	1252	1	109.5	836.8
1252	2021	1299	1	109.5	836.8
1252	2021	1300	1	109.5	836.8
1252	2021	1315	1	109.5	836.8
1257	2034	1265	1	109.5	836.8
1257	2034	1267	1	109.5	836.8
1257	2034	1274	1	109.5	836.8
1258	2035	1266	1	109.5	836.8
1258	2035	1269	1	109.5	836.8
1258	2035	1275	1	109.5	836.8
1259	2036	1270	1	109.5	836.8
1259	2036	1276	1	109.5	836.8
1260	1899	1343	1	109.5	836.8
1260	2037	1262	1	109.5	836.8
1260	2037	1271	1	109.5	836.8
1260	2037	1277	1	109.5	836.8
1261	2038	1263	1	109.5	836.8
1261	2038	1272	1	109.5	836.8
1261	2038	1278	1	109.5	836.8
1262	2037	1271	1	109.5	836.8
1262	2037	1277	1	109.5	836.8
1262	2039	1267	1	109.5	836.8
1262	2039	1342	1	109.5	836.8
1263	2038	1272	1	109.5	836.8
1263	2038	1278	1	109.5	836.8
1263	2040	1268	1	109.5	836.8
1263	2040	1276	1	109.5	836.8
1264	2041	1269	1	109.5	836.8
1264	2041	1277	1	109.5	836.8
1265	2034	1267	1	109.5	836.8
1265	2034	1274	1	109.5	836.8
1265	2042	1270	1	109.5	836.8
1265	2042	1275	1	109.5	836.8
1266	2035	1269	1	109.5	836.8
1266	2035	1275	1	109.5	836.8
1266	2044	1272	1	109.5	836.8
1266	2044	1273	1	109.5	836.8
1267	2034	1274	1	109.5	836.8
1267	2039	1342	1	109.5	836.8
1268	2040	1276	1	109.5	836.8
1269	2035	1275	1	109.5	836.8
1269	2041	1277	1	109.5	836.8
1270	2036	1276	1	109.5	836.8
1270	2042	1275	1	109.5	836.8
1271	2037	1277	1	109.5	836.8
1272	2038	1278	1	109.5	836.8
1272	2044	1273	1	109.5	836.8
1273	2033	1301	1	109.5	836.8
1273	2033	1302	1	109.5	836.8
1273	2033	1316	1	109.5	836.8
1279	1524	1315	1	109.5	836.8
1279	1877	1303	1	109.5	836.8
1279	1877	1370	1	109.5	836.8
1280	1536	1316	1	109.5	836.8
1280	1889	1281	1	109.5	836.8
1280	1889	1304	1	109.5	836.8
1281	1889	1304	1	109.5	836.8
1282	1380	1303	1	109.5	836.8
1282	1901	1305	1	109.5	836.8
1283	1392	1304	1	109.5	836.8
1283	1913	1284	1	109.5	836.8
1283	1913	1306	1	109.5	836.8
1284	1913	1306	1	109.5	836.8
1285	1404	1305	1	109.5	836.8
1285	1925	1307	1	109.5	836.8
1285	1925	1371	1	109.5	836.8
1286	1416	1306	1	109.5	836.8
1286	1937	1287	1	109.5	836.8
1286	1937	1308	1	109.5	836.8
1287	1937	1308	1	109.5	836.8
1288	1428	1307	1	109.5	836.8
1288	1949	1289	1	109.5	836.8
1288	1949	1309	1	109.5	836.8
1289	1949	1309	1	109.5	836.8
1290	1440	1308	1	109.5	836.8
1290	1961	1291	1	109.5	836.8
1290	1961	1310	1	109.5	836.8
1291	1961	1310	1	109.5	836.8
1292	1452	1309	1	109.5	836.8
1292	1973	1311	1	109.5	836.8
1292	1973	1372	1	109.5	836.8
1293	1464	1310	1	109.5	836.8
1293	1985	1294	1	109.5	836.8
1293	1985	1312	1	109.5	836.8
1294	1985	1312	1	109.5	836.8
1295	1476	1311	1	109.5	836.8
1295	1997	1296	1	109.5	836.8
1295	1997	1313	1	109.5	836.8
1296	1997	1313	1	109.5	836.8
1297	1488	1312	1	109.5	836.8
1297	2009	1298	1	109.5	836.8
1297	2009	1314	1	109.5	836.8
1298	2009	1314	1	109.5	836.8
1299	1500	1313	1	109.5	836.8
1299	2021	1300	1	109.5	836.8
1299	2021	1315	1	109.5	836.8
1300	2021	1315	1	109.5	836.8
1301	1512	1314	1	109.5	836.8
1301	2033	1302	1	109.5	836.8
1301	2033	1316	1	109.5	836.8
1302	2033	1316	1	109.5	836.8
1303	1877	1370	1	109.5	836.8
1307	1925	1371	1	109.5	836.8
1311	1973	1372	1	109.5	836.8
1373	2	1692	1	149.0	836.8
1373	11	1546	1	149.0	836.8
1373	18	1384	1	149.0	836.8
1373	340	1548	1	149.0	836.8
1374	1	1523	1	149.0	836.8
1374	10	1382	1	149.0	836.8
1374	13	1379	1	149.0	836.8
1374	19	1887	1	149.0	836.8
1375	3	1525	1	149.0	836.8
1375	12	1384	1	149.0	836.8
1375	14	1381	1	149.0	836.8
1375	20	1382	1	149.0	836.8
1376	4	1406	1	149.0	836.8
1376	15	1382	1	149.0	836.8
1376	21	1380	1	149.0	836.8
1376	984	1885	1	149.0	836.8
1377	5	1407	1	149.0	836.8
1377	7	1379	1	149.0	836.8
1377	16	1383	1	149.0	836.8
1377	22	1381	1	149.0	836.8
1378	6	1408	1	149.0	836.8
1378	8	1380	1	149.0	836.8
1378	17	1384	1	149.0	836.8
1378	1317	2045	1	111.0	461.16
1378	1317	2046	1	111.0	461.16
1378	1317	2047	1	111.0	461.16
1379	45	1390	1	149.0	836.8
1379	60	1398	1	149.0	836.8
1380	1282	1901	1	149.0	836.8
1380	1303	1877	1	149.0	836.8
1381	9	1544	1	149.0	836.8
1381	62	1399	1	149.0	836.8
1382	286	1520	1	149.0	836.8
1383	33	1385	1	149.0	836.8
1383	287	1521	1	149.0	836.8
1383	346	1542	1	149.0	836.8
1384	288	1522	1	149.0	836.8
1385	24	1704	1	149.0	836.8
1385	40	1396	1	149.0	836.8
1385	363	1560	1	149.0	836.8
1386	23	1535	1	149.0	836.8
1386	32	1394	1	149.0	836.8
1386	35	1391	1	149.0	836.8
1386	41	1899	1	149.0	836.8
1387	25	1537	1	149.0	836.8
1387	34	1396	1	149.0	836.8
1387	36	1393	1	149.0	836.8
1387	42	1394	1	149.0	836.8
1388	26	1418	1	149.0	836.8
1388	37	1394	1	149.0	836.8
1388	43	1392	1	149.0	836.8
1388	1005	1897	1	149.0	836.8
1389	27	1419	1	149.0	836.8
1389	29	1391	1	149.0	836.8
1389	38	1395	1	149.0	836.8
1389	44	1393	1	149.0	836.8
1390	28	1420	1	149.0	836.8
1390	30	1392	1	149.0	836.8
1390	39	1396	1	149.0	836.8
1391	59	1923	1	149.0	836.8
1391	81	1410	1	149.0	836.8
1392	1283	1913	1	149.0	836.8
1392	1304	1889	1	149.0	836.8
1393	31	1556	1	149.0	836.8
1393	83	1411	1	149.0	836.8
1394	307	1532	1	149.0	836.8
1395	308	1533	1	149.0	836.8
1395	369	1554	1	149.0	836.8
1395	1318	2048	1	111.0	461.16
1395	1318	2049	1	111.0	461.16
1395	1318	2050	1	111.0	461.16
1396	309	1534	1	149.0	836.8
1397	61	1548	1	149.0	836.8
1397	76	1408	1	149.0	836.8
1397	386	1572	1	149.0	836.8
1397	1346	2132	1	111.0	461.16
1397	1346	2133	1	111.0	461.16
1397	1346	2134	1	111.0	461.16
1398	69	1406	1	149.0	836.8
1398	71	1403	1	149.0	836.8
1398	77	1911	1	149.0	836.8
1399	70	1408	1	149.0	836.8
1399	72	1405	1	149.0	836.8
1399	78	1406	1	149.0	836.8
1400	63	1430	1	149.0	836.8
1400	73	1406	1	149.0	836.8
1400	79	1404	1	149.0	836.8
1400	1027	1909	1	149.0	836.8
1401	64	1431	1	149.0	836.8
1401	66	1403	1	149.0	836.8
1401	74	1407	1	149.0	836.8
1401	80	1405	1	149.0	836.8
1402	65	1432	1	149.0	836.8
1402	67	1404	1	149.0	836.8
1402	75	1408	1	149.0	836.8
1402	1347	2135	1	111.0	461.16
1402	1347	2136	1	111.0	461.16
1402	1347	2137	1	111.0	461.16
1403	103	1414	1	149.0	836.8
1403	104	1422	1	149.0	836.8
1404	1285	1925	1	149.0	836.8
1404	1305	1901	1	149.0	836.8
1405	68	1568	1	149.0	836.8
1405	106	1423	1	149.0	836.8
1407	91	1409	1	149.0	836.8
1407	392	1566	1	149.0	836.8
1409	82	1560	1	149.0	836.8
1409	98	1420	1	149.0	836.8
1409	409	1584	1	149.0	836.8
1410	90	1418	1	149.0	836.8
1410	93	1415	1	149.0	836.8
1410	99	1923	1	149.0	836.8
1411	92	1420	1	149.0	836.8
1411	94	1417	1	149.0	836.8
1411	100	1418	1	149.0	836.8
1412	84	1442	1	149.0	836.8
1412	95	1418	1	149.0	836.8
1412	101	1416	1	149.0	836.8
1412	1049	1921	1	149.0	836.8
1413	85	1443	1	149.0	836.8
1413	87	1415	1	149.0	836.8
1413	96	1419	1	149.0	836.8
1413	102	1417	1	149.0	836.8
1414	86	1444	1	149.0	836.8
1414	88	1416	1	149.0	836.8
1414	97	1420	1	149.0	836.8
1415	126	1434	1	149.0	836.8
1415	1320	2054	1	111.0	461.16
1415	1320	2055	1	111.0	461.16
1415	1320	2056	1	111.0	461.16
1416	1286	1937	1	149.0	836.8
1416	1306	1913	1	149.0	836.8
1417	89	1580	1	149.0	836.8
1417	128	1435	1	149.0	836.8
1419	415	1578	1	149.0	836.8
1419	1319	2051	1	111.0	461.16
1419	1319	2052	1	111.0	461.16
1419	1319	2053	1	111.0	461.16
1421	105	1572	1	149.0	836.8
1421	114	1426	1	149.0	836.8
1421	121	1432	1	149.0	836.8
1421	433	1596	1	149.0	836.8
1422	113	1430	1	149.0	836.8
1422	116	1427	1	149.0	836.8
1422	122	1935	1	149.0	836.8
1423	115	1432	1	149.0	836.8
1423	117	1429	1	149.0	836.8
1423	123	1430	1	149.0	836.8
1424	107	1454	1	149.0	836.8
1424	118	1430	1	149.0	836.8
1424	124	1428	1	149.0	836.8
1424	1071	1933	1	149.0	836.8
1425	108	1455	1	149.0	836.8
1425	110	1427	1	149.0	836.8
1425	119	1431	1	149.0	836.8
1425	125	1429	1	149.0	836.8
1426	109	1456	1	149.0	836.8
1426	111	1428	1	149.0	836.8
1426	120	1432	1	149.0	836.8
1427	148	1438	1	149.0	836.8
1427	149	1446	1	149.0	836.8
1428	1288	1949	1	149.0	836.8
1428	1307	1925	1	149.0	836.8
1429	112	1592	1	149.0	836.8
1429	151	1447	1	149.0	836.8
1431	136	1433	1	149.0	836.8
1431	439	1590	1	149.0	836.8
1433	127	1584	1	149.0	836.8
1433	143	1444	1	149.0	836.8
1433	456	1608	1	149.0	836.8
1434	135	1442	1	149.0	836.8
1434	138	1439	1	149.0	836.8
1434	144	1947	1	149.0	836.8
1435	137	1444	1	149.0	836.8
1435	139	1441	1	149.0	836.8
1435	145	1442	1	149.0	836.8
1436	129	1466	1	149.0	836.8
1436	140	1442	1	149.0	836.8
1436	146	1440	1	149.0	836.8
1436	1092	1945	1	149.0	836.8
1437	130	1467	1	149.0	836.8
1437	132	1439	1	149.0	836.8
1437	141	1443	1	149.0	836.8
1437	147	1441	1	149.0	836.8
1438	131	1468	1	149.0	836.8
1438	133	1440	1	149.0	836.8
1438	142	1444	1	149.0	836.8
1439	47	1947	1	149.0	836.8
1439	170	1458	1	149.0	836.8
1440	1290	1961	1	149.0	836.8
1440	1308	1937	1	149.0	836.8
1441	134	1604	1	149.0	836.8
1441	172	1459	1	149.0	836.8
1443	46	1583	1	149.0	836.8
1443	462	1602	1	149.0	836.8
1445	150	1596	1	149.0	836.8
1445	165	1456	1	149.0	836.8
1445	479	1620	1	149.0	836.8
1445	1348	2138	1	111.0	461.16
1445	1348	2139	1	111.0	461.16
1445	1348	2140	1	111.0	461.16
1446	158	1454	1	149.0	836.8
1446	160	1451	1	149.0	836.8
1446	166	1959	1	149.0	836.8
1447	159	1456	1	149.0	836.8
1447	161	1453	1	149.0	836.8
1447	167	1454	1	149.0	836.8
1448	152	1478	1	149.0	836.8
1448	162	1454	1	149.0	836.8
1448	168	1452	1	149.0	836.8
1448	1114	1957	1	149.0	836.8
1449	153	1479	1	149.0	836.8
1449	155	1451	1	149.0	836.8
1449	163	1455	1	149.0	836.8
1449	169	1453	1	149.0	836.8
1450	154	1480	1	149.0	836.8
1450	156	1452	1	149.0	836.8
1450	164	1456	1	149.0	836.8
1450	1289	1949	1	149.0	836.8
1451	192	1462	1	149.0	836.8
1451	193	1470	1	149.0	836.8
1452	1292	1973	1	149.0	836.8
1452	1309	1949	1	149.0	836.8
1453	157	1616	1	149.0	836.8
1453	195	1471	1	149.0	836.8
1455	180	1457	1	149.0	836.8
1455	485	1614	1	149.0	836.8
1457	171	1608	1	149.0	836.8
1457	187	1468	1	149.0	836.8
1457	502	1632	1	149.0	836.8
1458	179	1466	1	149.0	836.8
1458	182	1463	1	149.0	836.8
1458	188	1971	1	149.0	836.8
1459	181	1468	1	149.0	836.8
1459	183	1465	1	149.0	836.8
1459	189	1466	1	149.0	836.8
1460	173	1490	1	149.0	836.8
1460	184	1466	1	149.0	836.8
1460	190	1464	1	149.0	836.8
1460	1135	1969	1	149.0	836.8
1461	174	1491	1	149.0	836.8
1461	176	1463	1	149.0	836.8
1461	185	1467	1	149.0	836.8
1461	191	1465	1	149.0	836.8
1462	175	1492	1	149.0	836.8
1462	177	1464	1	149.0	836.8
1462	186	1468	1	149.0	836.8
1463	215	1482	1	149.0	836.8
1463	1321	2057	1	111.0	461.16
1463	1321	2058	1	111.0	461.16
1463	1321	2059	1	111.0	461.16
1464	1293	1985	1	149.0	836.8
1464	1310	1961	1	149.0	836.8
1465	178	1628	1	149.0	836.8
1465	217	1483	1	149.0	836.8
1467	52	1631	1	149.0	836.8
1467	508	1626	1	149.0	836.8
1469	194	1620	1	149.0	836.8
1469	203	1618	1	149.0	836.8
1469	210	1480	1	149.0	836.8
1469	525	1644	1	149.0	836.8
1470	202	1478	1	149.0	836.8
1470	205	1475	1	149.0	836.8
1470	211	1983	1	149.0	836.8
1471	204	1480	1	149.0	836.8
1471	206	1477	1	149.0	836.8
1471	212	1478	1	149.0	836.8
1472	196	1502	1	149.0	836.8
1472	207	1478	1	149.0	836.8
1472	213	1476	1	149.0	836.8
1472	1157	1981	1	149.0	836.8
1473	197	1503	1	149.0	836.8
1473	199	1475	1	149.0	836.8
1473	208	1479	1	149.0	836.8
1473	214	1477	1	149.0	836.8
1474	198	1504	1	149.0	836.8
1474	200	1476	1	149.0	836.8
1474	209	1480	1	149.0	836.8
1474	1349	2141	1	111.0	461.16
1474	1349	2142	1	111.0	461.16
1474	1349	2143	1	111.0	461.16
1475	237	1486	1	149.0	836.8
1475	238	1494	1	149.0	836.8
1476	1295	1997	1	149.0	836.8
1476	1311	1973	1	149.0	836.8
1477	201	1640	1	149.0	836.8
1477	240	1495	1	149.0	836.8
1479	225	1481	1	149.0	836.8
1479	531	1638	1	149.0	836.8
1481	216	1632	1	149.0	836.8
1481	232	1492	1	149.0	836.8
1481	548	1656	1	149.0	836.8
1482	224	1490	1	149.0	836.8
1482	227	1487	1	149.0	836.8
1482	233	1995	1	149.0	836.8
1483	226	1492	1	149.0	836.8
1483	228	1489	1	149.0	836.8
1483	234	1490	1	149.0	836.8
1484	218	1514	1	149.0	836.8
1484	229	1490	1	149.0	836.8
1484	235	1488	1	149.0	836.8
1484	1178	1993	1	149.0	836.8
1485	219	1515	1	149.0	836.8
1485	221	1487	1	149.0	836.8
1485	230	1491	1	149.0	836.8
1485	236	1489	1	149.0	836.8
1486	220	1516	1	149.0	836.8
1486	222	1488	1	149.0	836.8
1486	231	1492	1	149.0	836.8
1487	48	1995	1	149.0	836.8
1487	260	1506	1	149.0	836.8
1488	1297	2009	1	149.0	836.8
1488	1312	1985	1	149.0	836.8
1489	223	1652	1	149.0	836.8
1489	262	1507	1	149.0	836.8
1491	554	1650	1	149.0	836.8
1491	1322	2060	1	111.0	461.16
1491	1322	2061	1	111.0	461.16
1491	1322	2062	1	111.0	461.16
1493	239	1644	1	149.0	836.8
1493	254	1504	1	149.0	836.8
1493	259	1498	1	149.0	836.8
1493	572	1668	1	149.0	836.8
1494	247	1502	1	149.0	836.8
1494	249	1499	1	149.0	836.8
1494	255	2007	1	149.0	836.8
1495	248	1504	1	149.0	836.8
1495	250	1501	1	149.0	836.8
1495	256	1502	1	149.0	836.8
1496	241	1526	1	149.0	836.8
1496	251	1502	1	149.0	836.8
1496	257	1500	1	149.0	836.8
1496	1200	2005	1	149.0	836.8
1497	242	1527	1	149.0	836.8
1497	244	1499	1	149.0	836.8
1497	252	1503	1	149.0	836.8
1497	258	1501	1	149.0	836.8
1498	243	1528	1	149.0	836.8
1498	245	1500	1	149.0	836.8
1498	253	1504	1	149.0	836.8
1499	282	1510	1	149.0	836.8
1499	283	1518	1	149.0	836.8
1500	1299	2021	1	149.0	836.8
1500	1313	1997	1	149.0	836.8
1501	246	1664	1	149.0	836.8
1501	285	1519	1	149.0	836.8
1503	270	1505	1	149.0	836.8
1503	578	1662	1	149.0	836.8
1505	261	1656	1	149.0	836.8
1505	277	1516	1	149.0	836.8
1505	595	1680	1	149.0	836.8
1506	269	1514	1	149.0	836.8
1506	272	1511	1	149.0	836.8
1506	278	2019	1	149.0	836.8
1507	271	1516	1	149.0	836.8
1507	273	1513	1	149.0	836.8
1507	279	1514	1	149.0	836.8
1508	263	1538	1	149.0	836.8
1508	274	1514	1	149.0	836.8
1508	280	1512	1	149.0	836.8
1508	1221	2017	1	149.0	836.8
1509	264	1539	1	149.0	836.8
1509	266	1511	1	149.0	836.8
1509	275	1515	1	149.0	836.8
1509	281	1513	1	149.0	836.8
1510	265	1540	1	149.0	836.8
1510	267	1512	1	149.0	836.8
1510	276	1516	1	149.0	836.8
1511	304	1530	1	149.0	836.8
1511	1324	2066	1	111.0	461.16
1511	1324	2067	1	111.0	461.16
1511	1324	2068	1	111.0	461.16
1512	1301	2033	1	149.0	836.8
1512	1314	2009	1	149.0	836.8
1513	268	1676	1	149.0	836.8
1513	306	1531	1	149.0	836.8
1515	601	1674	1	149.0	836.8
1515	1323	2063	1	111.0	461.16
1515	1323	2064	1	111.0	461.16
1515	1323	2065	1	111.0	461.16
1517	284	1668	1	149.0	836.8
1517	299	1528	1	149.0	836.8
1517	618	1692	1	149.0	836.8
1517	1350	2144	1	111.0	461.16
1517	1350	2145	1	111.0	461.16
1517	1350	2146	1	111.0	461.16
1518	292	1526	1	149.0	836.8
1518	294	1523	1	149.0	836.8
1518	300	2031	1	149.0	836.8
1519	293	1528	1	149.0	836.8
1519	295	1525	1	149.0	836.8
1519	301	1526	1	149.0	836.8
1520	296	1526	1	149.0	836.8
1520	302	1524	1	149.0	836.8
1520	1243	2029	1	149.0	836.8
1521	289	1523	1	149.0	836.8
1521	297	1527	1	149.0	836.8
1521	303	1525	1	149.0	836.8
1522	290	1524	1	149.0	836.8
1522	298	1528	1	149.0	836.8
1522	1351	2147	1	111.0	461.16
1522	1351	2148	1	111.0	461.16
1522	1351	2149	1	111.0	461.16
1523	326	1534	1	149.0	836.8
1524	1279	1877	1	149.0	836.8
1524	1315	2021	1	149.0	836.8
1525	291	1688	1	149.0	836.8
1527	314	1529	1	149.0	836.8
1527	624	1686	1	149.0	836.8
1529	305	1680	1	149.0	836.8
1529	321	1540	1	149.0	836.8
1529	641	1704	1	149.0	836.8
1530	313	1538	1	149.0	836.8
1530	316	1535	1	149.0	836.8
1530	322	2043	1	149.0	836.8
1531	315	1540	1	149.0	836.8
1531	317	1537	1	149.0	836.8
1531	323	1538	1	149.0	836.8
1532	318	1538	1	149.0	836.8
1532	324	1536	1	149.0	836.8
1532	1264	2041	1	149.0	836.8
1533	310	1535	1	149.0	836.8
1533	319	1539	1	149.0	836.8
1533	325	1537	1	149.0	836.8
1534	311	1536	1	149.0	836.8
1534	320	1540	1	149.0	836.8
1535	50	2043	1	149.0	836.8
1536	1280	1889	1	149.0	836.8
1536	1316	2033	1	149.0	836.8
1537	312	1700	1	149.0	836.8
1539	49	1703	1	149.0	836.8
1539	647	1698	1	149.0	836.8
1541	328	1860	1	149.0	836.8
1541	337	1714	1	149.0	836.8
1541	345	1552	1	149.0	836.8
1541	664	1716	1	149.0	836.8
1542	327	1691	1	149.0	836.8
1542	336	1550	1	149.0	836.8
1542	339	1547	1	149.0	836.8
1543	329	1693	1	149.0	836.8
1543	338	1552	1	149.0	836.8
1543	341	1549	1	149.0	836.8
1543	347	1550	1	149.0	836.8
1544	330	1574	1	149.0	836.8
1544	342	1550	1	149.0	836.8
1544	348	1548	1	149.0	836.8
1545	331	1575	1	149.0	836.8
1545	333	1547	1	149.0	836.8
1545	343	1551	1	149.0	836.8
1545	349	1549	1	149.0	836.8
1546	332	1576	1	149.0	836.8
1546	334	1548	1	149.0	836.8
1546	344	1552	1	149.0	836.8
1547	373	1558	1	149.0	836.8
1547	374	1566	1	149.0	836.8
1549	335	1712	1	149.0	836.8
1549	376	1567	1	149.0	836.8
1550	609	1688	1	149.0	836.8
1551	360	1553	1	149.0	836.8
1551	610	1689	1	149.0	836.8
1551	670	1710	1	149.0	836.8
1552	611	1690	1	149.0	836.8
1553	351	1872	1	149.0	836.8
1553	368	1564	1	149.0	836.8
1553	687	1728	1	149.0	836.8
1554	350	1703	1	149.0	836.8
1554	359	1562	1	149.0	836.8
1554	362	1559	1	149.0	836.8
1555	352	1705	1	149.0	836.8
1555	361	1564	1	149.0	836.8
1555	364	1561	1	149.0	836.8
1555	370	1562	1	149.0	836.8
1556	353	1586	1	149.0	836.8
1556	365	1562	1	149.0	836.8
1556	371	1560	1	149.0	836.8
1557	354	1587	1	149.0	836.8
1557	356	1559	1	149.0	836.8
1557	366	1563	1	149.0	836.8
1557	372	1561	1	149.0	836.8
1558	355	1588	1	149.0	836.8
1558	357	1560	1	149.0	836.8
1558	367	1564	1	149.0	836.8
1559	396	1578	1	149.0	836.8
1559	1326	2072	1	111.0	461.16
1559	1326	2073	1	111.0	461.16
1559	1326	2074	1	111.0	461.16
1561	358	1724	1	149.0	836.8
1561	398	1579	1	149.0	836.8
1562	631	1700	1	149.0	836.8
1563	632	1701	1	149.0	836.8
1563	693	1722	1	149.0	836.8
1563	1325	2069	1	111.0	461.16
1563	1325	2070	1	111.0	461.16
1563	1325	2071	1	111.0	461.16
1564	633	1702	1	149.0	836.8
1565	375	1716	1	149.0	836.8
1565	391	1576	1	149.0	836.8
1565	710	1740	1	149.0	836.8
1565	1352	2150	1	111.0	461.16
1565	1352	2151	1	111.0	461.16
1565	1352	2152	1	111.0	461.16
1566	383	1574	1	149.0	836.8
1566	385	1571	1	149.0	836.8
1567	384	1576	1	149.0	836.8
1567	387	1573	1	149.0	836.8
1567	393	1574	1	149.0	836.8
1568	377	1598	1	149.0	836.8
1568	388	1574	1	149.0	836.8
1568	394	1572	1	149.0	836.8
1569	378	1599	1	149.0	836.8
1569	380	1571	1	149.0	836.8
1569	389	1575	1	149.0	836.8
1569	395	1573	1	149.0	836.8
1570	379	1600	1	149.0	836.8
1570	381	1572	1	149.0	836.8
1570	390	1576	1	149.0	836.8
1570	1353	2153	1	111.0	461.16
1570	1353	2154	1	111.0	461.16
1570	1353	2155	1	111.0	461.16
1571	419	1582	1	149.0	836.8
1571	420	1590	1	149.0	836.8
1573	382	1736	1	149.0	836.8
1573	422	1591	1	149.0	836.8
1575	406	1577	1	149.0	836.8
1575	716	1734	1	149.0	836.8
1577	397	1728	1	149.0	836.8
1577	414	1588	1	149.0	836.8
1577	733	1752	1	149.0	836.8
1578	405	1586	1	149.0	836.8
1578	408	1583	1	149.0	836.8
1579	407	1588	1	149.0	836.8
1579	410	1585	1	149.0	836.8
1579	416	1586	1	149.0	836.8
1580	399	1610	1	149.0	836.8
1580	411	1586	1	149.0	836.8
1580	417	1584	1	149.0	836.8
1581	400	1611	1	149.0	836.8
1581	402	1583	1	149.0	836.8
1581	412	1587	1	149.0	836.8
1581	418	1585	1	149.0	836.8
1582	401	1612	1	149.0	836.8
1582	403	1584	1	149.0	836.8
1582	413	1588	1	149.0	836.8
1583	443	1602	1	149.0	836.8
1585	404	1748	1	149.0	836.8
1585	445	1603	1	149.0	836.8
1587	51	1727	1	149.0	836.8
1587	739	1746	1	149.0	836.8
1589	421	1740	1	149.0	836.8
1589	430	1738	1	149.0	836.8
1589	438	1600	1	149.0	836.8
1589	756	1764	1	149.0	836.8
1590	429	1598	1	149.0	836.8
1590	432	1595	1	149.0	836.8
1591	431	1600	1	149.0	836.8
1591	434	1597	1	149.0	836.8
1591	440	1598	1	149.0	836.8
1592	423	1622	1	149.0	836.8
1592	435	1598	1	149.0	836.8
1592	441	1596	1	149.0	836.8
1593	424	1623	1	149.0	836.8
1593	426	1595	1	149.0	836.8
1593	436	1599	1	149.0	836.8
1593	442	1597	1	149.0	836.8
1594	425	1624	1	149.0	836.8
1594	427	1596	1	149.0	836.8
1594	437	1600	1	149.0	836.8
1594	1354	2156	1	111.0	461.16
1594	1354	2157	1	111.0	461.16
1594	1354	2158	1	111.0	461.16
1595	466	1606	1	149.0	836.8
1595	467	1614	1	149.0	836.8
1597	428	1760	1	149.0	836.8
1597	469	1615	1	149.0	836.8
1599	453	1601	1	149.0	836.8
1599	762	1758	1	149.0	836.8
1601	444	1752	1	149.0	836.8
1601	461	1612	1	149.0	836.8
1601	779	1776	1	149.0	836.8
1602	452	1610	1	149.0	836.8
1602	455	1607	1	149.0	836.8
1603	454	1612	1	149.0	836.8
1603	457	1609	1	149.0	836.8
1603	463	1610	1	149.0	836.8
1604	446	1634	1	149.0	836.8
1604	458	1610	1	149.0	836.8
1604	464	1608	1	149.0	836.8
1605	447	1635	1	149.0	836.8
1605	449	1607	1	149.0	836.8
1605	459	1611	1	149.0	836.8
1605	465	1609	1	149.0	836.8
1606	448	1636	1	149.0	836.8
1606	450	1608	1	149.0	836.8
1606	460	1612	1	149.0	836.8
1607	489	1626	1	149.0	836.8
1607	1328	2078	1	111.0	461.16
1607	1328	2079	1	111.0	461.16
1607	1328	2080	1	111.0	461.16
1609	451	1772	1	149.0	836.8
1609	491	1627	1	149.0	836.8
1611	785	1770	1	149.0	836.8
1611	1327	2075	1	111.0	461.16
1611	1327	2076	1	111.0	461.16
1611	1327	2077	1	111.0	461.16
1613	468	1764	1	149.0	836.8
1613	484	1624	1	149.0	836.8
1613	803	1788	1	149.0	836.8
1613	1355	2159	1	111.0	461.16
1613	1355	2160	1	111.0	461.16
1613	1355	2161	1	111.0	461.16
1614	476	1622	1	149.0	836.8
1614	478	1619	1	149.0	836.8
1615	477	1624	1	149.0	836.8
1615	480	1621	1	149.0	836.8
1615	486	1622	1	149.0	836.8
1616	470	1646	1	149.0	836.8
1616	481	1622	1	149.0	836.8
1616	487	1620	1	149.0	836.8
1617	471	1647	1	149.0	836.8
1617	473	1619	1	149.0	836.8
1617	482	1623	1	149.0	836.8
1617	488	1621	1	149.0	836.8
1618	472	1648	1	149.0	836.8
1618	474	1620	1	149.0	836.8
1618	483	1624	1	149.0	836.8
1619	512	1630	1	149.0	836.8
1619	513	1638	1	149.0	836.8
1621	475	1784	1	149.0	836.8
1621	515	1639	1	149.0	836.8
1623	499	1625	1	149.0	836.8
1623	809	1782	1	149.0	836.8
1625	490	1776	1	149.0	836.8
1625	507	1636	1	149.0	836.8
1625	827	1800	1	149.0	836.8
1626	498	1634	1	149.0	836.8
1626	501	1631	1	149.0	836.8
1627	500	1636	1	149.0	836.8
1627	503	1633	1	149.0	836.8
1627	509	1634	1	149.0	836.8
1628	492	1658	1	149.0	836.8
1628	504	1634	1	149.0	836.8
1628	510	1632	1	149.0	836.8
1629	493	1659	1	149.0	836.8
1629	495	1631	1	149.0	836.8
1629	505	1635	1	149.0	836.8
1629	511	1633	1	149.0	836.8
1630	494	1660	1	149.0	836.8
1630	496	1632	1	149.0	836.8
1630	506	1636	1	149.0	836.8
1631	535	1650	1	149.0	836.8
1633	497	1796	1	149.0	836.8
1633	537	1651	1	149.0	836.8
1635	833	1794	1	149.0	836.8
1635	1329	2081	1	111.0	461.16
1635	1329	2082	1	111.0	461.16
1635	1329	2083	1	111.0	461.16
1637	514	1788	1	149.0	836.8
1637	530	1648	1	149.0	836.8
1637	813	1786	1	149.0	836.8
1637	851	1812	1	149.0	836.8
1638	522	1646	1	149.0	836.8
1638	524	1643	1	149.0	836.8
1639	523	1648	1	149.0	836.8
1639	526	1645	1	149.0	836.8
1639	532	1646	1	149.0	836.8
1640	516	1670	1	149.0	836.8
1640	527	1646	1	149.0	836.8
1640	533	1644	1	149.0	836.8
1641	517	1671	1	149.0	836.8
1641	519	1643	1	149.0	836.8
1641	528	1647	1	149.0	836.8
1641	534	1645	1	149.0	836.8
1642	518	1672	1	149.0	836.8
1642	520	1644	1	149.0	836.8
1642	529	1648	1	149.0	836.8
1642	1356	2162	1	111.0	461.16
1642	1356	2163	1	111.0	461.16
1642	1356	2164	1	111.0	461.16
1643	558	1654	1	149.0	836.8
1643	559	1662	1	149.0	836.8
1645	521	1808	1	149.0	836.8
1645	561	1663	1	149.0	836.8
1647	545	1649	1	149.0	836.8
1647	857	1806	1	149.0	836.8
1649	536	1800	1	149.0	836.8
1649	553	1660	1	149.0	836.8
1649	874	1824	1	149.0	836.8
1650	544	1658	1	149.0	836.8
1650	547	1655	1	149.0	836.8
1651	546	1660	1	149.0	836.8
1651	549	1657	1	149.0	836.8
1651	555	1658	1	149.0	836.8
1652	538	1682	1	149.0	836.8
1652	550	1658	1	149.0	836.8
1652	556	1656	1	149.0	836.8
1653	539	1683	1	149.0	836.8
1653	541	1655	1	149.0	836.8
1653	551	1659	1	149.0	836.8
1653	557	1657	1	149.0	836.8
1654	540	1684	1	149.0	836.8
1654	542	1656	1	149.0	836.8
1654	552	1660	1	149.0	836.8
1655	582	1674	1	149.0	836.8
1655	1330	2084	1	111.0	461.16
1655	1330	2085	1	111.0	461.16
1655	1330	2086	1	111.0	461.16
1657	543	1820	1	149.0	836.8
1657	584	1675	1	149.0	836.8
1659	55	1799	1	149.0	836.8
1659	880	1818	1	149.0	836.8
1661	560	1812	1	149.0	836.8
1661	569	1834	1	149.0	836.8
1661	577	1672	1	149.0	836.8
1661	897	1836	1	149.0	836.8
1662	568	1670	1	149.0	836.8
1662	571	1667	1	149.0	836.8
1663	570	1672	1	149.0	836.8
1663	573	1669	1	149.0	836.8
1663	579	1670	1	149.0	836.8
1664	562	1694	1	149.0	836.8
1664	574	1670	1	149.0	836.8
1664	580	1668	1	149.0	836.8
1665	563	1695	1	149.0	836.8
1665	565	1667	1	149.0	836.8
1665	575	1671	1	149.0	836.8
1665	581	1669	1	149.0	836.8
1666	564	1696	1	149.0	836.8
1666	566	1668	1	149.0	836.8
1666	576	1672	1	149.0	836.8
1666	1357	2165	1	111.0	461.16
1666	1357	2166	1	111.0	461.16
1666	1357	2167	1	111.0	461.16
1667	605	1678	1	149.0	836.8
1667	606	1686	1	149.0	836.8
1669	567	1832	1	149.0	836.8
1669	608	1687	1	149.0	836.8
1671	592	1673	1	149.0	836.8
1671	903	1830	1	149.0	836.8
1673	583	1824	1	149.0	836.8
1673	600	1684	1	149.0	836.8
1673	920	1848	1	149.0	836.8
1674	591	1682	1	149.0	836.8
1674	594	1679	1	149.0	836.8
1675	593	1684	1	149.0	836.8
1675	596	1681	1	149.0	836.8
1675	602	1682	1	149.0	836.8
1676	585	1706	1	149.0	836.8
1676	597	1682	1	149.0	836.8
1676	603	1680	1	149.0	836.8
1677	586	1707	1	149.0	836.8
1677	588	1679	1	149.0	836.8
1677	598	1683	1	149.0	836.8
1677	604	1681	1	149.0	836.8
1678	587	1708	1	149.0	836.8
1678	589	1680	1	149.0	836.8
1678	599	1684	1	149.0	836.8
1679	628	1698	1	149.0	836.8
1679	1331	2087	1	111.0	461.16
1679	1331	2088	1	111.0	461.16
1679	1331	2089	1	111.0	461.16
1681	590	1844	1	149.0	836.8
1681	630	1699	1	149.0	836.8
1683	57	1847	1	149.0	836.8
1683	926	1842	1	149.0	836.8
1685	607	1836	1	149.0	836.8
1685	623	1696	1	149.0	836.8
1685	943	1860	1	149.0	836.8
1685	1358	2168	1	111.0	461.16
1685	1358	2169	1	111.0	461.16
1685	1358	2170	1	111.0	461.16
1686	615	1694	1	149.0	836.8
1686	617	1691	1	149.0	836.8
1687	616	1696	1	149.0	836.8
1687	619	1693	1	149.0	836.8
1687	625	1694	1	149.0	836.8
1688	620	1694	1	149.0	836.8
1688	626	1692	1	149.0	836.8
1689	612	1691	1	149.0	836.8
1689	621	1695	1	149.0	836.8
1689	627	1693	1	149.0	836.8
1690	613	1692	1	149.0	836.8
1690	622	1696	1	149.0	836.8
1690	1359	2171	1	111.0	461.16
1690	1359	2172	1	111.0	461.16
1690	1359	2173	1	111.0	461.16
1691	651	1702	1	149.0	836.8
1693	614	1856	1	149.0	836.8
1695	638	1697	1	149.0	836.8
1695	949	1854	1	149.0	836.8
1697	629	1848	1	149.0	836.8
1697	646	1708	1	149.0	836.8
1697	966	1872	1	149.0	836.8
1698	637	1706	1	149.0	836.8
1698	640	1703	1	149.0	836.8
1699	639	1708	1	149.0	836.8
1699	642	1705	1	149.0	836.8
1699	648	1706	1	149.0	836.8
1700	643	1706	1	149.0	836.8
1700	649	1704	1	149.0	836.8
1701	634	1703	1	149.0	836.8
1701	644	1707	1	149.0	836.8
1701	650	1705	1	149.0	836.8
1702	635	1704	1	149.0	836.8
1702	645	1708	1	149.0	836.8
1705	636	1868	1	149.0	836.8
1707	972	1866	1	149.0	836.8
1707	1332	2090	1	111.0	461.16
1707	1332	2091	1	111.0	461.16
1707	1332	2092	1	111.0	461.16
1709	653	2028	1	149.0	836.8
1709	669	1720	1	149.0	836.8
1709	988	1884	1	149.0	836.8
1709	1360	2174	1	111.0	461.16
1709	1360	2175	1	111.0	461.16
1709	1360	2176	1	111.0	461.16
1710	652	1859	1	149.0	836.8
1710	661	1718	1	149.0	836.8
1710	663	1715	1	149.0	836.8
1711	654	1861	1	149.0	836.8
1711	662	1720	1	149.0	836.8
1711	665	1717	1	149.0	836.8
1711	671	1718	1	149.0	836.8
1712	655	1742	1	149.0	836.8
1712	666	1718	1	149.0	836.8
1712	672	1716	1	149.0	836.8
1713	656	1743	1	149.0	836.8
1713	658	1715	1	149.0	836.8
1713	667	1719	1	149.0	836.8
1713	673	1717	1	149.0	836.8
1714	657	1744	1	149.0	836.8
1714	659	1716	1	149.0	836.8
1714	668	1720	1	149.0	836.8
1715	697	1726	1	149.0	836.8
1715	698	1734	1	149.0	836.8
1717	660	1880	1	149.0	836.8
1717	700	1735	1	149.0	836.8
1718	934	1856	1	149.0	836.8
1719	684	1721	1	149.0	836.8
1719	935	1857	1	149.0	836.8
1719	994	1878	1	149.0	836.8
1720	936	1858	1	149.0	836.8
1721	675	2040	1	149.0	836.8
1721	692	1732	1	149.0	836.8
1721	1009	1896	1	149.0	836.8
1722	674	1871	1	149.0	836.8
1722	683	1730	1	149.0	836.8
1722	686	1727	1	149.0	836.8
1723	676	1873	1	149.0	836.8
1723	685	1732	1	149.0	836.8
1723	688	1729	1	149.0	836.8
1723	694	1730	1	149.0	836.8
1724	677	1754	1	149.0	836.8
1724	689	1730	1	149.0	836.8
1724	695	1728	1	149.0	836.8
1725	678	1755	1	149.0	836.8
1725	680	1727	1	149.0	836.8
1725	690	1731	1	149.0	836.8
1725	696	1729	1	149.0	836.8
1726	679	1756	1	149.0	836.8
1726	681	1728	1	149.0	836.8
1726	691	1732	1	149.0	836.8
1727	720	1746	1	149.0	836.8
1729	682	1892	1	149.0	836.8
1729	722	1747	1	149.0	836.8
1730	956	1868	1	149.0	836.8
1731	53	1895	1	149.0	836.8
1731	957	1869	1	149.0	836.8
1731	1015	1890	1	149.0	836.8
1732	958	1870	1	149.0	836.8
1733	699	1884	1	149.0	836.8
1733	715	1744	1	149.0	836.8
1733	1031	1908	1	149.0	836.8
1733	1361	2177	1	111.0	461.16
1733	1361	2178	1	111.0	461.16
1733	1361	2179	1	111.0	461.16
1734	707	1742	1	149.0	836.8
1734	709	1739	1	149.0	836.8
1735	708	1744	1	149.0	836.8
1735	711	1741	1	149.0	836.8
1735	717	1742	1	149.0	836.8
1736	701	1766	1	149.0	836.8
1736	712	1742	1	149.0	836.8
1736	718	1740	1	149.0	836.8
1737	702	1767	1	149.0	836.8
1737	704	1739	1	149.0	836.8
1737	713	1743	1	149.0	836.8
1737	719	1741	1	149.0	836.8
1738	703	1768	1	149.0	836.8
1738	705	1740	1	149.0	836.8
1738	714	1744	1	149.0	836.8
1739	743	1750	1	149.0	836.8
1739	744	1758	1	149.0	836.8
1741	706	1904	1	149.0	836.8
1741	746	1759	1	149.0	836.8
1743	730	1745	1	149.0	836.8
1743	1037	1902	1	149.0	836.8
1745	721	1896	1	149.0	836.8
1745	738	1756	1	149.0	836.8
1745	1053	1920	1	149.0	836.8
1746	729	1754	1	149.0	836.8
1746	732	1751	1	149.0	836.8
1747	731	1756	1	149.0	836.8
1747	734	1753	1	149.0	836.8
1747	740	1754	1	149.0	836.8
1748	723	1778	1	149.0	836.8
1748	735	1754	1	149.0	836.8
1748	741	1752	1	149.0	836.8
1749	724	1779	1	149.0	836.8
1749	726	1751	1	149.0	836.8
1749	736	1755	1	149.0	836.8
1749	742	1753	1	149.0	836.8
1750	725	1780	1	149.0	836.8
1750	727	1752	1	149.0	836.8
1750	737	1756	1	149.0	836.8
1751	54	1779	1	149.0	836.8
1751	766	1770	1	149.0	836.8
1753	728	1916	1	149.0	836.8
1753	768	1771	1	149.0	836.8
1755	1059	1914	1	149.0	836.8
1755	1333	2093	1	111.0	461.16
1755	1333	2094	1	111.0	461.16
1755	1333	2095	1	111.0	461.16
1757	745	1908	1	149.0	836.8
1757	761	1768	1	149.0	836.8
1757	1075	1932	1	149.0	836.8
1757	1362	2180	1	111.0	461.16
1757	1362	2181	1	111.0	461.16
1757	1362	2182	1	111.0	461.16
1758	753	1766	1	149.0	836.8
1758	755	1763	1	149.0	836.8
1759	754	1768	1	149.0	836.8
1759	757	1765	1	149.0	836.8
1759	763	1766	1	149.0	836.8
1760	747	1790	1	149.0	836.8
1760	758	1766	1	149.0	836.8
1760	764	1764	1	149.0	836.8
1761	748	1791	1	149.0	836.8
1761	750	1763	1	149.0	836.8
1761	759	1767	1	149.0	836.8
1761	765	1765	1	149.0	836.8
1762	749	1792	1	149.0	836.8
1762	751	1764	1	149.0	836.8
1762	760	1768	1	149.0	836.8
1762	1363	2183	1	111.0	461.16
1762	1363	2184	1	111.0	461.16
1762	1363	2185	1	111.0	461.16
1763	789	1774	1	149.0	836.8
1763	790	1782	1	149.0	836.8
1765	752	1928	1	149.0	836.8
1765	792	1783	1	149.0	836.8
1767	776	1769	1	149.0	836.8
1767	1081	1926	1	149.0	836.8
1769	767	1920	1	149.0	836.8
1769	784	1780	1	149.0	836.8
1769	1096	1944	1	149.0	836.8
1770	775	1778	1	149.0	836.8
1770	778	1775	1	149.0	836.8
1771	777	1780	1	149.0	836.8
1771	780	1777	1	149.0	836.8
1771	786	1778	1	149.0	836.8
1772	769	1802	1	149.0	836.8
1772	781	1778	1	149.0	836.8
1772	787	1776	1	149.0	836.8
1773	770	1803	1	149.0	836.8
1773	772	1775	1	149.0	836.8
1773	782	1779	1	149.0	836.8
1773	788	1777	1	149.0	836.8
1774	771	1804	1	149.0	836.8
1774	773	1776	1	149.0	836.8
1774	783	1780	1	149.0	836.8
1775	814	1794	1	149.0	836.8
1775	1334	2096	1	111.0	461.16
1775	1334	2097	1	111.0	461.16
1775	1334	2098	1	111.0	461.16
1777	774	1940	1	149.0	836.8
1777	816	1795	1	149.0	836.8
1779	1102	1938	1	149.0	836.8
1781	791	1932	1	149.0	836.8
1781	800	1930	1	149.0	836.8
1781	808	1792	1	149.0	836.8
1781	1118	1956	1	149.0	836.8
1782	799	1790	1	149.0	836.8
1782	802	1787	1	149.0	836.8
1783	801	1792	1	149.0	836.8
1783	804	1789	1	149.0	836.8
1783	810	1790	1	149.0	836.8
1784	793	1814	1	149.0	836.8
1784	805	1790	1	149.0	836.8
1784	811	1788	1	149.0	836.8
1785	794	1815	1	149.0	836.8
1785	796	1787	1	149.0	836.8
1785	806	1791	1	149.0	836.8
1785	812	1789	1	149.0	836.8
1786	795	1816	1	149.0	836.8
1786	797	1788	1	149.0	836.8
1786	807	1792	1	149.0	836.8
1787	837	1798	1	149.0	836.8
1787	838	1806	1	149.0	836.8
1789	798	1952	1	149.0	836.8
1789	840	1807	1	149.0	836.8
1791	824	1793	1	149.0	836.8
1791	1124	1950	1	149.0	836.8
1793	815	1944	1	149.0	836.8
1793	832	1804	1	149.0	836.8
1793	1139	1968	1	149.0	836.8
1794	823	1802	1	149.0	836.8
1794	826	1799	1	149.0	836.8
1795	825	1804	1	149.0	836.8
1795	828	1801	1	149.0	836.8
1795	834	1802	1	149.0	836.8
1796	817	1826	1	149.0	836.8
1796	829	1802	1	149.0	836.8
1796	835	1800	1	149.0	836.8
1797	818	1827	1	149.0	836.8
1797	820	1799	1	149.0	836.8
1797	830	1803	1	149.0	836.8
1797	836	1801	1	149.0	836.8
1798	819	1828	1	149.0	836.8
1798	821	1800	1	149.0	836.8
1798	831	1804	1	149.0	836.8
1799	861	1818	1	149.0	836.8
1801	822	1964	1	149.0	836.8
1801	863	1819	1	149.0	836.8
1803	1145	1962	1	149.0	836.8
1803	1335	2099	1	111.0	461.16
1803	1335	2100	1	111.0	461.16
1803	1335	2101	1	111.0	461.16
1805	839	1956	1	149.0	836.8
1805	848	1978	1	149.0	836.8
1805	856	1816	1	149.0	836.8
1805	1161	1980	1	149.0	836.8
1806	847	1814	1	149.0	836.8
1806	850	1811	1	149.0	836.8
1807	849	1816	1	149.0	836.8
1807	852	1813	1	149.0	836.8
1807	858	1814	1	149.0	836.8
1808	841	1838	1	149.0	836.8
1808	853	1814	1	149.0	836.8
1808	859	1812	1	149.0	836.8
1809	842	1839	1	149.0	836.8
1809	844	1811	1	149.0	836.8
1809	854	1815	1	149.0	836.8
1809	860	1813	1	149.0	836.8
1810	843	1840	1	149.0	836.8
1810	845	1812	1	149.0	836.8
1810	855	1816	1	149.0	836.8
1810	1364	2186	1	111.0	461.16
1810	1364	2187	1	111.0	461.16
1810	1364	2188	1	111.0	461.16
1811	884	1822	1	149.0	836.8
1811	885	1830	1	149.0	836.8
1813	846	1976	1	149.0	836.8
1813	887	1831	1	149.0	836.8
1815	871	1817	1	149.0	836.8
1815	1167	1974	1	149.0	836.8
1817	862	1968	1	149.0	836.8
1817	879	1828	1	149.0	836.8
1817	1182	1992	1	149.0	836.8
1818	870	1826	1	149.0	836.8
1818	873	1823	1	149.0	836.8
1819	872	1828	1	149.0	836.8
1819	875	1825	1	149.0	836.8
1819	881	1826	1	149.0	836.8
1820	864	1850	1	149.0	836.8
1820	876	1826	1	149.0	836.8
1820	882	1824	1	149.0	836.8
1821	865	1851	1	149.0	836.8
1821	867	1823	1	149.0	836.8
1821	877	1827	1	149.0	836.8
1821	883	1825	1	149.0	836.8
1822	866	1852	1	149.0	836.8
1822	868	1824	1	149.0	836.8
1822	878	1828	1	149.0	836.8
1823	907	1842	1	149.0	836.8
1823	1336	2102	1	111.0	461.16
1823	1336	2103	1	111.0	461.16
1823	1336	2104	1	111.0	461.16
1825	869	1988	1	149.0	836.8
1825	909	1843	1	149.0	836.8
1827	56	1967	1	149.0	836.8
1827	1188	1986	1	149.0	836.8
1829	886	1980	1	149.0	836.8
1829	902	1840	1	149.0	836.8
1829	1204	2004	1	149.0	836.8
1829	1365	2189	1	111.0	461.16
1829	1365	2190	1	111.0	461.16
1829	1365	2191	1	111.0	461.16
1830	894	1838	1	149.0	836.8
1830	896	1835	1	149.0	836.8
1831	895	1840	1	149.0	836.8
1831	898	1837	1	149.0	836.8
1831	904	1838	1	149.0	836.8
1832	888	1862	1	149.0	836.8
1832	899	1838	1	149.0	836.8
1832	905	1836	1	149.0	836.8
1833	889	1863	1	149.0	836.8
1833	891	1835	1	149.0	836.8
1833	900	1839	1	149.0	836.8
1833	906	1837	1	149.0	836.8
1834	890	1864	1	149.0	836.8
1834	892	1836	1	149.0	836.8
1834	901	1840	1	149.0	836.8
1835	930	1846	1	149.0	836.8
1835	931	1854	1	149.0	836.8
1837	893	2000	1	149.0	836.8
1837	933	1855	1	149.0	836.8
1839	917	1841	1	149.0	836.8
1839	1210	1998	1	149.0	836.8
1841	908	1992	1	149.0	836.8
1841	925	1852	1	149.0	836.8
1841	1225	2016	1	149.0	836.8
1842	916	1850	1	149.0	836.8
1842	919	1847	1	149.0	836.8
1843	918	1852	1	149.0	836.8
1843	921	1849	1	149.0	836.8
1843	927	1850	1	149.0	836.8
1844	910	1874	1	149.0	836.8
1844	922	1850	1	149.0	836.8
1844	928	1848	1	149.0	836.8
1845	911	1875	1	149.0	836.8
1845	913	1847	1	149.0	836.8
1845	923	1851	1	149.0	836.8
1845	929	1849	1	149.0	836.8
1846	912	1876	1	149.0	836.8
1846	914	1848	1	149.0	836.8
1846	924	1852	1	149.0	836.8
1847	953	1866	1	149.0	836.8
1849	915	2012	1	149.0	836.8
1849	955	1867	1	149.0	836.8
1851	1231	2010	1	149.0	836.8
1851	1337	2105	1	111.0	461.16
1851	1337	2106	1	111.0	461.16
1851	1337	2107	1	111.0	461.16
1853	932	2004	1	149.0	836.8
1853	948	1864	1	149.0	836.8
1853	1247	2028	1	149.0	836.8
1853	1366	2192	1	111.0	461.16
1853	1366	2193	1	111.0	461.16
1853	1366	2194	1	111.0	461.16
1854	940	1862	1	149.0	836.8
1854	942	1859	1	149.0	836.8
1855	941	1864	1	149.0	836.8
1855	944	1861	1	149.0	836.8
1855	950	1862	1	149.0	836.8
1856	945	1862	1	149.0	836.8
1856	951	1860	1	149.0	836.8
1857	937	1859	1	149.0	836.8
1857	946	1863	1	149.0	836.8
1857	952	1861	1	149.0	836.8
1858	938	1860	1	149.0	836.8
1858	947	1864	1	149.0	836.8
1858	1367	2195	1	111.0	461.16
1858	1367	2196	1	111.0	461.16
1858	1367	2197	1	111.0	461.16
1859	976	1870	1	149.0	836.8
1861	939	2024	1	149.0	836.8
1863	963	1865	1	149.0	836.8
1863	1253	2022	1	149.0	836.8
1865	954	2016	1	149.0	836.8
1865	971	1876	1	149.0	836.8
1865	1268	2040	1	149.0	836.8
1866	962	1874	1	149.0	836.8
1866	965	1871	1	149.0	836.8
1867	964	1876	1	149.0	836.8
1867	967	1873	1	149.0	836.8
1867	973	1874	1	149.0	836.8
1868	968	1874	1	149.0	836.8
1868	974	1872	1	149.0	836.8
1869	959	1871	1	149.0	836.8
1869	969	1875	1	149.0	836.8
1869	975	1873	1	149.0	836.8
1870	960	1872	1	149.0	836.8
1870	970	1876	1	149.0	836.8
1871	1338	2108	1	111.0	461.16
1871	1338	2109	1	111.0	461.16
1871	1338	2110	1	111.0	461.16
1873	961	2036	1	149.0	836.8
1875	58	2015	1	149.0	836.8
1875	1274	2034	1	149.0	836.8
1877	993	1888	1	149.0	836.8
1877	1370	2204	1	111.0	461.16
1877	1370	2205	1	111.0	461.16
1877	1370	2206	1	111.0	461.16
1878	977	2027	1	149.0	836.8
1878	985	1886	1	149.0	836.8
1878	987	1883	1	149.0	836.8
1879	978	2029	1	149.0	836.8
1879	986	1888	1	149.0	836.8
1879	989	1885	1	149.0	836.8
1879	995	1886	1	149.0	836.8
1880	979	1910	1	149.0	836.8
1880	990	1886	1	149.0	836.8
1880	996	1884	1	149.0	836.8
1881	980	1911	1	149.0	836.8
1881	982	1883	1	149.0	836.8
1881	991	1887	1	149.0	836.8
1881	997	1885	1	149.0	836.8
1882	981	1912	1	149.0	836.8
1882	983	1884	1	149.0	836.8
1882	992	1888	1	149.0	836.8
1882	1368	2198	1	111.0	461.16
1882	1368	2199	1	111.0	461.16
1882	1368	2200	1	111.0	461.16
1883	1019	1894	1	149.0	836.8
1883	1020	1902	1	149.0	836.8
1885	1021	1903	1	149.0	836.8
1886	1238	2024	1	149.0	836.8
1887	1239	2025	1	149.0	836.8
1887	1281	1889	1	149.0	836.8
1888	1240	2026	1	149.0	836.8
1889	1014	1900	1	149.0	836.8
1890	998	2039	1	149.0	836.8
1890	1006	1898	1	149.0	836.8
1890	1008	1895	1	149.0	836.8
1891	999	2041	1	149.0	836.8
1891	1007	1900	1	149.0	836.8
1891	1010	1897	1	149.0	836.8
1891	1016	1898	1	149.0	836.8
1892	1000	1922	1	149.0	836.8
1892	1011	1898	1	149.0	836.8
1892	1017	1896	1	149.0	836.8
1893	1001	1923	1	149.0	836.8
1893	1003	1895	1	149.0	836.8
1893	1012	1899	1	149.0	836.8
1893	1018	1897	1	149.0	836.8
1894	1002	1924	1	149.0	836.8
1894	1004	1896	1	149.0	836.8
1894	1013	1900	1	149.0	836.8
1895	1042	1914	1	149.0	836.8
1897	1043	1915	1	149.0	836.8
1898	1259	2036	1	149.0	836.8
1899	1260	2037	1	149.0	836.8
1899	1343	2123	1	111.0	461.16
1899	1343	2124	1	111.0	461.16
1899	1343	2125	1	111.0	461.16
1900	1261	2038	1	149.0	836.8
1901	1036	1912	1	149.0	836.8
1901	1041	1906	1	149.0	836.8
1902	1028	1910	1	149.0	836.8
1902	1030	1907	1	149.0	836.8
1903	1029	1912	1	149.0	836.8
1903	1032	1909	1	149.0	836.8
1903	1038	1910	1	149.0	836.8
1904	1022	1934	1	149.0	836.8
1904	1033	1910	1	149.0	836.8
1904	1039	1908	1	149.0	836.8
1905	1023	1935	1	149.0	836.8
1905	1025	1907	1	149.0	836.8
1905	1034	1911	1	149.0	836.8
1905	1040	1909	1	149.0	836.8
1906	1024	1936	1	149.0	836.8
1906	1026	1908	1	149.0	836.8
1906	1035	1912	1	149.0	836.8
1907	1063	1918	1	149.0	836.8
1907	1064	1926	1	149.0	836.8
1909	1065	1927	1	149.0	836.8
1911	1284	1913	1	149.0	836.8
1913	1058	1924	1	149.0	836.8
1914	1050	1922	1	149.0	836.8
1914	1052	1919	1	149.0	836.8
1915	1051	1924	1	149.0	836.8
1915	1054	1921	1	149.0	836.8
1915	1060	1922	1	149.0	836.8
1916	1044	1946	1	149.0	836.8
1916	1055	1922	1	149.0	836.8
1916	1061	1920	1	149.0	836.8
1917	1045	1947	1	149.0	836.8
1917	1047	1919	1	149.0	836.8
1917	1056	1923	1	149.0	836.8
1917	1062	1921	1	149.0	836.8
1918	1046	1948	1	149.0	836.8
1918	1048	1920	1	149.0	836.8
1918	1057	1924	1	149.0	836.8
1919	1085	1938	1	149.0	836.8
1919	1339	2111	1	111.0	461.16
1919	1339	2112	1	111.0	461.16
1919	1339	2113	1	111.0	461.16
1921	1086	1939	1	149.0	836.8
1925	1080	1936	1	149.0	836.8
1925	1371	2207	1	111.0	461.16
1925	1371	2208	1	111.0	461.16
1925	1371	2209	1	111.0	461.16
1926	1072	1934	1	149.0	836.8
1926	1074	1931	1	149.0	836.8
1927	1073	1936	1	149.0	836.8
1927	1076	1933	1	149.0	836.8
1927	1082	1934	1	149.0	836.8
1928	1066	1958	1	149.0	836.8
1928	1077	1934	1	149.0	836.8
1928	1083	1932	1	149.0	836.8
1929	1067	1959	1	149.0	836.8
1929	1069	1931	1	149.0	836.8
1929	1078	1935	1	149.0	836.8
1929	1084	1933	1	149.0	836.8
1930	1068	1960	1	149.0	836.8
1930	1070	1932	1	149.0	836.8
1930	1079	1936	1	149.0	836.8
1931	1106	1942	1	149.0	836.8
1931	1107	1950	1	149.0	836.8
1933	1108	1951	1	149.0	836.8
1935	1287	1937	1	149.0	836.8
1937	1101	1948	1	149.0	836.8
1938	1093	1946	1	149.0	836.8
1938	1095	1943	1	149.0	836.8
1939	1094	1948	1	149.0	836.8
1939	1097	1945	1	149.0	836.8
1939	1103	1946	1	149.0	836.8
1940	1087	1970	1	149.0	836.8
1940	1098	1946	1	149.0	836.8
1940	1104	1944	1	149.0	836.8
1941	1088	1971	1	149.0	836.8
1941	1090	1943	1	149.0	836.8
1941	1099	1947	1	149.0	836.8
1941	1105	1945	1	149.0	836.8
1942	1089	1972	1	149.0	836.8
1942	1091	1944	1	149.0	836.8
1942	1100	1948	1	149.0	836.8
1943	1128	1962	1	149.0	836.8
1943	1340	2114	1	111.0	461.16
1943	1340	2115	1	111.0	461.16
1943	1340	2116	1	111.0	461.16
1945	1129	1963	1	149.0	836.8
1949	1123	1960	1	149.0	836.8
1950	1115	1958	1	149.0	836.8
1950	1117	1955	1	149.0	836.8
1951	1116	1960	1	149.0	836.8
1951	1119	1957	1	149.0	836.8
1951	1125	1958	1	149.0	836.8
1952	1109	1982	1	149.0	836.8
1952	1120	1958	1	149.0	836.8
1952	1126	1956	1	149.0	836.8
1953	1110	1983	1	149.0	836.8
1953	1112	1955	1	149.0	836.8
1953	1121	1959	1	149.0	836.8
1953	1127	1957	1	149.0	836.8
1954	1111	1984	1	149.0	836.8
1954	1113	1956	1	149.0	836.8
1954	1122	1960	1	149.0	836.8
1954	1369	2201	1	111.0	461.16
1954	1369	2202	1	111.0	461.16
1954	1369	2203	1	111.0	461.16
1955	1149	1966	1	149.0	836.8
1955	1150	1974	1	149.0	836.8
1957	1151	1975	1	149.0	836.8
1959	1291	1961	1	149.0	836.8
1961	1144	1972	1	149.0	836.8
1962	1136	1970	1	149.0	836.8
1962	1138	1967	1	149.0	836.8
1963	1137	1972	1	149.0	836.8
1963	1140	1969	1	149.0	836.8
1963	1146	1970	1	149.0	836.8
1964	1130	1994	1	149.0	836.8
1964	1141	1970	1	149.0	836.8
1964	1147	1968	1	149.0	836.8
1965	1131	1995	1	149.0	836.8
1965	1133	1967	1	149.0	836.8
1965	1142	1971	1	149.0	836.8
1965	1148	1969	1	149.0	836.8
1966	1132	1996	1	149.0	836.8
1966	1134	1968	1	149.0	836.8
1966	1143	1972	1	149.0	836.8
1967	1171	1986	1	149.0	836.8
1969	1172	1987	1	149.0	836.8
1971	1344	2126	1	111.0	461.16
1971	1344	2127	1	111.0	461.16
1971	1344	2128	1	111.0	461.16
1973	1166	1984	1	149.0	836.8
1973	1372	2210	1	111.0	461.16
1973	1372	2211	1	111.0	461.16
1973	1372	2212	1	111.0	461.16
1974	1158	1982	1	149.0	836.8
1974	1160	1979	1	149.0	836.8
1975	1159	1984	1	149.0	836.8
1975	1162	1981	1	149.0	836.8
1975	1168	1982	1	149.0	836.8
1976	1152	2006	1	149.0	836.8
1976	1163	1982	1	149.0	836.8
1976	1169	1980	1	149.0	836.8
1977	1153	2007	1	149.0	836.8
1977	1155	1979	1	149.0	836.8
1977	1164	1983	1	149.0	836.8
1977	1170	1981	1	149.0	836.8
1978	1154	2008	1	149.0	836.8
1978	1156	1980	1	149.0	836.8
1978	1165	1984	1	149.0	836.8
1979	1192	1990	1	149.0	836.8
1979	1193	1998	1	149.0	836.8
1981	1194	1999	1	149.0	836.8
1983	1294	1985	1	149.0	836.8
1985	1187	1996	1	149.0	836.8
1986	1179	1994	1	149.0	836.8
1986	1181	1991	1	149.0	836.8
1987	1180	1996	1	149.0	836.8
1987	1183	1993	1	149.0	836.8
1987	1189	1994	1	149.0	836.8
1988	1173	2018	1	149.0	836.8
1988	1184	1994	1	149.0	836.8
1988	1190	1992	1	149.0	836.8
1989	1174	2019	1	149.0	836.8
1989	1176	1991	1	149.0	836.8
1989	1185	1995	1	149.0	836.8
1989	1191	1993	1	149.0	836.8
1990	1175	2020	1	149.0	836.8
1990	1177	1992	1	149.0	836.8
1990	1186	1996	1	149.0	836.8
1991	1214	2010	1	149.0	836.8
1991	1341	2117	1	111.0	461.16
1991	1341	2118	1	111.0	461.16
1991	1341	2119	1	111.0	461.16
1993	1215	2011	1	149.0	836.8
1997	1209	2008	1	149.0	836.8
1997	1296	2002	1	149.0	836.8
1998	1201	2006	1	149.0	836.8
1998	1203	2003	1	149.0	836.8
1999	1202	2008	1	149.0	836.8
1999	1205	2005	1	149.0	836.8
1999	1211	2006	1	149.0	836.8
2000	1195	2030	1	149.0	836.8
2000	1206	2006	1	149.0	836.8
2000	1212	2004	1	149.0	836.8
2001	1196	2031	1	149.0	836.8
2001	1198	2003	1	149.0	836.8
2001	1207	2007	1	149.0	836.8
2001	1213	2005	1	149.0	836.8
2002	1197	2032	1	149.0	836.8
2002	1199	2004	1	149.0	836.8
2002	1208	2008	1	149.0	836.8
2003	1235	2014	1	149.0	836.8
2003	1236	2022	1	149.0	836.8
2005	1237	2023	1	149.0	836.8
2007	1298	2009	1	149.0	836.8
2009	1230	2020	1	149.0	836.8
2010	1222	2018	1	149.0	836.8
2010	1224	2015	1	149.0	836.8
2011	1223	2020	1	149.0	836.8
2011	1226	2017	1	149.0	836.8
2011	1232	2018	1	149.0	836.8
2012	1216	2042	1	149.0	836.8
2012	1227	2018	1	149.0	836.8
2012	1233	2016	1	149.0	836.8
2013	1217	2043	1	149.0	836.8
2013	1219	2015	1	149.0	836.8
2013	1228	2019	1	149.0	836.8
2013	1234	2017	1	149.0	836.8
2014	1218	2044	1	149.0	836.8
2014	1220	2016	1	149.0	836.8
2014	1229	2020	1	149.0	836.8
2015	1257	2034	1	149.0	836.8
2017	1258	2035	1	149.0	836.8
2019	1345	2129	1	111.0	461.16
2019	1345	2130	1	111.0	461.16
2019	1345	2131	1	111.0	461.16
2021	1252	2032	1	149.0	836.8
2021	1300	2026	1	149.0	836.8
2022	1244	2030	1	149.0	836.8
2022	1246	2027	1	149.0	836.8
2023	1245	2032	1	149.0	836.8
2023	1248	2029	1	149.0	836.8
2023	1254	2030	1	149.0	836.8
2024	1249	2030	1	149.0	836.8
2024	1255	2028	1	149.0	836.8
2025	1241	2027	1	149.0	836.8
2025	1250	2031	1	149.0	836.8
2025	1256	2029	1	149.0	836.8
2026	1242	2028	1	149.0	836.8
2026	1251	2032	1	149.0	836.8
2027	1278	2038	1	149.0	836.8
2031	1302	2033	1	149.0	836.8
2033	1273	2044	1	149.0	836.8
2034	1265	2042	1	149.0	836.8
2034	1267	2039	1	149.0	836.8
2035	1266	2044	1	149.0	836.8
2035	1269	2041	1	149.0	836.8
2035	1275	2042	1	149.0	836.8
2036	1270	2042	1	149.0	836.8
2036	1276	2040	1	149.0	836.8
2037	1262	2039	1	149.0	836.8
2037	1271	2043	1	149.0	836.8
2037	1277	2041	1	149.0	836.8
2038	1263	2040	1	149.0	836.8
2038	1272	2044	1	149.0	836.8
2039	1342	2120	1	111.0	461.16
2039	1342	2121	1	111.0	461.16
2039	1342	2122	1	111.0	461.16
2045	1317	2046	1	108.0	419.83
2045	1317	2047	1	108.0	419.83
2046	1317	2047	1	108.0	419.83
2048	1318	2049	1	108.0	419.83
2048	1318	2050	1	108.0	419.83
2049	1318	2050	1	108.0	419.83
2051	1319	2052	1	108.0	419.83
2051	1319	2053	1	108.0	419.83
2052	1319	2053	1	108.0	419.83
2054	1320	2055	1	108.0	419.83
2054	1320	2056	1	108.0	419.83
2055	1320	2056	1	108.0	419.83
2057	1321	2058	1	108.0	419.83
2057	1321	2059	1	108.0	419.83
2058	1321	2059	1	108.0	419.83
2060	1322	2061	1	108.0	419.83
2060	1322	2062	1	108.0	419.83
2061	1322	2062	1	108.0	419.83
2063	1323	2064	1	108.0	419.83
2063	1323	2065	1	108.0	419.83
2064	1323	2065	1	108.0	419.83
2066	1324	2067	1	108.0	419.83
2066	1324	2068	1	108.0	419.83
2067	1324	2068	1	108.0	419.83
2069	1325	2070	1	108.0	419.83
2069	1325	2071	1	108.0	419.83
2070	1325	2071	1	108.0	419.83
2072	1326	2073	1	108.0	419.83
2072	1326	2074	1	108.0	419.83
2073	1326	2074	1	108.0	419.83
2075	1327	2076	1	108.0	419.83
2075	1327	2077	1	108.0	419.83
2076	1327	2077	1	108.0	419.83
2078	1328	2079	1	108.0	419.83
2078	1328	2080	1	108.0	419.83
2079	1328	2080	1	108.0	419.83
2081	1329	2082	1	108.0	419.83
2081	1329	2083	1	108.0	419.83
2082	1329	2083	1	108.0	419.83
2084	1330	2085	1	108.0	419.83
2084	1330	2086	1	108.0	419.83
2085	1330	2086	1	108.0	419.83
2087	1331	2088	1	108.0	419.83
2087	1331	2089	1	108.0	419.83
2088	1331	2089	1	108.0	419.83
2090	1332	2091	1	108.0	419.83
2090	1332	2092	1	108.0	419.83
2091	1332	2092	1	108.0	419.83
2093	1333	2094	1	108.0	419.83
2093	1333	2095	1	108.0	419.83
2094	1333	2095	1	108.0	419.83
2096	1334	2097	1	108.0	419.83
2096	1334	2098	1	108.0	419.83
2097	1334	2098	1	108.0	419.83
2099	1335	2100	1	108.0	419.83
2099	1335	2101	1	108.0	419.83
2100	1335	2101	1	108.0	419.83
2102	1336	2103	1	108.0	419.83
2102	1336	2104	1	108.0	419.83
2103	1336	2104	1	108.0	419.83
2105	1337	2106	1	108.0	419.83
2105	1337	2107	1	108.0	419.83
2106	1337	2107	1	108.0	419.83
2108	1338	2109	1	108.0	419.83
2108	1338	2110	1	108.0	419.83
2109	1338	2110	1	108.0	419.83
2111	1339	2112	1	108.0	419.83
2111	1339	2113	1	108.0	419.83
2112	1339	2113	1	108.0	419.83
2114	1340	2115	1	108.0	419.83
2114	1340	2116	1	108.0	419.83
2115	1340	2116	1	108.0	419.83
2117	1341	2118	1	108.0	419.83
2117	1341	2119	1	108.0	419.83
2118	1341	2119	1	108.0	419.83
2120	1342	2121	1	108.0	419.83
2120	1342	2122	1	108.0	419.83
2121	1342	2122	1	108.0	419.83
2123	1343	2124	1	108.0	419.83
2123	1343	2125	1	108.0	419.83
2124	1343	2125	1	108.0	419.83
2126	1344	2127	1	108.0	419.83
2126	1344	2128	1	108.0	419.83
2127	1344	2128	1	108.0	419.83
2129	1345	2130	1	108.0	419.83
2129	1345	2131	1	108.0	419.83
2130	1345	2131	1	108.0	419.83
2132	1346	2133	1	108.0	419.83
2132	1346	2134	1	108.0	419.83
2133	1346	2134	1	108.0	419.83
2135	1347	2136	1	108.0	419.83
2135	1347	2137	1	108.0	419.83
2136	1347	2137	1	108.0	419.83
2138	1348	2139	1	108.0	419.83
2138	1348	2140	1	108.0	419.83
2139	1348	2140	1	108.0	419.83
2141	1349	2142	1	108.0	419.83
2141	1349	2143	1	108.0	419.83
2142	1349	2143	1	108.0	419.83
2144	1350	2145	1	108.0	419.83
2144	1350	2146	1	108.0	419.83
2145	1350	2146	1	108.0	419.83
2147	1351	2148	1	108.0	419.83
2147	1351	2149	1	108.0	419.83
2148	1351	2149	1	108.0	419.83
2150	1352	2151	1	108.0	419.83
2150	1352	2152	1	108.0	419.83
2151	1352	2152	1	108.0	419.83
2153	1353	2154	1	108.0	419.83
2153	1353	2155	1	108.0	419.83
2154	1353	2155	1	108.0	419.83
2156	1354	2157	1	108.0	419.83
2156	1354	2158	1	108.0	419.83
2157	1354	2158	1	108.0	419.83
2159	1355	2160	1	108.0	419.83
2159	1355	2161	1	108.0	419.83
2160	1355	2161	1	108.0	419.83
2162	1356	2163	1	108.0	419.83
2162	1356	2164	1	108.0	419.83
2163	1356	2164	1	108.0	419.83
2165	1357	2166	1	108.0	419.83
2165	1357	2167	1	108.0	419.83
2166	1357	2167	1	108.0	419.83
2168	1358	2169	1	108.0	419.83
2168	1358	2170	1	108.0	419.83
2169	1358	2170	1	108.0	419.83
2171	1359	2172	1	108.0	419.83
2171	1359	2173	1	108.0	419.83
2172	1359	2173	1	108.0	419.83
2174	1360	2175	1	108.0	419.83
2174	1360	2176	1	108.0	419.83
2175	1360	2176	1	108.0	419.83
2177	1361	2178	1	108.0	419.83
2177	1361	2179	1	108.0	419.83
2178	1361	2179	1	108.0	419.83
2180	1362	2181	1	108.0	419.83
2180	1362	2182	1	108.0	419.83
2181	1362	2182	1	108.0	419.83
2183	1363	2184	1	108.0	419.83
2183	1363	2185	1	108.0	419.83
2184	1363	2185	1	108.0	419.83
2186	1364	2187	1	108.0	419.83
2186	1364	2188	1	108.0	419.83
2187	1364	2188	1	108.0	419.83
2189	1365	2190	1	108.0	419.83
2189	1365	2191	1	108.0	419.83
2190	1365	2191	1	108.0	419.83
2192	1366	2193	1	108.0	419.83
2192	1366	2194	1	108.0	419.83
2193	1366	2194	1	108.0	419.83
2195	1367	2196	1	108.0	419.83
2195	1367	2197	1	108.0	419.83
2196	1367	2197	1	108.0	419.83
2198	1368	2199	1	108.0	419.83
2198	1368	2200	1	108.0	419.83
2199	1368	2200	1	108.0	419.83
2201	1369	2202	1	108.0	419.83
2201	1369	2203	1	108.0	419.83
2202	1369	2203	1	108.0	419.83
2204	1370	2205	1	108.0	419.83
2204	1370	2206	1	108.0	419.83
2205	1370	2206	1	108.0	419.83
2207	1371	2208	1	108.0	419.83
2207	1371	2209	1	108.0	419.83
2208	1371	2209	1	108.0	419.83
2210	1372	2211	1	108.0	419.83
2210	1372	2212	1	108.0	419.83
2211	1372	2212	1	108.0	419.83
