Water-ethanol mixture in organosilica
15090
    1Sil     Ob    1   0.425   1.007  11.187  0.0281 -0.0134  0.0357
    1Sil     Ob    2   1.032   1.008  10.375  0.4341  0.6538  0.0967
    1Sil     Ob    3   0.227   1.500  10.757  0.2266  0.1509 -0.2444
    1Sil     Ob    4   0.777   1.497  11.133  0.4118 -0.1005 -0.1777
    1Sil     Ob    5   0.599   1.398  10.363  0.4592  0.1749 -0.4986
    1Sil     Ob    6   0.609   1.332  11.202  0.7945  0.4419 -0.5973
    1Sil     Ob    7   0.357   1.332  10.412 -0.3250 -0.4497 -0.2112
    1Sil     Ob    8   0.909   1.304  10.811  0.0094 -0.7296  0.3529
    1Sil     Ob    9   0.401   1.073  10.936 -0.2560 -0.6950  0.0150
    1Sil     Ob   10   0.691   1.069  10.543  0.0130  0.2062 -0.0517
    1Sil     Ob   11   0.381   1.250  11.110 -0.0758 -0.0669  0.6935
    1Sil     Ob   12   0.121   1.262  10.336 -0.4268  0.1992 -0.6423
    1Sil     Ob   13   0.713   1.142  10.784 -0.1662 -0.5424 -0.3571
    1Sil     Ob   14   0.313   1.253  10.756 -0.5099  0.1574 -0.1223
    1Sil     Ob   15   0.852   1.253  11.163 -0.2931  0.2343 -0.2423
    1Sil     Ob   16   0.537   1.152  10.351  0.1942 -0.5556  0.0854
    1Sil     Ob   17   0.779   1.081  10.295 -0.0976  0.3596  0.0002
    1Sil     Ob   18   0.193   1.081  11.089  0.1910 -0.2958  0.2791
    1Sil     Ob   19   0.488   1.068  10.687  0.7803 -0.4240  0.5182
    1Sil     Ob   20   0.146   1.335  10.572 -0.2347 -0.2558  0.0264
    1Sil     Ob   21   0.701   1.322  10.967 -0.3054 -0.0068 -0.1456
    1Sil     Ob   22   0.384   0.999  12.367 -0.0455 -0.4164 -0.5082
    1Sil     Ob   23   0.955   0.996  11.565 -0.0905  0.3017 -0.1794
    1Sil     Ob   24   0.186   1.500  11.937  0.0989 -0.9310 -0.0811
    1Sil     Ob   25   0.728   1.500  12.335  0.6968  1.3704 -0.4631
    1Sil     Ob   26   0.553   1.391  11.552  0.0973  0.0556  0.1122
    1Sil     Ob   27   0.551   1.319  12.407 -0.4402  0.2353  0.3265
    1Sil     Ob   28   0.309   1.323  11.593  0.2203 -0.0385 -0.0634
    1Sil     Ob   29   0.851   1.296  12.010  0.5496  0.1026  0.5626
    1Sil     Ob   30   0.330   1.069  12.129  0.5346  0.5184  0.0928
    1Sil     Ob   31   0.925   1.080  11.323  0.1359  0.2545 -0.3869
    1Sil     Ob   32   0.619   1.095  11.734  0.3922  0.4197 -0.3220
    1Sil     Ob   33   0.320   1.246  12.311 -0.5792 -0.3724  0.2706
    1Sil     Ob   34   0.073   1.259  11.518 -0.0011  0.3988 -0.0905
    1Sil     Ob   35   0.646   1.144  11.991  0.2489 -0.2022 -0.7268
    1Sil     Ob   36   0.251   1.248  11.956  0.2197  0.5606 -0.0202
    1Sil     Ob   37   0.809   1.261  12.356  0.1221 -0.0576  0.3864
    1Sil     Ob   38   0.478   1.140  11.513 -0.6082 -0.4170 -0.3647
    1Sil     Ob   39   0.719   1.067  11.489 -0.3064 -0.4277  0.4606
    1Sil     Ob   40   0.136   1.061  12.291 -0.4095 -0.0352 -0.2068
    1Sil     Ob   41   0.423   1.064  11.885  0.2598 -0.2897  0.0457
    1Sil     Ob   42   0.107   1.318  11.761  0.3239  0.2129  0.0723
    1Sil     Ob   43   0.641   1.324  12.163 -0.0142 -0.1614  0.0014
    1Sil     Ob   44   0.399   1.327  11.352  0.5875 -0.3450 -0.1813
    1Sil     Ob   45   0.420   1.506  11.178  0.3875  0.2426  0.1524
    1Sil     Ob   46   1.020   1.502  10.390 -0.5558 -0.8453  0.0580
    1Sil     Ob   47   0.677   1.387  10.714 -0.4580 -0.5129 -0.3391
    1Sil     Ob   48   0.245   1.992  10.743  0.5951 -0.4794 -0.2865
    1Sil     Ob   49   0.790   1.996  11.125 -0.3328 -0.2227 -0.0249
    1Sil     Ob   50   0.615   1.891  10.371 -0.9437  0.0959 -0.0785
    1Sil     Ob   51   0.605   1.839  11.217 -0.2500 -0.6568  0.1947
    1Sil     Ob   52   0.362   1.828  10.421  0.8416  0.8748 -0.1109
    1Sil     Ob   53   0.896   1.815  10.813 -0.1889 -0.2868 -0.0330
    1Sil     Ob   54   0.385   1.564  10.935  0.0918  0.2605 -0.2796
    1Sil     Ob   55   0.683   1.564  10.535  0.2537  0.3249 -0.3952
    1Sil     Ob   56   0.378   1.755  11.120  0.6335  0.5150 -0.2580
    1Sil     Ob   57   0.136   1.754  10.327  0.8244  0.3443  0.1142
    1Sil     Ob   58   0.698   1.629  10.787 -0.0279 -0.0262  0.1866
    1Sil     Ob   59   0.320   1.739  10.755  0.5188  0.3666 -0.3006
    1Sil     Ob   60   0.846   1.752  11.172  0.0678  1.5200  0.4867
    1Sil     Ob   61   0.529   1.651  10.349  0.4057 -0.5460 -0.4489
    1Sil     Ob   62   0.785   1.574  10.293  0.5953  0.5570  0.4695
    1Sil     Ob   63   0.191   1.584  11.098 -0.3467  0.1659  0.0848
    1Sil     Ob   64   0.472   1.538  10.692  0.4033 -0.5253  0.0002
    1Sil     Ob   65   0.154   1.823  10.574  0.5869  0.2301 -0.0774
    1Sil     Ob   66   0.691   1.806  10.970  0.3504 -0.1250  0.0162
    1Sil     Ob   67   0.363   1.490  12.382  0.3709 -0.0091  0.1511
    1Sil     Ob   68   0.950   1.494  11.577  0.2753  0.3563 -0.1733
    1Sil     Ob   69   0.629   1.388  11.904  0.4524 -0.3007 -0.0806
    1Sil     Ob   70   0.195   1.980  11.939  0.7415  0.8138 -0.4268
    1Sil     Ob   71   0.745   1.979  12.301  0.9244 -0.0690  0.1604
    1Sil     Ob   72   0.552   1.893  11.549  0.1295  0.0160 -0.4932
    1Sil     Ob   73   0.561   1.822  12.399 -0.1430 -0.2084  0.8504
    1Sil     Ob   74   0.303   1.823  11.606  0.4029  0.6093  0.6083
    1Sil     Ob   75   0.852   1.802  12.008 -0.0186 -0.3260 -0.5987
    1Sil     Ob   76   0.337   1.579  12.133 -0.3608  0.2160  0.0943
    1Sil     Ob   77   0.918   1.570  11.334 -0.1825  1.2169  0.1023
    1Sil     Ob   78   0.631   1.571  11.724 -0.7130  0.0368 -0.1775
    1Sil     Ob   79   0.312   1.743  12.335 -0.1993  0.0110  0.2925
    1Sil     Ob   80   0.066   1.748  11.524 -0.3057 -0.1181 -0.3407
    1Sil     Ob   81   0.661   1.632  11.967  0.0895 -0.7887  0.9606
    1Sil     Ob   82   0.258   1.734  11.939 -0.2526 -0.1518  0.2698
    1Sil     Ob   83   0.799   1.748  12.357 -0.0281 -0.2244 -0.3851
    1Sil     Ob   84   0.472   1.640  11.535 -0.6135  0.5853 -0.1859
    1Sil     Ob   85   0.713   1.581  11.486  0.4598  0.2537  0.4336
    1Sil     Ob   86   0.137   1.577  12.295 -0.5772 -0.1871  0.5921
    1Sil     Ob   87   0.425   1.559  11.886 -0.0939 -0.1356  0.0519
    1Sil     Ob   88   0.100   1.824  11.757 -0.2205 -0.0167 -0.0758
    1Sil     Ob   89   0.640   1.797  12.151  0.4456 -0.3657  0.1755
    1Sil     Ob   90   0.394   1.825  11.364 -0.3229  0.3062  0.3314
    1Sil     Ob   91   0.405   2.006  11.193 -0.1710  0.1526 -0.4378
    1Sil     Ob   92   1.001   2.000  10.389  0.0517  0.2185  0.2351
    1Sil     Ob   93   0.660   1.891  10.732 -0.4531  0.1884  0.2562
    1Sil     Ob   94   0.247   2.495  10.741  0.7317  0.1301 -0.0285
    1Sil     Ob   95   0.774   2.485  11.141 -0.4553 -0.1018  0.3230
    1Sil     Ob   96   0.608   2.377  10.354 -0.5978  0.2618 -0.2251
    1Sil     Ob   97   0.610   2.298  11.206 -0.0718  0.3240 -0.4289
    1Sil     Ob   98   0.354   2.299  10.405  0.2086 -0.1993 -0.1241
    1Sil     Ob   99   0.906   2.312  10.809  0.2475 -0.2324  0.2601
    1Sil     Ob  100   0.404   2.081  10.939 -0.1915  0.2359 -0.5344
    1Sil     Ob  101   0.680   2.074  10.537 -0.2255 -0.2460  0.2840
    1Sil     Ob  102   0.370   2.256  11.130 -0.4323 -0.3355  0.4575
    1Sil     Ob  103   0.123   2.231  10.325  0.3887 -0.0583 -0.2134
    1Sil     Ob  104   0.718   2.133  10.793 -0.4368  0.0343 -0.1352
    1Sil     Ob  105   0.310   2.242  10.781 -0.1546 -0.0595 -1.1381
    1Sil     Ob  106   0.858   2.242  11.153  0.0822 -0.4101 -0.5331
    1Sil     Ob  107   0.533   2.138  10.337 -0.2503 -0.4378 -0.3123
    1Sil     Ob  108   0.777   2.071  10.294 -0.4161  0.0085 -0.5800
    1Sil     Ob  109   0.195   2.080  11.087  0.1171 -0.1035  0.5684
    1Sil     Ob  110   0.482   2.083  10.696  0.2466  0.1233 -0.3108
    1Sil     Ob  111   0.168   2.309  10.578  0.7682 -0.2075 -0.4578
    1Sil     Ob  112   0.698   2.330  10.959  0.3911 -0.3397 -0.0924
    1Sil     Ob  113   0.372   1.987  12.378  0.5164 -0.5200  0.5865
    1Sil     Ob  114   0.967   1.990  11.560 -0.8172  0.2774 -0.1440
    1Sil     Ob  115   0.618   1.879  11.908 -0.2958  0.2873 -0.7718
    1Sil     Ob  116   0.190   2.484  11.940  0.1143 -0.0145  0.1623
    1Sil     Ob  117   0.732   2.477  12.318  0.4426  0.6401 -0.4638
    1Sil     Ob  118   0.550   2.379  11.577  0.4281  0.1042  0.4366
    1Sil     Ob  119   0.556   2.290  12.390  0.1438 -0.2625 -0.0087
    1Sil     Ob  120   0.304   2.305  11.616 -0.6885  0.1169  0.4564
    1Sil     Ob  121   0.853   2.308  12.006  0.4515 -0.0204 -0.0950
    1Sil     Ob  122   0.349   2.062  12.132 -0.2822 -0.8267  0.9077
    1Sil     Ob  123   0.935   2.066  11.332  0.4553 -0.4956  0.6761
    1Sil     Ob  124   0.627   2.061  11.718 -0.2298  0.0347  0.2835
    1Sil     Ob  125   0.311   2.237  12.322 -0.2299 -0.0692 -0.0189
    1Sil     Ob  126   0.067   2.243  11.532  0.0311 -0.0073  0.0018
    1Sil     Ob  127   0.678   2.121  11.958 -0.2640 -0.4091  0.3400
    1Sil     Ob  128   0.260   2.238  11.958  0.2784  0.4765 -0.1483
    1Sil     Ob  129   0.799   2.227  12.345  0.3243 -0.4869 -0.9764
    1Sil     Ob  130   0.478   2.140  11.521  0.4846 -0.1520  0.1203
    1Sil     Ob  131   0.727   2.070  11.480  0.5648 -0.4752 -0.0513
    1Sil     Ob  132   0.134   2.047  12.289 -0.7663  0.4850 -0.2945
    1Sil     Ob  133   0.439   2.055  11.892 -0.0913  0.2773  0.6425
    1Sil     Ob  134   0.105   2.310  11.767 -0.0702 -0.4242 -0.3234
    1Sil     Ob  135   0.643   2.290  12.150  0.1004 -0.4089  0.3455
    1Sil     Ob  136   0.401   2.327  11.367 -0.2855 -0.0830  0.1332
    1Sil     Ob  137   0.437   2.499  11.179 -0.1929  0.0529 -0.1814
    1Sil     Ob  138   0.998   2.490  10.373  0.3347 -0.1698 -0.2516
    1Sil     Ob  139   0.676   2.376  10.711 -0.1732  0.0137 -0.3523
    1Sil     Ob  140   0.235   2.983  10.736  0.4273  0.0428 -0.3400
    1Sil     Ob  141   0.784   2.976  11.115 -0.6837  0.1784  0.5928
    1Sil     Ob  142   0.597   2.855  10.372  0.2798  0.2894  0.2680
    1Sil     Ob  143   0.611   2.812  11.202  0.5110 -1.0626  0.5029
    1Sil     Ob  144   0.350   2.790  10.411 -1.1620  0.0407 -0.0345
    1Sil     Ob  145   0.906   2.799  10.816  0.4465  0.2102  0.0828
    1Sil     Ob  146   0.403   2.558  10.933  0.1471 -0.4739  0.5265
    1Sil     Ob  147   0.697   2.552  10.519 -0.3376  0.3142  1.2713
    1Sil     Ob  148   0.380   2.741  11.111 -0.2707 -0.4490 -0.5561
    1Sil     Ob  149   0.108   2.724  10.341 -0.2222 -0.1047 -0.0643
    1Sil     Ob  150   0.729   2.621  10.767 -0.2133 -1.0357 -0.4127
    1Sil     Ob  151   0.308   2.734  10.770  0.1841  0.3381 -0.3573
    1Sil     Ob  152   0.842   2.736  11.166 -0.4406 -0.8784 -0.3373
    1Sil     Ob  153   0.529   2.623  10.338 -0.5660 -0.0591 -0.3001
    1Sil     Ob  154   0.777   2.551  10.279 -0.1046 -0.0766 -0.0309
    1Sil     Ob  155   0.195   2.568  11.087  0.3073  0.2482 -0.4280
    1Sil     Ob  156   0.493   2.560  10.686 -0.0476 -0.0870  0.2819
    1Sil     Ob  157   0.157   2.794  10.581  0.1837  0.8272 -0.2273
    1Sil     Ob  158   0.698   2.784  10.960 -0.2720  0.5411 -0.4111
    1Sil     Ob  159   0.384   2.481  12.369  0.8547 -0.3185  0.6892
    1Sil     Ob  160   0.947   2.486  11.585 -0.2196  0.4565 -0.2285
    1Sil     Ob  161   0.626   2.377  11.900 -0.1570  0.2072  0.7833
    1Sil     Ob  162   0.184   2.966  11.947  0.0594 -0.3769  0.3361
    1Sil     Ob  163   0.745   2.981  12.332  0.0009  0.5938 -0.7092
    1Sil     Ob  164   0.563   2.873  11.547  0.2854  0.1883  0.5698
    1Sil     Ob  165   0.579   2.794  12.404  0.0773  0.2702 -0.1366
    1Sil     Ob  166   0.319   2.792  11.607  0.0715 -0.1999 -0.5916
    1Sil     Ob  167   0.865   2.796  12.003  0.0129 -0.0056 -0.1363
    1Sil     Ob  168   0.357   2.572  12.122  0.0534 -0.2334 -0.2554
    1Sil     Ob  169   0.924   2.568  11.338  0.1953 -0.4250 -0.3856
    1Sil     Ob  170   0.633   2.567  11.722 -0.4217  0.1129 -0.2405
    1Sil     Ob  171   0.340   2.729  12.321 -0.7398 -0.5310 -0.2754
    1Sil     Ob  172   0.081   2.738  11.522 -0.3141  0.0921 -0.1163
    1Sil     Ob  173   0.670   2.627  11.977  0.2631 -0.5145  0.3759
    1Sil     Ob  174   0.273   2.734  11.940  0.1685  0.1024  0.0580
    1Sil     Ob  175   0.815   2.729  12.346  0.4465 -0.0519 -0.2210
    1Sil     Ob  176   0.492   2.626  11.518 -0.1333  0.5467  0.0459
    1Sil     Ob  177   0.721   2.541  11.484  0.1739  0.2079  0.4569
    1Sil     Ob  178   0.154   2.562  12.281 -0.2961 -0.3878 -0.3579
    1Sil     Ob  179   0.437   2.551  11.880  0.2249  0.4123  0.4850
    1Sil     Ob  180   0.109   2.808  11.763  0.2996 -0.1061  0.2753
    1Sil     Ob  181   0.661   2.808  12.159 -0.2921 -0.1603 -0.7957
    1Sil     Ob  182   0.398   2.802  11.360 -1.1381 -0.4139  0.0343
    1Sil     Ob  183   0.428   2.985  11.165  0.5916  0.2528 -0.0176
    1Sil     Ob  184   1.020   2.978  10.370  0.1768  0.4860  0.1431
    1Sil     Ob  185   0.661   2.862  10.730 -0.0295  0.2879 -0.4848
    1Sil     Ob  186   0.236   3.480  10.751 -0.5756  0.0738 -1.1412
    1Sil     Ob  187   0.773   3.473  11.139  0.5071 -0.1853  0.4724
    1Sil     Ob  188   0.613   3.361  10.383 -0.1140 -0.1226  0.2850
    1Sil     Ob  189   0.603   3.305  11.201 -0.2356  0.0406 -0.1275
    1Sil     Ob  190   0.364   3.284  10.423 -0.3875  0.1861 -0.5622
    1Sil     Ob  191   0.900   3.281  10.804 -0.4015 -0.3796  0.7229
    1Sil     Ob  192   0.392   3.067  10.936  0.4103  0.1963  0.6693
    1Sil     Ob  193   0.690   3.024  10.533 -0.6560  0.4088  0.4234
    1Sil     Ob  194   0.365   3.238  11.126  0.5780 -0.2509 -0.2218
    1Sil     Ob  195   0.133   3.219  10.335 -0.0332  0.2273  0.0779
    1Sil     Ob  196   0.711   3.108  10.768 -0.2994 -0.2834  0.0729
    1Sil     Ob  197   0.315   3.231  10.747  0.1653  0.0142  0.0532
    1Sil     Ob  198   0.843   3.227  11.159 -0.4582 -0.0057 -0.8451
    1Sil     Ob  199   0.537   3.111  10.341 -0.5179 -0.3668  0.0268
    1Sil     Ob  200   0.779   3.011  10.291  0.8648 -0.5265 -0.1354
    1Sil     Ob  201   0.187   3.051  11.100  0.1290  0.0853  0.3259
    1Sil     Ob  202   0.474   3.040  10.687  0.2341 -0.0806 -0.6158
    1Sil     Ob  203   0.149   3.332  10.579 -0.1719  0.1083 -0.4696
    1Sil     Ob  204   0.694   3.290  10.960  0.1276 -0.0788  0.1930
    1Sil     Ob  205   0.396   2.972  12.385 -0.1288 -0.6307  0.0254
    1Sil     Ob  206   0.959   2.978  11.564 -0.1664  0.0802 -0.2673
    1Sil     Ob  207   0.632   2.873  11.910 -0.1966 -0.2646 -0.1857
    1Sil     Ob  208   0.193   3.454  11.939 -0.5756  0.5186 -0.0415
    1Sil     Ob  209   0.736   3.470  12.327  0.3461 -0.4634  0.7239
    1Sil     Ob  210   0.553   3.365  11.570  0.1698  0.3538 -0.1743
    1Sil     Ob  211   0.566   3.298  12.422  0.1297 -0.4509  0.4281
    1Sil     Ob  212   0.309   3.295  11.613 -0.5937  0.1551  0.1174
    1Sil     Ob  213   0.860   3.297  12.007 -0.0181 -0.0797 -0.0761
    1Sil     Ob  214   0.350   3.042  12.135 -0.5903 -0.1315  0.4994
    1Sil     Ob  215   0.928   3.041  11.316 -0.1197  0.0623  0.1258
    1Sil     Ob  216   0.622   3.063  11.726  0.1189 -0.4624  0.0144
    1Sil     Ob  217   0.339   3.216  12.327  0.1788 -0.0653 -0.5465
    1Sil     Ob  218   0.080   3.230  11.525  0.7958 -0.5510  0.2357
    1Sil     Ob  219   0.681   3.120  11.969  0.3190  0.2263 -0.2290
    1Sil     Ob  220   0.256   3.213  11.954 -0.3373 -0.3890 -0.2304
    1Sil     Ob  221   0.811   3.224  12.361  0.5961 -0.5699 -0.6216
    1Sil     Ob  222   0.482   3.118  11.522  0.0023  0.1911  0.7218
    1Sil     Ob  223   0.727   3.050  11.476 -0.1279  0.1653  0.4058
    1Sil     Ob  224   0.151   3.033  12.302  0.0190  0.4924 -0.3575
    1Sil     Ob  225   0.431   3.040  11.891  0.3832  0.4348 -0.1140
    1Sil     Ob  226   0.098   3.295  11.766  0.3293 -0.2300  0.3358
    1Sil     Ob  227   0.654   3.282  12.166  0.5234 -0.1456 -0.4680
    1Sil     Ob  228   0.393   3.322  11.373  0.1963  0.2482 -0.0718
    1Sil     Ob  229   0.428   3.485  11.175  0.6690  0.2517 -0.2122
    1Sil     Ob  230   1.017   3.460  10.355 -0.2493 -0.2691  0.1756
    1Sil     Ob  231   0.662   3.362  10.725  0.3040 -0.1173 -0.3048
    1Sil     Ob  232   0.238   3.961  10.741  0.3350  0.3049 -0.5601
    1Sil     Ob  233   0.781   3.957  11.120  0.2912  0.1394  0.4534
    1Sil     Ob  234   0.600   3.863  10.381  0.3763 -0.0198 -0.0035
    1Sil     Ob  235   0.615   3.787  11.212  0.0137  0.0762 -0.2236
    1Sil     Ob  236   0.356   3.803  10.422  0.3105  0.4649 -0.5385
    1Sil     Ob  237   0.892   3.795  10.813 -0.0285 -0.1680  0.0385
    1Sil     Ob  238   0.394   3.557  10.931  0.6914  0.2831 -0.0078
    1Sil     Ob  239   0.692   3.532  10.539  0.2943 -0.5344 -0.2159
    1Sil     Ob  240   0.383   3.718  11.129  0.0510 -0.5568  0.0173
    1Sil     Ob  241   0.118   3.731  10.324  0.8394 -0.3672  0.0796
    1Sil     Ob  242   0.712   3.603  10.780 -0.5071  0.6166 -0.4547
    1Sil     Ob  243   0.315   3.724  10.757 -0.4294  0.1404 -0.1911
    1Sil     Ob  244   0.847   3.711  11.170  0.5475 -0.1453 -0.3128
    1Sil     Ob  245   0.525   3.608  10.361 -0.3484 -0.4279  0.9408
    1Sil     Ob  246   0.775   3.554  10.302 -0.2344  0.3711  0.3232
    1Sil     Ob  247   0.192   3.547  11.097 -0.7745 -0.3129 -0.2775
    1Sil     Ob  248   0.479   3.531  10.682 -0.0689 -0.4644  0.1237
    1Sil     Ob  249   0.149   3.811  10.580  0.0936  0.5144  0.2734
    1Sil     Ob  250   0.695   3.777  10.962  0.7307  0.1215  0.4069
    1Sil     Ob  251   0.365   3.464  12.392  0.1050  0.0808 -0.0565
    1Sil     Ob  252   0.969   3.462  11.569  0.3602  0.3973 -0.1994
    1Sil     Ob  253   0.617   3.365  11.921 -0.7397  0.2709 -0.3632
    1Sil     Ob  254   0.189   3.958  11.927  0.3004 -1.0379  0.1449
    1Sil     Ob  255   0.712   3.972  12.349 -0.0860  0.3085 -0.1069
    1Sil     Ob  256   0.552   3.865  11.576  0.2500  0.2545  0.3242
    1Sil     Ob  257   0.551   3.781  12.398  0.0390 -0.5570 -0.1156
    1Sil     Ob  258   0.303   3.806  11.610 -0.3619 -0.1077  0.2305
    1Sil     Ob  259   0.847   3.781  12.013  0.6532  0.2308 -0.4709
    1Sil     Ob  260   0.346   3.535  12.130 -0.2920  0.5423  0.1608
    1Sil     Ob  261   0.924   3.533  11.339  0.1174 -0.0357  0.4696
    1Sil     Ob  262   0.641   3.538  11.746 -0.0332 -0.2787 -0.4339
    1Sil     Ob  263   0.317   3.713  12.323 -0.2530 -0.0645  0.3194
    1Sil     Ob  264   0.088   3.725  11.503 -0.5961  0.2887  0.8192
    1Sil     Ob  265   0.653   3.611  11.990 -0.4432 -0.1703 -0.0150
    1Sil     Ob  266   0.261   3.707  11.967 -0.3450  0.6519  0.1507
    1Sil     Ob  267   0.792   3.721  12.349 -0.2039  0.6028  0.0381
    1Sil     Ob  268   0.488   3.610  11.545  0.1815 -0.4229  0.3732
    1Sil     Ob  269   0.728   3.540  11.504 -0.4406 -0.1182  0.5258
    1Sil     Ob  270   0.135   3.525  12.303 -0.4714  0.1125  0.1529
    1Sil     Ob  271   0.429   3.539  11.888  0.1838 -0.4755  0.3095
    1Sil     Ob  272   0.103   3.782  11.762  0.2428 -0.4389 -0.1791
    1Sil     Ob  273   0.638   3.802  12.159 -0.3224 -0.9756  0.2998
    1Sil     Ob  274   0.404   3.789  11.364 -0.7197  0.6844  0.3537
    1Sil     Ob  275   0.437   3.966  11.184 -0.2778  0.6308  0.2982
    1Sil     Ob  276   1.000   3.967  10.391  0.2141  0.3992  0.1564
    1Sil     Ob  277   0.670   3.859  10.719  0.0476  0.0141 -0.0069
    1Sil     Ob  278   0.601   0.830  11.215  0.2673  0.1665 -0.5047
    1Sil     Ob  279   0.346   0.834  10.422 -0.1198  1.2942 -0.1613
    1Sil     Ob  280   0.909   0.834  10.818  0.1630 -0.0606 -0.1080
    1Sil     Ob  281   0.383   4.032  10.945 -0.4682 -0.0344 -0.0038
    1Sil     Ob  282   0.680   4.043  10.544  0.3587 -0.5583 -0.1014
    1Sil     Ob  283   0.363   4.207  11.140  0.6277 -0.1770  0.4740
    1Sil     Ob  284   0.119   0.766  10.321 -0.0977  0.3284  0.3092
    1Sil     Ob  285   0.726   4.102  10.785 -0.3498  0.0226 -0.2863
    1Sil     Ob  286   0.303   0.756  10.772  0.0973  0.1533  0.2987
    1Sil     Ob  287   0.837   0.754  11.159  0.0919 -0.2482 -0.5739
    1Sil     Ob  288   0.518   0.661  10.340  0.3586 -0.0831 -0.1856
    1Sil     Ob  289   0.763   4.028  10.299 -0.1194 -0.1672  0.1159
    1Sil     Ob  290   0.191   4.026  11.110  0.4514  0.0579  0.1319
    1Sil     Ob  291   0.482   4.040  10.706  0.5541  0.3035 -0.6099
    1Sil     Ob  292   0.158   0.827  10.570  0.8284  0.0724  0.1632
    1Sil     Ob  293   0.688   0.832  10.972  0.6294  0.3418 -0.0980
    1Sil     Ob  294   0.356   3.957  12.384  0.1986  0.2124 -0.2515
    1Sil     Ob  295   0.954   3.948  11.579  0.3987  0.3607  0.1888
    1Sil     Ob  296   0.623   3.863  11.916  0.4881 -0.0843 -0.5053
    1Sil     Ob  297   0.554   0.830  12.412  0.2159 -0.9817  0.3366
    1Sil     Ob  298   0.310   0.836  11.626  0.1798  0.0194  0.4103
    1Sil     Ob  299   0.853   0.820  12.009  0.2958 -0.0882 -0.3213
    1Sil     Ob  300   0.334   4.041  12.130  0.2309 -0.2546  0.2057
    1Sil     Ob  301   0.936   4.028  11.323  0.0701 -0.1720  0.3797
    1Sil     Ob  302   0.627   4.047  11.729 -0.4208 -0.0160  0.0594
    1Sil     Ob  303   0.318   4.203  12.326 -0.0362 -0.0686  0.6526
    1Sil     Ob  304   0.079   0.764  11.530  0.0723  0.5332  0.4251
    1Sil     Ob  305   0.661   4.108  11.985  0.1474 -0.9383  0.2441
    1Sil     Ob  306   0.261   0.755  11.956  0.0857  0.4843  0.5984
    1Sil     Ob  307   0.797   0.760  12.360  0.6384 -0.3258 -0.0776
    1Sil     Ob  308   0.480   0.657  11.538  0.0268  0.2925  0.2488
    1Sil     Ob  309   0.729   4.035  11.482 -0.7911 -0.2075 -0.0236
    1Sil     Ob  310   0.129   4.028  12.290  0.5663  0.2308  0.3160
    1Sil     Ob  311   0.435   4.042  11.880 -0.1580  0.0649  0.2096
    1Sil     Ob  312   0.102   0.825  11.770  0.1884 -0.2692 -0.1275
    1Sil     Ob  313   0.643   0.837  12.171  0.0396 -0.5824  0.0141
    1Sil     Ob  314   0.395   0.836  11.386 -0.1202 -0.5159 -0.0275
    1Sil     Ob  315   1.237   1.010  11.195  0.2483  0.4570  0.5864
    1Sil     Ob  316   1.850   1.000  10.374  0.3180  0.6501  0.5438
    1Sil     Ob  317   1.072   1.492  10.746 -0.2933 -0.1407  0.3912
    1Sil     Ob  318   1.605   1.492  11.151  0.1878 -0.2381  0.5402
    1Sil     Ob  319   1.450   1.404  10.340  0.1488 -0.9705 -0.0304
    1Sil     Ob  320   1.429   1.326  11.219  0.0100  0.0724 -0.0546
    1Sil     Ob  321   1.209   1.333  10.405 -0.0214  0.3905 -0.0105
    1Sil     Ob  322   1.725   1.319  10.819 -0.1228  1.0082 -0.8001
    1Sil     Ob  323   1.230   1.075  10.939  0.0645 -0.0773  0.2718
    1Sil     Ob  324   1.524   1.080  10.533 -0.0420  0.0464  0.2475
    1Sil     Ob  325   1.201   1.257  11.118 -0.3360  0.0924 -0.5267
    1Sil     Ob  326   0.972   1.252  10.320 -0.3927  0.5507  0.8506
    1Sil     Ob  327   1.545   1.135  10.793 -0.2395 -0.0875 -0.0430
    1Sil     Ob  328   1.151   1.246  10.755 -0.0067  0.6541 -0.0675
    1Sil     Ob  329   1.666   1.243  11.187  0.0730  0.2657 -0.2440
    1Sil     Ob  330   1.368   1.155  10.336  0.1557  0.5151  0.4504
    1Sil     Ob  331   1.611   1.080  10.284 -0.3214 -0.0500 -0.2664
    1Sil     Ob  332   1.017   1.087  11.088 -0.0375 -0.5672 -0.1150
    1Sil     Ob  333   1.320   1.051  10.686  0.2808  0.0020  0.5540
    1Sil     Ob  334   1.000   1.323  10.568  0.5447  0.2964 -0.0322
    1Sil     Ob  335   1.525   1.320  10.978  0.4503 -0.1526 -0.0123
    1Sil     Ob  336   1.211   1.002  12.384 -0.6246  0.2737  1.4304
    1Sil     Ob  337   1.776   0.994  11.584  0.2795  0.0224  0.2649
    1Sil     Ob  338   1.017   1.495  11.946  0.8515 -0.3495 -0.1479
    1Sil     Ob  339   1.566   1.497  12.312  0.2769  0.5525  0.5626
    1Sil     Ob  340   1.373   1.387  11.564 -0.6675 -0.3723 -0.4003
    1Sil     Ob  341   1.393   1.332  12.418 -0.5028  0.3901 -0.4934
    1Sil     Ob  342   1.130   1.308  11.615  0.2676 -0.2627  0.3925
    1Sil     Ob  343   1.684   1.316  12.007  0.2524  0.3833  0.0662
    1Sil     Ob  344   1.170   1.069  12.130  0.0103 -0.6009 -0.7808
    1Sil     Ob  345   1.756   1.062  11.327  0.4816  0.5753  0.2946
    1Sil     Ob  346   1.463   1.074  11.735  0.6440  0.4264 -0.3063
    1Sil     Ob  347   1.173   1.253  12.325  0.1554  0.5047  0.0476
    1Sil     Ob  348   0.896   1.244  11.525  0.3646  0.4019  0.1742
    1Sil     Ob  349   1.494   1.141  11.988 -0.2222  0.6962  0.2552
    1Sil     Ob  350   1.088   1.247  11.946 -0.0142 -0.3353 -0.3220
    1Sil     Ob  351   1.638   1.252  12.358  0.3978  0.1290 -0.3431
    1Sil     Ob  352   1.309   1.136  11.538  0.4300  0.1219  0.0118
    1Sil     Ob  353   1.558   1.096  11.492 -0.9085  0.3172  0.0324
    1Sil     Ob  354   0.985   1.080  12.303 -0.4434  0.4394  0.6056
    1Sil     Ob  355   1.263   1.068  11.888 -0.1122  0.2534 -0.0552
    1Sil     Ob  356   0.919   1.332  11.765 -0.5172 -0.3822  0.1570
    1Sil     Ob  357   1.475   1.320  12.164  0.7373  0.4549  0.7386
    1Sil     Ob  358   1.221   1.315  11.371 -0.3743 -0.4674  0.0920
    1Sil     Ob  359   1.247   1.504  11.195 -0.1600 -0.0010  0.1881
    1Sil     Ob  360   1.846   1.494  10.397  0.7513 -0.2162  0.0420
    1Sil     Ob  361   1.498   1.376  10.726 -0.7196 -0.4743 -0.2928
    1Sil     Ob  362   1.067   1.982  10.748 -0.6266 -0.5685  0.2972
    1Sil     Ob  363   1.611   1.981  11.140 -0.5788 -0.1716 -0.0481
    1Sil     Ob  364   1.436   1.888  10.334  0.9043 -0.0222  0.0210
    1Sil     Ob  365   1.443   1.816  11.218  0.2622  0.1194 -0.2175
    1Sil     Ob  366   1.196   1.839  10.409 -0.8174  0.2762 -0.3848
    1Sil     Ob  367   1.731   1.808  10.817 -0.0099 -0.4682  0.1762
    1Sil     Ob  368   1.218   1.562  10.940 -0.3494  0.1446 -1.0917
    1Sil     Ob  369   1.515   1.566  10.544  0.0965  0.3257 -0.0849
    1Sil     Ob  370   1.221   1.748  11.113  0.2499 -0.5035 -0.0040
    1Sil     Ob  371   0.972   1.753  10.323  0.2331 -0.4267  0.0765
    1Sil     Ob  372   1.552   1.627  10.780  0.0615 -0.1649  0.0649
    1Sil     Ob  373   1.134   1.736  10.776 -0.5404 -0.2616  0.5942
    1Sil     Ob  374   1.678   1.736  11.171 -0.7267 -0.1581 -0.5292
    1Sil     Ob  375   1.363   1.644  10.349  0.0563  0.2791  0.4583
    1Sil     Ob  376   1.610   1.593  10.308 -0.5928  0.2369 -0.1154
    1Sil     Ob  377   1.021   1.578  11.101 -0.2648  0.8649  0.0262
    1Sil     Ob  378   1.312   1.557  10.699  0.3533  0.0463 -0.5831
    1Sil     Ob  379   0.996   1.810  10.572 -0.0412  0.0967 -0.2432
    1Sil     Ob  380   1.520   1.805  10.973 -0.2833 -0.1353 -0.1890
    1Sil     Ob  381   1.204   1.507  12.391 -0.2632  0.4994 -0.5406
    1Sil     Ob  382   1.779   1.491  11.591 -0.2244 -0.6386 -0.3233
    1Sil     Ob  383   1.455   1.388  11.910 -0.1044 -0.1954 -0.9168
    1Sil     Ob  384   1.015   1.994  11.965  0.0869 -0.1699  0.4308
    1Sil     Ob  385   1.564   1.994  12.327  0.3294  0.3893  0.0875
    1Sil     Ob  386   1.398   1.879  11.550 -0.4590  0.3136 -0.0736
    1Sil     Ob  387   1.396   1.805  12.411  0.0876  0.3344 -0.6551
    1Sil     Ob  388   1.145   1.819  11.616 -0.1286  0.2883  0.2010
    1Sil     Ob  389   1.692   1.798  12.008  0.1204 -0.7052 -0.4592
    1Sil     Ob  390   1.175   1.563  12.135  0.3200  0.6496  0.2200
    1Sil     Ob  391   1.758   1.569  11.343 -0.7305 -0.6486  0.6091
    1Sil     Ob  392   1.453   1.575  11.736  0.1116  0.1782 -0.3093
    1Sil     Ob  393   1.163   1.746  12.322 -0.3041 -0.2113  0.0597
    1Sil     Ob  394   0.907   1.748  11.519 -0.2261  0.1677  0.4910
    1Sil     Ob  395   1.495   1.635  11.976  0.2431  0.0701  0.2584
    1Sil     Ob  396   1.092   1.741  11.956 -0.3297 -0.2049  0.2720
    1Sil     Ob  397   1.644   1.750  12.347  0.1268 -0.1078  0.0407
    1Sil     Ob  398   1.314   1.639  11.528  0.3131  0.0744  0.6450
    1Sil     Ob  399   1.545   1.564  11.491 -0.0144  0.6395  0.0141
    1Sil     Ob  400   0.977   1.566  12.304  0.0138  0.2401  0.5418
    1Sil     Ob  401   1.260   1.559  11.885 -0.3009 -0.2747 -0.3721
    1Sil     Ob  402   0.939   1.829  11.764  0.2276  0.1009  0.6556
    1Sil     Ob  403   1.477   1.813  12.161  0.6360 -0.2655  0.4698
    1Sil     Ob  404   1.234   1.814  11.371 -0.5120  0.4361  0.5027
    1Sil     Ob  405   1.257   1.993  11.179 -0.3984  0.3477  0.1096
    1Sil     Ob  406   1.829   1.989  10.404  0.9473 -0.3995  0.4938
    1Sil     Ob  407   1.497   1.869  10.721  0.7072 -0.6328  0.0168
    1Sil     Ob  408   1.079   2.489  10.733  0.4728  0.5084 -0.1439
    1Sil     Ob  409   1.625   2.485  11.117  0.6589 -0.7213 -0.4598
    1Sil     Ob  410   1.442   2.374  10.348 -0.1545  0.4064 -0.0171
    1Sil     Ob  411   1.446   2.311  11.206 -0.1414 -0.0880 -0.3542
    1Sil     Ob  412   1.191   2.317  10.408  0.0834 -0.6328 -0.1597
    1Sil     Ob  413   1.736   2.291  10.807 -0.6002 -0.5770 -0.2192
    1Sil     Ob  414   1.229   2.069  10.926  0.3593 -0.0312  0.6054
    1Sil     Ob  415   1.508   2.042  10.527  0.1468 -0.2109 -0.2055
    1Sil     Ob  416   1.235   2.241  11.104 -0.1701 -0.1402 -0.0924
    1Sil     Ob  417   0.967   2.239  10.310  0.2509 -0.2026  0.3436
    1Sil     Ob  418   1.546   2.116  10.776  0.1124  0.4151  0.3044
    1Sil     Ob  419   1.146   2.235  10.758 -0.2132 -0.4799  0.1420
    1Sil     Ob  420   1.687   2.232  11.163 -0.2603 -0.3222 -0.7959
    1Sil     Ob  421   1.356   2.133  10.337 -0.3279 -0.0732 -0.0626
    1Sil     Ob  422   1.600   2.079  10.292 -0.6916  0.2551  0.0854
    1Sil     Ob  423   1.028   2.072  11.093 -0.3457  0.3780  0.2554
    1Sil     Ob  424   1.307   2.044  10.685 -0.2564 -0.2027  0.2195
    1Sil     Ob  425   0.995   2.307  10.562  0.0665  0.0111  0.2352
    1Sil     Ob  426   1.537   2.302  10.959 -0.9005 -0.2986 -0.5650
    1Sil     Ob  427   1.216   1.989  12.382  1.2440  0.8137  0.9078
    1Sil     Ob  428   1.799   1.986  11.582  0.0325 -0.2953  0.7285
    1Sil     Ob  429   1.462   1.883  11.903  0.2272  0.5643 -0.5310
    1Sil     Ob  430   1.013   2.487  11.937 -0.8721 -0.7427  0.1346
    1Sil     Ob  431   1.562   2.485  12.325  0.5677 -0.0399  0.0990
    1Sil     Ob  432   1.386   2.379  11.542  0.3215 -0.2993  0.4266
    1Sil     Ob  433   1.388   2.299  12.396 -0.2387 -0.6901 -0.0386
    1Sil     Ob  434   1.146   2.312  11.595  0.0164 -0.5033 -0.0080
    1Sil     Ob  435   1.679   2.304  12.010 -0.1951  0.8115  0.1854
    1Sil     Ob  436   1.189   2.076  12.137 -0.6230 -0.7395 -0.2361
    1Sil     Ob  437   1.773   2.062  11.334 -0.3561 -0.6990 -0.2898
    1Sil     Ob  438   1.467   2.065  11.728 -0.4675  0.5976  0.3804
    1Sil     Ob  439   1.146   2.237  12.339 -0.2617 -0.1845 -0.6515
    1Sil     Ob  440   0.919   2.236  11.518 -0.5039 -0.0304 -0.7921
    1Sil     Ob  441   1.498   2.125  11.984 -0.4798  0.0082  0.0324
    1Sil     Ob  442   1.096   2.241  11.955  0.2972  0.2824  0.8296
    1Sil     Ob  443   1.631   2.247  12.354 -0.0046  0.4600 -0.1332
    1Sil     Ob  444   1.314   2.134  11.531  0.2117  0.4388  0.3081
    1Sil     Ob  445   1.560   2.075  11.491  0.4559  0.2108 -0.1333
    1Sil     Ob  446   0.982   2.050  12.299 -0.0944 -0.0604  0.5633
    1Sil     Ob  447   1.264   2.050  11.897  0.2556 -0.3561 -0.1436
    1Sil     Ob  448   0.946   2.306  11.764  0.0718  0.1690  0.4317
    1Sil     Ob  449   1.471   2.315  12.159 -0.4358 -0.1919  0.0362
    1Sil     Ob  450   1.227   2.296  11.354 -0.3948  0.3614 -0.0207
    1Sil     Ob  451   1.257   2.480  11.178  0.1052  0.1023 -0.4228
    1Sil     Ob  452   1.863   2.494  10.385  0.0794 -0.5188  0.6544
    1Sil     Ob  453   1.509   2.371  10.709 -0.0927 -0.0230 -0.6847
    1Sil     Ob  454   1.081   2.977  10.727  0.2213 -0.5923 -0.4854
    1Sil     Ob  455   1.610   2.972  11.124  0.0399 -0.5102  0.1565
    1Sil     Ob  456   1.458   2.867  10.337  0.2502  0.0015 -0.2475
    1Sil     Ob  457   1.427   2.803  11.206  0.1975  0.2114 -0.2784
    1Sil     Ob  458   1.211   2.798  10.408 -0.6354 -0.0582  0.0050
    1Sil     Ob  459   1.737   2.801  10.822  0.1051  0.4956 -0.4122
    1Sil     Ob  460   1.232   2.542  10.937 -0.6671 -0.2071  0.2474
    1Sil     Ob  461   1.526   2.553  10.521 -0.7219  0.4548  0.3738
    1Sil     Ob  462   1.197   2.733  11.124  0.5136  0.4977  0.3778
    1Sil     Ob  463   0.968   2.735  10.322  0.9087 -0.2311  0.1072
    1Sil     Ob  464   1.562   2.620  10.773 -0.2980  0.2922  0.3760
    1Sil     Ob  465   1.161   2.728  10.767  1.0136 -1.1252 -0.4237
    1Sil     Ob  466   1.678   2.729  11.160  0.2474 -0.2165  0.4663
    1Sil     Ob  467   1.387   2.624  10.310  0.4381 -0.0777  0.8869
    1Sil     Ob  468   1.631   2.536  10.281  0.0979 -0.1862 -0.2533
    1Sil     Ob  469   1.022   2.553  11.094  0.0515 -0.4009  0.5424
    1Sil     Ob  470   1.325   2.545  10.685  0.3113  0.4353  0.1434
    1Sil     Ob  471   1.004   2.792  10.566  0.5513  0.4160  0.1063
    1Sil     Ob  472   1.516   2.792  10.961 -0.4610  0.0900 -0.2722
    1Sil     Ob  473   1.219   2.486  12.377 -0.0682  0.8502  1.0146
    1Sil     Ob  474   1.794   2.488  11.571 -0.6177 -1.0481  0.7397
    1Sil     Ob  475   1.456   2.375  11.912  0.3371  0.0709  0.4582
    1Sil     Ob  476   1.026   2.977  11.948 -0.2611 -0.4593 -0.9912
    1Sil     Ob  477   1.563   2.984  12.324  0.2209 -0.5110  0.0995
    1Sil     Ob  478   1.386   2.866  11.548 -0.1585 -0.7420  0.4149
    1Sil     Ob  479   1.394   2.809  12.411 -0.0819  0.1260  0.1024
    1Sil     Ob  480   1.137   2.793  11.603 -0.7448 -0.1555  0.1594
    1Sil     Ob  481   1.683   2.803  12.010  0.4974  0.8219  0.0821
    1Sil     Ob  482   1.183   2.562  12.130 -0.4937 -0.7500 -0.2209
    1Sil     Ob  483   1.763   2.556  11.327 -0.6465 -0.6691  0.2561
    1Sil     Ob  484   1.466   2.551  11.724  0.2371  0.3491 -0.4628
    1Sil     Ob  485   1.162   2.728  12.327 -0.4314 -0.5652 -0.1804
    1Sil     Ob  486   0.889   2.732  11.531 -0.0759  0.3592 -0.5358
    1Sil     Ob  487   1.496   2.624  11.977  0.0480  0.3345 -0.2314
    1Sil     Ob  488   1.103   2.726  11.947 -0.0135  0.3043 -0.0478
    1Sil     Ob  489   1.643   2.731  12.362  0.0026 -0.6634  0.0931
    1Sil     Ob  490   1.314   2.620  11.523 -0.6154  0.1550  0.0664
    1Sil     Ob  491   1.557   2.547  11.477 -0.4028 -0.0219 -0.2993
    1Sil     Ob  492   0.989   2.541  12.298 -0.1582 -0.6175 -0.3641
    1Sil     Ob  493   1.265   2.540  11.886 -0.0022 -0.7647  0.3999
    1Sil     Ob  494   0.937   2.820  11.763  0.8935 -0.3936 -0.0026
    1Sil     Ob  495   1.483   2.788  12.166  0.3315 -0.1827  0.0241
    1Sil     Ob  496   1.224   2.803  11.361 -0.2467 -0.3012  0.5107
    1Sil     Ob  497   1.247   2.984  11.171  0.3144 -0.1399  0.0817
    1Sil     Ob  498   1.841   2.984  10.396 -0.0210  0.5135 -0.1671
    1Sil     Ob  499   1.506   2.871  10.714  0.0467  0.5940 -0.2460
    1Sil     Ob  500   1.065   3.473  10.755 -0.3601 -0.2065 -0.0201
    1Sil     Ob  501   1.609   3.470  11.129  0.7326  0.4667  0.0917
    1Sil     Ob  502   1.432   3.368  10.362  0.1203  0.2045  0.1840
    1Sil     Ob  503   1.441   3.287  11.204  0.4436  0.4113 -0.4254
    1Sil     Ob  504   1.195   3.283  10.405  0.4289  0.6829 -0.0197
    1Sil     Ob  505   1.731   3.296  10.804 -0.1994  0.1683 -0.3330
    1Sil     Ob  506   1.230   3.055  10.924 -0.8297 -0.2429 -0.4752
    1Sil     Ob  507   1.520   3.034  10.526 -0.3616 -0.0906 -0.2066
    1Sil     Ob  508   1.208   3.229  11.121  0.7582 -0.1138  0.3622
    1Sil     Ob  509   0.944   3.216  10.314 -0.5090  0.4634 -0.2212
    1Sil     Ob  510   1.555   3.113  10.777 -0.5876  0.3847 -0.4567
    1Sil     Ob  511   1.149   3.228  10.748  0.1377  0.4682 -0.1468
    1Sil     Ob  512   1.685   3.223  11.154 -0.3331 -0.4740  0.2369
    1Sil     Ob  513   1.369   3.113  10.327  0.8386 -0.3441  0.3648
    1Sil     Ob  514   1.623   3.059  10.288 -0.1129  0.2853  0.3214
    1Sil     Ob  515   1.023   3.061  11.070 -0.1396  0.1901  0.5852
    1Sil     Ob  516   1.324   3.057  10.682  0.6008  0.2029 -0.4767
    1Sil     Ob  517   0.987   3.305  10.561 -0.1525  0.0063 -0.4079
    1Sil     Ob  518   1.526   3.288  10.960 -0.1004  0.7030  0.2459
    1Sil     Ob  519   1.205   2.984  12.391 -0.3301 -0.4705 -0.7505
    1Sil     Ob  520   1.783   2.978  11.579 -0.1603  0.1644  0.6854
    1Sil     Ob  521   1.434   2.870  11.928  0.1902  0.7604  0.0771
    1Sil     Ob  522   1.035   3.469  11.912  0.2423 -0.9636  0.2765
    1Sil     Ob  523   1.562   3.471  12.317  0.0717  0.2718 -0.6863
    1Sil     Ob  524   1.384   3.363  11.565 -0.4031  0.1226  1.0258
    1Sil     Ob  525   1.389   3.314  12.417  0.3789  0.3617  0.2651
    1Sil     Ob  526   1.148   3.291  11.603 -0.7095  0.1784 -0.1386
    1Sil     Ob  527   1.682   3.288  12.015 -0.3126 -0.2091  0.2569
    1Sil     Ob  528   1.189   3.051  12.134  0.1630 -0.4946  0.4675
    1Sil     Ob  529   1.759   3.041  11.329  0.0306  0.0488 -0.3383
    1Sil     Ob  530   1.472   3.025  11.733  0.6717 -0.1673  0.1018
    1Sil     Ob  531   1.173   3.230  12.322  0.5459  0.5005 -0.1543
    1Sil     Ob  532   0.911   3.220  11.505 -0.7536  0.0133 -0.0124
    1Sil     Ob  533   1.503   3.111  11.967 -0.1537  0.6035  0.1706
    1Sil     Ob  534   1.100   3.217  11.956 -0.2948 -0.4926  0.0078
    1Sil     Ob  535   1.624   3.224  12.372 -0.7143  0.4761 -0.1813
    1Sil     Ob  536   1.319   3.104  11.544  0.1182  0.2139 -0.1719
    1Sil     Ob  537   1.554   3.050  11.484  0.1414 -0.2795 -0.7527
    1Sil     Ob  538   0.985   3.049  12.293  0.4586  0.1116  0.3910
    1Sil     Ob  539   1.267   3.043  11.886  0.1462 -0.1681 -0.1540
    1Sil     Ob  540   0.944   3.287  11.758  0.1571 -0.2639 -0.4345
    1Sil     Ob  541   1.476   3.276  12.165  0.0383  0.0616  0.0443
    1Sil     Ob  542   1.234   3.278  11.365  0.5185  0.5039 -0.5698
    1Sil     Ob  543   1.255   3.471  11.195 -0.4948 -0.4822 -0.5884
    1Sil     Ob  544   1.831   3.465  10.369  0.2584 -0.5166 -0.5373
    1Sil     Ob  545   1.502   3.367  10.715 -0.6121  0.2057  0.5206
    1Sil     Ob  546   1.071   3.955  10.744  0.9793 -0.1970 -0.1842
    1Sil     Ob  547   1.614   3.960  11.120 -0.7702 -0.2931 -0.4488
    1Sil     Ob  548   1.444   3.851  10.354 -0.0158  0.0184 -0.4277
    1Sil     Ob  549   1.435   3.793  11.217 -0.2859  0.3193 -0.2128
    1Sil     Ob  550   1.195   3.804  10.427  0.0737  0.8148  0.6799
    1Sil     Ob  551   1.724   3.787  10.817 -0.6667 -0.5799 -0.1899
    1Sil     Ob  552   1.228   3.555  10.950  0.4229 -0.5200 -0.0656
    1Sil     Ob  553   1.509   3.550  10.537  0.2669 -0.2425  0.1854
    1Sil     Ob  554   1.194   3.715  11.139  0.3719 -0.0243  0.4383
    1Sil     Ob  555   0.961   3.718  10.330  0.1117 -0.1644  0.4013
    1Sil     Ob  556   1.542   3.609  10.789  0.0737 -0.4473  0.3940
    1Sil     Ob  557   1.138   3.709  10.772  0.0538 -0.2406 -0.1404
    1Sil     Ob  558   1.674   3.711  11.165 -0.2411 -0.2519 -0.1302
    1Sil     Ob  559   1.353   3.614  10.350  0.5145 -0.1640 -0.1693
    1Sil     Ob  560   1.592   3.545  10.287 -0.1593  0.1706  0.1045
    1Sil     Ob  561   1.013   3.538  11.104 -0.0148  0.0624 -0.5320
    1Sil     Ob  562   1.303   3.539  10.702  0.1150 -0.6282 -0.1731
    1Sil     Ob  563   0.989   3.781  10.578 -0.1492 -0.1523  0.2206
    1Sil     Ob  564   1.521   3.784  10.973 -0.3863 -0.2970  0.1983
    1Sil     Ob  565   1.194   3.483  12.380 -0.0314 -0.6990  0.1555
    1Sil     Ob  566   1.784   3.472  11.584 -0.3304  0.3970 -0.4277
    1Sil     Ob  567   1.439   3.358  11.928 -0.5009 -1.0474  0.6677
    1Sil     Ob  568   1.018   3.957  11.923  0.5516 -0.3075 -0.7111
    1Sil     Ob  569   1.572   3.962  12.326 -0.5758 -0.2447  0.2180
    1Sil     Ob  570   1.391   3.853  11.550  0.4578  1.0099  0.5875
    1Sil     Ob  571   1.388   3.786  12.391  0.1822 -0.1883  0.1774
    1Sil     Ob  572   1.147   3.790  11.621  0.4934 -0.1326  0.2435
    1Sil     Ob  573   1.691   3.768  12.004 -0.3233 -0.0989 -0.6444
    1Sil     Ob  574   1.177   3.543  12.130  0.7256 -0.1214 -0.4589
    1Sil     Ob  575   1.757   3.540  11.340 -0.2194 -0.4705  0.1681
    1Sil     Ob  576   1.473   3.526  11.736 -0.5398  0.4392  0.7010
    1Sil     Ob  577   1.157   3.724  12.300 -0.4078  0.2917 -0.3718
    1Sil     Ob  578   0.913   3.705  11.520  0.0458 -0.5254  0.2974
    1Sil     Ob  579   1.506   3.601  11.977 -0.0051 -0.2519 -0.0230
    1Sil     Ob  580   1.092   3.717  11.960 -0.1109 -1.4887 -0.5498
    1Sil     Ob  581   1.628   3.710  12.354 -0.2483  0.0384  0.1728
    1Sil     Ob  582   1.301   3.609  11.550 -0.0987 -0.3059 -0.6037
    1Sil     Ob  583   1.548   3.541  11.489 -0.4827  0.4809  0.3663
    1Sil     Ob  584   0.971   3.561  12.277  0.4156 -0.4721 -0.2296
    1Sil     Ob  585   1.267   3.553  11.886 -0.4207  0.1352 -0.0255
    1Sil     Ob  586   0.932   3.778  11.764  0.1911 -0.1129 -0.6734
    1Sil     Ob  587   1.483   3.783  12.155 -0.8918 -0.3849 -0.5142
    1Sil     Ob  588   1.224   3.790  11.369 -0.6429 -0.1993  0.5463
    1Sil     Ob  589   1.253   3.965  11.184  0.0983 -0.5722 -0.3016
    1Sil     Ob  590   1.836   3.952  10.368  0.2801 -0.5574 -0.1634
    1Sil     Ob  591   1.493   3.855  10.718  0.0175  0.5278 -1.2729
    1Sil     Ob  592   1.428   0.850  11.204 -0.4699  0.4380  0.2143
    1Sil     Ob  593   1.196   0.810  10.409  0.7492  0.0795 -0.5329
    1Sil     Ob  594   1.742   0.820  10.817  0.0067  0.2443 -0.2411
    1Sil     Ob  595   1.235   4.033  10.929 -0.3150  0.5760 -0.5514
    1Sil     Ob  596   1.518   4.028  10.530 -0.2559  0.0561  0.5631
    1Sil     Ob  597   1.211   4.212  11.116  0.3065  0.4593  0.6673
    1Sil     Ob  598   0.961   4.212  10.323 -0.0139 -0.6145  0.0179
    1Sil     Ob  599   1.546   4.100  10.777  0.0209  0.3572  0.5120
    1Sil     Ob  600   1.152   0.756  10.764  0.0541 -0.3921 -0.2283
    1Sil     Ob  601   1.677   0.759  11.158  0.6047 -0.3389 -0.4413
    1Sil     Ob  602   1.367   0.651  10.336 -0.1095  0.1507 -0.9281
    1Sil     Ob  603   1.608   4.037  10.290  0.0915  0.8764  0.0443
    1Sil     Ob  604   1.027   4.038  11.083  0.0513 -0.4991  0.5705
    1Sil     Ob  605   1.315   4.019  10.678 -0.0611  0.0820  0.4133
    1Sil     Ob  606   0.989   0.841  10.570 -0.5755  0.2239 -0.1574
    1Sil     Ob  607   1.523   0.826  10.957 -0.3942 -0.2306 -0.2664
    1Sil     Ob  608   1.198   3.972  12.375 -0.3098 -0.3777  0.5584
    1Sil     Ob  609   1.785   3.962  11.564  0.1181  0.6005 -0.2984
    1Sil     Ob  610   1.465   3.847  11.908 -0.3626 -0.4516  0.6202
    1Sil     Ob  611   1.387   0.834  12.411 -0.3198  0.6600  0.0734
    1Sil     Ob  612   1.139   0.832  11.609 -0.0146  0.4986 -0.0904
    1Sil     Ob  613   1.685   0.838  12.011 -0.4569  0.3142  0.2491
    1Sil     Ob  614   1.175   4.035  12.121 -0.2540  0.1172  0.3431
    1Sil     Ob  615   1.767   4.041  11.320  1.0036 -0.1815 -0.0250
    1Sil     Ob  616   1.473   4.027  11.724  0.3983 -0.2772 -0.2943
    1Sil     Ob  617   1.151   4.216  12.318 -0.1661 -0.4359  1.1345
    1Sil     Ob  618   0.914   4.202  11.511  0.4918  0.0149  0.3862
    1Sil     Ob  619   1.514   4.102  11.962  0.3584  0.2309 -0.3274
    1Sil     Ob  620   1.096   0.759  11.952 -0.2283 -0.0143  0.1173
    1Sil     Ob  621   1.637   0.757  12.366 -0.3173 -0.1655 -0.4647
    1Sil     Ob  622   1.321   0.654  11.527  0.4018  0.1943 -0.1684
    1Sil     Ob  623   1.561   4.021  11.475  0.0254  0.1486 -0.3907
    1Sil     Ob  624   0.957   4.037  12.277 -0.1771 -0.0181 -0.7046
    1Sil     Ob  625   1.274   4.029  11.885 -0.1722  0.5233  0.4698
    1Sil     Ob  626   0.941   0.822  11.760 -0.4987  0.1045  0.0238
    1Sil     Ob  627   1.481   0.815  12.169 -0.6325  0.4326 -0.1639
    1Sil     Ob  628   1.227   0.819  11.363  0.0392  0.4585  0.4436
    1Sil     Ob  629   2.086   1.009  11.184  0.2477  0.4765  0.0505
    1Sil     Ob  630   2.645   1.005  10.388  0.1583  0.1579 -0.7412
    1Sil     Ob  631   1.898   1.492  10.755 -0.1255 -0.5392 -0.0784
    1Sil     Ob  632   2.445   1.480  11.144  0.5951 -0.3834 -0.3124
    1Sil     Ob  633   2.260   1.374  10.347  0.3037 -0.3744  0.0181
    1Sil     Ob  634   2.272   1.312  11.210 -0.8223 -0.2671 -0.3521
    1Sil     Ob  635   2.015   1.320  10.424  0.0330  0.0048  0.0041
    1Sil     Ob  636   2.568   1.326  10.810 -0.3931 -0.9410  0.1187
    1Sil     Ob  637   2.060   1.078  10.940  0.5522  0.1358  0.2403
    1Sil     Ob  638   2.348   1.063  10.544  0.4867 -0.4397  0.6817
    1Sil     Ob  639   2.041   1.248  11.125  0.1849  0.2283 -0.3479
    1Sil     Ob  640   1.799   1.251  10.320  0.0412 -0.0627 -0.2841
    1Sil     Ob  641   2.385   1.145  10.781 -0.1379 -0.1432  0.1642
    1Sil     Ob  642   1.970   1.252  10.761  0.2304 -0.2678 -0.4505
    1Sil     Ob  643   2.517   1.242  11.154  1.0594  0.2475  0.1340
    1Sil     Ob  644   2.179   1.128  10.359 -0.1897  0.2721  0.2706
    1Sil     Ob  645   2.421   1.086  10.296 -0.3263  0.5664  0.0478
    1Sil     Ob  646   1.855   1.093  11.093 -0.6845  0.9614  0.0168
    1Sil     Ob  647   2.152   1.091  10.694 -0.2992 -0.6907  0.3124
    1Sil     Ob  648   1.807   1.322  10.573  0.9628  0.5057 -0.6030
    1Sil     Ob  649   2.363   1.323  10.970 -0.3164  0.2232  0.1339
    1Sil     Ob  650   2.041   1.005  12.382 -0.6865  0.1231  0.5019
    1Sil     Ob  651   2.598   1.005  11.581  0.1315 -0.0460  0.1453
    1Sil     Ob  652   1.855   1.488  11.936 -0.1908 -0.2252  0.2641
    1Sil     Ob  653   2.401   1.498  12.320  0.0579 -0.1454  0.2622
    1Sil     Ob  654   2.221   1.387  11.545  0.5291 -0.4524  0.4890
    1Sil     Ob  655   2.229   1.336  12.417 -0.2216  0.0091  0.3130
    1Sil     Ob  656   1.976   1.326  11.616 -0.3701 -0.1445  0.5000
    1Sil     Ob  657   2.506   1.330  12.016 -0.0794  0.0789  0.0942
    1Sil     Ob  658   2.021   1.070  12.128  0.1481  0.3830 -0.0465
    1Sil     Ob  659   2.589   1.072  11.329 -0.1914  0.2981  0.1386
    1Sil     Ob  660   2.307   1.067  11.725 -0.6915 -0.0642  0.0550
    1Sil     Ob  661   2.023   1.251  12.302  0.2264 -0.1389 -0.2227
    1Sil     Ob  662   1.749   1.247  11.516  0.3966  0.0678  0.4421
    1Sil     Ob  663   2.348   1.137  11.972  0.5059 -0.5179 -0.2106
    1Sil     Ob  664   1.936   1.245  11.956  0.2102 -0.4319 -0.1726
    1Sil     Ob  665   2.459   1.249  12.363 -0.1115 -0.1638 -0.1951
    1Sil     Ob  666   2.137   1.130  11.545  0.2908  0.1326  0.4732
    1Sil     Ob  667   2.379   1.073  11.475  0.1979  0.1581 -1.1591
    1Sil     Ob  668   1.820   1.090  12.290  0.3583 -0.3353 -0.1886
    1Sil     Ob  669   2.109   1.076  11.879  0.0310 -0.7196 -0.1994
    1Sil     Ob  670   1.776   1.316  11.769 -0.1412  0.3219  0.3196
    1Sil     Ob  671   2.303   1.307  12.168 -0.1245 -0.0612 -0.3775
    1Sil     Ob  672   2.062   1.313  11.367  0.7057  0.6849 -0.0751
    1Sil     Ob  673   2.088   1.493  11.195  0.6519 -0.1630 -0.0538
    1Sil     Ob  674   2.669   1.502  10.385 -0.1991  0.5322 -0.1079
    1Sil     Ob  675   2.328   1.392  10.726  0.5437  0.8406 -0.1213
    1Sil     Ob  676   1.902   1.986  10.746  0.2773  0.4871  0.6202
    1Sil     Ob  677   2.444   1.987  11.141  0.0002  0.4409 -0.2299
    1Sil     Ob  678   2.284   1.881  10.356 -0.6606  0.3886  0.5667
    1Sil     Ob  679   2.267   1.828  11.219  0.2218 -0.1852 -0.3582
    1Sil     Ob  680   2.038   1.842  10.409  0.2644 -0.3610 -0.0573
    1Sil     Ob  681   2.567   1.829  10.823  0.0892  0.0554  0.3736
    1Sil     Ob  682   2.054   1.568  10.943 -0.2876 -0.0633  0.0195
    1Sil     Ob  683   2.339   1.553  10.539 -0.2530 -0.5893  0.2019
    1Sil     Ob  684   2.031   1.740  11.132 -0.2227  0.5144  0.0948
    1Sil     Ob  685   1.813   1.741  10.327 -0.0584 -0.5715 -0.3576
    1Sil     Ob  686   2.376   1.639  10.787 -0.0357  0.1591 -0.1967
    1Sil     Ob  687   1.977   1.745  10.779  0.0725  0.1270 -0.4603
    1Sil     Ob  688   2.504   1.739  11.184 -0.2825 -0.5296  0.1695
    1Sil     Ob  689   2.196   1.634  10.333 -0.3844 -0.4226  0.1228
    1Sil     Ob  690   2.433   1.553  10.293 -0.2344  0.6029  0.1654
    1Sil     Ob  691   1.854   1.559  11.110 -0.7784 -0.1228 -0.4164
    1Sil     Ob  692   2.144   1.562  10.696  0.1420  0.4558 -0.0304
    1Sil     Ob  693   1.833   1.808  10.576 -0.5042  0.0592  0.0932
    1Sil     Ob  694   2.352   1.808  10.974  0.1155 -0.1443 -0.3407
    1Sil     Ob  695   2.041   1.494  12.376 -0.1852 -0.2379 -0.5962
    1Sil     Ob  696   2.623   1.492  11.584 -0.1765 -0.4986  0.4926
    1Sil     Ob  697   2.267   1.376  11.916 -0.7086 -0.0408  0.5511
    1Sil     Ob  698   1.857   1.985  11.937 -0.7610  0.0741  0.2472
    1Sil     Ob  699   2.391   1.999  12.322  0.1397 -0.4579 -0.1675
    1Sil     Ob  700   2.216   1.884  11.579  0.4963  0.1330 -0.3895
    1Sil     Ob  701   2.232   1.805  12.395  0.1787  0.1365  0.2514
    1Sil     Ob  702   1.976   1.797  11.613 -0.6942 -0.1034 -0.5812
    1Sil     Ob  703   2.513   1.817  12.013  0.2581  0.5718 -0.3310
    1Sil     Ob  704   2.002   1.560  12.127 -0.1628  0.1523 -0.0357
    1Sil     Ob  705   2.597   1.565  11.335 -0.2135  0.3655 -0.0539
    1Sil     Ob  706   2.288   1.555  11.724 -0.3518  0.2256 -0.1537
    1Sil     Ob  707   1.996   1.743  12.309  0.4078 -0.4565  0.4819
    1Sil     Ob  708   1.740   1.744  11.526  0.1042  0.2531  0.0280
    1Sil     Ob  709   2.326   1.628  11.967 -0.0723  0.1961 -0.7086
    1Sil     Ob  710   1.929   1.740  11.955 -0.3801 -0.0671  0.2341
    1Sil     Ob  711   2.473   1.741  12.330  0.3183 -0.4705  0.1475
    1Sil     Ob  712   2.151   1.644  11.533  0.0756  0.5086  0.5303
    1Sil     Ob  713   2.388   1.561  11.485 -0.3427 -0.1827  0.6600
    1Sil     Ob  714   1.812   1.559  12.287 -0.1954 -0.2482  0.1589
    1Sil     Ob  715   2.091   1.558  11.877 -0.3772  0.1244  0.0217
    1Sil     Ob  716   1.775   1.812  11.772  0.1070  0.1658  0.2480
    1Sil     Ob  717   2.299   1.812  12.156 -0.4078 -0.3247 -0.0372
    1Sil     Ob  718   2.067   1.825  11.382  0.2248  0.5147  0.6947
    1Sil     Ob  719   2.083   1.989  11.185 -0.2036  0.6534 -0.0988
    1Sil     Ob  720   2.690   1.983  10.365 -0.1258 -0.2881  1.0492
    1Sil     Ob  721   2.331   1.885  10.739 -0.1328  0.3930 -0.1639
    1Sil     Ob  722   1.907   2.470  10.765  0.6278 -0.1749  0.0807
    1Sil     Ob  723   2.455   2.491  11.138 -0.1017  0.0453  0.2431
    1Sil     Ob  724   2.276   2.373  10.358 -0.0299  1.0983  0.0841
    1Sil     Ob  725   2.278   2.313  11.208  0.2226  0.1479 -0.3958
    1Sil     Ob  726   2.036   2.303  10.419  0.3555 -0.0045  0.9453
    1Sil     Ob  727   2.569   2.315  10.813 -0.1766 -0.6298  0.6010
    1Sil     Ob  728   2.067   2.061  10.930 -0.5880  0.2167 -0.0618
    1Sil     Ob  729   2.361   2.048  10.539 -0.5250  0.2743 -0.0127
    1Sil     Ob  730   2.043   2.235  11.121  0.6149 -0.5538  0.1248
    1Sil     Ob  731   1.798   2.247  10.333 -0.3939  0.0988  0.4558
    1Sil     Ob  732   2.369   2.139  10.790  0.4354  0.4361  0.8750
    1Sil     Ob  733   1.976   2.235  10.760 -0.0009 -0.4904 -0.1712
    1Sil     Ob  734   2.525   2.243  11.145 -0.7494 -0.4909 -0.0955
    1Sil     Ob  735   2.208   2.129  10.343 -0.3811  0.3874 -0.5216
    1Sil     Ob  736   2.451   2.064  10.287 -0.2567  0.7478  0.8998
    1Sil     Ob  737   1.859   2.061  11.097  0.2985  0.1546  0.0726
    1Sil     Ob  738   2.152   2.054  10.681 -0.0545 -0.9635 -0.2333
    1Sil     Ob  739   1.827   2.327  10.570  0.2684  0.0351  0.3977
    1Sil     Ob  740   2.361   2.329  10.968  0.5117  0.0286  0.6008
    1Sil     Ob  741   2.042   1.991  12.371 -0.4627  0.3152 -0.5193
    1Sil     Ob  742   2.624   2.000  11.581 -0.2667 -0.0503  0.2071
    1Sil     Ob  743   2.283   1.881  11.915 -0.1746 -0.2140 -0.0749
    1Sil     Ob  744   1.846   2.483  11.926  0.2687  0.0402  0.7650
    1Sil     Ob  745   2.401   2.476  12.323 -0.3405 -0.8246 -0.2643
    1Sil     Ob  746   2.221   2.378  11.565 -0.3617  0.3223  0.6207
    1Sil     Ob  747   2.224   2.313  12.401  0.2089 -0.4704 -0.9044
    1Sil     Ob  748   1.982   2.327  11.614 -0.4184 -0.1873  0.3042
    1Sil     Ob  749   2.517   2.297  12.017  0.0412 -0.1699 -0.0641
    1Sil     Ob  750   2.009   2.064  12.139 -0.0192 -0.4515  0.4886
    1Sil     Ob  751   2.592   2.075  11.342 -0.5091 -0.5100 -0.1861
    1Sil     Ob  752   2.301   2.063  11.735  0.2351 -0.0041 -0.0321
    1Sil     Ob  753   1.990   2.240  12.321 -0.4078  0.5493 -0.0723
    1Sil     Ob  754   1.759   2.234  11.519  0.1262 -0.4053 -0.2975
    1Sil     Ob  755   2.323   2.128  11.982 -0.1580  0.0806 -0.2880
    1Sil     Ob  756   1.918   2.233  11.968  0.9668 -0.3506 -0.2268
    1Sil     Ob  757   2.465   2.237  12.353 -0.1593 -0.3762 -0.6904
    1Sil     Ob  758   2.143   2.134  11.549 -0.0339 -0.5629 -0.1645
    1Sil     Ob  759   2.392   2.067  11.493  0.0277 -0.0337  0.0833
    1Sil     Ob  760   1.802   2.059  12.297  0.0943 -0.0757 -0.0973
    1Sil     Ob  761   2.098   2.051  11.897  0.1594 -0.0891  0.3610
    1Sil     Ob  762   1.771   2.304  11.760  0.1817  0.0455 -0.5644
    1Sil     Ob  763   2.302   2.302  12.165 -0.4840  0.0329 -0.1887
    1Sil     Ob  764   2.066   2.295  11.368 -0.0162  0.2761  0.4835
    1Sil     Ob  765   2.083   2.484  11.193 -0.3537  0.2720  0.2101
    1Sil     Ob  766   2.668   2.475  10.400 -0.0904 -0.7535  0.1563
    1Sil     Ob  767   2.345   2.388  10.707 -0.9557  0.0907  0.2131
    1Sil     Ob  768   1.908   2.979  10.759  0.3927  0.4595  0.0701
    1Sil     Ob  769   2.447   2.977  11.120  0.0571 -0.1295  0.0630
    1Sil     Ob  770   2.263   2.855  10.366  0.1218 -0.2511 -0.6153
    1Sil     Ob  771   2.278   2.812  11.213 -0.7427  0.3805  0.6942
    1Sil     Ob  772   2.022   2.787  10.425  0.0330 -0.0841 -0.1273
    1Sil     Ob  773   2.568   2.804  10.819  0.7973  0.9745  0.0866
    1Sil     Ob  774   2.075   2.559  10.946 -0.1133 -0.1760  0.6748
    1Sil     Ob  775   2.349   2.562  10.526 -0.0688  0.0770  0.5095
    1Sil     Ob  776   2.046   2.731  11.125  0.2801  0.0321 -0.0412
    1Sil     Ob  777   1.785   2.734  10.358 -0.3862  0.4139 -0.2728
    1Sil     Ob  778   2.382   2.617  10.774 -0.3817  0.0673 -0.6751
    1Sil     Ob  779   1.983   2.733  10.777  0.3647 -0.6112 -0.6018
    1Sil     Ob  780   2.522   2.735  11.178  0.6710 -0.1997 -0.0575
    1Sil     Ob  781   2.203   2.619  10.327 -0.4039 -0.4834 -0.0638
    1Sil     Ob  782   2.443   2.559  10.288  0.3063  0.0640 -0.2018
    1Sil     Ob  783   1.859   2.569  11.094  0.7808  0.4198  0.4555
    1Sil     Ob  784   2.145   2.547  10.702  0.5201 -0.3576 -0.4054
    1Sil     Ob  785   1.833   2.806  10.585  0.2945 -0.7909  0.0013
    1Sil     Ob  786   2.360   2.781  10.970  0.8293 -0.0365  0.2972
    1Sil     Ob  787   2.039   2.490  12.370 -0.3028 -0.2343  0.8010
    1Sil     Ob  788   2.619   2.486  11.585  0.4980  0.0784  0.6426
    1Sil     Ob  789   2.279   2.376  11.913 -0.0796 -0.2035  0.2580
    1Sil     Ob  790   1.860   2.973  11.921  0.2367  0.4435 -0.2308
    1Sil     Ob  791   2.396   2.970  12.316  0.5230 -0.4941  0.1738
    1Sil     Ob  792   2.212   2.866  11.563 -0.7137 -0.0460  0.2006
    1Sil     Ob  793   2.210   2.806  12.398  0.2560  0.2964  0.3149
    1Sil     Ob  794   1.970   2.795  11.612  0.0531  0.2474  0.2731
    1Sil     Ob  795   2.513   2.785  12.004 -0.2128  0.2315  0.2731
    1Sil     Ob  796   2.007   2.549  12.120  0.4660 -0.0964 -0.0149
    1Sil     Ob  797   2.598   2.550  11.343 -0.3531 -0.0255  0.1007
    1Sil     Ob  798   2.286   2.554  11.728 -0.6809 -0.3890  0.7176
    1Sil     Ob  799   1.992   2.732  12.298  0.1541 -0.0248  0.8895
    1Sil     Ob  800   1.737   2.728  11.507 -0.5108 -0.1194 -0.2730
    1Sil     Ob  801   2.307   2.626  11.971 -0.3015  0.0157 -0.1604
    1Sil     Ob  802   1.924   2.724  11.952 -0.1670  0.9375  0.2860
    1Sil     Ob  803   2.463   2.727  12.352  0.2558 -0.9804  0.3580
    1Sil     Ob  804   2.140   2.625  11.541  0.2348  0.1812 -0.0842
    1Sil     Ob  805   2.379   2.563  11.490  0.5237 -0.1524 -0.5731
    1Sil     Ob  806   1.807   2.553  12.288 -0.9912  0.0104  0.0794
    1Sil     Ob  807   2.087   2.541  11.878  0.1416 -0.1494 -0.2699
    1Sil     Ob  808   1.767   2.801  11.762  0.2910 -0.7517  0.2686
    1Sil     Ob  809   2.309   2.797  12.149  0.2496  0.6260  0.1123
    1Sil     Ob  810   2.060   2.802  11.365 -0.2867  0.1689  1.0681
    1Sil     Ob  811   2.097   2.974  11.185  0.4458  0.6663 -0.1098
    1Sil     Ob  812   2.664   2.966  10.390  0.5884 -0.9342 -0.7068
    1Sil     Ob  813   2.320   2.870  10.739 -0.4713 -0.0066 -0.3932
    1Sil     Ob  814   1.894   3.467  10.732 -0.0506 -0.1462  0.4542
    1Sil     Ob  815   2.432   3.470  11.136  0.2566  0.1254  0.1379
    1Sil     Ob  816   2.274   3.356  10.357  0.6325  0.2292  0.0716
    1Sil     Ob  817   2.256   3.293  11.210 -0.0842  0.1732  0.4658
    1Sil     Ob  818   2.028   3.288  10.409  0.2503 -0.1780 -0.0886
    1Sil     Ob  819   2.551   3.306  10.828 -0.3251 -0.1203 -0.3620
    1Sil     Ob  820   2.060   3.054  10.937  0.3073  0.0271  0.3619
    1Sil     Ob  821   2.352   3.028  10.539 -0.6406  0.1933  0.7781
    1Sil     Ob  822   2.025   3.227  11.127 -0.2146 -0.3383  0.1187
    1Sil     Ob  823   1.797   3.224  10.316 -0.0731 -0.2606 -0.0553
    1Sil     Ob  824   2.376   3.117  10.790  0.8966 -0.0591  0.4155
    1Sil     Ob  825   1.973   3.225  10.759  0.5249 -0.4002 -0.2931
    1Sil     Ob  826   2.501   3.224  11.167  0.1075 -0.1641  0.1415
    1Sil     Ob  827   2.206   3.106  10.340 -0.6585 -0.3368 -0.3535
    1Sil     Ob  828   2.435   3.027  10.303 -0.7591  0.0864 -0.1317
    1Sil     Ob  829   1.861   3.033  11.094  0.4393 -0.3663 -0.3379
    1Sil     Ob  830   2.148   3.041  10.693 -0.2732  0.1104 -0.2435
    1Sil     Ob  831   1.818   3.308  10.562  0.5067 -0.2707  0.4537
    1Sil     Ob  832   2.343   3.290  10.967  0.3363 -0.1884  0.6129
    1Sil     Ob  833   2.033   2.984  12.366  0.1369  0.2179 -0.8404
    1Sil     Ob  834   2.619   2.971  11.581 -0.1515  0.6937  0.2205
    1Sil     Ob  835   2.292   2.863  11.907 -0.3693  0.1248 -0.1281
    1Sil     Ob  836   1.853   3.457  11.936 -0.0693  0.3827 -0.1708
    1Sil     Ob  837   2.396   3.465  12.320  0.5063  0.4071  0.5124
    1Sil     Ob  838   2.209   3.364  11.567 -0.7747  0.2183  0.0188
    1Sil     Ob  839   2.217   3.301  12.393 -0.1427 -0.1526  0.4415
    1Sil     Ob  840   1.962   3.282  11.604  0.7201 -0.2881  0.4150
    1Sil     Ob  841   2.519   3.293  12.012 -0.1739 -0.0871 -0.3507
    1Sil     Ob  842   2.004   3.036  12.124 -0.7775 -0.1134  0.1628
    1Sil     Ob  843   2.586   3.044  11.329  0.4476  0.4178 -0.0000
    1Sil     Ob  844   2.299   3.058  11.723 -0.0490  0.5636 -0.3267
    1Sil     Ob  845   1.988   3.229  12.301  0.0309 -0.0850  0.3099
    1Sil     Ob  846   1.734   3.223  11.521 -0.2356  0.0431  0.3417
    1Sil     Ob  847   2.338   3.110  11.974  0.1659 -0.1294 -0.0995
    1Sil     Ob  848   1.931   3.213  11.954  0.5294 -0.1220 -0.2768
    1Sil     Ob  849   2.451   3.221  12.358 -0.2222 -0.0838  0.2979
    1Sil     Ob  850   2.136   3.114  11.524 -0.0938  0.1638 -0.9857
    1Sil     Ob  851   2.383   3.039  11.482 -0.0182  0.3109  0.2934
    1Sil     Ob  852   1.802   3.052  12.282  0.3850 -0.0180  0.4365
    1Sil     Ob  853   2.096   3.041  11.881  0.5165 -0.8760 -0.2839
    1Sil     Ob  854   1.768   3.290  11.766 -0.2079  0.2467  0.0022
    1Sil     Ob  855   2.309   3.295  12.153 -0.5924  0.8081 -0.0892
    1Sil     Ob  856   2.060   3.296  11.367  0.0254  0.4907  0.2859
    1Sil     Ob  857   2.077   3.472  11.185  0.0710  0.3604  0.5444
    1Sil     Ob  858   2.665   3.455  10.389 -0.0673  0.0350 -0.4589
    1Sil     Ob  859   2.316   3.365  10.730 -0.1448 -0.0950  0.2898
    1Sil     Ob  860   1.899   3.959  10.741  0.2717 -0.2096  0.1744
    1Sil     Ob  861   2.438   3.959  11.131 -0.0556 -0.2900 -0.0965
    1Sil     Ob  862   2.266   3.846  10.338  0.3230 -0.2100  0.5285
    1Sil     Ob  863   2.259   3.782  11.206 -0.3318 -0.0821  0.6989
    1Sil     Ob  864   2.018   3.783  10.403 -0.0133 -0.1669 -0.3813
    1Sil     Ob  865   2.567   3.782  10.805 -0.4521 -0.3607 -0.3639
    1Sil     Ob  866   2.038   3.531  10.929 -0.6484 -0.0817  0.1553
    1Sil     Ob  867   2.339   3.529  10.538  0.6233 -0.0613 -0.1520
    1Sil     Ob  868   2.028   3.713  11.118 -0.3694 -0.3626 -0.0630
    1Sil     Ob  869   1.783   3.712  10.316  0.4307  0.0698 -0.1432
    1Sil     Ob  870   2.372   3.605  10.785  0.0962  0.4213  0.2074
    1Sil     Ob  871   1.962   3.713  10.762  0.0122  0.1583 -0.3068
    1Sil     Ob  872   2.506   3.721  11.160  0.7207  0.1688 -0.4214
    1Sil     Ob  873   2.185   3.597  10.336  0.2592  0.5508 -0.4266
    1Sil     Ob  874   2.435   3.552  10.294 -0.1451 -0.0590 -0.3268
    1Sil     Ob  875   1.844   3.542  11.097 -0.0454  0.4566  0.1949
    1Sil     Ob  876   2.132   3.532  10.692  0.2010 -0.2896  0.2450
    1Sil     Ob  877   1.806   3.793  10.560 -0.2323  0.7425 -0.5567
    1Sil     Ob  878   2.353   3.777  10.965  0.6236  0.2429 -0.4465
    1Sil     Ob  879   2.035   3.479  12.372  0.1558  0.0702 -0.2781
    1Sil     Ob  880   2.628   3.472  11.572 -0.2797  0.2194 -0.4058
    1Sil     Ob  881   2.287   3.351  11.905  0.8256  0.0476  0.2482
    1Sil     Ob  882   1.860   3.954  11.930  0.1297  0.4290  0.0049
    1Sil     Ob  883   2.397   3.965  12.323  0.2440 -0.1390  0.0868
    1Sil     Ob  884   2.218   3.847  11.553  0.3727  0.5766 -0.2151
    1Sil     Ob  885   2.227   3.787  12.406  0.5072  0.6371 -0.2370
    1Sil     Ob  886   1.971   3.793  11.605 -0.1709  0.3449 -0.5036
    1Sil     Ob  887   2.512   3.779  12.001  0.8265 -0.9137 -0.3564
    1Sil     Ob  888   2.013   3.549  12.123 -0.4245 -0.1417  0.1554
    1Sil     Ob  889   2.593   3.546  11.328  0.5200  0.0164 -0.1423
    1Sil     Ob  890   2.290   3.542  11.725  0.6569 -0.4226 -0.1884
    1Sil     Ob  891   1.988   3.729  12.319  0.0156  0.2641  0.4889
    1Sil     Ob  892   1.742   3.717  11.519  0.1026 -0.2337 -0.3698
    1Sil     Ob  893   2.326   3.602  11.972 -0.3674  0.6658  0.3236
    1Sil     Ob  894   1.937   3.707  11.947 -0.0806  0.4307 -0.6661
    1Sil     Ob  895   2.462   3.711  12.365  0.0070 -0.0141  0.5185
    1Sil     Ob  896   2.144   3.605  11.535 -0.1454  0.4926 -0.5886
    1Sil     Ob  897   2.389   3.540  11.485  0.1256  0.7684 -0.1282
    1Sil     Ob  898   1.811   3.541  12.282 -0.6243 -0.0620 -0.6108
    1Sil     Ob  899   2.092   3.521  11.882  0.2643  0.8499 -0.8725
    1Sil     Ob  900   1.773   3.791  11.757 -0.1629 -0.6285  0.2568
    1Sil     Ob  901   2.306   3.784  12.157 -0.1123  0.5215 -0.0680
    1Sil     Ob  902   2.052   3.779  11.365  0.7106 -0.1002 -0.1222
    1Sil     Ob  903   2.082   3.957  11.172  0.6711  0.7262 -0.6433
    1Sil     Ob  904   2.677   3.961  10.369  0.5563  0.1995  0.0403
    1Sil     Ob  905   2.338   3.852  10.709 -0.0739 -0.9377 -0.1442
    1Sil     Ob  906   2.279   0.839  11.214  0.6749 -0.5191  0.4642
    1Sil     Ob  907   2.031   0.814  10.411 -0.8905 -0.2904 -0.5996
    1Sil     Ob  908   2.566   0.819  10.815  0.2858 -0.1768  0.0971
    1Sil     Ob  909   2.059   4.037  10.926 -0.2655  0.7251 -0.3336
    1Sil     Ob  910   2.345   4.023  10.521 -0.3118 -0.0400  0.0976
    1Sil     Ob  911   2.045   4.207  11.125 -0.5207 -0.0718  0.3669
    1Sil     Ob  912   1.791   4.203  10.326 -0.1217  0.6067 -0.0237
    1Sil     Ob  913   2.378   4.101  10.770  0.2879 -0.5773  0.4080
    1Sil     Ob  914   1.983   0.751  10.759  0.2090 -0.0276  0.1159
    1Sil     Ob  915   2.521   0.753  11.150  0.1660 -0.6513 -0.7062
    1Sil     Ob  916   2.194   0.639  10.325 -0.4975  0.4326 -0.6720
    1Sil     Ob  917   2.438   4.027  10.278  0.0496 -0.0772 -0.4372
    1Sil     Ob  918   1.854   4.037  11.079 -0.2398  0.1482  0.3003
    1Sil     Ob  919   2.145   4.014  10.684 -0.1629  0.6216 -0.1989
    1Sil     Ob  920   1.826   0.822  10.565 -0.2485  0.1087  0.3031
    1Sil     Ob  921   2.354   0.805  10.965 -0.1044  0.5617 -0.0047
    1Sil     Ob  922   2.046   3.971  12.373 -0.4707  0.5805  0.6304
    1Sil     Ob  923   2.627   3.971  11.565  0.0981 -0.2309 -0.0964
    1Sil     Ob  924   2.285   3.846  11.904  0.7393 -0.1187 -0.0988
    1Sil     Ob  925   2.217   0.827  12.389  0.0988  0.0298 -0.1388
    1Sil     Ob  926   1.973   0.830  11.610 -0.5778  0.3716  0.7674
    1Sil     Ob  927   2.516   0.824  12.015  0.1425  0.1866 -0.3247
    1Sil     Ob  928   2.016   4.025  12.125 -0.2982 -0.7933  0.2221
    1Sil     Ob  929   2.601   4.035  11.320  0.3990  0.3648 -0.4273
    1Sil     Ob  930   2.293   4.025  11.719  0.0499  0.4339  0.1962
    1Sil     Ob  931   1.994   4.214  12.315 -0.3573  0.5473 -0.4389
    1Sil     Ob  932   1.733   4.205  11.521  0.1398 -0.3826  0.4547
    1Sil     Ob  933   2.337   4.096  11.972  0.9892 -0.4288 -0.6669
    1Sil     Ob  934   1.928   0.753  11.965  0.0585 -0.0503  0.6409
    1Sil     Ob  935   2.469   0.756  12.355  0.4948  0.0350 -0.2471
    1Sil     Ob  936   2.142   0.641  11.525 -0.6050  0.3907  0.1131
    1Sil     Ob  937   2.397   4.032  11.474 -0.0504  0.0593  1.1008
    1Sil     Ob  938   1.813   4.043  12.294  0.0399 -0.3647  0.3242
    1Sil     Ob  939   2.101   4.035  11.881 -0.1235 -0.9840  0.1637
    1Sil     Ob  940   1.766   0.829  11.765  0.2037  0.0664 -0.1743
    1Sil     Ob  941   2.309   0.807  12.164  0.0895  0.6799  0.1073
    1Sil     Ob  942   2.066   0.832  11.368  0.2474  0.8763 -0.5868
    1Sil     Ob  943   2.918   1.004  11.177 -0.3678 -0.1281  0.6969
    1Sil     Ob  944   2.740   1.498  10.726 -0.3898  0.1314  0.4199
    1Sil     Ob  945   3.270   1.513  11.129 -0.0214  0.1654  0.0942
    1Sil     Ob  946   3.105   1.401  10.376  0.2109 -0.6652  0.4978
    1Sil     Ob  947   3.105   1.335  11.210 -0.2674 -0.3921 -0.1398
    1Sil     Ob  948   2.855   1.330  10.404 -1.0050  0.2921 -0.2053
    1Sil     Ob  949   0.063   1.318  10.814 -0.0790 -0.1058 -0.3441
    1Sil     Ob  950   2.887   1.075  10.930  0.5633 -0.5780  0.1833
    1Sil     Ob  951  -0.153   1.085  10.530 -0.2148  0.0351 -0.0072
    1Sil     Ob  952   2.873   1.255  11.116 -0.0670 -0.5668  0.0955
    1Sil     Ob  953   2.626   1.258  10.319  0.0448  0.1231 -0.1031
    1Sil     Ob  954  -0.129   1.153  10.785  0.3385  0.1126  0.0901
    1Sil     Ob  955   2.813   1.247  10.765  0.2373 -0.1636  0.7405
    1Sil     Ob  956   3.341   1.258  11.160 -0.1984 -0.8105  0.2554
    1Sil     Ob  957   3.039   1.154  10.328  0.1445  0.1836  0.1589
    1Sil     Ob  958  -0.060   1.078  10.292  0.3494  0.1245  0.2816
    1Sil     Ob  959   2.689   1.065  11.099 -0.4616 -0.1071 -0.3046
    1Sil     Ob  960  -0.344   1.062  10.689  0.2903  0.3430 -0.0148
    1Sil     Ob  961   2.668   1.310  10.563  0.1687  0.3228  0.1098
    1Sil     Ob  962   3.183   1.330  10.970  0.5437 -0.5089  0.5885
    1Sil     Ob  963   2.856   1.008  12.382  0.0125  0.4506  0.3127
    1Sil     Ob  964   2.680   1.496  11.941 -0.1944 -0.2116 -0.0130
    1Sil     Ob  965   3.219   1.499  12.337  0.3157  0.3337  0.8121
    1Sil     Ob  966   3.045   1.390  11.571 -0.6973 -0.1385 -0.6661
    1Sil     Ob  967   3.057   1.309  12.396  0.3408 -1.1045  0.5629
    1Sil     Ob  968   2.804   1.308  11.604  1.0910  0.0009  0.2950
    1Sil     Ob  969   0.016   1.326  12.002  0.2792 -0.4725  0.1521
    1Sil     Ob  970   2.829   1.072  12.129  0.1450 -0.6999  0.0525
    1Sil     Ob  971   0.100   1.085  11.326  0.3323  0.3069  0.5508
    1Sil     Ob  972  -0.203   1.080  11.723  0.3415 -0.0280  0.1674
    1Sil     Ob  973   2.816   1.246  12.318  0.0287 -0.1205  0.6909
    1Sil     Ob  974   2.562   1.251  11.523  0.1819 -0.1970  0.1388
    1Sil     Ob  975  -0.165   1.152  11.964  0.4039 -0.1863 -0.7664
    1Sil     Ob  976   2.752   1.249  11.971  0.0693  0.2594  0.6049
    1Sil     Ob  977   3.299   1.255  12.343  0.0879 -0.2196  0.3102
    1Sil     Ob  978   2.983   1.150  11.510 -0.0249  0.1066 -0.1495
    1Sil     Ob  979  -0.107   1.070  11.477  0.3847 -0.5625  0.0387
    1Sil     Ob  980   2.636   1.058  12.305 -0.5876 -0.3448 -0.0353
    1Sil     Ob  981  -0.408   1.070  11.884  0.0832 -0.3010 -0.0055
    1Sil     Ob  982   2.603   1.323  11.780  0.3683  0.4969  0.2198
    1Sil     Ob  983   3.137   1.323  12.153  0.2922 -0.1143  0.5592
    1Sil     Ob  984   2.897   1.341  11.366 -0.0980 -0.4740 -0.2831
    1Sil     Ob  985   2.912   1.505  11.171  0.1565 -0.1546  0.3875
    1Sil     Ob  986  -0.161   1.407  10.719 -0.3928  0.1236 -0.5786
    1Sil     Ob  987   2.733   1.987  10.737 -0.5144  0.7378 -0.5386
    1Sil     Ob  988   3.277   2.002  11.140  0.3049  0.8113  0.2958
    1Sil     Ob  989   3.091   1.880  10.388 -0.3006 -0.0171  0.9665
    1Sil     Ob  990   3.104   1.816  11.222  0.3002 -0.3901  0.4772
    1Sil     Ob  991   2.846   1.789  10.414  0.5158  0.3838 -0.4352
    1Sil     Ob  992   0.080   1.814  10.821 -0.3189  0.6409  0.0609
    1Sil     Ob  993   2.879   1.573  10.923 -0.6482  0.1101 -0.1008
    1Sil     Ob  994  -0.127   1.579  10.539 -0.0831  0.0561  0.1235
    1Sil     Ob  995   2.873   1.744  11.119 -0.1243  0.3277 -0.3330
    1Sil     Ob  996   2.597   1.742  10.338  0.9802  0.0108  0.1143
    1Sil     Ob  997  -0.111   1.650  10.784  0.2655  0.1823  1.2104
    1Sil     Ob  998   2.799   1.746  10.763 -0.1112  0.2798  0.4125
    1Sil     Ob  999   3.343   1.762  11.168 -0.3780  0.3907 -0.4024
    1Sil     Ob 1000   3.031   1.635  10.343  0.1373  0.2594 -0.1127
    1Sil     Ob 1001  -0.053   1.579  10.294  0.3895  0.2343  0.2310
    1Sil     Ob 1002   2.675   1.571  11.086  0.5253 -0.8151  0.5137
    1Sil     Ob 1003  -0.343   1.583  10.684  0.6440  0.5769 -0.4128
    1Sil     Ob 1004   2.642   1.836  10.569 -0.4205  0.5467 -0.5851
    1Sil     Ob 1005   3.193   1.829  10.966 -0.3326  0.5370  0.5677
    1Sil     Ob 1006   2.876   1.495  12.379 -0.1220  0.8269  0.7500
    1Sil     Ob 1007  -0.217   1.400  11.915  0.3902  0.1419  0.2589
    1Sil     Ob 1008   2.687   1.987  11.951 -0.3359  0.0385  0.0289
    1Sil     Ob 1009   3.213   1.989  12.343 -0.2376 -0.2319 -0.0458
    1Sil     Ob 1010   3.056   1.883  11.567  0.4846  1.0687  1.0146
    1Sil     Ob 1011   3.041   1.812  12.415 -0.1574  0.3702  0.2130
    1Sil     Ob 1012   2.807   1.814  11.620 -0.1181 -0.5142 -0.2829
    1Sil     Ob 1013   0.019   1.807  12.007  0.3034 -0.2661  0.2578
    1Sil     Ob 1014   2.836   1.586  12.137 -0.6166  0.5936  0.3517
    1Sil     Ob 1015   0.095   1.583  11.334 -0.1599  0.2549 -0.1731
    1Sil     Ob 1016  -0.194   1.574  11.735 -0.0258 -0.3644 -0.7010
    1Sil     Ob 1017   2.807   1.735  12.350  0.4249  0.0190  0.0002
    1Sil     Ob 1018   2.583   1.745  11.515 -0.4496  0.6986 -0.6357
    1Sil     Ob 1019  -0.174   1.642  11.987 -0.3669 -0.8475 -0.0191
    1Sil     Ob 1020   2.753   1.745  11.962 -0.0638 -0.3574  0.3548
    1Sil     Ob 1021   3.286   1.749  12.371  0.5435  0.5005  0.3447
    1Sil     Ob 1022   2.976   1.636  11.547 -0.0362 -0.0177 -0.1979
    1Sil     Ob 1023  -0.114   1.578  11.490 -0.0909 -0.4283  0.9915
    1Sil     Ob 1024   2.641   1.557  12.308 -0.1178 -0.1816 -0.0651
    1Sil     Ob 1025  -0.405   1.579  11.881 -0.2809  0.5338 -0.1860
    1Sil     Ob 1026   2.599   1.824  11.764 -0.5845 -0.2229 -0.9465
    1Sil     Ob 1027   3.136   1.817  12.172 -0.0688 -0.7882  0.0010
    1Sil     Ob 1028   2.894   1.815  11.375  0.0836  0.1869  0.4151
    1Sil     Ob 1029   2.922   1.988  11.190  0.1622  0.6006 -0.4117
    1Sil     Ob 1030  -0.151   1.894  10.722 -0.4350 -0.3544 -0.2764
    1Sil     Ob 1031   2.743   2.485  10.744  0.4110  0.6633  1.1607
    1Sil     Ob 1032   3.285   2.490  11.131 -0.2455 -0.3860  0.2130
    1Sil     Ob 1033   3.109   2.367  10.348  0.9027  0.3237 -1.0680
    1Sil     Ob 1034   3.098   2.331  11.221  0.2213 -0.0181  0.4126
    1Sil     Ob 1035   2.868   2.320  10.415  0.0505  0.3832 -0.4846
    1Sil     Ob 1036   0.070   2.319  10.820 -0.1195 -0.3106 -0.0462
    1Sil     Ob 1037   2.892   2.050  10.942 -0.5368 -0.0498  0.1808
    1Sil     Ob 1038  -0.148   2.065  10.543 -0.1491 -0.5544 -0.1920
    1Sil     Ob 1039   2.878   2.240  11.124 -0.0923 -0.3237 -0.1424
    1Sil     Ob 1040   2.641   2.233  10.320 -0.1512 -0.3036  0.0410
    1Sil     Ob 1041  -0.110   2.131  10.793 -0.4629  0.0244  0.3007
    1Sil     Ob 1042   2.800   2.231  10.791 -0.5280 -0.8446  0.2549
    1Sil     Ob 1043   3.339   2.253  11.174  0.3119 -0.6107 -0.1233
    1Sil     Ob 1044   3.025   2.130  10.347  0.2599  0.2941 -0.5123
    1Sil     Ob 1045  -0.060   2.055  10.298 -0.2470  0.5006  0.4140
    1Sil     Ob 1046   2.693   2.050  11.105 -0.3136  0.2102  0.0771
    1Sil     Ob 1047  -0.343   2.061  10.701 -0.3641 -0.1434  0.5831
    1Sil     Ob 1048   2.673   2.288  10.577 -0.2335  0.4278  0.1195
    1Sil     Ob 1049   3.185   2.317  10.971  0.0475 -0.1444 -0.0267
    1Sil     Ob 1050   2.874   1.993  12.391  0.0833 -0.0015 -0.2849
    1Sil     Ob 1051  -0.208   1.889  11.919  0.0281  0.1583 -0.4874
    1Sil     Ob 1052   2.686   2.483  11.950  0.0479  0.1067 -0.2066
    1Sil     Ob 1053   3.243   2.481  12.313 -0.0423 -0.0429  0.6854
    1Sil     Ob 1054   3.054   2.383  11.562 -0.2262  0.1347 -0.0151
    1Sil     Ob 1055   3.062   2.328  12.413 -0.2788 -0.0067  0.4768
    1Sil     Ob 1056   2.800   2.319  11.622 -0.1796  0.2510 -0.5591
    1Sil     Ob 1057   0.023   2.310  12.017 -0.3298  0.2635  0.7110
    1Sil     Ob 1058   2.844   2.061  12.136 -0.7134 -0.4176  0.1422
    1Sil     Ob 1059   0.097   2.073  11.331  0.3553 -0.1365  0.0464
    1Sil     Ob 1060  -0.193   2.061  11.730 -0.3511  0.8360 -0.0452
    1Sil     Ob 1061   2.829   2.244  12.329 -0.5314 -0.3120 -0.1081
    1Sil     Ob 1062   2.570   2.243  11.526 -0.0482  0.0917  0.0080
    1Sil     Ob 1063  -0.159   2.140  11.979 -0.0020 -0.8909 -0.0456
    1Sil     Ob 1064   2.752   2.237  11.960  0.1843  0.8504 -0.3410
    1Sil     Ob 1065   3.300   2.231  12.374  0.4454 -0.4171  0.1733
    1Sil     Ob 1066   2.967   2.127  11.544  0.3434  0.2547 -0.5357
    1Sil     Ob 1067  -0.109   2.064  11.492  0.1789 -0.4461 -0.2621
    1Sil     Ob 1068   2.644   2.061  12.291  0.1624 -0.8802  0.1329
    1Sil     Ob 1069  -0.396   2.071  11.894  0.1314  0.2236  0.4155
    1Sil     Ob 1070   2.592   2.326  11.769 -0.2532  0.3225 -0.4201
    1Sil     Ob 1071   3.139   2.296  12.173  0.5816 -0.1848 -0.5872
    1Sil     Ob 1072   2.890   2.310  11.382  0.0320  0.1870  0.6294
    1Sil     Ob 1073   2.916   2.486  11.187  0.4424  0.0400  0.6147
    1Sil     Ob 1074  -0.166   2.377  10.732 -0.1348 -0.2780 -0.4015
    1Sil     Ob 1075   2.732   2.972  10.735  0.5298  0.0799  0.2828
    1Sil     Ob 1076   3.280   2.976  11.135  0.2970  0.4486  0.0584
    1Sil     Ob 1077   3.105   2.857  10.349 -0.6633 -0.9553  0.1078
    1Sil     Ob 1078   3.106   2.802  11.213  0.3527  0.0003  0.4016
    1Sil     Ob 1079   2.861   2.807  10.408 -0.2970 -0.5234  0.1156
    1Sil     Ob 1080   0.063   2.818  10.818  0.3489 -0.5597  0.8563
    1Sil     Ob 1081   2.904   2.562  10.937 -0.3754 -0.4802 -0.2605
    1Sil     Ob 1082  -0.146   2.534  10.529 -0.4958 -0.2049 -0.6309
    1Sil     Ob 1083   2.878   2.730  11.125  0.7525 -0.1368 -0.1616
    1Sil     Ob 1084   2.648   2.723  10.310 -0.3047 -0.2866  0.0370
    1Sil     Ob 1085  -0.109   2.622  10.775 -0.1005 -0.4597  0.6130
    1Sil     Ob 1086   2.813   2.729  10.758  0.0634 -0.3933 -0.3779
    1Sil     Ob 1087   3.351   2.735  11.157  0.1846  0.3530 -0.2586
    1Sil     Ob 1088   3.011   2.612  10.349 -0.3553 -0.2750  0.0816
    1Sil     Ob 1089  -0.064   2.548  10.290  0.3137  0.0725 -0.0969
    1Sil     Ob 1090   2.696   2.559  11.096  0.0291  0.3955  0.4279
    1Sil     Ob 1091  -0.347   2.547  10.688 -0.1838 -0.9717 -0.0166
    1Sil     Ob 1092   2.660   2.786  10.574  0.0205  0.4157  0.0792
    1Sil     Ob 1093   3.181   2.799  10.970 -0.0637 -0.2063 -0.1486
    1Sil     Ob 1094   2.874   2.491  12.381  0.1794  0.2480  0.5197
    1Sil     Ob 1095  -0.202   2.376  11.923  0.2224  0.1963  0.5440
    1Sil     Ob 1096   2.679   2.976  11.949 -0.2783 -0.1672 -0.3992
    1Sil     Ob 1097   3.221   2.984  12.323  0.0526 -0.4451  0.1501
    1Sil     Ob 1098   3.049   2.872  11.567 -0.8764  0.1079  0.0104
    1Sil     Ob 1099   3.048   2.810  12.400  0.2434  0.3690  0.3161
    1Sil     Ob 1100   2.809   2.800  11.617  0.1082  0.2862  0.1387
    1Sil     Ob 1101   0.024   2.778  12.003 -0.2726 -0.4482 -0.1101
    1Sil     Ob 1102   2.852   2.571  12.135  0.1327 -0.1937  0.1571
    1Sil     Ob 1103   0.101   2.566  11.334 -0.0503  0.2716 -0.1727
    1Sil     Ob 1104  -0.206   2.564  11.732  0.0660  0.0315 -0.0837
    1Sil     Ob 1105   2.814   2.737  12.324  0.0265  0.7334  0.3819
    1Sil     Ob 1106   2.576   2.731  11.516  0.3453 -0.3587 -0.1216
    1Sil     Ob 1107  -0.186   2.624  11.986 -0.5478  0.2403  0.1078
    1Sil     Ob 1108   2.764   2.731  11.955  0.0353 -0.5303 -0.5271
    1Sil     Ob 1109   3.300   2.738  12.346  0.1329 -0.2428 -0.8885
    1Sil     Ob 1110   2.978   2.619  11.540 -0.2149 -0.0013  0.3792
    1Sil     Ob 1111  -0.110   2.564  11.488 -0.4594  0.3870 -0.1199
    1Sil     Ob 1112   2.640   2.549  12.293 -0.3736 -0.0124 -0.4692
    1Sil     Ob 1113  -0.403   2.540  11.892 -0.1157 -0.8676 -0.0775
    1Sil     Ob 1114   2.607   2.806  11.773  0.2032 -0.4126  0.1877
    1Sil     Ob 1115   3.143   2.811  12.157  0.6346  0.1251 -0.3276
    1Sil     Ob 1116   2.889   2.802  11.370  0.3652  0.7357 -0.2605
    1Sil     Ob 1117   2.910   2.978  11.194 -0.4207 -0.5087 -0.2293
    1Sil     Ob 1118  -0.174   2.871  10.726 -0.1699  0.0497  0.2830
    1Sil     Ob 1119   2.733   3.470  10.731  0.2306  0.3029 -0.1918
    1Sil     Ob 1120   3.275   3.466  11.134  0.0898 -0.1053  0.7002
    1Sil     Ob 1121   3.093   3.363  10.365  0.3248  0.4012 -0.3922
    1Sil     Ob 1122   3.098   3.299  11.208 -0.4208  0.3893 -0.1905
    1Sil     Ob 1123   2.847   3.285  10.421  0.3258 -0.0361 -0.0332
    1Sil     Ob 1124   0.061   3.290  10.811  0.1790  0.1595 -0.0910
    1Sil     Ob 1125   2.881   3.035  10.929  0.3443 -0.3257 -0.1818
    1Sil     Ob 1126  -0.149   3.035  10.533  0.1841 -0.4123 -0.3069
    1Sil     Ob 1127   2.864   3.226  11.113 -0.0888  0.5903  0.6378
    1Sil     Ob 1128   2.612   3.211  10.332  0.0043 -0.4226 -0.4336
    1Sil     Ob 1129  -0.114   3.115  10.773  0.2139  0.5568 -0.3036
    1Sil     Ob 1130   2.794   3.220  10.775 -0.2368  0.0101 -0.8491
    1Sil     Ob 1131   3.348   3.219  11.169 -0.0238  0.6284  0.3314
    1Sil     Ob 1132   3.024   3.103  10.350  0.1109 -0.3500  0.0435
    1Sil     Ob 1133  -0.055   3.062  10.293 -0.0596  0.1227 -0.6994
    1Sil     Ob 1134   2.680   3.056  11.087  0.0918 -0.4039 -0.7108
    1Sil     Ob 1135  -0.352   3.059  10.692 -0.1290 -0.7424  0.3570
    1Sil     Ob 1136   2.648   3.290  10.587  0.2439  0.9179 -0.0429
    1Sil     Ob 1137   3.191   3.300  10.964 -0.1371 -0.0852  0.1343
    1Sil     Ob 1138   2.860   2.982  12.380 -0.2332  0.1822 -0.5905
    1Sil     Ob 1139  -0.202   2.870  11.910 -0.5237 -0.8983 -0.3173
    1Sil     Ob 1140   2.691   3.472  11.928 -0.0029  0.0412  0.1538
    1Sil     Ob 1141   3.218   3.467  12.337  0.1464  0.4534  0.0358
    1Sil     Ob 1142   3.051   3.361  11.556  0.3901 -0.2591  0.3899
    1Sil     Ob 1143   3.043   3.287  12.400 -0.0271 -0.2250 -0.7867
    1Sil     Ob 1144   2.809   3.298  11.604 -0.4492  0.1667  0.0913
    1Sil     Ob 1145   0.018   3.283  12.015  0.0966 -0.0966  0.8280
    1Sil     Ob 1146   2.844   3.052  12.132 -0.3896  0.2489  0.3481
    1Sil     Ob 1147   0.101   3.044  11.332  0.6951  0.1500 -0.1164
    1Sil     Ob 1148  -0.199   3.056  11.730 -0.0931  0.9813  0.1124
    1Sil     Ob 1149   2.826   3.226  12.312  0.2536 -0.1147 -0.4209
    1Sil     Ob 1150   2.574   3.218  11.518 -0.5065  0.0903  0.1397
    1Sil     Ob 1151  -0.170   3.116  11.965  0.0237 -0.4466  0.1876
    1Sil     Ob 1152   2.757   3.227  11.961 -0.1435  0.4085 -0.5544
    1Sil     Ob 1153   3.300   3.225  12.342 -0.5122  0.0497  0.0973
    1Sil     Ob 1154   2.973   3.120  11.535  0.4207  0.7961  0.0198
    1Sil     Ob 1155  -0.104   3.043  11.491  0.1330  0.1142  0.2024
    1Sil     Ob 1156   2.637   3.056  12.279 -0.2426 -0.2186  0.5330
    1Sil     Ob 1157  -0.405   3.042  11.888  0.0833  0.6431 -0.0460
    1Sil     Ob 1158   2.603   3.297  11.758  0.5909 -0.3093 -1.0468
    1Sil     Ob 1159   3.133   3.292  12.165  0.2349  0.6042 -0.0710
    1Sil     Ob 1160   2.891   3.305  11.360  0.0617 -0.1083  0.2512
    1Sil     Ob 1161   2.921   3.472  11.164  0.1715 -0.0330 -0.0741
    1Sil     Ob 1162  -0.166   3.371  10.716 -0.2978  0.3765  0.6236
    1Sil     Ob 1163   2.737   3.959  10.724  0.1229  0.0255 -0.1797
    1Sil     Ob 1164   3.267   3.956  11.152 -0.8419 -0.4053  0.3045
    1Sil     Ob 1165   3.102   3.866  10.367 -0.9010  0.2607 -0.1743
    1Sil     Ob 1166   3.100   3.776  11.207 -0.4404 -0.3492  0.7907
    1Sil     Ob 1167   2.865   3.789  10.406 -0.1229 -0.5710  0.4670
    1Sil     Ob 1168   0.068   3.791  10.815  0.1351  0.2954 -0.1506
    1Sil     Ob 1169   2.869   3.539  10.930 -0.7508 -0.1318  0.7620
    1Sil     Ob 1170  -0.154   3.544  10.540 -0.2936  0.0970  0.2161
    1Sil     Ob 1171   2.861   3.713  11.112 -0.0954  0.2807 -0.4014
    1Sil     Ob 1172   2.639   3.712  10.314 -0.3245  0.1838  0.0534
    1Sil     Ob 1173  -0.124   3.618  10.784 -0.2720  0.9224  0.0449
    1Sil     Ob 1174   2.806   3.717  10.743 -0.4649 -0.1581  0.3111
    1Sil     Ob 1175   3.341   3.709  11.168 -0.1029 -0.4912 -0.2840
    1Sil     Ob 1176   3.035   3.612  10.342 -0.2342 -0.3036  0.2303
    1Sil     Ob 1177  -0.060   3.533  10.300 -0.5706 -0.1311  0.8918
    1Sil     Ob 1178   2.675   3.534  11.096  0.2599  0.0451  0.5803
    1Sil     Ob 1179  -0.351   3.529  10.694 -0.1553 -0.1111  0.2041
    1Sil     Ob 1180   2.657   3.779  10.564  0.3765 -0.2174  0.0442
    1Sil     Ob 1181   3.183   3.796  10.967 -0.1944 -0.1128 -0.1545
    1Sil     Ob 1182   2.864   3.473  12.378  0.1051  0.1228 -0.1875
    1Sil     Ob 1183  -0.211   3.368  11.913 -0.1950 -0.4387 -0.0068
    1Sil     Ob 1184   2.675   3.965  11.955  0.1008  0.0725  0.5766
    1Sil     Ob 1185   3.215   3.965  12.340 -0.4252 -0.2163 -0.8860
    1Sil     Ob 1186   3.045   3.862  11.547 -0.1518 -0.5008 -0.0972
    1Sil     Ob 1187   3.050   3.786  12.398 -0.6297 -0.3119 -0.2442
    1Sil     Ob 1188   2.809   3.791  11.603  0.8301  0.2260 -0.1272
    1Sil     Ob 1189   0.016   3.781  12.009 -0.2293 -0.0111  0.2741
    1Sil     Ob 1190   2.836   3.542  12.125  0.5897 -0.0703  0.5694
    1Sil     Ob 1191   0.105   3.536  11.333 -0.0347  0.4552  0.5095
    1Sil     Ob 1192  -0.200   3.535  11.729  0.4298  0.4997 -0.1593
    1Sil     Ob 1193   2.816   3.715  12.305 -0.3940  0.2368 -0.2450
    1Sil     Ob 1194   2.572   3.725  11.514 -0.1607  0.3359  0.1977
    1Sil     Ob 1195  -0.166   3.614  11.976  0.5315  0.1899  0.1588
    1Sil     Ob 1196   2.757   3.712  11.955  0.7243  0.0410 -0.0588
    1Sil     Ob 1197   3.303   3.719  12.358  0.3706  0.0698 -0.1531
    1Sil     Ob 1198   2.975   3.611  11.525 -0.2582  0.0040  0.6610
    1Sil     Ob 1199  -0.111   3.565  11.488 -0.3797  0.0476 -0.2050
    1Sil     Ob 1200   2.633   3.547  12.288 -0.4992 -0.2568 -0.0163
    1Sil     Ob 1201  -0.400   3.545  11.881 -0.2184 -0.0748 -0.2761
    1Sil     Ob 1202   2.598   3.806  11.758 -0.1244  0.4337 -0.0870
    1Sil     Ob 1203   3.144   3.791  12.160 -0.3407  0.1805 -0.3430
    1Sil     Ob 1204   2.887   3.785  11.361 -0.3252  0.5058  0.3368
    1Sil     Ob 1205   2.923   3.952  11.173 -0.1298  0.2474 -0.3274
    1Sil     Ob 1206  -0.163   3.870  10.717  0.0737  0.4703 -0.9262
    1Sil     Ob 1207  -0.216   0.831  11.212 -0.0191  0.0534  0.9199
    1Sil     Ob 1208  -0.482   0.838  10.424 -0.0986  0.3567  0.1605
    1Sil     Ob 1209   0.065   0.829  10.816  0.2564 -0.0564  0.5393
    1Sil     Ob 1210   2.891   4.011  10.924  0.1656  0.0711 -0.2958
    1Sil     Ob 1211  -0.149   4.041  10.534 -0.0666  0.1494 -0.4215
    1Sil     Ob 1212   2.886   4.202  11.103 -0.4961 -0.0427 -0.2522
    1Sil     Ob 1213   2.618   4.208  10.331  0.1899 -0.2132  0.2256
    1Sil     Ob 1214  -0.111   4.101  10.780  0.1270  0.1829  0.7310
    1Sil     Ob 1215   2.800   0.750  10.778  0.7432  0.4364  0.1870
    1Sil     Ob 1216   0.029   0.758  11.156  0.1067 -0.2424  0.2362
    1Sil     Ob 1217  -0.315   0.658  10.346 -0.3585  0.8904  0.5527
    1Sil     Ob 1218  -0.062   4.045  10.287  0.4111 -0.1272  0.0091
    1Sil     Ob 1219   2.694   4.025  11.081 -0.1536 -0.0628 -0.2044
    1Sil     Ob 1220  -0.352   4.044  10.683  0.0725  0.4437  0.3085
    1Sil     Ob 1221   2.647   0.816  10.577  0.3687 -0.5150 -0.3106
    1Sil     Ob 1222  -0.138   0.830  10.967 -0.0119 -0.0176  0.1159
    1Sil     Ob 1223   2.853   3.963  12.381 -0.2154  0.0159  0.3306
    1Sil     Ob 1224  -0.215   3.861  11.921  0.4329  0.5309 -0.4007
    1Sil     Ob 1225  -0.282   0.833  12.405  0.5033  0.3255  0.0798
    1Sil     Ob 1226  -0.535   0.839  11.599  0.0842  0.0926 -0.1652
    1Sil     Ob 1227   0.025   0.820  12.015  0.4250  0.0971  0.0150
    1Sil     Ob 1228   2.839   4.047  12.133 -0.1628 -0.0095 -0.0608
    1Sil     Ob 1229   0.098   4.034  11.346 -0.2752 -0.3466 -0.2003
    1Sil     Ob 1230  -0.203   4.037  11.734 -0.3275  0.1215  0.3210
    1Sil     Ob 1231   2.820   4.216  12.316  0.4377 -0.4006 -0.3305
    1Sil     Ob 1232   2.565   4.205  11.515 -0.0279 -0.3124 -0.0911
    1Sil     Ob 1233  -0.166   4.110  11.983 -0.4512  0.2961  0.1505
    1Sil     Ob 1234   2.761   0.760  11.965  0.0793 -0.2267  0.5452
    1Sil     Ob 1235  -0.043   0.762  12.357  0.2494 -0.7756  0.3186
    1Sil     Ob 1236  -0.365   0.654  11.542 -0.1279  0.1788  0.5155
    1Sil     Ob 1237  -0.119   4.056  11.488 -0.4671  0.2120 -0.3323
    1Sil     Ob 1238   2.636   4.043  12.283  0.0929  0.4403 -1.0516
    1Sil     Ob 1239  -0.405   4.033  11.888  0.0818 -0.6652  0.1195
    1Sil     Ob 1240   2.605   0.821  11.763  0.4097 -0.2539 -0.4983
    1Sil     Ob 1241  -0.189   0.843  12.160  0.0708 -0.4842  0.4041
    1Sil     Ob 1242   2.888   0.821  11.350 -0.4072  0.1499 -0.2812
    1Sil     Ob 1243   0.159   1.010  10.401 -0.0641 -0.0320  0.3527
    1Sil     Ob 1244   0.131   1.011  11.581 -0.7615  0.1899  0.0466
    1Sil     Ob 1245   0.172   1.507  10.387 -0.3925 -0.3020 -0.4636
    1Sil     Ob 1246   0.113   1.506  11.578 -0.2764 -0.0255  0.2673
    1Sil     Ob 1247   0.176   2.001  10.393  0.1250 -0.7352 -1.0601
    1Sil     Ob 1248   0.118   1.993  11.570 -0.1632 -0.8749 -0.4019
    1Sil     Ob 1249   0.176   2.479  10.378 -0.4236 -0.0835  0.2230
    1Sil     Ob 1250   0.120   2.488  11.575  0.0857 -0.0584 -0.1430
    1Sil     Ob 1251   0.169   2.967  10.388  0.0538  0.2319 -0.0970
    1Sil     Ob 1252   0.128   2.975  11.585 -0.7865  0.2174 -0.3004
    1Sil     Ob 1253   0.195   3.471  10.371 -0.0921 -0.0112 -0.2119
    1Sil     Ob 1254   0.132   3.477  11.578  0.1001 -0.6728  0.2273
    1Sil     Ob 1255   0.170   3.971  10.378  0.0813 -0.0814  0.1893
    1Sil     Ob 1256   0.104   3.970  11.591  0.4530  0.3957 -0.1840
    1Sil     Ob 1257   0.669   0.890  10.718  0.0647 -0.3629 -0.0900
    1Sil     Ob 1258   0.613   0.901  11.919  0.0842 -0.0455 -0.3741
    1Sil     Ob 1259   1.529   0.895  10.706 -0.1212 -0.6573 -0.3087
    1Sil     Ob 1260   1.451   0.900  11.925 -0.0539 -0.1765 -0.4177
    1Sil     Ob 1261   2.317   0.900  10.741  0.1190 -0.0038  0.1970
    1Sil     Ob 1262   2.287   0.894  11.923  0.4353 -0.1766  0.5079
    1Sil     Ob 1263  -0.149   0.899  10.712  0.9602  0.5673  0.5476
    1Sil     Ob 1264  -0.207   0.899  11.904  0.4043  0.2976  0.4369
    1Sil     Ob 1265   0.243   1.004  10.742  0.0453 -0.2873 -0.1574
    1Sil     Ob 1266   0.781   1.008  11.122  0.5472  0.1939  0.0308
    1Sil     Ob 1267   0.602   0.900  10.365 -0.2787  0.0276  0.0986
    1Sil     Ob 1268   0.176   0.998  11.927 -0.1053  0.0215 -0.1647
    1Sil     Ob 1269   0.737   1.015  12.331 -0.0622  0.1005 -0.6917
    1Sil     Ob 1270   0.556   0.904  11.575  0.0051 -0.2119  0.2888
    1Sil     Ob 1271   1.076   1.008  10.741 -0.4369  0.3798 -0.0352
    1Sil     Ob 1272   1.615   0.999  11.117 -0.7688 -0.0111  0.4562
    1Sil     Ob 1273   1.437   0.900  10.367 -1.3621  0.4851  0.3281
    1Sil     Ob 1274   1.012   0.999  11.933  0.4276 -0.2236  0.5748
    1Sil     Ob 1275   1.572   1.007  12.329  0.6225 -0.7867  0.0536
    1Sil     Ob 1276   1.389   0.904  11.553 -0.0933  0.0213  0.1014
    1Sil     Ob 1277   1.916   1.001  10.733  0.5304 -0.0965 -0.3146
    1Sil     Ob 1278   2.446   0.996  11.115 -0.0392 -0.0853 -0.6003
    1Sil     Ob 1279   2.266   0.883  10.360 -0.5903  0.0603  0.5779
    1Sil     Ob 1280   1.866   1.003  11.928  0.3886 -0.5537 -0.2986
    1Sil     Ob 1281   2.396   0.998  12.320 -0.0452  0.0144 -0.5102
    1Sil     Ob 1282   2.218   0.891  11.567  0.1638  0.3394  0.1515
    1Sil     Ob 1283   2.737   0.999  10.734 -0.3991 -0.2820 -0.1862
    1Sil     Ob 1284  -0.051   1.012  11.131 -0.5370  0.0128 -0.1102
    1Sil     Ob 1285  -0.237   0.906  10.372 -0.0580  0.7289  0.1311
    1Sil     Ob 1286   2.676   1.010  11.937  0.1302  0.5277 -0.2303
    1Sil     Ob 1287  -0.112   1.010  12.335  0.1285  0.5972 -0.7569
    1Sil     Ob 1288  -0.287   0.900  11.545  0.4696  0.4034  0.0510
    1Sil     Oy 1289   0.978   1.077  10.142 -0.3069 -0.4869  0.4534
    1Sil     Cm 1290   0.459   1.327  10.155  0.2777 -1.1787 -0.0596
    1Sil     Cm 1291   0.335   1.295  12.554 -0.3639  0.7440 -0.2359
    1Sil     Cm 1292   0.875   1.077  12.544  0.0233 -0.4221 -0.1178
    1Sil     Cm 1293   0.995   1.578  10.125 -0.1181  0.3721 -0.1320
    1Sil     Oy 1294   0.459   1.818  10.179  0.2381 -0.0685  0.4541
    1Sil     Oy 1295   0.365   1.821  12.575  0.0975 -0.0581 -0.0106
    1Sil     Cm 1296   0.876   1.582  12.544 -0.3551 -0.1900 -0.3301
    1Sil     Cm 1297   0.973   2.047  10.126 -0.4370  0.4162 -0.1099
    1Sil     Cm 1298   0.456   2.298  10.159 -0.0414 -0.1087 -0.3221
    1Sil     Cm 1299   0.360   2.308  12.573 -0.1636 -0.0655  0.5745
    1Sil     Cm 1300   0.863   2.041  12.536 -0.1355  0.3989  0.7537
    1Sil     Cm 1301   0.987   2.562  10.102  0.2276  0.7144 -0.3736
    1Sil     Oy 1302   0.460   2.789  10.168  0.2726  0.0310 -0.0988
    1Sil     Cm 1303   0.375   2.790  12.568  0.1504 -0.0085 -0.0273
    1Sil     Cm 1304   0.890   2.562  12.542  0.3225 -0.2246 -0.9011
    1Sil     Cm 1305   0.984   3.047  10.106 -0.2389 -0.0239  0.1447
    1Sil     Cm 1306   0.471   3.298  10.159  0.4501  0.6030  0.8742
    1Sil     Cm 1307   0.372   3.276  12.594 -0.5028 -0.2380 -0.0702
    1Sil     Oy 1308   0.877   3.043  12.543  0.7078  0.3457 -0.1581
    1Sil     Cm 1309   0.963   3.565  10.117 -0.6208  0.2205  0.0754
    1Sil     Cm 1310   0.443   3.784  10.164  0.6802 -0.4332 -0.4373
    1Sil     Oy 1311   0.357   3.777  12.570 -0.0250  0.1941  0.1542
    1Sil     Cm 1312   0.882   3.552  12.529  0.2096 -0.5647  0.4766
    1Sil     Cm 1313   0.984   4.007  10.142 -0.2054 -0.0752  0.6191
    1Sil     Oy 1314   0.428   0.841  10.176 -0.0476 -0.4141  0.8327
    1Sil     Oy 1315   0.352   0.833  12.560  0.7303  0.5183  0.1239
    1Sil     Oy 1316   0.884   4.034  12.527  0.1731 -0.3193  0.8136
    1Sil     Cm 1317   1.826   1.080  10.126 -0.0315  0.1912  0.0012
    1Sil     Cm 1318   1.281   1.338  10.150 -0.0159  0.4512  0.4018
    1Sil     Cm 1319   1.182   1.330  12.582 -0.3224 -0.0767 -0.8738
    1Sil     Cm 1320   1.734   1.061  12.541  0.0808 -0.1762 -0.8690
    1Sil     Cm 1321   1.820   1.547  10.137 -0.4156 -0.0753 -0.6830
    1Sil     Oy 1322   1.288   1.785  10.162  0.5513 -0.2598 -0.3520
    1Sil     Cm 1323   1.190   1.821  12.596  0.6557  0.4360 -0.2326
    1Sil     Cm 1324   1.703   1.567  12.537 -0.2085 -0.2936 -0.5500
    1Sil     Oy 1325   1.812   2.062  10.156  0.0539 -0.7468 -0.5984
    1Sil     Cm 1326   1.275   2.318  10.149  0.8736 -0.1489  0.2385
    1Sil     Oy 1327   1.218   2.326  12.573 -0.5013  0.4868  0.1527
    1Sil     Cm 1328   1.698   2.059  12.537 -0.4577  0.1437 -0.4607
    1Sil     Cm 1329   1.848   2.592  10.130 -0.1367 -0.2078 -0.0029
    1Sil     Oy 1330   1.275   2.793  10.153 -0.1048  0.7233  0.1150
    1Sil     Oy 1331   1.197   2.812  12.576  0.2703 -0.1989 -0.6042
    1Sil     Cm 1332   1.707   2.551  12.538 -1.1046  0.6940  0.7042
    1Sil     Oy 1333   1.829   3.041  10.138 -0.2326 -0.0773 -0.3231
    1Sil     Cm 1334   1.289   3.298  10.147 -0.5149  0.4236 -0.7209
    1Sil     Cm 1335   1.179   3.304  12.592  0.2286  0.5851  0.2140
    1Sil     Oy 1336   1.707   3.044  12.524 -0.2297 -0.3187 -0.5088
    1Sil     Cm 1337   1.795   3.538  10.115 -0.2519  0.1322  0.4431
    1Sil     Oy 1338   1.270   3.783  10.176  0.0677 -0.1649  0.0861
    1Sil     Cm 1339   1.186   3.787  12.561 -0.0426  0.1259  0.5256
    1Sil     Oy 1340   1.710   3.545  12.512  0.4305  0.1593  0.2293
    1Sil     Cm 1341   1.808   4.041  10.106  0.1170  0.3360 -0.2859
    1Sil     Oy 1342   1.285   0.829  10.162 -0.3384  0.2319 -0.2681
    1Sil     Cm 1343   1.175   0.822  12.575  0.0581 -0.0413  0.4666
    1Sil     Cm 1344   1.725   4.038  12.544  0.5166 -0.1199  0.4805
    1Sil     Cm 1345   2.634   1.072  10.127  0.5780 -0.2681  0.2489
    1Sil     Cm 1346   2.107   1.297  10.163 -0.3863  0.7006  0.0841
    1Sil     Oy 1347   2.012   1.318  12.553 -0.0993  0.3594  0.6078
    1Sil     Cm 1348   2.516   1.053  12.545 -0.5673 -0.6628 -0.2329
    1Sil     Cm 1349   2.640   1.584  10.131  0.0722  0.6397 -0.2682
    1Sil     Cm 1350   2.123   1.836  10.158 -0.6138 -0.1365  0.0615
    1Sil     Oy 1351   2.023   1.809  12.561 -0.0455 -0.3074 -0.4457
    1Sil     Oy 1352   2.515   1.592  12.531 -0.2302 -0.6409 -0.5340
    1Sil     Cm 1353   2.661   2.068  10.113 -0.5906  0.7067  0.0077
    1Sil     Cm 1354   2.106   2.295  10.146  0.2487  0.5114 -0.1957
    1Sil     Cm 1355   2.031   2.330  12.563  0.1160 -0.4885  0.5094
    1Sil     Oy 1356   2.528   2.073  12.542 -0.3577 -0.1469  0.2417
    1Sil     Cm 1357   2.655   2.529  10.142  0.1628  0.1955  0.0491
    1Sil     Oy 1358   2.103   2.796  10.175 -0.6948  0.5094 -0.6978
    1Sil     Cm 1359   1.995   2.795  12.540  0.3326 -0.6019 -0.2260
    1Sil     Cm 1360   2.550   2.545  12.547  0.0956 -0.2016 -0.7545
    1Sil     Oy 1361   2.639   3.047  10.139  0.1027  0.0268 -0.2273
    1Sil     Cm 1362   2.117   3.281  10.159  0.1093 -0.3027  0.2065
    1Sil     Cm 1363   2.023   3.300  12.552 -0.5150 -0.3464  1.1728
    1Sil     Cm 1364   2.547   3.028  12.536 -0.3749  0.1457 -0.1204
    1Sil     Oy 1365   2.641   3.522  10.137 -0.1176 -0.1751  0.3728
    1Sil     Cm 1366   2.093   3.771  10.139  0.2867 -0.5072  0.2583
    1Sil     Cm 1367   2.030   3.801  12.568 -0.4937  0.6044 -0.6031
    1Sil     Oy 1368   2.530   3.527  12.529  0.4920 -0.2269  0.1924
    1Sil     Cm 1369   2.649   4.039  10.118  0.3976 -0.0902  0.2823
    1Sil     Cm 1370   2.110   0.821  10.152  0.5857  1.2596 -0.5100
    1Sil     Oy 1371   2.047   0.810  12.561 -0.0565  0.8847 -0.5662
    1Sil     Cm 1372   2.552   4.025  12.544 -0.4159  0.3443 -0.0436
    1Sil     Oy 1373   0.161   1.086  10.151  0.1626  0.4699  0.3253
    1Sil     Cm 1374   2.954   1.344  10.151  0.2820  0.0397 -0.5299
    1Sil     Cm 1375   2.868   1.308  12.581 -0.7102  0.2873  0.1252
    1Sil     Oy 1376   0.030   1.083  12.528 -0.7429  0.2398 -0.1165
    1Sil     Cm 1377   0.168   1.580  10.128  0.2373  0.2645 -0.0862
    1Sil     Oy 1378   2.953   1.807  10.168  0.2744  0.4954 -0.2285
    1Sil     Cm 1379   2.844   1.817  12.618  0.9305  0.1257  0.0989
    1Sil     Cm 1380   0.041   1.571  12.548  0.5686 -0.0899  0.5279
    1Sil     Oy 1381   0.154   2.052  10.142  0.6524 -0.1506  0.1127
    1Sil     Oy 1382   2.940   2.286  10.170  0.3194 -0.0465  0.4380
    1Sil     Cm 1383   2.857   2.308  12.600 -0.3947 -0.3465  0.0517
    1Sil     Cm 1384   0.039   2.040  12.543  0.5389  0.2278  0.6272
    1Sil     Cm 1385   0.141   2.572  10.125  0.8498  0.2363 -0.5095
    1Sil     Cm 1386   2.934   2.780  10.153 -0.3201  0.0351  0.2882
    1Sil     Cm 1387   2.849   2.798  12.589  0.3500 -0.7145 -0.2674
    1Sil     Cm 1388   0.053   2.551  12.520  0.0821  0.5587  0.0986
    1Sil     Cm 1389   0.168   3.029  10.137  0.3061 -0.0109 -0.0096
    1Sil     Cm 1390   2.937   3.268  10.170  0.6343 -0.3336 -0.7975
    1Sil     Cm 1391   2.846   3.295  12.579  0.2961 -0.0860 -0.1622
    1Sil     Cm 1392   0.028   3.054  12.539  0.0925 -0.3227 -0.0025
    1Sil     Cm 1393   0.138   3.566  10.126  0.3533 -0.0011  0.2166
    1Sil     Cm 1394   2.951   3.787  10.152  0.1168 -0.1844 -0.1302
    1Sil     Cm 1395   2.848   3.786  12.574  0.4833 -0.4772 -0.0134
    1Sil     Cm 1396   0.043   3.525  12.552  0.0394 -0.0626 -0.8749
    1Sil     Cm 1397   0.149   4.052  10.126  0.6563  0.6402 -0.0717
    1Sil     Oy 1398  -0.402   0.845  10.180  0.4283 -0.5466 -0.1706
    1Sil     Cm 1399   2.853   0.826  12.590 -0.3493 -0.6987  0.1125
    1Sil     Cm 1400   0.053   4.045  12.544  0.0762 -0.8005  0.0966
    1Sil    Sib 1401   0.937   1.098  10.287  0.1327 -0.4636  0.3937
    1Sil    Sib 1402   0.349   1.099  11.084 -0.0320  0.0690  0.5237
    1Sil    Sib 1403   0.642   1.044  10.683  0.6463  0.2847  0.0037
    1Sil    Sib 1404   0.189   1.352  10.723  0.0663  0.1127 -0.0201
    1Sil    Sib 1405   0.740   1.351  11.118  0.0834  0.3054  0.3548
    1Sil    Sim 1406   0.487   1.302  10.320  0.0533  0.1754 -0.1521
    1Sil    Sib 1407   0.450   1.355  11.208 -0.0522 -0.1592 -0.0873
    1Sil    Sib 1408   0.198   1.358  10.426 -0.0641 -0.3783 -0.0042
    1Sil    Sib 1409   0.747   1.293  10.823  0.1569  0.0234  0.4894
    1Sil    Sib 1410   0.366   1.102  10.782 -0.4305 -0.3079 -0.1868
    1Sil    Sib 1411   0.891   1.101  11.178 -0.2176 -0.1269 -0.2878
    1Sil    Sib 1412   0.652   1.051  10.390 -0.1316 -0.0664 -0.2329
    1Sil    Sib 1413   0.874   1.097  11.473  0.3704  0.0595  0.0973
    1Sil    Sib 1414   0.294   1.095  12.276  0.3779 -0.1697  0.2925
    1Sil    Sib 1415   0.578   1.053  11.887  0.2864  0.0973 -0.3479
    1Sil    Sib 1416   0.139   1.352  11.910 -0.5011 -0.1711 -0.2125
    1Sil    Sib 1417   0.685   1.349  12.316 -0.2231 -0.3825  0.0424
    1Sil    Sib 1418   0.440   1.293  11.501 -0.1316 -0.0665 -0.3014
    1Sil    Sim 1419   0.391   1.337  12.414  0.5978  0.0381 -0.2673
    1Sil    Sib 1420   0.153   1.353  11.613  0.2658 -0.4292 -0.4836
    1Sil    Sib 1421   0.692   1.292  12.016 -0.1718  0.4914  0.4655
    1Sil    Sib 1422   0.293   1.093  11.974  0.0332 -0.4667  0.3427
    1Sil    Sim 1423   0.854   1.112  12.382  0.0305  0.3217 -0.1981
    1Sil    Sib 1424   0.592   1.054  11.580 -0.2660 -0.4693  0.2919
    1Sil    Sim 1425   0.943   1.603  10.289  0.3685  0.1618  0.2461
    1Sil    Sib 1426   0.345   1.607  11.080 -0.3631  0.4995  0.1881
    1Sil    Sib 1427   0.631   1.532  10.684 -0.5125 -0.1244  0.0033
    1Sil    Sib 1428   0.200   1.839  10.724  0.0017 -0.1406 -0.3651
    1Sil    Sib 1429   0.734   1.846  11.120 -0.7857 -0.1160  0.0062
    1Sil    Sib 1430   0.490   1.799  10.331  0.3591 -0.1337 -0.2766
    1Sil    Sib 1431   0.450   1.855  11.224 -0.5431  0.1567 -0.3791
    1Sil    Sib 1432   0.209   1.851  10.425  0.2330 -0.0381 -0.4955
    1Sil    Sib 1433   0.738   1.786  10.823 -0.0013  0.0008 -0.2230
    1Sil    Sib 1434   0.350   1.587  10.783 -0.1514 -0.3197  0.3292
    1Sil    Sib 1435   0.889   1.599  11.185 -0.0169  0.1168  0.3013
    1Sil    Sib 1436   0.651   1.548  10.384 -0.0331 -0.3062  0.5218
    1Sil    Sib 1437   0.879   1.595  11.480  0.4419 -0.0248  0.1680
    1Sil    Sib 1438   0.292   1.598  12.286 -0.5365  0.1162  0.3527
    1Sil    Sib 1439   0.587   1.538  11.870  0.0858 -0.2977  0.2994
    1Sil    Sib 1440   0.140   1.837  11.909 -0.0159  0.3179  0.4649
    1Sil    Sib 1441   0.685   1.839  12.301 -0.1786 -0.2085 -0.4975
    1Sil    Sib 1442   0.435   1.793  11.513 -0.2826  0.0617  0.5143
    1Sil    Sib 1443   0.406   1.840  12.415 -0.4899 -0.5085  0.2175
    1Sil    Sib 1444   0.145   1.848  11.610 -0.1519  0.3914  0.2502
    1Sil    Sib 1445   0.694   1.778  12.008 -0.1917  0.5396 -0.1331
    1Sil    Sib 1446   0.304   1.593  11.977  0.0850  0.1224  0.4674
    1Sil    Sim 1447   0.841   1.600  12.387  0.1074  0.1466 -0.1347
    1Sil    Sib 1448   0.593   1.547  11.576 -0.0891  0.5056 -0.2900
    1Sil    Sim 1449   0.929   2.090  10.284  0.3188 -0.1372  0.0553
    1Sil    Sib 1450   0.346   2.101  11.087 -0.1786 -0.4919 -0.4332
    1Sil    Sib 1451   0.640   2.044  10.689  0.3465 -0.0848 -0.1024
    1Sil    Sib 1452   0.198   2.347  10.732 -0.2925  0.1008 -0.0238
    1Sil    Sib 1453   0.738   2.337  11.111  0.0934  0.3365  0.0513
    1Sil    Sim 1454   0.486   2.280  10.311 -0.1104 -0.6408 -0.4262
    1Sil    Sib 1455   0.458   2.343  11.219  0.1697  0.1767 -0.2606
    1Sil    Sib 1456   0.202   2.328  10.422  0.1063  0.5715  0.0768
    1Sil    Sib 1457   0.751   2.287  10.819 -0.5996 -0.2841 -0.0359
    1Sil    Sib 1458   0.359   2.092  10.791 -0.0775 -0.0934  0.1294
    1Sil    Sib 1459   0.906   2.089  11.177 -0.2317  0.6021 -0.2929
    1Sil    Sib 1460   0.648   2.045  10.384 -0.4352 -0.1883  0.4284
    1Sil    Sib 1461   0.884   2.090  11.472  0.0807 -0.1234 -0.2794
    1Sil    Sib 1462   0.296   2.086  12.276  0.1336  0.0126 -0.1613
    1Sil    Sib 1463   0.586   2.030  11.871  0.2336  0.1086 -0.0670
    1Sil    Sib 1464   0.142   2.334  11.918  0.3109  0.2503  0.1357
    1Sil    Sib 1465   0.681   2.320  12.304 -0.0094  0.3102 -0.6321
    1Sil    Sib 1466   0.433   2.286  11.517  0.4599 -0.4170  0.0061
    1Sil    Sim 1467   0.398   2.325  12.411 -0.1932 -0.5039 -0.0892
    1Sil    Sib 1468   0.152   2.339  11.620 -0.2738 -0.0542  0.1727
    1Sil    Sib 1469   0.702   2.275  12.001  0.1741  0.0551  0.0824
    1Sil    Sib 1470   0.317   2.079  11.987  0.2871 -0.1665 -0.0538
    1Sil    Sim 1471   0.845   2.077  12.367 -0.0668  0.4257 -0.2698
    1Sil    Sib 1472   0.595   2.041  11.568 -0.1033  0.1965  0.2154
    1Sil    Sim 1473   0.933   2.589  10.269 -0.3102 -0.3253 -0.2435
    1Sil    Sib 1474   0.354   2.590  11.076  0.0709  0.0983  0.0258
    1Sil    Sib 1475   0.648   2.527  10.671 -0.7977  0.5007 -0.1332
    1Sil    Sib 1476   0.187   2.836  10.730  0.1058 -0.1798  0.2159
    1Sil    Sib 1477   0.734   2.831  11.110 -0.3319  0.5476 -0.4710
    1Sil    Sib 1478   0.475   2.764  10.326 -0.0525 -0.2377 -0.1701
    1Sil    Sib 1479   0.453   2.836  11.211 -0.3456 -0.3154  0.2458
    1Sil    Sib 1480   0.198   2.817  10.429 -0.1919 -0.2320  0.4766
    1Sil    Sib 1481   0.749   2.769  10.815 -0.3419  0.0820 -0.3213
    1Sil    Sib 1482   0.364   2.584  10.779 -0.4997 -0.0788  0.1759
    1Sil    Sib 1483   0.892   2.586  11.182 -0.2981  0.3330  0.1499
    1Sil    Sib 1484   0.651   2.524  10.374 -0.2451  0.1598  0.4480
    1Sil    Sib 1485   0.872   2.584  11.483  0.1870 -0.3770  0.2088
    1Sil    Sib 1486   0.312   2.585  12.270 -0.1265 -0.0307  0.0730
    1Sil    Sib 1487   0.592   2.530  11.869  0.2143  0.1468 -0.5967
    1Sil    Sib 1488   0.153   2.821  11.912  0.7102  0.5986 -0.2509
    1Sil    Sib 1489   0.698   2.830  12.310 -0.2958  0.5169  0.0808
    1Sil    Sib 1490   0.444   2.772  11.508  0.3051 -0.3943 -0.6419
    1Sil    Sim 1491   0.428   2.823  12.418  0.0152  0.0579  0.2956
    1Sil    Sib 1492   0.161   2.828  11.619 -0.1792 -0.4537 -0.0276
    1Sil    Sib 1493   0.708   2.779  12.010  0.0428  0.2804 -0.2757
    1Sil    Sib 1494   0.312   2.581  11.973 -0.3220 -0.3711  0.2165
    1Sil    Sim 1495   0.855   2.576  12.370 -0.3064 -0.0647  0.4914
    1Sil    Sib 1496   0.602   2.528  11.573  0.4977  0.0524  0.1166
    1Sil    Sim 1497   0.930   3.061  10.267  0.6342  0.0416  0.7197
    1Sil    Sib 1498   0.341   3.089  11.081  0.1238 -0.3655  0.6249
    1Sil    Sib 1499   0.633   3.008  10.680  0.0527  0.2958  0.2173
    1Sil    Sib 1500   0.186   3.327  10.726  0.0976 -0.3740  0.1221
    1Sil    Sib 1501   0.727   3.322  11.112  0.4345  0.2435  0.2640
    1Sil    Sim 1502   0.498   3.264  10.329  0.8066  0.0711  0.4215
    1Sil    Sib 1503   0.445   3.337  11.221 -0.4052  0.0922  0.1913
    1Sil    Sib 1504   0.209   3.324  10.428  0.4257 -0.4344 -0.0846
    1Sil    Sib 1505   0.743   3.259  10.816  0.0519 -0.2546  0.6155
    1Sil    Sib 1506   0.353   3.078  10.779  0.1734 -0.4453 -0.0728
    1Sil    Sib 1507   0.901   3.073  11.162 -0.1734  0.2150 -0.1628
    1Sil    Sib 1508   0.649   3.003  10.387 -0.1162  0.0115 -0.3056
    1Sil    Sib 1509   0.879   3.071  11.465  0.4505  0.3055 -0.1583
    1Sil    Sib 1510   0.308   3.063  12.289  0.3156 -0.6994 -0.2151
    1Sil    Sib 1511   0.591   3.023  11.874 -0.3131  0.2050 -0.2868
    1Sil    Sib 1512   0.140   3.309  11.921 -0.4515 -0.1282  0.0567
    1Sil    Sib 1513   0.690   3.318  12.317 -0.2682  0.2071  0.2570
    1Sil    Sib 1514   0.432   3.276  11.519 -0.1703 -0.0235 -0.2066
    1Sil    Sim 1515   0.411   3.314  12.429 -0.2907  0.5477 -0.2227
    1Sil    Sib 1516   0.153   3.323  11.620  0.3004  0.0115 -0.1443
    1Sil    Sib 1517   0.699   3.267  12.013 -0.0146 -0.2964  0.0849
    1Sil    Sib 1518   0.309   3.065  11.979  0.5671 -0.2176  0.0356
    1Sil    Sib 1519   0.856   3.070  12.383  0.3062 -0.2662  0.1943
    1Sil    Sib 1520   0.603   3.020  11.574  0.2038 -0.3230 -0.0169
    1Sil    Sim 1521   0.930   3.573  10.279  0.0240 -0.2736  0.0360
    1Sil    Sib 1522   0.348   3.578  11.081  0.3607 -0.5899 -0.0940
    1Sil    Sib 1523   0.638   3.510  10.685  0.0097  0.1618  0.3764
    1Sil    Sib 1524   0.194   3.818  10.726  0.2262  0.0551 -0.0952
    1Sil    Sib 1525   0.735   3.807  11.115 -0.1928 -0.0553 -0.1341
    1Sil    Sim 1526   0.482   3.763  10.333  0.1165 -0.0363  0.3350
    1Sil    Sib 1527   0.461   3.813  11.221  0.1282 -0.1710  0.0722
    1Sil    Sib 1528   0.199   3.826  10.427  0.2948  0.3754 -0.5694
    1Sil    Sib 1529   0.745   3.757  10.811  0.2872  0.2994  0.4327
    1Sil    Sib 1530   0.359   3.577  10.780 -0.1328  0.2718 -0.4583
    1Sil    Sib 1531   0.889   3.567  11.187  0.4243  0.0512  0.1638
    1Sil    Sib 1532   0.651   3.510  10.392 -0.2461 -0.5607 -0.4185
    1Sil    Sib 1533   0.879   3.554  11.487  0.2426  0.1494  0.1038
    1Sil    Sib 1534   0.293   3.562  12.284 -0.3591 -0.1683 -0.0844
    1Sil    Sib 1535   0.585   3.514  11.886 -0.0632 -0.0683 -0.1081
    1Sil    Sib 1536   0.141   3.804  11.918  0.0706 -0.3848  0.1078
    1Sil    Sib 1537   0.677   3.819  12.313 -0.1108  0.2561  0.2084
    1Sil    Sib 1538   0.439   3.768  11.521  0.0030 -0.4278  0.1349
    1Sil    Sib 1539   0.398   3.809  12.415  0.0719  0.1423  0.1258
    1Sil    Sib 1540   0.149   3.820  11.613  0.3171  0.4597 -0.7247
    1Sil    Sib 1541   0.690   3.764  12.015  0.0248 -0.0066  0.0269
    1Sil    Sib 1542   0.312   3.555  11.980 -0.0702 -0.2661 -0.2043
    1Sil    Sim 1543   0.844   3.572  12.370 -0.0424 -0.1022 -0.1435
    1Sil    Sib 1544   0.604   3.513  11.590 -0.1102 -0.0878  0.5102
    1Sil    Sim 1545   0.923   4.056  10.290 -0.2589 -0.2024  0.1372
    1Sil    Sib 1546   0.343   4.059  11.097 -0.0234  0.0871 -0.4903
    1Sil    Sib 1547   0.638   4.011  10.693  0.0689  0.0718 -0.3013
    1Sil    Sib 1548   0.191   0.857  10.724 -0.1437  0.4901 -0.0414
    1Sil    Sib 1549   0.725   0.856  11.119 -0.0193 -0.0550 -0.0316
    1Sil    Sib 1550   0.473   0.811  10.330 -0.0776  0.4847  0.2437
    1Sil    Sib 1551   0.443   0.854  11.237  0.4744 -0.0802  0.0643
    1Sil    Sib 1552   0.195   0.858  10.425  0.2409 -0.2247  0.0638
    1Sil    Sib 1553   0.750   0.808  10.823 -0.0899  0.0243  0.4163
    1Sil    Sib 1554   0.349   4.059  10.793  0.0075 -0.0899  0.6620
    1Sil    Sib 1555   0.897   4.062  11.167  0.7992 -0.0826  0.4737
    1Sil    Sib 1556   0.642   4.019  10.394  0.0711  0.4164 -0.1402
    1Sil    Sib 1557   0.884   4.052  11.474 -0.1213  0.6471 -0.1454
    1Sil    Sib 1558   0.283   4.055  12.280 -0.0362 -0.6010 -0.0234
    1Sil    Sib 1559   0.591   4.013  11.880  0.2980  0.7207  0.4301
    1Sil    Sib 1560   0.138   0.847  11.915  0.1472 -0.4939  0.4979
    1Sil    Sib 1561   0.681   0.856  12.319  0.6678 -0.1407 -0.7751
    1Sil    Sib 1562   0.435   0.810  11.531  0.1873 -0.1369 -0.1581
    1Sil    Sib 1563   0.400   0.851  12.411  0.3348  0.3650  0.2313
    1Sil    Sib 1564   0.156   0.858  11.624 -0.4351 -0.6919  0.0403
    1Sil    Sib 1565   0.692   0.809  12.018  0.0479 -0.3025 -0.4676
    1Sil    Sib 1566   0.311   4.061  11.975  0.4131  0.3307  0.1014
    1Sil    Sib 1567   0.838   4.066  12.377  0.2915 -0.0088  0.3142
    1Sil    Sib 1568   0.598   4.014  11.581  0.2720  0.2516 -0.1483
    1Sil    Sim 1569   1.767   1.098  10.277 -0.2475  0.3224  0.0376
    1Sil    Sib 1570   1.178   1.104  11.084 -0.1715  0.1453 -0.1432
    1Sil    Sib 1571   1.480   1.046  10.681 -0.0410 -0.2051  0.2946
    1Sil    Sib 1572   1.033   1.342  10.715  0.0909 -0.4952  0.3841
    1Sil    Sib 1573   1.557   1.344  11.136 -0.1776  0.0372  0.4962
    1Sil    Sim 1574   1.327   1.306  10.307 -0.1993 -0.3171 -0.1623
    1Sil    Sib 1575   1.273   1.351  11.228  0.3741  0.0817  0.2143
    1Sil    Sib 1576   1.050   1.349  10.424 -0.0016 -0.2051 -0.6065
    1Sil    Sib 1577   1.573   1.280  10.831 -0.0529 -0.3808 -0.2724
    1Sil    Sib 1578   1.197   1.095  10.779 -0.2069 -0.0545  0.0171
    1Sil    Sib 1579   1.723   1.099  11.176 -0.2389  0.1554 -0.0252
    1Sil    Sib 1580   1.489   1.052  10.383  0.0858 -0.0146  0.1766
    1Sil    Sib 1581   1.710   1.096  11.478  0.1498  0.0561  0.1826
    1Sil    Sib 1582   1.135   1.102  12.284 -0.1029 -0.2202  0.4546
    1Sil    Sib 1583   1.419   1.049  11.884 -0.1431  0.0658  0.4363
    1Sil    Sib 1584   0.969   1.344  11.915  0.5415 -0.6052 -0.3390
    1Sil    Sib 1585   1.516   1.345  12.316 -0.3438 -0.2587  0.0807
    1Sil    Sib 1586   1.259   1.284  11.523  0.1206  0.0041  0.4479
    1Sil    Sim 1587   1.237   1.354  12.427  0.2071  0.0222  0.0009
    1Sil    Sib 1588   0.974   1.344  11.621 -0.4686 -0.4980  0.3464
    1Sil    Sib 1589   1.527   1.289  12.016  0.2313  0.2713  0.4468
    1Sil    Sib 1590   1.137   1.097  11.977  0.1980  0.1453  0.1073
    1Sil    Sim 1591   1.692   1.104  12.379  0.2116 -0.3649 -0.0862
    1Sil    Sib 1592   1.434   1.054  11.585 -0.4795 -0.1591  0.2486
    1Sil    Sim 1593   1.769   1.596  10.293 -0.2642  0.1105  0.2621
    1Sil    Sib 1594   1.173   1.595  11.087 -0.0591  0.1908  0.0845
    1Sil    Sib 1595   1.468   1.530  10.688  0.2517 -0.1496  0.4311
    1Sil    Sib 1596   1.023   1.833  10.725  0.1721 -0.3281  0.1812
    1Sil    Sib 1597   1.564   1.837  11.127 -0.1680  0.1960  0.2573
    1Sil    Sib 1598   1.318   1.792  10.318  0.6080  0.0930 -0.2378
    1Sil    Sib 1599   1.291   1.842  11.220  0.2018 -0.0556 -0.0762
    1Sil    Sib 1600   1.045   1.851  10.425  0.2892 -0.1038  0.2331
    1Sil    Sib 1601   1.571   1.784  10.825 -0.0134 -0.2842  0.0352
    1Sil    Sib 1602   1.187   1.584  10.787  0.3060 -0.0528  0.0488
    1Sil    Sib 1603   1.721   1.590  11.192 -0.0315  0.2858 -0.7549
    1Sil    Sib 1604   1.484   1.554  10.389 -0.0039 -0.2446  0.6390
    1Sil    Sib 1605   1.701   1.592  11.489 -0.0427 -0.4834  0.0621
    1Sil    Sib 1606   1.132   1.594  12.288  0.0365  0.1025  0.0401
    1Sil    Sib 1607   1.415   1.538  11.884  0.5942  0.7309  0.1782
    1Sil    Sib 1608   0.972   1.842  11.920 -0.1589 -0.1011 -0.2759
    1Sil    Sib 1609   1.518   1.845  12.311 -0.1444  0.2535  0.0516
    1Sil    Sib 1610   1.275   1.783  11.523  0.0321  0.0030  0.1173
    1Sil    Sim 1611   1.239   1.842  12.427 -0.1113  0.1150 -0.3958
    1Sil    Sib 1612   0.988   1.846  11.610  0.0545  0.1692  0.3467
    1Sil    Sib 1613   1.532   1.779  12.011  0.3714  0.2784 -0.2695
    1Sil    Sib 1614   1.135   1.592  11.981  0.5221  0.0543 -0.2320
    1Sil    Sim 1615   1.677   1.591  12.364  0.3999 -0.1162 -0.2730
    1Sil    Sib 1616   1.423   1.538  11.579  0.0914  0.2509 -0.4394
    1Sil    Sib 1617   1.761   2.095  10.301 -0.4367  0.1644  0.0923
    1Sil    Sib 1618   1.186   2.097  11.083 -0.5311  0.2380 -0.0644
    1Sil    Sib 1619   1.465   2.018  10.674 -0.1925  0.2882 -0.3812
    1Sil    Sib 1620   1.033   2.337  10.714  0.1433 -0.3193  0.1705
    1Sil    Sib 1621   1.578   2.334  11.108 -0.2709  0.0026 -0.0205
    1Sil    Sim 1622   1.317   2.282  10.317 -0.4898  0.1216  0.0250
    1Sil    Sib 1623   1.293   2.333  11.213 -0.1826  0.0928 -0.2775
    1Sil    Sib 1624   1.035   2.340  10.411 -0.5659  0.1531 -0.4618
    1Sil    Sib 1625   1.583   2.270  10.813 -0.1372  0.0002  0.0809
    1Sil    Sib 1626   1.186   2.084  10.778 -0.6387 -0.7571  0.1663
    1Sil    Sib 1627   1.730   2.085  11.184 -0.0571  0.3532 -0.3103
    1Sil    Sib 1628   1.474   2.037  10.378 -0.5276 -0.1133 -0.0216
    1Sil    Sib 1629   1.719   2.085  11.482 -0.1251 -0.0517  0.0225
    1Sil    Sib 1630   1.134   2.090  12.288  0.0534 -0.0819  0.4916
    1Sil    Sib 1631   1.421   2.032  11.879  0.2709 -0.5431 -0.1554
    1Sil    Sib 1632   0.977   2.337  11.915 -0.5425  0.6748 -0.7769
    1Sil    Sib 1633   1.508   2.336  12.306  0.3022 -0.1118 -0.0786
    1Sil    Sib 1634   1.268   2.283  11.503  0.3852  0.3597 -0.3013
    1Sil    Sib 1635   1.242   2.338  12.419 -0.4906 -0.4487  0.1297
    1Sil    Sib 1636   0.991   2.335  11.616  0.0712  0.1038 -0.4589
    1Sil    Sib 1637   1.523   2.277  12.015  0.3574 -0.3449  0.0164
    1Sil    Sib 1638   1.145   2.089  11.989  0.1240 -0.1694 -0.4270
    1Sil    Sim 1639   1.675   2.092  12.382 -0.2638 -0.3511  0.2291
    1Sil    Sib 1640   1.430   2.041  11.574  0.0037  0.2189 -0.3869
    1Sil    Sim 1641   1.781   2.587  10.291  0.2670  0.1139  0.0307
    1Sil    Sib 1642   1.180   2.578  11.084  0.2518 -0.1943 -0.3357
    1Sil    Sib 1643   1.483   2.521  10.672 -0.3245  0.1199 -0.5704
    1Sil    Sib 1644   1.039   2.825  10.721  0.0298 -0.1996  0.2735
    1Sil    Sib 1645   1.558   2.822  11.118  0.1314 -0.2851  0.2166
    1Sil    Sib 1646   1.329   2.773  10.306  0.2748 -0.0461 -0.2413
    1Sil    Sib 1647   1.269   2.830  11.216 -0.2724  0.1099 -0.0420
    1Sil    Sib 1648   1.054   2.828  10.419  0.2265  0.5025  0.1172
    1Sil    Sib 1649   1.582   2.772  10.815  0.6036 -0.1208  0.0674
    1Sil    Sib 1650   1.202   2.574  10.784  0.4742  0.2042  0.4223
    1Sil    Sib 1651   1.729   2.584  11.174 -0.5956 -0.2306 -0.2985
    1Sil    Sib 1652   1.493   2.522  10.369  0.2709  0.3392  0.0893
    1Sil    Sib 1653   1.709   2.580  11.473 -0.2304  0.0983 -0.1613
    1Sil    Sib 1654   1.140   2.581  12.283  0.8948 -0.2666  0.0011
    1Sil    Sib 1655   1.422   2.524  11.878  0.0525  0.2066  0.4725
    1Sil    Sib 1656   0.988   2.830  11.914 -0.2354 -0.2160 -0.0781
    1Sil    Sib 1657   1.523   2.828  12.314 -0.1088  0.3664 -0.1254
    1Sil    Sib 1658   1.265   2.772  11.513  0.3612  0.2967  0.1251
    1Sil    Sib 1659   1.237   2.831  12.421 -0.2217 -0.2057  0.4124
    1Sil    Sib 1660   0.985   2.830  11.615 -0.0926 -0.0200 -0.1559
    1Sil    Sib 1661   1.524   2.778  12.020 -0.5813 -0.0624 -0.1382
    1Sil    Sib 1662   1.141   2.578  11.974 -0.1109 -0.4219  0.2090
    1Sil    Sim 1663   1.682   2.580  12.375  0.3230  0.3960  0.0934
    1Sil    Sib 1664   1.435   2.523  11.569  0.6553  0.0822 -0.2526
    1Sil    Sib 1665   1.773   3.073  10.280 -0.0205 -0.4809  0.2470
    1Sil    Sib 1666   1.181   3.082  11.068  0.1761 -0.0123 -0.0869
    1Sil    Sib 1667   1.478   3.021  10.677  0.0958  0.3389  0.0220
    1Sil    Sib 1668   1.029   3.322  10.713  0.1574  0.1023  0.0178
    1Sil    Sib 1669   1.568   3.315  11.108 -0.0359 -0.1535 -0.2397
    1Sil    Sim 1670   1.319   3.266  10.311 -0.4260  0.0287 -0.0704
    1Sil    Sib 1671   1.288   3.317  11.223  0.1412 -0.1381  0.1800
    1Sil    Sib 1672   1.035   3.312  10.412 -0.2766  0.2142  0.0727
    1Sil    Sib 1673   1.575   3.264  10.814  0.0631  0.2097 -0.1888
    1Sil    Sib 1674   1.197   3.078  10.771  0.1442 -0.0346 -0.0253
    1Sil    Sib 1675   1.727   3.070  11.172 -0.0153 -0.2262  0.5180
    1Sil    Sib 1676   1.494   3.018  10.374 -0.2267  0.1376 -0.1334
    1Sil    Sib 1677   1.708   3.071  11.476  0.4270  0.2897 -0.2755
    1Sil    Sib 1678   1.140   3.076  12.284 -0.1903 -0.5359  0.6026
    1Sil    Sib 1679   1.420   3.012  11.878 -0.2498 -0.0536  0.5743
    1Sil    Sib 1680   0.987   3.318  11.906  0.1915 -0.2889  0.1640
    1Sil    Sib 1681   1.515   3.323  12.317  0.1192  0.1065 -0.0756
    1Sil    Sib 1682   1.274   3.260  11.516  0.2508  0.2043 -0.1564
    1Sil    Sim 1683   1.233   3.337  12.431  0.0084 -0.0025 -0.3339
    1Sil    Sib 1684   0.989   3.314  11.610 -0.5110 -0.0717  0.0270
    1Sil    Sib 1685   1.525   3.262  12.015 -0.4009 -0.2528 -0.3789
    1Sil    Sib 1686   1.145   3.077  11.981 -0.3337  0.1833 -0.0595
    1Sil    Sib 1687   1.674   3.077  12.370  0.3685  0.3247 -0.4552
    1Sil    Sib 1688   1.438   3.014  11.579  0.4329  0.0020 -0.6513
    1Sil    Sim 1689   1.748   3.563  10.273 -0.1068 -0.3020 -0.1276
    1Sil    Sib 1690   1.172   3.565  11.100 -0.0079  0.0228  0.8818
    1Sil    Sib 1691   1.465   3.516  10.691  0.0923 -0.3721  0.0252
    1Sil    Sib 1692   1.019   3.804  10.728 -0.1989 -0.0660 -0.1866
    1Sil    Sib 1693   1.561   3.809  11.121 -0.1775 -0.1606 -0.1469
    1Sil    Sib 1694   1.316   3.763  10.331  0.1044  0.1775 -0.0599
    1Sil    Sib 1695   1.274   3.817  11.224  0.0672 -0.4642  0.4748
    1Sil    Sib 1696   1.033   3.817  10.433 -0.0443 -0.0911  0.0271
    1Sil    Sib 1697   1.572   3.761  10.823  0.1450  0.1289 -0.1587
    1Sil    Sib 1698   1.186   3.569  10.794 -0.1089  0.1955  0.5221
    1Sil    Sib 1699   1.717   3.559  11.183  0.3861 -0.5179  0.3786
    1Sil    Sib 1700   1.466   3.518  10.382 -0.3974  0.4951 -0.1448
    1Sil    Sib 1701   1.705   3.568  11.485 -0.0257  0.1295 -0.0496
    1Sil    Sib 1702   1.123   3.577  12.274 -0.3473 -0.3306 -0.0767
    1Sil    Sib 1703   1.423   3.506  11.886  0.0673  0.4358 -0.1212
    1Sil    Sib 1704   0.969   3.809  11.919 -0.5089 -0.1726  0.1397
    1Sil    Sib 1705   1.518   3.813  12.305 -0.1570 -0.2089  0.1194
    1Sil    Sib 1706   1.263   3.762  11.522  0.0323  0.2127  0.3826
    1Sil    Sim 1707   1.233   3.821  12.407 -0.3139  0.0429  0.2291
    1Sil    Sib 1708   0.986   3.802  11.623 -0.0017 -0.2522  0.0810
    1Sil    Sib 1709   1.537   3.750  12.006  0.1612  0.3006  0.0811
    1Sil    Sib 1710   1.140   3.572  11.975 -0.8517  0.1013  0.1113
    1Sil    Sib 1711   1.676   3.562  12.359 -0.1265 -0.5029 -0.4816
    1Sil    Sib 1712   1.424   3.514  11.588  0.4452 -0.2798  0.3362
    1Sil    Sim 1713   1.758   4.057  10.279 -0.0960  0.6757 -0.1589
    1Sil    Sib 1714   1.184   4.059  11.076  0.3510 -0.3964  0.0191
    1Sil    Sib 1715   1.473   4.002  10.678 -0.5388 -0.3298 -0.3389
    1Sil    Sib 1716   1.034   0.857  10.724 -0.0832  0.5033  0.1196
    1Sil    Sib 1717   1.558   0.853  11.107  0.3896 -0.2493 -0.5043
    1Sil    Sib 1718   1.324   0.801  10.318  0.3588  0.1306 -0.2717
    1Sil    Sib 1719   1.270   0.859  11.221 -0.3058  0.3809  0.2095
    1Sil    Sib 1720   1.043   0.856  10.419  0.1796 -0.0611  0.0473
    1Sil    Sib 1721   1.586   0.797  10.816  0.0044 -0.0034 -0.2748
    1Sil    Sib 1722   1.198   4.054  10.782  0.0711  0.4207  0.0647
    1Sil    Sib 1723   1.731   4.061  11.164  0.5564 -0.4064 -0.2526
    1Sil    Sib 1724   1.483   4.004  10.380  0.4046  0.2135  0.4628
    1Sil    Sib 1725   1.716   4.057  11.469  0.5866 -0.3439  0.5130
    1Sil    Sib 1726   1.118   4.062  12.270 -0.0157 -0.3008 -0.1021
    1Sil    Sib 1727   1.429   4.001  11.870 -0.1067 -0.1630 -0.2386
    1Sil    Sib 1728   0.970   0.848  11.913 -0.0339 -0.1455 -0.1130
    1Sil    Sib 1729   1.524   0.856  12.316  0.7037 -0.2847  0.2254
    1Sil    Sib 1730   1.269   0.803  11.515  0.3264  0.1814  0.1111
    1Sil    Sim 1731   1.230   0.855  12.420 -0.4716 -0.2922 -0.0262
    1Sil    Sib 1732   0.984   0.848  11.615  0.2885 -0.2665  0.0005
    1Sil    Sib 1733   1.530   0.801  12.016  0.3783 -0.3770 -0.1374
    1Sil    Sib 1734   1.142   4.058  11.968 -0.3171 -0.3604 -0.1325
    1Sil    Sim 1735   1.684   4.060  12.380  0.1041 -0.1046 -0.2210
    1Sil    Sib 1736   1.439   4.007  11.567 -0.1428  0.2801  0.0973
    1Sil    Sim 1737   2.580   1.107  10.282  0.1479  0.1295  0.2254
    1Sil    Sib 1738   2.009   1.102  11.085  0.1061 -0.1896 -0.8738
    1Sil    Sib 1739   2.304   1.053  10.688 -0.1205  0.1139  0.0649
    1Sil    Sib 1740   1.847   1.344  10.722  0.3071  0.1232  0.1407
    1Sil    Sib 1741   2.398   1.339  11.120  0.3389 -0.1475 -0.7487
    1Sil    Sim 1742   2.137   1.275  10.328 -0.0011 -0.0797 -0.2231
    1Sil    Sib 1743   2.121   1.346  11.227  0.1219  0.2552  0.5869
    1Sil    Sib 1744   1.861   1.345  10.429 -0.5419  0.3075  0.0354
    1Sil    Sib 1745   2.411   1.297  10.819 -0.0472  0.5414 -0.0981
    1Sil    Sib 1746   2.023   1.105  10.785  0.1366  0.1423  0.0316
    1Sil    Sib 1747   2.554   1.094  11.177  0.6041 -0.0958  0.0326
    1Sil    Sib 1748   2.306   1.038  10.394 -0.1507  0.2488  0.3029
    1Sil    Sib 1749   2.538   1.103  11.475  0.1088  0.1413  0.4712
    1Sil    Sib 1750   1.976   1.106  12.275  0.2970  0.4676 -0.2088
    1Sil    Sib 1751   2.263   1.041  11.873 -0.1371 -0.1942 -0.4047
    1Sil    Sib 1752   1.810   1.342  11.914 -0.0875 -0.0353 -0.3959
    1Sil    Sib 1753   2.350   1.348  12.319  0.3158 -0.0429  0.5043
    1Sil    Sib 1754   2.100   1.282  11.519  0.3410  0.1162 -0.2369
    1Sil    Sib 1755   2.069   1.347  12.409 -0.1665 -0.2376  0.1700
    1Sil    Sib 1756   1.819   1.346  11.622 -0.1224 -0.2645 -0.6429
    1Sil    Sib 1757   2.355   1.285  12.021  0.5391 -0.1590  0.0202
    1Sil    Sib 1758   1.982   1.100  11.974 -0.0265 -0.1188 -0.3900
    1Sil    Sim 1759   2.502   1.094  12.382  0.2312  0.1213 -0.0959
    1Sil    Sib 1760   2.262   1.043  11.574 -0.0259  0.0144  0.4374
    1Sil    Sim 1761   2.581   1.593  10.287  0.3654  0.2641  0.0009
    1Sil    Sib 1762   2.009   1.586  11.097 -0.2620  0.1678  0.4170
    1Sil    Sib 1763   2.300   1.536  10.690  0.4153  0.1732 -0.0516
    1Sil    Sib 1764   1.862   1.837  10.729  0.3937 -0.6161 -0.1954
    1Sil    Sib 1765   2.393   1.841  11.130  0.3219 -0.2650  0.9212
    1Sil    Sim 1766   2.162   1.793  10.316  0.0010  0.4911  0.2055
    1Sil    Sib 1767   2.109   1.840  11.229  0.2019  0.7382 -0.5358
    1Sil    Sib 1768   1.877   1.842  10.432  0.2742  0.1923 -0.1035
    1Sil    Sib 1769   2.410   1.785  10.830 -0.2397 -0.2503 -0.0715
    1Sil    Sib 1770   2.017   1.594  10.792 -0.3376 -0.4903  0.0680
    1Sil    Sib 1771   2.558   1.586  11.182 -0.3692 -0.1523 -0.0139
    1Sil    Sib 1772   2.304   1.529  10.384  0.0728  0.4907 -0.3911
    1Sil    Sib 1773   2.546   1.590  11.482 -0.1645  0.0140  0.6117
    1Sil    Sib 1774   1.967   1.592  12.275  0.0844  0.2310 -0.0822
    1Sil    Sib 1775   2.247   1.527  11.871 -0.1483  0.2306  0.3477
    1Sil    Sib 1776   1.814   1.839  11.919  0.0205 -0.2685 -0.3719
    1Sil    Sib 1777   2.349   1.839  12.298 -0.0280 -0.4033 -0.2398
    1Sil    Sib 1778   2.105   1.786  11.529  0.3523  0.4880  0.8272
    1Sil    Sib 1779   2.074   1.837  12.409 -0.2908  0.1266 -0.0436
    1Sil    Sib 1780   1.821   1.832  11.622  0.1850 -0.4112 -0.1201
    1Sil    Sib 1781   2.354   1.782  12.013 -0.1788  0.0386 -0.2876
    1Sil    Sib 1782   1.971   1.590  11.975  0.1534  0.0682  0.7496
    1Sil    Sib 1783   2.505   1.599  12.374 -0.0224 -0.3108  0.1518
    1Sil    Sib 1784   2.261   1.541  11.570  0.1601 -0.2289  0.1667
    1Sil    Sim 1785   2.611   2.083  10.273  0.4907 -0.0086  0.0475
    1Sil    Sib 1786   2.017   2.084  11.082 -0.1112 -0.3073  0.1305
    1Sil    Sib 1787   2.307   2.030  10.688 -0.0475  0.1077 -0.0679
    1Sil    Sib 1788   1.863   2.328  10.723 -0.2477 -0.1346 -0.3795
    1Sil    Sib 1789   2.402   2.346  11.119 -0.1516  0.4228 -0.0320
    1Sil    Sim 1790   2.156   2.277  10.320 -0.3818  0.1357 -0.2114
    1Sil    Sib 1791   2.117   2.335  11.220  0.1221  0.2928 -0.0905
    1Sil    Sib 1792   1.882   2.344  10.427 -0.6406 -0.3632 -0.4679
    1Sil    Sib 1793   2.407   2.288  10.813 -0.1747 -0.2427  0.2291
    1Sil    Sib 1794   2.025   2.081  10.779  0.0894  0.3187 -0.1027
    1Sil    Sib 1795   2.563   2.086  11.184 -0.0445 -0.2109 -0.2028
    1Sil    Sib 1796   2.331   2.033  10.383  0.4881 -0.1509  0.1913
    1Sil    Sib 1797   2.543   2.095  11.489 -0.5260  0.1620 -0.0555
    1Sil    Sib 1798   1.956   2.089  12.281  0.3225  0.8261 -0.1859
    1Sil    Sib 1799   2.251   2.030  11.886 -0.2781  0.2095 -0.1589
    1Sil    Sib 1800   1.806   2.331  11.917 -0.0438 -0.0813 -0.3353
    1Sil    Sib 1801   2.344   2.331  12.310 -0.2658  0.0070 -0.2267
    1Sil    Sib 1802   2.101   2.286  11.522  0.3623  0.2320  0.0855
    1Sil    Sim 1803   2.075   2.345  12.417  0.0644 -0.1244 -0.0884
    1Sil    Sib 1804   1.826   2.337  11.615  0.0100 -0.0514  0.1520
    1Sil    Sib 1805   2.357   2.281  12.020  0.1544  0.0833 -0.3957
    1Sil    Sib 1806   1.973   2.082  11.985  0.0781 -0.4207  0.3583
    1Sil    Sib 1807   2.508   2.093  12.378 -0.5489 -0.4822  0.9880
    1Sil    Sib 1808   2.259   2.039  11.588 -0.2120 -0.5060  0.2649
    1Sil    Sim 1809   2.605   2.573  10.284 -0.2354 -0.3646 -0.1812
    1Sil    Sib 1810   2.019   2.583  11.089 -0.1075 -0.1544  0.2964
    1Sil    Sib 1811   2.301   2.536  10.675 -0.3469  0.1493  0.1148
    1Sil    Sib 1812   1.863   2.832  10.735  0.3114  0.5990  0.4428
    1Sil    Sib 1813   2.402   2.829  11.116 -0.0534  0.1500 -0.5444
    1Sil    Sib 1814   2.149   2.763  10.323  0.2386  0.1456 -0.2582
    1Sil    Sib 1815   2.120   2.826  11.225 -0.1325 -0.8178  0.1206
    1Sil    Sib 1816   1.872   2.833  10.444  0.6330 -0.0093  0.1774
    1Sil    Sib 1817   2.413   2.768  10.822  0.0824  0.3534  0.1844
    1Sil    Sib 1818   2.025   2.577  10.797 -0.0491 -0.6201  0.0570
    1Sil    Sib 1819   2.567   2.588  11.191 -0.2932  0.1636  0.1010
    1Sil    Sib 1820   2.315   2.521  10.374 -0.6077 -0.0550  0.2012
    1Sil    Sib 1821   2.542   2.584  11.484  0.4960 -0.3545  0.0087
    1Sil    Sib 1822   1.963   2.580  12.269 -0.2060  0.0320 -0.1437
    1Sil    Sib 1823   2.242   2.522  11.874  0.0234  0.4348  0.1213
    1Sil    Sib 1824   1.805   2.825  11.910 -0.0747 -0.2072 -0.3209
    1Sil    Sib 1825   2.350   2.827  12.305 -0.1675 -0.0405 -0.0543
    1Sil    Sib 1826   2.092   2.773  11.518 -0.1562  0.2412 -0.0956
    1Sil    Sim 1827   2.060   2.831  12.403  0.4122 -0.5537  0.0133
    1Sil    Sib 1828   1.816   2.819  11.614  0.4111  0.0809 -0.0704
    1Sil    Sib 1829   2.357   2.768  12.007 -0.2221 -0.5341  0.1081
    1Sil    Sib 1830   1.967   2.571  11.972  0.5874 -0.1655  0.3388
    1Sil    Sim 1831   2.512   2.574  12.372 -0.2703 -0.4613 -0.1301
    1Sil    Sib 1832   2.255   2.527  11.584 -0.6172 -0.0430 -0.0652
    1Sil    Sib 1833   2.587   3.065  10.291  0.2155 -0.3264  0.2812
    1Sil    Sib 1834   2.013   3.072  11.085  0.0859 -0.1344 -0.1216
    1Sil    Sib 1835   2.302   3.015  10.688  0.0208  0.4631 -0.1143
    1Sil    Sib 1836   1.856   3.319  10.710 -0.0192  0.2038 -0.0191
    1Sil    Sib 1837   2.382   3.323  11.119  0.2605 -0.1472 -0.4983
    1Sil    Sim 1838   2.153   3.258  10.314  0.3810  0.4363 -0.3890
    1Sil    Sib 1839   2.106   3.321  11.219 -0.4757 -0.1920 -0.1934
    1Sil    Sib 1840   1.870   3.317  10.417  0.3188 -0.4205  0.4530
    1Sil    Sib 1841   2.397   3.271  10.827 -0.1580  0.1340  0.5080
    1Sil    Sib 1842   2.025   3.078  10.791 -0.4350 -0.0421 -0.1039
    1Sil    Sib 1843   2.556   3.074  11.179  0.1829  0.3074  0.0139
    1Sil    Sib 1844   2.312   3.004  10.390 -0.0295 -0.8164 -0.3914
    1Sil    Sib 1845   2.540   3.071  11.483  0.3791  0.1128 -0.0249
    1Sil    Sib 1846   1.956   3.079  12.265  0.5937  0.0973 -0.0134
    1Sil    Sib 1847   2.254   3.017  11.874 -0.2800  0.0901 -0.7868
    1Sil    Sib 1848   1.810   3.310  11.919  0.0709 -0.2764 -0.1538
    1Sil    Sib 1849   2.348   3.317  12.301  0.1374 -0.2265  0.0779
    1Sil    Sib 1850   2.091   3.262  11.523  0.0802 -0.3093  0.1189
    1Sil    Sim 1851   2.065   3.326  12.406 -0.5109 -0.5572  0.3849
    1Sil    Sib 1852   1.810   3.322  11.616  0.0555 -0.3191  0.1971
    1Sil    Sib 1853   2.367   3.260  12.008  0.3799 -0.0841 -0.2028
    1Sil    Sib 1854   1.973   3.065  11.971  1.0577  0.0208 -0.3196
    1Sil    Sim 1855   2.505   3.066  12.360  0.1011 -0.3566  0.1908
    1Sil    Sib 1856   2.256   3.022  11.573 -0.7141  0.3137 -0.1583
    1Sil    Sib 1857   2.596   3.561  10.287 -0.1526 -0.0147 -0.0756
    1Sil    Sib 1858   1.999   3.561  11.083 -0.1994  0.2475  0.0912
    1Sil    Sib 1859   2.285   3.510  10.691  0.0329 -0.2120  1.1660
    1Sil    Sib 1860   1.848   3.812  10.721 -0.2403 -0.4256  0.3357
    1Sil    Sib 1861   2.387   3.809  11.117  0.3388  0.4471  0.2079
    1Sil    Sim 1862   2.143   3.749  10.309 -0.3215 -0.1105 -0.2122
    1Sil    Sib 1863   2.104   3.804  11.217 -0.2176  0.1071  0.0948
    1Sil    Sib 1864   1.855   3.809  10.413  0.0231 -0.5049 -0.1105
    1Sil    Sib 1865   2.409   3.759  10.814  0.3781 -0.1654  0.2874
    1Sil    Sib 1866   2.006   3.558  10.782  0.0972  0.1835  0.0709
    1Sil    Sib 1867   2.548   3.570  11.180 -0.1330 -0.3855 -0.1406
    1Sil    Sib 1868   2.310   3.505  10.383 -0.1221  0.0824 -0.0544
    1Sil    Sib 1869   2.546   3.570  11.474 -0.2771 -0.0125  0.2416
    1Sil    Sib 1870   1.963   3.576  12.272  0.2714  0.0597  0.3159
    1Sil    Sib 1871   2.249   3.500  11.875 -0.7301  0.0884 -0.0400
    1Sil    Sib 1872   1.815   3.802  11.909  0.4190 -0.1467 -0.4777
    1Sil    Sib 1873   2.351   3.808  12.313  0.0400 -0.3469  0.0900
    1Sil    Sib 1874   2.094   3.754  11.516  0.2433  0.2413 -0.0125
    1Sil    Sim 1875   2.073   3.821  12.411  0.0773 -0.2681 -0.2365
    1Sil    Sib 1876   1.816   3.816  11.610  0.4159  0.3258 -0.6876
    1Sil    Sib 1877   2.355   3.757  12.010  0.2652 -0.1956  0.1198
    1Sil    Sib 1878   1.971   3.558  11.971  0.5640 -0.0498 -0.4096
    1Sil    Sib 1879   2.504   3.559  12.377 -0.5310  0.4938  0.1270
    1Sil    Sib 1880   2.259   3.509  11.574  0.4299 -0.1792  0.0575
    1Sil    Sim 1881   2.598   4.057  10.271  0.1908 -0.0015 -0.1380
    1Sil    Sib 1882   2.014   4.061  11.076  0.1706 -0.2276 -0.0655
    1Sil    Sib 1883   2.302   3.998  10.672  0.0036  0.3139 -0.5314
    1Sil    Sib 1884   1.871   0.849  10.716  0.4961 -0.0769 -0.2502
    1Sil    Sib 1885   2.400   0.848  11.113 -0.1955  0.9151  0.3168
    1Sil    Sim 1886   2.150   0.791  10.310  0.0792 -0.0278 -0.2180
    1Sil    Sib 1887   2.116   0.854  11.221  0.4766 -0.1214  0.2661
    1Sil    Sib 1888   1.873   0.849  10.418 -0.1894  0.2272 -0.0595
    1Sil    Sib 1889   2.405   0.796  10.813  0.1027  0.2248 -0.2660
    1Sil    Sib 1890   2.022   4.054  10.777  0.1462 -0.2619 -0.1254
    1Sil    Sib 1891   2.566   4.052  11.174  0.2369 -0.7309  0.0945
    1Sil    Sib 1892   2.310   3.995  10.368 -0.2348  0.0773  0.0064
    1Sil    Sib 1893   2.552   4.060  11.468 -0.3453 -0.0112 -0.2270
    1Sil    Sib 1894   1.967   4.069  12.276 -0.1092  0.2788 -0.2498
    1Sil    Sib 1895   2.252   4.000  11.871  0.0618  0.0446 -0.1314
    1Sil    Sib 1896   1.810   0.854  11.916 -0.0008 -0.0109 -0.0535
    1Sil    Sib 1897   2.348   0.849  12.306  0.0147  0.0906 -0.4969
    1Sil    Sib 1898   2.097   0.797  11.519  0.1537 -0.4137  0.0648
    1Sil    Sib 1899   2.072   0.852  12.408 -0.0127 -0.2205  0.1492
    1Sil    Sib 1900   1.813   0.846  11.620 -0.1055  0.1770 -0.3274
    1Sil    Sib 1901   2.362   0.794  12.016  0.6867 -0.0654  0.1579
    1Sil    Sib 1902   1.975   4.055  11.975 -0.3076 -0.0822  0.0511
    1Sil    Sim 1903   2.511   4.059  12.373 -0.0232  0.3112  0.1358
    1Sil    Sib 1904   2.267   3.997  11.564  0.1506  0.3611 -0.0292
    1Sil    Sib 1905   0.092   1.109  10.300  0.0105  0.6176  0.2813
    1Sil    Sib 1906   2.842   1.106  11.081 -0.2480 -0.1329 -0.0825
    1Sil    Sib 1907  -0.193   1.051  10.682  0.0140 -0.6322 -0.2764
    1Sil    Sib 1908   2.695   1.343  10.721 -0.5909 -0.0354  0.7794
    1Sil    Sib 1909   3.227   1.357  11.122 -0.2594  0.0862 -0.3979
    1Sil    Sim 1910   2.984   1.305  10.319  0.0912 -0.2464  0.3025
    1Sil    Sib 1911   2.948   1.358  11.215 -0.3168 -0.3913 -0.2245
    1Sil    Sib 1912   2.704   1.349  10.415  0.2482 -0.0031  0.0396
    1Sil    Sib 1913  -0.099   1.300  10.820  0.2905 -0.3884 -0.1655
    1Sil    Sib 1914   2.857   1.091  10.775  0.0023 -0.0315  0.2059
    1Sil    Sib 1915   0.065   1.111  11.179  0.4614 -0.2598 -0.7490
    1Sil    Sib 1916  -0.187   1.052  10.381  0.2151  0.0185  0.2394
    1Sil    Sib 1917   0.049   1.103  11.477  0.2185 -0.0377  0.0127
    1Sil    Sib 1918   2.784   1.097  12.279  0.0266  0.0893  0.0158
    1Sil    Sib 1919  -0.248   1.048  11.871 -0.2524  0.2759  0.3452
    1Sil    Sib 1920   2.635   1.346  11.928  0.0331 -0.0251  0.1136
    1Sil    Sib 1921   3.177   1.348  12.307 -0.5609  0.1444  0.3454
    1Sil    Sib 1922   2.932   1.299  11.509  0.3517 -0.3374  0.4365
    1Sil    Sim 1923   2.899   1.342  12.418  0.2715  0.1453  0.3695
    1Sil    Sib 1924   2.649   1.339  11.626  0.0525  0.0567  0.0801
    1Sil    Sib 1925  -0.140   1.298  12.006  0.5335 -0.1481  0.8117
    1Sil    Sib 1926   2.799   1.100  11.980 -0.1648  0.4455 -0.1909
    1Sil    Sib 1927   0.007   1.103  12.371 -0.1378  0.0011 -0.3176
    1Sil    Sib 1928  -0.235   1.048  11.564  0.0860 -0.2239 -0.0782
    1Sil    Sim 1929   0.103   1.607  10.285 -0.3029  0.1577  0.1453
    1Sil    Sib 1930   2.832   1.602  11.073  0.3423 -0.2028 -0.2510
    1Sil    Sib 1931  -0.185   1.554  10.680 -0.3800 -0.0986  0.3903
    1Sil    Sib 1932   2.683   1.841  10.723 -0.2087 -0.1633  0.2035
    1Sil    Sib 1933   3.228   1.853  11.123 -0.1774  0.1185 -0.2845
    1Sil    Sib 1934   2.979   1.780  10.330 -0.5431 -0.0907 -0.1041
    1Sil    Sib 1935   2.946   1.837  11.227  0.3518 -0.2787 -0.4841
    1Sil    Sib 1936   2.690   1.835  10.425  0.0282  0.0879  0.5031
    1Sil    Sib 1937  -0.077   1.795  10.823  0.1405  0.1992 -1.0214
    1Sil    Sib 1938   2.849   1.601  10.768 -0.0833  0.0801 -0.0219
    1Sil    Sib 1939   0.062   1.607  11.180 -0.3220 -0.5378  0.6429
    1Sil    Sib 1940   3.154   1.550  10.391  0.3103 -0.2975  0.2386
    1Sil    Sib 1941   0.040   1.606  11.483 -0.1932  0.2692  0.5028
    1Sil    Sib 1942   2.790   1.591  12.286 -0.1028 -0.0508  0.2443
    1Sil    Sib 1943  -0.247   1.552  11.879  0.0615  0.1606  0.0710
    1Sil    Sib 1944   2.633   1.840  11.920 -0.2200 -0.4157 -0.2509
    1Sil    Sib 1945   3.164   1.838  12.325  0.1800  0.2329 -0.1141
    1Sil    Sib 1946   2.936   1.789  11.527  0.2795 -0.2125  0.7955
    1Sil    Sim 1947   2.885   1.842  12.436 -0.7349 -0.0508  0.2197
    1Sil    Sib 1948   2.651   1.845  11.617  0.4028 -0.0614  0.1872
    1Sil    Sib 1949  -0.137   1.793  12.022 -0.5111  0.3310  0.0029
    1Sil    Sib 1950   2.800   1.596  11.982  0.3467 -0.5387 -0.8233
    1Sil    Sim 1951   0.007   1.600  12.389  0.3291 -0.2039  0.1327
    1Sil    Sib 1952   3.097   1.542  11.590 -0.3369 -0.1679  0.0977
    1Sil    Sib 1953   0.100   2.081  10.289  0.0177  0.3288  0.3307
    1Sil    Sib 1954   2.844   2.081  11.089 -0.0259 -0.1312  0.1353
    1Sil    Sib 1955  -0.186   2.043  10.691  0.0233  0.3090  0.0360
    1Sil    Sib 1956   2.694   2.332  10.731 -0.0113 -0.9988 -0.2190
    1Sil    Sib 1957   3.225   2.342  11.123 -0.4404  0.2901 -0.2959
    1Sil    Sib 1958   2.989   2.278  10.318 -0.3057 -0.0145  0.0664
    1Sil    Sib 1959   2.937   2.341  11.228 -0.7211 -0.4366 -0.1430
    1Sil    Sib 1960   2.712   2.326  10.428 -0.2568 -0.0572 -0.2840
    1Sil    Sib 1961  -0.085   2.283  10.828 -0.2252  0.2364  0.0604
    1Sil    Sib 1962   2.856   2.085  10.793  0.0767 -0.3159  0.0687
    1Sil    Sib 1963   0.066   2.103  11.181  0.1529 -0.1089 -0.1981
    1Sil    Sib 1964   3.140   2.031  10.398  0.1789  0.0380  0.0772
    1Sil    Sib 1965   0.042   2.097  11.477  0.0181  0.3315  0.3210
    1Sil    Sib 1966   2.799   2.092  12.280  0.1292 -0.2209  0.0179
    1Sil    Sib 1967  -0.243   2.040  11.879 -0.1405  0.0913 -0.0045
    1Sil    Sib 1968   2.639   2.334  11.922  0.6425 -0.1813 -0.2796
    1Sil    Sib 1969   3.187   2.330  12.319 -0.3198 -0.3405  0.1092
    1Sil    Sib 1970   2.928   2.283  11.531  0.0574  0.1947  0.1131
    1Sil    Sim 1971   2.905   2.346  12.429  0.0380  0.2485  0.1307
    1Sil    Sib 1972   2.643   2.340  11.626 -0.0409 -0.3979  0.3592
    1Sil    Sib 1973  -0.130   2.286  12.026 -0.1132  0.3592 -0.5126
    1Sil    Sib 1974   2.806   2.087  11.984  0.2290  0.7051 -0.2816
    1Sil    Sim 1975   0.010   2.078  12.382  0.3634  0.0652  0.1158
    1Sil    Sib 1976   3.094   2.034  11.581  0.3660  0.0975  0.3909
    1Sil    Sim 1977   0.093   2.577  10.283  0.1310 -0.0339  0.1350
    1Sil    Sib 1978   2.855   2.582  11.086 -0.7040  0.0592 -0.4723
    1Sil    Sib 1979  -0.189   2.526  10.678 -0.2903 -0.1452  0.2884
    1Sil    Sib 1980   2.690   2.818  10.721  0.0824  0.0454 -0.0599
    1Sil    Sib 1981   3.228   2.828  11.121  0.1047  0.1867  0.0190
    1Sil    Sim 1982   2.980   2.761  10.319  0.1947  0.2167  0.3124
    1Sil    Sib 1983   2.949   2.828  11.227 -0.7643  0.5045  0.2477
    1Sil    Sib 1984   2.706   2.818  10.420  0.1637  0.2426 -0.4577
    1Sil    Sib 1985  -0.088   2.776  10.824 -0.0118 -0.1966  0.4626
    1Sil    Sib 1986   2.862   2.581  10.783 -0.1135  0.5121 -0.1334
    1Sil    Sib 1987   0.066   2.589  11.178 -0.0210  0.0258  0.1573
    1Sil    Sib 1988   3.144   2.514  10.379 -0.3458  0.0262  0.5413
    1Sil    Sib 1989   0.043   2.586  11.484  0.2059 -0.3651  0.8421
    1Sil    Sib 1990   2.792   2.582  12.282  0.0537  0.0178 -0.3059
    1Sil    Sib 1991  -0.247   2.524  11.878  0.3785 -0.4471 -0.2302
    1Sil    Sib 1992   2.642   2.827  11.923  0.6032  0.0452 -0.4190
    1Sil    Sib 1993   3.180   2.834  12.304  0.4203 -0.1666 -0.7788
    1Sil    Sib 1994   2.934   2.770  11.520 -0.3515  0.2525 -0.3511
    1Sil    Sim 1995   2.893   2.832  12.414  0.2584  0.0909 -0.7134
    1Sil    Sib 1996   2.653   2.825  11.620  0.0331  0.4201  0.6313
    1Sil    Sib 1997  -0.134   2.771  12.014  0.1032  0.2014 -0.1137
    1Sil    Sib 1998   2.804   2.582  11.987 -0.1463  0.0033  0.0488
    1Sil    Sim 1999   0.022   2.584  12.364  0.3709 -0.1185 -0.2937
    1Sil    Sib 2000   3.091   2.529  11.578 -0.0797 -0.1701 -0.0185
    1Sil    Sim 2001   0.098   3.067  10.292 -0.1594 -0.1444 -0.1187
    1Sil    Sib 2002   2.839   3.072  11.080 -0.5629 -0.0607 -0.4380
    1Sil    Sib 2003  -0.196   3.022  10.680  0.1487  0.3213  0.3161
    1Sil    Sib 2004   2.681   3.327  10.737 -0.9179  0.2919  0.0420
    1Sil    Sib 2005   3.231   3.314  11.123  0.2510 -0.4496 -0.0542
    1Sil    Sim 2006   2.974   3.252  10.331 -0.0330 -0.0578  0.2399
    1Sil    Sib 2007   2.944   3.322  11.211 -0.2252 -0.0063  0.3711
    1Sil    Sib 2008   2.689   3.307  10.431 -0.3728 -0.1061  0.2453
    1Sil    Sib 2009  -0.092   3.266  10.816 -0.4281 -0.0888 -0.3550
    1Sil    Sib 2010   2.844   3.072  10.777  0.0992 -0.2174  0.0511
    1Sil    Sib 2011   0.065   3.071  11.183  0.1909  0.0209  0.7224
    1Sil    Sib 2012   3.148   3.012  10.382 -0.1160 -0.4309 -0.4649
    1Sil    Sib 2013   0.050   3.074  11.482 -0.3688  0.8029 -0.3847
    1Sil    Sib 2014   2.791   3.074  12.277 -0.6163 -0.0257  0.0304
    1Sil    Sib 2015  -0.246   3.020  11.875 -0.0176  0.3399 -0.1507
    1Sil    Sib 2016   2.641   3.321  11.915 -0.1698  0.3125 -0.0223
    1Sil    Sib 2017   3.175   3.317  12.315  0.1973  0.0470 -0.2913
    1Sil    Sib 2018   2.932   3.269  11.509 -0.3525 -0.2199  0.2160
    1Sil    Sim 2019   2.897   3.320  12.417  0.2792  0.1057 -0.0466
    1Sil    Sib 2020   2.656   3.321  11.612  0.1623  0.3592 -0.1829
    1Sil    Sib 2021  -0.140   3.266  12.010 -0.1390 -0.1246 -0.5594
    1Sil    Sib 2022   2.801   3.073  11.983 -0.1639 -0.2540 -0.2643
    1Sil    Sim 2023   0.011   3.077  12.373 -0.1894 -0.1616  0.2867
    1Sil    Sib 2024   3.090   3.023  11.578  0.4347  0.2101 -0.2103
    1Sil    Sim 2025   0.098   3.575  10.281 -0.0844  0.2926 -0.2086
    1Sil    Sib 2026   2.827   3.565  11.083 -0.1521 -0.0159 -0.2559
    1Sil    Sib 2027  -0.197   3.516  10.689 -0.2647 -0.5619 -0.0025
    1Sil    Sib 2028   2.692   3.807  10.710 -0.1295  0.1438  0.1845
    1Sil    Sib 2029   3.224   3.808  11.124 -0.1725 -0.0300  0.3514
    1Sil    Sim 2030   2.989   3.764  10.315 -0.2218  0.4171 -0.0710
    1Sil    Sib 2031   2.942   3.801  11.217 -0.0622 -0.0790 -0.7926
    1Sil    Sib 2032   2.708   3.809  10.417  0.2740  0.3494  0.1752
    1Sil    Sib 2033  -0.090   3.770  10.821 -0.0236 -0.2005 -0.0290
    1Sil    Sib 2034   2.846   3.568  10.776 -0.7379  0.0449 -0.0495
    1Sil    Sib 2035   0.061   3.563  11.184 -0.0596  0.3041 -0.1062
    1Sil    Sib 2036   3.146   3.516  10.387  0.4219 -0.5104 -0.1045
    1Sil    Sib 2037   0.053   3.576  11.480 -0.0116 -0.3562 -0.1396
    1Sil    Sib 2038   2.790   3.569  12.272  0.2158  0.8443  0.0977
    1Sil    Sib 2039  -0.247   3.520  11.875  0.1815 -0.3999  0.4057
    1Sil    Sib 2040   2.637   3.816  11.914 -0.5337  0.2805 -0.2284
    1Sil    Sib 2041   3.179   3.807  12.313 -0.1068  0.1644  0.4375
    1Sil    Sib 2042   2.930   3.762  11.511  0.3097  0.0847 -0.2229
    1Sil    Sim 2043   2.895   3.811  12.412 -0.0358  0.0150  0.4558
    1Sil    Sib 2044   2.655   3.820  11.608  0.0417 -0.3275  0.1496
    1Sil    Sib 2045  -0.133   3.762  12.017  0.2625 -0.2378 -0.0550
    1Sil    Sib 2046   2.805   3.563  11.975 -0.0587  0.0147 -0.1196
    1Sil    Sim 2047   0.011   3.563  12.385  0.1060 -0.1536 -0.0293
    1Sil    Sib 2048   3.091   3.516  11.572 -0.1267  0.1816 -0.0007
    1Sil    Sim 2049   0.091   4.067  10.280 -0.0203 -0.4120  0.2798
    1Sil    Sib 2050   2.850   4.047  11.068 -0.2281  0.1010 -0.0667
    1Sil    Sib 2051  -0.194   4.012  10.676  0.0425 -0.4118 -0.5063
    1Sil    Sib 2052   2.692   0.849  10.724 -0.0254  0.1718  0.0589
    1Sil    Sib 2053  -0.092   0.857  11.118 -0.0044 -0.1302 -0.2761
    1Sil    Sib 2054  -0.356   0.807  10.333  0.0175  0.1633  0.0264
    1Sil    Sib 2055   2.951   0.844  11.210 -0.3710 -0.3607 -0.3823
    1Sil    Sib 2056   2.689   0.854  10.429  0.0706 -0.2265 -0.5562
    1Sil    Sib 2057  -0.088   0.801  10.822 -0.1195  0.3471  0.3390
    1Sil    Sib 2058   2.844   4.051  10.777  0.2226  0.0962  0.4955
    1Sil    Sib 2059   0.060   4.057  11.188  0.1038 -0.2568  0.2170
    1Sil    Sib 2060   3.138   4.020  10.383  0.5423  0.0465  0.0034
    1Sil    Sib 2061   0.038   4.068  11.487  0.1078 -0.0549 -0.4151
    1Sil    Sib 2062   2.783   4.064  12.278 -0.3130  0.2083  0.1591
    1Sil    Sib 2063  -0.248   4.011  11.884  0.3176  0.0418  0.3557
    1Sil    Sib 2064   2.643   0.853  11.915  0.5622 -0.2047 -0.2499
    1Sil    Sib 2065  -0.158   0.862  12.311  0.1125 -0.4939 -0.1693
    1Sil    Sib 2066  -0.412   0.803  11.507 -0.4365  0.3880  0.2122
    1Sil    Sim 2067   2.894   0.858  12.419 -0.0945  0.1068 -0.0058
    1Sil    Sib 2068   2.640   0.856  11.615 -0.3647 -0.1309  0.1465
    1Sil    Sib 2069  -0.134   0.810  12.015  0.2555 -0.1470 -0.0919
    1Sil    Sib 2070   2.801   4.063  11.982  0.0810 -0.1686 -0.4977
    1Sil    Sim 2071   0.003   4.063  12.380 -0.3003 -0.3540  0.4866
    1Sil    Sib 2072   3.084   4.012  11.579  0.0448  0.1975  0.1603
    1Sil     Hy 2073   1.064   1.111  10.129 -0.3281 -0.3699  0.6150
    1Sil     Hm 2074   0.354   1.343  10.128  0.4414  1.3984  0.7030
    1Sil     Hm 2075   0.515   1.411  10.115 -1.1225 -0.2196 -0.0377
    1Sil     Hm 2076   0.487   1.236  10.101  1.0768 -2.2767  2.1303
    1Sil     Hm 2077   0.346   1.371  12.632  0.4263  0.1767  0.2094
    1Sil     Hm 2078   0.231   1.264  12.549 -0.4668  1.0424  0.0540
    1Sil     Hm 2079   0.386   1.208  12.594 -0.5420  0.0217 -1.5620
    1Sil     Hm 2080   0.980   1.057  12.565 -0.3327 -0.6786  1.4559
    1Sil     Hm 2081   0.823   0.985  12.571 -0.4283 -0.7769 -2.0603
    1Sil     Hm 2082   0.857   1.151  12.622  0.3488 -1.4930  0.9761
    1Sil     Hm 2083   0.914   1.610  10.059  1.2099 -1.1216 -2.5484
    1Sil     Hm 2084   1.081   1.637  10.094  0.6438 -1.8844 -2.4368
    1Sil     Hm 2085   1.012   1.472  10.111 -0.2733 -0.0943  2.8523
    1Sil     Hy 2086   0.434   1.906  10.156  1.8694 -0.0389 -1.4162
    1Sil     Hy 2087   0.448   1.825  12.619 -0.1666  1.0341  0.3795
    1Sil     Hm 2088   0.824   1.661  12.598  1.0808  0.0611  0.7259
    1Sil     Hm 2089   0.846   1.484  12.581 -2.1998  0.9027  1.1607
    1Sil     Hm 2090   0.980   1.610  12.562 -0.9745  0.7929  1.9065
    1Sil     Hm 2091   0.923   2.111  10.053  0.4895  2.0262  0.6281
    1Sil     Hm 2092   1.080   2.060  10.112 -0.2431  0.4538  1.2656
    1Sil     Hm 2093   0.958   1.940  10.115 -0.9942  0.2836  1.7588
    1Sil     Hm 2094   0.419   2.400  10.143 -0.0484  0.1010  0.9867
    1Sil     Hm 2095   0.550   2.293  10.104 -0.9575 -1.7056 -1.7725
    1Sil     Hm 2096   0.386   2.222  10.124 -0.8325  0.5860 -0.2770
    1Sil     Hm 2097   0.401   2.386  12.637  0.6888 -1.2579  1.5099
    1Sil     Hm 2098   0.252   2.300  12.584 -0.5550  1.1901 -1.8885
    1Sil     Hm 2099   0.404   2.215  12.608  3.4588  0.3600 -2.5357
    1Sil     Hm 2100   0.965   2.063  12.568 -0.0049 -0.8215  1.1857
    1Sil     Hm 2101   0.788   2.104  12.582  0.8533  2.6616 -0.6373
    1Sil     Hm 2102   0.837   1.937  12.552 -0.6412  0.5287  0.7617
    1Sil     Hm 2103   0.948   2.640  10.036  0.1209  0.8445 -0.1555
    1Sil     Hm 2104   1.095   2.572  10.093  0.2406  1.3780  0.5036
    1Sil     Hm 2105   0.949   2.469  10.061 -0.1332  0.2996  0.8770
    1Sil     Hy 2106   0.527   2.854  10.154 -0.2218  0.4053 -0.7480
    1Sil     Hm 2107   0.415   2.694  12.601  1.6871  0.5249 -0.3089
    1Sil     Hm 2108   0.411   2.863  12.640 -0.9161 -1.9557  2.5578
    1Sil     Hm 2109   0.266   2.786  12.560  0.0602 -0.7935  1.5245
    1Sil     Hm 2110   0.796   2.555  12.598  0.6837  1.4748 -0.0600
    1Sil     Hm 2111   0.940   2.653  12.575  1.1552 -0.6403 -1.0277
    1Sil     Hm 2112   0.952   2.481  12.578 -0.6942 -0.8907 -0.6137
    1Sil     Hm 2113   0.963   3.136  10.046  2.6549 -0.2993 -1.3912
    1Sil     Hm 2114   1.092   3.034  10.095 -0.3033 -1.5170  1.1417
    1Sil     Hm 2115   0.937   2.957  10.066  0.2424 -0.7494  1.2014
    1Sil     Hm 2116   0.569   3.294  10.110  0.1835  0.1192  0.3749
    1Sil     Hm 2117   0.405   3.226  10.111  2.4425 -0.8856  0.2855
    1Sil     Hm 2118   0.433   3.397  10.133  1.6376  0.7354 -0.4352
    1Sil     Hm 2119   0.400   3.174  12.622  0.7873 -0.2121 -1.2065
    1Sil     Hm 2120   0.431   3.346  12.653  0.0749  0.7647 -1.8076
    1Sil     Hm 2121   0.267   3.296  12.611 -0.6114 -0.0317 -0.9746
    1Sil     Hy 2122   0.959   2.999  12.553 -0.2158 -1.5192 -0.5563
    1Sil     Hm 2123   0.897   3.630  10.060 -0.1243  3.3373  2.9166
    1Sil     Hm 2124   1.068   3.582  10.096 -1.0423  2.3186 -0.4535
    1Sil     Hm 2125   0.943   3.462  10.085 -0.6848  0.2644 -0.0272
    1Sil     Hm 2126   0.490   3.704  10.106 -0.5828 -0.7878 -1.0147
    1Sil     Hm 2127   0.335   3.787  10.149  0.7492  1.5696 -0.6148
    1Sil     Hm 2128   0.479   3.882  10.134  1.1489  0.4355  2.8389
    1Sil     Hy 2129   0.332   3.860  12.607 -0.0672  0.9512 -1.5332
    1Sil     Hm 2130   0.803   3.597  12.589 -0.8436 -1.2807 -0.3461
    1Sil     Hm 2131   0.882   3.446  12.558 -1.5106 -0.4273  1.0293
    1Sil     Hm 2132   0.978   3.597  12.553  0.5547  0.1783 -2.1489
    1Sil     Hm 2133   1.087   4.040  10.131 -0.0983 -0.4518  0.4699
    1Sil     Hm 2134   0.991   3.898  10.135  0.3240 -0.0232  0.3006
    1Sil     Hm 2135   0.930   4.054  10.060 -1.0891 -1.8326  0.1540
    1Sil     Hy 2136   0.375   0.919  10.170  0.7195  0.0545  0.0224
    1Sil     Hy 2137   0.417   0.874  12.615 -0.3648  1.8169  0.4758
    1Sil     Hy 2138   0.814   4.069  12.579  0.6564  1.1187  0.5504
    1Sil     Hm 2139   1.806   1.168  10.065  0.4632 -0.4635 -1.1240
    1Sil     Hm 2140   1.933   1.059  10.116 -0.4740 -1.4626 -1.5708
    1Sil     Hm 2141   1.775   0.994  10.082  1.4078 -0.9096  0.4434
    1Sil     Hm 2142   1.346   1.290  10.077 -0.7697 -1.2387  0.8116
    1Sil     Hm 2143   1.179   1.305  10.130 -0.6367  1.5012  1.7202
    1Sil     Hm 2144   1.282   1.447  10.139 -0.1407  0.5761  1.6115
    1Sil     Hm 2145   1.075   1.352  12.591  0.1348  1.4243  1.2874
    1Sil     Hm 2146   1.237   1.388  12.657 -0.3126  0.1466 -1.0520
    1Sil     Hm 2147   1.204   1.226  12.606  0.4207  0.4997  1.0769
    1Sil     Hm 2148   1.771   0.958  12.548  0.9475  0.2673  1.7872
    1Sil     Hm 2149   1.814   1.130  12.567  0.0533  0.8902 -3.4957
    1Sil     Hm 2150   1.651   1.066  12.611  0.4058 -1.3406 -0.3775
    1Sil     Hm 2151   1.757   1.607  10.071 -2.2113 -1.4828 -0.2697
    1Sil     Hm 2152   1.787   1.445  10.116 -0.3089 -0.5901  1.6118
    1Sil     Hm 2153   1.925   1.549  10.106 -0.4303  1.8987 -0.6468
    1Sil     Hy 2154   1.361   1.741  10.122 -1.6771  0.2453 -5.3768
    1Sil     Hm 2155   1.081   1.820  12.598  0.6417 -2.5297  0.4184
    1Sil     Hm 2156   1.223   1.728  12.643 -0.4021  0.3694  0.4139
    1Sil     Hm 2157   1.219   1.916  12.640 -1.2883  0.2224  1.6402
    1Sil     Hm 2158   1.746   1.467  12.547  0.8721  0.3320  1.3956
    1Sil     Hm 2159   1.612   1.575  12.596  1.2851  0.3234  1.7223
    1Sil     Hm 2160   1.779   1.640  12.566  1.5437 -1.5171 -1.9711
    1Sil     Hy 2161   1.789   2.138  10.104  0.6773 -0.2464 -0.1530
    1Sil     Hm 2162   1.344   2.384  10.096 -1.0275  1.3872 -0.4080
    1Sil     Hm 2163   1.262   2.224  10.097  3.1853 -1.1409  1.3855
    1Sil     Hm 2164   1.178   2.366  10.155  1.6926  1.2250  4.0843
    1Sil     Hy 2165   1.210   2.409  12.616 -2.2951  0.4215 -0.0293
    1Sil     Hm 2166   1.601   2.070  12.584 -0.2459 -2.0616  0.5386
    1Sil     Hm 2167   1.726   1.956  12.561  0.5868  0.5504  0.1102
    1Sil     Hm 2168   1.766   2.130  12.584 -0.4572 -0.8629  1.0897
    1Sil     Hm 2169   1.785   2.547  10.053 -0.9771 -3.8129  2.6180
    1Sil     Hm 2170   1.860   2.698  10.109 -2.7700 -0.0004 -0.7027
    1Sil     Hm 2171   1.942   2.538  10.117 -0.5544 -1.9193  3.5674
    1Sil     Hy 2172   1.313   2.869  10.114  1.2273 -1.5935 -3.3132
    1Sil     Hy 2173   1.275   2.817  12.628 -0.0883  1.5862 -0.2113
    1Sil     Hm 2174   1.618   2.515  12.590 -0.4985 -1.4468  0.3039
    1Sil     Hm 2175   1.787   2.479  12.552  1.6243  4.1063  3.4125
    1Sil     Hm 2176   1.749   2.635  12.593  0.3137 -0.2923  1.1509
    1Sil     Hy 2177   1.844   2.948  10.129  0.5965  0.2179 -2.3010
    1Sil     Hm 2178   1.376   3.280  10.084  0.5300 -1.4334  1.1741
    1Sil     Hm 2179   1.213   3.225  10.120 -0.2606 -0.7060  1.4556
    1Sil     Hm 2180   1.252   3.400  10.141 -1.2203  0.1263 -1.6646
    1Sil     Hm 2181   1.073   3.281  12.599  0.4886 -0.9899 -0.7498
    1Sil     Hm 2182   1.207   3.387  12.658  1.2929 -0.3713  0.9932
    1Sil     Hm 2183   1.220   3.208  12.622 -1.1578  0.3910  1.5511
    1Sil     Hy 2184   1.652   3.106  12.569  0.6266 -0.5734  0.9204
    1Sil     Hm 2185   1.904   3.531  10.114 -0.3465 -3.4937  3.3471
    1Sil     Hm 2186   1.749   3.618  10.058  1.9926  0.4923 -0.9253
    1Sil     Hm 2187   1.761   3.442  10.077 -1.2765  0.6221  0.1175
    1Sil     Hy 2188   1.292   3.869  10.146 -1.4444 -0.3322 -1.5764
    1Sil     Hm 2189   1.206   3.681  12.578  0.4994 -0.2338 -2.1210
    1Sil     Hm 2190   1.253   3.836  12.631  1.8610 -1.5853 -0.0618
    1Sil     Hm 2191   1.080   3.811  12.574  0.5402  2.7886  0.6697
    1Sil     Hy 2192   1.726   3.629  12.552  1.1348 -1.0618  2.6123
    1Sil     Hm 2193   1.730   4.093  10.050  0.2228 -0.0827 -0.8287
    1Sil     Hm 2194   1.908   4.082  10.095 -0.2851  2.3561  2.9856
    1Sil     Hm 2195   1.808   3.935  10.081  0.1294  0.2136  0.2307
    1Sil     Hy 2196   1.320   0.757  10.112  0.6760  0.7636 -0.3551
    1Sil     Hm 2197   1.075   0.779  12.574 -0.5922  1.4290  0.3657
    1Sil     Hm 2198   1.233   0.746  12.626 -0.2331 -1.0480 -0.6802
    1Sil     Hm 2199   1.171   0.913  12.635  1.1160 -0.4452  1.1375
    1Sil     Hm 2200   1.820   4.086  12.567  2.1697 -2.0523 -2.0957
    1Sil     Hm 2201   1.645   4.086  12.600 -0.8071  0.2831 -1.6979
    1Sil     Hm 2202   1.735   3.937  12.583  1.9308  0.8192  2.6576
    1Sil     Hm 2203   2.586   1.147  10.064  2.5636  0.1802 -0.7675
    1Sil     Hm 2204   2.740   1.094  10.116  0.5893 -0.9443 -1.1554
    1Sil     Hm 2205   2.613   0.971  10.090 -2.3425  0.1682  0.6088
    1Sil     Hm 2206   2.184   1.251  10.101 -1.0987  1.8566 -1.6815
    1Sil     Hm 2207   2.012   1.252  10.135  1.0737 -1.6872 -1.1715
    1Sil     Hm 2208   2.104   1.402  10.135  2.2910  0.0199 -3.1831
    1Sil     Hy 2209   2.074   1.351  12.616 -0.0426  2.7234 -0.6525
    1Sil     Hm 2210   2.424   1.012  12.587 -0.6900 -0.4254 -0.2715
    1Sil     Hm 2211   2.595   0.979  12.558 -2.2533 -2.5863 -0.6378
    1Sil     Hm 2212   2.540   1.142  12.603 -1.4070 -0.8892  0.4680
    1Sil     Hm 2213   2.632   1.483  10.091 -1.9452  0.8989 -0.5690
    1Sil     Hm 2214   2.595   1.653  10.060 -0.2755  0.3725 -0.3119
    1Sil     Hm 2215   2.749   1.591  10.126  0.3524 -3.4907 -2.1944
    1Sil     Hm 2216   2.209   1.819  10.094 -0.9046 -1.0586 -0.0943
    1Sil     Hm 2217   2.038   1.780  10.119 -0.6349 -0.1295  0.0975
    1Sil     Hm 2218   2.099   1.942  10.156 -2.0987 -0.4618  0.1285
    1Sil     Hy 2219   2.102   1.786  12.606 -0.9547  1.1938  2.0044
    1Sil     Hy 2220   2.597   1.547  12.542  1.2216  2.1611  0.4990
    1Sil     Hm 2221   2.703   2.160  10.071 -1.8648  1.1146 -0.3943
    1Sil     Hm 2222   2.727   1.982  10.100 -0.6238  0.3269  2.1732
    1Sil     Hm 2223   2.572   2.044  10.054 -0.5709  1.2268 -0.2328
    1Sil     Hm 2224   2.034   2.221  10.110  2.9045 -1.5851 -1.2868
    1Sil     Hm 2225   2.054   2.391  10.139 -1.3734 -0.2864  0.5439
    1Sil     Hm 2226   2.190   2.307  10.078  0.4160 -0.7040 -0.2098
    1Sil     Hm 2227   2.069   2.410  12.627  2.8899 -0.3792 -1.2275
    1Sil     Hm 2228   1.924   2.322  12.579  0.0065  0.5624  0.3413
    1Sil     Hm 2229   2.078   2.236  12.592  2.1748  0.4765  0.4169
    1Sil     Hy 2230   2.446   2.094  12.583 -0.7645 -0.3446 -0.4699
    1Sil     Hm 2231   2.677   2.615  10.079  1.0670 -0.1012 -0.0398
    1Sil     Hm 2232   2.578   2.467  10.094  0.4853 -1.9368  2.1977
    1Sil     Hm 2233   2.742   2.464  10.152 -2.4865 -3.7521 -1.1780
    1Sil     Hy 2234   2.156   2.737  10.125  0.5022 -0.9309  2.1605
    1Sil     Hm 2235   1.888   2.798  12.522  0.5606  1.1866 -1.3729
    1Sil     Hm 2236   2.027   2.697  12.577  1.2220 -0.6592 -1.1095
    1Sil     Hm 2237   2.040   2.868  12.607 -2.2991  0.3428  0.5433
    1Sil     Hm 2238   2.631   2.472  12.551 -1.0696 -1.3809  1.9731
    1Sil     Hm 2239   2.581   2.639  12.593  0.0312 -0.7300  0.3648
    1Sil     Hm 2240   2.460   2.505  12.593 -1.9011  1.3720 -3.1679
    1Sil     Hy 2241   2.588   3.107  10.088  1.3500  1.4330  0.1263
    1Sil     Hm 2242   2.028   3.344  10.151  0.5691  0.3155 -0.0017
    1Sil     Hm 2243   2.204   3.320  10.108  0.0324 -1.2257 -0.6592
    1Sil     Hm 2244   2.103   3.188  10.103  1.4536 -0.2513 -0.2180
    1Sil     Hm 2245   1.933   3.357  12.576 -0.5738  0.7022 -1.4565
    1Sil     Hm 2246   2.108   3.334  12.613  0.9201 -0.7283 -0.5789
    1Sil     Hm 2247   2.015   3.192  12.567 -2.9192 -0.3394  0.0193
    1Sil     Hm 2248   2.655   3.041  12.545 -0.4437  2.0077 -1.7828
    1Sil     Hm 2249   2.492   3.094  12.604 -2.7855 -0.4668 -1.4205
    1Sil     Hm 2250   2.520   2.924  12.555 -0.7891  0.4879  1.2910
    1Sil     Hy 2251   2.653   3.429  10.136 -0.1775 -0.2336  2.5848
    1Sil     Hm 2252   2.099   3.875  10.108  2.3998 -0.0833  1.9368
    1Sil     Hm 2253   2.168   3.725  10.074  0.1454 -2.2976  1.3461
    1Sil     Hm 2254   1.997   3.723  10.122  0.4440 -0.0708 -2.1720
    1Sil     Hm 2255   2.074   3.870  12.640 -1.3235 -1.5536  2.0862
    1Sil     Hm 2256   1.924   3.821  12.584 -0.2723  0.3936  1.3629
    1Sil     Hm 2257   2.049   3.699  12.603 -2.0625  0.9000  1.2370
    1Sil     Hy 2258   2.443   3.528  12.564 -0.2602  1.6903 -1.6793
    1Sil     Hm 2259   2.605   3.944  10.088  0.9742 -0.9197  2.0239
    1Sil     Hm 2260   2.617   4.123  10.055  1.0688  0.4596  0.6725
    1Sil     Hm 2261   2.757   4.024  10.112  0.0677 -2.0464 -1.6684
    1Sil     Hm 2262   2.191   0.865  10.094  1.1809 -0.6459 -1.1886
    1Sil     Hm 2263   2.018   0.877  10.139  1.0823  1.8320 -1.6110
    1Sil     Hm 2264   2.093   0.729  10.095 -1.5359  1.2593  0.0785
    1Sil     Hy 2265   2.130   0.772  12.585  0.1974  2.0437  0.4389
    1Sil     Hm 2266   2.657   4.044  12.566 -0.8518 -0.6198  3.1495
    1Sil     Hm 2267   2.486   4.080  12.611  0.2278  1.1358 -0.0480
    1Sil     Hm 2268   2.532   3.919  12.556  2.2491 -0.2716 -0.7395
    1Sil     Hy 2269   0.154   1.168  10.106  1.3819  0.4725  0.1237
    1Sil     Hm 2270   3.041   1.399  10.117 -1.1815  1.5362 -2.0016
    1Sil     Hm 2271   2.934   1.253  10.093  0.5231 -0.3468 -0.0060
    1Sil     Hm 2272   2.873   1.416  10.138  1.3218  1.4519  0.6802
    1Sil     Hm 2273   2.799   1.225  12.595  1.3782 -1.2668  1.4657
    1Sil     Hm 2274   2.963   1.279  12.625 -0.1844  0.2639 -0.9936
    1Sil     Hm 2275   2.828   1.394  12.635  1.0540  0.9815  0.3390
    1Sil     Hy 2276  -0.022   1.147  12.573  0.6211  0.5138  1.1045
    1Sil     Hm 2277   0.273   1.554  10.132  0.5780  1.6909  0.6018
    1Sil     Hm 2278   0.117   1.498  10.076  2.6411 -2.2615  1.4480
    1Sil     Hm 2279   0.161   1.672  10.069 -0.3708  1.3252  1.6106
    1Sil     Hy 2280   2.972   1.733  10.113 -0.5506  0.0893  0.0181
    1Sil     Hm 2281   2.820   1.916  12.656  0.6021 -0.4774  1.4795
    1Sil     Hm 2282   2.755   1.759  12.641  1.0220 -0.3698 -0.7503
    1Sil     Hm 2283   2.919   1.770  12.682  0.9719 -0.2436 -0.2200
    1Sil     Hm 2284  -0.048   1.568  12.612 -0.6635  0.6417 -1.1218
    1Sil     Hm 2285   0.088   1.472  12.546  0.6044 -0.0645  0.2006
    1Sil     Hm 2286   0.109   1.646  12.588  1.3147 -0.1876 -0.5325
    1Sil     Hy 2287   0.092   2.096  10.088  1.3368 -0.7878 -1.2046
    1Sil     Hy 2288   3.015   2.281  10.115 -0.9256  0.1036 -1.3156
    1Sil     Hm 2289   2.767   2.248  12.614  0.5942 -2.1732 -1.1116
    1Sil     Hm 2290   2.939   2.245  12.637  0.6700 -0.3526 -2.2261
    1Sil     Hm 2291   2.845   2.400  12.658 -0.8423 -1.7807  2.3075
    1Sil     Hm 2292  -0.039   2.088  12.601 -1.3617 -1.0219 -0.8178
    1Sil     Hm 2293   0.040   1.931  12.555  0.8894 -0.0040 -1.3118
    1Sil     Hm 2294   0.134   2.077  12.581 -0.3597  1.4639  1.7050
    1Sil     Hm 2295   0.058   2.584  10.056  0.0170  1.9491  0.7538
    1Sil     Hm 2296   0.205   2.657  10.101 -3.6607  4.2162  0.7894
    1Sil     Hm 2297   0.189   2.477  10.102 -0.6602 -1.2871  2.3706
    1Sil     Hm 2298   3.006   2.847  10.106 -1.4371  1.6675  0.8671
    1Sil     Hm 2299   2.930   2.679  10.113  2.0020 -0.4934  1.2824
    1Sil     Hm 2300   2.842   2.837  10.140  0.8807  1.5463 -1.8266
    1Sil     Hm 2301   2.742   2.806  12.610  0.7855  1.5579  1.2337
    1Sil     Hm 2302   2.882   2.703  12.632 -0.0544  0.1547  2.0633
    1Sil     Hm 2303   2.893   2.873  12.655 -0.5920  1.3066 -1.8927
    1Sil     Hm 2304   0.040   2.644  12.576  0.5497  1.5262 -1.3603
    1Sil     Hm 2305  -0.023   2.486  12.563  1.0100 -0.3350  0.4051
    1Sil     Hm 2306   0.154   2.516  12.539  0.6448  1.1636 -1.6888
    1Sil     Hm 2307   0.271   2.993  10.143  1.4652  2.5492 -2.8862
    1Sil     Hm 2308   0.115   2.941  10.103  0.2726  0.8894 -2.4328
    1Sil     Hm 2309   0.176   3.114  10.068 -2.3957 -1.2273 -1.8670
    1Sil     Hm 2310   2.875   3.183  10.139  0.4136  0.0983 -1.5423
    1Sil     Hm 2311   3.030   3.264  10.114  2.6540  0.8691  2.3499
    1Sil     Hm 2312   2.888   3.360  10.139  0.7679  0.2412  0.6592
    1Sil     Hm 2313   2.843   3.187  12.597  2.4883  0.0564  1.2754
    1Sil     Hm 2314   2.918   3.330  12.653 -0.6068 -0.1321  0.7534
    1Sil     Hm 2315   2.750   3.339  12.605  0.1282 -1.6269  1.9705
    1Sil     Hm 2316  -0.061   3.007  12.580 -0.3806  1.1672  0.7386
    1Sil     Hm 2317   0.113   2.995  12.574 -0.0394  0.2286  1.2520
    1Sil     Hm 2318   0.027   3.151  12.589 -1.2488 -1.1109  1.5333
    1Sil     Hm 2319   0.221   3.495  10.123 -0.5801 -1.1775  1.6238
    1Sil     Hm 2320   0.058   3.528  10.063  0.9227 -0.7390 -0.0600
    1Sil     Hm 2321   0.172   3.659  10.080  1.5988 -0.8280 -0.5493
    1Sil     Hm 2322   2.956   3.696  10.093  0.9479  1.7598 -3.1906
    1Sil     Hm 2323   2.854   3.835  10.146  0.5592  0.7658  0.2035
    1Sil     Hm 2324   3.027   3.851  10.106 -1.6020  0.9682 -1.4005
    1Sil     Hm 2325   2.919   3.723  12.627  0.6150 -0.2803  0.0424
    1Sil     Hm 2326   2.844   3.883  12.623  1.5929  0.1148 -1.0637
    1Sil     Hm 2327   2.755   3.731  12.593  0.3911  0.1085  1.2393
    1Sil     Hm 2328   0.078   3.422  12.552  2.8647  0.8609  0.4673
    1Sil     Hm 2329   0.116   3.596  12.590 -2.4958  1.0873  2.0206
    1Sil     Hm 2330  -0.046   3.534  12.613 -0.2163  0.1804 -1.2815
    1Sil     Hm 2331   0.231   3.981  10.125  0.4532  0.3951  0.3582
    1Sil     Hm 2332   0.072   4.017  10.057 -1.1591  1.1093  1.6503
    1Sil     Hm 2333   0.195   4.146  10.094 -1.1236  0.9952 -1.6572
    1Sil     Hy 2334  -0.350   0.920  10.154  1.2806 -0.3258  2.0756
    1Sil     Hm 2335   2.925   0.872  12.658 -0.4730  0.8689 -0.7874
    1Sil     Hm 2336   2.754   0.861  12.617  0.2262  0.9860  0.0659
    1Sil     Hm 2337   2.843   0.718  12.605 -1.2247 -0.9950 -2.4295
    1Sil     Hm 2338   0.154   4.085  12.550  0.2733 -1.4356  1.2509
    1Sil     Hm 2339  -0.007   4.110  12.609 -2.7229 -0.8743 -2.2940
    1Sil     Hm 2340   0.054   3.941  12.576 -0.6848 -0.8406  0.0164
    2Eth     Ho 2341   1.163   0.786   9.487  0.1560  2.4013  0.8056
    2Eth     Oh 2342   1.072   0.776   9.511  0.0911  0.5648 -0.1348
    2Eth     Co 2343   1.041   0.638   9.505 -0.2887  0.2938 -0.4118
    2Eth    Hco 2344   1.108   0.579   9.568  0.9530 -1.2996 -3.1668
    2Eth    Hco 2345   1.060   0.600   9.405 -1.0294  1.3068 -0.9489
    2Eth     Ch 2346   0.895   0.635   9.558 -0.2787  0.3172 -0.6970
    2Eth    Hcc 2347   0.830   0.703   9.503  2.7121  1.8952 -2.3766
    2Eth    Hcc 2348   0.897   0.676   9.659 -2.8277 -1.0969 -0.0132
    2Eth    Hcc 2349   0.854   0.534   9.569 -1.9953  1.0049 -0.6471
    3Eth     Ho 2350   0.600   1.733   1.449  0.0771 -0.5136  0.1147
    3Eth     Oh 2351   0.600   1.823   1.422 -0.5297 -0.6198 -0.2631
    3Eth     Co 2352   0.546   1.899   1.521 -0.0892 -0.2044  0.0833
    3Eth    Hco 2353   0.592   1.870   1.615  1.0309 -0.5278 -0.5557
    3Eth    Hco 2354   0.440   1.872   1.521 -0.0638 -0.3057  0.0177
    3Eth     Ch 2355   0.545   2.046   1.483  0.0403 -0.1649  0.3238
    3Eth    Hcc 2356   0.485   2.096   1.560 -0.9292 -1.5053  0.4546
    3Eth    Hcc 2357   0.506   2.065   1.383 -1.2852  0.2016  0.8941
    3Eth    Hcc 2358   0.650   2.075   1.484 -0.4122  1.5578  2.2904
    4Eth     Ho 2359   1.253   2.551   9.512 -0.9525 -0.6664 -0.9688
    4Eth     Oh 2360   1.176   2.600   9.535 -0.0151  0.1317  0.5422
    4Eth     Co 2361   1.209   2.681   9.639  0.5680 -0.1643 -0.1319
    4Eth    Hco 2362   1.142   2.765   9.654 -0.4353 -0.9697 -0.1054
    4Eth    Hco 2363   1.310   2.723   9.634  0.7964 -0.5789  0.9239
    4Eth     Ch 2364   1.200   2.603   9.770  0.3832 -0.1574  1.0473
    4Eth    Hcc 2365   1.100   2.577   9.802  1.4653 -1.0589  3.9179
    4Eth    Hcc 2366   1.256   2.658   9.847 -0.3098  0.9079  0.8001
    4Eth    Hcc 2367   1.252   2.510   9.748 -1.3102 -0.9921  0.5407
    5Eth     Ho 2368   1.133   2.160   9.465 -3.3293  1.6717 -0.8712
    5Eth     Oh 2369   1.107   2.134   9.552  0.4507 -0.7420 -0.3449
    5Eth     Co 2370   1.120   2.242   9.641 -0.3732  0.1200  0.3285
    5Eth    Hco 2371   1.123   2.335   9.583 -0.1030 -0.2077 -0.1866
    5Eth    Hco 2372   1.211   2.252   9.699  0.1874 -2.6671 -0.0092
    5Eth     Ch 2373   1.002   2.232   9.735 -0.1115  0.1223  0.0829
    5Eth    Hcc 2374   0.911   2.208   9.681 -0.5281  0.0272  0.8194
    5Eth    Hcc 2375   0.978   2.332   9.773  0.1231  0.1740  0.0991
    5Eth    Hcc 2376   1.021   2.174   9.825  0.9901 -1.4243 -1.1398
    6Eth     Ho 2377   3.093   1.820   3.512  1.2964 -1.9811  1.7426
    6Eth     Oh 2378   3.055   1.839   3.596 -0.5279  0.1810  0.4847
    6Eth     Co 2379   2.936   1.913   3.590  0.2335 -0.1877  0.2194
    6Eth    Hco 2380   2.862   1.895   3.512  0.6078 -1.3791  0.1295
    6Eth    Hco 2381   2.967   2.016   3.574 -0.9614  0.2495  0.6220
    6Eth     Ch 2382   2.851   1.898   3.715 -0.8872  0.1805 -0.2093
    6Eth    Hcc 2383   2.764   1.964   3.713 -0.1582  1.1487 -0.6317
    6Eth    Hcc 2384   2.906   1.924   3.805 -0.4406  1.3188 -0.8049
    6Eth    Hcc 2385   2.811   1.797   3.726  0.6556 -0.4907 -0.6814
    7Eth     Ho 2386   0.707   1.290   7.604  0.0669 -0.7162 -0.5377
    7Eth     Oh 2387   0.638   1.334   7.559  0.5377  0.4844 -0.1219
    7Eth     Co 2388   0.572   1.425   7.645 -0.3004  0.0359  0.5332
    7Eth    Hco 2389   0.627   1.511   7.684 -2.5515  0.6993  2.3470
    7Eth    Hco 2390   0.550   1.374   7.739  0.8582  1.4773  1.6240
    7Eth     Ch 2391   0.443   1.471   7.581 -0.4544  0.2069 -0.4486
    7Eth    Hcc 2392   0.364   1.520   7.637 -0.9052  1.2367 -1.9584
    7Eth    Hcc 2393   0.394   1.388   7.529 -1.5928 -0.9786  2.4465
    7Eth    Hcc 2394   0.465   1.538   7.498 -0.6503 -2.6054 -2.8590
    8Eth     Ho 2395   2.758   1.126   9.558 -1.2216  0.0333 -0.0308
    8Eth     Oh 2396   2.761   1.217   9.581  0.4288 -0.1189  0.4675
    8Eth     Co 2397   2.681   1.219   9.698 -0.0882  0.7191 -0.0550
    8Eth    Hco 2398   2.737   1.172   9.780 -1.3596  1.2140  1.1132
    8Eth    Hco 2399   2.584   1.170   9.703 -0.6161  1.5971 -1.3914
    8Eth     Ch 2400   2.677   1.359   9.747  0.4974 -0.2258 -0.0091
    8Eth    Hcc 2401   2.776   1.390   9.779  0.3415  0.4882 -0.2068
    8Eth    Hcc 2402   2.621   1.377   9.839  1.1864  1.0124  0.1778
    8Eth    Hcc 2403   2.647   1.422   9.663  2.1214  1.3091  0.5403
    9Eth     Ho 2404   2.307   1.441   9.594 -1.4921 -0.9585 -1.4372
    9Eth     Oh 2405   2.272   1.503   9.655  1.2881 -0.4801 -0.2559
    9Eth     Co 2406   2.341   1.625   9.656 -1.1468 -0.0222  0.2959
    9Eth    Hco 2407   2.379   1.641   9.555  0.5609  0.8268  1.0546
    9Eth    Hco 2408   2.427   1.626   9.723  0.2286  1.2911 -1.4497
    9Eth     Ch 2409   2.240   1.730   9.689 -0.3386  0.2328 -0.4697
    9Eth    Hcc 2410   2.141   1.715   9.645  0.5580  0.7754 -2.7826
    9Eth    Hcc 2411   2.270   1.834   9.676  0.9227 -0.1308 -0.5585
    9Eth    Hcc 2412   2.229   1.734   9.797  0.7532  3.6327 -0.4070
   10Eth     Ho 2413   3.292   2.134   1.483  0.0228  1.1220  0.6801
   10Eth     Oh 2414   3.238   2.121   1.559 -0.4245  0.0478  0.1927
   10Eth     Co 2415   3.149   2.020   1.521 -0.1767  0.3876  0.7142
   10Eth    Hco 2416   3.192   1.926   1.555  2.3152  1.2413  0.0116
   10Eth    Hco 2417   3.144   2.015   1.412 -0.5034  1.0686  0.6964
   10Eth     Ch 2418   3.023   2.027   1.598 -0.0388  0.2034  0.9093
   10Eth    Hcc 2419   3.041   2.016   1.705  1.1346 -0.9891  0.6037
   10Eth    Hcc 2420   2.954   1.951   1.564 -0.6858 -0.5846  3.8764
   10Eth    Hcc 2421   2.978   2.124   1.579 -0.4231 -0.4520 -1.6917
   11Eth     Ho 2422   2.289   1.527   2.393  0.7467 -0.1564  0.5083
   11Eth     Oh 2423   2.243   1.486   2.464  0.0987 -0.0549  0.1526
   11Eth     Co 2424   2.342   1.409   2.522 -0.9907 -0.0721 -0.3142
   11Eth    Hco 2425   2.426   1.473   2.551 -0.9133 -0.6326  0.6993
   11Eth    Hco 2426   2.380   1.335   2.451 -1.7089  0.0073 -0.7815
   11Eth     Ch 2427   2.281   1.333   2.643 -0.4265  1.3645  0.5971
   11Eth    Hcc 2428   2.358   1.263   2.678 -0.6886  0.5375 -0.4363
   11Eth    Hcc 2429   2.197   1.270   2.612 -0.1298  0.6099  1.2888
   11Eth    Hcc 2430   2.269   1.400   2.728  0.1757  0.3582  1.4817
   12Eth     Ho 2431   0.912   2.995   6.015 -1.7819  1.8615  0.0337
   12Eth     Oh 2432   0.874   2.958   5.937  0.0711 -0.1636  0.0222
   12Eth     Co 2433   0.736   2.934   5.966 -0.4637 -0.8114  0.3393
   12Eth    Hco 2434   0.709   3.017   6.032 -0.6120 -1.0786  0.6169
   12Eth    Hco 2435   0.721   2.849   6.033  2.2486 -1.0395  0.7565
   12Eth     Ch 2436   0.663   2.930   5.835  0.3634  0.6511  0.9568
   12Eth    Hcc 2437   0.669   3.028   5.789  0.1092 -0.0691 -0.6185
   12Eth    Hcc 2438   0.556   2.916   5.850 -0.1466  1.1416 -2.0528
   12Eth    Hcc 2439   0.698   2.856   5.763 -1.3378  0.4817  0.2884
   13Eth     Ho 2440   1.404   0.192   6.410 -1.6054 -1.9214  2.5574
   13Eth     Oh 2441   1.438   0.239   6.484  0.1608  0.3305  0.3746
   13Eth     Co 2442   1.345   0.344   6.515 -0.3766 -0.0110  0.1652
   13Eth    Hco 2443   1.258   0.296   6.561 -0.6673  1.2929  1.0014
   13Eth    Hco 2444   1.308   0.401   6.430 -0.7480  1.1335  1.0813
   13Eth     Ch 2445   1.411   0.444   6.609 -0.3472  0.7274  0.0369
   13Eth    Hcc 2446   1.347   0.524   6.644  0.2833  0.6393  1.4075
   13Eth    Hcc 2447   1.500   0.486   6.562  1.0681 -1.9996  0.1445
   13Eth    Hcc 2448   1.444   0.394   6.700 -1.3400 -2.9083 -1.4979
   14Eth     Ho 2449   0.651   0.190   4.347 -0.2816 -1.9951 -2.3336
   14Eth     Oh 2450   0.558   0.185   4.340 -0.6122  0.1018 -0.0386
   14Eth     Co 2451   0.527   0.306   4.276  0.6452 -0.1005 -0.1478
   14Eth    Hco 2452   0.579   0.290   4.182  0.3718 -1.5978 -0.0607
   14Eth    Hco 2453   0.562   0.392   4.333 -0.8471 -0.8992  2.0454
   14Eth     Ch 2454   0.382   0.332   4.255 -0.1740 -0.7127  0.4120
   14Eth    Hcc 2455   0.381   0.426   4.200  1.3252  0.0150  1.5859
   14Eth    Hcc 2456   0.317   0.353   4.340  0.4805 -0.6330  0.8922
   14Eth    Hcc 2457   0.330   0.270   4.183 -0.6748  0.1804 -0.0056
   15Eth     Ho 2458   0.752   2.605   2.711 -0.7321  1.2028  1.4011
   15Eth     Oh 2459   0.760   2.678   2.652 -0.8871  0.1507  0.0471
   15Eth     Co 2460   0.701   2.630   2.535  0.8281 -0.0836 -0.0974
   15Eth    Hco 2461   0.613   2.576   2.569  0.1636 -0.6864 -2.6959
   15Eth    Hco 2462   0.771   2.555   2.498  1.3293 -0.1279  0.9058
   15Eth     Ch 2463   0.686   2.752   2.442 -0.2817 -0.2459  0.2087
   15Eth    Hcc 2464   0.767   2.823   2.457 -0.6494 -0.0682  1.4355
   15Eth    Hcc 2465   0.599   2.809   2.474  0.0473 -0.3897  1.4239
   15Eth    Hcc 2466   0.685   2.717   2.339  0.2210 -0.1607  0.1726
   16Eth     Ho 2467   1.737   0.325   9.762 -0.2747  0.3999 -0.4589
   16Eth     Oh 2468   1.787   0.246   9.758 -0.0089  0.5370  0.0462
   16Eth     Co 2469   1.906   0.277   9.825  0.6119  0.5182 -0.2302
   16Eth    Hco 2470   1.877   0.319   9.922  0.1738 -1.6296  0.6096
   16Eth    Hco 2471   1.973   0.350   9.781  1.1623  0.3526  0.3097
   16Eth     Ch 2472   1.986   0.148   9.851  0.1205 -0.2549  0.2954
   16Eth    Hcc 2473   1.923   0.064   9.882 -2.3225  1.3362 -0.2247
   16Eth    Hcc 2474   2.064   0.155   9.927 -1.0846  0.0789  1.5300
   16Eth    Hcc 2475   2.035   0.113   9.761  0.1927  0.3407  0.0999
   17Eth     Ho 2476   1.910   2.188   7.136  2.5685  0.6522 -2.3293
   17Eth     Oh 2477   1.857   2.130   7.084  0.6469  0.0122  0.2610
   17Eth     Co 2478   1.762   2.079   7.172 -0.4549 -0.2646  0.3251
   17Eth    Hco 2479   1.682   2.129   7.225 -2.2679 -1.6720 -1.0434
   17Eth    Hco 2480   1.815   2.049   7.263  0.1238 -0.5154 -0.0896
   17Eth     Ch 2481   1.691   1.952   7.114  0.0890 -0.0647 -0.0750
   17Eth    Hcc 2482   1.642   1.899   7.195  0.4310  0.6905  0.6324
   17Eth    Hcc 2483   1.759   1.883   7.064 -0.5440  0.3640 -1.5735
   17Eth    Hcc 2484   1.612   1.980   7.043 -0.4009 -1.5867 -0.1475
   18Eth     Ho 2485   1.805   3.417   4.258 -0.0024  0.7483 -0.1643
   18Eth     Oh 2486   1.796   3.382   4.345 -0.0640  0.7130 -0.1856
   18Eth     Co 2487   1.841   3.490   4.419 -0.1844  0.3838 -0.2448
   18Eth    Hco 2488   1.781   3.577   4.391  0.8697  1.1279 -0.2439
   18Eth    Hco 2489   1.945   3.517   4.399 -0.6191  1.4356 -1.1967
   18Eth     Ch 2490   1.826   3.460   4.568  0.1359  0.0893 -0.0836
   18Eth    Hcc 2491   1.719   3.442   4.576 -0.0343  1.2430  0.3589
   18Eth    Hcc 2492   1.845   3.539   4.641 -1.3444  0.4092 -0.0371
   18Eth    Hcc 2493   1.880   3.369   4.591 -1.1868 -0.5415  0.6018
   19Eth     Ho 2494   1.321   0.350   7.682 -1.1758  3.2687  1.4619
   19Eth     Oh 2495   1.233   0.346   7.650 -0.6526 -0.4155  0.2730
   19Eth     Co 2496   1.165   0.269   7.753  0.1330  1.0201 -0.3020
   19Eth    Hco 2497   1.191   0.323   7.844 -1.5906 -0.7732  1.3051
   19Eth    Hco 2498   1.215   0.173   7.757  3.0993  2.3846 -2.6531
   19Eth     Ch 2499   1.010   0.257   7.744  0.8393 -0.3143  0.7493
   19Eth    Hcc 2500   0.968   0.190   7.819  0.5944 -3.2622 -1.8907
   19Eth    Hcc 2501   0.980   0.219   7.646  3.8652  0.7957 -0.6825
   19Eth    Hcc 2502   0.961   0.353   7.760 -2.1323 -1.9367  1.6178
   20Eth     Ho 2503   0.597   1.998   8.397  2.5825  0.7454 -0.8759
   20Eth     Oh 2504   0.595   1.921   8.342 -0.6045 -0.0853  0.3440
   20Eth     Co 2505   0.535   1.957   8.220  0.2400 -0.0020 -0.0402
   20Eth    Hco 2506   0.559   2.062   8.199  3.7088 -1.1784 -2.3071
   20Eth    Hco 2507   0.427   1.960   8.233  0.2170 -2.6897  0.6032
   20Eth     Ch 2508   0.564   1.870   8.090  0.1276  0.2664  0.0410
   20Eth    Hcc 2509   0.553   1.761   8.091 -0.0035  0.2846  1.0142
   20Eth    Hcc 2510   0.666   1.897   8.063 -1.0085  2.1030 -2.7177
   20Eth    Hcc 2511   0.523   1.919   8.002  0.7793 -1.6179 -1.3562
   21Eth     Ho 2512   0.824   1.072  10.010 -1.0701  1.5049 -0.2008
   21Eth     Oh 2513   0.778   1.036   9.936  0.2524  0.3237 -0.4790
   21Eth     Co 2514   0.683   0.932   9.971 -0.1812  0.4392 -0.4013
   21Eth    Hco 2515   0.620   0.921   9.882 -0.3850  2.1757 -0.4981
   21Eth    Hco 2516   0.611   0.959  10.048  0.1678 -0.4456  0.2324
   21Eth     Ch 2517   0.759   0.806  10.006 -0.1132  0.1737  0.8088
   21Eth    Hcc 2518   0.830   0.827  10.087  1.7043  0.3485 -0.7902
   21Eth    Hcc 2519   0.827   0.780   9.925 -0.7860  2.4440 -0.5178
   21Eth    Hcc 2520   0.693   0.725  10.039  0.1900 -1.5202 -2.5603
   22Eth     Ho 2521   3.311   1.869   7.163 -0.6889 -2.1084 -1.1159
   22Eth     Oh 2522   3.343   1.894   7.078  0.2858 -0.2077 -0.2316
   22Eth     Co 2523   3.326   2.036   7.068  0.5199 -0.4580 -0.1358
   22Eth    Hco 2524   3.380   2.076   7.154  0.6175 -0.1193 -0.3550
   22Eth    Hco 2525   3.221   2.058   7.086  0.5859 -0.1585 -0.1097
   22Eth     Ch 2526   3.367   2.094   6.933  0.6113 -0.5684 -0.0520
   22Eth    Hcc 2527   3.340   2.199   6.926 -0.3578 -0.6808  1.6717
   22Eth    Hcc 2528   3.311   2.048   6.852 -0.3451  1.7164 -0.6961
   22Eth    Hcc 2529   3.473   2.076   6.913  0.2134 -2.6680 -0.3632
   23Eth     Ho 2530   1.233   0.802   5.357  1.0794  1.5911 -0.2086
   23Eth     Oh 2531   1.300   0.738   5.374 -0.1867  0.2498 -0.2040
   23Eth     Co 2532   1.347   0.744   5.510  1.4226 -0.1723 -0.1450
   23Eth    Hco 2533   1.274   0.708   5.582 -0.6947  0.0522 -2.1381
   23Eth    Hco 2534   1.368   0.848   5.534  0.5436  0.7486 -3.1854
   23Eth     Ch 2535   1.475   0.655   5.518  0.9159  0.2834 -0.3708
   23Eth    Hcc 2536   1.550   0.686   5.445  0.4692 -2.5593 -2.1380
   23Eth    Hcc 2537   1.459   0.550   5.495  0.7249  0.9070 -3.2835
   23Eth    Hcc 2538   1.524   0.681   5.612  0.1421  1.9145 -0.3843
   24Eth     Ho 2539   0.186   3.231   7.139 -1.4096  1.2722 -1.6102
   24Eth     Oh 2540   0.139   3.151   7.126 -0.1920  0.2599 -0.0042
   24Eth     Co 2541   0.215   3.084   7.030  0.4427 -0.3921 -0.0310
   24Eth    Hco 2542   0.200   3.126   6.931 -2.1913 -1.9283 -0.3350
   24Eth    Hco 2543   0.167   2.987   7.024 -0.4000  0.0183  0.0896
   24Eth     Ch 2544   0.364   3.084   7.074 -0.9417  0.2748  0.2539
   24Eth    Hcc 2545   0.423   3.011   7.019  0.1645  0.4408  1.1963
   24Eth    Hcc 2546   0.369   3.070   7.182  2.1308  2.5260  0.4839
   24Eth    Hcc 2547   0.420   3.176   7.054 -2.1830  1.2392  1.1154
   25Eth     Ho 2548   2.536   1.779   5.691 -1.9141  0.6427 -0.7945
   25Eth     Oh 2549   2.530   1.801   5.782  0.1136 -0.5729 -0.3313
   25Eth     Co 2550   2.430   1.900   5.807 -0.7680 -0.0713  0.7845
   25Eth    Hco 2551   2.332   1.856   5.787 -0.8306  1.8431 -3.6312
   25Eth    Hco 2552   2.438   1.986   5.741 -3.5620 -1.5503 -1.6114
   25Eth     Ch 2553   2.447   1.948   5.947  0.1493 -0.0730  0.0286
   25Eth    Hcc 2554   2.372   2.026   5.959 -1.7997 -1.8245 -0.4752
   25Eth    Hcc 2555   2.549   1.983   5.963  1.1877 -2.7546 -0.3934
   25Eth    Hcc 2556   2.424   1.873   6.023 -1.2023 -0.1684 -0.4743
   26Eth     Ho 2557   1.288   1.978  10.037  1.9294 -0.2116  0.8669
   26Eth     Oh 2558   1.317   2.006   9.952 -0.0757 -0.4879  0.0544
   26Eth     Co 2559   1.460   2.032   9.956  0.3336  0.1585  0.2110
   26Eth    Hco 2560   1.514   1.937   9.950 -0.9392 -0.5879  0.2789
   26Eth    Hco 2561   1.475   2.073  10.056  1.6690  1.7886 -0.6491
   26Eth     Ch 2562   1.503   2.123   9.847 -0.2901 -0.3489 -0.3042
   26Eth    Hcc 2563   1.612   2.129   9.839 -0.4711  0.1867 -2.5457
   26Eth    Hcc 2564   1.447   2.216   9.854 -0.3544 -0.4462  0.5317
   26Eth    Hcc 2565   1.487   2.072   9.752  2.2767 -0.7852 -0.5378
   27Eth     Ho 2566   0.231   0.217   1.423 -0.5386 -3.0501 -2.0600
   27Eth     Oh 2567   0.190   0.185   1.502  0.2962  0.1396 -0.2418
   27Eth     Co 2568   0.083   0.260   1.544  1.4472  0.1651  0.0095
   27Eth    Hco 2569   0.022   0.293   1.459 -0.1504 -1.0001  0.6919
   27Eth    Hco 2570   0.123   0.340   1.606  1.5054 -0.2094  0.4550
   27Eth     Ch 2571  -0.017   0.179   1.631 -0.8647 -0.4956  0.2823
   27Eth    Hcc 2572  -0.067   0.098   1.577  0.3050  0.4685 -2.3120
   27Eth    Hcc 2573  -0.101   0.240   1.665 -0.4933  0.1476  0.0537
   27Eth    Hcc 2574   0.034   0.141   1.719 -0.8141  2.2944  1.5082
   28Eth     Ho 2575   0.807   0.306   6.277 -0.1580  1.3798 -0.1973
   28Eth     Oh 2576   0.863   0.284   6.205 -0.4416 -0.0610  0.0170
   28Eth     Co 2577   0.965   0.386   6.178  0.0545 -0.1751 -0.2062
   28Eth    Hco 2578   1.021   0.383   6.271  1.4881 -0.5825 -1.0658
   28Eth    Hco 2579   0.915   0.481   6.156  0.9412  0.4803  0.5322
   28Eth     Ch 2580   1.052   0.346   6.063 -0.1295  0.0421 -0.3185
   28Eth    Hcc 2581   1.088   0.243   6.057 -0.4405 -0.0623 -0.3799
   28Eth    Hcc 2582   1.139   0.412   6.059  1.7738 -2.3152  0.6045
   28Eth    Hcc 2583   1.004   0.352   5.965 -1.0561  0.3184  0.1555
   29Eth     Ho 2584   1.160   2.391   1.966 -0.2961 -0.0263  0.1570
   29Eth     Oh 2585   1.185   2.303   1.989 -0.4890 -0.0546  0.2621
   29Eth     Co 2586   1.255   2.242   1.883  0.2006  0.3354  0.9080
   29Eth    Hco 2587   1.346   2.293   1.852  0.0807  2.4435  3.7679
   29Eth    Hco 2588   1.187   2.260   1.800  0.1981 -1.3757  0.5084
   29Eth     Ch 2589   1.272   2.089   1.901  0.2709 -0.0478  0.1356
   29Eth    Hcc 2590   1.261   2.074   2.008  1.1229  0.7198  0.3424
   29Eth    Hcc 2591   1.378   2.064   1.887 -0.4448 -2.8748 -0.5009
   29Eth    Hcc 2592   1.203   2.025   1.847  3.7672 -2.7396 -1.3420
   30Eth     Ho 2593   0.739   2.211   2.139  0.3811 -0.2677 -0.1471
   30Eth     Oh 2594   0.718   2.156   2.213  0.0210 -0.0053 -0.0525
   30Eth     Co 2595   0.598   2.200   2.269 -0.4441 -0.4521  0.7380
   30Eth    Hco 2596   0.528   2.206   2.186  1.4930 -0.2998 -0.9307
   30Eth    Hco 2597   0.600   2.299   2.316 -1.3879  0.0326 -0.2283
   30Eth     Ch 2598   0.549   2.105   2.381  0.5981  0.0336 -0.9439
   30Eth    Hcc 2599   0.454   2.137   2.423  1.1587  0.2449  0.1880
   30Eth    Hcc 2600   0.618   2.105   2.465  0.9733  2.6337 -1.1847
   30Eth    Hcc 2601   0.533   2.003   2.347  1.9436 -0.3991 -0.3075
   31Eth     Ho 2602   2.547   2.891   4.385 -2.2216  2.3549  0.7240
   31Eth     Oh 2603   2.547   2.884   4.478 -0.5255 -0.4293  0.5714
   31Eth     Co 2604   2.528   2.744   4.512  0.2362 -0.3942 -0.5636
   31Eth    Hco 2605   2.486   2.692   4.426 -1.8634 -0.7164  0.5923
   31Eth    Hco 2606   2.450   2.730   4.588  0.9861 -1.0520  0.0979
   31Eth     Ch 2607   2.662   2.702   4.570  0.3582  0.4284 -0.4442
   31Eth    Hcc 2608   2.657   2.595   4.594  0.1067 -0.0271 -2.4265
   31Eth    Hcc 2609   2.694   2.751   4.662  1.1045  1.2702 -1.1428
   31Eth    Hcc 2610   2.742   2.730   4.501 -1.1087 -1.0359 -2.8063
   32Eth     Ho 2611   0.326   2.832   1.689  2.6635 -0.6043 -1.2702
   32Eth     Oh 2612   0.277   2.812   1.612  0.4903  0.4613 -0.2331
   32Eth     Co 2613   0.144   2.869   1.632 -0.5265 -0.2426 -0.1235
   32Eth    Hco 2614   0.146   2.973   1.598 -0.0892 -0.2493 -0.1199
   32Eth    Hco 2615   0.141   2.874   1.741 -0.8725  1.5738 -0.1958
   32Eth     Ch 2616   0.049   2.798   1.542 -1.0280  0.3279  0.0723
   32Eth    Hcc 2617  -0.055   2.805   1.574 -1.1914 -0.3302 -0.2981
   32Eth    Hcc 2618   0.063   2.691   1.528 -0.5878  0.4945 -0.7913
   32Eth    Hcc 2619   0.048   2.841   1.442  3.6702 -1.3240 -0.8237
   33Eth     Ho 2620   2.446   0.363   5.947 -0.8545 -0.0524  0.2219
   33Eth     Oh 2621   2.488   0.279   5.941 -0.1023  0.3327  0.1484
   33Eth     Co 2622   2.456   0.227   5.811  0.6692 -0.2180  0.3010
   33Eth    Hco 2623   2.452   0.315   5.747  0.3186 -0.3666  0.1214
   33Eth    Hco 2624   2.354   0.190   5.817 -0.0420  2.0056  3.1218
   33Eth     Ch 2625   2.558   0.120   5.773  0.2039  0.2370 -0.0542
   33Eth    Hcc 2626   2.649   0.172   5.742  0.4192  0.0220  0.2156
   33Eth    Hcc 2627   2.520   0.063   5.687  1.7053  0.1266 -0.6673
   33Eth    Hcc 2628   2.571   0.056   5.860 -1.0717 -1.7578 -1.3007
   34Eth     Ho 2629   3.301   0.728   8.592 -0.3625  0.2565  1.6289
   34Eth     Oh 2630   3.325   0.637   8.595  0.3526  0.3869  0.1179
   34Eth     Co 2631   3.247   0.594   8.711 -0.7981  0.3094  0.1091
   34Eth    Hco 2632   3.278   0.670   8.782 -1.9603  0.0442  0.9069
   34Eth    Hco 2633   3.273   0.499   8.758  0.7862  0.7486  0.1492
   34Eth     Ch 2634   3.096   0.590   8.685 -0.3821  0.3758  0.2175
   34Eth    Hcc 2635   3.069   0.520   8.606  2.6294  0.0715 -0.6084
   34Eth    Hcc 2636   3.061   0.681   8.636 -1.5500  0.0611  0.4497
   34Eth    Hcc 2637   3.036   0.572   8.774  2.3695 -0.0050  2.0456
   35Eth     Ho 2638   2.901   2.280   9.702  1.5227 -1.5905 -1.9773
   35Eth     Oh 2639   2.874   2.200   9.742 -0.2269  0.1088  0.3857
   35Eth     Co 2640   2.734   2.201   9.725 -0.3383  0.4527  0.3237
   35Eth    Hco 2641   2.697   2.109   9.769  1.0326  0.0467  0.6666
   35Eth    Hco 2642   2.700   2.203   9.622 -0.1495  1.7005  0.2806
   35Eth     Ch 2643   2.658   2.317   9.783 -0.0753 -0.3153  0.0846
   35Eth    Hcc 2644   2.558   2.296   9.744 -0.2426 -2.5037  1.6149
   35Eth    Hcc 2645   2.682   2.410   9.732 -0.2789 -0.7152 -0.7513
   35Eth    Hcc 2646   2.658   2.318   9.892 -1.2649 -0.7498  0.1046
   36Eth     Ho 2647   1.130   1.426   8.386 -0.3654 -0.0812  3.7224
   36Eth     Oh 2648   1.173   1.342   8.388 -0.0574 -0.0336  1.0755
   36Eth     Co 2649   1.058   1.249   8.371 -0.9278  0.2294 -1.3124
   36Eth    Hco 2650   1.031   1.249   8.265 -2.7640  0.1178 -0.8588
   36Eth    Hco 2651   0.969   1.286   8.421 -0.7344 -1.6647  0.5256
   36Eth     Ch 2652   1.102   1.111   8.415 -0.0128  0.5970 -0.1588
   36Eth    Hcc 2653   1.114   1.104   8.523 -0.1843  2.1011 -0.0234
   36Eth    Hcc 2654   1.191   1.071   8.368  0.6729  0.2430  1.4127
   36Eth    Hcc 2655   1.039   1.030   8.380  2.1335 -0.6331 -1.2325
   37Eth     Ho 2656   2.745   3.045   9.775  2.6203 -1.1835  0.6529
   37Eth     Oh 2657   2.705   2.961   9.761  0.5488 -0.0092 -0.7381
   37Eth     Co 2658   2.775   2.879   9.852 -0.2958  0.4539  0.2536
   37Eth    Hco 2659   2.730   2.900   9.949 -1.5258 -2.7400  0.4446
   37Eth    Hco 2660   2.879   2.909   9.837  0.1294 -1.2405 -0.3333
   37Eth     Ch 2661   2.758   2.729   9.823 -0.1231 -0.0737  0.2924
   37Eth    Hcc 2662   2.799   2.685   9.732 -1.4743 -2.1254  0.6130
   37Eth    Hcc 2663   2.652   2.702   9.829 -0.2104 -0.3929 -1.9645
   37Eth    Hcc 2664   2.796   2.662   9.901 -2.5901 -0.9542  0.7970
   38Eth     Ho 2665   0.547   1.120   4.545 -0.6353  0.7864  0.1512
   38Eth     Oh 2666   0.459   1.089   4.557 -0.2335 -0.2787  0.4011
   38Eth     Co 2667   0.452   0.957   4.495 -0.1246 -0.0395  0.0053
   38Eth    Hco 2668   0.412   0.887   4.569 -1.9534 -1.3922 -2.1848
   38Eth    Hco 2669   0.548   0.920   4.460  0.0085 -0.3011  0.6408
   38Eth     Ch 2670   0.354   0.935   4.385 -0.2233 -0.1617  0.4096
   38Eth    Hcc 2671   0.258   0.913   4.433 -0.4361  1.0674  0.5742
   38Eth    Hcc 2672   0.377   0.841   4.336 -1.9900 -0.2910 -0.2059
   38Eth    Hcc 2673   0.332   1.011   4.311 -0.6943 -1.0923 -0.4174
   39Eth     Ho 2674   1.969   2.752   3.156  1.6644 -2.0080  2.7576
   39Eth     Oh 2675   1.907   2.795   3.213 -0.1162  0.0144 -0.5280
   39Eth     Co 2676   1.982   2.861   3.313  0.2096 -0.2518 -0.2922
   39Eth    Hco 2677   2.082   2.897   3.292  1.0585 -2.9048 -1.0571
   39Eth    Hco 2678   1.997   2.777   3.382 -0.2681 -0.9202 -0.9959
   39Eth     Ch 2679   1.894   2.965   3.386 -0.2113 -0.3591  0.5399
   39Eth    Hcc 2680   1.856   3.053   3.334 -2.9150 -1.3542  0.7449
   39Eth    Hcc 2681   1.933   2.988   3.485  2.0845 -0.8350 -0.2255
   39Eth    Hcc 2682   1.804   2.910   3.412 -0.6910  0.3905  0.4943
   40Eth     Ho 2683   2.765   2.374   5.980  2.3197 -0.1986 -0.9093
   40Eth     Oh 2684   2.736   2.311   5.916  0.7343 -0.3296 -0.0904
   40Eth     Co 2685   2.852   2.257   5.859 -0.5791  1.3129  0.1551
   40Eth    Hco 2686   2.933   2.246   5.931 -0.2223  1.9655 -0.1392
   40Eth    Hco 2687   2.878   2.341   5.794  0.3731  0.7851 -0.1567
   40Eth     Ch 2688   2.832   2.124   5.782 -0.1675 -0.7337 -0.0689
   40Eth    Hcc 2689   2.912   2.110   5.710 -0.9534 -0.2125 -1.0444
   40Eth    Hcc 2690   2.740   2.129   5.724  0.4710 -4.1578 -1.4680
   40Eth    Hcc 2691   2.821   2.041   5.851  0.2332  0.1663  1.1150
   41Eth     Ho 2692   0.862   0.332   3.890  1.3008  1.0909  0.6002
   41Eth     Oh 2693   0.797   0.394   3.917  0.5058  0.6788 -0.3435
   41Eth     Co 2694   0.677   0.342   3.874  0.2396 -0.9029 -0.0406
   41Eth    Hco 2695   0.661   0.252   3.933 -1.6959  0.1846  1.1574
   41Eth    Hco 2696   0.687   0.303   3.772  2.5076  1.2569 -0.6889
   41Eth     Ch 2697   0.564   0.449   3.903  0.4093 -0.2543 -0.6571
   41Eth    Hcc 2698   0.578   0.508   3.994 -1.3274 -0.0200 -0.5389
   41Eth    Hcc 2699   0.466   0.402   3.901  0.2653  0.0264 -0.3221
   41Eth    Hcc 2700   0.574   0.521   3.821 -0.2050  0.3534 -0.1970
   42Eth     Ho 2701   1.265   1.329   3.242 -0.5281  0.0083  0.4552
   42Eth     Oh 2702   1.338   1.305   3.188 -0.3984  0.0021  0.6305
   42Eth     Co 2703   1.444   1.393   3.241  0.5206  0.2570 -0.4390
   42Eth    Hco 2704   1.519   1.352   3.308  0.5707  2.0571  0.6488
   42Eth    Hco 2705   1.387   1.469   3.295  0.9204  1.0143 -1.0831
   42Eth     Ch 2706   1.510   1.458   3.121  0.1239  0.3236 -0.6429
   42Eth    Hcc 2707   1.438   1.515   3.062 -1.6865 -1.4797 -0.2223
   42Eth    Hcc 2708   1.548   1.385   3.049 -0.4198  0.6366 -1.2436
   42Eth    Hcc 2709   1.586   1.531   3.149 -1.3200  1.1889  1.0511
   43Eth     Ho 2710   2.805   3.216   3.281 -0.5606 -1.0850 -0.2866
   43Eth     Oh 2711   2.772   3.293   3.239  0.1212 -0.5794  0.0849
   43Eth     Co 2712   2.757   3.392   3.341 -0.2260  0.2251  0.0841
   43Eth    Hco 2713   2.848   3.389   3.401 -1.4996 -1.6121  2.0130
   43Eth    Hco 2714   2.670   3.377   3.406  0.7200 -1.9485  0.8726
   43Eth     Ch 2715   2.715   3.522   3.270  0.2738  1.0510  0.0571
   43Eth    Hcc 2716   2.777   3.554   3.187  0.5934  0.3730  0.0318
   43Eth    Hcc 2717   2.719   3.607   3.339 -1.6949 -0.0628  1.6323
   43Eth    Hcc 2718   2.614   3.516   3.228  0.9066 -1.8905 -1.1770
   44Eth     Ho 2719   0.171   0.181   6.022  0.8284 -0.0138 -1.2837
   44Eth     Oh 2720   0.105   0.128   5.982 -0.2013  0.7015 -0.5852
   44Eth     Co 2721   0.028   0.212   5.904  0.6461  0.2157  0.4834
   44Eth    Hco 2722   0.096   0.223   5.819 -0.1547 -1.1488 -0.3709
   44Eth    Hco 2723   0.027   0.308   5.954 -1.8006  1.2351 -1.4474
   44Eth     Ch 2724  -0.105   0.136   5.880  0.4165 -0.3628  0.7384
   44Eth    Hcc 2725  -0.094   0.038   5.834 -1.8855  0.0056 -0.7180
   44Eth    Hcc 2726  -0.163   0.203   5.816  3.2357  2.2489  0.8036
   44Eth    Hcc 2727  -0.159   0.126   5.974 -1.0101  4.1747  0.5179
   45Eth     Ho 2728   1.236   2.497   3.072 -1.4761  0.4419 -0.1135
   45Eth     Oh 2729   1.219   2.479   3.162  0.2540 -0.2297  0.0973
   45Eth     Co 2730   1.084   2.498   3.184  0.0261 -0.1893  0.5917
   45Eth    Hco 2731   1.030   2.404   3.181  1.7477 -1.1645 -0.4770
   45Eth    Hco 2732   1.029   2.556   3.110  0.2662 -1.6205 -0.7212
   45Eth     Ch 2733   1.066   2.589   3.307 -0.3222  0.0449  0.5324
   45Eth    Hcc 2734   0.957   2.595   3.309 -0.1968  2.6663  0.5936
   45Eth    Hcc 2735   1.099   2.692   3.293  1.6396 -0.8143 -1.4692
   45Eth    Hcc 2736   1.111   2.547   3.397 -1.3485 -1.4905  0.3525
   46Eth     Ho 2737   0.840   2.546   9.733 -0.6854  0.4476 -0.5614
   46Eth     Oh 2738   0.807   2.574   9.817 -0.0932  0.1404 -0.2227
   46Eth     Co 2739   0.678   2.529   9.831 -0.2178 -0.1030 -0.1840
   46Eth    Hco 2740   0.678   2.423   9.807  2.8333 -0.3849  0.9450
   46Eth    Hco 2741   0.616   2.570   9.751 -1.1999 -0.6203  0.2946
   46Eth     Ch 2742   0.616   2.540   9.972  0.5210 -0.3704  0.2936
   46Eth    Hcc 2743   0.608   2.648   9.986 -0.8272 -0.1628 -1.9407
   46Eth    Hcc 2744   0.668   2.491  10.055  2.0668 -1.8287 -1.4959
   46Eth    Hcc 2745   0.513   2.509   9.985 -0.1639  1.9977  0.9270
   47Eth     Ho 2746   2.379   0.592   7.746  1.9461  1.3180  1.6345
   47Eth     Oh 2747   2.399   0.511   7.788 -0.0491 -0.1137 -0.1102
   47Eth     Co 2748   2.330   0.396   7.746 -0.3520  0.2155  0.1011
   47Eth    Hco 2749   2.384   0.347   7.665  1.1010 -0.1039  1.2487
   47Eth    Hco 2750   2.232   0.420   7.704 -0.9919  0.2329  1.5752
   47Eth     Ch 2751   2.316   0.307   7.863 -0.3014 -0.4071 -0.7588
   47Eth    Hcc 2752   2.246   0.347   7.936 -0.1306 -2.0324  0.3149
   47Eth    Hcc 2753   2.405   0.284   7.921 -0.7703  0.0426  0.1433
   47Eth    Hcc 2754   2.267   0.211   7.846 -2.5891  0.5406  0.3080
   48Eth     Ho 2755   1.014   3.074   6.250 -2.8625  1.1454 -0.5021
   48Eth     Oh 2756   1.029   3.052   6.160 -0.1445 -0.4399  0.2747
   48Eth     Co 2757   1.166   3.059   6.136 -0.0394 -0.2193  0.4627
   48Eth    Hco 2758   1.223   2.997   6.206 -0.4506  0.8599  1.7713
   48Eth    Hco 2759   1.191   3.164   6.147 -0.5363 -0.2340  1.8212
   48Eth     Ch 2760   1.199   3.002   5.996  0.1283 -0.3581  0.5672
   48Eth    Hcc 2761   1.307   3.002   5.982 -0.0573  0.2664 -0.9528
   48Eth    Hcc 2762   1.157   3.071   5.922 -0.8064 -1.8820 -0.3500
   48Eth    Hcc 2763   1.158   2.902   5.982  0.1132 -0.1518 -0.9209
   49Eth     Ho 2764   0.103   3.371   9.670 -0.7640  0.0501  0.2670
   49Eth     Oh 2765   0.129   3.358   9.580  0.0126  0.0366  0.4884
   49Eth     Co 2766   0.031   3.401   9.493  0.1304  0.6498  0.2104
   49Eth    Hco 2767   0.060   3.386   9.390 -1.2740  0.4848 -0.1699
   49Eth    Hco 2768   0.009   3.508   9.500 -0.4568  0.5416  0.0455
   49Eth     Ch 2769  -0.099   3.324   9.524  0.5935 -0.8699 -0.4131
   49Eth    Hcc 2770  -0.180   3.359   9.460  0.3311 -0.6309  0.0525
   49Eth    Hcc 2771  -0.129   3.319   9.628  1.8988 -3.1139 -0.1107
   49Eth    Hcc 2772  -0.098   3.220   9.492  3.0681 -1.0159  0.0124
   50Eth     Ho 2773   3.045   1.636   3.345  1.0827  1.7667  0.5957
   50Eth     Oh 2774   2.973   1.675   3.299  0.5115 -0.1190 -0.1642
   50Eth     Co 2775   2.859   1.625   3.372  0.2618 -0.0019 -0.4267
   50Eth    Hco 2776   2.868   1.642   3.479  3.0979 -0.3204 -0.5813
   50Eth    Hco 2777   2.851   1.516   3.370  0.1082  0.0054 -0.1554
   50Eth     Ch 2778   2.730   1.673   3.305  0.1772  0.5176  0.1515
   50Eth    Hcc 2779   2.725   1.781   3.318  1.5730  0.6008  0.1054
   50Eth    Hcc 2780   2.640   1.621   3.338 -0.3666  1.9907  0.9917
   50Eth    Hcc 2781   2.746   1.645   3.200 -1.8337  0.7586 -0.2463
   51Eth     Ho 2782   2.556   2.044   4.801 -2.9047 -2.0649 -1.0230
   51Eth     Oh 2783   2.522   2.076   4.882  0.6867 -0.2930 -0.1350
   51Eth     Co 2784   2.401   2.140   4.860  0.0367 -0.3597 -0.5272
   51Eth    Hco 2785   2.342   2.065   4.807 -0.2494 -0.6844  0.2419
   51Eth    Hco 2786   2.405   2.224   4.791  0.6989  1.9607  2.2621
   51Eth     Ch 2787   2.339   2.196   4.993 -0.7969  0.5716 -0.1903
   51Eth    Hcc 2788   2.267   2.274   4.965  0.2673  1.7499  0.3290
   51Eth    Hcc 2789   2.428   2.225   5.049 -0.2128 -1.1537 -0.2035
   51Eth    Hcc 2790   2.277   2.117   5.036 -1.4426  0.4765 -1.2560
   52Eth     Ho 2791   1.954   0.725   9.066  0.5808  1.8733 -1.2051
   52Eth     Oh 2792   1.866   0.722   9.034  0.5859 -0.1441 -1.0958
   52Eth     Co 2793   1.876   0.695   8.894  0.6125  0.4545  0.1700
   52Eth    Hco 2794   1.779   0.653   8.865 -0.1643  2.1481  0.2676
   52Eth    Hco 2795   1.949   0.617   8.874 -0.0486 -0.1676  0.1421
   52Eth     Ch 2796   1.913   0.822   8.810  0.5056 -0.1499 -0.9206
   52Eth    Hcc 2797   1.893   0.813   8.703 -1.1579  0.5060 -0.6701
   52Eth    Hcc 2798   2.018   0.847   8.826  0.2965 -0.2322  0.6969
   52Eth    Hcc 2799   1.846   0.905   8.832 -1.0400 -1.9085  1.2723
   53Eth     Ho 2800   1.142   1.668   6.325  0.9509 -0.0751 -1.2295
   53Eth     Oh 2801   1.080   1.671   6.255  0.0938  0.0830 -0.4611
   53Eth     Co 2802   0.983   1.759   6.306 -0.1740 -0.2474  0.6659
   53Eth    Hco 2803   1.035   1.855   6.307  0.0845 -0.3451 -1.1714
   53Eth    Hco 2804   0.946   1.729   6.404  0.2973 -2.2939  0.2579
   53Eth     Ch 2805   0.864   1.778   6.210 -0.6510  0.2898 -0.2866
   53Eth    Hcc 2806   0.884   1.858   6.139  2.2047  1.0436  1.3031
   53Eth    Hcc 2807   0.781   1.811   6.272 -2.4783  1.2924 -3.1291
   53Eth    Hcc 2808   0.850   1.689   6.147  1.5121 -0.9524  0.9222
   54Eth     Ho 2809   0.936   2.402   6.435 -0.5730  0.2241 -0.3402
   54Eth     Oh 2810   0.997   2.419   6.366  0.0836  0.5597  0.3177
   54Eth     Co 2811   1.108   2.458   6.439 -0.3337  1.2126 -0.4564
   54Eth    Hco 2812   1.145   2.375   6.499 -0.3900  0.6452 -1.1988
   54Eth    Hco 2813   1.095   2.540   6.510  2.2573 -0.4202  2.0033
   54Eth     Ch 2814   1.218   2.513   6.348 -0.2269  0.2471 -0.1140
   54Eth    Hcc 2815   1.289   2.569   6.409  0.2014  1.7041 -1.9346
   54Eth    Hcc 2816   1.196   2.590   6.275 -2.0170 -0.4104 -0.2915
   54Eth    Hcc 2817   1.274   2.434   6.299  1.0986  1.2575 -0.2443
   55Eth     Ho 2818   0.072   0.650   9.854  0.1264 -0.2731 -0.3900
   55Eth     Oh 2819   0.149   0.626   9.806  0.6026 -0.1793  0.3265
   55Eth     Co 2820   0.223   0.741   9.786  0.2316  0.5329 -0.6629
   55Eth    Hco 2821   0.219   0.815   9.866 -1.3581  0.8009 -0.9685
   55Eth    Hco 2822   0.180   0.802   9.707 -2.2095 -0.1309  0.1282
   55Eth     Ch 2823   0.372   0.705   9.772 -0.1408  0.0075  0.3612
   55Eth    Hcc 2824   0.422   0.682   9.866  2.2393 -0.5181 -0.9905
   55Eth    Hcc 2825   0.424   0.791   9.731 -2.0423  1.0393  0.0359
   55Eth    Hcc 2826   0.391   0.618   9.709  3.6373  0.4995  0.7338
   56Eth     Ho 2827   2.939   0.560   1.679  0.2161 -0.1436  0.1325
   56Eth     Oh 2828   3.018   0.607   1.660  0.1787 -0.2341 -0.2526
   56Eth     Co 2829   3.042   0.583   1.527  0.2788 -0.1481  0.7179
   56Eth    Hco 2830   2.945   0.606   1.481  0.3057 -1.5230 -0.0231
   56Eth    Hco 2831   3.062   0.478   1.511  1.7383  0.4081 -1.1635
   56Eth     Ch 2832   3.152   0.672   1.466  0.4157 -0.2085 -0.3601
   56Eth    Hcc 2833   3.252   0.638   1.495  0.2602 -0.1872  0.2204
   56Eth    Hcc 2834   3.140   0.770   1.512 -2.8836 -0.3003 -0.9468
   56Eth    Hcc 2835   3.136   0.686   1.360 -1.2528 -0.2170 -0.1187
   57Eth     Ho 2836   1.000   0.256   9.626  0.0863  1.8438  0.0196
   57Eth     Oh 2837   0.925   0.265   9.682 -0.4195 -0.4164 -0.2269
   57Eth     Co 2838   0.956   0.364   9.776  0.3469  0.4727 -0.0400
   57Eth    Hco 2839   0.983   0.441   9.704 -0.7888  1.0938  0.1977
   57Eth    Hco 2840   1.045   0.335   9.832  0.1756  3.3921  1.8011
   57Eth     Ch 2841   0.829   0.400   9.852  0.7586 -0.6858 -0.5582
   57Eth    Hcc 2842   0.733   0.402   9.799 -0.1461 -1.8831  0.9701
   57Eth    Hcc 2843   0.835   0.498   9.898  2.6963 -1.3172  0.5696
   57Eth    Hcc 2844   0.823   0.324   9.931 -2.7670  1.9780  1.9131
   58Eth     Ho 2845   2.261   0.988   6.820  1.6732  1.3444  0.7469
   58Eth     Oh 2846   2.245   1.066   6.769  0.4537  0.1433 -0.7679
   58Eth     Co 2847   2.103   1.072   6.767  0.0185 -0.1355 -0.0998
   58Eth    Hco 2848   2.048   1.078   6.860  0.6661  1.4730  0.2045
   58Eth    Hco 2849   2.069   0.993   6.700  2.2402  0.6549 -2.2557
   58Eth     Ch 2850   2.063   1.200   6.689  0.2870 -0.1176 -0.6964
   58Eth    Hcc 2851   2.137   1.225   6.613  1.6081 -1.7333  0.0237
   58Eth    Hcc 2852   2.079   1.295   6.739 -0.8128  0.3416 -1.2048
   58Eth    Hcc 2853   1.962   1.202   6.646  1.6831  0.0541 -4.1841
   59Eth     Ho 2854   2.515   2.743   9.255 -0.4385  0.6743  0.3101
   59Eth     Oh 2855   2.453   2.721   9.188  0.2504 -0.9996  0.1877
   59Eth     Co 2856   2.463   2.582   9.181  1.3428 -0.1171 -0.5079
   59Eth    Hco 2857   2.429   2.547   9.278  0.6292  0.2759 -0.6136
   59Eth    Hco 2858   2.568   2.553   9.188  1.2870  0.3443  3.3636
   59Eth     Ch 2859   2.392   2.527   9.057 -0.4539  0.2043 -0.7493
   59Eth    Hcc 2860   2.291   2.567   9.066 -0.0798  0.8798  0.6252
   59Eth    Hcc 2861   2.388   2.418   9.063  1.2648  0.1726  0.1803
   59Eth    Hcc 2862   2.444   2.563   8.968 -3.3564  2.2269 -1.7201
   60Eth     Ho 2863   1.031   1.455   1.689 -0.1072 -0.6063  1.3541
   60Eth     Oh 2864   1.055   1.384   1.633 -0.0971  0.5882 -0.1687
   60Eth     Co 2865   0.933   1.339   1.573  0.7981  0.3900  0.3418
   60Eth    Hco 2866   0.897   1.413   1.502 -1.3693  0.2478  1.2220
   60Eth    Hco 2867   0.848   1.327   1.642  0.2681  0.5001 -0.2881
   60Eth     Ch 2868   0.970   1.201   1.519  0.9456  0.0985  0.6118
   60Eth    Hcc 2869   1.006   1.132   1.596 -2.6468 -0.1248  2.2057
   60Eth    Hcc 2870   1.049   1.206   1.444  0.4595  0.5393  0.1218
   60Eth    Hcc 2871   0.879   1.151   1.484  1.5336  1.9210 -3.9521
   61Eth     Ho 2872   1.924   1.903   1.597 -0.2764  0.8060  1.2282
   61Eth     Oh 2873   1.840   1.861   1.596  0.0366  0.2217 -0.2671
   61Eth     Co 2874   1.775   1.870   1.467 -0.9231 -0.2954  0.1709
   61Eth    Hco 2875   1.824   1.802   1.398 -0.9804 -0.1154 -0.0476
   61Eth    Hco 2876   1.783   1.974   1.434 -2.3500 -0.5210 -0.9295
   61Eth     Ch 2877   1.633   1.824   1.494 -0.0617  0.3000 -0.4006
   61Eth    Hcc 2878   1.572   1.794   1.409 -0.2182 -1.6604  0.3837
   61Eth    Hcc 2879   1.583   1.906   1.546  1.5967  1.8214 -1.0978
   61Eth    Hcc 2880   1.630   1.743   1.566 -0.0474 -0.3977 -1.1842
   62Eth     Ho 2881   1.386   0.164   7.197 -0.1507  0.2660 -0.7525
   62Eth     Oh 2882   1.415   0.252   7.216  0.7336 -0.1518 -0.1337
   62Eth     Co 2883   1.314   0.311   7.293 -0.0112 -0.0885 -0.1953
   62Eth    Hco 2884   1.290   0.249   7.380  1.2310 -1.6515 -0.9364
   62Eth    Hco 2885   1.229   0.318   7.225 -0.7945 -0.7845  0.7046
   62Eth     Ch 2886   1.379   0.440   7.342  0.6587  0.2911 -0.3885
   62Eth    Hcc 2887   1.420   0.498   7.259  0.7473  1.0768  0.1975
   62Eth    Hcc 2888   1.463   0.415   7.407 -1.2376  1.4950  2.6086
   62Eth    Hcc 2889   1.322   0.503   7.411  1.9073 -1.4927  2.3808
   63Eth     Ho 2890   2.374   1.854   6.893  0.9963 -1.1013  1.4699
   63Eth     Oh 2891   2.407   1.936   6.924 -0.1865  0.0202 -0.1521
   63Eth     Co 2892   2.446   1.900   7.055  0.5823 -0.1238  1.0542
   63Eth    Hco 2893   2.514   1.816   7.053  4.0638  2.5499  1.7215
   63Eth    Hco 2894   2.352   1.873   7.105 -0.5697  1.1826 -0.3494
   63Eth     Ch 2895   2.501   2.034   7.116  0.0943 -0.1854 -0.5336
   63Eth    Hcc 2896   2.601   2.054   7.078 -0.2138  0.2649 -1.1337
   63Eth    Hcc 2897   2.506   2.024   7.224 -1.0041  5.0709  0.1787
   63Eth    Hcc 2898   2.441   2.121   7.088 -3.5214 -2.4320 -0.0933
   64Eth     Ho 2899   3.002   0.014   4.623  0.3087 -1.6909  0.1279
   64Eth     Oh 2900   3.047  -0.001   4.541  0.5845  0.4404 -0.1211
   64Eth     Co 2901   3.030  -0.137   4.512 -0.3718  0.4135  0.5132
   64Eth    Hco 2902   2.923  -0.158   4.515 -0.6883  1.8006 -0.7290
   64Eth    Hco 2903   3.075  -0.200   4.589 -1.2752  0.3345  0.9732
   64Eth     Ch 2904   3.076  -0.177   4.365  0.8855  0.1997 -0.2116
   64Eth    Hcc 2905   3.083  -0.282   4.339 -2.3118  0.3442 -1.9181
   64Eth    Hcc 2906   3.177  -0.144   4.341  0.7887 -0.5986 -1.7723
   64Eth    Hcc 2907   3.009  -0.134   4.290 -1.2896  0.4333  1.7773
   65Eth     Ho 2908   0.977   1.849   7.826  1.6315 -0.6382 -1.9319
   65Eth     Oh 2909   0.935   1.772   7.792 -0.0918 -0.4044 -0.4036
   65Eth     Co 2910   1.025   1.718   7.702  0.0404 -0.0251 -0.8093
   65Eth    Hco 2911   1.101   1.666   7.760 -0.7406 -0.0689  0.1831
   65Eth    Hco 2912   1.078   1.795   7.647  2.3386 -1.2040 -0.3081
   65Eth     Ch 2913   0.942   1.619   7.624 -1.0131  0.5163  0.2026
   65Eth    Hcc 2914   0.870   1.559   7.679 -1.6718  2.0912  1.1118
   65Eth    Hcc 2915   1.001   1.539   7.578  0.7621  2.3467 -0.8150
   65Eth    Hcc 2916   0.880   1.655   7.542 -1.7460  1.3695  1.1128
   66Eth     Ho 2917   1.935   0.985   4.532 -0.7517 -1.9743  1.0516
   66Eth     Oh 2918   1.926   1.028   4.616 -0.2165  0.4723 -0.0857
   66Eth     Co 2919   2.038   1.001   4.692 -0.4438 -0.3331  0.1171
   66Eth    Hco 2920   2.124   1.003   4.624 -0.4673  0.6493  0.1029
   66Eth    Hco 2921   2.028   0.903   4.737  2.6619 -0.1830  1.2737
   66Eth     Ch 2922   2.049   1.101   4.798  0.1293  0.0550 -0.4745
   66Eth    Hcc 2923   2.155   1.108   4.821  0.4453 -1.4801 -1.4039
   66Eth    Hcc 2924   2.013   1.076   4.898  0.1180 -1.7562 -0.9004
   66Eth    Hcc 2925   2.016   1.197   4.759  1.0269 -0.7671 -3.4433
   67Eth     Ho 2926   1.486   1.439   4.804 -2.5516  0.3815  1.0524
   67Eth     Oh 2927   1.521   1.519   4.838 -0.3245 -0.0300 -0.1943
   67Eth     Co 2928   1.461   1.620   4.767 -0.2361 -0.1229  0.2945
   67Eth    Hco 2929   1.362   1.577   4.754 -1.3320  2.5499 -0.6616
   67Eth    Hco 2930   1.504   1.629   4.668  0.1948  1.4503  0.6000
   67Eth     Ch 2931   1.457   1.760   4.829 -0.4121  0.0709 -0.7173
   67Eth    Hcc 2932   1.406   1.829   4.762 -1.3829  1.5056  1.4734
   67Eth    Hcc 2933   1.558   1.796   4.850 -0.9963  0.5587  1.3327
   67Eth    Hcc 2934   1.410   1.769   4.926 -0.4265  0.9716 -0.8025
   68Eth     Ho 2935   1.588   2.900   9.946  2.2885  0.6391  0.7443
   68Eth     Oh 2936   1.626   2.818   9.921  0.0060 -0.2531  0.0151
   68Eth     Co 2937   1.530   2.720   9.918 -0.1870 -0.3137  0.2503
   68Eth    Hco 2938   1.432   2.766   9.904 -0.8308 -1.8346 -0.3153
   68Eth    Hco 2939   1.536   2.687  10.022  1.0973 -2.2185 -0.3926
   68Eth     Ch 2940   1.558   2.619   9.810 -0.3773  0.4094  0.6373
   68Eth    Hcc 2941   1.577   2.670   9.716 -0.4143 -2.5198 -0.9940
   68Eth    Hcc 2942   1.472   2.553   9.803  1.1610 -1.6741  0.8742
   68Eth    Hcc 2943   1.637   2.552   9.845 -2.4363 -2.4025  0.0979
   69Eth     Ho 2944   2.645   2.650   3.707 -0.8122 -0.5035  0.4104
   69Eth     Oh 2945   2.662   2.737   3.739  0.3338 -0.4505 -0.2712
   69Eth     Co 2946   2.772   2.738   3.826 -0.0198  0.6770  0.0423
   69Eth    Hco 2947   2.858   2.689   3.781 -0.2133 -1.7352  2.1724
   69Eth    Hco 2948   2.743   2.679   3.913  0.1227  1.6818  0.7695
   69Eth     Ch 2949   2.794   2.883   3.876  0.2088  0.3318  0.2767
   69Eth    Hcc 2950   2.888   2.897   3.930 -1.1812  0.3915  2.7379
   69Eth    Hcc 2951   2.714   2.898   3.949  0.9180 -1.5220  1.4696
   69Eth    Hcc 2952   2.788   2.954   3.794 -0.3063  2.1958  1.8693
   70Eth     Ho 2953   0.188   1.984   7.623  1.6499 -1.1998  1.0952
   70Eth     Oh 2954   0.173   2.057   7.680 -0.0948 -0.4110 -0.3191
   70Eth     Co 2955   0.079   2.143   7.627  0.4052  0.8105 -0.0745
   70Eth    Hco 2956   0.027   2.195   7.708 -1.7533 -2.3054  0.6589
   70Eth    Hco 2957   0.002   2.094   7.567 -1.5005  3.8400 -0.2155
   70Eth     Ch 2958   0.164   2.228   7.532  0.3486  0.5162 -0.1163
   70Eth    Hcc 2959   0.198   2.168   7.448  1.1466 -1.8199  1.8398
   70Eth    Hcc 2960   0.249   2.277   7.580 -0.5690  1.0266  1.0132
   70Eth    Hcc 2961   0.106   2.300   7.474 -0.6763  0.3303  0.6715
   71Eth     Ho 2962   3.187   0.346   3.232  2.6593 -0.9438  0.5636
   71Eth     Oh 2963   3.203   0.369   3.143 -0.0952 -0.4814  0.1457
   71Eth     Co 2964   3.309   0.291   3.093 -0.2979 -0.0520 -0.2332
   71Eth    Hco 2965   3.269   0.189   3.096  0.5843 -0.4664 -1.7967
   71Eth    Hco 2966   3.394   0.305   3.160  1.1210 -1.3670 -1.6964
   71Eth     Ch 2967   3.327   0.336   2.939 -0.1305 -0.2382  0.0699
   71Eth    Hcc 2968   3.375   0.433   2.933 -0.1058 -0.1839  0.9896
   71Eth    Hcc 2969   3.233   0.345   2.885  0.2115  2.2999 -0.1423
   71Eth    Hcc 2970   3.397   0.268   2.891  1.6936  1.5424  0.1766
   72Eth     Ho 2971   3.129   2.882   9.038  0.4903  2.2073  3.3491
   72Eth     Oh 2972   3.112   2.809   9.095 -0.3090 -0.5524 -0.1720
   72Eth     Co 2973   3.183   2.699   9.055 -0.7428  0.3697 -0.4550
   72Eth    Hco 2974   3.287   2.727   9.045 -0.4505 -0.7107 -0.4537
   72Eth    Hco 2975   3.145   2.674   8.955 -0.6217 -2.2246  0.1061
   72Eth     Ch 2976   3.168   2.576   9.141 -0.3576  0.4212 -0.0731
   72Eth    Hcc 2977   3.060   2.561   9.146 -0.4440  0.9235 -0.3756
   72Eth    Hcc 2978   3.203   2.602   9.241  0.2726 -0.4022 -0.0776
   72Eth    Hcc 2979   3.213   2.488   9.094 -0.8733  0.9882 -1.6726
   73Eth     Ho 2980   2.068   2.243   9.848 -0.1021 -0.1902 -1.2087
   73Eth     Oh 2981   2.160   2.233   9.832  0.1437 -0.7237  0.3804
   73Eth     Co 2982   2.197   2.103   9.839 -0.2422  0.4243 -0.0929
   73Eth    Hco 2983   2.208   2.077   9.734  0.1125 -0.3784  0.1347
   73Eth    Hco 2984   2.113   2.049   9.886 -0.8010  0.9024 -0.5408
   73Eth     Ch 2985   2.331   2.086   9.912  0.5445 -0.1433  0.9938
   73Eth    Hcc 2986   2.357   1.980   9.919  1.0733 -0.3884 -3.3461
   73Eth    Hcc 2987   2.333   2.128  10.012 -2.7120  2.4351  0.0789
   73Eth    Hcc 2988   2.414   2.139   9.866  0.4048 -1.4291 -0.8401
   74Eth     Ho 2989   1.423   0.564   1.725  0.0796 -0.9975  0.6425
   74Eth     Oh 2990   1.331   0.555   1.744 -0.0511 -0.4174  0.3183
   74Eth     Co 2991   1.272   0.673   1.687  0.2678  0.3953  0.2661
   74Eth    Hco 2992   1.307   0.697   1.586  2.9116 -0.6915  0.8922
   74Eth    Hco 2993   1.321   0.753   1.743 -2.8653  0.3077  3.2626
   74Eth     Ch 2994   1.119   0.659   1.692  0.2405  0.6115 -0.1352
   74Eth    Hcc 2995   1.070   0.572   1.647  0.0442  0.3728  0.5217
   74Eth    Hcc 2996   1.082   0.747   1.639  1.3898  0.9798 -0.3437
   74Eth    Hcc 2997   1.084   0.667   1.795 -0.3811 -2.5666 -0.0255
   75Eth     Ho 2998   1.525   0.784   9.739 -0.8339  1.1786  0.0696
   75Eth     Oh 2999   1.529   0.768   9.831 -0.3031 -0.1341 -0.1664
   75Eth     Co 3000   1.544   0.887   9.902 -0.4873  0.0948 -0.1071
   75Eth    Hco 3001   1.644   0.930   9.894 -1.3674  1.8187 -2.4364
   75Eth    Hco 3002   1.536   0.865  10.009  1.2150  0.3443  0.0970
   75Eth     Ch 3003   1.437   0.992   9.859 -0.0216 -0.9384  0.4031
   75Eth    Hcc 3004   1.345   0.935   9.843  0.5528 -1.2654 -1.8791
   75Eth    Hcc 3005   1.452   1.042   9.764  2.0067 -1.7981  0.2496
   75Eth    Hcc 3006   1.423   1.070   9.935  0.7197 -0.3967 -0.0169
   76Eth     Ho 3007   2.454   0.059   1.482  0.1626  1.1900  0.2619
   76Eth     Oh 3008   2.488   0.005   1.551 -0.2378  0.3388 -0.1998
   76Eth     Co 3009   2.581  -0.089   1.489 -0.3031  0.3421  0.5445
   76Eth    Hco 3010   2.678  -0.039   1.484 -0.1683 -0.1082 -1.4668
   76Eth    Hco 3011   2.535  -0.104   1.392 -0.8579 -0.9858  1.0044
   76Eth     Ch 3012   2.594  -0.221   1.568  0.0494 -0.4983 -0.3993
   76Eth    Hcc 3013   2.615  -0.208   1.674 -0.1562 -1.3226 -0.2507
   76Eth    Hcc 3014   2.687  -0.258   1.526 -1.1184 -0.3542 -3.2450
   76Eth    Hcc 3015   2.509  -0.289   1.555  0.0505 -0.9835  1.8311
   77Eth     Ho 3016   0.379   0.336   9.697 -0.1414 -1.0882  2.2278
   77Eth     Oh 3017   0.460   0.293   9.718  0.8159 -0.2000  0.4326
   77Eth     Co 3018   0.424   0.193   9.818 -0.0195 -0.1304 -0.0382
   77Eth    Hco 3019   0.376   0.111   9.765 -0.4816  0.2461 -0.2109
   77Eth    Hco 3020   0.354   0.228   9.894 -0.1995 -1.1242  0.2552
   77Eth     Ch 3021   0.557   0.132   9.876 -0.1232 -0.3074  0.3009
   77Eth    Hcc 3022   0.624   0.209   9.915  1.2233 -1.1097 -0.3928
   77Eth    Hcc 3023   0.618   0.065   9.815 -0.0377  0.2658 -0.2459
   77Eth    Hcc 3024   0.545   0.082   9.973  0.8043 -0.2602  0.4513
   78Eth     Ho 3025   3.193   2.468   6.638  1.4099  0.8360  0.9354
   78Eth     Oh 3026   3.156   2.554   6.629 -0.2037  0.0852  0.0186
   78Eth     Co 3027   3.025   2.550   6.579 -0.6907 -0.0317 -0.2924
   78Eth    Hco 3028   2.989   2.457   6.623 -1.0127  0.1190 -0.2372
   78Eth    Hco 3029   3.028   2.539   6.471  0.8279  0.7718 -0.3412
   78Eth     Ch 3030   2.931   2.664   6.622 -0.6750 -0.4211  0.0774
   78Eth    Hcc 3031   2.973   2.749   6.567  0.7732  0.3098  2.2289
   78Eth    Hcc 3032   2.955   2.695   6.724  0.2747 -0.9158  0.0145
   78Eth    Hcc 3033   2.824   2.648   6.609 -0.4456 -0.9473 -1.2674
   79Eth     Ho 3034   1.887   1.570   6.668 -0.5313 -1.4533  0.2959
   79Eth     Oh 3035   1.873   1.566   6.575 -0.5515 -0.6262  0.2590
   79Eth     Co 3036   1.999   1.537   6.521  0.2524  0.4757  0.0175
   79Eth    Hco 3037   2.007   1.429   6.519 -1.4445  0.3348  0.2103
   79Eth    Hco 3038   2.078   1.580   6.583  1.0219  1.3625 -1.5595
   79Eth     Ch 3039   2.008   1.598   6.377  0.2710  0.1960 -0.0134
   79Eth    Hcc 3040   2.085   1.546   6.320 -0.2015 -1.6631  1.0176
   79Eth    Hcc 3041   2.048   1.699   6.382  0.9204 -0.1103  1.0974
   79Eth    Hcc 3042   1.916   1.597   6.318 -0.0555 -0.0196  0.4989
   80Eth     Ho 3043   0.820   1.916   9.678  1.3122 -2.7275 -0.6359
   80Eth     Oh 3044   0.807   1.909   9.770  0.3030  0.9041 -0.4491
   80Eth     Co 3045   0.685   1.976   9.789  0.3433 -0.1590 -0.1530
   80Eth    Hco 3046   0.604   1.920   9.740  1.5824 -1.6356 -0.5372
   80Eth    Hco 3047   0.695   2.068   9.732  1.1442 -1.2136 -1.7526
   80Eth     Ch 3048   0.651   1.997   9.931  0.3044 -0.2779  0.6049
   80Eth    Hcc 3049   0.729   2.049   9.986  1.3092  0.3592 -1.3674
   80Eth    Hcc 3050   0.623   1.907   9.987  1.5683 -2.0750 -1.5577
   80Eth    Hcc 3051   0.571   2.070   9.927  1.8215  1.3135 -2.8675
   81Eth     Ho 3052   0.873   2.865   1.513 -0.4060  0.7371  1.8422
   81Eth     Oh 3053   0.844   2.775   1.514  0.6848  0.3380  0.0717
   81Eth     Co 3054   0.711   2.773   1.477  0.8516 -0.0222 -0.2694
   81Eth    Hco 3055   0.696   2.819   1.379  1.1028 -0.9277 -0.7327
   81Eth    Hco 3056   0.654   2.835   1.547  0.4144 -1.1379  0.3815
   81Eth     Ch 3057   0.634   2.639   1.486 -0.2306 -0.0601 -0.2042
   81Eth    Hcc 3058   0.675   2.572   1.410 -1.0395  1.4049 -1.9554
   81Eth    Hcc 3059   0.529   2.644   1.456 -1.3492 -0.9706  3.3161
   81Eth    Hcc 3060   0.641   2.604   1.589 -1.4294 -1.5481 -0.6047
   82Eth     Ho 3061   1.635   1.812   9.691 -0.2969  0.0087  0.7743
   82Eth     Oh 3062   1.729   1.800   9.693 -0.2582  0.0673 -0.2355
   82Eth     Co 3063   1.778   1.871   9.805 -0.1185 -0.2178 -0.1986
   82Eth    Hco 3064   1.715   1.860   9.893 -0.8749  0.7256 -0.6085
   82Eth    Hco 3065   1.801   1.977   9.791 -1.7067  0.3331  1.1806
   82Eth     Ch 3066   1.910   1.794   9.829 -0.2268  0.2970 -0.0470
   82Eth    Hcc 3067   1.990   1.854   9.873  1.0107 -3.1388  2.5291
   82Eth    Hcc 3068   1.947   1.785   9.727 -2.5798  0.5994 -0.9652
   82Eth    Hcc 3069   1.905   1.699   9.882  1.6058 -0.2501 -0.8070
   83Eth     Ho 3070   1.007   2.729   5.658 -0.0755  0.6172 -0.0845
   83Eth     Oh 3071   0.990   2.750   5.568 -0.3717  0.2536 -0.1146
   83Eth     Co 3072   0.977   2.640   5.484 -0.4171  0.0735 -0.0316
   83Eth    Hco 3073   0.902   2.573   5.527  1.4255 -1.1307  1.3613
   83Eth    Hco 3074   1.068   2.587   5.458 -0.3216  0.6505 -0.8766
   83Eth     Ch 3075   0.921   2.676   5.341  0.2904  0.0296  0.2068
   83Eth    Hcc 3076   0.989   2.754   5.308  0.6870 -0.0023  0.9446
   83Eth    Hcc 3077   0.817   2.709   5.344 -0.3064 -1.6146 -1.4661
   83Eth    Hcc 3078   0.912   2.598   5.266 -1.4049  0.8749 -0.5053
   84Eth     Ho 3079   2.362   2.736   1.516  0.2066  0.0922 -0.3306
   84Eth     Oh 3080   2.360   2.652   1.560  0.0441  0.5337  0.5271
   84Eth     Co 3081   2.248   2.579   1.526  0.6056  0.4113  0.2662
   84Eth    Hco 3082   2.249   2.573   1.417  0.1082  0.8388  0.2405
   84Eth    Hco 3083   2.157   2.633   1.550  0.0717 -0.0599 -0.6455
   84Eth     Ch 3084   2.223   2.435   1.575  0.0593  0.0217  0.2425
   84Eth    Hcc 3085   2.305   2.368   1.552 -0.3545 -0.3945 -0.0142
   84Eth    Hcc 3086   2.122   2.402   1.551 -0.5999  2.4655 -0.4584
   84Eth    Hcc 3087   2.212   2.432   1.684  1.0364  1.2068  0.3858
   85Eth     Ho 3088   0.328   2.252   8.136  0.0775 -0.6269 -0.5862
   85Eth     Oh 3089   0.413   2.288   8.118 -0.0133 -0.5648 -0.9068
   85Eth     Co 3090   0.400   2.288   7.971  0.0479 -0.6518 -0.0595
   85Eth    Hco 3091   0.310   2.347   7.952 -2.1901 -3.1418  2.2467
   85Eth    Hco 3092   0.395   2.187   7.930 -0.6932 -1.8476  2.8249
   85Eth     Ch 3093   0.521   2.363   7.907 -0.7471 -0.4751 -0.3888
   85Eth    Hcc 3094   0.611   2.302   7.917 -1.2399 -0.9313  1.6456
   85Eth    Hcc 3095   0.541   2.457   7.959 -0.5826  0.1430 -1.5604
   85Eth    Hcc 3096   0.505   2.393   7.804 -0.7813 -0.1894 -0.3001
   86Eth     Ho 3097   0.812   3.057   9.314  1.8721  0.4503 -1.8606
   86Eth     Oh 3098   0.826   2.964   9.314 -0.7606 -0.0067 -0.1313
   86Eth     Co 3099   0.967   2.932   9.329  0.8689  0.5604  0.4380
   86Eth    Hco 3100   0.981   2.959   9.434  0.6282  1.3718  0.2664
   86Eth    Hco 3101   1.030   2.998   9.269 -4.2915  3.2445 -2.4125
   86Eth     Ch 3102   0.999   2.791   9.281 -0.4358 -0.9997 -0.5931
   86Eth    Hcc 3103   0.950   2.759   9.190  0.4342 -3.8077 -0.1466
   86Eth    Hcc 3104   0.976   2.722   9.362 -1.2020 -1.8434 -1.5193
   86Eth    Hcc 3105   1.107   2.777   9.271  0.0124  0.9959  0.9443
   87Eth     Ho 3106   3.160   2.890   9.558  2.3620  1.2044 -1.6956
   87Eth     Oh 3107   3.180   2.941   9.634 -0.2540  0.3137 -0.3507
   87Eth     Co 3108   3.204   2.843   9.741  0.7464 -0.1319 -0.1205
   87Eth    Hco 3109   3.270   2.765   9.703 -0.3454 -2.2981  2.2818
   87Eth    Hco 3110   3.112   2.787   9.760  0.7824  0.4529  1.9003
   87Eth     Ch 3111   3.251   2.920   9.867 -0.2978 -0.3679 -0.3301
   87Eth    Hcc 3112   3.329   2.992   9.841  2.1697 -2.7451  0.1811
   87Eth    Hcc 3113   3.284   2.866   9.956  0.0363  2.2667  1.2008
   87Eth    Hcc 3114   3.182   2.988   9.915  1.9776  0.9836  1.1238
   88Eth     Ho 3115   3.327   1.873   3.874  0.0823 -0.4023 -0.6397
   88Eth     Oh 3116   3.405   1.830   3.843  0.6622  0.3614 -0.2507
   88Eth     Co 3117   3.401   1.791   3.707 -0.1151  0.0161  0.0958
   88Eth    Hco 3118   3.414   1.879   3.643  0.3009 -0.1640 -0.0703
   88Eth    Hco 3119   3.313   1.743   3.666  1.6400 -2.0211 -1.4277
   88Eth     Ch 3120   3.526   1.710   3.684  0.3814  0.1601  0.0887
   88Eth    Hcc 3121   3.531   1.622   3.748 -0.9230 -0.3383 -0.4851
   88Eth    Hcc 3122   3.620   1.762   3.705 -0.0855  1.3094 -0.6516
   88Eth    Hcc 3123   3.529   1.675   3.581 -0.9016 -1.0434  0.4421
   89Eth     Ho 3124   1.687   3.205   1.582  0.9721 -1.1446  0.5121
   89Eth     Oh 3125   1.616   3.157   1.544  0.0966  0.3325  0.2398
   89Eth     Co 3126   1.499   3.236   1.512  0.2891  0.0879  0.3593
   89Eth    Hco 3127   1.461   3.270   1.608  0.5116 -0.4671  0.6502
   89Eth    Hco 3128   1.421   3.184   1.457  0.9148  1.1827 -1.6126
   89Eth     Ch 3129   1.527   3.352   1.416  0.6739 -0.2948  0.0403
   89Eth    Hcc 3130   1.436   3.405   1.390  0.5459 -1.1621 -1.3495
   89Eth    Hcc 3131   1.575   3.311   1.327 -0.8588 -2.2344  0.0604
   89Eth    Hcc 3132   1.603   3.416   1.461  1.9670 -4.0068  3.4832
   90Eth     Ho 3133   0.644   2.395   8.467  0.4850  2.6922  1.4670
   90Eth     Oh 3134   0.625   2.348   8.546  0.1466 -0.3958 -0.3390
   90Eth     Co 3135   0.691   2.412   8.663  0.4913 -0.5900 -0.7186
   90Eth    Hco 3136   0.638   2.401   8.758  2.6523  0.1777  0.6122
   90Eth    Hco 3137   0.700   2.518   8.640 -0.1066  0.0674  1.8830
   90Eth     Ch 3138   0.828   2.356   8.693 -0.7269 -0.0664  0.2492
   90Eth    Hcc 3139   0.823   2.247   8.692  3.6782 -0.3484 -1.6455
   90Eth    Hcc 3140   0.852   2.379   8.797  0.4570 -1.2220  0.2373
   90Eth    Hcc 3141   0.906   2.372   8.619 -1.8002 -1.0790 -1.1279
   91Eth     Ho 3142   0.749   3.294   9.629  0.1444 -0.2771  0.2951
   91Eth     Oh 3143   0.808   3.269   9.697  0.8456  0.5423 -0.0166
   91Eth     Co 3144   0.891   3.377   9.725 -0.5640 -0.0463 -0.3537
   91Eth    Hco 3145   0.835   3.454   9.779 -0.1308 -0.4643  0.7095
   91Eth    Hco 3146   0.920   3.424   9.631 -1.2110 -2.7768 -1.9732
   91Eth     Ch 3147   1.025   3.335   9.797  0.6492  0.2536 -0.4180
   91Eth    Hcc 3148   1.078   3.428   9.816  0.1355  0.9805 -2.4500
   91Eth    Hcc 3149   1.092   3.264   9.748  0.5349 -1.0029  1.2058
   91Eth    Hcc 3150   0.995   3.291   9.893  3.0838 -1.9515 -0.6091
   92Eth     Ho 3151   1.583   0.153   1.632 -2.1559 -1.6954 -1.3612
   92Eth     Oh 3152   1.591   0.214   1.561  0.5092 -0.6508 -0.2412
   92Eth     Co 3153   1.537   0.341   1.594  0.6536 -0.7008 -0.1499
   92Eth    Hco 3154   1.610   0.379   1.666  1.3394  1.8911 -2.1258
   92Eth    Hco 3155   1.446   0.325   1.651 -0.0769 -2.5116 -1.7716
   92Eth     Ch 3156   1.509   0.437   1.474  0.2661  0.1949  0.1927
   92Eth    Hcc 3157   1.466   0.371   1.399 -2.2470  1.1515  0.7276
   92Eth    Hcc 3158   1.600   0.484   1.438 -0.9069  0.3205 -2.7176
   92Eth    Hcc 3159   1.436   0.513   1.501  0.5562  0.8954 -0.9560
   93Eth     Ho 3160   1.876   0.539   4.558  2.6767 -1.2760  0.1926
   93Eth     Oh 3161   1.839   0.484   4.624  0.4247 -0.2461 -0.1594
   93Eth     Co 3162   1.743   0.407   4.558  0.3276  0.5395 -0.7654
   93Eth    Hco 3163   1.786   0.338   4.485  1.0276 -0.5372  0.6368
   93Eth    Hco 3164   1.680   0.479   4.506 -1.1151 -1.1084 -1.3477
   93Eth     Ch 3165   1.646   0.338   4.656  0.4410 -0.1141  0.3281
   93Eth    Hcc 3166   1.570   0.270   4.619 -0.0431  0.8322 -0.4234
   93Eth    Hcc 3167   1.588   0.412   4.712  0.5892  0.4596 -0.2689
   93Eth    Hcc 3168   1.698   0.275   4.728  1.8097 -0.9526 -1.3493
   94Eth     Ho 3169   0.418   3.138   8.763  1.2932  0.6903  0.3557
   94Eth     Oh 3170   0.392   3.228   8.772  0.0342  0.3269  0.3833
   94Eth     Co 3171   0.515   3.293   8.787 -0.4917  0.2523 -0.6675
   94Eth    Hco 3172   0.580   3.280   8.700 -0.9496  1.8720 -1.2728
   94Eth    Hco 3173   0.562   3.253   8.876 -0.1702 -2.4658 -2.0082
   94Eth     Ch 3174   0.492   3.446   8.797 -0.1908 -0.6483  0.5888
   94Eth    Hcc 3175   0.442   3.486   8.886  1.4550  0.4312  1.0507
   94Eth    Hcc 3176   0.442   3.493   8.712  0.0375  0.6002  1.1337
   94Eth    Hcc 3177   0.592   3.488   8.799  0.5738 -2.2052 -2.8798
   95Eth     Ho 3178   0.943   2.444   1.636 -0.4763  0.3986  1.9983
   95Eth     Oh 3179   0.920   2.353   1.625  0.2367  0.4527 -0.2294
   95Eth     Co 3180   0.969   2.313   1.506 -0.4980  0.6665 -0.1578
   95Eth    Hco 3181   1.051   2.379   1.480 -0.4048  0.7528  0.3584
   95Eth    Hco 3182   0.892   2.320   1.429 -1.0087  0.1747  0.3050
   95Eth     Ch 3183   1.007   2.162   1.505  0.3656 -0.1389 -0.2606
   95Eth    Hcc 3184   1.091   2.142   1.571 -0.5599  1.9637  1.6569
   95Eth    Hcc 3185   1.039   2.143   1.403  0.7948  1.6823 -0.4896
   95Eth    Hcc 3186   0.927   2.092   1.528  0.1127  0.5424  0.9654
   96Eth     Ho 3187   1.866   1.610   5.305  2.0377  0.3799 -2.2232
   96Eth     Oh 3188   1.902   1.531   5.341 -0.9008 -0.0631 -0.0284
   96Eth     Co 3189   1.875   1.427   5.251  0.2059  0.0217 -0.2660
   96Eth    Hco 3190   1.944   1.425   5.167 -1.8314 -1.4497 -1.9621
   96Eth    Hco 3191   1.772   1.442   5.219  0.4672  1.2071 -0.5728
   96Eth     Ch 3192   1.903   1.305   5.336  0.4302  0.2864  0.8092
   96Eth    Hcc 3193   1.916   1.212   5.282 -0.1710  1.0221 -0.6360
   96Eth    Hcc 3194   1.835   1.290   5.419 -0.4182  1.6099  0.3675
   96Eth    Hcc 3195   2.003   1.316   5.380  1.0720 -1.4018 -0.2006
   97Eth     Ho 3196   2.824   2.100   4.019  1.4781  0.4389 -1.4329
   97Eth     Oh 3197   2.744   2.101   3.969  0.7827 -0.5468 -0.3868
   97Eth     Co 3198   2.747   2.217   3.888 -0.1774  0.0423 -0.3992
   97Eth    Hco 3199   2.662   2.215   3.820  0.9265  1.8162 -1.8611
   97Eth    Hco 3200   2.835   2.215   3.825 -0.9735 -0.8988 -1.5127
   97Eth     Ch 3201   2.736   2.334   3.991 -0.5983  0.2053  0.2331
   97Eth    Hcc 3202   2.787   2.427   3.963 -0.9641 -0.0412 -1.2680
   97Eth    Hcc 3203   2.802   2.318   4.077  0.2090 -1.2756 -0.6455
   97Eth    Hcc 3204   2.635   2.352   4.028 -1.1185 -2.7194  0.3229
   98Eth     Ho 3205   0.728   0.356   6.729  0.4487  1.9126  0.6739
   98Eth     Oh 3206   0.818   0.356   6.756  0.6318 -0.1405  0.1517
   98Eth     Co 3207   0.820   0.329   6.899  0.4188 -0.0583  0.1654
   98Eth    Hco 3208   0.725   0.283   6.927  1.7701 -1.2045  3.0689
   98Eth    Hco 3209   0.818   0.415   6.965 -4.2750 -0.0300  0.1474
   98Eth     Ch 3210   0.940   0.234   6.920 -0.4282  0.7238  0.0339
   98Eth    Hcc 3211   1.025   0.284   6.876  0.7661 -1.5992 -0.3773
   98Eth    Hcc 3212   0.919   0.141   6.867  0.3770  0.7110 -0.2665
   98Eth    Hcc 3213   0.953   0.217   7.027 -0.1253 -0.8592 -0.2397
   99Eth     Ho 3214   0.854   1.253   1.902  0.4236  0.4263 -0.2188
   99Eth     Oh 3215   0.772   1.296   1.918  0.1650 -0.3219  0.5390
   99Eth     Co 3216   0.766   1.332   2.053 -0.1354  0.6550 -0.2916
   99Eth    Hco 3217   0.858   1.380   2.086 -0.2784  0.7728 -0.0612
   99Eth    Hco 3218   0.756   1.233   2.098  3.3459  0.4709  0.1841
   99Eth     Ch 3219   0.647   1.420   2.088 -0.0697  1.0107  0.1748
   99Eth    Hcc 3220   0.679   1.445   2.189 -0.3724 -1.0585  0.7945
   99Eth    Hcc 3221   0.550   1.370   2.084  0.6656 -0.4321  0.0889
   99Eth    Hcc 3222   0.649   1.520   2.045  1.5063  0.8776 -0.0944
  100Eth     Ho 3223   0.007   1.136   6.195 -1.4005  2.5541  0.7326
  100Eth     Oh 3224   0.030   1.165   6.109  0.4731 -1.0064 -0.0711
  100Eth     Co 3225   0.173   1.188   6.118  0.3508 -0.0506  0.0689
  100Eth    Hco 3226   0.223   1.093   6.134  0.8670  0.2043 -0.0158
  100Eth    Hco 3227   0.192   1.240   6.212 -1.1152  0.7323 -0.0535
  100Eth     Ch 3228   0.213   1.264   5.990  0.3790 -0.0344 -0.5073
  100Eth    Hcc 3229   0.216   1.204   5.899  0.6838 -0.9580  0.1165
  100Eth    Hcc 3230   0.312   1.299   6.020 -0.2743 -1.3522  3.4193
  100Eth    Hcc 3231   0.154   1.356   5.979  1.4703  0.6009 -1.1786
  101Eth     Ho 3232   0.169   0.693   2.343  2.8913  1.2469  0.8369
  101Eth     Oh 3233   0.188   0.611   2.387  1.0583  0.2615 -0.1550
  101Eth     Co 3234   0.130   0.513   2.303 -0.0636  0.6170 -0.1249
  101Eth    Hco 3235   0.175   0.512   2.204  0.8857  0.3575  0.3066
  101Eth    Hco 3236   0.027   0.538   2.278  0.4446  0.1429 -2.7940
  101Eth     Ch 3237   0.146   0.374   2.367  0.1438  0.0018  0.4661
  101Eth    Hcc 3238   0.104   0.361   2.467  0.5609  0.1646  0.6656
  101Eth    Hcc 3239   0.252   0.347   2.370  0.7270  1.8291 -2.1825
  101Eth    Hcc 3240   0.100   0.303   2.298  1.2362 -0.0161 -0.2549
  102Eth     Ho 3241   1.745   0.925   4.588  2.6449  0.8790 -2.4516
  102Eth     Oh 3242   1.680   0.909   4.523  0.1343  0.3381  0.0805
  102Eth     Co 3243   1.554   0.899   4.585 -0.0850 -0.3798  0.1586
  102Eth    Hco 3244   1.510   0.998   4.597  1.2926  1.2933 -6.4113
  102Eth    Hco 3245   1.548   0.849   4.682 -0.3838 -1.7349 -0.5377
  102Eth     Ch 3246   1.455   0.831   4.489  0.2374 -0.4584 -0.3845
  102Eth    Hcc 3247   1.477   0.726   4.468  0.4287 -0.2331 -1.3357
  102Eth    Hcc 3248   1.449   0.886   4.395 -1.9529  1.6569  0.9447
  102Eth    Hcc 3249   1.355   0.828   4.530  0.2090 -1.4149 -0.5050
  103Eth     Ho 3250   2.137   0.277   3.202  2.1351  1.2754  2.0385
  103Eth     Oh 3251   2.156   0.197   3.248  0.1127 -0.3952  0.0989
  103Eth     Co 3252   2.262   0.142   3.176  0.4403  0.3166 -0.2114
  103Eth    Hco 3253   2.321   0.229   3.149  1.7887 -0.5071  0.0712
  103Eth    Hco 3254   2.234   0.100   3.079 -0.3770  0.5337 -0.0789
  103Eth     Ch 3255   2.332   0.026   3.252 -0.1519 -0.1504  0.4841
  103Eth    Hcc 3256   2.264  -0.050   3.289  0.3053 -0.3207  0.9971
  103Eth    Hcc 3257   2.399   0.054   3.334 -0.6601 -0.1782  0.9146
  103Eth    Hcc 3258   2.391  -0.019   3.172 -0.3549  1.3833 -0.5544
  104Eth     Ho 3259   3.296   1.004  10.027  0.2704 -0.2385  0.3403
  104Eth     Oh 3260   3.228   0.957   9.982  0.3091 -0.4107  0.4608
  104Eth     Co 3261   3.124   1.048   9.970 -0.2094 -0.3323 -0.5431
  104Eth    Hco 3262   3.169   1.146   9.950  2.4757 -1.5019 -0.4890
  104Eth    Hco 3263   3.073   1.060  10.066  0.4073  0.1406 -0.2659
  104Eth     Ch 3264   3.029   0.990   9.866 -0.3857 -0.1555 -0.1400
  104Eth    Hcc 3265   2.946   1.057   9.844 -1.0900 -0.7267  0.7466
  104Eth    Hcc 3266   2.980   0.900   9.905 -1.0591 -0.4973 -1.7473
  104Eth    Hcc 3267   3.081   0.962   9.775  1.1284 -0.5124  0.8137
  105Eth     Ho 3268   1.327   1.860   7.530  0.2764 -0.5278 -1.0386
  105Eth     Oh 3269   1.408   1.837   7.572 -0.1241 -0.2043 -0.0680
  105Eth     Co 3270   1.503   1.933   7.524  0.8593  0.0204  0.1374
  105Eth    Hco 3271   1.496   2.023   7.585 -0.7775  0.4974 -0.7311
  105Eth    Hco 3272   1.473   1.973   7.427  2.5073 -0.1865 -0.4759
  105Eth     Ch 3273   1.643   1.880   7.528 -0.0392  0.1491  0.2847
  105Eth    Hcc 3274   1.664   1.816   7.443  2.3300 -0.3296  1.1651
  105Eth    Hcc 3275   1.650   1.817   7.617  0.4413  0.3822  0.4187
  105Eth    Hcc 3276   1.720   1.957   7.531  1.2624 -1.0186 -2.2056
  106Eth     Ho 3277   2.619   1.178   3.843 -2.2759 -1.1766 -0.0610
  106Eth     Oh 3278   2.675   1.116   3.800  0.0784  0.5344  0.5011
  106Eth     Co 3279   2.729   1.191   3.697  0.3979  0.6240  0.1481
  106Eth    Hco 3280   2.783   1.276   3.738  0.8425 -0.6485  2.2985
  106Eth    Hco 3281   2.642   1.225   3.642 -1.2800 -2.6061  0.6938
  106Eth     Ch 3282   2.822   1.107   3.610 -0.3344 -0.5726  0.2395
  106Eth    Hcc 3283   2.857   1.167   3.526 -0.5948  0.6605  0.9965
  106Eth    Hcc 3284   2.769   1.017   3.578 -0.4602 -0.3594 -0.1560
  106Eth    Hcc 3285   2.908   1.065   3.662  0.5379  0.9260  0.0548
  107Eth     Ho 3286   1.589   3.399   9.799 -0.1522 -1.9188 -0.6881
  107Eth     Oh 3287   1.504   3.394   9.838 -0.1681 -0.2943 -0.4915
  107Eth     Co 3288   1.431   3.517   9.812 -1.0444 -0.0790  0.5695
  107Eth    Hco 3289   1.354   3.503   9.737 -0.0661 -1.8693 -0.1451
  107Eth    Hco 3290   1.503   3.583   9.763 -0.3318 -0.3938  1.1711
  107Eth     Ch 3291   1.359   3.586   9.930  0.5740  0.1228 -0.2489
  107Eth    Hcc 3292   1.270   3.528   9.956 -0.6591  0.9423 -2.5054
  107Eth    Hcc 3293   1.308   3.676   9.896 -1.0869 -0.5711  0.3573
  107Eth    Hcc 3294   1.426   3.608  10.013  1.8093 -0.2805 -1.1254
  108Eth     Ho 3295   1.149   1.729   3.432  1.5536  0.2159  0.0490
  108Eth     Oh 3296   1.139   1.654   3.488  0.4737  0.2351 -0.0912
  108Eth     Co 3297   1.000   1.658   3.521 -0.2324 -0.0714  0.1249
  108Eth    Hco 3298   0.939   1.656   3.431  0.1870  2.3473 -0.2664
  108Eth    Hco 3299   0.972   1.753   3.567 -0.3682  0.0014 -0.1101
  108Eth     Ch 3300   0.980   1.535   3.608 -0.0492  0.1137  0.6686
  108Eth    Hcc 3301   0.997   1.560   3.712 -2.5707  2.5097  0.5863
  108Eth    Hcc 3302   1.043   1.453   3.573 -0.3014 -0.3294  1.2443
  108Eth    Hcc 3303   0.877   1.500   3.603  0.1691 -0.7905  2.2688
  109Eth     Ho 3304   2.704   0.991   5.289 -1.2122 -1.1311  1.5397
  109Eth     Oh 3305   2.747   1.040   5.356 -0.0097 -0.1251  0.0576
  109Eth     Co 3306   2.842   0.947   5.412  0.8421 -0.6610  0.0493
  109Eth    Hco 3307   2.931   0.966   5.353  0.3382  2.5342  0.2233
  109Eth    Hco 3308   2.805   0.846   5.399  0.6707 -0.6168  0.2006
  109Eth     Ch 3309   2.855   0.976   5.561 -0.2872  0.0510 -0.7012
  109Eth    Hcc 3310   2.953   0.944   5.596 -0.8007  0.4390  1.1458
  109Eth    Hcc 3311   2.781   0.914   5.612  0.8483 -0.5179  0.2741
  109Eth    Hcc 3312   2.844   1.076   5.603  1.4675  0.3575 -0.9287
  110Eth     Ho 3313   1.282   1.726   9.205  0.9853  0.9971 -0.5577
  110Eth     Oh 3314   1.223   1.703   9.274  0.4513  0.3134 -1.2270
  110Eth     Co 3315   1.195   1.823   9.349  0.1804 -0.6083  0.1165
  110Eth    Hco 3316   1.288   1.856   9.396  0.7472 -2.2284  0.1613
  110Eth    Hco 3317   1.117   1.796   9.420  0.6344  0.4967  1.0625
  110Eth     Ch 3318   1.153   1.939   9.258 -0.2736  0.0713  0.0970
  110Eth    Hcc 3319   1.219   1.962   9.175 -0.0609 -0.3034  0.1632
  110Eth    Hcc 3320   1.145   2.031   9.317 -2.5363 -0.4636  0.6731
  110Eth    Hcc 3321   1.058   1.935   9.206  1.1145 -1.3233 -2.4034
  111Eth     Ho 3322   0.354   2.540   1.648  2.5656 -0.8536  1.3368
  111Eth     Oh 3323   0.352   2.450   1.623  0.2633 -0.4203 -0.1734
  111Eth     Co 3324   0.238   2.431   1.543 -0.1629 -0.2763  0.1581
  111Eth    Hco 3325   0.258   2.466   1.442 -1.2846  1.1327  0.4175
  111Eth    Hco 3326   0.157   2.485   1.592  0.3168 -0.0768  0.7428
  111Eth     Ch 3327   0.208   2.277   1.531 -0.0842 -0.6800  0.0694
  111Eth    Hcc 3328   0.137   2.261   1.450  0.0796 -1.1148  0.0097
  111Eth    Hcc 3329   0.166   2.233   1.621  0.8184  0.3853  1.0283
  111Eth    Hcc 3330   0.294   2.216   1.503 -0.3701  0.3125 -3.1317
  112Eth     Ho 3331   0.576   0.805   1.665 -0.1629 -0.2686 -0.2652
  112Eth     Oh 3332   0.633   0.780   1.595  0.5367  0.1075  0.1659
  112Eth     Co 3333   0.762   0.831   1.621  0.8479 -0.1944  0.7264
  112Eth    Hco 3334   0.809   0.779   1.704  1.2106 -1.6549 -0.3569
  112Eth    Hco 3335   0.749   0.938   1.634  3.3077  0.1628  0.4251
  112Eth     Ch 3336   0.853   0.798   1.509 -0.1722 -0.3154 -0.0795
  112Eth    Hcc 3337   0.942   0.862   1.501  1.5126 -2.7231 -1.0093
  112Eth    Hcc 3338   0.804   0.819   1.414  1.2293  1.6070 -0.4367
  112Eth    Hcc 3339   0.879   0.692   1.504  0.5809 -0.2159  1.2769
  113Eth     Ho 3340   3.259   2.341   9.982 -0.0348  1.1527 -1.5277
  113Eth     Oh 3341   3.165   2.340   9.977 -0.0619  0.0951 -0.7460
  113Eth     Co 3342   3.116   2.470   9.952  0.1125  0.5267 -0.1931
  113Eth    Hco 3343   3.209   2.526   9.942  0.5575 -0.0102  0.9284
  113Eth    Hco 3344   3.085   2.496  10.054  0.0529 -3.1294  0.7750
  113Eth     Ch 3345   3.020   2.491   9.838  0.7573  0.2854 -0.2882
  113Eth    Hcc 3346   3.002   2.598   9.830  1.0797  0.2989 -0.8760
  113Eth    Hcc 3347   2.928   2.435   9.852  1.0779  0.5149  3.1420
  113Eth    Hcc 3348   3.062   2.447   9.747 -0.3134 -0.5835 -0.3751
  114Eth     Ho 3349   2.995   0.437   3.138 -0.7092  1.5675  1.6288
  114Eth     Oh 3350   2.934   0.458   3.069  0.3478 -0.4304  0.0051
  114Eth     Co 3351   2.897   0.329   3.029 -0.7201 -0.7790  0.0217
  114Eth    Hco 3352   2.789   0.315   3.042 -0.7491 -1.5473 -0.9600
  114Eth    Hco 3353   2.947   0.253   3.090  0.0605 -0.1126  0.2168
  114Eth     Ch 3354   2.931   0.308   2.881 -0.4380  0.0564 -0.1053
  114Eth    Hcc 3355   3.025   0.344   2.838  0.5093 -1.4125  0.6871
  114Eth    Hcc 3356   2.850   0.345   2.819 -2.5052  1.5537  3.3164
  114Eth    Hcc 3357   2.935   0.202   2.859 -1.3263 -0.0607  0.2711
  115Eth     Ho 3358   0.058   0.108   9.818 -0.1324 -0.1539  0.2499
  115Eth     Oh 3359   0.054   0.202   9.824  0.8497 -0.1095  0.2186
  115Eth     Co 3360  -0.090   0.225   9.840  0.4733  0.3128  0.1776
  115Eth    Hco 3361  -0.123   0.209   9.942 -0.3214 -1.2836 -0.3101
  115Eth    Hco 3362  -0.146   0.152   9.782  3.3010 -2.4398  0.8246
  115Eth     Ch 3363  -0.123   0.365   9.795 -0.0073  0.2003  0.9576
  115Eth    Hcc 3364  -0.109   0.379   9.687  1.5040  1.6409  1.3320
  115Eth    Hcc 3365  -0.049   0.438   9.827  1.7186 -0.4885 -1.3297
  115Eth    Hcc 3366  -0.225   0.382   9.831 -0.9265 -3.2293  0.2288
  116Eth     Ho 3367   1.644   3.013   6.775 -2.7907 -4.2601  0.1822
  116Eth     Oh 3368   1.665   2.995   6.685  0.0671 -0.0495 -0.1077
  116Eth     Co 3369   1.633   2.862   6.662  0.0554 -0.3189  0.4797
  116Eth    Hco 3370   1.527   2.841   6.678 -0.0710 -0.2045 -0.2215
  116Eth    Hco 3371   1.707   2.792   6.700 -0.6160 -1.4261 -0.2474
  116Eth     Ch 3372   1.628   2.835   6.505 -0.6949 -0.1554  0.0117
  116Eth    Hcc 3373   1.606   2.929   6.456 -0.5250  0.5014  1.1747
  116Eth    Hcc 3374   1.555   2.759   6.477  0.7645 -2.7275  2.8531
  116Eth    Hcc 3375   1.729   2.802   6.480 -1.0424 -2.9298  1.9968
  117Eth     Ho 3376   2.644   1.522   7.741 -0.7941 -0.1596 -2.3356
  117Eth     Oh 3377   2.578   1.456   7.748 -0.9278  0.1612 -0.0466
  117Eth     Co 3378   2.628   1.359   7.837 -0.3025 -1.1599  0.1306
  117Eth    Hco 3379   2.602   1.379   7.941  0.4083 -1.0710  0.2939
  117Eth    Hco 3380   2.733   1.344   7.815 -0.0001  0.2578  0.5668
  117Eth     Ch 3381   2.564   1.222   7.807  0.2740  0.1750 -0.0805
  117Eth    Hcc 3382   2.603   1.141   7.869  1.3983  0.9470  0.2366
  117Eth    Hcc 3383   2.579   1.204   7.700  0.2572  3.9136 -0.8018
  117Eth    Hcc 3384   2.456   1.223   7.822  0.4302 -0.1725  1.1091
  118Eth     Ho 3385   0.740   1.732   2.248  0.4283 -1.4675  0.7454
  118Eth     Oh 3386   0.833   1.741   2.247  0.3215 -0.3548  0.0477
  118Eth     Co 3387   0.858   1.876   2.219  0.1310 -0.7769  0.0240
  118Eth    Hco 3388   0.844   1.921   2.317 -1.0414 -1.3641  0.1280
  118Eth    Hco 3389   0.778   1.931   2.169  1.5558  2.1078  0.8320
  118Eth     Ch 3390   0.988   1.896   2.143 -0.4600  0.0335 -0.1654
  118Eth    Hcc 3391   0.974   1.873   2.037 -0.6060  2.4790 -0.6969
  118Eth    Hcc 3392   1.072   1.839   2.185 -1.3309 -1.1274  0.0294
  118Eth    Hcc 3393   1.011   2.002   2.152  0.4151 -0.1276 -0.4311
  119Eth     Ho 3394   1.836   2.037   4.611  0.9408  0.0687 -2.1127
  119Eth     Oh 3395   1.776   1.965   4.611  0.8395  0.1362 -0.1195
  119Eth     Co 3396   1.857   1.857   4.662 -0.2005  0.1868  0.0783
  119Eth    Hco 3397   1.870   1.859   4.771  1.6177 -0.2898 -0.1151
  119Eth    Hco 3398   1.959   1.850   4.625  0.9064  1.6859  2.6547
  119Eth     Ch 3399   1.791   1.724   4.625  0.5756 -1.3523  0.7358
  119Eth    Hcc 3400   1.865   1.647   4.648  1.3703 -0.9874 -0.4991
  119Eth    Hcc 3401   1.764   1.715   4.520  0.1911  0.0318  0.7071
  119Eth    Hcc 3402   1.703   1.697   4.683 -1.3315  0.1129 -1.4000
  120Eth     Ho 3403   1.807   2.576   8.547 -0.0589  1.2372  1.7519
  120Eth     Oh 3404   1.839   2.645   8.492 -0.0024 -0.1280  0.0171
  120Eth     Co 3405   1.927   2.595   8.398  1.2613 -0.5066  0.1522
  120Eth    Hco 3406   1.883   2.529   8.323  0.0007  0.9364 -0.4115
  120Eth    Hco 3407   1.996   2.539   8.461  1.0590 -0.3095  0.5536
  120Eth     Ch 3408   1.979   2.708   8.329  0.1396 -0.3878 -0.0382
  120Eth    Hcc 3409   2.063   2.682   8.265 -0.3842  3.3323 -2.3884
  120Eth    Hcc 3410   2.014   2.776   8.406  0.1908 -0.7057  0.2208
  120Eth    Hcc 3411   1.904   2.759   8.267  0.9787 -0.5603 -1.2089
  121Eth     Ho 3412   2.863   0.586   3.840 -0.9268 -2.1719 -0.1825
  121Eth     Oh 3413   2.924   0.546   3.899 -0.0693 -0.4567  0.1085
  121Eth     Co 3414   3.052   0.592   3.858  0.4672  0.1105  0.7473
  121Eth    Hco 3415   3.041   0.700   3.844  0.2546 -0.1508 -1.1978
  121Eth    Hco 3416   3.075   0.554   3.759  1.4353 -0.7032  1.2769
  121Eth     Ch 3417   3.158   0.564   3.958  0.5236 -0.1871  0.3512
  121Eth    Hcc 3418   3.245   0.629   3.947  0.1216  0.2793 -0.1482
  121Eth    Hcc 3419   3.187   0.460   3.972  0.3832 -0.3818 -0.7527
  121Eth    Hcc 3420   3.122   0.589   4.057  0.5452  1.0295  0.0680
  122Eth     Ho 3421   1.503   2.489   1.485 -0.0783 -0.0601  0.4407
  122Eth     Oh 3422   1.438   2.427   1.513  0.0628 -0.3326  0.1687
  122Eth     Co 3423   1.487   2.299   1.458  0.4142 -0.0673  0.0399
  122Eth    Hco 3424   1.594   2.284   1.473 -0.1120 -2.2900  1.9505
  122Eth    Hco 3425   1.466   2.317   1.353 -1.2506  0.5357  0.4613
  122Eth     Ch 3426   1.415   2.179   1.501 -0.0685  0.5458 -0.1694
  122Eth    Hcc 3427   1.436   2.097   1.431  0.2313  0.6423 -0.1951
  122Eth    Hcc 3428   1.310   2.203   1.486 -0.4814 -1.0529  0.0931
  122Eth    Hcc 3429   1.436   2.139   1.600  0.0378 -1.7991 -1.0982
  123Eth     Ho 3430   3.214   2.340   1.616 -1.9979  0.2181  1.1413
  123Eth     Oh 3431   3.224   2.431   1.594  0.1206 -0.4433 -0.8303
  123Eth     Co 3432   3.144   2.433   1.475  0.7167  0.1410 -0.9082
  123Eth    Hco 3433   3.066   2.361   1.498  0.9575  0.2787  0.3870
  123Eth    Hco 3434   3.202   2.414   1.385  1.3803  1.1011 -0.6880
  123Eth     Ch 3435   3.077   2.567   1.462 -0.0848  0.1017  0.5038
  123Eth    Hcc 3436   3.152   2.646   1.457 -0.4111  0.4236  0.6989
  123Eth    Hcc 3437   3.011   2.587   1.546  1.0701 -2.2455  2.0403
  123Eth    Hcc 3438   3.021   2.578   1.370  2.9267  1.5464 -1.2342
  124Eth     Ho 3439   0.431   0.308   5.540  0.6823  0.0105 -2.1621
  124Eth     Oh 3440   0.511   0.274   5.577 -0.1972  0.0092 -0.2037
  124Eth     Co 3441   0.486   0.241   5.716 -0.2365 -0.7378  0.3593
  124Eth    Hco 3442   0.452   0.333   5.762 -0.2099  0.4504 -1.9338
  124Eth    Hco 3443   0.575   0.204   5.768  1.2917 -0.6224 -2.0494
  124Eth     Ch 3444   0.372   0.138   5.728 -0.1446  0.1063 -1.0188
  124Eth    Hcc 3445   0.347   0.106   5.829  0.3427 -1.3153 -1.3416
  124Eth    Hcc 3446   0.399   0.048   5.672 -1.4156 -0.4741 -0.7199
  124Eth    Hcc 3447   0.281   0.184   5.689 -0.0810  0.3215 -0.9116
  125Eth     Ho 3448   0.653   1.789   5.190 -1.3639  1.0375 -1.7949
  125Eth     Oh 3449   0.652   1.862   5.249  1.2841  0.0299 -0.4223
  125Eth     Co 3450   0.536   1.872   5.330 -0.4165  0.2922  0.9821
  125Eth    Hco 3451   0.529   1.781   5.389  0.3839 -0.8328 -0.6230
  125Eth    Hco 3452   0.445   1.871   5.270  0.9037  0.6201 -1.0612
  125Eth     Ch 3453   0.561   2.001   5.409 -0.3240 -0.0627 -0.4056
  125Eth    Hcc 3454   0.549   2.084   5.340 -2.0849  0.5601  0.6013
  125Eth    Hcc 3455   0.649   2.012   5.472 -0.9271 -2.0826  0.8461
  125Eth    Hcc 3456   0.483   2.009   5.486 -0.4813  2.1129 -0.7492
  126Eth     Ho 3457   1.013   0.341   1.716 -0.2853 -0.6854 -0.0447
  126Eth     Oh 3458   1.061   0.266   1.683  0.8088 -0.2784  0.6014
  126Eth     Co 3459   1.143   0.300   1.566  0.7813 -0.0569 -0.1854
  126Eth    Hco 3460   1.211   0.379   1.599  0.1063  0.7471 -0.6843
  126Eth    Hco 3461   1.090   0.346   1.482 -1.3433 -0.0413  1.1105
  126Eth     Ch 3462   1.226   0.179   1.533 -0.6197 -0.0980  0.0283
  126Eth    Hcc 3463   1.299   0.149   1.608  1.0011  1.5314 -0.8706
  126Eth    Hcc 3464   1.290   0.187   1.445 -0.5198  0.0756  0.1186
  126Eth    Hcc 3465   1.156   0.095   1.522 -0.3279 -0.2992 -0.3120
  127Eth     Ho 3466   1.632   3.227   3.175 -1.0775 -2.3246 -2.9262
  127Eth     Oh 3467   1.570   3.285   3.135 -0.2823  0.5273 -0.1652
  127Eth     Co 3468   1.647   3.392   3.075  0.9398  0.5269 -0.3377
  127Eth    Hco 3469   1.626   3.400   2.968  1.5597 -1.2082 -0.6042
  127Eth    Hco 3470   1.751   3.360   3.082  0.8414  0.8124  2.9510
  127Eth     Ch 3471   1.620   3.521   3.155 -0.2102 -0.2404  0.6442
  127Eth    Hcc 3472   1.664   3.521   3.255 -0.5238  2.1344  0.8163
  127Eth    Hcc 3473   1.511   3.532   3.160 -0.2322 -1.2833  3.4268
  127Eth    Hcc 3474   1.662   3.610   3.109  1.1492 -1.7926 -1.1760
  128Eth     Ho 3475   1.570   2.149   2.642  1.8214  1.7991 -0.7459
  128Eth     Oh 3476   1.519   2.185   2.572  0.3204 -0.2747 -0.7429
  128Eth     Co 3477   1.604   2.251   2.479 -0.1792 -0.4653 -0.9098
  128Eth    Hco 3478   1.536   2.266   2.396  1.4403 -2.6698 -2.7125
  128Eth    Hco 3479   1.683   2.180   2.452  0.4986  0.2023 -0.6828
  128Eth     Ch 3480   1.661   2.380   2.528 -0.1208 -0.4482 -0.3294
  128Eth    Hcc 3481   1.727   2.367   2.613  1.0986 -2.9389 -1.6020
  128Eth    Hcc 3482   1.570   2.437   2.544 -0.0847  0.4489 -2.9401
  128Eth    Hcc 3483   1.721   2.421   2.446  0.3358 -0.6589 -0.0989
  129Eth     Ho 3484   3.086   2.565   2.586 -0.1288  0.5305 -0.7400
  129Eth     Oh 3485   3.010   2.615   2.609 -0.0505  0.0842  0.5172
  129Eth     Co 3486   2.953   2.553   2.724 -0.0020 -0.0926  0.0740
  129Eth    Hco 3487   3.006   2.596   2.809  1.3301 -1.8076  0.1334
  129Eth    Hco 3488   2.970   2.446   2.729  1.5116  0.2065  1.6218
  129Eth     Ch 3489   2.803   2.586   2.734 -0.3421 -0.4271 -0.7621
  129Eth    Hcc 3490   2.742   2.522   2.798  0.5915 -1.6375 -1.0608
  129Eth    Hcc 3491   2.770   2.575   2.631  0.9758 -2.6182 -0.9901
  129Eth    Hcc 3492   2.784   2.693   2.743 -0.4160 -0.4041 -1.1693
  130Eth     Ho 3493   3.307   1.775   5.106  0.0617 -0.6168  1.2724
  130Eth     Oh 3494   3.291   1.685   5.082  0.0853 -0.3979  0.3932
  130Eth     Co 3495   3.314   1.627   5.202 -0.5780 -0.0114  0.4122
  130Eth    Hco 3496   3.267   1.682   5.283  0.3028  0.4352  0.6331
  130Eth    Hco 3497   3.422   1.629   5.218 -0.2963 -3.8634 -0.5749
  130Eth     Ch 3498   3.269   1.481   5.212 -0.5348 -0.5917  0.9743
  130Eth    Hcc 3499   3.165   1.475   5.178 -0.0036  1.2771 -1.0764
  130Eth    Hcc 3500   3.283   1.437   5.311  0.4397 -0.4658  0.8911
  130Eth    Hcc 3501   3.318   1.406   5.151 -1.5144  0.2305 -0.8624
  131Eth     Ho 3502   0.768   1.044   3.860 -1.6706 -0.0845 -0.7174
  131Eth     Oh 3503   0.751   0.963   3.904  0.2042 -0.0155  0.1717
  131Eth     Co 3504   0.612   0.959   3.924 -0.1083  0.1284 -0.0241
  131Eth    Hco 3505   0.566   1.010   3.840 -2.2259  1.3535  1.8278
  131Eth    Hco 3506   0.579   1.009   4.015  0.7786 -1.0772  0.9928
  131Eth     Ch 3507   0.574   0.809   3.926 -0.9226  0.0661  0.0725
  131Eth    Hcc 3508   0.601   0.759   3.832  0.2893  1.9998 -0.6320
  131Eth    Hcc 3509   0.469   0.786   3.943 -0.9986  1.1141  0.9962
  131Eth    Hcc 3510   0.636   0.758   4.000 -2.2285 -3.6739 -1.2789
  132Eth     Ho 3511   0.868   2.249   5.211 -0.7576  2.5174  0.0042
  132Eth     Oh 3512   0.911   2.252   5.128 -0.0205 -0.2434  0.2414
  132Eth     Co 3513   0.833   2.349   5.061 -0.1716 -0.3309  0.1344
  132Eth    Hco 3514   0.850   2.449   5.102 -2.4886 -0.3292  1.1892
  132Eth    Hco 3515   0.733   2.310   5.080 -0.1206 -1.1368 -1.2550
  132Eth     Ch 3516   0.848   2.350   4.902  0.2133 -0.0095  0.2767
  132Eth    Hcc 3517   0.952   2.382   4.891  0.0190  0.7868  0.6887
  132Eth    Hcc 3518   0.787   2.427   4.854 -0.4560 -1.0189 -0.5199
  132Eth    Hcc 3519   0.823   2.254   4.858  0.6085 -1.1855  2.5515
  133Eth     Ho 3520   2.477   0.782   5.666 -0.8260  0.8086  1.1573
  133Eth     Oh 3521   2.448   0.832   5.592  1.2599 -0.2124 -0.3975
  133Eth     Co 3522   2.452   0.745   5.478 -0.6812  0.4429 -0.6188
  133Eth    Hco 3523   2.379   0.664   5.472  0.4369 -0.5174 -1.4558
  133Eth    Hco 3524   2.548   0.695   5.479 -1.5139 -1.2804 -2.8125
  133Eth     Ch 3525   2.445   0.823   5.352  0.1395 -0.5899  1.1782
  133Eth    Hcc 3526   2.519   0.904   5.354  0.0174 -0.4677  0.8071
  133Eth    Hcc 3527   2.347   0.869   5.346  0.5274 -0.0301 -1.6426
  133Eth    Hcc 3528   2.470   0.771   5.259 -1.6424  1.1199 -0.2972
  134Eth     Ho 3529   2.087   0.084   8.085  0.6213 -0.6949 -0.5233
  134Eth     Oh 3530   2.050   0.121   8.007 -0.3312 -0.0900  0.1989
  134Eth     Co 3531   2.055   0.028   7.903  0.3455 -0.2679  0.3367
  134Eth    Hco 3532   1.984  -0.049   7.932 -2.1046  2.7619  2.6339
  134Eth    Hco 3533   2.155  -0.016   7.896  0.6577  0.0561  2.5229
  134Eth     Ch 3534   2.002   0.086   7.765 -0.5589  0.1967 -0.0102
  134Eth    Hcc 3535   1.894   0.100   7.768 -0.8159 -1.7416  0.9711
  134Eth    Hcc 3536   2.028   0.006   7.696  0.8810 -0.2124  0.9776
  134Eth    Hcc 3537   2.055   0.172   7.725  1.8606 -1.9997 -1.7013
  135Eth     Ho 3538   1.770   0.023   5.151  0.6127  1.0036  1.4734
  135Eth     Oh 3539   1.748  -0.063   5.182  0.1079  0.5956  0.0200
  135Eth     Co 3540   1.812  -0.166   5.111  0.0775 -0.0144 -0.3431
  135Eth    Hco 3541   1.917  -0.176   5.138 -0.9177 -3.1937  2.6809
  135Eth    Hco 3542   1.809  -0.155   5.002 -0.5357 -2.5456 -0.6289
  135Eth     Ch 3543   1.727  -0.301   5.138 -0.0537 -0.0808 -0.6927
  135Eth    Hcc 3544   1.732  -0.332   5.242  3.5389  0.1329 -0.7354
  135Eth    Hcc 3545   1.776  -0.378   5.079 -0.5717  0.5474 -1.9728
  135Eth    Hcc 3546   1.629  -0.277   5.097  0.6050  1.3086 -1.5024
  136Eth     Ho 3547   2.927   3.145   1.609 -0.1139 -0.2555  0.2279
  136Eth     Oh 3548   2.958   3.089   1.541  0.4101  0.2034  0.0912
  136Eth     Co 3549   3.073   3.145   1.489 -0.9139  0.6688 -0.0442
  136Eth    Hco 3550   3.059   3.253   1.484 -0.5776  0.7734  1.2601
  136Eth    Hco 3551   3.090   3.115   1.386  1.4483  1.2751  0.1465
  136Eth     Ch 3552   3.183   3.108   1.593 -0.2308  0.1239 -0.5437
  136Eth    Hcc 3553   3.224   3.008   1.579 -0.5015  0.1028 -1.1783
  136Eth    Hcc 3554   3.152   3.135   1.694  2.8713  1.2768  0.1574
  136Eth    Hcc 3555   3.269   3.171   1.570  0.9976 -1.8371 -1.4519
  137Eth     Ho 3556   2.461   0.636   8.705  0.1624  0.6934  0.0651
  137Eth     Oh 3557   2.507   0.597   8.633  0.0622  0.0023  0.3695
  137Eth     Co 3558   2.450   0.467   8.613  0.2929 -0.5985  0.2945
  137Eth    Hco 3559   2.345   0.467   8.586  0.1671  0.1183  0.7804
  137Eth    Hco 3560   2.449   0.411   8.707 -0.8403 -2.3109 -0.7076
  137Eth     Ch 3561   2.534   0.390   8.511 -0.1850  0.2178  0.2141
  137Eth    Hcc 3562   2.640   0.387   8.536 -0.5351  1.0733  1.8587
  137Eth    Hcc 3563   2.511   0.445   8.420  0.3961 -0.5817 -0.4188
  137Eth    Hcc 3564   2.492   0.289   8.512  0.5115 -0.0717  2.0173
  138Eth     Ho 3565   2.160   1.198   3.627  1.1558  1.3319  0.1854
  138Eth     Oh 3566   2.221   1.176   3.558  1.1797  0.8037  0.3747
  138Eth     Co 3567   2.204   1.036   3.540  0.6671  0.2515  0.2532
  138Eth    Hco 3568   2.100   1.013   3.558  1.3373 -1.7694  1.7133
  138Eth    Hco 3569   2.270   0.991   3.615  0.8054  0.4550  0.2559
  138Eth     Ch 3570   2.245   1.001   3.393 -1.1484  0.4197  0.5516
  138Eth    Hcc 3571   2.334   1.056   3.362 -0.2854  0.5459  3.1241
  138Eth    Hcc 3572   2.160   1.011   3.326 -0.0726 -0.9414 -1.0494
  138Eth    Hcc 3573   2.275   0.896   3.395  0.2610  0.8229  2.4982
  139Eth     Ho 3574   1.733   0.704   1.724  1.6404 -0.5224 -1.0757
  139Eth     Oh 3575   1.749   0.778   1.668 -0.3134  0.3341 -0.5228
  139Eth     Co 3576   1.661   0.775   1.556  0.4970 -0.0237 -0.2703
  139Eth    Hco 3577   1.562   0.754   1.597  0.3928  0.6199 -0.1928
  139Eth    Hco 3578   1.686   0.695   1.485 -1.5899 -0.8338 -0.1367
  139Eth     Ch 3579   1.654   0.922   1.500 -0.1869  0.7763  0.4388
  139Eth    Hcc 3580   1.581   0.949   1.425  0.6378  0.1140 -0.6242
  139Eth    Hcc 3581   1.753   0.941   1.457 -0.3091  0.5151  0.0449
  139Eth    Hcc 3582   1.652   0.998   1.578  1.5113  1.4370 -0.1284
  140Eth     Ho 3583   1.751   1.339   1.511 -0.5793 -1.0726  0.5453
  140Eth     Oh 3584   1.673   1.312   1.557 -1.1090 -0.1199  0.2106
  140Eth     Co 3585   1.567   1.388   1.508  0.2332 -0.5944  0.0372
  140Eth    Hco 3586   1.531   1.350   1.412  0.7550 -1.2353  0.0961
  140Eth    Hco 3587   1.606   1.489   1.500 -2.3111  0.2529 -2.6750
  140Eth     Ch 3588   1.440   1.388   1.605 -0.3363 -0.0797  0.1170
  140Eth    Hcc 3589   1.461   1.401   1.711 -1.7350  0.2628  0.3617
  140Eth    Hcc 3590   1.373   1.303   1.594  1.3458 -1.6739  1.6794
  140Eth    Hcc 3591   1.388   1.478   1.573 -0.4722 -0.4404 -0.6926
  141Eth     Ho 3592   1.383   2.491   2.217 -0.6121  1.3780 -1.1122
  141Eth     Oh 3593   1.467   2.532   2.214  0.1021  0.0104 -0.0998
  141Eth     Co 3594   1.438   2.668   2.246  0.2723 -0.5640 -0.5578
  141Eth    Hco 3595   1.369   2.672   2.330  0.5381  0.4325 -0.3813
  141Eth    Hco 3596   1.378   2.700   2.161  0.3247  0.0059 -0.3785
  141Eth     Ch 3597   1.562   2.755   2.264 -0.0086 -0.3668  0.5827
  141Eth    Hcc 3598   1.637   2.729   2.189 -2.3347  0.1120 -2.0097
  141Eth    Hcc 3599   1.616   2.733   2.355 -0.3403 -0.8099  0.6722
  141Eth    Hcc 3600   1.549   2.864   2.267 -0.5072 -0.2688 -3.1051
  142Eth     Ho 3601   0.302   2.611   8.638 -1.0939 -0.2605  0.9827
  142Eth     Oh 3602   0.239   2.588   8.572  0.0553  0.0886 -0.2801
  142Eth     Co 3603   0.282   2.467   8.518  0.1673 -0.6498 -0.1898
  142Eth    Hco 3604   0.320   2.404   8.599 -0.8183 -0.4160  0.4689
  142Eth    Hco 3605   0.375   2.473   8.463  0.7957 -0.6852  0.8494
  142Eth     Ch 3606   0.184   2.385   8.441  0.4723 -0.8562  0.6094
  142Eth    Hcc 3607   0.108   2.333   8.498 -0.1879 -1.0975 -0.4941
  142Eth    Hcc 3608   0.228   2.317   8.369  2.8618  1.5526 -0.2907
  142Eth    Hcc 3609   0.124   2.452   8.380 -0.6522 -1.0563  1.4918
  143Eth     Ho 3610   1.269   1.882   2.665  0.7032  0.2349  0.6393
  143Eth     Oh 3611   1.217   1.916   2.735 -0.5855 -0.2047 -0.0759
  143Eth     Co 3612   1.257   2.046   2.762 -0.2066 -0.2162 -0.1644
  143Eth    Hco 3613   1.258   2.112   2.675 -1.4911  0.4018  0.2887
  143Eth    Hco 3614   1.363   2.039   2.786 -0.5234 -2.6500  0.6157
  143Eth     Ch 3615   1.179   2.113   2.875  0.2969  0.5650  0.1196
  143Eth    Hcc 3616   1.173   2.060   2.970  1.2051 -0.3400 -0.3249
  143Eth    Hcc 3617   1.072   2.119   2.855  0.0218 -1.2728  0.9463
  143Eth    Hcc 3618   1.204   2.218   2.888  1.5484  0.5267 -1.7594
  144Eth     Ho 3619   0.954   1.670   1.843 -0.1022 -1.5021 -0.2077
  144Eth     Oh 3620   0.891   1.667   1.773  0.1067 -0.0028 -0.4742
  144Eth     Co 3621   0.926   1.767   1.673 -0.3750  0.1871 -0.4000
  144Eth    Hco 3622   1.030   1.798   1.680 -0.0733 -0.7699 -0.6402
  144Eth    Hco 3623   0.873   1.860   1.697  0.3104  0.9307 -1.6919
  144Eth     Ch 3624   0.889   1.719   1.533 -0.1117  0.0566  0.1866
  144Eth    Hcc 3625   0.973   1.664   1.490  0.3531  3.2034 -3.2502
  144Eth    Hcc 3626   0.868   1.812   1.480  0.3374  0.3998  0.6092
  144Eth    Hcc 3627   0.804   1.650   1.531  1.9532 -2.6531  2.1233
  145Eth     Ho 3628   0.175   1.067   1.528 -0.4281  1.4443 -1.1671
  145Eth     Oh 3629   0.250   1.110   1.566 -0.0066 -0.5200  0.3545
  145Eth     Co 3630   0.229   1.247   1.576  0.1659 -0.1301 -0.4162
  145Eth    Hco 3631   0.131   1.257   1.624  0.5012 -1.4426  0.5713
  145Eth    Hco 3632   0.236   1.275   1.471  0.3764  1.9927  0.1493
  145Eth     Ch 3633   0.338   1.314   1.663 -0.0133 -0.6759 -0.0261
  145Eth    Hcc 3634   0.438   1.279   1.639 -0.6879 -0.8411 -2.6989
  145Eth    Hcc 3635   0.325   1.291   1.769  0.2192 -1.5359 -0.1851
  145Eth    Hcc 3636   0.342   1.422   1.647  0.4210 -1.3159 -4.9252
  146Eth     Ho 3637   2.575   2.018   7.618  1.1336 -0.0747  3.4248
  146Eth     Oh 3638   2.659   1.988   7.588 -0.1166 -0.1866 -0.2108
  146Eth     Co 3639   2.662   1.989   7.448  0.4929 -0.3260  0.7485
  146Eth    Hco 3640   2.645   2.091   7.411 -0.6082  0.1417  2.4778
  146Eth    Hco 3641   2.586   1.924   7.403  1.4551 -0.5948 -0.5088
  146Eth     Ch 3642   2.790   1.924   7.404  0.8188  0.6646  0.4572
  146Eth    Hcc 3643   2.825   1.850   7.475 -0.5189  0.7963  1.2697
  146Eth    Hcc 3644   2.862   2.005   7.420  0.7791  1.2229 -2.0067
  146Eth    Hcc 3645   2.792   1.892   7.300 -2.0576  0.6646  0.3737
  147Eth     Ho 3646   1.734   2.271   9.371  0.7553 -1.2107  0.3971
  147Eth     Oh 3647   1.705   2.198   9.319 -0.1381 -0.5151 -0.0982
  147Eth     Co 3648   1.680   2.255   9.198  0.2985  0.3043  0.4214
  147Eth    Hco 3649   1.778   2.247   9.152  0.7366 -0.7101  1.5201
  147Eth    Hco 3650   1.657   2.359   9.219 -0.3487 -0.0192  1.3702
  147Eth     Ch 3651   1.577   2.170   9.124  0.0314 -0.5734 -0.0117
  147Eth    Hcc 3652   1.523   2.235   9.055 -2.9109 -0.9512  1.8108
  147Eth    Hcc 3653   1.508   2.121   9.193  3.0781 -1.9190  2.1658
  147Eth    Hcc 3654   1.617   2.085   9.069  0.7383 -0.1688 -0.1302
  148Eth     Ho 3655   1.973   1.071   2.110  0.2440 -0.4012  0.3738
  148Eth     Oh 3656   1.975   1.059   2.203  0.3370  0.0726  0.4322
  148Eth     Co 3657   2.003   1.191   2.261 -0.2290  0.0286  0.4817
  148Eth    Hco 3658   1.915   1.249   2.232 -0.2948 -0.7751 -0.9629
  148Eth    Hco 3659   2.086   1.243   2.213 -0.0192 -0.7680 -0.0250
  148Eth     Ch 3660   2.023   1.183   2.414 -0.4594  0.5794 -0.3376
  148Eth    Hcc 3661   2.114   1.125   2.427 -0.2562  0.7296 -1.0801
  148Eth    Hcc 3662   1.935   1.130   2.452  0.0200 -0.4534 -0.6564
  148Eth    Hcc 3663   2.020   1.287   2.445  0.3206  0.6672 -0.5417
  149Eth     Ho 3664   2.965   0.140   7.976  1.1869  1.0178 -0.9326
  149Eth     Oh 3665   2.932   0.138   7.888 -0.0586 -0.3323 -0.4601
  149Eth     Co 3666   2.801   0.201   7.905  0.6586 -0.0656 -0.1574
  149Eth    Hco 3667   2.819   0.292   7.963 -2.6773  1.3689 -1.2621
  149Eth    Hco 3668   2.724   0.138   7.950  1.6447  0.4319  2.3244
  149Eth     Ch 3669   2.731   0.244   7.774 -0.4217 -0.2854  0.6888
  149Eth    Hcc 3670   2.790   0.324   7.730  1.1548 -1.2251  1.0617
  149Eth    Hcc 3671   2.633   0.275   7.809 -0.6705 -0.4125  0.1101
  149Eth    Hcc 3672   2.719   0.174   7.691  0.0882  1.4452 -0.8764
  150Eth     Ho 3673   2.557   3.187   3.109 -0.6437  0.3935 -1.5680
  150Eth     Oh 3674   2.505   3.108   3.111 -0.1565  0.1036  0.5603
  150Eth     Co 3675   2.559   3.038   3.220  0.2197  0.5896 -0.3913
  150Eth    Hco 3676   2.548   3.112   3.299  0.7913 -0.0232  0.2662
  150Eth    Hco 3677   2.658   3.001   3.195 -0.7554 -0.6684 -2.5760
  150Eth     Ch 3678   2.470   2.921   3.252  0.3234  0.3666  0.3105
  150Eth    Hcc 3679   2.522   2.878   3.337 -0.1601 -0.7269  0.0528
  150Eth    Hcc 3680   2.465   2.850   3.170  0.8350  1.1102 -0.3776
  150Eth    Hcc 3681   2.373   2.962   3.282 -0.1092 -1.2562  1.1398
  151Eth     Ho 3682   0.413   1.630  10.004  0.6984  0.3812 -0.4266
  151Eth     Oh 3683   0.444   1.586   9.927  0.3728 -0.7132  0.0563
  151Eth     Co 3684   0.579   1.621   9.921 -0.1114 -0.4199  0.3972
  151Eth    Hco 3685   0.617   1.599  10.021 -0.2175 -2.3571  0.0407
  151Eth    Hco 3686   0.591   1.727   9.903 -3.8739  0.0678  0.3753
  151Eth     Ch 3687   0.649   1.533   9.821  0.4810  0.4876  0.0329
  151Eth    Hcc 3688   0.758   1.539   9.820  0.5366 -0.5191 -1.8329
  151Eth    Hcc 3689   0.620   1.563   9.721  1.4751  2.5021  0.3233
  151Eth    Hcc 3690   0.633   1.425   9.827  0.1418  0.6439  2.2234
  152Sol     OW 3691   0.298   3.399   5.092 -0.8917  0.5866  0.1931
  152Sol     HW 3692   0.278   3.331   5.028  0.8517  0.4343 -0.2124
  152Sol     HW 3693   0.292   3.481   5.043  0.0759  0.4933 -0.1101
  152Sol     MW 3694   0.296   3.400   5.082 -0.5687 -0.2934  0.5235
  153Sol     OW 3695   0.875   2.480   7.741  0.3247 -0.4264 -0.3053
  153Sol     HW 3696   0.861   2.568   7.705 -0.0441 -1.8466 -3.8912
  153Sol     HW 3697   0.794   2.432   7.719  0.3649 -1.5863  1.9373
  153Sol     MW 3698   0.866   2.483   7.736  0.0234 -0.6773  0.3209
  154Sol     OW 3699   2.267   0.494   7.402  0.4200 -0.5294 -0.0703
  154Sol     HW 3700   2.332   0.553   7.439 -0.1557 -0.4649  0.8383
  154Sol     HW 3701   2.244   0.533   7.317  0.0835  0.5159  0.4961
  154Sol     MW 3702   2.271   0.502   7.397  0.1353  0.9360 -0.6167
  155Sol     OW 3703   2.831   2.098   4.396 -0.0049  0.1446  0.4424
  155Sol     HW 3704   2.865   2.039   4.463  0.9830 -0.0287 -0.2118
  155Sol     HW 3705   2.736   2.097   4.409 -0.0203 -1.7609  0.3086
  155Sol     MW 3706   2.825   2.093   4.403 -0.0798  0.5370 -0.4361
  156Sol     OW 3707   1.871   0.469   7.659  0.3898  0.6720  0.4503
  156Sol     HW 3708   1.896   0.452   7.750  0.5959 -1.8790 -0.0431
  156Sol     HW 3709   1.837   0.386   7.627  1.1905  1.2600 -2.0966
  156Sol     MW 3710   1.870   0.460   7.664 -0.4431  0.4099  0.3293
  157Sol     OW 3711   0.857   0.005   3.715 -0.3848  0.1554 -0.3494
  157Sol     HW 3712   0.832  -0.052   3.788 -0.3777 -1.1721 -1.3732
  157Sol     HW 3713   0.813  -0.032   3.639  2.1993 -0.4075 -1.6200
  157Sol     MW 3714   0.851  -0.003   3.715  0.0220  0.5047 -0.0579
  158Sol     OW 3715   0.884   3.188   4.161 -0.0223 -0.3887  0.2295
  158Sol     HW 3716   0.903   3.099   4.189 -1.2585 -1.6258 -2.7044
  158Sol     HW 3717   0.964   3.216   4.116 -0.0691 -0.4692  0.0955
  158Sol     MW 3718   0.893   3.183   4.160 -0.3443 -0.0817  0.9114
  159Sol     OW 3719   2.597   0.983   2.556 -0.3252  0.2517  0.2875
  159Sol     HW 3720   2.601   1.068   2.600  1.2603  0.3422 -0.0137
  159Sol     HW 3721   2.569   0.921   2.623 -1.3727  0.9848  0.5366
  159Sol     MW 3722   2.595   0.985   2.566  0.6467 -0.3369 -0.5300
  160Sol     OW 3723   3.125   0.771   9.258  0.1576  0.4082  0.1246
  160Sol     HW 3724   3.204   0.778   9.311  0.3360  0.3443 -0.1290
  160Sol     HW 3725   3.146   0.703   9.193  0.2228  1.0222 -0.5022
  160Sol     MW 3726   3.134   0.765   9.257  0.4242  0.1658 -0.1431
  161Sol     OW 3727   0.910   2.683   8.814 -0.2068  0.4299  0.0314
  161Sol     HW 3728   0.832   2.664   8.866  0.0567  2.5947  1.2581
  161Sol     HW 3729   0.983   2.646   8.864 -0.1188  1.1560  0.4433
  161Sol     MW 3730   0.910   2.678   8.823  0.0523 -0.1387  0.3091
  162Sol     OW 3731   0.150   0.890   4.063 -0.2737 -0.3598 -0.2201
  162Sol     HW 3732   0.216   0.959   4.064  0.2393 -0.8383  1.3150
  162Sol     HW 3733   0.197   0.811   4.088 -0.9530 -1.1931 -1.5258
  162Sol     MW 3734   0.160   0.889   4.066  0.5118  0.1623 -0.1243
  163Sol     OW 3735   0.087   0.951   3.371  0.1052 -0.1207  0.2079
  163Sol     HW 3736   0.118   0.954   3.462 -1.8086 -1.4255  0.9441
  163Sol     HW 3737   0.037   0.869   3.366  0.8119 -0.4239 -2.2362
  163Sol     MW 3738   0.085   0.944   3.379 -0.2483 -0.3926  0.3880
  164Sol     OW 3739   2.151   2.517   5.929  0.3610  0.9006 -0.1143
  164Sol     HW 3740   2.202   2.586   5.887  2.1308 -1.0162 -1.1657
  164Sol     HW 3741   2.136   2.549   6.018  3.8122  1.2948  0.3623
  164Sol     MW 3742   2.154   2.526   5.933  0.5229 -0.1049 -0.1650
  165Sol     OW 3743   2.238   2.605   3.466  0.5501 -0.0976 -0.6358
  165Sol     HW 3744   2.213   2.595   3.374  1.3429 -0.5385 -0.8148
  165Sol     HW 3745   2.167   2.563   3.515 -0.7008  1.6121 -0.9576
  165Sol     MW 3746   2.229   2.600   3.462 -0.2005  0.1849  0.1656
  166Sol     OW 3747   2.989   1.787   2.162 -0.2421 -0.3695  0.5361
  166Sol     HW 3748   3.009   1.772   2.069  0.6609  0.9092  0.5229
  166Sol     HW 3749   2.919   1.725   2.181 -0.1460 -0.9379 -0.8958
  166Sol     MW 3750   2.985   1.780   2.155  0.0366 -0.2795 -0.6345
  167Sol     OW 3751   2.753   2.410   3.231 -0.1508 -0.0043 -0.0319
  167Sol     HW 3752   2.783   2.478   3.171  0.2759  0.0392  0.2280
  167Sol     HW 3753   2.700   2.457   3.296  0.3781  0.1260  0.3112
  167Sol     MW 3754   2.751   2.420   3.231  0.2949 -0.1429  0.2167
  168Sol     OW 3755   3.089   1.709   3.818 -0.0866  0.9109  0.2369
  168Sol     HW 3756   3.071   1.757   3.738  0.9989  1.4007  0.2775
  168Sol     HW 3757   3.051   1.762   3.887 -2.1463 -0.1457 -0.0619
  168Sol     MW 3758   3.084   1.718   3.817  0.1653 -0.9847  0.3907
  169Sol     OW 3759   0.139   1.295   7.184 -0.1813  0.0487  0.4254
  169Sol     HW 3760   0.087   1.344   7.119  0.1418  0.0020  0.1319
  169Sol     HW 3761   0.174   1.363   7.242  0.9826  0.2587 -0.4913
  169Sol     MW 3762   0.137   1.306   7.183  0.5256 -0.7352  0.3194
  170Sol     OW 3763   2.750   2.412   9.057  0.1708  0.0912  0.0725
  170Sol     HW 3764   2.775   2.501   9.033 -1.5177  0.5188 -0.1894
  170Sol     HW 3765   2.731   2.369   8.974  0.4485 -0.3415  0.2352
  170Sol     MW 3766   2.751   2.416   9.048  0.1761 -0.6346  0.0962
  171Sol     OW 3767   0.295   0.703   6.853 -0.2760 -0.1072 -0.0723
  171Sol     HW 3768   0.385   0.736   6.861 -0.7723  1.2294  0.1458
  171Sol     HW 3769   0.240   0.779   6.872 -1.4651 -0.5249 -1.7093
  171Sol     MW 3770   0.298   0.713   6.855  1.3310 -0.3120  0.3255
  172Sol     OW 3771   0.215   1.158   7.668 -0.3108 -0.0730  0.1686
  172Sol     HW 3772   0.299   1.124   7.698  0.2546  1.0509 -0.0954
  172Sol     HW 3773   0.182   1.092   7.607  0.5780 -0.3289 -0.0365
  172Sol     MW 3774   0.219   1.149   7.665 -0.8089  0.1062  0.1179
  173Sol     OW 3775   3.278   0.295   5.178  0.4748  0.5933  0.1632
  173Sol     HW 3776   3.185   0.279   5.166  0.8257 -1.2461 -0.2821
  173Sol     HW 3777   3.295   0.272   5.269  0.7879 -0.5809 -0.1902
  173Sol     MW 3778   3.272   0.292   5.185 -0.2255  0.0352  0.0666
  174Sol     OW 3779   2.944   0.246   9.630  0.0999  0.0545 -0.6057
  174Sol     HW 3780   2.957   0.180   9.698  1.2105 -0.0106 -0.8618
  174Sol     HW 3781   2.956   0.330   9.676  2.0214 -0.0154 -0.9288
  174Sol     MW 3782   2.946   0.248   9.640 -0.6737 -0.1711  0.0152
  175Sol     OW 3783   2.931   1.940   4.669  0.7490  0.2642  0.1577
  175Sol     HW 3784   2.996   1.872   4.653  0.6268  0.4366 -1.0994
  175Sol     HW 3785   2.925   1.946   4.765  2.6305  0.3064  0.2824
  175Sol     MW 3786   2.936   1.935   4.676 -0.5377  0.4175  1.2080
  176Sol     OW 3787   0.289   0.430   3.162 -0.3446 -0.0130  0.5071
  176Sol     HW 3788   0.322   0.426   3.072  0.7841  0.0874  0.9006
  176Sol     HW 3789   0.306   0.343   3.198 -0.1050  0.1745  0.8511
  176Sol     MW 3790   0.294   0.422   3.157  0.1964 -0.4163 -0.4951
  177Sol     OW 3791   0.810   0.194   5.949  0.5634 -0.3874  0.0955
  177Sol     HW 3792   0.827   0.242   6.030 -3.0928  1.9713 -0.4418
  177Sol     HW 3793   0.757   0.119   5.976 -1.1004  0.6835 -0.1242
  177Sol     MW 3794   0.807   0.191   5.959 -0.6002  0.1547  0.2791
  178Sol     OW 3795   2.134   1.317   9.180  0.0153  0.2855  0.5868
  178Sol     HW 3796   2.196   1.365   9.235 -0.1724  0.5082  0.6020
  178Sol     HW 3797   2.069   1.282   9.241  0.1191  0.0622  0.5696
  178Sol     MW 3798   2.134   1.318   9.190 -0.0417 -0.1759 -0.1779
  179Sol     OW 3799   2.819   2.677   9.009  0.4294  0.6115  0.5111
  179Sol     HW 3800   2.747   2.739   8.998 -0.6482 -0.8530 -0.9387
  179Sol     HW 3801   2.872   2.686   8.930  0.0604 -0.5397  0.1119
  179Sol     MW 3802   2.817   2.683   9.001  0.5572 -0.2215 -0.3528
  180Sol     OW 3803   1.141   3.228   4.769  0.5003 -0.2123 -0.4076
  180Sol     HW 3804   1.215   3.213   4.827 -1.1861  0.7482  2.1073
  180Sol     HW 3805   1.096   3.144   4.764 -1.1862  0.4686  2.4123
  180Sol     MW 3806   1.144   3.219   4.774  0.0515 -0.2540 -0.2936
  181Sol     OW 3807   2.427   3.429   2.897 -0.1948  0.0917  0.8259
  181Sol     HW 3808   2.507   3.388   2.930 -1.6059 -1.4624  2.4342
  181Sol     HW 3809   2.394   3.369   2.831  0.3835  1.1434 -0.4440
  181Sol     MW 3810   2.431   3.420   2.894  0.7418  0.1803 -0.5447
  182Sol     OW 3811   2.094   2.317   4.513  0.2032 -0.2848 -0.2589
  182Sol     HW 3812   2.122   2.231   4.543  0.7711 -0.0838 -0.1940
  182Sol     HW 3813   1.999   2.311   4.506  0.1752 -0.7118  0.3968
  182Sol     MW 3814   2.088   2.309   4.515  0.1467 -0.3716  0.3375
  183Sol     OW 3815   0.483   3.091   9.320 -0.8897  0.0504  0.2716
  183Sol     HW 3816   0.550   3.130   9.265 -0.8884 -1.0714 -0.5266
  183Sol     HW 3817   0.405   3.087   9.264 -1.5018  0.8803  1.0312
  183Sol     MW 3818   0.482   3.094   9.310 -0.1756  0.2769 -0.2652
  184Sol     OW 3819   0.283   0.642   4.784  0.8524 -0.3462  0.4301
  184Sol     HW 3820   0.233   0.648   4.703  2.0102  1.1155 -0.1908
  184Sol     HW 3821   0.223   0.674   4.852  0.2688 -0.5196 -0.0016
  184Sol     MW 3822   0.273   0.645   4.783  0.0438 -0.2989  0.2052
  185Sol     OW 3823   2.318   0.939   6.534  0.2283  0.2964 -0.2495
  185Sol     HW 3824   2.402   0.906   6.567 -1.0385 -2.2631  0.5898
  185Sol     HW 3825   2.280   0.986   6.608  0.4002  0.4656 -0.2668
  185Sol     MW 3826   2.322   0.940   6.544 -0.1108 -0.0555  0.2970
  186Sol     OW 3827   2.642   2.128   3.305 -0.2954  0.6909  0.1987
  186Sol     HW 3828   2.622   2.060   3.369  0.4780  1.1347  0.9220
  186Sol     HW 3829   2.732   2.154   3.325  0.4834 -0.1792 -1.9876
  186Sol     MW 3830   2.649   2.124   3.313  0.5341  0.0605  0.6122
  187Sol     OW 3831   2.081   1.696   3.889 -0.1814 -0.5644  0.2110
  187Sol     HW 3832   2.154   1.673   3.833 -0.7589 -1.8364 -0.0181
  187Sol     HW 3833   2.044   1.613   3.917 -0.8718  0.0627  1.2058
  187Sol     MW 3834   2.084   1.687   3.887  0.1977 -0.1710  0.3667
  188Sol     OW 3835   2.095   2.954   5.834  0.3453  0.2788 -0.7186
  188Sol     HW 3836   2.036   2.966   5.909  2.8292  0.6998  1.2377
  188Sol     HW 3837   2.079   2.864   5.806 -0.1795 -0.1044  0.7248
  188Sol     MW 3838   2.088   2.947   5.838  0.2512  0.2656 -0.4622
  189Sol     OW 3839   0.751   1.073   4.816 -0.6848  0.2882 -0.3579
  189Sol     HW 3840   0.807   0.997   4.799 -1.9412 -0.8136  0.3073
  189Sol     HW 3841   0.664   1.036   4.827 -1.6488  2.0407 -1.8856
  189Sol     MW 3842   0.748   1.062   4.815  1.1316  0.1868 -0.3313
  190Sol     OW 3843   0.611   2.384   6.897  0.4005  0.3054 -0.7980
  190Sol     HW 3844   0.581   2.448   6.832 -1.2026  0.3753 -0.0148
  190Sol     HW 3845   0.543   2.318   6.899  0.6646  0.0639  0.4727
  190Sol     MW 3846   0.602   2.384   6.891 -0.1422 -0.2067 -0.3204
  191Sol     OW 3847   0.697   0.234   9.563  0.4737 -0.1170  0.3847
  191Sol     HW 3848   0.776   0.234   9.617  0.9031  1.0569 -0.2223
  191Sol     HW 3849   0.625   0.239   9.626  0.9129 -0.4217  0.9156
  191Sol     MW 3850   0.698   0.235   9.574 -0.1476  0.7389 -0.0141
  192Sol     OW 3851   0.679   1.656   5.639 -0.2793  0.6293  0.1564
  192Sol     HW 3852   0.584   1.662   5.635 -0.2124  1.2452 -1.1199
  192Sol     HW 3853   0.698   1.564   5.622 -0.6405  0.5672  0.0835
  192Sol     MW 3854   0.672   1.648   5.637  0.3432 -0.4822 -0.6365
  193Sol     OW 3855   1.995   2.159   3.687 -0.2852  0.0999 -0.5163
  193Sol     HW 3856   1.948   2.076   3.679 -3.0090  1.5435 -0.0178
  193Sol     HW 3857   2.011   2.168   3.781  1.2239 -0.4834 -0.7025
  193Sol     MW 3858   1.992   2.153   3.695 -0.3466  0.3698  0.5828
  194Sol     OW 3859   0.227   1.336   8.288  0.0272  0.0416 -0.3188
  194Sol     HW 3860   0.286   1.385   8.345  0.7630  0.8964 -1.8014
  194Sol     HW 3861   0.180   1.403   8.239 -0.8963 -0.6827 -0.4390
  194Sol     MW 3862   0.228   1.347   8.289 -0.1389 -0.0833 -0.2011
  195Sol     OW 3863   2.710   1.032   7.531 -0.0335  0.0477 -0.1875
  195Sol     HW 3864   2.776   1.101   7.522  2.1442 -1.7760  1.0366
  195Sol     HW 3865   2.663   1.033   7.448  0.8487  2.0866 -0.7113
  195Sol     MW 3866   2.712   1.038   7.523 -0.1570  0.6022 -0.0439
  196Sol     OW 3867   2.073   3.258   8.401  0.0255  0.1660  0.5426
  196Sol     HW 3868   2.024   3.188   8.443 -0.2806  0.6733  1.0478
  196Sol     HW 3869   2.017   3.335   8.411 -1.1677 -0.1668 -2.9048
  196Sol     MW 3870   2.064   3.259   8.406  0.5466 -0.1523 -0.2114
  197Sol     OW 3871   0.291   3.256   9.837  0.5322 -0.3195 -0.0592
  197Sol     HW 3872   0.386   3.262   9.827  0.5438  0.2067  0.3568
  197Sol     HW 3873   0.268   3.173   9.795  1.1229 -0.2509 -0.5299
  197Sol     MW 3874   0.298   3.249   9.833  1.0471 -0.3465  0.1256
  198Sol     OW 3875   2.405   0.681   9.836 -0.4505  0.1985 -0.3271
  198Sol     HW 3876   2.445   0.725   9.761  0.1230  0.9187  0.3860
  198Sol     HW 3877   2.335   0.740   9.864 -0.9762 -0.2975 -0.5874
  198Sol     MW 3878   2.402   0.691   9.832 -0.3332 -0.0570 -0.1078
  199Sol     OW 3879   1.111   1.261   5.557  0.0703 -0.4106 -0.0346
  199Sol     HW 3880   1.204   1.236   5.552  0.2741 -0.0319  1.5253
  199Sol     HW 3881   1.064   1.187   5.518  1.0629 -0.3138 -1.4522
  199Sol     MW 3882   1.115   1.252   5.553  0.1609 -0.6746 -0.6231
  200Sol     OW 3883   3.050   1.728   6.214  0.0205 -0.5217  0.1579
  200Sol     HW 3884   3.110   1.803   6.218  0.5705 -0.8971 -0.9143
  200Sol     HW 3885   3.053   1.701   6.123 -1.4460 -0.8240  0.1939
  200Sol     MW 3886   3.056   1.733   6.206  0.1835 -0.0173  0.0862
  201Sol     OW 3887   2.277   1.562   1.683  0.1705 -1.0768 -0.2824
  201Sol     HW 3888   2.246   1.476   1.710  0.8381 -1.1838  0.1627
  201Sol     HW 3889   2.209   1.623   1.712  0.8683 -1.1896  1.6701
  201Sol     MW 3890   2.268   1.560   1.688  0.7911 -0.2263 -0.1105
  202Sol     OW 3891   2.957   0.650   9.896  0.1568 -0.4504  0.1585
  202Sol     HW 3892   2.868   0.639   9.861  0.7107 -2.1549 -0.8037
  202Sol     HW 3893   2.944   0.680   9.986 -1.3597  1.1216 -0.5603
  202Sol     MW 3894   2.948   0.651   9.901  0.8652  0.1547  0.1007
  203Sol     OW 3895   1.465   1.461   9.607 -1.1128  0.7233  0.1104
  203Sol     HW 3896   1.384   1.472   9.557 -1.5593  0.0046  0.6734
  203Sol     HW 3897   1.441   1.403   9.679  0.1687 -0.4297 -0.3752
  203Sol     MW 3898   1.456   1.457   9.609  0.0684  0.4604 -0.6466
  204Sol     OW 3899   2.649   2.111   1.472  1.0738  0.0728  0.0066
  204Sol     HW 3900   2.662   2.092   1.379  0.3637 -1.1431  0.1525
  204Sol     HW 3901   2.632   2.205   1.475 -1.9277 -0.3802 -1.4375
  204Sol     MW 3902   2.649   2.118   1.464 -0.0565  0.2977 -0.1066
  205Sol     OW 3903   2.516   2.369   6.218  0.5183  0.1197  0.0491
  205Sol     HW 3904   2.564   2.287   6.221  0.6255  0.1982  0.5525
  205Sol     HW 3905   2.471   2.368   6.133  2.1516  0.4633 -0.8383
  205Sol     MW 3906   2.516   2.362   6.211  0.4726  0.0641 -0.3353
  206Sol     OW 3907   0.627   2.770   2.073 -0.4609  0.5583 -0.3526
  206Sol     HW 3908   0.636   2.825   1.995 -0.1347  0.2385 -0.5399
  206Sol     HW 3909   0.618   2.681   2.039 -1.0477  0.4963 -0.0501
  206Sol     MW 3910   0.627   2.767   2.063  0.9717 -0.3301 -0.3179
  207Sol     OW 3911   2.221   1.363   3.379  0.1559  0.3247 -0.7366
  207Sol     HW 3912   2.201   1.446   3.423  0.7630  0.4332 -0.6614
  207Sol     HW 3913   2.213   1.297   3.448  1.4812  0.5376 -0.3596
  207Sol     MW 3914   2.219   1.364   3.389  0.1400  0.3872 -0.1210
  208Sol     OW 3915   2.986   1.719   9.127 -0.1422  0.3519  0.3503
  208Sol     HW 3916   3.009   1.787   9.190 -3.0519  0.5339  1.2596
  208Sol     HW 3917   3.042   1.645   9.150  3.4344  2.5052 -0.9585
  208Sol     MW 3918   2.993   1.718   9.135 -0.3004 -0.1348 -0.8595
  209Sol     OW 3919   2.201   3.358   9.784  0.0177  1.0652 -0.0037
  209Sol     HW 3920   2.232   3.403   9.862 -0.2848  0.5788  0.4049
  209Sol     HW 3921   2.246   3.401   9.711  1.0847  0.8410  0.5164
  209Sol     MW 3922   2.208   3.366   9.784 -0.0667  0.3427  0.6566
  210Sol     OW 3923   3.211   2.004   3.945  0.2180  0.6513  0.5859
  210Sol     HW 3924   3.119   1.978   3.950  0.5201 -0.7448 -0.7385
  210Sol     HW 3925   3.217   2.052   3.862  0.5733  1.2751  0.9642
  210Sol     MW 3926   3.203   2.006   3.938  0.2459 -0.2963 -0.6680
  211Sol     OW 3927   1.256   1.549   6.794 -0.6461  0.0331  0.3171
  211Sol     HW 3928   1.303   1.627   6.824 -3.1678  1.6420  0.1880
  211Sol     HW 3929   1.268   1.485   6.865  0.5124  0.8944  0.9131
  211Sol     MW 3930   1.261   1.550   6.803 -0.1183  0.2340 -0.0946
  212Sol     OW 3931   1.156   2.598   4.281 -0.4749 -0.4699  0.1854
  212Sol     HW 3932   1.191   2.610   4.193  0.0136 -0.4292  0.3855
  212Sol     HW 3933   1.233   2.604   4.339 -1.2683  3.4101  0.9777
  212Sol     MW 3934   1.166   2.599   4.278 -0.4293  0.0567  0.1241
  213Sol     OW 3935   2.150   1.856   3.393  0.2319  0.4668  0.5079
  213Sol     HW 3936   2.188   1.932   3.439 -1.5138  0.6838  1.6375
  213Sol     HW 3937   2.218   1.789   3.398  0.2105  0.6062  3.1219
  213Sol     MW 3938   2.159   1.857   3.398  0.2882 -0.1107 -0.1864
  214Sol     OW 3939   1.627   0.908   5.313  0.3643 -0.0964 -0.5123
  214Sol     HW 3940   1.596   0.840   5.253  1.0841 -1.5866  0.7595
  214Sol     HW 3941   1.709   0.938   5.274 -0.6392  1.0732 -1.8108
  214Sol     MW 3942   1.631   0.904   5.304  0.3482  0.4964 -0.9301
  215Sol     OW 3943   0.340   0.185   3.279 -0.9112  0.3661  0.5276
  215Sol     HW 3944   0.416   0.191   3.337 -0.4624 -0.5006  0.0436
  215Sol     HW 3945   0.368   0.124   3.210 -2.1572 -0.2099  0.5249
  215Sol     MW 3946   0.350   0.180   3.278 -0.1011 -0.1152  0.1671
  216Sol     OW 3947   1.864   2.428   5.538  0.6975 -1.3342 -0.4453
  216Sol     HW 3948   1.923   2.415   5.463  2.5499  0.0950  0.7142
  216Sol     HW 3949   1.921   2.421   5.615 -0.8389 -0.8693  0.7601
  216Sol     MW 3950   1.875   2.426   5.538 -0.2279  0.7290  0.1224
  217Sol     OW 3951   3.306   2.722   5.909  0.1369  0.2965  0.0813
  217Sol     HW 3952   3.337   2.725   5.818 -1.7682  0.7826 -0.5828
  217Sol     HW 3953   3.271   2.810   5.925 -1.1041 -0.2988  0.7015
  217Sol     MW 3954   3.305   2.730   5.902 -0.2844  0.5441  0.5550
  218Sol     OW 3955   1.885   2.382   6.134 -0.2321  0.2617  0.0658
  218Sol     HW 3956   1.843   2.299   6.155  0.2288 -0.1458 -0.6150
  218Sol     HW 3957   1.831   2.420   6.065  0.1367  0.0472 -0.3429
  218Sol     MW 3958   1.877   2.378   6.130 -0.3373 -0.0360  0.2252
  219Sol     OW 3959   1.358   2.653   2.701 -0.3055  0.6353  0.0679
  219Sol     HW 3960   1.381   2.560   2.706 -0.3051  0.7057  2.0258
  219Sol     HW 3961   1.442   2.698   2.704 -0.3669  0.7258  0.4411
  219Sol     MW 3962   1.368   2.648   2.702  0.0543  0.7331 -0.3638
  220Sol     OW 3963   3.102   3.378   7.146 -0.0006 -0.3642  0.4175
  220Sol     HW 3964   3.070   3.413   7.062  0.0560  2.0358  1.3623
  220Sol     HW 3965   3.023   3.371   7.200  0.4475  1.4664  1.3239
  220Sol     MW 3966   3.092   3.380   7.143  0.2914  0.1358  0.3765
  221Sol     OW 3967   0.400   0.163   8.499  0.0224  0.2586 -0.1371
  221Sol     HW 3968   0.420   0.076   8.466 -1.9577 -0.6523  0.9518
  221Sol     HW 3969   0.364   0.210   8.423  1.1315  0.1413 -0.7316
  221Sol     MW 3970   0.398   0.160   8.489 -0.5865 -0.1699 -0.4947
  222Sol     OW 3971   3.127   0.902   6.028  0.4336  0.4013 -0.5344
  222Sol     HW 3972   3.162   0.970   5.971 -0.1065  0.1266 -1.1943
  222Sol     HW 3973   3.038   0.888   5.997 -0.4830  1.4733  1.4641
  222Sol     MW 3974   3.122   0.907   6.020 -0.1497 -0.5241  0.6492
  223Sol     OW 3975   0.053   0.153   6.475  0.1966  0.0559  0.0267
  223Sol     HW 3976   0.015   0.127   6.559  0.2255  0.7499  0.2592
  223Sol     HW 3977   0.011   0.095   6.411 -0.1818 -0.1535  0.4591
  223Sol     MW 3978   0.046   0.146   6.477  0.4879 -0.2577 -0.6194
  224Sol     OW 3979   1.957   0.950   1.662  0.2845  0.1909  0.2532
  224Sol     HW 3980   1.950   1.011   1.588  2.1402 -1.5345 -1.4232
  224Sol     HW 3981   1.892   0.883   1.645  2.0993 -1.3234 -0.9863
  224Sol     MW 3982   1.951   0.950   1.654 -0.9982 -0.1794 -0.6266
  225Sol     OW 3983   1.209   0.234   2.133  0.2673 -0.0199 -0.4848
  225Sol     HW 3984   1.152   0.175   2.083  1.2780  0.6299 -2.4940
  225Sol     HW 3985   1.268   0.175   2.181 -0.1550 -0.6683 -0.7507
  225Sol     MW 3986   1.209   0.223   2.132  0.2485  0.3392  0.0414
  226Sol     OW 3987   1.326   1.431   9.012  0.1656  0.2664  0.6230
  226Sol     HW 3988   1.310   1.510   8.960 -0.3600 -0.0461  0.3035
  226Sol     HW 3989   1.313   1.359   8.950 -0.4303 -0.1078  1.1799
  226Sol     MW 3990   1.324   1.432   9.002 -0.3175 -0.3919 -0.0280
  227Sol     OW 3991   1.723   2.405   2.179  0.5083 -0.1967  0.0984
  227Sol     HW 3992   1.652   2.462   2.208 -0.2362 -0.7446 -0.6493
  227Sol     HW 3993   1.682   2.320   2.164  1.7439 -1.1615  1.9183
  227Sol     MW 3994   1.713   2.403   2.181 -0.0390  0.9929  0.1607
  228Sol     OW 3995   0.457   0.356   1.629 -0.0906  0.0362  0.0186
  228Sol     HW 3996   0.545   0.367   1.666 -0.9488  1.5242  1.7345
  228Sol     HW 3997   0.446   0.262   1.620  0.4650 -0.3798  3.0224
  228Sol     MW 3998   0.464   0.349   1.632  0.0472 -0.0592  0.5693
  229Sol     OW 3999   2.859   1.924   2.619  0.1346 -0.1480 -0.0216
  229Sol     HW 4000   2.924   1.856   2.602 -0.2356 -0.3093 -0.8392
  229Sol     HW 4001   2.777   1.889   2.584 -0.0904  0.6441 -0.3051
  229Sol     MW 4002   2.858   1.915   2.614 -0.4770 -0.0632  0.1397
  230Sol     OW 4003   0.077   1.288   9.919  0.2789 -0.2688 -1.0552
  230Sol     HW 4004   0.164   1.317   9.892 -0.2236  0.4279 -1.9583
  230Sol     HW 4005   0.017   1.337   9.863 -0.8350  1.8557  1.8744
  230Sol     MW 4006   0.080   1.295   9.912 -0.0550  0.0961  0.1543
  231Sol     OW 4007   0.953   0.782   3.333  0.2171  0.1563 -0.5484
  231Sol     HW 4008   0.925   0.702   3.289 -0.2460 -0.2131  0.3980
  231Sol     HW 4009   0.872   0.817   3.371  0.9679 -0.7838  2.0117
  231Sol     MW 4010   0.943   0.778   3.332 -0.5623 -0.4668  0.1904
  232Sol     OW 4011   0.215   1.569   2.375  0.2812 -0.7800 -0.1095
  232Sol     HW 4012   0.255   1.592   2.291  1.9161 -0.4592  0.7307
  232Sol     HW 4013   0.149   1.637   2.389  0.8795 -0.0928 -0.5303
  232Sol     MW 4014   0.213   1.577   2.368 -0.0089 -0.0615  0.6440
  233Sol     OW 4015   1.892   2.252   9.882 -0.2293 -0.2062  0.7330
  233Sol     HW 4016   1.891   2.347   9.883  1.0427 -0.1607 -1.2519
  233Sol     HW 4017   1.850   2.228   9.800  0.8025 -1.3328  0.5186
  233Sol     MW 4018   1.888   2.258   9.875  0.1198  0.5113 -0.2437
  234Sol     OW 4019   2.557   2.099   4.448 -0.2865  0.2591  0.3443
  234Sol     HW 4020   2.580   2.052   4.528 -2.1510 -0.5846  0.4038
  234Sol     HW 4021   2.532   2.031   4.386  2.8549  0.7841 -1.5659
  234Sol     MW 4022   2.556   2.089   4.450 -0.4590  0.2710 -0.5275
  235Sol     OW 4023   0.379   0.015   3.060 -0.2484 -0.4165 -0.0979
  235Sol     HW 4024   0.443  -0.021   2.999 -0.5592 -0.6782 -0.2670
  235Sol     HW 4025   0.295   0.009   3.014 -0.3177  0.4211 -0.0910
  235Sol     MW 4026   0.377   0.011   3.051 -0.2156  0.3970 -0.0257
  236Sol     OW 4027   0.581   0.924   2.063 -0.1910 -0.2105  0.2433
  236Sol     HW 4028   0.532   1.007   2.064  0.2880  0.0740  1.7091
  236Sol     HW 4029   0.672   0.950   2.049 -0.2576 -0.6246 -0.9737
  236Sol     MW 4030   0.584   0.934   2.062  0.0189 -0.1697 -0.4592
  237Sol     OW 4031   0.654   0.899   7.209 -0.0913 -0.5727  0.1817
  237Sol     HW 4032   0.562   0.909   7.230  0.2581 -0.1773  1.6052
  237Sol     HW 4033   0.684   0.987   7.187 -0.0452 -0.6892 -0.2212
  237Sol     MW 4034   0.649   0.908   7.209 -0.5770 -0.0910  0.2565
  238Sol     OW 4035   0.963   1.391   8.818  0.1575  0.0806  0.2416
  238Sol     HW 4036   0.963   1.435   8.903 -0.1514 -1.2782  0.9654
  238Sol     HW 4037   0.878   1.412   8.779 -0.5737 -1.0338  1.2086
  238Sol     MW 4038   0.956   1.397   8.822  0.0841  0.0886 -0.8269
  239Sol     OW 4039   0.206   0.084   4.429  0.2559 -0.0110  0.2695
  239Sol     HW 4040   0.233   0.175   4.442  1.0555 -0.5755  2.7665
  239Sol     HW 4041   0.110   0.087   4.429  0.2685  0.6804  1.6017
  239Sol     MW 4042   0.200   0.092   4.430 -0.3468  0.0025  0.2494
  240Sol     OW 4043   0.906   2.849   7.492 -0.4104  0.3864 -0.4075
  240Sol     HW 4044   0.965   2.869   7.419 -1.8187 -0.2478 -1.7401
  240Sol     HW 4045   0.829   2.904   7.476 -1.3652 -0.8764 -0.2404
  240Sol     MW 4046   0.904   2.856   7.484  0.2313 -0.3363  0.1240
  241Sol     OW 4047   0.594   0.139   9.047  0.2836 -0.2564 -0.4862
  241Sol     HW 4048   0.548   0.210   9.002 -1.3633 -0.0037  1.5340
  241Sol     HW 4049   0.524   0.088   9.089  1.6970 -1.0120  0.9984
  241Sol     MW 4050   0.583   0.141   9.047  0.3904  0.3271 -0.2101
  242Sol     OW 4051   1.716   2.325   1.896  0.5525  0.0913 -0.0519
  242Sol     HW 4052   1.726   2.291   1.807 -0.0678  0.1372 -0.1445
  242Sol     HW 4053   1.682   2.250   1.946  0.2708  0.2511 -0.0019
  242Sol     MW 4054   1.714   2.315   1.892  0.3423 -0.0659  0.3975
  243Sol     OW 4055   1.840   0.349   5.049 -0.1141 -0.8879 -0.0109
  243Sol     HW 4056   1.856   0.271   4.996 -0.1362  0.2138 -1.6634
  243Sol     HW 4057   1.746   0.347   5.067 -0.0485 -1.4441  0.2845
  243Sol     MW 4058   1.833   0.342   5.046 -0.4303  0.2067 -0.3677
  244Sol     OW 4059   1.191   0.313   4.301 -0.2276 -0.2994 -0.1667
  244Sol     HW 4060   1.132   0.388   4.296 -1.4165 -1.1773  0.4572
  244Sol     HW 4061   1.213   0.306   4.394  3.9553  2.3441 -0.8191
  244Sol     MW 4062   1.188   0.319   4.309  0.4401  0.5386 -0.1430
  245Sol     OW 4063   0.735   1.856   7.443  0.2269 -0.0961 -0.4123
  245Sol     HW 4064   0.772   1.911   7.513 -0.4668 -0.7341  0.4721
  245Sol     HW 4065   0.675   1.797   7.489  0.7548 -1.4018 -1.4103
  245Sol     MW 4066   0.733   1.856   7.453 -0.2811 -0.5383 -0.3643
  246Sol     OW 4067   1.738   2.887   9.133 -0.4212  0.3496  0.3292
  246Sol     HW 4068   1.768   2.930   9.052 -0.1048 -1.3475 -0.4669
  246Sol     HW 4069   1.695   2.807   9.103 -0.0275 -0.4436  1.8724
  246Sol     MW 4070   1.737   2.884   9.123 -0.3403  0.1013  0.1414
  247Sol     OW 4071   1.271   1.222   5.062 -0.0119  0.3401  0.3969
  247Sol     HW 4072   1.300   1.309   5.091 -5.0211  1.5218  2.4049
  247Sol     HW 4073   1.285   1.166   5.139 -0.1891  0.2154  0.3383
  247Sol     MW 4074   1.275   1.224   5.072 -0.1991 -0.5437 -0.0022
  248Sol     OW 4075   0.729   0.965   7.722 -0.2249  0.1460  0.2267
  248Sol     HW 4076   0.739   0.922   7.637 -0.1454  1.3376 -0.3770
  248Sol     HW 4077   0.635   0.981   7.731 -0.1091  1.0558 -0.1587
  248Sol     MW 4078   0.722   0.963   7.715 -0.5882 -0.0409  0.1210
  249Sol     OW 4079   0.658   2.013   9.222  0.0616  0.0474  0.7132
  249Sol     HW 4080   0.564   1.996   9.218 -0.0603  0.6537  0.9678
  249Sol     HW 4081   0.698   1.927   9.227 -0.3220 -0.3846 -2.2888
  249Sol     MW 4082   0.653   2.004   9.222 -0.7829  0.0399  0.2181
  250Sol     OW 4083   0.669   3.033   4.457  0.0030 -0.4548  0.8015
  250Sol     HW 4084   0.709   3.092   4.521  0.2563 -0.6772  0.8516
  250Sol     HW 4085   0.616   3.089   4.401  0.1032 -0.2049  0.9586
  250Sol     MW 4086   0.668   3.043   4.458  0.1195 -0.1257  0.2243
  251Sol     OW 4087   2.487   0.862   9.657 -0.0074  0.2452 -0.6031
  251Sol     HW 4088   2.445   0.930   9.709 -1.8824  1.1927 -3.2399
  251Sol     HW 4089   2.565   0.905   9.621  0.3296  0.1272 -0.0204
  251Sol     MW 4090   2.490   0.872   9.658 -0.0146  0.2105  0.0133
  252Sol     OW 4091   2.871   0.786   4.553  0.5100 -0.3826  0.6206
  252Sol     HW 4092   2.818   0.790   4.633 -0.0980 -1.9280  0.3158
  252Sol     HW 4093   2.881   0.692   4.537  1.4065 -0.0728 -0.6076
  252Sol     MW 4094   2.867   0.778   4.559  0.3752 -0.4621  0.7212
  253Sol     OW 4095   2.600   1.090   6.274  0.3716 -0.4766  0.6297
  253Sol     HW 4096   2.528   1.091   6.211  1.6450  0.9526 -0.8491
  253Sol     HW 4097   2.655   1.016   6.247 -0.2825 -1.2917  1.4885
  253Sol     MW 4098   2.599   1.084   6.266  0.5492  0.0923 -0.1800
  254Sol     OW 4099   1.854   0.342   2.257  0.0083 -0.0340  0.0534
  254Sol     HW 4100   1.925   0.324   2.320 -0.9200  1.9291  1.7333
  254Sol     HW 4101   1.781   0.289   2.288 -0.6024  1.3041  0.9752
  254Sol     MW 4102   1.854   0.336   2.266  0.2831 -0.1582  0.1873
  255Sol     OW 4103   1.370   0.689   7.717 -0.1046  0.7416 -0.3787
  255Sol     HW 4104   1.339   0.644   7.795  0.3311  0.1681 -0.5265
  255Sol     HW 4105   1.431   0.627   7.677  0.9081  1.6904 -0.3078
  255Sol     MW 4106   1.372   0.679   7.720  0.8042 -0.1083  0.6483
  256Sol     OW 4107   3.259   1.090   6.649 -0.6959 -0.2596  0.0097
  256Sol     HW 4108   3.188   1.148   6.623 -0.8353 -0.7732 -0.7476
  256Sol     HW 4109   3.216   1.015   6.690 -0.6168 -0.8411 -0.9720
  256Sol     MW 4110   3.249   1.089   6.650  0.3858 -0.4306 -0.1332
  257Sol     OW 4111   1.390   1.331   4.072 -0.4864  0.0998 -0.3292
  257Sol     HW 4112   1.342   1.335   3.989 -0.6095 -1.3022 -0.3398
  257Sol     HW 4113   1.388   1.239   4.097  0.3018  0.3690  0.8021
  257Sol     MW 4114   1.386   1.323   4.067 -0.0883 -0.1533  0.2035
  258Sol     OW 4115   0.382   2.476   2.505 -0.4168 -0.0442  0.1583
  258Sol     HW 4116   0.335   2.393   2.517  0.2184 -0.1972  1.7257
  258Sol     HW 4117   0.399   2.480   2.411  2.0351 -3.0815  0.3946
  258Sol     MW 4118   0.379   2.469   2.498  0.3681 -0.9075 -0.3150
  259Sol     OW 4119   2.481   0.388   5.457  0.3590 -0.4720 -0.3370
  259Sol     HW 4120   2.562   0.344   5.485  1.1693  0.6508 -0.8964
  259Sol     HW 4121   2.504   0.433   5.376 -0.4522  0.9957  0.2166
  259Sol     MW 4122   2.490   0.388   5.453  0.1703  0.5202  0.6105
  260Sol     OW 4123   0.829   3.239   5.080  0.0044 -0.0636  0.1324
  260Sol     HW 4124   0.901   3.288   5.042 -0.4344  1.3007  1.0040
  260Sol     HW 4125   0.806   3.289   5.159 -1.1299 -1.1073  0.4688
  260Sol     MW 4126   0.833   3.248   5.084 -0.3114  0.7962  0.1657
  261Sol     OW 4127   3.077   2.060   2.976 -0.2189  0.4418 -0.0145
  261Sol     HW 4128   2.988   2.078   2.946 -0.4601 -0.3176  0.2343
  261Sol     HW 4129   3.117   2.009   2.906 -0.0840  0.5044  0.0159
  261Sol     MW 4130   3.073   2.057   2.967  0.0583 -0.6271  0.3742
  262Sol     OW 4131   3.140   1.266   6.913 -0.6993  0.0885  0.7940
  262Sol     HW 4132   3.127   1.341   6.971 -2.2799  0.1328  0.4015
  262Sol     HW 4133   3.055   1.253   6.871  0.3024 -0.1824 -1.2342
  262Sol     MW 4134   3.132   1.272   6.914  0.4392  0.4979 -0.5499
  263Sol     OW 4135   0.135   1.661   8.563  0.4456 -0.7971 -0.0514
  263Sol     HW 4136   0.124   1.603   8.639 -0.7596 -1.1925 -0.5092
  263Sol     HW 4137   0.167   1.743   8.600  2.1479 -1.7336  0.6137
  263Sol     MW 4138   0.137   1.663   8.573 -0.6385  0.7322 -0.1025
  264Sol     OW 4139   0.541   0.676   4.237 -0.7285 -0.0579  0.4828
  264Sol     HW 4140   0.623   0.662   4.192 -0.2992  0.2290  1.1638
  264Sol     HW 4141   0.558   0.648   4.327 -0.8809  1.5283  1.0224
  264Sol     MW 4142   0.550   0.672   4.241  0.5783 -0.3175 -0.1066
  265Sol     OW 4143   2.023   0.564   5.896 -0.0788 -0.3464  0.6955
  265Sol     HW 4144   1.954   0.630   5.887 -0.7567 -1.4071 -2.5896
  265Sol     HW 4145   2.005   0.521   5.980 -3.2873 -0.4295  0.0137
  265Sol     MW 4146   2.015   0.566   5.903 -0.2278 -0.4504  0.3794
  266Sol     OW 4147   1.837   0.229   1.454 -0.0163  0.1443  0.3710
  266Sol     HW 4148   1.747   0.215   1.483 -0.5685  0.9092 -0.9240
  266Sol     HW 4149   1.861   0.314   1.490 -0.4363  0.7435 -0.7314
  266Sol     MW 4150   1.831   0.235   1.460 -0.0473 -0.2931  0.1044
  267Sol     OW 4151   1.536   2.305   6.259  0.0786  0.1400 -0.3991
  267Sol     HW 4152   1.516   2.350   6.177 -2.4635  1.3189  0.8005
  267Sol     HW 4153   1.478   2.228   6.259  1.3472 -0.8203 -0.5179
  267Sol     MW 4154   1.529   2.302   6.252 -0.1468 -0.2008 -0.8373
  268Sol     OW 4155   1.670   1.463   6.379 -0.2047 -0.6760  0.2297
  268Sol     HW 4156   1.592   1.493   6.331 -1.3187 -2.2795  0.9703
  268Sol     HW 4157   1.722   1.418   6.313 -1.1695 -1.8562  0.2493
  268Sol     MW 4158   1.667   1.462   6.369  0.0054  0.1668  0.3514
  269Sol     OW 4159   1.287   2.820   6.760  0.0001  0.3911 -0.1856
  269Sol     HW 4160   1.301   2.898   6.705  0.1883 -0.4601 -1.3491
  269Sol     HW 4161   1.372   2.804   6.801  0.5330 -0.4325 -1.5761
  269Sol     MW 4162   1.296   2.826   6.758 -1.2765  0.2492 -0.0095
  270Sol     OW 4163   2.903   2.499   8.592  0.0670 -0.4832  0.0943
  270Sol     HW 4164   2.811   2.489   8.564 -0.0983 -1.0502  0.8193
  270Sol     HW 4165   2.928   2.411   8.621 -0.0339  0.2466  2.5116
  270Sol     MW 4166   2.897   2.490   8.592  0.1698 -0.3131  0.3495
  271Sol     OW 4167   3.034   1.858   5.255 -0.2718 -0.4638 -0.0202
  271Sol     HW 4168   3.018   1.772   5.294 -1.4097  0.3079  1.2310
  271Sol     HW 4169   2.954   1.880   5.209  0.0373 -0.1014 -0.3927
  271Sol     MW 4170   3.026   1.852   5.255  0.1538 -0.5342 -0.6296
  272Sol     OW 4171   0.038   0.626   4.247  0.0799  0.0302 -0.3602
  272Sol     HW 4172  -0.011   0.706   4.225 -0.4960 -0.1969  0.0631
  272Sol     HW 4173  -0.030   0.562   4.266  0.5512  0.1767  1.9295
  272Sol     MW 4174   0.027   0.628   4.247  0.2639 -0.3642 -0.0879
  273Sol     OW 4175   0.600   0.160   2.831 -0.3968 -0.9468  0.0751
  273Sol     HW 4176   0.651   0.160   2.912 -0.3117  0.2673  0.0239
  273Sol     HW 4177   0.664   0.147   2.762  0.3133  3.5408 -0.2497
  273Sol     MW 4178   0.610   0.159   2.832  0.1304 -0.0187 -0.0958
  274Sol     OW 4179   0.286   0.479   6.601 -0.4476 -0.3170  0.6793
  274Sol     HW 4180   0.295   0.384   6.590  0.0159 -0.1525 -0.4583
  274Sol     HW 4181   0.254   0.509   6.516  0.0256  0.6292  0.8327
  274Sol     MW 4182   0.284   0.473   6.592  0.4430  0.7801  0.0987
  275Sol     OW 4183   1.816   1.861   8.248 -0.2033  0.4485  0.2186
  275Sol     HW 4184   1.741   1.900   8.204 -1.6526 -1.9510  0.5186
  275Sol     HW 4185   1.790   1.856   8.340  0.2904 -0.4722  0.3095
  275Sol     MW 4186   1.807   1.864   8.252  0.2871  0.4743 -0.0240
  276Sol     OW 4187   2.666   3.194   5.829 -1.1199  0.1974 -0.3252
  276Sol     HW 4188   2.654   3.219   5.738 -1.1735  2.7861  0.3486
  276Sol     HW 4189   2.601   3.245   5.877  0.2061  0.3594  1.3626
  276Sol     MW 4190   2.659   3.201   5.826  0.3258  0.1866 -0.1564
  277Sol     OW 4191   1.615   2.632   9.368 -0.3653  0.0830 -0.0755
  277Sol     HW 4192   1.665   2.594   9.296 -1.4386  0.3929 -1.0053
  277Sol     HW 4193   1.680   2.676   9.422  0.5582 -0.8486 -0.4083
  277Sol     MW 4194   1.625   2.633   9.366  0.0509  0.2094  0.0120
  278Sol     OW 4195   2.785   2.844   7.068 -0.0158 -0.3968 -0.4319
  278Sol     HW 4196   2.868   2.813   7.105  0.3118  0.2974 -0.5745
  278Sol     HW 4197   2.735   2.873   7.143  0.3403  0.2888 -0.4604
  278Sol     MW 4198   2.788   2.843   7.078  0.3616 -0.1343  0.3761
  279Sol     OW 4199   0.287   1.274   3.634  0.4630  0.0726 -0.4407
  279Sol     HW 4200   0.253   1.304   3.718 -1.2059 -1.1007 -0.6672
  279Sol     HW 4201   0.266   1.180   3.631 -0.4907  0.3168 -2.6095
  279Sol     MW 4202   0.282   1.268   3.641 -0.0092 -0.1411  0.3874
  280Sol     OW 4203   2.015   3.080   1.847 -0.1554 -0.0426 -0.2295
  280Sol     HW 4204   1.989   3.024   1.920  1.5504  0.2285  0.6080
  280Sol     HW 4205   2.061   3.021   1.787  0.6357  0.2264  0.1094
  280Sol     MW 4206   2.017   3.069   1.848  0.3023  0.2029  0.0613
  281Sol     OW 4207   1.993   3.318   3.074  0.0664  0.1256 -0.0661
  281Sol     HW 4208   1.942   3.271   3.008  2.4898 -0.8393 -1.3225
  281Sol     HW 4209   2.065   3.259   3.095  1.8472  2.2972  0.0738
  281Sol     MW 4210   1.995   3.309   3.070 -0.5318 -0.0267  0.7727
  282Sol     OW 4211   1.509   1.768   8.202  0.1487 -0.6053 -0.3792
  282Sol     HW 4212   1.499   1.846   8.148  0.9502 -0.8293 -0.8717
  282Sol     HW 4213   1.454   1.784   8.278 -0.1018  0.2127 -0.7252
  282Sol     MW 4214   1.503   1.777   8.204 -0.4087 -0.0130 -0.1862
  283Sol     OW 4215   1.429   1.775   9.092 -0.0017  0.2448  0.0032
  283Sol     HW 4216   1.450   1.785   9.185 -0.2902 -1.3739  0.2543
  283Sol     HW 4217   1.512   1.756   9.050 -0.0957 -0.5363  0.1617
  283Sol     MW 4218   1.438   1.774   9.097  0.0557 -0.2083  0.1007
  284Sol     OW 4219   1.926   3.399   8.780 -0.3314  0.8378  0.4046
  284Sol     HW 4220   1.857   3.348   8.823 -0.1328 -0.4263 -0.7469
  284Sol     HW 4221   2.004   3.345   8.787 -0.0094  1.1929 -0.4124
  284Sol     MW 4222   1.927   3.390   8.784 -0.3748  0.1972  0.1002
  285Sol     OW 4223   0.416   2.399   8.904  0.3955  0.1725 -0.2421
  285Sol     HW 4224   0.480   2.397   8.975  0.2971 -1.0516 -0.1723
  285Sol     HW 4225   0.447   2.467   8.845 -1.0096  3.1746  2.3532
  285Sol     MW 4226   0.424   2.405   8.905 -0.2206 -0.0853 -0.5098
  286Sol     OW 4227   0.179   1.202   6.703 -0.2041 -0.4172  0.4715
  286Sol     HW 4228   0.145   1.286   6.734 -1.2784 -0.6704  0.0148
  286Sol     HW 4229   0.101   1.154   6.677  0.5623 -0.8513 -1.0369
  286Sol     MW 4230   0.169   1.205   6.704 -0.2209  0.3064  0.3716
  287Sol     OW 4231   0.424   1.210   2.628  0.0660 -0.2349  0.3389
  287Sol     HW 4232   0.492   1.172   2.683 -0.1134 -1.3933 -0.2161
  287Sol     HW 4233   0.346   1.158   2.648  0.2382 -1.3503 -1.7496
  287Sol     MW 4234   0.423   1.202   2.635 -0.0902  0.4251  0.5026
  288Sol     OW 4235   2.492   0.251   4.293  0.1658  0.4281 -0.1148
  288Sol     HW 4236   2.536   0.263   4.209  0.1690  0.9486 -0.0414
  288Sol     HW 4237   2.512   0.331   4.342  2.2976 -0.9772  1.3608
  288Sol     MW 4238   2.497   0.259   4.290 -0.2678  0.0878 -0.2678
  289Sol     OW 4239   2.885   0.579   8.969  0.5708 -0.1727  0.3146
  289Sol     HW 4240   2.831   0.657   8.983  1.7810  0.6643  0.3695
  289Sol     HW 4241   2.833   0.526   8.908 -1.0725 -0.1677  1.6494
  289Sol     MW 4242   2.875   0.581   8.964 -0.0047  0.0989  0.2610
  290Sol     OW 4243   0.911   0.303   9.026  0.1824 -0.0102  0.0478
  290Sol     HW 4244   0.977   0.297   9.095 -0.5742 -0.5357  0.7288
  290Sol     HW 4245   0.833   0.262   9.063 -0.2208 -0.3352 -1.1383
  290Sol     MW 4246   0.910   0.299   9.035 -0.5347 -0.0529  0.5251
  291Sol     OW 4247   3.223   1.850   7.341 -0.1022 -0.4365 -0.0199
  291Sol     HW 4248   3.140   1.803   7.331 -0.0460 -0.8599  1.4349
  291Sol     HW 4249   3.199   1.935   7.377  0.0242 -0.2401 -0.3916
  291Sol     MW 4250   3.214   1.854   7.343  0.1598  0.2007 -0.1083
  292Sol     OW 4251   1.783   1.944   9.269  0.1988  0.4329  0.0170
  292Sol     HW 4252   1.751   2.035   9.263 -0.8631  0.1045  0.4993
  292Sol     HW 4253   1.704   1.893   9.287  0.4820 -0.8321 -2.1834
  292Sol     MW 4254   1.773   1.948   9.270 -0.3362 -0.2568  0.5771
  293Sol     OW 4255   0.977   0.204   4.602  0.0087  0.1744 -0.1568
  293Sol     HW 4256   1.047   0.268   4.616  2.1206 -1.9124 -0.7628
  293Sol     HW 4257   0.929   0.237   4.526  1.7947  0.4564 -1.1946
  293Sol     MW 4258   0.979   0.213   4.596 -0.4743 -0.0159  0.4470
  294Sol     OW 4259   3.048   1.473   2.764  0.0273 -0.2186 -0.4545
  294Sol     HW 4260   3.072   1.559   2.728  2.2697 -0.2462  0.9241
  294Sol     HW 4261   3.114   1.456   2.831 -2.4451 -1.4596  1.7177
  294Sol     MW 4262   3.056   1.479   2.767 -0.0599  0.2014 -0.2351
  295Sol     OW 4263   0.063   2.200   9.091 -0.3866  0.5209  0.2505
  295Sol     HW 4264   0.036   2.109   9.093 -0.3117  0.5108  1.9529
  295Sol     HW 4265  -0.008   2.245   9.045 -1.6429 -0.0400  1.5596
  295Sol     MW 4266   0.054   2.196   9.087 -0.4035  0.4573 -0.2237
  296Sol     OW 4267   2.530   1.084   5.046 -0.3067  0.8684  0.0266
  296Sol     HW 4268   2.454   1.032   5.021 -1.0868  1.8222  0.3696
  296Sol     HW 4269   2.513   1.171   5.009 -0.2038  1.5532  1.5413
  296Sol     MW 4270   2.522   1.087   5.041  0.0929  0.2014 -0.7896
  297Sol     OW 4271   0.933   2.755   8.557  0.0159  0.8208  0.1561
  297Sol     HW 4272   1.000   2.824   8.560 -0.6041  1.3968  1.0747
  297Sol     HW 4273   0.904   2.747   8.648 -0.8165  0.2286 -0.1600
  297Sol     MW 4274   0.937   2.761   8.566  0.0351  0.1180 -0.0588
  298Sol     OW 4275   0.705   1.493   4.427  0.3417  0.5185 -0.3628
  298Sol     HW 4276   0.635   1.552   4.401 -0.0249 -0.2053 -1.0164
  298Sol     HW 4277   0.738   1.529   4.509 -0.6559  0.9707 -0.1649
  298Sol     MW 4278   0.702   1.501   4.432 -0.6003 -0.0061 -0.5358
  299Sol     OW 4279   0.084   2.754   5.064 -0.5145  0.1281 -0.5458
  299Sol     HW 4280   0.017   2.766   4.996 -0.6212 -0.4740 -0.5526
  299Sol     HW 4281   0.035   2.730   5.142 -0.2937 -0.6593 -0.6367
  299Sol     MW 4282   0.074   2.753   5.065  0.3489  0.1076  0.1732
  300Sol     OW 4283   0.891   2.833   3.981  0.0815  0.3030 -0.5687
  300Sol     HW 4284   0.827   2.803   3.916  1.8390 -0.6596 -1.9229
  300Sol     HW 4285   0.965   2.863   3.929  1.1215  0.4761  0.9884
  300Sol     MW 4286   0.892   2.833   3.970  0.5493 -0.8228 -0.1287
  301Sol     OW 4287   0.392   1.789   7.737  0.0242  0.0606 -0.1276
  301Sol     HW 4288   0.405   1.795   7.643  0.5851  0.7753 -0.0080
  301Sol     HW 4289   0.480   1.802   7.774 -0.2700  0.2308  0.5095
  301Sol     MW 4290   0.401   1.790   7.732 -0.0148 -0.6817 -0.4783
  302Sol     OW 4291   2.440   1.804   8.963 -0.3885 -0.9341 -0.6550
  302Sol     HW 4292   2.494   1.876   8.932 -3.3455  1.6940  0.0669
  302Sol     HW 4293   2.415   1.756   8.884  0.3055 -0.2334 -1.2982
  302Sol     MW 4294   2.443   1.806   8.953  0.1393  0.6128  0.2864
  303Sol     OW 4295   2.625   0.254   9.537 -0.1405 -0.1929 -0.5124
  303Sol     HW 4296   2.708   0.210   9.550 -0.5007 -0.6860  0.1456
  303Sol     HW 4297   2.587   0.262   9.625  0.2455  2.0907 -0.5264
  303Sol     MW 4298   2.629   0.251   9.546 -0.6896  0.0817  0.4586
  304Sol     OW 4299   1.891   3.162   2.879 -0.3347  0.3278 -0.4770
  304Sol     HW 4300   1.848   3.160   2.793 -1.7397  1.7142  0.1768
  304Sol     HW 4301   1.841   3.100   2.932 -1.5441  1.8919  0.2640
  304Sol     MW 4302   1.882   3.156   2.876  0.3761  0.0647  1.1300
  305Sol     OW 4303   2.008   1.226   3.737 -0.5747  0.1771  0.2608
  305Sol     HW 4304   1.938   1.185   3.686 -0.5418  0.5191 -0.0612
  305Sol     HW 4305   1.988   1.320   3.734 -1.8534  0.0022  2.8059
  305Sol     MW 4306   2.000   1.231   3.732  0.5378 -0.1705 -0.1320
  306Sol     OW 4307   1.431   2.377   4.028  0.2244 -0.3221 -0.1973
  306Sol     HW 4308   1.517   2.345   4.000  0.1686 -1.0956  0.4769
  306Sol     HW 4309   1.370   2.311   3.998 -0.0585 -0.1092 -0.0898
  306Sol     MW 4310   1.433   2.368   4.023 -0.9344  0.0293  0.8042
  307Sol     OW 4311   0.555   2.596   4.333  0.2681 -0.2183 -0.0286
  307Sol     HW 4312   0.614   2.641   4.393 -1.7727  1.3266  0.9052
  307Sol     HW 4313   0.576   2.632   4.247  1.1588 -0.2093  0.1936
  307Sol     MW 4314   0.562   2.603   4.330 -0.4943 -0.3293  0.4195
  308Sol     OW 4315   2.687   1.105   2.176 -0.1584 -0.4747  0.1362
  308Sol     HW 4316   2.743   1.150   2.112 -2.1060  0.4945 -0.9313
  308Sol     HW 4317   2.729   1.120   2.260  0.2352  1.7497 -0.4413
  308Sol     MW 4318   2.696   1.110   2.178  0.0517  0.3355 -0.2628
  309Sol     OW 4319   3.231   2.837   8.710  0.4512 -0.4610 -0.1195
  309Sol     HW 4320   3.292   2.764   8.717 -1.0534 -1.6171  1.1325
  309Sol     HW 4321   3.272   2.907   8.761  0.8981 -1.1193  0.4358
  309Sol     MW 4322   3.240   2.837   8.715 -0.0201 -0.0786  0.2764
  310Sol     OW 4323   3.008   2.586   5.168  0.2817  0.4374 -0.3847
  310Sol     HW 4324   3.004   2.591   5.263  0.0191  0.5684 -0.4039
  310Sol     HW 4325   2.987   2.495   5.148  0.5018  0.3698 -0.3079
  310Sol     MW 4326   3.006   2.578   5.174 -0.6881  0.3309  0.3250
  311Sol     OW 4327   2.696   2.962   8.199  0.1518  0.3489  0.0906
  311Sol     HW 4328   2.712   2.908   8.121  0.6045  1.3016 -0.4881
  311Sol     HW 4329   2.760   2.931   8.263  0.0116 -0.2024 -0.0322
  311Sol     MW 4330   2.703   2.954   8.197  0.3385  0.9622 -0.3644
  312Sol     OW 4331   1.948   2.755   2.408  0.2378 -0.3721 -0.0708
  312Sol     HW 4332   1.964   2.672   2.363 -0.5458 -0.1109 -0.8446
  312Sol     HW 4333   1.905   2.730   2.490  0.8010 -0.7808  0.1091
  312Sol     MW 4334   1.946   2.746   2.411  0.2803  0.0782 -0.3441
  313Sol     OW 4335   2.603   2.323   4.686  0.5654 -0.2372  0.1437
  313Sol     HW 4336   2.555   2.279   4.616 -0.4168  0.1370  0.5810
  313Sol     HW 4337   2.693   2.327   4.653  0.1670 -0.2882 -1.0008
  313Sol     MW 4338   2.607   2.320   4.677 -0.3564 -0.0831  0.4091
  314Sol     OW 4339   1.532   0.676   6.033  0.7834  0.1499 -0.2549
  314Sol     HW 4340   1.483   0.731   6.095 -0.1212 -0.3869 -0.4841
  314Sol     HW 4341   1.497   0.588   6.046  2.4407 -0.4342  0.3154
  314Sol     MW 4342   1.525   0.673   6.040 -0.7188  0.0504  0.6593
  315Sol     OW 4343   2.204   2.119   2.774 -0.0537 -0.9293 -0.0757
  315Sol     HW 4344   2.271   2.174   2.813  0.1480  0.6441 -2.5562
  315Sol     HW 4345   2.252   2.050   2.728 -0.1750 -0.4860 -0.8674
  315Sol     MW 4346   2.214   2.117   2.773  0.3462  0.1874  0.3742
  316Sol     OW 4347   2.869   1.994   9.544 -0.2637 -0.2037  0.1677
  316Sol     HW 4348   2.865   2.046   9.624 -1.8861 -0.1390  0.0643
  316Sol     HW 4349   2.892   1.906   9.573  0.9743  0.2243  0.5054
  316Sol     MW 4350   2.871   1.991   9.554 -0.6993  0.1579 -0.3945
  317Sol     OW 4351   1.367   2.690   7.321 -0.7674  0.2885 -0.0865
  317Sol     HW 4352   1.342   2.782   7.310  0.4440  0.6706  0.3066
  317Sol     HW 4353   1.326   2.645   7.248 -3.0344  0.8161  0.8290
  317Sol     MW 4354   1.361   2.694   7.314 -0.5284  0.6613  0.7185
  318Sol     OW 4355   0.494   0.807   2.970  0.6276  0.4193  0.2094
  318Sol     HW 4356   0.410   0.836   2.935 -0.3767 -0.3283  1.9435
  318Sol     HW 4357   0.508   0.721   2.929 -0.6589 -0.5627  1.7807
  318Sol     MW 4358   0.488   0.802   2.963 -0.4535  0.4085 -0.4531
  319Sol     OW 4359   2.482   2.688   6.430 -0.0527 -0.1750 -0.1594
  319Sol     HW 4360   2.412   2.624   6.425 -2.4886  2.2618  1.1855
  319Sol     HW 4361   2.507   2.704   6.339 -1.8345 -0.4638 -0.7232
  319Sol     MW 4362   2.478   2.684   6.422 -0.3860 -0.4189  0.4110
  320Sol     OW 4363   1.993   2.051   8.651  0.4396 -0.2216  0.6647
  320Sol     HW 4364   1.963   2.064   8.741 -0.7799 -0.4697  0.3165
  320Sol     HW 4365   2.026   1.961   8.650 -2.2834 -1.2887  0.1883
  320Sol     MW 4366   1.993   2.044   8.659 -0.1249 -0.2243  0.3533
  321Sol     OW 4367   1.260   0.846   6.759  0.1623  0.5021  0.4108
  321Sol     HW 4368   1.340   0.802   6.729  0.2084  1.0311 -0.2536
  321Sol     HW 4369   1.272   0.938   6.735 -1.2700  0.3372 -1.0346
  321Sol     MW 4370   1.268   0.850   6.754 -0.1745  0.1001  0.3071
  322Sol     OW 4371   1.921   1.461   3.588 -0.2107  0.8051 -0.7928
  322Sol     HW 4372   1.905   1.388   3.528  0.6318  0.7947 -1.0114
  322Sol     HW 4373   1.840   1.470   3.638  0.3500 -1.5344  0.5908
  322Sol     MW 4374   1.912   1.455   3.587  0.4783 -0.2769  0.5338
  323Sol     OW 4375   1.628   2.658   1.532 -0.4734  0.0714 -0.0240
  323Sol     HW 4376   1.668   2.736   1.492  0.5324 -0.0478  0.7272
  323Sol     HW 4377   1.698   2.593   1.531 -0.7283 -0.2255  1.0824
  323Sol     MW 4378   1.638   2.659   1.528  0.6970  0.5172 -0.0037
  324Sol     OW 4379   0.301   0.217   6.569  0.0551 -0.2140  0.5130
  324Sol     HW 4380   0.296   0.168   6.650  0.3329 -0.2709  0.4947
  324Sol     HW 4381   0.218   0.198   6.524  0.3162 -0.9370  0.3445
  324Sol     MW 4382   0.293   0.211   6.572  0.7039 -0.1362  0.7294
  325Sol     OW 4383   1.446   1.767   9.644  0.2032 -0.3244 -0.0575
  325Sol     HW 4384   1.363   1.812   9.661  0.6313  0.1962  0.6563
  325Sol     HW 4385   1.420   1.678   9.619 -0.5624 -0.2252  0.3589
  325Sol     MW 4386   1.436   1.763   9.643  0.1923  0.5187  0.3301
  326Sol     OW 4387   2.467   3.058   9.067  0.0552 -0.0256  0.4670
  326Sol     HW 4388   2.470   3.075   9.161  0.7048 -1.3003  0.6822
  326Sol     HW 4389   2.465   3.145   9.027 -0.4041  0.5247  1.6610
  326Sol     MW 4390   2.467   3.067   9.072  0.1280  0.4544  0.0431
  327Sol     OW 4391   0.669   0.658   4.523 -0.3515  0.4429  0.3026
  327Sol     HW 4392   0.728   0.731   4.503  0.5781  0.0084  1.3949
  327Sol     HW 4393   0.639   0.675   4.612  0.2054 -0.7055  0.7327
  327Sol     MW 4394   0.672   0.666   4.529 -0.0382  0.6130  0.0589
  328Sol     OW 4395   2.544   2.376   1.489 -1.0341 -0.0619 -0.2904
  328Sol     HW 4396   2.486   2.453   1.489 -0.5928  0.2719 -0.5404
  328Sol     HW 4397   2.619   2.403   1.543  0.5856  0.8013 -2.8800
  328Sol     MW 4398   2.545   2.386   1.494 -0.0376  0.5172  0.3786
  329Sol     OW 4399   0.526   3.182   4.239 -0.5779 -0.1763 -0.3235
  329Sol     HW 4400   0.454   3.122   4.258  0.3933 -1.1954  0.1976
  329Sol     HW 4401   0.486   3.269   4.245 -1.7766 -0.7256 -0.0883
  329Sol     MW 4402   0.516   3.184   4.241 -0.0168 -0.7446  0.0966
  330Sol     OW 4403   0.408   1.474   7.259  0.2655 -0.3343 -0.3343
  330Sol     HW 4404   0.340   1.475   7.326  0.6793  0.0466  0.0826
  330Sol     HW 4405   0.406   1.384   7.224 -0.6424 -0.2380 -0.5351
  330Sol     MW 4406   0.402   1.466   7.262  0.3564 -0.7039 -0.0294
  331Sol     OW 4407   0.263   0.860   7.825  0.0818  0.1137  0.2523
  331Sol     HW 4408   0.170   0.868   7.847  0.1253  0.7215  0.2149
  331Sol     HW 4409   0.265   0.859   7.730  0.0944 -0.1787  0.2529
  331Sol     MW 4410   0.255   0.861   7.819 -0.1235 -0.3704  0.2697
  332Sol     OW 4411   1.707   2.940   5.509 -0.3671  0.4624 -0.6672
  332Sol     HW 4412   1.785   2.994   5.492 -1.2799  1.3258 -2.1905
  332Sol     HW 4413   1.633   2.999   5.494 -1.3377 -0.5391  0.1220
  332Sol     MW 4414   1.708   2.950   5.506 -0.1028 -0.3598  0.2340
  333Sol     OW 4415   2.561   1.299   9.093  0.2902  0.2798  0.0705
  333Sol     HW 4416   2.554   1.393   9.077  1.7192  0.2428 -0.9068
  333Sol     HW 4417   2.632   1.290   9.156  0.5377 -0.1707 -0.2660
  333Sol     MW 4418   2.567   1.307   9.097 -0.5964 -0.0133  0.0978
  334Sol     OW 4419   1.985   2.234   2.707 -0.4083 -0.2654 -0.2061
  334Sol     HW 4420   2.063   2.189   2.740  0.7645  0.5749 -1.7873
  334Sol     HW 4421   1.923   2.163   2.688 -0.2150 -0.9145  1.4527
  334Sol     MW 4422   1.987   2.223   2.708  0.2940  0.2502  0.4865
  335Sol     OW 4423   3.316   1.023   6.386 -0.1469 -0.6650 -0.5501
  335Sol     HW 4424   3.309   1.032   6.481  1.5270 -1.6131 -0.3301
  335Sol     HW 4425   3.225   1.013   6.357 -0.6115 -1.1860  1.0282
  335Sol     MW 4426   3.307   1.023   6.392  0.8104 -0.9740  0.4461
  336Sol     OW 4427   1.536   1.544   4.146  0.0059  0.3562 -0.3539
  336Sol     HW 4428   1.489   1.617   4.107 -1.7492  0.3266  1.5936
  336Sol     HW 4429   1.482   1.467   4.125  0.5221 -0.0371 -0.2559
  336Sol     MW 4430   1.526   1.543   4.141  0.3693  0.6674 -0.8933
  337Sol     OW 4431   3.252   1.000   6.989 -0.0788  0.5313  0.2177
  337Sol     HW 4432   3.230   1.093   6.988  0.9799  0.7951  0.1343
  337Sol     HW 4433   3.345   0.997   6.964 -0.0717 -0.5341  0.3257
  337Sol     MW 4434   3.259   1.008   6.987 -0.2513  0.4714 -0.2464
  338Sol     OW 4435   0.967   2.920   8.926 -0.0682 -0.4772 -0.1889
  338Sol     HW 4436   0.911   2.997   8.927 -1.5214 -1.5073  1.2119
  338Sol     HW 4437   0.915   2.854   8.879  1.4422 -0.4285 -1.9781
  338Sol     MW 4438   0.957   2.921   8.922 -0.0893 -0.0254 -0.1304
  339Sol     OW 4439   1.921   1.477   8.321 -0.0730  0.3951 -0.4313
  339Sol     HW 4440   1.984   1.406   8.313 -0.6355 -0.5590  2.7912
  339Sol     HW 4441   1.835   1.434   8.323 -0.4409  1.1374  1.0575
  339Sol     MW 4442   1.919   1.467   8.321  0.5148 -0.4208  0.2990
  340Sol     OW 4443   2.046   3.009   4.827 -0.4846  0.5253 -0.2864
  340Sol     HW 4444   2.041   3.104   4.841 -1.4225  0.4757 -0.2817
  340Sol     HW 4445   2.087   2.975   4.907  1.7226  1.1311 -1.1017
  340Sol     MW 4446   2.050   3.015   4.835 -0.0059  0.5861 -0.1837
  341Sol     OW 4447   3.011   2.482   2.264  0.7099 -0.0063 -0.6483
  341Sol     HW 4448   3.064   2.474   2.184  0.0900 -0.1049 -1.0563
  341Sol     HW 4449   2.921   2.495   2.232  0.3298 -0.8793  0.0374
  341Sol     MW 4450   3.007   2.482   2.254 -0.9881 -0.1840 -0.4795
  342Sol     OW 4451   2.046   2.758   5.621 -0.4824 -0.4371 -0.2398
  342Sol     HW 4452   2.095   2.676   5.623 -1.2889 -0.9142  0.6225
  342Sol     HW 4453   1.979   2.744   5.553 -0.2179 -0.2599 -0.5351
  342Sol     MW 4454   2.044   2.749   5.615  0.2737  0.2027  0.0446
  343Sol     OW 4455   1.545   0.056   5.428 -0.4619 -0.2198  0.0533
  343Sol     HW 4456   1.553   0.128   5.366  0.0341 -1.6707 -1.6296
  343Sol     HW 4457   1.636   0.034   5.451 -0.5507 -1.0324 -0.3394
  343Sol     MW 4458   1.554   0.060   5.425 -0.3218  0.2551  0.6442
  344Sol     OW 4459   0.192   0.626   7.950  0.0868 -0.5391  0.2825
  344Sol     HW 4460   0.231   0.619   8.037 -0.2180 -0.3051  0.4375
  344Sol     HW 4461   0.244   0.692   7.905  0.6314 -1.0970  0.0761
  344Sol     MW 4462   0.200   0.631   7.953 -0.1309 -0.2228  0.3337
  345Sol     OW 4463   3.218   0.615   7.163 -0.1344  0.1829 -0.4208
  345Sol     HW 4464   3.176   0.581   7.084  0.6039  0.7339 -1.0627
  345Sol     HW 4465   3.312   0.607   7.146  0.0356  1.0083  0.0750
  345Sol     MW 4466   3.222   0.612   7.154 -0.7406  0.0118  0.0409
  346Sol     OW 4467   0.026   2.388   8.112  0.4597 -0.2503 -1.0211
  346Sol     HW 4468   0.053   2.307   8.155  1.2440  0.1553 -0.7222
  346Sol     HW 4469   0.100   2.448   8.126  0.2734  0.2267 -2.0129
  346Sol     MW 4470   0.035   2.386   8.117  0.3331 -0.2771 -0.1603
  347Sol     OW 4471   3.303   1.935   8.256  0.1138  0.3825 -0.1941
  347Sol     HW 4472   3.219   1.890   8.266  0.9238 -0.7129  2.1155
  347Sol     HW 4473   3.367   1.873   8.290  1.6921  1.8285 -0.4698
  347Sol     MW 4474   3.301   1.926   8.260 -0.2962 -0.3868 -0.2080
  348Sol     OW 4475   1.939   2.096   2.053 -0.6056  0.0641 -0.3584
  348Sol     HW 4476   1.957   2.175   2.002 -0.5876  0.9145  0.9475
  348Sol     HW 4477   1.982   2.111   2.137  0.9121 -2.0871 -0.6944
  348Sol     MW 4478   1.944   2.104   2.056  0.0180  0.6994  0.4877
  349Sol     OW 4479   3.208   1.787   3.090 -0.2692 -0.4229 -0.0367
  349Sol     HW 4480   3.116   1.801   3.070 -0.1814 -0.6333 -0.5971
  349Sol     HW 4481   3.220   1.824   3.178 -0.6174  0.6797 -0.4451
  349Sol     MW 4482   3.201   1.792   3.096  0.0740 -0.7788  0.1176
  350Sol     OW 4483   1.446   3.016   4.330 -0.3835 -0.6668 -0.2889
  350Sol     HW 4484   1.350   3.015   4.338 -0.4214 -1.2300 -0.7579
  350Sol     HW 4485   1.467   3.106   4.309 -0.9034 -0.7448 -1.1890
  350Sol     MW 4486   1.439   3.024   4.329  0.1963 -0.0387  0.0661
  351Sol     OW 4487   0.863   2.703   4.998  0.0515 -0.2516 -0.0590
  351Sol     HW 4488   0.955   2.676   5.004  0.4516  0.9025 -0.8307
  351Sol     HW 4489   0.865   2.797   5.013 -1.1834 -0.4239  1.3518
  351Sol     MW 4490   0.871   2.709   5.000 -0.2201  0.0586  0.2383
  352Sol     OW 4491   2.773   1.616   1.628  0.3457  0.0088  0.0931
  352Sol     HW 4492   2.787   1.524   1.604  0.1114 -0.2123  0.8127
  352Sol     HW 4493   2.683   1.635   1.600 -0.2625 -0.5272  1.6725
  352Sol     MW 4494   2.766   1.610   1.623  0.8108  0.0098 -0.2333
  353Sol     OW 4495   0.732   3.130   2.078  0.2543 -0.4241 -0.0523
  353Sol     HW 4496   0.671   3.189   2.123  0.3845 -0.2011 -0.1677
  353Sol     HW 4497   0.678   3.055   2.052 -0.3092  0.4622 -1.4982
  353Sol     MW 4498   0.722   3.128   2.080 -0.1288 -0.0959 -0.6135
  354Sol     OW 4499   2.215   3.136   3.135  0.1684 -0.2098 -0.3195
  354Sol     HW 4500   2.194   3.067   3.072  1.0254 -0.6719 -0.1069
  354Sol     HW 4501   2.303   3.166   3.110  0.4101 -0.2238  0.4924
  354Sol     MW 4502   2.221   3.132   3.127  0.1911 -0.0524  0.1206
  355Sol     OW 4503   3.162   3.413   3.661  0.4777  0.7058  0.0343
  355Sol     HW 4504   3.079   3.428   3.708 -0.3542  1.4940 -1.6632
  355Sol     HW 4505   3.214   3.491   3.679  2.2966 -1.2809  3.9926
  355Sol     MW 4506   3.159   3.422   3.667 -0.3055  0.2221  0.0124
  356Sol     OW 4507   2.152   0.228   1.592  0.1907 -0.2818  0.3010
  356Sol     HW 4508   2.121   0.317   1.577  0.4172 -0.5436 -1.8743
  356Sol     HW 4509   2.212   0.236   1.667 -0.7280  1.1632  0.9056
  356Sol     MW 4510   2.155   0.237   1.598  0.1051  0.2111  0.1161
  357Sol     OW 4511   0.650   2.511   6.344 -0.1696  0.5331 -0.0690
  357Sol     HW 4512   0.703   2.456   6.402 -1.3798 -0.7872 -0.1975
  357Sol     HW 4513   0.689   2.598   6.352  0.3177  0.1556  1.9360
  357Sol     MW 4514   0.659   2.514   6.350 -0.5997 -0.5184 -0.2272
  358Sol     OW 4515   0.858   1.427   4.028  0.2302 -0.4778  0.0933
  358Sol     HW 4516   0.905   1.359   3.981  0.2360 -0.1949 -0.3083
  358Sol     HW 4517   0.828   1.383   4.109 -0.1038 -1.0616 -0.3415
  358Sol     MW 4518   0.859   1.417   4.031  1.0758  0.6132 -0.2094
  359Sol     OW 4519   2.724   2.099   1.784 -0.0746 -0.1323  0.0844
  359Sol     HW 4520   2.742   2.005   1.786 -0.6836 -0.2690 -0.8895
  359Sol     HW 4521   2.630   2.107   1.797 -0.0386  0.3442  0.0858
  359Sol     MW 4522   2.718   2.092   1.785 -0.2946  0.2264  0.0313
  360Sol     OW 4523   1.909   2.241   8.424  0.1472  0.0322  0.3570
  360Sol     HW 4524   1.940   2.195   8.502  3.2148  1.5643  0.1134
  360Sol     HW 4525   1.950   2.194   8.351 -1.9402 -0.8034 -0.3050
  360Sol     MW 4526   1.916   2.232   8.424 -0.5142 -0.3957 -0.3374
  361Sol     OW 4527   0.445   1.161   7.259 -0.5225  0.1572  0.5936
  361Sol     HW 4528   0.367   1.109   7.240 -2.1513  2.8225 -0.3779
  361Sol     HW 4529   0.459   1.150   7.353  0.2776 -3.4100  0.1305
  361Sol     MW 4530   0.439   1.156   7.265 -0.3775 -0.1733  0.0006
  362Sol     OW 4531   1.046   0.395   3.214  0.1419 -0.2910  0.0611
  362Sol     HW 4532   1.120   0.456   3.217  0.7898 -0.9444 -1.6682
  362Sol     HW 4533   1.072   0.322   3.271 -0.1096  0.4616  1.1580
  362Sol     MW 4534   1.055   0.394   3.219  0.3391  0.4183  0.3786
  363Sol     OW 4535   2.991   3.352   6.679  0.1929  0.3594  0.7407
  363Sol     HW 4536   3.078   3.330   6.646  0.5539  1.7634  0.6990
  363Sol     HW 4537   3.006   3.375   6.771 -0.3990 -1.0265  1.1854
  363Sol     MW 4538   3.000   3.352   6.684 -0.2814 -0.6307  0.0328
  364Sol     OW 4539   2.609   0.137   2.712 -0.3298  0.0743  0.4339
  364Sol     HW 4540   2.535   0.151   2.654 -0.2010  0.9630  0.4781
  364Sol     HW 4541   2.571   0.135   2.800 -0.4418 -0.6113  0.3706
  364Sol     MW 4542   2.599   0.138   2.715 -0.4068 -0.0992  0.3070
  365Sol     OW 4543   2.920   3.329   1.710  0.2664  0.0361 -0.3580
  365Sol     HW 4544   2.856   3.363   1.773  1.3938 -2.2300  2.1006
  365Sol     HW 4545   3.005   3.346   1.751  1.0666 -0.4931 -1.7915
  365Sol     MW 4546   2.922   3.334   1.720 -0.5150 -0.3189  0.1942
  366Sol     OW 4547   2.367   1.773   7.556 -0.3091 -0.1750  0.0303
  366Sol     HW 4548   2.333   1.862   7.545  1.3698  0.5746  0.7325
  366Sol     HW 4549   2.356   1.754   7.649 -0.0603 -0.4388  0.0079
  366Sol     MW 4550   2.363   1.779   7.563  0.4142 -0.1970  0.0507
  367Sol     OW 4551   1.309   1.456   7.785  0.0531 -0.1198  0.0914
  367Sol     HW 4552   1.213   1.462   7.792  0.0060 -1.4881  0.6698
  367Sol     HW 4553   1.339   1.464   7.876  0.5067  0.5374 -0.1151
  367Sol     MW 4554   1.303   1.457   7.794  0.1771 -0.4243 -0.0559
  368Sol     OW 4555   1.402   1.093   5.265 -0.3857  0.1138 -0.0079
  368Sol     HW 4556   1.405   1.162   5.331  0.3581 -0.6872  0.8077
  368Sol     HW 4557   1.481   1.041   5.280 -0.6183 -0.5564 -1.0128
  368Sol     MW 4558   1.409   1.094   5.272  0.1995 -0.1465 -0.3471
  369Sol     OW 4559   1.861   0.092   4.923  0.4505  0.0804  0.0146
  369Sol     HW 4560   1.782   0.041   4.904 -0.0500  0.5846  0.6944
  369Sol     HW 4561   1.882   0.135   4.840 -0.1492  0.1545 -0.1044
  369Sol     MW 4562   1.855   0.091   4.913 -0.0356 -0.4735  0.0118
  370Sol     OW 4563   1.295   0.995   3.449 -0.2960 -0.0900 -0.5705
  370Sol     HW 4564   1.239   0.929   3.489 -0.2486  0.8898  1.1887
  370Sol     HW 4565   1.239   1.039   3.385 -1.7215  1.1646  1.4707
  370Sol     MW 4566   1.285   0.993   3.447  0.3343 -0.3259  0.3940
  371Sol     OW 4567   1.363   3.157   4.914  0.0397  0.0835 -0.3791
  371Sol     HW 4568   1.349   3.107   4.995  0.5233  1.7721  0.7586
  371Sol     HW 4569   1.445   3.123   4.879  0.2281 -0.1167  0.2493
  371Sol     MW 4570   1.369   3.149   4.918 -0.1225 -0.7300 -0.2751
  372Sol     OW 4571   2.424   1.156   2.170 -0.0868  0.4108 -0.4964
  372Sol     HW 4572   2.391   1.087   2.113  1.0877  1.4446 -2.5022
  372Sol     HW 4573   2.519   1.143   2.171 -0.0879  0.4365  1.1981
  372Sol     MW 4574   2.430   1.149   2.165  0.5592  0.2139  0.3286
  373Sol     OW 4575   3.199   1.254   1.401 -0.0713  0.2161  0.2058
  373Sol     HW 4576   3.234   1.333   1.441  0.5221 -0.0530  0.2122
  373Sol     HW 4577   3.120   1.235   1.452 -0.1832  0.7631  0.2429
  373Sol     MW 4578   3.195   1.259   1.409  1.0939 -0.2055  0.6527
  374Sol     OW 4579   2.319   0.445   9.733 -0.3051  0.4311 -0.0618
  374Sol     HW 4580   2.255   0.481   9.672 -1.5280  0.5575  1.2826
  374Sol     HW 4581   2.351   0.521   9.782 -0.6182  0.0940  0.6641
  374Sol     MW 4582   2.316   0.455   9.732 -0.1355 -0.2314 -0.6425
  375Sol     OW 4583   2.738   1.633   7.205 -0.0079  0.5146  0.6381
  375Sol     HW 4584   2.662   1.630   7.263 -0.7577  2.0269 -0.2194
  375Sol     HW 4585   2.701   1.628   7.117  0.8280  1.7284  0.1942
  375Sol     MW 4586   2.728   1.633   7.202 -0.0006 -0.0907 -0.1827
  376Sol     OW 4587   1.885   1.843   6.623 -0.2286  0.0117 -0.0085
  376Sol     HW 4588   1.967   1.887   6.604 -1.1674  0.6998 -2.8376
  376Sol     HW 4589   1.901   1.751   6.601 -0.0309  0.0395  0.0219
  376Sol     MW 4590   1.893   1.839   6.619  0.0915  0.0822 -0.2597
  377Sol     OW 4591   3.214   1.493   3.981 -0.0223 -0.8762  0.2591
  377Sol     HW 4592   3.252   1.422   3.930  1.1289 -0.1766  0.1218
  377Sol     HW 4593   3.187   1.558   3.916 -0.8464 -1.0755  0.3978
  377Sol     MW 4594   3.215   1.493   3.971  0.3050  0.2970  0.3998
  378Sol     OW 4595   3.223   1.944   9.023 -0.4660  0.3303 -0.1035
  378Sol     HW 4596   3.159   1.900   8.967 -1.3681 -2.7702  3.1929
  378Sol     HW 4597   3.184   1.942   9.110  3.0383  0.5784  1.5610
  378Sol     MW 4598   3.214   1.940   9.025 -0.6173  0.1954 -0.0892
  379Sol     OW 4599   3.153   0.364   6.268 -0.6951  0.5846  0.3531
  379Sol     HW 4600   3.246   0.342   6.260 -0.5719  0.4289  1.9759
  379Sol     HW 4601   3.139   0.433   6.203  0.8555  1.4740  0.9352
  379Sol     MW 4602   3.160   0.368   6.262  0.6794 -0.2885  0.2594
  380Sol     OW 4603   1.942   1.460   4.876  0.3668  0.2799 -0.0314
  380Sol     HW 4604   1.880   1.414   4.820  0.8429 -1.0560  0.5092
  380Sol     HW 4605   1.893   1.535   4.910  0.6625  2.2440 -3.7301
  380Sol     MW 4606   1.932   1.463   4.874  0.1406 -0.0562 -0.3131
  381Sol     OW 4607   0.935   0.892   4.769 -0.0904  0.0261  0.7738
  381Sol     HW 4608   1.018   0.896   4.818  0.0708 -1.7240  0.6595
  381Sol     HW 4609   0.885   0.823   4.812 -0.4495 -0.6860 -0.7623
  381Sol     MW 4610   0.938   0.886   4.777  0.2048  0.1213  0.1779
  382Sol     OW 4611   3.193   1.115   2.631 -0.1539 -0.0260  0.0401
  382Sol     HW 4612   3.237   1.182   2.579  0.0930 -0.9587 -0.9615
  382Sol     HW 4613   3.100   1.137   2.625 -0.1272 -0.1466 -0.8232
  382Sol     MW 4614   3.188   1.123   2.626 -0.4707  0.3472 -0.0940
  383Sol     OW 4615   2.119   2.389   8.076 -0.2418  0.0481  0.5350
  383Sol     HW 4616   2.025   2.400   8.088  0.1400  1.8781  2.0361
  383Sol     HW 4617   2.156   2.405   8.163  1.5648  0.6477 -0.3232
  383Sol     MW 4618   2.114   2.391   8.085 -0.2538 -0.4446  0.0521
  384Sol     OW 4619   3.251   1.138   2.052  1.1612 -0.1477 -0.0154
  384Sol     HW 4620   3.233   1.196   2.126  1.2106 -1.3661  0.9739
  384Sol     HW 4621   3.346   1.144   2.039  1.0822  0.4634 -0.3145
  384Sol     MW 4622   3.258   1.143   2.057  0.1234 -0.6178 -0.0202
  385Sol     OW 4623   0.994   3.098   5.663 -0.4087  0.3268 -0.5661
  385Sol     HW 4624   0.975   3.019   5.713  0.1608  0.4112 -0.2070
  385Sol     HW 4625   1.060   3.072   5.599 -0.4912  0.4271 -0.6936
  385Sol     MW 4626   0.998   3.089   5.662 -0.4402 -0.2959 -0.3213
  386Sol     OW 4627   0.202   3.151   6.118 -0.7759  0.0398 -0.2364
  386Sol     HW 4628   0.188   3.212   6.046 -2.7671  0.7987  0.7686
  386Sol     HW 4629   0.122   3.156   6.171  0.3302 -1.0650  1.6142
  386Sol     MW 4630   0.194   3.157   6.116 -0.2089  0.1466  0.2781
  387Sol     OW 4631   2.814   1.073   2.859 -0.1977  0.4289  0.0203
  387Sol     HW 4632   2.849   1.035   2.939  0.8344  0.8145 -0.2393
  387Sol     HW 4633   2.808   1.000   2.798 -1.6190  0.0041  0.6509
  387Sol     MW 4634   2.816   1.063   2.861  0.0654  0.3470  0.1776
  388Sol     OW 4635   1.743   0.902   7.699  0.1288  0.7867  0.3210
  388Sol     HW 4636   1.821   0.848   7.710  0.2875  0.9423 -0.0402
  388Sol     HW 4637   1.682   0.870   7.765  0.1450  0.0262 -0.0284
  388Sol     MW 4638   1.745   0.894   7.706  0.3233 -0.0770  0.1779
  389Sol     OW 4639   0.227   2.688   4.844  0.4996 -0.3418  0.3468
  389Sol     HW 4640   0.209   2.717   4.933 -1.5302 -0.4879  0.0163
  389Sol     HW 4641   0.162   2.734   4.791 -0.0146 -2.2416 -0.7163
  389Sol     MW 4642   0.219   2.695   4.847  0.5250 -0.2196 -0.2536
  390Sol     OW 4643   3.023   1.027   8.642  0.0409  0.3763  0.4726
  390Sol     HW 4644   2.935   1.005   8.675  0.1094  0.3928  0.6660
  390Sol     HW 4645   3.008   1.051   8.551 -0.6095  3.2894  1.2689
  390Sol     MW 4646   3.013   1.027   8.637  0.4443 -0.0326 -0.3769
  391Sol     OW 4647   0.165   0.663   3.005 -0.0729 -0.2204 -0.6420
  391Sol     HW 4648   0.074   0.663   3.032  0.5077  0.5599  1.4027
  391Sol     HW 4649   0.196   0.574   3.022 -0.2167 -0.2359 -0.4641
  391Sol     MW 4650   0.160   0.655   3.009 -0.3781 -0.1856 -0.3442
  392Sol     OW 4651   2.988   3.166   9.637  0.1977  0.0480 -0.1646
  392Sol     HW 4652   3.058   3.102   9.626 -0.1501 -0.7995  2.1257
  392Sol     HW 4653   2.953   3.179   9.549  1.5698 -1.4356 -0.9562
  392Sol     MW 4654   2.991   3.161   9.628  0.0115 -0.0164  0.4158
  393Sol     OW 4655   0.847   2.097   6.129 -0.4127 -0.1317 -0.2722
  393Sol     HW 4656   0.913   2.166   6.126 -0.4835 -0.0071  0.8102
  393Sol     HW 4657   0.848   2.067   6.220 -2.0240  0.0399 -0.1869
  393Sol     MW 4658   0.853   2.100   6.137 -0.0766  0.5185  0.0791
  394Sol     OW 4659   1.002   3.015   3.799  0.4122  0.2120  0.2523
  394Sol     HW 4660   1.016   3.102   3.761 -1.8658  0.6601  0.3644
  394Sol     HW 4661   1.008   2.955   3.724  0.7095  0.5938 -0.0332
  394Sol     MW 4662   1.004   3.017   3.788 -0.4903  0.6567 -0.0054
  395Sol     OW 4663   0.237   2.017   8.383 -0.1462 -0.1632 -0.1239
  395Sol     HW 4664   0.327   2.023   8.416 -0.1753 -0.9262  0.1007
  395Sol     HW 4665   0.183   2.053   8.453 -0.2678 -2.3699  0.9593
  395Sol     MW 4666   0.240   2.020   8.392  0.0813 -0.0374 -0.1358
  396Sol     OW 4667   2.655   3.178   7.209  0.0404  0.2077  0.3695
  396Sol     HW 4668   2.688   3.113   7.271  1.1676  2.2368  1.9523
  396Sol     HW 4669   2.600   3.128   7.149 -1.1557 -1.8044  3.0484
  396Sol     MW 4670   2.653   3.168   7.209  0.3054 -0.4155  0.1501
  397Sol     OW 4671   2.644   2.000   9.387  0.1083  0.4627  0.3599
  397Sol     HW 4672   2.715   2.001   9.450  0.1951  0.8115  0.2599
  397Sol     HW 4673   2.639   2.091   9.356  0.0239  0.3078 -0.0813
  397Sol     MW 4674   2.650   2.008   9.390 -0.0409  0.1579  0.2708
  398Sol     OW 4675   1.972   3.233   9.691 -0.0234  0.1453  0.4721
  398Sol     HW 4676   1.984   3.154   9.743 -0.0432  0.4777  0.9809
  398Sol     HW 4677   2.040   3.293   9.721 -0.5076  0.6128  0.6478
  398Sol     MW 4678   1.979   3.232   9.698  0.1899  0.5271 -0.1657
  399Sol     OW 4679   0.337   0.218   1.939  0.1889 -0.4999 -0.5639
  399Sol     HW 4680   0.326   0.307   1.906  0.0608 -0.5244 -0.5867
  399Sol     HW 4681   0.408   0.225   2.002 -2.5852  0.4318  2.5941
  399Sol     MW 4682   0.342   0.227   1.942  0.3988  0.3111  0.2814
  400Sol     OW 4683   1.695   0.280   7.270 -0.6683  0.4991 -0.6793
  400Sol     HW 4684   1.743   0.214   7.220 -2.0914 -0.1345 -1.2231
  400Sol     HW 4685   1.603   0.262   7.252 -1.0710  2.7412 -0.9829
  400Sol     MW 4686   1.691   0.273   7.264  0.1783 -0.1020 -0.7285
  401Sol     OW 4687   0.202   1.761   7.912 -0.1966 -0.2786 -0.6666
  401Sol     HW 4688   0.270   1.767   7.844 -0.4825 -0.1143 -0.9418
  401Sol     HW 4689   0.245   1.717   7.985  1.6846  4.0958  1.0305
  401Sol     MW 4690   0.212   1.758   7.912  0.2350 -0.1057 -0.0089
  402Sol     OW 4691   0.389   0.708   3.230 -0.4032  0.0056  0.2795
  402Sol     HW 4692   0.296   0.699   3.208 -0.4218  2.3139 -0.6910
  402Sol     HW 4693   0.428   0.746   3.151  1.2016 -0.1150  1.0108
  402Sol     MW 4694   0.384   0.711   3.221  0.5951 -0.6417  0.3822
  403Sol     OW 4695   2.220   0.667   7.942  0.6744 -0.6884  0.1238
  403Sol     HW 4696   2.267   0.751   7.939 -2.3900  1.0501 -2.3477
  403Sol     HW 4697   2.264   0.613   7.877 -0.2187  0.6871 -1.6802
  403Sol     MW 4698   2.228   0.670   7.936 -0.1753  0.2484  0.1338
  404Sol     OW 4699   1.142   0.484   4.943  0.3987 -0.3127  0.4485
  404Sol     HW 4700   1.173   0.394   4.954 -1.2962 -0.6224  2.9429
  404Sol     HW 4701   1.072   0.477   4.878 -0.6923 -1.0490  1.6705
  404Sol     MW 4702   1.139   0.475   4.938 -0.1640  0.0990  0.3282
  405Sol     OW 4703   0.589   2.663   5.574  0.3244  0.1922  0.2630
  405Sol     HW 4704   0.533   2.629   5.643 -0.4641  0.0357 -0.4522
  405Sol     HW 4705   0.615   2.586   5.523  0.2043  0.4110 -0.1336
  405Sol     MW 4706   0.587   2.653   5.576  0.2561  0.8588 -0.6907
  406Sol     OW 4707   1.124   0.920   6.987 -0.9578  0.0076  0.3956
  406Sol     HW 4708   1.169   0.864   7.051 -1.1984 -0.0159  0.5453
  406Sol     HW 4709   1.171   0.905   6.905 -2.1361 -1.7813  0.0244
  406Sol     MW 4710   1.132   0.913   6.986 -0.7450  0.4990  0.3391
  407Sol     OW 4711   0.938   0.479   8.092 -0.2270  0.5685 -0.0802
  407Sol     HW 4712   0.875   0.469   8.021  0.0460  1.2606 -0.4278
  407Sol     HW 4713   0.884   0.504   8.168 -0.5936 -0.8337  0.1362
  407Sol     MW 4714   0.927   0.481   8.093 -0.8380 -0.2842 -0.2709
  408Sol     OW 4715   2.375   0.671   4.723  0.3591  0.3316 -0.0449
  408Sol     HW 4716   2.413   0.758   4.710  0.7776  0.2355  0.5216
  408Sol     HW 4717   2.311   0.683   4.793  2.4038 -0.3666  2.0031
  408Sol     MW 4718   2.373   0.680   4.728 -0.0888  0.1083  0.7079
  409Sol     OW 4719   1.414   1.632   7.365  0.2764  0.5155  0.0876
  409Sol     HW 4720   1.358   1.559   7.389  0.7442  0.3690  0.7352
  409Sol     HW 4721   1.418   1.688   7.443  1.4084  0.2769  0.2160
  409Sol     MW 4722   1.410   1.631   7.374  0.0893 -0.7367  0.5525
  410Sol     OW 4723   0.454   0.686   2.561 -0.3252  0.3411 -0.1275
  410Sol     HW 4724   0.523   0.711   2.499  0.3726  1.6066  1.1279
  410Sol     HW 4725   0.379   0.663   2.507 -0.1990  2.8467 -1.3993
  410Sol     MW 4726   0.454   0.686   2.551 -0.9715 -0.3627 -0.2182
  411Sol     OW 4727   0.450   3.304   6.027  0.2314 -0.4143 -0.3991
  411Sol     HW 4728   0.456   3.211   6.048  1.4051 -0.3725 -0.5178
  411Sol     HW 4729   0.365   3.313   5.983 -0.3769 -1.2247  0.5988
  411Sol     MW 4730   0.443   3.296   6.025  0.1833 -0.2201 -0.5177
  412Sol     OW 4731   0.368   3.210   6.491  0.3177 -0.1386  0.1893
  412Sol     HW 4732   0.416   3.131   6.466  1.4369  0.1575  1.3597
  412Sol     HW 4733   0.386   3.273   6.421  0.5592 -0.4601 -0.0411
  412Sol     MW 4734   0.374   3.208   6.483  0.8919  0.0460 -0.0894
  413Sol     OW 4735   2.266   1.755   9.357  0.4186  0.3731  0.5176
  413Sol     HW 4736   2.241   1.802   9.277  0.1097  0.7272  0.8168
  413Sol     HW 4737   2.287   1.667   9.328  0.4933  0.5546  0.0172
  413Sol     MW 4738   2.266   1.752   9.348  0.8531 -0.4032 -0.0683
  414Sol     OW 4739   2.769   0.258   9.902  0.7210  0.5867  0.1245
  414Sol     HW 4740   2.678   0.238   9.926  0.2862  0.3758 -1.6838
  414Sol     HW 4741   2.769   0.352   9.887  0.7329  0.5394 -0.1678
  414Sol     MW 4742   2.760   0.264   9.903 -0.2537 -0.0738 -0.0255
  415Sol     OW 4743   0.031   1.653   7.716 -0.2867 -0.0267  0.3482
  415Sol     HW 4744  -0.013   1.571   7.737 -0.1740 -0.3261 -0.5437
  415Sol     HW 4745   0.074   1.679   7.797 -0.5390 -0.7211  0.7053
  415Sol     MW 4746   0.031   1.648   7.725 -0.2705 -0.0127 -0.5472
  416Sol     OW 4747   2.976   1.126   4.184  0.3630  0.2730 -0.1406
  416Sol     HW 4748   2.981   1.076   4.266 -0.2880  0.2845 -0.0948
  416Sol     HW 4749   3.042   1.194   4.194 -1.7584  2.1261  1.6382
  416Sol     MW 4750   2.983   1.127   4.193 -0.3917  0.4951 -0.0493
  417Sol     OW 4751   2.362   0.760   3.121 -0.7830  0.2429 -0.3153
  417Sol     HW 4752   2.447   0.804   3.130 -0.8199  0.0553  0.9503
  417Sol     HW 4753   2.383   0.667   3.128 -1.2819  0.2596  1.5157
  417Sol     MW 4754   2.371   0.756   3.122  0.0016  0.4146  0.7506
  418Sol     OW 4755   1.753   2.975   3.042 -0.2749  0.0694 -0.0375
  418Sol     HW 4756   1.667   2.975   3.083 -0.1382  0.1366  0.2547
  418Sol     HW 4757   1.814   2.958   3.114 -0.0407  0.0702 -0.2339
  418Sol     MW 4758   1.751   2.974   3.052  0.1981  0.3123  0.2591
  419Sol     OW 4759   3.202   1.110   5.886 -0.4375 -0.0373  0.4293
  419Sol     HW 4760   3.256   1.137   5.961  1.3268 -0.2849 -0.7270
  419Sol     HW 4761   3.211   1.181   5.823 -2.1511  0.3028  0.5603
  419Sol     MW 4762   3.208   1.118   5.887  0.2307  0.9976 -0.1695
  420Sol     OW 4763   2.933   3.198   3.754  0.1761 -0.1837  0.4896
  420Sol     HW 4764   2.953   3.164   3.667 -0.5462  1.4975 -0.3565
  420Sol     HW 4765   2.861   3.259   3.740  1.5455  1.8430  1.9137
  420Sol     MW 4766   2.929   3.201   3.745  0.3151 -0.1481 -0.0281
  421Sol     OW 4767   2.878   2.835   1.584 -0.0742 -0.3266 -0.1171
  421Sol     HW 4768   2.924   2.908   1.543  0.4794 -0.3748  0.4267
  421Sol     HW 4769   2.802   2.875   1.626  0.4282 -0.0238  0.4928
  421Sol     MW 4770   2.875   2.845   1.584 -0.6300  0.4215 -0.2411
  422Sol     OW 4771   1.545   2.744   1.781  0.3177  0.0754 -0.2539
  422Sol     HW 4772   1.546   2.671   1.843 -1.0390 -0.0048 -0.3091
  422Sol     HW 4773   1.577   2.706   1.699  0.8564 -0.1336  0.0476
  422Sol     MW 4774   1.548   2.734   1.780 -0.3442  0.3701  0.3504
  423Sol     OW 4775   3.324   0.883   2.152 -0.0438  0.1005  0.3821
  423Sol     HW 4776   3.301   0.969   2.119  1.9819 -0.2135 -1.9217
  423Sol     HW 4777   3.240   0.836   2.157 -1.2413  2.3289  2.2470
  423Sol     MW 4778   3.314   0.886   2.150 -0.5553 -0.0808  0.1162
  424Sol     OW 4779   1.811   0.153   3.515  0.0434 -0.0745 -0.1871
  424Sol     HW 4780   1.886   0.198   3.555  0.5371 -1.0304 -0.0135
  424Sol     HW 4781   1.850   0.079   3.469 -0.9083 -1.2726  0.9157
  424Sol     MW 4782   1.821   0.150   3.515 -0.1085 -0.1606  0.1788
  425Sol     OW 4783   1.428   2.771   3.081 -0.3196  0.5207  0.2249
  425Sol     HW 4784   1.408   2.748   3.172 -1.9153  0.9786 -0.0007
  425Sol     HW 4785   1.360   2.728   3.030  0.7819 -0.0398 -0.8098
  425Sol     MW 4786   1.420   2.765   3.085 -0.4407  0.1020 -0.3985
  426Sol     OW 4787   0.182   1.959   6.305  0.3750  0.5209  0.2738
  426Sol     HW 4788   0.260   1.933   6.354  0.8280 -0.8693 -1.1582
  426Sol     HW 4789   0.115   1.896   6.332  0.2254  0.6500  0.2029
  426Sol     MW 4790   0.183   1.951   6.312 -0.1144 -0.2578  0.3409
  427Sol     OW 4791   3.277   1.962   5.152 -0.4453  0.5760  0.0854
  427Sol     HW 4792   3.280   2.042   5.203  0.2003  0.2607  0.5487
  427Sol     HW 4793   3.186   1.932   5.159 -0.9000  1.7085 -0.7924
  427Sol     MW 4794   3.269   1.966   5.157  0.3442  0.0767  0.0980
  428Sol     OW 4795   2.561   1.965   3.525  0.1397  0.1341 -0.1862
  428Sol     HW 4796   2.514   1.895   3.478 -3.1028  2.9676 -1.3992
  428Sol     HW 4797   2.533   1.956   3.616  0.9653 -1.0864 -0.0455
  428Sol     MW 4798   2.554   1.958   3.529 -0.3147  0.5821  0.1804
  429Sol     OW 4799   0.917   0.905   6.624  0.0486 -0.4611 -0.2981
  429Sol     HW 4800   0.971   0.975   6.661  0.2139 -1.7256  1.9198
  429Sol     HW 4801   0.980   0.837   6.601 -0.3137 -0.6847 -0.6264
  429Sol     MW 4802   0.928   0.906   6.625 -0.5000  0.2624  0.4530
  430Sol     OW 4803   0.507   1.222   3.008 -0.1573  0.0643 -0.2911
  430Sol     HW 4804   0.562   1.240   3.085 -1.5423  0.7567  0.5628
  430Sol     HW 4805   0.568   1.215   2.935  1.0723  0.6496  0.6705
  430Sol     MW 4806   0.517   1.223   3.009  0.3708 -1.3828  0.0778
  431Sol     OW 4807   1.335   0.106   6.285  0.4083  0.4974 -0.5013
  431Sol     HW 4808   1.415   0.056   6.269  1.0079  2.0535 -2.5489
  431Sol     HW 4809   1.286   0.054   6.349  1.7126 -1.9189 -1.4155
  431Sol     MW 4810   1.338   0.097   6.290  0.1174 -0.2223 -0.1602
  432Sol     OW 4811   3.012   1.668   7.245  0.5023  0.3727 -0.3122
  432Sol     HW 4812   3.015   1.604   7.316  1.8569  1.0320  0.2246
  432Sol     HW 4813   2.921   1.665   7.215 -0.0920  0.0842  1.4393
  432Sol     MW 4814   3.004   1.662   7.249  0.1783  0.3764  0.1210
  433Sol     OW 4815   2.168   0.888   6.028  0.7501  0.0564 -0.0354
  433Sol     HW 4816   2.129   0.974   6.012  0.2301 -0.1773 -0.0271
  433Sol     HW 4817   2.108   0.826   5.988  2.4803 -0.1501 -2.4128
  433Sol     MW 4818   2.159   0.891   6.023 -0.7457  0.0405 -0.2175
  434Sol     OW 4819   0.073   3.307   1.854 -0.3405 -0.0438 -0.2564
  434Sol     HW 4820   0.129   3.357   1.913  0.7852  0.9135 -2.1021
  434Sol     HW 4821   0.121   3.304   1.771 -0.0660 -4.7593 -0.0495
  434Sol     MW 4822   0.082   3.311   1.852  1.0967  0.1177 -0.1864
  435Sol     OW 4823   1.076   1.581   8.083  0.3008 -0.2529 -0.0348
  435Sol     HW 4824   0.998   1.559   8.033  0.0433 -0.1433  0.3167
  435Sol     HW 4825   1.111   1.496   8.111 -0.4649 -0.2516  0.9744
  435Sol     MW 4826   1.072   1.571   8.081  0.3643 -0.7440  0.8010
  436Sol     OW 4827   1.628   1.951   2.768 -0.1093 -0.4241 -0.0701
  436Sol     HW 4828   1.620   1.857   2.786 -2.3791 -0.7113 -2.2098
  436Sol     HW 4829   1.695   1.957   2.700  1.4662 -0.2937  1.4890
  436Sol     MW 4830   1.633   1.943   2.763 -0.0568  0.0985  0.2225
  437Sol     OW 4831   2.435   3.302   5.597  0.0132 -0.2384 -0.2678
  437Sol     HW 4832   2.406   3.309   5.506  2.4336 -2.2388 -1.2558
  437Sol     HW 4833   2.380   3.233   5.634 -0.3516 -0.0598 -0.4775
  437Sol     MW 4834   2.427   3.296   5.592  0.1948 -1.3609 -0.2103
  438Sol     OW 4835   1.081   3.086   5.221 -0.0064 -0.3886  0.3575
  438Sol     HW 4836   1.051   3.175   5.241 -1.1828 -0.9388  1.1124
  438Sol     HW 4837   1.101   3.047   5.307  0.4130 -0.8895  0.0400
  438Sol     MW 4838   1.080   3.090   5.231 -0.2711  0.5593  0.2917
  439Sol     OW 4839   2.388   1.606   3.214  0.1561  0.3498  0.2053
  439Sol     HW 4840   2.418   1.692   3.185  0.6461  0.8924  2.2092
  439Sol     HW 4841   2.303   1.595   3.172  0.5938  1.3017 -0.9716
  439Sol     MW 4842   2.383   1.613   3.208 -0.1871 -0.0515  0.6222
  440Sol     OW 4843   2.034   1.910   6.966  0.1789 -0.2319  0.1254
  440Sol     HW 4844   1.992   1.976   7.021  0.9035  1.0881 -0.8664
  440Sol     HW 4845   2.094   1.864   7.024 -0.5575 -0.2202  0.8998
  440Sol     MW 4846   2.036   1.912   6.976 -0.1346  0.6163 -0.4249
  441Sol     OW 4847   0.191   0.781   6.574  0.7046  0.0487  0.0784
  441Sol     HW 4848   0.254   0.835   6.527 -0.5085  1.9471  0.5666
  441Sol     HW 4849   0.234   0.760   6.657  1.5691 -0.5643 -0.5234
  441Sol     MW 4850   0.200   0.784   6.577  0.0047  0.1861 -0.3115
  442Sol     OW 4851   1.109   1.239   7.558 -0.0403 -0.0254 -0.1969
  442Sol     HW 4852   1.164   1.167   7.590 -1.4049 -2.2692 -2.7406
  442Sol     HW 4853   1.026   1.228   7.603 -0.4993 -0.5522 -1.1395
  442Sol     MW 4854   1.107   1.231   7.565 -0.3031  0.2756  0.0885
  443Sol     OW 4855   1.842   0.082   2.701  0.4496 -0.6125  0.7535
  443Sol     HW 4856   1.905   0.067   2.771  1.6152  1.0808  0.0964
  443Sol     HW 4857   1.851   0.175   2.680 -2.3480 -0.3057  0.7292
  443Sol     MW 4858   1.848   0.089   2.705 -0.5392  0.2470  0.1500
  444Sol     OW 4859   1.853   0.784   5.906 -0.1892 -0.4440 -0.2915
  444Sol     HW 4860   1.847   0.840   5.829 -0.7664  1.9111  1.4095
  444Sol     HW 4861   1.796   0.825   5.970  1.2822 -1.6307  1.8417
  444Sol     MW 4862   1.847   0.792   5.905 -0.1850 -0.4495 -0.2070
  445Sol     OW 4863   2.302   0.894   5.094  0.7577 -0.3607  0.3507
  445Sol     HW 4864   2.356   0.831   5.143  1.5147  0.0559  0.0667
  445Sol     HW 4865   2.237   0.841   5.049  0.1393 -0.7653  1.6982
  445Sol     MW 4866   2.301   0.884   5.094 -0.2686  0.4080  0.1764
  446Sol     OW 4867   1.361   2.429   9.180 -0.5202 -0.2630  0.7520
  446Sol     HW 4868   1.381   2.523   9.175  0.4133 -0.4923  0.0149
  446Sol     HW 4869   1.266   2.425   9.180 -0.5922  0.7873  2.8760
  446Sol     MW 4870   1.355   2.437   9.180 -0.1164  0.1823  0.4991
  447Sol     OW 4871   1.072   1.725   4.843 -0.2249  0.1329 -0.7548
  447Sol     HW 4872   1.078   1.717   4.748  0.9351  1.8334 -0.8467
  447Sol     HW 4873   1.082   1.818   4.860  0.3061 -0.2303  1.0847
  447Sol     MW 4874   1.074   1.732   4.836  0.1971  0.1134  0.3438
  448Sol     OW 4875   2.139   1.106   7.192  0.3738  0.6782 -0.1285
  448Sol     HW 4876   2.188   1.025   7.206 -2.0293 -0.7525  0.1315
  448Sol     HW 4877   2.173   1.165   7.260  1.5748 -0.3423  0.1941
  448Sol     MW 4878   2.147   1.104   7.199 -0.1367  0.9845  0.1949
  449Sol     OW 4879   0.914   0.037   1.661  0.2387 -0.1386  0.0862
  449Sol     HW 4880   0.877   0.022   1.574  0.2988  1.0113 -0.1466
  449Sol     HW 4881   0.970   0.114   1.650 -0.1141  0.2900  1.2352
  449Sol     MW 4882   0.916   0.042   1.652 -0.1269  0.4319  0.1196
  450Sol     OW 4883   3.163   0.431   6.542 -0.3973  0.2283 -0.0630
  450Sol     HW 4884   3.151   0.390   6.456 -1.1823 -0.3492  0.3117
  450Sol     HW 4885   3.162   0.525   6.524 -0.2631  0.1100 -0.7238
  450Sol     MW 4886   3.162   0.436   6.532  0.4321  0.1813  0.0404
  451Sol     OW 4887   3.116   1.672   1.568 -0.1897 -0.3312  0.0043
  451Sol     HW 4888   3.026   1.654   1.595  0.5432 -2.2603  1.3119
  451Sol     HW 4889   3.145   1.741   1.628  0.1719 -1.9051  1.7182
  451Sol     MW 4890   3.111   1.677   1.576 -0.3576 -0.1728  0.0528
  452Sol     OW 4891   0.919   1.380   5.398  0.1568  0.6784 -0.0994
  452Sol     HW 4892   0.856   1.356   5.466 -0.2035  0.7983 -0.3870
  452Sol     HW 4893   1.002   1.342   5.426 -0.2078 -0.0944 -0.0809
  452Sol     MW 4894   0.921   1.375   5.406 -0.3644 -0.8767 -0.2810
  453Sol     OW 4895   2.079   0.288   7.417  0.4028 -0.5292  0.5098
  453Sol     HW 4896   2.130   0.361   7.453  0.6488  0.1167 -1.1149
  453Sol     HW 4897   2.091   0.294   7.323 -0.8999 -1.7089  0.2474
  453Sol     MW 4898   2.085   0.295   7.412 -0.5463 -0.4040 -0.2875
  454Sol     OW 4899   1.559   2.662   8.683 -0.5312  0.2298  0.4875
  454Sol     HW 4900   1.586   2.753   8.673  1.4158 -0.3107  0.5497
  454Sol     HW 4901   1.543   2.632   8.593 -0.9257  0.5644  0.4468
  454Sol     MW 4902   1.560   2.667   8.674  0.4520 -0.0057 -0.3076
  455Sol     OW 4903   0.660   2.310   3.224  0.2084  0.0159  0.8608
  455Sol     HW 4904   0.570   2.284   3.245  0.0203 -0.6841 -0.6770
  455Sol     HW 4905   0.705   2.227   3.206  0.6683  0.4690 -0.1577
  455Sol     MW 4906   0.656   2.300   3.224  0.1798 -0.2233  0.1678
  456Sol     OW 4907   2.448   2.057   8.817 -0.0006  0.3408  0.3359
  456Sol     HW 4908   2.487   2.145   8.818  0.0292  0.3225  0.9026
  456Sol     HW 4909   2.391   2.057   8.740 -0.3275  1.0041  0.5754
  456Sol     MW 4910   2.446   2.065   8.810 -0.0506 -1.1766  0.7879
  457Sol     OW 4911   1.875   3.089   6.527  0.3270 -0.5745 -0.4210
  457Sol     HW 4912   1.874   3.077   6.432 -2.4566  0.5545 -0.5916
  457Sol     HW 4913   1.806   3.030   6.560 -1.0031  1.4341  0.5200
  457Sol     MW 4914   1.869   3.082   6.522  0.7325 -0.3108 -0.4431
  458Sol     OW 4915   0.569   2.508   1.968 -0.4600  0.3081  0.0801
  458Sol     HW 4916   0.647   2.454   1.956 -0.7261 -0.1826  0.5040
  458Sol     HW 4917   0.498   2.455   1.932 -0.5052  1.0359 -0.9017
  458Sol     MW 4918   0.570   2.498   1.964  0.2594 -0.1978  0.3351
  459Sol     OW 4919   1.986   3.041   8.531  0.1012 -0.0553  0.2738
  459Sol     HW 4920   2.028   3.053   8.616 -1.0949 -0.1289  0.8806
  459Sol     HW 4921   1.925   2.968   8.544  0.1105 -0.2407 -0.7112
  459Sol     MW 4922   1.984   3.035   8.540 -0.5148  0.3762  0.2696
  460Sol     OW 4923   1.947   2.759   5.232  0.1036 -0.4572 -0.1155
  460Sol     HW 4924   2.035   2.793   5.246  0.1718 -1.0577  0.9895
  460Sol     HW 4925   1.915   2.738   5.320 -0.4281 -2.0149 -0.6649
  460Sol     MW 4926   1.952   2.760   5.241 -0.5521  0.3207  0.0138
  461Sol     OW 4927   2.476   0.179   7.456 -0.6075  0.2101 -0.3923
  461Sol     HW 4928   2.521   0.146   7.378  1.3162 -1.8400  1.5199
  461Sol     HW 4929   2.390   0.138   7.454  0.3874 -1.9666 -0.0772
  461Sol     MW 4930   2.472   0.173   7.449  0.2631  0.5142  0.4913
  462Sol     OW 4931   2.624   0.283   1.602 -0.3910 -0.6936 -0.4490
  462Sol     HW 4932   2.711   0.244   1.593 -0.4009 -1.2524  1.6548
  462Sol     HW 4933   2.564   0.216   1.567 -0.0058 -0.3760 -1.7429
  462Sol     MW 4934   2.626   0.273   1.598  0.0045 -0.0244  0.0570
  463Sol     OW 4935   0.233   2.827   9.893  0.0266 -0.7535 -0.5438
  463Sol     HW 4936   0.317   2.873   9.881  0.2685 -0.8660  0.6910
  463Sol     HW 4937   0.210   2.841   9.985 -1.4534 -0.4990 -0.9384
  463Sol     MW 4938   0.239   2.832   9.900 -0.3628 -0.0155  0.1945
  464Sol     OW 4939   0.568   1.661   3.941  0.6227  0.3166  0.4156
  464Sol     HW 4940   0.598   1.669   4.032  1.0896  0.6772  0.2304
  464Sol     HW 4941   0.548   1.568   3.931 -0.7267  0.4932  1.2912
  464Sol     MW 4942   0.569   1.653   3.948 -0.1712 -0.2821  0.5463
  465Sol     OW 4943   0.743   1.179   7.226  0.1475  0.3462 -0.1209
  465Sol     HW 4944   0.746   1.224   7.141  1.0939  0.3875 -0.0696
  465Sol     HW 4945   0.652   1.185   7.253 -0.1353  0.4502 -1.0781
  465Sol     MW 4946   0.735   1.183   7.221 -0.2838  0.3849 -0.2316
  466Sol     OW 4947   1.042   0.940   7.431 -0.0512  0.4526 -0.5092
  466Sol     HW 4948   1.109   0.872   7.427 -0.1412  0.3389  0.0242
  466Sol     HW 4949   1.041   0.977   7.342  0.5710  0.3127 -0.5770
  466Sol     MW 4950   1.048   0.937   7.422 -0.0031 -0.1409  0.2247
  467Sol     OW 4951   0.397   2.747   6.807 -0.3857 -0.4269  0.1525
  467Sol     HW 4952   0.378   2.750   6.901 -0.5226  1.3700  0.0753
  467Sol     HW 4953   0.455   2.821   6.792 -3.7543  1.8855 -1.9290
  467Sol     MW 4954   0.400   2.754   6.814  0.6370 -0.2530 -0.2965
  468Sol     OW 4955   3.116   1.320   3.209 -0.0211  0.5022  0.7066
  468Sol     HW 4956   3.108   1.363   3.294 -1.0142 -0.9565  1.3718
  468Sol     HW 4957   3.171   1.243   3.225  1.8107  1.5111 -0.4913
  468Sol     MW 4958   3.120   1.317   3.218 -0.1596 -0.2485 -0.0703
  469Sol     OW 4959   2.925   0.152   4.236  0.3103  0.0977  0.2417
  469Sol     HW 4960   2.908   0.231   4.184  0.5165 -2.0497 -3.2840
  469Sol     HW 4961   2.982   0.099   4.181 -1.3040 -3.3153  1.7094
  469Sol     MW 4962   2.928   0.154   4.226 -0.1979  0.4514  0.1674
  470Sol     OW 4963   2.836   0.752   2.436  0.0577  0.4719  0.4589
  470Sol     HW 4964   2.841   0.813   2.362 -4.0510  0.3191 -0.0532
  470Sol     HW 4965   2.864   0.668   2.401 -0.8497  0.6363 -0.6833
  470Sol     MW 4966   2.839   0.750   2.427 -0.3208  0.1435  0.1599
  471Sol     OW 4967   0.141   1.503   6.354 -0.1275  1.0050 -0.0469
  471Sol     HW 4968   0.061   1.490   6.304 -1.0766  0.3966  1.5852
  471Sol     HW 4969   0.210   1.505   6.289 -1.4605  1.4375 -1.4776
  471Sol     MW 4970   0.140   1.502   6.344 -0.2362  0.7982  0.3241
  472Sol     OW 4971   2.766   2.742   5.901 -0.3383 -0.0932  0.0381
  472Sol     HW 4972   2.681   2.704   5.919  0.7159 -2.6954 -0.2880
  472Sol     HW 4973   2.804   2.758   5.988 -0.4676 -0.5087  0.1718
  472Sol     MW 4974   2.762   2.740   5.910  0.1447 -0.8670  0.1891
  473Sol     OW 4975   0.090   2.929   3.732  0.7176 -0.5020  0.3152
  473Sol     HW 4976   0.048   3.006   3.770  2.7203  1.8542 -1.9866
  473Sol     HW 4977   0.179   2.930   3.768  1.6485 -0.0297 -1.8730
  473Sol     MW 4978   0.095   2.936   3.738  0.5240  0.1899 -0.4313
  474Sol     OW 4979   1.024   2.458   2.869 -0.7326 -0.4009 -0.1157
  474Sol     HW 4980   1.021   2.456   2.773  0.9863 -2.4904 -0.1496
  474Sol     HW 4981   1.101   2.511   2.890 -1.0770  0.0095  0.1265
  474Sol     MW 4982   1.030   2.462   2.862 -0.3172 -0.0845  0.0394
  475Sol     OW 4983   2.459   2.519   2.797  1.2943  0.4362  0.2221
  475Sol     HW 4984   2.460   2.526   2.892 -1.0438  0.9982  0.2235
  475Sol     HW 4985   2.510   2.440   2.778  2.0499  0.5044  1.9114
  475Sol     MW 4986   2.464   2.513   2.804  0.1855 -0.1373 -0.3726
  476Sol     OW 4987   1.383   3.007   8.434 -0.3191 -0.4034 -0.6897
  476Sol     HW 4988   1.360   2.995   8.342 -1.1347 -1.0730 -0.4108
  476Sol     HW 4989   1.425   3.093   8.438  1.9668 -1.3784 -2.1016
  476Sol     MW 4990   1.385   3.013   8.426 -0.5577  0.3706  0.6070
  477Sol     OW 4991   0.210   3.414   7.882 -0.2022 -0.1438 -0.3145
  477Sol     HW 4992   0.243   3.347   7.942  1.0098 -0.0997 -0.9067
  477Sol     HW 4993   0.116   3.418   7.899  0.0409 -0.5205  1.1860
  477Sol     MW 4994   0.205   3.409   7.888 -0.7970 -0.0973  0.1934
  478Sol     OW 4995   2.334   0.492   5.082  0.5247 -0.2381 -0.0182
  478Sol     HW 4996   2.305   0.407   5.049  0.7590 -0.2258 -0.2585
  478Sol     HW 4997   2.282   0.506   5.161  0.0292 -0.3185 -0.3255
  478Sol     MW 4998   2.327   0.486   5.086 -0.5682  0.1873 -0.6352
  479Sol     OW 4999   2.411   1.313   4.896 -0.0748 -0.4386 -0.0176
  479Sol     HW 5000   2.395   1.266   4.814  0.1812 -1.7157  0.6509
  479Sol     HW 5001   2.323   1.327   4.933 -0.1165 -0.9561  0.0845
  479Sol     MW 5002   2.402   1.310   4.892 -0.1481 -0.3663  0.1729
  480Sol     OW 5003   3.081   3.197   5.733  0.2107 -0.2984  0.2317
  480Sol     HW 5004   3.099   3.252   5.809 -0.5929 -0.8623  0.8280
  480Sol     HW 5005   3.017   3.133   5.763  0.0305 -0.6496 -0.8637
  480Sol     MW 5006   3.077   3.196   5.742  0.6729  0.5774 -0.2032
  481Sol     OW 5007   0.855   2.876   3.257  1.2258  0.5851 -0.0093
  481Sol     HW 5008   0.827   2.861   3.167  0.5673  1.6526  0.0093
  481Sol     HW 5009   0.805   2.812   3.308  0.0025  1.4111 -0.1594
  481Sol     MW 5010   0.848   2.869   3.253 -0.4958  0.0409 -0.4280
  482Sol     OW 5011   0.445   2.831   7.377  0.3502 -0.4289  0.1346
  482Sol     HW 5012   0.499   2.823   7.298 -0.6595 -1.4578 -0.4703
  482Sol     HW 5013   0.393   2.751   7.377 -1.4104  0.7031  0.5390
  482Sol     MW 5014   0.445   2.823   7.370 -0.2779 -0.2519  0.0117
  483Sol     OW 5015   1.358   3.152   7.045  0.0833  0.5279 -0.1282
  483Sol     HW 5016   1.360   3.242   7.079 -1.0035  0.7385 -0.5850
  483Sol     HW 5017   1.321   3.161   6.957  0.0940 -0.3550 -0.2260
  483Sol     MW 5018   1.354   3.161   7.040  0.0570 -0.2190  0.2043
  484Sol     OW 5019   2.204   0.293   5.553  0.3680  0.4630  0.0909
  484Sol     HW 5020   2.169   0.241   5.480 -0.2826  1.1106 -0.0600
  484Sol     HW 5021   2.295   0.308   5.529  0.4696 -0.3008 -0.0359
  484Sol     MW 5022   2.209   0.290   5.544 -0.0354  0.6231 -0.2012
  485Sol     OW 5023   2.477   2.603   1.816 -0.0765 -0.4596 -0.0973
  485Sol     HW 5024   2.409   2.598   1.750  0.1290 -1.6813 -0.2141
  485Sol     HW 5025   2.559   2.596   1.768  0.0585 -2.2651  0.3475
  485Sol     MW 5026   2.478   2.602   1.806  0.3604  0.2464 -0.1240
  486Sol     OW 5027   3.183   0.225   8.334  0.9744  0.6724  0.2788
  486Sol     HW 5028   3.206   0.281   8.408  0.5532  0.3127  0.6797
  486Sol     HW 5029   3.254   0.161   8.330  1.5690  1.3499 -0.3105
  486Sol     MW 5030   3.192   0.225   8.340  0.1337 -0.3421 -0.4323
  487Sol     OW 5031   0.932   0.439   8.536 -0.1005 -0.5347  0.0311
  487Sol     HW 5032   0.887   0.355   8.539  0.3617 -0.7525  1.1850
  487Sol     HW 5033   0.919   0.477   8.623  0.7609  0.0072 -0.0641
  487Sol     MW 5034   0.927   0.435   8.544 -1.1513 -0.1068 -0.4083
  488Sol     OW 5035   2.375   0.947   1.985 -0.1900 -0.1798 -0.6979
  488Sol     HW 5036   2.295   0.985   1.948  0.6322  2.7188  0.3585
  488Sol     HW 5037   2.445   0.974   1.926  0.0061 -3.2481 -1.9708
  488Sol     MW 5038   2.374   0.953   1.977 -0.2616  0.1992 -0.2648
  489Sol     OW 5039   1.025   1.137   2.939  0.2044 -0.4170  0.5784
  489Sol     HW 5040   1.032   1.059   2.995 -1.8049  0.2590  1.8541
  489Sol     HW 5041   0.935   1.168   2.954  0.1990  0.7644 -1.7537
  489Sol     MW 5042   1.017   1.133   2.945 -0.0809  0.3900  0.3248
  490Sol     OW 5043   0.625   1.199   9.319 -0.2397 -0.2247 -0.1457
  490Sol     HW 5044   0.719   1.219   9.324  0.7536 -4.1224 -1.1926
  490Sol     HW 5045   0.611   1.132   9.386 -2.8360  1.9946  1.6268
  490Sol     MW 5046   0.632   1.195   9.325 -0.0487 -0.5040 -0.1917
  491Sol     OW 5047   0.409   2.487   2.226  0.0186  0.2777  0.0399
  491Sol     HW 5048   0.485   2.504   2.170 -1.4211  0.8156 -1.7899
  491Sol     HW 5049   0.337   2.471   2.165 -2.0086  2.6939  1.6982
  491Sol     MW 5050   0.410   2.487   2.215 -0.4526 -0.4846 -0.1136
  492Sol     OW 5051   1.767   3.059   8.221 -0.3511 -0.2253 -0.1839
  492Sol     HW 5052   1.692   3.117   8.228  1.0353  1.5503  0.4782
  492Sol     HW 5053   1.785   3.031   8.311  0.2055 -0.0751 -0.2457
  492Sol     MW 5054   1.762   3.062   8.230 -0.2191 -0.6380  0.5586
  493Sol     OW 5055   2.438   1.173   5.307 -0.2952 -0.0872 -0.6950
  493Sol     HW 5056   2.479   1.149   5.223  1.3422 -1.1201  0.3613
  493Sol     HW 5057   2.430   1.269   5.303  0.2747 -0.0714 -1.8076
  493Sol     MW 5058   2.441   1.180   5.299 -0.8674  0.3022  0.4855
  494Sol     OW 5059   2.875   2.065   8.069 -0.4130  0.3135 -0.1220
  494Sol     HW 5060   2.967   2.038   8.071 -0.2945  0.5462 -1.7336
  494Sol     HW 5061   2.849   2.054   7.978 -2.1697 -0.3257  0.4332
  494Sol     MW 5062   2.881   2.062   8.061  0.1514  0.1607  0.5905
  495Sol     OW 5063   2.608   2.899   1.617  0.0728  0.4230 -0.2126
  495Sol     HW 5064   2.518   2.933   1.621  0.2370  1.2658 -2.5609
  495Sol     HW 5065   2.641   2.932   1.533  2.5579  0.0746  0.6105
  495Sol     MW 5066   2.603   2.905   1.609  0.1691 -0.6696  0.0081
  496Sol     OW 5067   2.928   2.715   7.512  0.2529 -0.9620 -0.1740
  496Sol     HW 5068   2.984   2.641   7.487 -0.1332 -0.8524 -1.3791
  496Sol     HW 5069   2.966   2.747   7.594  1.0245 -1.8632 -0.1718
  496Sol     MW 5070   2.936   2.711   7.517 -0.3965 -0.4018 -0.0519
  497Sol     OW 5071   0.219   2.919   2.599  0.3442  0.3858 -0.6019
  497Sol     HW 5072   0.145   2.859   2.584 -1.3145  2.0905  0.4441
  497Sol     HW 5073   0.234   2.960   2.514  0.7051 -0.6483 -1.0415
  497Sol     MW 5074   0.213   2.917   2.590  0.1682  0.2727 -0.1195
  498Sol     OW 5075   0.347   2.339   1.879  0.5914  0.5901  0.0424
  498Sol     HW 5076   0.341   2.335   1.784 -0.6705 -2.3426  0.1952
  498Sol     HW 5077   0.276   2.398   1.906 -0.0124  0.2160 -0.7342
  498Sol     MW 5078   0.340   2.344   1.873  0.1596  1.3155  0.2438
  499Sol     OW 5079   0.183   2.691   7.839  0.3842  0.3797 -0.1034
  499Sol     HW 5080   0.227   2.647   7.911 -0.7608 -0.1789  0.2685
  499Sol     HW 5081   0.253   2.717   7.780  1.2398 -0.1069  0.6913
  499Sol     MW 5082   0.193   2.689   7.840 -0.3741 -0.5561  0.0044
  500Sol     OW 5083   1.681   1.885   6.108 -0.0005 -0.4002 -0.2233
  500Sol     HW 5084   1.595   1.891   6.067  0.2238  0.8207 -0.5151
  500Sol     HW 5085   1.724   1.813   6.062 -0.0700  0.3952 -1.5431
  500Sol     MW 5086   1.677   1.879   6.100 -0.5745 -0.6658  0.1812
  501Sol     OW 5087   1.226   0.710   5.080  0.1846 -0.2846 -0.1734
  501Sol     HW 5088   1.236   0.757   4.997 -4.8525 -1.2195 -1.4552
  501Sol     HW 5089   1.191   0.624   5.054  0.4596 -1.3515  2.8201
  501Sol     MW 5090   1.224   0.706   5.070  0.2947  0.1835 -0.1302
  502Sol     OW 5091   0.590   2.977   8.624  0.0577 -0.2570  0.2937
  502Sol     HW 5092   0.671   3.028   8.617 -0.2405  0.5205  2.4151
  502Sol     HW 5093   0.521   3.037   8.595  0.1634 -0.7733 -1.0711
  502Sol     MW 5094   0.591   2.987   8.621 -0.4114  0.9141 -1.0674
  503Sol     OW 5095   2.427   0.358   2.933 -0.0034  0.4971 -0.3821
  503Sol     HW 5096   2.478   0.415   2.875  0.4853  0.9055  0.4278
  503Sol     HW 5097   2.378   0.302   2.874  0.2589  1.0993 -1.1948
  503Sol     MW 5098   2.427   0.358   2.923  1.0701  0.3764 -0.3246
  504Sol     OW 5099   0.753   1.224   8.153  0.7076  0.3733  0.4336
  504Sol     HW 5100   0.711   1.251   8.235 -0.0368 -0.7721  0.4372
  504Sol     HW 5101   0.792   1.139   8.173 -0.7589 -0.6248 -0.8104
  504Sol     MW 5102   0.753   1.219   8.162  0.7891 -0.4890  0.5544
  505Sol     OW 5103   0.350   3.006   1.885 -0.2714 -0.1784 -0.0408
  505Sol     HW 5104   0.290   2.957   1.942 -1.6943 -0.3076 -1.6156
  505Sol     HW 5105   0.295   3.075   1.847  0.7582  0.1264 -0.9843
  505Sol     MW 5106   0.340   3.008   1.887  0.2257 -0.1094  0.2361
  506Sol     OW 5107   2.972   0.648   5.548  0.0705  0.1879  0.3340
  506Sol     HW 5108   3.032   0.577   5.572 -0.6670  0.2081  2.3554
  506Sol     HW 5109   3.027   0.712   5.503  0.8879 -1.2954 -0.8350
  506Sol     MW 5110   2.982   0.647   5.546 -0.1080  0.2043  0.6731
  507Sol     OW 5111   1.385   2.665   3.328  0.6116  0.6661  0.3249
  507Sol     HW 5112   1.323   2.602   3.292  1.6642  0.2468 -0.7795
  507Sol     HW 5113   1.336   2.710   3.397 -1.0758  0.6821 -0.8644
  507Sol     MW 5114   1.375   2.664   3.331  0.0644  0.4751 -0.1643
  508Sol     OW 5115   2.531   0.974   7.274 -0.2521 -0.0713 -0.1716
  508Sol     HW 5116   2.522   1.068   7.291 -0.3572 -0.1830  0.4090
  508Sol     HW 5117   2.446   0.948   7.238 -1.1161 -0.4449  2.0784
  508Sol     MW 5118   2.523   0.980   7.272 -0.4786  0.4050 -0.9341
  509Sol     OW 5119   0.664   1.497   6.374 -0.6372 -0.2893 -0.0219
  509Sol     HW 5120   0.597   1.459   6.430 -1.5759  0.6729 -0.4689
  509Sol     HW 5121   0.727   1.535   6.434  0.0961 -2.1596  0.4225
  509Sol     MW 5122   0.663   1.497   6.384 -0.2896 -0.1146 -1.0325
  510Sol     OW 5123   0.365   1.907   4.971  0.1329 -0.0556 -0.1957
  510Sol     HW 5124   0.303   1.942   5.035  0.5174 -0.4062  0.3826
  510Sol     HW 5125   0.419   1.982   4.947 -1.5919  0.6506 -2.0111
  510Sol     MW 5126   0.364   1.917   4.975 -0.2840  0.3453 -0.1388
  511Sol     OW 5127   1.573   2.630   4.634 -0.4603 -0.5661  0.2472
  511Sol     HW 5128   1.643   2.645   4.572  0.0345 -1.7526  0.4989
  511Sol     HW 5129   1.503   2.590   4.583 -0.4118 -0.6797  0.2699
  511Sol     MW 5130   1.573   2.628   4.624 -0.2889 -0.1200  0.0423
  512Sol     OW 5131   1.205   3.161   2.332  0.2032 -0.5692  0.2041
  512Sol     HW 5132   1.270   3.121   2.275  0.9449 -0.5817  1.0327
  512Sol     HW 5133   1.251   3.173   2.415 -1.0008 -0.9895  0.9431
  512Sol     MW 5134   1.215   3.159   2.335  0.1458 -0.1700  1.0060
  513Sol     OW 5135   1.128   1.632   1.937 -0.2851 -0.6494  0.1050
  513Sol     HW 5136   1.201   1.570   1.934 -1.3239 -1.8197 -1.4901
  513Sol     HW 5137   1.076   1.605   2.013 -0.0624 -0.9593  0.1472
  513Sol     MW 5138   1.130   1.624   1.943 -0.0988 -0.4102  1.1351
  514Sol     OW 5139   0.163   3.267   3.408 -0.0886 -0.1063  0.0826
  514Sol     HW 5140   0.158   3.360   3.429  0.4998 -0.7596  3.4714
  514Sol     HW 5141   0.072   3.239   3.401 -0.3371  0.1939  1.8632
  514Sol     MW 5142   0.154   3.273   3.409 -0.9072  0.0836  0.2498
  515Sol     OW 5143   2.311   0.683   2.564 -0.6012  0.4235 -0.3002
  515Sol     HW 5144   2.382   0.663   2.625 -1.2238 -0.8214  0.0436
  515Sol     HW 5145   2.294   0.777   2.576 -0.6786  0.2103  1.4259
  515Sol     MW 5146   2.316   0.690   2.571 -0.0469 -0.0248 -0.4974
  516Sol     OW 5147   2.534   1.541   1.950  0.2549  0.0880  0.6014
  516Sol     HW 5148   2.476   1.517   2.023  0.7515  1.0841  1.3432
  516Sol     HW 5149   2.519   1.474   1.884 -1.9478  0.4603  0.6674
  516Sol     MW 5150   2.527   1.533   1.951 -0.9009  0.2800  0.2402
  517Sol     OW 5151   0.700   0.544   5.892  0.4096 -0.3830 -0.0063
  517Sol     HW 5152   0.725   0.453   5.877 -2.6019 -1.6123  2.0457
  517Sol     HW 5153   0.677   0.548   5.985 -2.1059  1.7873 -0.6456
  517Sol     MW 5154   0.700   0.536   5.899  0.4751  0.2258 -0.2096
  518Sol     OW 5155   0.537   1.509   1.503 -0.3004 -0.2504 -0.2158
  518Sol     HW 5156   0.581   1.439   1.455  0.6741  0.5305 -0.4693
  518Sol     HW 5157   0.564   1.497   1.594 -1.4233 -1.1765  0.0072
  518Sol     MW 5158   0.543   1.502   1.507  0.0173 -0.0403 -0.4157
  519Sol     OW 5159   2.509   0.462   4.658  0.4924  0.1832  0.2809
  519Sol     HW 5160   2.497   0.395   4.725  0.2700  1.9898  2.0971
  519Sol     HW 5161   2.455   0.535   4.688 -1.7989  0.0751 -3.2691
  519Sol     MW 5162   2.503   0.462   4.667  0.1119 -0.2579 -0.1454
  520Sol     OW 5163   1.481   0.038   4.354  0.5297  0.2100 -0.3355
  520Sol     HW 5164   1.518   0.124   4.332 -1.8076  1.3458  0.0643
  520Sol     HW 5165   1.389   0.045   4.330  0.0564 -1.7849  0.8666
  520Sol     MW 5166   1.476   0.047   4.350  0.5808  0.1155  0.2486
  521Sol     OW 5167   1.125   2.722   4.745 -0.0309  0.1013  0.1085
  521Sol     HW 5168   1.211   2.762   4.730  0.3649 -0.7831  0.0235
  521Sol     HW 5169   1.096   2.693   4.658  0.5130 -1.4721  0.4389
  521Sol     MW 5170   1.130   2.723   4.736 -0.3425 -1.0380 -0.0686
  522Sol     OW 5171   0.259   0.255   2.739 -0.2657  0.5316  0.6538
  522Sol     HW 5172   0.319   0.192   2.699 -0.2867  0.8401  0.1339
  522Sol     HW 5173   0.279   0.250   2.833  0.9793  1.0445  0.4281
  522Sol     MW 5174   0.266   0.249   2.744 -0.1522  0.2611  0.3957
  523Sol     OW 5175   1.569   1.208   2.015 -0.1913  0.1045  1.1368
  523Sol     HW 5176   1.576   1.139   2.081 -1.9913 -0.7727  0.4280
  523Sol     HW 5177   1.651   1.202   1.965  0.5504 -0.1550  2.3675
  523Sol     MW 5178   1.577   1.202   2.016  0.1405 -0.4400 -0.0531
  524Sol     OW 5179   0.841   3.156   7.675 -0.0628  0.1687 -0.4200
  524Sol     HW 5180   0.856   3.083   7.735 -0.7708  1.0574  0.8668
  524Sol     HW 5181   0.825   3.114   7.590  1.9537 -1.0738 -0.2350
  524Sol     MW 5182   0.841   3.146   7.673 -0.2663  0.3950  0.5089
  525Sol     OW 5183   1.211   2.327   4.677 -0.1294  0.0241 -0.0880
  525Sol     HW 5184   1.239   2.364   4.761  0.2074  0.9819 -0.6084
  525Sol     HW 5185   1.216   2.233   4.690  1.4824  0.1589  0.4718
  525Sol     MW 5186   1.214   2.322   4.686 -0.2286  0.1793  0.2434
  526Sol     OW 5187   1.871   1.361   9.056 -0.1011  0.4101 -0.2082
  526Sol     HW 5188   1.942   1.414   9.092 -0.6663  1.6692 -0.8964
  526Sol     HW 5189   1.869   1.384   8.963  2.3864 -4.0021 -1.4432
  526Sol     MW 5190   1.877   1.368   9.051  0.2077 -0.2148  0.4156
  527Sol     OW 5191   1.389   1.773   3.130 -0.2243  0.2663  0.3283
  527Sol     HW 5192   1.461   1.829   3.100  0.4742  0.0246  1.4848
  527Sol     HW 5193   1.350   1.738   3.050 -0.4930  2.1671 -0.4030
  527Sol     MW 5194   1.392   1.775   3.120 -0.4759 -0.3413 -0.3907
  528Sol     OW 5195   0.289   1.577   9.390 -0.1036  0.4084 -0.3966
  528Sol     HW 5196   0.234   1.575   9.469  2.1464 -0.1862  1.2044
  528Sol     HW 5197   0.300   1.485   9.366 -0.6076  0.5797 -1.2830
  528Sol     MW 5198   0.285   1.568   9.395 -0.0508  0.4497 -0.1761
  529Sol     OW 5199   2.123   3.334   5.517 -0.1433  0.1092 -0.3362
  529Sol     HW 5200   2.048   3.361   5.569 -1.0594 -0.4147 -1.3768
  529Sol     HW 5201   2.161   3.261   5.565 -1.6865 -1.1441 -1.0109
  529Sol     MW 5202   2.120   3.330   5.526 -0.3911 -0.5172  0.2999
  530Sol     OW 5203   3.246   1.433   6.196 -0.9180 -0.4562 -0.1829
  530Sol     HW 5204   3.282   1.397   6.114 -1.1396  1.0354 -0.9521
  530Sol     HW 5205   3.160   1.391   6.204 -2.5937  2.3003 -2.8150
  530Sol     MW 5206   3.242   1.426   6.189 -0.2380  0.2067 -0.3914
  531Sol     OW 5207   0.284   1.849   9.129  0.2176 -0.2979  0.0619
  531Sol     HW 5208   0.340   1.772   9.119  0.4824 -0.2368  1.0201
  531Sol     HW 5209   0.306   1.883   9.216  0.2621  0.9821 -0.4371
  531Sol     MW 5210   0.291   1.845   9.136 -0.2041 -0.1569 -0.2880
  532Sol     OW 5211   1.667   1.341   6.649  0.1351 -0.2717  0.0568
  532Sol     HW 5212   1.576   1.369   6.647  0.7361  1.8403 -0.0437
  532Sol     HW 5213   1.709   1.392   6.579  1.5303 -0.5956  0.6312
  532Sol     MW 5214   1.663   1.348   6.643 -0.0468  0.0370 -0.2523
  533Sol     OW 5215   0.695   2.790   7.970 -0.2902 -0.2209  0.6433
  533Sol     HW 5216   0.746   2.797   8.051 -1.1731 -0.8503  1.2620
  533Sol     HW 5217   0.639   2.713   7.983 -1.7351  0.7174  0.1714
  533Sol     MW 5218   0.694   2.784   7.978 -0.5600  0.2846  0.4084
  534Sol     OW 5219   1.031   0.706   3.773 -0.2320  0.8215  0.1413
  534Sol     HW 5220   0.939   0.713   3.748 -0.1223 -0.7482 -0.7523
  534Sol     HW 5221   1.048   0.612   3.777  0.3594  1.0194  3.9960
  534Sol     MW 5222   1.024   0.698   3.771  0.0533  0.4302  0.3294
  535Sol     OW 5223   0.814   1.126   6.854 -0.0138  0.5893  0.7969
  535Sol     HW 5224   0.833   1.033   6.865 -0.1760  0.5964  1.1271
  535Sol     HW 5225   0.765   1.130   6.771  0.0429  0.3897  0.7524
  535Sol     MW 5226   0.811   1.118   6.847  0.0928  0.0249 -0.6545
  536Sol     OW 5227   1.891   1.402   2.765 -0.4853 -0.4497 -0.3479
  536Sol     HW 5228   1.874   1.478   2.822  0.5968  0.3035 -1.0090
  536Sol     HW 5229   1.939   1.341   2.821 -0.4598 -0.2133 -0.1073
  536Sol     MW 5230   1.894   1.404   2.776  0.4223  0.3739  0.2874
  537Sol     OW 5231   1.447   0.643   8.260 -0.2768  0.0836  0.7000
  537Sol     HW 5232   1.358   0.623   8.230 -0.9155  0.6042  2.2113
  537Sol     HW 5233   1.486   0.692   8.188 -1.9447  1.7210  0.8830
  537Sol     MW 5234   1.442   0.645   8.251 -0.4316 -0.3227 -0.0553
  538Sol     OW 5235   2.499   0.242   4.840 -0.1732 -1.1653 -0.3937
  538Sol     HW 5236   2.509   0.255   4.934 -1.1139 -0.0773 -0.4398
  538Sol     HW 5237   2.558   0.169   4.820  1.5267 -0.1239  0.6872
  538Sol     MW 5238   2.505   0.236   4.846 -0.4876  0.3305 -0.0852
  539Sol     OW 5239   2.813   2.528   7.215  0.0056  0.6207 -0.8733
  539Sol     HW 5240   2.828   2.494   7.127 -1.4327  0.8820 -1.2245
  539Sol     HW 5241   2.883   2.489   7.268 -0.9629 -2.0405 -1.4840
  539Sol     MW 5242   2.821   2.522   7.212 -0.2442  0.2311  0.0120
  540Sol     OW 5243   0.818   3.131   8.647  0.3752  0.1796  0.2429
  540Sol     HW 5244   0.785   3.212   8.609  0.7758 -0.6176 -1.8557
  540Sol     HW 5245   0.913   3.135   8.633  0.4172 -0.5632  0.2829
  540Sol     MW 5246   0.824   3.139   8.642  0.3061  0.3558 -0.4241
  541Sol     OW 5247   1.724   0.688   6.592 -0.1021 -0.5959 -0.1816
  541Sol     HW 5248   1.766   0.729   6.516 -1.2860 -1.0582 -1.1179
  541Sol     HW 5249   1.705   0.599   6.562  1.7368 -1.6152  1.5543
  541Sol     MW 5250   1.726   0.683   6.582 -0.2740  0.2685  0.2188
  542Sol     OW 5251   2.149   1.900   6.155 -0.2321 -0.2457  0.1643
  542Sol     HW 5252   2.131   1.950   6.235 -0.6434  0.8420 -0.5963
  542Sol     HW 5253   2.135   1.963   6.084  1.6949 -0.7547 -0.6887
  542Sol     MW 5254   2.146   1.910   6.156  0.1057  0.0988  1.1186
  543Sol     OW 5255   0.369   3.188   2.447 -0.6747 -0.2063  0.0395
  543Sol     HW 5256   0.462   3.192   2.467 -0.7636  0.4392  0.3196
  543Sol     HW 5257   0.361   3.114   2.386 -0.1788 -1.1156  1.0720
  543Sol     MW 5258   0.376   3.181   2.443 -0.4917  0.3418 -0.4961
  544Sol     OW 5259   2.955   1.018   4.434  0.2420  0.3479  0.2302
  544Sol     HW 5260   2.934   1.091   4.492  0.8111  0.1207  0.7342
  544Sol     HW 5261   2.910   0.943   4.473  2.1983 -0.2032  1.4908
  544Sol     MW 5262   2.949   1.018   4.443  0.2299 -0.0488 -0.1449
  545Sol     OW 5263   2.230   1.716   4.186 -0.5195  0.4640 -0.3165
  545Sol     HW 5264   2.164   1.737   4.120 -0.0502  1.0827 -0.5919
  545Sol     HW 5265   2.179   1.696   4.265 -1.1902 -2.5215 -1.4331
  545Sol     MW 5266   2.220   1.716   4.187  0.0214 -0.1376 -0.4786
  546Sol     OW 5267   0.589   2.677   5.089  0.0029 -0.0503  0.9197
  546Sol     HW 5268   0.680   2.682   5.062 -0.0790  0.8844  0.8133
  546Sol     HW 5269   0.543   2.642   5.013  0.0845  0.6649  0.5338
  546Sol     MW 5270   0.593   2.674   5.080 -0.5234 -0.4579 -0.1498
  547Sol     OW 5271   2.355   1.308   1.394  0.4634 -0.3376  0.1964
  547Sol     HW 5272   2.444   1.322   1.427  0.5598 -0.7998  0.1329
  547Sol     HW 5273   2.312   1.393   1.405  0.9363 -0.0895  0.1549
  547Sol     MW 5274   2.359   1.317   1.398  0.0914 -0.0503 -0.0752
  548Sol     OW 5275   1.366   1.903   7.847 -0.1233 -0.4302  0.1826
  548Sol     HW 5276   1.400   1.890   7.758  0.6653 -0.0685  0.4273
  548Sol     HW 5277   1.444   1.921   7.900 -0.6535 -0.0363  0.8353
  548Sol     MW 5278   1.376   1.903   7.844 -0.1456  0.3713  0.2866
  549Sol     OW 5279   1.823   0.225   7.520 -0.2334  0.0737  0.2640
  549Sol     HW 5280   1.771   0.247   7.442  1.0076 -0.1730 -0.6492
  549Sol     HW 5281   1.914   0.240   7.493  0.4228 -2.8292  0.7231
  549Sol     MW 5282   1.827   0.228   7.510 -0.0608 -0.1531  0.1865
  550Sol     OW 5283   3.066   1.377   8.271 -0.2463 -0.0859 -0.1110
  550Sol     HW 5284   3.104   1.297   8.235 -2.8302 -1.2584 -0.3805
  550Sol     HW 5285   3.018   1.416   8.198  0.0868  1.1321  0.3137
  550Sol     MW 5286   3.065   1.373   8.262 -0.6920  0.2970  0.0387
  551Sol     OW 5287   1.918   1.552   3.262 -0.2771  0.2703  0.3604
  551Sol     HW 5288   1.915   1.605   3.342 -1.7788 -0.5739  0.8972
  551Sol     HW 5289   1.883   1.610   3.194  1.1898  1.0564  0.2634
  551Sol     MW 5290   1.914   1.562   3.263  0.0317 -0.4010 -0.2084
  552Sol     OW 5291   1.851   3.045   6.261  0.2737 -0.5618 -0.0891
  552Sol     HW 5292   1.891   3.107   6.199  1.1309  1.0278  1.9820
  552Sol     HW 5293   1.769   3.018   6.219 -0.0926  1.9742 -1.0880
  552Sol     MW 5294   1.847   3.049   6.252  0.2846 -0.3982  0.1732
  553Sol     OW 5295   1.821   2.247   4.498  0.2470  0.5007 -0.4531
  553Sol     HW 5296   1.754   2.217   4.436 -1.3892 -1.4653  2.1549
  553Sol     HW 5297   1.773   2.300   4.561  0.6426 -2.9043  2.8316
  553Sol     MW 5298   1.811   2.249   4.498 -0.4414 -0.1769 -0.0641
  554Sol     OW 5299   1.100   1.943   3.712  0.1519  0.0738  0.3064
  554Sol     HW 5300   1.140   1.888   3.779 -0.7046  0.1211  0.8519
  554Sol     HW 5301   1.161   1.938   3.638  1.8699  1.1943  1.5933
  554Sol     MW 5302   1.109   1.938   3.711 -0.0583  0.4068  0.2359
  555Sol     OW 5303   1.500   1.554   6.067  0.1966  0.2985 -0.1936
  555Sol     HW 5304   1.573   1.606   6.033  1.0188 -2.5492 -2.8961
  555Sol     HW 5305   1.438   1.547   5.994 -1.2280 -0.2148  1.0211
  555Sol     MW 5306   1.501   1.558   6.058  0.1267 -0.2538 -0.2454
  556Sol     OW 5307   2.346   2.197   6.833 -0.3755 -0.1996  0.2017
  556Sol     HW 5308   2.254   2.193   6.808 -0.8009  0.2793  1.6681
  556Sol     HW 5309   2.370   2.106   6.850  0.0196 -0.5739 -2.2585
  556Sol     MW 5310   2.340   2.188   6.833  0.3519 -0.1889 -0.5187
  557Sol     OW 5311   1.882   2.449   2.872 -0.1753 -0.3065 -0.0600
  557Sol     HW 5312   1.800   2.403   2.892  0.4992 -1.2280  0.6425
  557Sol     HW 5313   1.936   2.383   2.829  1.4501 -0.6840  2.4793
  557Sol     MW 5314   1.879   2.439   2.869 -0.4501 -0.7073  0.0029
  558Sol     OW 5315   2.218   1.298   8.899  0.3476  0.0064 -0.4185
  558Sol     HW 5316   2.181   1.378   8.860  0.6467  1.0814  1.4717
  558Sol     HW 5317   2.210   1.311   8.993  0.6141 -2.1119 -0.0837
  558Sol     MW 5318   2.214   1.306   8.904  0.2211 -0.0691  0.1230
  559Sol     OW 5319   2.086   1.804   8.671  0.3042  0.0561 -0.5011
  559Sol     HW 5320   2.100   1.767   8.584  0.5311 -0.1022 -0.4000
  559Sol     HW 5321   2.172   1.796   8.714  0.0997 -0.2034 -0.1391
  559Sol     MW 5322   2.095   1.800   8.667 -0.2631 -0.2796 -0.0795
  560Sol     OW 5323   1.737   2.429   9.503 -0.3852 -0.0441 -0.6024
  560Sol     HW 5324   1.810   2.488   9.522 -1.8019  1.0901  1.4985
  560Sol     HW 5325   1.665   2.487   9.478 -0.8527 -1.1077 -1.7871
  560Sol     MW 5326   1.737   2.439   9.502 -0.3198 -0.4501  0.5932
  561Sol     OW 5327   3.158   0.248   5.514 -0.3897  0.3067 -0.4631
  561Sol     HW 5328   3.189   0.322   5.566  0.6631 -0.1343 -0.4662
  561Sol     HW 5329   3.099   0.200   5.572  1.0822 -0.4024  0.4586
  561Sol     MW 5330   3.155   0.250   5.524  0.6691  0.0380  0.9128
  562Sol     OW 5331   0.622   1.922   3.347 -0.3372  0.3848 -0.1589
  562Sol     HW 5332   0.575   1.991   3.302  0.5688  1.2065  0.1352
  562Sol     HW 5333   0.595   1.841   3.303 -0.2081  1.0801 -1.5353
  562Sol     MW 5334   0.616   1.921   3.339  0.5351 -0.0500  0.0846
  563Sol     OW 5335   2.557   0.888   3.676  0.2573 -0.3101 -0.2837
  563Sol     HW 5336   2.600   0.972   3.688 -2.1034  0.8655  0.2495
  563Sol     HW 5337   2.566   0.870   3.582  1.0279  0.3770 -0.3494
  563Sol     MW 5338   2.562   0.894   3.668 -0.2385  0.0349  0.4730
  564Sol     OW 5339   1.177   3.204   8.272  0.1910 -0.5034  0.6418
  564Sol     HW 5340   1.172   3.279   8.212 -1.6290 -1.0082  0.1602
  564Sol     HW 5341   1.219   3.135   8.221 -2.5319 -1.3459 -0.4884
  564Sol     MW 5342   1.181   3.205   8.262 -0.4116 -0.4750 -0.1510
  565Sol     OW 5343   2.827   0.033   6.122 -1.0260 -0.0113 -0.5880
  565Sol     HW 5344   2.911   0.046   6.165  0.0134 -0.4316 -2.4392
  565Sol     HW 5345   2.781   0.116   6.133 -1.1594 -0.3820  2.0464
  565Sol     MW 5346   2.830   0.041   6.127 -0.4484 -0.3831 -0.8635
  566Sol     OW 5347   2.903   2.863   8.350  0.2229 -0.4085 -0.0297
  566Sol     HW 5348   2.910   2.769   8.337  0.7101 -0.3392 -0.2908
  566Sol     HW 5349   2.990   2.889   8.382  0.0175 -0.0854  0.2668
  566Sol     MW 5350   2.912   2.857   8.352 -0.2212 -0.2632 -0.2355
  567Sol     OW 5351   0.193   2.442   6.973  0.3717 -0.0939 -0.0459
  567Sol     HW 5352   0.152   2.524   7.002 -1.9779 -1.3961  0.4055
  567Sol     HW 5353   0.165   2.434   6.881  1.9986  0.4497 -0.6002
  567Sol     MW 5354   0.186   2.449   6.967  0.2204 -0.2002 -0.2373
  568Sol     OW 5355   2.714   2.584   1.654 -0.1444  0.0343  0.5817
  568Sol     HW 5356   2.744   2.673   1.636  1.3329  0.0153  2.7916
  568Sol     HW 5357   2.781   2.548   1.712 -1.1854 -2.2358  0.4036
  568Sol     MW 5358   2.723   2.589   1.657  0.2183 -0.5597 -0.5076
  569Sol     OW 5359   0.176   3.327   5.905  0.3072 -0.4006  0.1924
  569Sol     HW 5360   0.177   3.318   5.809 -1.0764 -0.5693  0.1863
  569Sol     HW 5361   0.135   3.412   5.920 -1.0727 -1.1382  0.6738
  569Sol     MW 5362   0.173   3.334   5.897  0.1966  0.3049  0.2444
  570Sol     OW 5363   1.278   1.564   3.708 -0.3114  0.3359 -0.0139
  570Sol     HW 5364   1.367   1.553   3.674 -0.3133 -0.6045  0.2808
  570Sol     HW 5365   1.225   1.581   3.630 -0.0828 -0.4001 -0.3341
  570Sol     MW 5366   1.281   1.564   3.698  0.6933 -0.2178 -0.0763
  571Sol     OW 5367   2.260   0.136   4.158 -0.1085 -0.4882 -0.0156
  571Sol     HW 5368   2.293   0.060   4.110  0.2244 -0.5942  0.3758
  571Sol     HW 5369   2.338   0.178   4.193 -0.3500 -0.4517  0.4910
  571Sol     MW 5370   2.270   0.133   4.157 -0.4565 -0.4788 -0.4074
  572Sol     OW 5371   3.190   2.883   5.606 -0.3583  0.4093  0.5291
  572Sol     HW 5372   3.202   2.919   5.518 -0.3750 -0.2189  0.2661
  572Sol     HW 5373   3.239   2.943   5.663 -0.2625  0.7624  0.0825
  572Sol     MW 5374   3.195   2.892   5.603 -0.3054 -0.5170 -0.2795
  573Sol     OW 5375   1.241   0.339   4.577 -1.2621 -0.0333 -0.0277
  573Sol     HW 5376   1.248   0.430   4.606  1.2788 -0.2050 -0.0560
  573Sol     HW 5377   1.265   0.288   4.654  0.3544 -0.5957 -0.8837
  573Sol     MW 5378   1.244   0.343   4.586 -0.3221 -0.0457 -0.0545
  574Sol     OW 5379   1.509   2.430   6.007  0.4424 -0.0295 -0.2659
  574Sol     HW 5380   1.487   2.522   5.997 -2.2371 -0.4792  1.0351
  574Sol     HW 5381   1.430   2.383   5.979  2.2755 -1.9999 -2.3708
  574Sol     MW 5382   1.500   2.434   6.003  0.2395 -0.0830  0.3484
  575Sol     OW 5383   3.049   3.019   6.453  0.1308 -0.0951 -0.3880
  575Sol     HW 5384   2.967   2.989   6.493 -0.5987  0.6809 -1.3016
  575Sol     HW 5385   3.114   3.008   6.523 -0.3940 -2.3841 -0.2129
  575Sol     MW 5386   3.048   3.015   6.463 -0.3153 -0.3373 -0.2697
  576Sol     OW 5387   0.255   2.155   5.555  0.4543 -0.0991 -0.0233
  576Sol     HW 5388   0.316   2.214   5.600 -1.2283  0.8761  1.0380
  576Sol     HW 5389   0.256   2.074   5.606  1.6318 -0.4630 -0.6110
  576Sol     MW 5390   0.260   2.153   5.564 -0.2202 -0.8477 -0.0857
  577Sol     OW 5391   2.919   1.814   3.056 -0.1122  0.2506  0.2371
  577Sol     HW 5392   2.936   1.772   3.140  2.8739 -0.0011 -0.4567
  577Sol     HW 5393   2.904   1.742   2.996  2.0076  0.2473 -0.3176
  577Sol     MW 5394   2.919   1.804   3.058 -0.4469 -0.0715  0.4666
  578Sol     OW 5395   0.180   0.839   6.289 -0.0181  0.3286  0.4114
  578Sol     HW 5396   0.187   0.855   6.194  1.6726  0.6507  0.5730
  578Sol     HW 5397   0.110   0.898   6.317 -0.0056  0.8061 -0.5143
  578Sol     MW 5398   0.175   0.846   6.283 -0.7383 -0.8338 -0.2530
  579Sol     OW 5399   0.165   2.210   5.264  0.4197 -0.3292  0.0136
  579Sol     HW 5400   0.180   2.177   5.353  1.9084 -0.4631 -0.2828
  579Sol     HW 5401   0.134   2.300   5.277  0.0368 -0.5571  0.6894
  579Sol     MW 5402   0.163   2.215   5.273  0.2216 -0.3881 -0.3333
  580Sol     OW 5403   3.242   2.556   7.903 -0.6341  0.6160 -0.2508
  580Sol     HW 5404   3.282   2.483   7.948 -1.1466 -0.6924 -1.8765
  580Sol     HW 5405   3.315   2.615   7.882 -0.1101  0.1407  0.2418
  580Sol     MW 5406   3.252   2.555   7.905  0.2740 -0.2306 -0.6262
  581Sol     OW 5407   1.645   0.497   9.682 -0.1267  0.4662 -0.0522
  581Sol     HW 5408   1.560   0.467   9.650 -0.7603  0.4466  1.6241
  581Sol     HW 5409   1.626   0.577   9.730  0.7540  0.2332  0.7060
  581Sol     MW 5410   1.636   0.502   9.683  0.0888  0.1714  0.1293
  582Sol     OW 5411   1.637   3.382   4.823  0.4367  0.2587  0.7418
  582Sol     HW 5412   1.594   3.422   4.747 -2.5386  0.9774  2.7424
  582Sol     HW 5413   1.611   3.290   4.820  0.1703  0.3267  1.0166
  582Sol     MW 5414   1.631   3.377   4.816 -0.0062 -0.0130  0.2201
  583Sol     OW 5415   1.633   0.814   3.241 -0.1720 -0.6191  0.1600
  583Sol     HW 5416   1.593   0.886   3.290  0.2518 -2.1405  2.8379
  583Sol     HW 5417   1.561   0.776   3.190 -1.0924 -0.3181  1.2203
  583Sol     MW 5418   1.623   0.817   3.241  0.3686 -0.1449  0.2559
  584Sol     OW 5419   3.305   1.102   2.899 -0.2555 -0.1798  0.1158
  584Sol     HW 5420   3.299   1.097   2.804  0.7621  1.5669 -0.0631
  584Sol     HW 5421   3.268   1.188   2.921  0.7185 -0.0144  1.1737
  584Sol     MW 5422   3.301   1.110   2.892  0.1078  0.4825  0.0476
  585Sol     OW 5423   0.136   1.563   5.755  0.8577 -0.0184 -0.0125
  585Sol     HW 5424   0.064   1.578   5.816  0.4667  3.1551 -1.1456
  585Sol     HW 5425   0.215   1.586   5.805  1.0772 -2.9805  1.0596
  585Sol     MW 5426   0.137   1.567   5.765  0.0243  0.1251  0.2908
  586Sol     OW 5427   1.316   3.015   8.152 -0.1103  0.0035 -0.4507
  586Sol     HW 5428   1.399   2.968   8.153  0.4562  0.9988  0.0271
  586Sol     HW 5429   1.278   2.995   8.066 -0.0900 -1.6750 -0.0853
  586Sol     MW 5430   1.320   3.009   8.144 -0.8846 -0.1219  0.1098
  587Sol     OW 5431   1.708   1.023   2.213  0.2206  0.2312 -0.9815
  587Sol     HW 5432   1.679   1.043   2.302 -0.8348 -3.6776 -0.3291
  587Sol     HW 5433   1.802   1.040   2.214  0.0140  1.3774  0.5076
  587Sol     MW 5434   1.714   1.026   2.221 -0.3105  0.5697  0.3347
  588Sol     OW 5435   2.574   1.801   1.945  0.0691  0.0676  0.5075
  588Sol     HW 5436   2.553   1.708   1.953 -0.0933  0.0478 -0.0976
  588Sol     HW 5437   2.650   1.804   1.887 -0.6723  0.3814 -0.4721
  588Sol     MW 5438   2.579   1.793   1.940 -0.1765  0.4475 -0.0972
  589Sol     OW 5439   1.508   3.113   8.848 -0.5007 -0.0876 -0.2559
  589Sol     HW 5440   1.518   3.042   8.785 -0.5533  0.1176 -0.4970
  589Sol     HW 5441   1.508   3.070   8.933 -0.6891 -0.3907 -0.4101
  589Sol     MW 5442   1.509   3.103   8.850  0.2473  1.0292 -0.6632
  590Sol     OW 5443   2.350   0.330   2.607 -0.6139 -0.2859 -0.5807
  590Sol     HW 5444   2.284   0.288   2.663  0.4480 -0.9351  0.2078
  590Sol     HW 5445   2.312   0.415   2.584 -1.4222 -0.3565  0.4485
  590Sol     MW 5446   2.340   0.334   2.610 -0.8130 -0.4855 -0.0121
  591Sol     OW 5447   1.865   2.007   2.594  0.6148 -0.3436 -0.0340
  591Sol     HW 5448   1.900   1.935   2.647  0.9703 -1.4175 -1.6953
  591Sol     HW 5449   1.838   1.966   2.512 -1.4757  1.0146 -0.0744
  591Sol     MW 5450   1.866   1.997   2.592 -0.0738 -0.0423  0.1612
  592Sol     OW 5451   1.927   2.734   5.858 -0.3252 -0.0203  0.2623
  592Sol     HW 5452   1.991   2.683   5.907 -0.7702 -1.2534 -0.4259
  592Sol     HW 5453   1.952   2.724   5.766  0.0928  1.7200  0.1584
  592Sol     MW 5454   1.935   2.729   5.854 -0.7140  0.8687 -0.6213
  593Sol     OW 5455   3.079   1.562   4.362  0.2666  0.0733 -0.1751
  593Sol     HW 5456   3.049   1.555   4.452  0.1000 -1.7338 -0.3549
  593Sol     HW 5457   3.113   1.651   4.355  0.9412  0.0081  1.8748
  593Sol     MW 5458   3.079   1.569   4.369  0.1207 -0.3591 -0.3646
  594Sol     OW 5459   0.465   1.638   2.866 -0.7430 -0.6608 -0.6186
  594Sol     HW 5460   0.464   1.633   2.770  0.6509  2.3740 -0.8569
  594Sol     HW 5461   0.428   1.725   2.885  0.0648 -0.7608  1.5425
  594Sol     MW 5462   0.461   1.646   2.859  0.0792  0.2079 -0.2418
  595Sol     OW 5463   3.038   2.090   8.791 -0.3305  0.3355  0.0354
  595Sol     HW 5464   3.128   2.081   8.758 -0.6793 -0.4346 -0.7370
  595Sol     HW 5465   3.015   2.001   8.819 -1.2816  0.2711 -0.9150
  595Sol     MW 5466   3.044   2.081   8.791  0.0106 -0.1041 -0.2963
  596Sol     OW 5467   1.686   3.263   3.825 -0.3285 -0.2433  0.1468
  596Sol     HW 5468   1.656   3.267   3.734  1.0992 -1.3286 -0.3815
  596Sol     HW 5469   1.610   3.230   3.873 -0.8860 -0.2796 -0.7494
  596Sol     MW 5470   1.676   3.260   3.821  0.4791  0.2316  0.4378
  597Sol     OW 5471   2.279   1.071   1.501 -0.4024  0.1360 -0.0260
  597Sol     HW 5472   2.206   1.040   1.447 -0.0348  0.6924 -0.8429
  597Sol     HW 5473   2.333   1.122   1.442  1.0926 -0.9476  0.3717
  597Sol     MW 5474   2.277   1.073   1.491 -0.0997  0.0893  0.2456
  598Sol     OW 5475   3.322   1.407   6.757 -0.5743 -0.1293  0.0749
  598Sol     HW 5476   3.295   1.447   6.675 -0.6568  0.2553  0.2879
  598Sol     HW 5477   3.259   1.337   6.772 -0.7468  0.0034 -0.0314
  598Sol     MW 5478   3.314   1.404   6.751  0.1258 -0.4897  0.3396
  599Sol     OW 5479   0.499   2.543   4.860 -0.0068 -0.2734  0.2236
  599Sol     HW 5480   0.504   2.458   4.815 -1.5175  0.5667 -1.5915
  599Sol     HW 5481   0.413   2.577   4.837 -0.4000  0.7031  2.9059
  599Sol     MW 5482   0.492   2.538   4.854 -0.1251  0.1457  0.8507
  600Sol     OW 5483   1.292   2.283   8.132  0.3864 -0.2932  0.7088
  600Sol     HW 5484   1.252   2.236   8.205  2.4108 -0.8638  1.5060
  600Sol     HW 5485   1.309   2.371   8.166 -1.3147  0.3337 -0.0360
  600Sol     MW 5486   1.290   2.286   8.142  0.1656  0.0134 -0.0241
  601Sol     OW 5487   1.714   0.780   2.069  0.3208 -0.2354 -0.1686
  601Sol     HW 5488   1.726   0.717   2.140 -2.0595 -0.3733  0.1468
  601Sol     HW 5489   1.695   0.863   2.114  0.4799  0.0504 -0.6238
  601Sol     MW 5490   1.713   0.782   2.080 -0.5700 -0.4427 -0.0319
  602Sol     OW 5491   2.382   3.094   6.187  0.0339 -0.2531 -0.1985
  602Sol     HW 5492   2.310   3.087   6.249  0.0201  1.8712  0.0307
  602Sol     HW 5493   2.461   3.096   6.241  0.1160  0.0008 -0.3259
  602Sol     MW 5494   2.382   3.093   6.197  0.3767  0.0495  0.1297
  603Sol     OW 5495   2.733   2.349   6.708 -0.1346 -0.3094  0.4195
  603Sol     HW 5496   2.675   2.353   6.784  0.8538 -0.3979  1.1850
  603Sol     HW 5497   2.692   2.408   6.644 -0.8435 -0.0590  1.0953
  603Sol     MW 5498   2.724   2.355   6.709 -0.1335  0.0476 -0.7887
  604Sol     OW 5499   3.113   2.359   7.743  0.3795 -0.0967  0.1796
  604Sol     HW 5500   3.031   2.353   7.793 -0.5965  1.2158 -1.2270
  604Sol     HW 5501   3.160   2.432   7.782 -0.6954  1.3752 -1.2326
  604Sol     MW 5502   3.110   2.365   7.751 -0.3428  0.0481  0.1896
  605Sol     OW 5503   2.432   2.623   5.519 -0.2678  0.0636  0.1072
  605Sol     HW 5504   2.507   2.565   5.502 -0.2759 -0.0672  0.5168
  605Sol     HW 5505   2.464   2.710   5.496 -1.0419 -0.4081 -2.8843
  605Sol     MW 5506   2.442   2.625   5.515 -1.0967 -0.1099 -0.7593
  606Sol     OW 5507   1.952   1.906   9.496 -0.0680 -0.3124  0.0844
  606Sol     HW 5508   1.914   1.942   9.416 -0.0745  0.0089  0.2306
  606Sol     HW 5509   1.880   1.855   9.535 -0.2379 -0.0001  0.1780
  606Sol     MW 5510   1.942   1.905   9.492 -0.4454  0.1792 -0.4589
  607Sol     OW 5511   2.496   1.938   5.313  0.2195  0.2308 -0.3834
  607Sol     HW 5512   2.486   1.861   5.368 -2.9735  2.3503  2.1682
  607Sol     HW 5513   2.462   1.911   5.228 -1.4056 -1.0370  0.6424
  607Sol     MW 5514   2.492   1.929   5.310 -0.4272 -0.4428  0.4972
  608Sol     OW 5515   1.456   1.877   5.330 -0.1741  0.3806 -0.1114
  608Sol     HW 5516   1.427   1.966   5.309  0.6464  0.8652  0.7576
  608Sol     HW 5517   1.384   1.840   5.381  0.4538  1.3879  1.5602
  608Sol     MW 5518   1.447   1.882   5.333  0.3537 -0.0609 -0.2894
  609Sol     OW 5519   3.070   1.937   9.249 -0.4798  0.1908 -0.4417
  609Sol     HW 5520   3.103   1.955   9.337  0.6337 -0.2120 -0.7671
  609Sol     HW 5521   2.993   1.993   9.240  0.4743  1.6264  0.0993
  609Sol     MW 5522   3.066   1.943   9.256  0.0638 -1.0777 -0.2062
  610Sol     OW 5523   2.277   2.059   8.600 -0.2440  0.2325  0.1918
  610Sol     HW 5524   2.182   2.070   8.604 -0.2659 -0.1525  0.7711
  610Sol     HW 5525   2.291   2.010   8.519 -0.6069 -0.3580  0.4755
  610Sol     MW 5526   2.270   2.055   8.593 -0.8347  0.6623  0.0999
  611Sol     OW 5527   0.134   2.981   8.551 -0.3486  0.6600  0.0083
  611Sol     HW 5528   0.141   3.019   8.639 -1.7693  0.1135  0.3633
  611Sol     HW 5529   0.119   2.888   8.566  1.6204  0.1681 -0.8520
  611Sol     MW 5530   0.133   2.976   8.560 -0.7009 -0.5029 -0.3147
  612Sol     OW 5531   1.038   1.381   5.794 -0.1268  0.1963 -0.0282
  612Sol     HW 5532   1.063   1.353   5.706  1.8729  2.1685 -0.1129
  612Sol     HW 5533   1.037   1.476   5.790 -1.1077  0.2838  1.8073
  612Sol     MW 5534   1.040   1.387   5.785 -0.5228 -0.1371  0.7051
  613Sol     OW 5535   0.633   1.586   5.975  0.4417 -0.3990  0.8022
  613Sol     HW 5536   0.682   1.666   5.958  1.7678 -1.4570 -0.5004
  613Sol     HW 5537   0.701   1.520   5.992 -0.4914 -1.9825 -1.4582
  613Sol     MW 5538   0.644   1.587   5.975 -0.3694  0.3813 -0.4006
  614Sol     OW 5539   0.162   3.277   5.629  0.1674  0.1367 -0.1729
  614Sol     HW 5540   0.221   3.223   5.576 -1.4278 -1.0468 -0.7651
  614Sol     HW 5541   0.094   3.217   5.659 -1.6760  1.8248 -0.8809
  614Sol     MW 5542   0.161   3.267   5.627 -0.5710 -0.5315 -0.0178
  615Sol     OW 5543   2.654   3.139   5.531  0.3834 -0.1366 -0.1877
  615Sol     HW 5544   2.684   3.145   5.440 -1.0646 -2.1648 -0.8291
  615Sol     HW 5545   2.601   3.217   5.544 -0.8919 -0.7272 -1.6774
  615Sol     MW 5546   2.652   3.146   5.524  0.5959  0.1032 -0.2610
  616Sol     OW 5547   2.200   2.012   9.496  0.0331 -0.0485 -0.1493
  616Sol     HW 5548   2.114   1.971   9.507  0.4082 -0.6529  0.5068
  616Sol     HW 5549   2.257   1.941   9.466  0.6168  0.0444  0.7281
  616Sol     MW 5550   2.197   2.002   9.494  0.3279 -0.0607  0.1454
  617Sol     OW 5551   1.862   2.862   4.950 -0.2408 -0.4730  0.4731
  617Sol     HW 5552   1.878   2.854   5.044 -0.6276  0.3855  0.6169
  617Sol     HW 5553   1.944   2.897   4.915 -0.8753  1.3909  0.8250
  617Sol     MW 5554   1.871   2.864   4.955  0.1538 -0.0750 -0.3669
  618Sol     OW 5555   1.858   0.339   4.103  0.3009  0.6164 -0.3596
  618Sol     HW 5556   1.904   0.391   4.169  0.5542  0.6527 -0.5619
  618Sol     HW 5557   1.786   0.298   4.150  1.6612 -0.9620  0.4045
  618Sol     MW 5558   1.856   0.340   4.113  0.0377  0.2298 -0.2942
  619Sol     OW 5559   2.366   0.832   3.860  0.0361 -0.1695 -0.0586
  619Sol     HW 5560   2.442   0.857   3.808  0.6153  1.0201  1.3557
  619Sol     HW 5561   2.315   0.912   3.868 -1.0183 -0.7966 -0.3875
  619Sol     MW 5562   2.368   0.841   3.856  0.2998 -0.4716  0.4947
  620Sol     OW 5563   1.554   1.685   2.812 -0.3487 -0.5306 -0.0401
  620Sol     HW 5564   1.485   1.619   2.811  0.1275 -1.0397 -0.8544
  620Sol     HW 5565   1.587   1.685   2.722  1.5043 -1.1472  0.6081
  620Sol     MW 5566   1.551   1.679   2.803  0.2503 -0.6127 -0.1281
  621Sol     OW 5567   1.310   0.752   8.534  0.1711 -0.5448  0.3259
  621Sol     HW 5568   1.217   0.775   8.531  0.0932 -0.8226  0.6112
  621Sol     HW 5569   1.313   0.673   8.588  0.1567 -2.4264 -2.3253
  621Sol     MW 5570   1.302   0.747   8.538 -0.0065 -0.4361 -0.6145
  622Sol     OW 5571   3.200   1.621   8.022  0.0313 -0.2085 -0.4837
  622Sol     HW 5572   3.180   1.706   8.062  0.1610  0.1869 -1.2611
  622Sol     HW 5573   3.120   1.570   8.034  0.1220 -0.1479  0.4206
  622Sol     MW 5574   3.191   1.624   8.027  0.0821 -0.7696  0.3780
  623Sol     OW 5575   0.192   0.285   7.680 -0.1851  0.0510  0.6154
  623Sol     HW 5576   0.141   0.206   7.664 -0.1780  0.0576  0.5590
  623Sol     HW 5577   0.281   0.261   7.655 -0.2466  0.1854  0.2604
  623Sol     MW 5578   0.195   0.276   7.676  0.5716  0.1893  0.5657
  624Sol     OW 5579   0.765   2.778   6.687  0.1287 -0.0519 -0.5232
  624Sol     HW 5580   0.850   2.809   6.718 -0.3853  0.5887  0.2770
  624Sol     HW 5581   0.771   2.682   6.693  1.0606 -0.0493 -1.2188
  624Sol     MW 5582   0.773   2.772   6.691 -0.1068 -0.4213 -0.2925
  625Sol     OW 5583   2.558   1.366   1.572 -0.0352 -0.3247  0.0634
  625Sol     HW 5584   2.535   1.459   1.572  1.3129  0.0455  1.5762
  625Sol     HW 5585   2.499   1.327   1.637  0.4004 -0.2272  0.5288
  625Sol     MW 5586   2.551   1.371   1.578  0.6609 -0.4679 -0.2056
  626Sol     OW 5587   2.006   3.031   9.854 -0.5709 -0.5606 -0.7384
  626Sol     HW 5588   1.963   2.956   9.813  0.7384 -1.7305 -0.0376
  626Sol     HW 5589   1.973   3.030   9.944  0.7455 -1.3576 -0.2472
  626Sol     MW 5590   1.999   3.024   9.859 -0.4135 -0.7336 -0.6554
  627Sol     OW 5591   1.605   1.698   1.940 -0.1215 -0.3782 -0.5479
  627Sol     HW 5592   1.691   1.715   1.979 -0.6220  1.0265 -0.0029
  627Sol     HW 5593   1.572   1.621   1.986  0.4629 -0.3753 -0.1165
  627Sol     MW 5594   1.610   1.693   1.948  0.6453  0.1896 -0.0985
  628Sol     OW 5595   1.846   0.963   3.630  1.2409  0.2470 -0.0462
  628Sol     HW 5596   1.781   0.925   3.571  0.2079  1.2639  0.4024
  628Sol     HW 5597   1.900   0.889   3.658 -0.1094 -0.7234  0.0542
  628Sol     MW 5598   1.845   0.953   3.628 -0.3112 -0.5222 -0.2376
  629Sol     OW 5599   0.939   1.115   2.659 -0.2172  0.2954  0.0008
  629Sol     HW 5600   0.984   1.145   2.738  0.9618 -0.0696 -0.5104
  629Sol     HW 5601   0.865   1.174   2.649  0.6606  1.4734  0.3686
  629Sol     MW 5602   0.936   1.123   2.666  0.2954 -0.0983 -0.9163
  630Sol     OW 5603   2.759   1.637   2.276 -0.1051 -0.2138 -0.6125
  630Sol     HW 5604   2.821   1.574   2.315 -0.1128  0.0921 -0.0938
  630Sol     HW 5605   2.746   1.606   2.187 -0.1879 -1.0135 -0.3298
  630Sol     MW 5606   2.763   1.628   2.272  0.3482  0.2388  0.3645
  631Sol     OW 5607   2.235   2.608   7.972 -0.6776 -0.0372 -0.1302
  631Sol     HW 5608   2.169   2.677   7.977 -0.0582  0.4840  1.0330
  631Sol     HW 5609   2.186   2.528   7.994 -1.0058  0.2840  0.3213
  631Sol     MW 5610   2.224   2.607   7.975  0.4026  0.6884 -0.1209
  632Sol     OW 5611   1.218   0.730   7.457 -0.8396  0.0112 -0.2789
  632Sol     HW 5612   1.180   0.652   7.497 -0.7102 -0.0185 -0.2140
  632Sol     HW 5613   1.278   0.764   7.523  1.4462 -1.5788 -1.4775
  632Sol     MW 5614   1.220   0.726   7.467 -0.6530 -0.1059 -0.5852
  633Sol     OW 5615   3.080   0.190   7.501  0.6411 -0.7294  0.1222
  633Sol     HW 5616   3.175   0.201   7.506  0.8978 -1.4258 -2.4285
  633Sol     HW 5617   3.045   0.265   7.548  2.4337 -0.2932  0.8304
  633Sol     MW 5618   3.086   0.197   7.506  0.3155  0.0440 -0.6432
  634Sol     OW 5619   2.353   1.678   8.716 -0.6715  0.1260  0.3432
  634Sol     HW 5620   2.330   1.586   8.702  1.9932 -0.9042  2.4295
  634Sol     HW 5621   2.438   1.688   8.674 -1.3906  1.9658 -0.7617
  634Sol     MW 5622   2.358   1.671   8.711 -0.1514 -0.7491 -0.0362
  635Sol     OW 5623   3.276   2.503   2.520  0.3477  0.0077  0.0037
  635Sol     HW 5624   3.306   2.468   2.604 -1.2350 -1.0229  0.1554
  635Sol     HW 5625   3.310   2.441   2.455 -0.1446 -0.3040  0.0459
  635Sol     MW 5626   3.282   2.494   2.521 -0.8506  0.0706 -0.4807
  636Sol     OW 5627   0.302   3.181   9.111  0.1447  0.1891  0.4131
  636Sol     HW 5628   0.343   3.263   9.138 -3.1117  1.6189  1.2909
  636Sol     HW 5629   0.272   3.198   9.022 -1.1270  0.2163  0.8370
  636Sol     MW 5630   0.303   3.190   9.106  0.5374  0.0427 -0.0572
  637Sol     OW 5631   1.292   2.016   6.924  0.3441  0.1890  0.2276
  637Sol     HW 5632   1.201   1.994   6.943  0.3883 -0.7047 -0.5596
  637Sol     HW 5633   1.326   1.940   6.876  1.2899  0.8221 -0.1262
  637Sol     MW 5634   1.287   2.007   6.921 -0.3026  1.1551  0.6492
  638Sol     OW 5635   1.872   0.370   1.793 -0.0762 -0.6208  0.6993
  638Sol     HW 5636   1.823   0.413   1.864 -1.5201 -1.7204  0.3946
  638Sol     HW 5637   1.873   0.278   1.817  1.4390 -0.6740  0.4364
  638Sol     MW 5638   1.867   0.366   1.801 -0.4763  0.2036  0.0311
  639Sol     OW 5639   2.610   2.768   9.426  0.5254  0.1472  0.2585
  639Sol     HW 5640   2.602   2.844   9.484 -0.7541  0.5368 -0.4067
  639Sol     HW 5641   2.697   2.777   9.386  0.4217  1.2095  0.2534
  639Sol     MW 5642   2.617   2.776   9.428  0.0744  0.2759 -0.3632
  640Sol     OW 5643   0.487   3.158   9.591  0.0659  0.4270 -0.3836
  640Sol     HW 5644   0.493   3.104   9.511  0.0792  0.3239 -0.3139
  640Sol     HW 5645   0.410   3.123   9.637 -0.8002  1.4163 -1.0497
  640Sol     MW 5646   0.480   3.150   9.588  0.4520  0.1347  0.1957
  641Sol     OW 5647   1.726   1.025   3.890 -0.4545 -0.1298  0.0132
  641Sol     HW 5648   1.781   1.029   3.813 -0.0090 -0.2017  0.3270
  641Sol     HW 5649   1.778   0.979   3.955 -1.6631 -2.0762 -0.3498
  641Sol     MW 5650   1.735   1.021   3.889  0.0414  0.4156 -0.0678
  642Sol     OW 5651   0.941   1.762   8.609 -0.0182  0.5208  0.0367
  642Sol     HW 5652   0.868   1.701   8.616  0.8812 -0.3641  2.0552
  642Sol     HW 5653   0.900   1.848   8.596 -1.3404 -0.2085 -0.7065
  642Sol     MW 5654   0.931   1.764   8.608  0.2515  0.1590  0.1365
  643Sol     OW 5655   0.074   2.322   2.315  0.5857  0.6336  0.5456
  643Sol     HW 5656   0.024   2.274   2.249  2.0511  0.1211 -0.2057
  643Sol     HW 5657   0.142   2.261   2.343 -0.1291  0.7840  2.6734
  643Sol     MW 5658   0.075   2.312   2.311 -0.2932  0.3399 -0.4458
  644Sol     OW 5659   0.561   1.375   8.632 -0.3159 -0.0098 -0.1193
  644Sol     HW 5660   0.540   1.355   8.724 -2.3404  3.4693  0.2556
  644Sol     HW 5661   0.476   1.392   8.592  0.4705 -2.3135 -2.9066
  644Sol     MW 5662   0.551   1.374   8.637  0.2880  0.4124  0.4197
  645Sol     OW 5663   2.677   0.216   6.840  0.3945  0.1838 -0.6954
  645Sol     HW 5664   2.659   0.307   6.864  1.8413  0.2637  0.1115
  645Sol     HW 5665   2.668   0.166   6.921  0.1183 -0.3306 -1.0335
  645Sol     MW 5666   2.674   0.220   6.849  0.3207  0.3912 -0.7094
  646Sol     OW 5667   3.300   1.172   4.339 -0.0131 -0.1380  0.2911
  646Sol     HW 5668   3.262   1.257   4.316  0.1802 -0.3067 -0.6773
  646Sol     HW 5669   3.273   1.114   4.268 -1.2058 -1.1927  1.5952
  646Sol     MW 5670   3.294   1.174   4.330 -0.0646  0.3253 -0.0331
  647Sol     OW 5671   0.785   1.767   3.792  0.1586 -0.8784  0.0739
  647Sol     HW 5672   0.859   1.756   3.852  0.1384  1.6733  0.6252
  647Sol     HW 5673   0.709   1.742   3.844  0.3414 -0.6471  0.4545
  647Sol     MW 5674   0.785   1.764   3.802  0.3788  0.1865 -0.1627
  648Sol     OW 5675   3.111   0.131   2.237  0.1597 -0.0167 -0.5706
  648Sol     HW 5676   3.142   0.041   2.224 -1.6164 -0.7894  0.3880
  648Sol     HW 5677   3.127   0.149   2.330 -3.4161 -0.9163  0.2715
  648Sol     MW 5678   3.115   0.125   2.244  0.2435  0.3579 -0.0039
  649Sol     OW 5679   0.799   1.299   2.997 -0.3970  0.0760  0.7084
  649Sol     HW 5680   0.767   1.291   2.907  0.7501  0.0462  0.2945
  649Sol     HW 5681   0.840   1.386   3.001  2.6975 -1.3141  0.1674
  649Sol     MW 5682   0.800   1.306   2.989  0.3619  0.9425 -0.3654
  650Sol     OW 5683   1.544   3.026   1.762  0.0874  0.0221  0.5623
  650Sol     HW 5684   1.562   2.934   1.781  1.5985  0.1707 -0.1211
  650Sol     HW 5685   1.564   3.036   1.669  2.1955  1.5865  1.1571
  650Sol     MW 5686   1.547   3.019   1.755  0.0248  0.3048 -0.2021
  651Sol     OW 5687   1.125   3.198   7.611  0.1425  0.0185 -0.3687
  651Sol     HW 5688   1.034   3.196   7.638  0.1341  1.0068 -0.2952
  651Sol     HW 5689   1.147   3.107   7.594 -0.6664 -0.2979  0.2392
  651Sol     MW 5690   1.119   3.190   7.612  0.2034  0.3006 -0.3197
  652Sol     OW 5691   3.024   1.289   6.264 -0.2249 -0.3560 -0.1170
  652Sol     HW 5692   2.929   1.282   6.250 -0.0966 -1.5177 -0.5189
  652Sol     HW 5693   3.055   1.198   6.257  0.6153 -0.2669  2.2159
  652Sol     MW 5694   3.018   1.280   6.262 -0.3479 -0.4174 -0.6005
  653Sol     OW 5695   2.843   2.963   7.420  0.3759  0.3671  0.0256
  653Sol     HW 5696   2.889   2.879   7.414 -0.0741  0.2684 -2.8593
  653Sol     HW 5697   2.910   3.029   7.400  0.3701  0.5765  0.6995
  653Sol     MW 5698   2.853   2.961   7.417  0.2719 -0.0812  0.0356
  654Sol     OW 5699   1.006   0.710   7.774 -0.0560  0.0456 -1.1059
  654Sol     HW 5700   1.029   0.668   7.691 -0.3912  1.5155 -1.9611
  654Sol     HW 5701   1.059   0.789   7.777  0.7174 -0.5073  0.5781
  654Sol     MW 5702   1.013   0.713   7.767 -0.6663  0.0908 -0.5557
  655Sol     OW 5703   1.514   0.681   4.894  0.6385  0.8459  0.5994
  655Sol     HW 5704   1.507   0.595   4.935 -1.3488  1.5648  1.8704
  655Sol     HW 5705   1.573   0.668   4.820  1.2750 -1.3388  1.4594
  655Sol     MW 5706   1.518   0.672   4.891  0.0809  1.1493 -0.0535
  656Sol     OW 5707   0.516   1.511   7.977 -0.0722 -0.0427 -0.1130
  656Sol     HW 5708   0.443   1.544   8.030 -1.0284 -1.4953 -0.4857
  656Sol     HW 5709   0.506   1.416   7.979  2.3489 -0.3242  0.5456
  656Sol     MW 5710   0.508   1.505   7.982 -0.5359 -0.2106 -0.0036
  657Sol     OW 5711   2.843   2.033   7.794  0.1015  0.4540 -0.6317
  657Sol     HW 5712   2.797   1.985   7.726  0.4166 -0.6771 -0.0543
  657Sol     HW 5713   2.808   2.122   7.788 -0.6923  0.0910 -1.5127
  657Sol     MW 5714   2.836   2.037   7.787 -0.4235  0.2241  0.1157
  658Sol     OW 5715   0.085   2.304   4.192  0.6666  0.2416  0.0603
  658Sol     HW 5716   0.070   2.215   4.223 -0.3411  0.0031 -1.0351
  658Sol     HW 5717   0.171   2.328   4.225  1.3840 -1.5213 -0.4892
  658Sol     MW 5718   0.091   2.298   4.197 -0.3508 -0.0453  0.0656
  659Sol     OW 5719   0.867   1.986   9.510 -0.4296  0.1963  0.0468
  659Sol     HW 5720   0.797   2.051   9.506  0.5549  1.2945  0.1717
  659Sol     HW 5721   0.947   2.038   9.520  0.6475 -0.9260 -2.2821
  659Sol     MW 5722   0.868   1.996   9.511 -0.0306 -0.2902  0.6267
  660Sol     OW 5723   1.235   1.320   3.857  0.3854 -0.5101  0.6987
  660Sol     HW 5724   1.239   1.253   3.789  0.0028 -0.9048  1.0603
  660Sol     HW 5725   1.241   1.403   3.810 -1.0353 -0.7484  0.0825
  660Sol     MW 5726   1.236   1.322   3.847  0.3023  0.4643  0.0559
  661Sol     OW 5727   2.422   2.671   4.897 -0.7437  0.8814 -0.4491
  661Sol     HW 5728   2.363   2.644   4.967  0.0925 -1.2514 -0.5282
  661Sol     HW 5729   2.505   2.629   4.917 -0.5438  0.0407 -2.8197
  661Sol     MW 5730   2.424   2.665   4.905  0.6541 -0.0274 -0.4938
  662Sol     OW 5731   2.571   2.726   2.237 -0.0523 -0.4697  0.2059
  662Sol     HW 5732   2.560   2.766   2.151  0.2097  1.0105  0.8382
  662Sol     HW 5733   2.540   2.793   2.298  1.6061 -0.7203  1.3524
  662Sol     MW 5734   2.567   2.736   2.235 -0.1229  0.1832 -0.4651
  663Sol     OW 5735   1.341   0.203   4.824 -0.1180 -0.4914 -0.1854
  663Sol     HW 5736   1.417   0.165   4.780 -0.5860  0.0620 -1.4850
  663Sol     HW 5737   1.324   0.143   4.897  2.2392 -0.0200  0.7900
  663Sol     MW 5738   1.346   0.194   4.827  0.0140 -0.3280 -0.0477
  664Sol     OW 5739   0.498   2.825   3.420  0.1785 -0.0121  0.2815
  664Sol     HW 5740   0.511   2.874   3.339 -0.3247 -2.0124 -1.0234
  664Sol     HW 5741   0.404   2.813   3.427  0.3320 -1.3257  0.2563
  664Sol     MW 5742   0.491   2.829   3.413  0.1275  0.9406  0.4012
  665Sol     OW 5743   2.071   0.314   4.706 -0.2940  0.1171 -0.2539
  665Sol     HW 5744   2.086   0.271   4.622 -0.0748 -0.0016 -0.1540
  665Sol     HW 5745   2.074   0.408   4.686 -1.1554  0.0916 -0.5422
  665Sol     MW 5746   2.073   0.319   4.697 -0.3812  0.2995  0.6248
  666Sol     OW 5747   1.637   1.525   8.302 -0.7251  0.1778  0.7152
  666Sol     HW 5748   1.599   1.457   8.247  0.7475 -0.1227  0.0470
  666Sol     HW 5749   1.616   1.607   8.258 -3.4338  0.2629  2.0791
  666Sol     MW 5750   1.632   1.526   8.294  0.3396  0.1941  0.8331
  667Sol     OW 5751   2.995   0.067   8.178  0.3940 -0.5609 -0.3162
  667Sol     HW 5752   2.910   0.058   8.221  0.0566 -0.2990 -0.9178
  667Sol     HW 5753   3.045   0.124   8.235 -0.0503 -0.2116 -0.2737
  667Sol     MW 5754   2.992   0.071   8.187 -0.0701  0.1835  0.8105
  668Sol     OW 5755   2.878   0.119   4.716 -1.0838  0.5956  0.3008
  668Sol     HW 5756   2.848   0.174   4.644  1.8249  2.4968  0.4481
  668Sol     HW 5757   2.861   0.172   4.794 -0.5477  0.2417  0.6579
  668Sol     MW 5758   2.874   0.129   4.717 -0.2100 -0.7192 -0.2347
  669Sol     OW 5759   0.768   0.213   9.243 -0.0202  0.5656  0.0175
  669Sol     HW 5760   0.713   0.277   9.290  0.0967 -1.5064  3.0855
  669Sol     HW 5761   0.706   0.166   9.187 -0.9468  0.0385  1.4602
  669Sol     MW 5762   0.757   0.215   9.242 -0.3527  0.3315 -0.7586
  670Sol     OW 5763   1.356   1.811   2.070 -0.4021  0.4274 -0.2305
  670Sol     HW 5764   1.424   1.778   2.012 -0.2524  1.6176 -0.7578
  670Sol     HW 5765   1.279   1.759   2.049 -0.2338  0.5602 -1.2089
  670Sol     MW 5766   1.355   1.803   2.063  0.0529  0.3597  0.4941
  671Sol     OW 5767   2.061   0.190   5.770  0.1900 -0.1627  0.4926
  671Sol     HW 5768   2.133   0.217   5.713  1.6194 -0.3748  2.1187
  671Sol     HW 5769   2.020   0.117   5.725  2.5401 -1.6128  0.6073
  671Sol     MW 5770   2.064   0.186   5.761 -0.0830 -0.0915  0.3060
  672Sol     OW 5771   1.017   2.791   3.634  0.5243  0.5263  0.9011
  672Sol     HW 5772   0.947   2.765   3.573 -0.8462  1.5317  1.9955
  672Sol     HW 5773   1.023   2.719   3.696  2.1072 -0.6208 -0.5568
  672Sol     MW 5774   1.011   2.782   3.634  0.0578 -0.5025 -0.3819
  673Sol     OW 5775   2.392   2.003   3.760 -0.4231  0.0753  0.1817
  673Sol     HW 5776   2.380   1.909   3.753 -0.2054  0.0668 -0.0723
  673Sol     HW 5777   2.435   2.015   3.845  2.6406 -0.3510 -1.2134
  673Sol     MW 5778   2.395   1.996   3.767  0.5293 -0.2787 -0.2640
  674Sol     OW 5779   2.956   2.746   8.734 -0.1404 -0.3519 -0.1788
  674Sol     HW 5780   3.051   2.757   8.731 -0.3540  1.2882 -1.3661
  674Sol     HW 5781   2.938   2.675   8.673  0.4666 -1.8210  1.3185
  674Sol     MW 5782   2.963   2.741   8.728  0.9070 -0.3644  0.0739
  675Sol     OW 5783   0.935   0.026   7.399  0.0353 -0.3267 -0.8321
  675Sol     HW 5784   1.022   0.050   7.431 -0.4365  0.8365 -0.4025
  675Sol     HW 5785   0.920   0.086   7.325 -0.4939 -0.3760 -0.7652
  675Sol     MW 5786   0.942   0.033   7.395 -0.0788 -0.1991 -0.4374
  676Sol     OW 5787   0.584   1.744   6.921 -0.0324  0.3420 -0.3483
  676Sol     HW 5788   0.585   1.839   6.907 -2.7433  0.1564 -2.2262
  676Sol     HW 5789   0.565   1.734   7.014 -2.8927  1.7161 -0.6971
  676Sol     MW 5790   0.582   1.752   6.928  0.0837  0.1603  0.2692
  677Sol     OW 5791   3.115   2.564   6.964  0.2093 -0.0429 -0.3283
  677Sol     HW 5792   3.047   2.497   6.965  0.3211 -0.1662 -0.6590
  677Sol     HW 5793   3.180   2.535   7.028 -0.0222  0.0449 -0.0576
  677Sol     MW 5794   3.115   2.555   6.970 -0.0097  0.3397  0.5556
  678Sol     OW 5795   1.216   0.827   3.929 -0.2252  0.0537  0.2394
  678Sol     HW 5796   1.150   0.781   3.877 -0.0829 -1.4628  1.3704
  678Sol     HW 5797   1.293   0.829   3.872  0.0910 -2.0518  0.5289
  678Sol     MW 5798   1.217   0.823   3.919  0.2079  0.1551 -0.5289
  679Sol     OW 5799   0.904   1.301   9.354 -0.2265  0.2143 -0.0950
  679Sol     HW 5800   0.959   1.337   9.284  0.2423  0.2295  0.2830
  679Sol     HW 5801   0.964   1.283   9.426 -0.4374 -1.4837 -0.3328
  679Sol     MW 5802   0.914   1.303   9.354  0.0438  1.3335 -0.2717
  680Sol     OW 5803   0.052   3.380   9.849 -0.6731  0.2840  0.9527
  680Sol     HW 5804  -0.016   3.315   9.867 -0.4624 -0.8601 -2.1305
  680Sol     HW 5805   0.134   3.331   9.861 -0.5043  0.1129 -0.8333
  680Sol     MW 5806   0.054   3.369   9.852 -0.2265 -0.3654  0.0441
  681Sol     OW 5807   1.400   0.558   9.320 -0.8040 -0.8129  0.2788
  681Sol     HW 5808   1.495   0.562   9.311 -0.5626 -2.5607  1.7067
  681Sol     HW 5809   1.375   0.645   9.351  0.1697  0.0503 -1.3151
  681Sol     MW 5810   1.406   0.566   9.322  0.6351  0.3529  0.7856
  682Sol     OW 5811   1.358   0.799   9.436  0.0758  0.0372  0.4365
  682Sol     HW 5812   1.447   0.798   9.469  0.2198  1.3991  0.1595
  682Sol     HW 5813   1.359   0.867   9.368 -1.0162 -0.3532  0.0176
  682Sol     MW 5814   1.366   0.805   9.433 -0.2277 -0.3781  0.7313
  683Sol     OW 5815   1.107   1.660   8.399  0.0296  0.4162 -0.0731
  683Sol     HW 5816   1.054   1.684   8.476  1.1827  1.6478  0.3573
  683Sol     HW 5817   1.068   1.709   8.327 -0.9631 -0.6258 -0.2651
  683Sol     MW 5818   1.099   1.666   8.400 -0.1541  0.8974 -0.2745
  684Sol     OW 5819   2.250   0.162   2.812  0.3095  0.1480 -0.4173
  684Sol     HW 5820   2.302   0.091   2.850 -0.1106 -1.8024 -3.3496
  684Sol     HW 5821   2.162   0.147   2.846  0.7821  1.0229  1.2670
  684Sol     MW 5822   2.247   0.154   2.819  0.1528 -0.1542 -0.8937
  685Sol     OW 5823   3.223   0.868   4.479  0.2303 -0.0309 -0.0506
  685Sol     HW 5824   3.148   0.927   4.495 -0.8766 -0.9884 -1.5841
  685Sol     HW 5825   3.231   0.818   4.560 -1.1949 -0.3409 -0.0839
  685Sol     MW 5826   3.217   0.869   4.488 -0.4289 -0.2425 -0.1409
  686Sol     OW 5827   2.997   3.176   8.386 -0.3324 -0.2418 -0.2019
  686Sol     HW 5828   3.008   3.174   8.291  0.1506 -0.8164 -0.1296
  686Sol     HW 5829   3.034   3.094   8.417 -1.8376 -0.7371  0.3433
  686Sol     MW 5830   3.001   3.169   8.380  0.2539  0.3690 -0.2096
  687Sol     OW 5831   1.412   1.846   6.763 -0.0910 -0.1113 -0.4008
  687Sol     HW 5832   1.461   1.769   6.732  0.0186 -0.9851  1.8249
  687Sol     HW 5833   1.479   1.914   6.773  0.1466 -0.3371 -0.4267
  687Sol     MW 5834   1.423   1.845   6.761 -1.1921 -0.5528  0.3129
  688Sol     OW 5835   0.481   1.074   1.423  0.0519  0.8258 -0.5445
  688Sol     HW 5836   0.392   1.081   1.457  0.5224  0.3009  0.7994
  688Sol     HW 5837   0.515   0.994   1.461  1.3847  1.4504 -0.3980
  688Sol     MW 5838   0.476   1.068   1.429 -0.2000 -0.0332 -0.2919
  689Sol     OW 5839   0.766   3.038   7.164  0.0554  0.3080 -0.5878
  689Sol     HW 5840   0.820   3.035   7.085  1.0954 -3.2580  0.1678
  689Sol     HW 5841   0.718   2.955   7.163 -1.7509  1.3034  1.2615
  689Sol     MW 5842   0.767   3.030   7.157  0.2363 -0.4009 -0.2877
  690Sol     OW 5843   1.810   0.722   4.740 -0.2160  0.1911  0.6521
  690Sol     HW 5844   1.904   0.740   4.750 -0.0161 -0.2568 -0.3256
  690Sol     HW 5845   1.807   0.634   4.702 -1.0008  0.7368 -0.5462
  690Sol     MW 5846   1.818   0.716   4.738 -0.1869 -0.2172 -0.4813
  691Sol     OW 5847   0.938   1.321   7.348 -0.2707  0.0909 -0.0528
  691Sol     HW 5848   1.015   1.264   7.343 -1.1418 -1.1139 -0.0353
  691Sol     HW 5849   0.866   1.266   7.316 -0.8805  1.6633 -1.4231
  691Sol     MW 5850   0.939   1.311   7.344 -0.5095 -0.6852 -0.3129
  692Sol     OW 5851   2.197   2.578   3.190 -0.1315  0.1622  0.1099
  692Sol     HW 5852   2.124   2.517   3.194 -0.8238  0.9899  0.1134
  692Sol     HW 5853   2.178   2.633   3.114  1.1040 -0.4095 -0.6259
  692Sol     MW 5854   2.189   2.578   3.183 -0.4475  0.2037  0.4570
  693Sol     OW 5855   0.256   2.169   8.876  0.2773 -0.3590 -0.4327
  693Sol     HW 5856   0.315   2.243   8.869 -0.2249  0.0073 -0.8347
  693Sol     HW 5857   0.196   2.192   8.947  0.0534 -0.3224 -0.6292
  693Sol     MW 5858   0.256   2.177   8.882  0.0581  0.0745 -0.2318
  694Sol     OW 5859   2.201   1.289   7.935 -0.0647 -0.2062  0.0783
  694Sol     HW 5860   2.249   1.323   8.011  1.1781 -0.9070 -0.3812
  694Sol     HW 5861   2.247   1.327   7.860  0.3216 -1.5894 -0.3901
  694Sol     MW 5862   2.210   1.296   7.935  0.4753  0.6887 -0.0800
  695Sol     OW 5863   2.262   3.450   9.254 -0.1775 -0.1683  0.0936
  695Sol     HW 5864   2.167   3.447   9.269 -0.9434 -0.8981 -4.2155
  695Sol     HW 5865   2.284   3.543   9.257 -1.2729  0.1068 -0.1246
  695Sol     MW 5866   2.256   3.458   9.255 -0.1574  0.1763  0.1804
  696Sol     OW 5867   1.065   3.385   4.972 -0.3805 -0.5403  0.3907
  696Sol     HW 5868   1.067   3.327   4.896  1.5080 -1.7085  1.3179
  696Sol     HW 5869   1.046   3.472   4.934 -1.3146 -1.4105 -1.1984
  696Sol     MW 5870   1.064   3.388   4.962 -0.5285 -0.3887  0.0031
  697Sol     OW 5871   1.949   1.067   9.141 -0.4645 -0.3535 -0.3519
  697Sol     HW 5872   1.960   1.162   9.137 -2.5070  0.0079  1.7366
  697Sol     HW 5873   2.015   1.032   9.080 -0.9740  2.4598 -2.5872
  697Sol     MW 5874   1.956   1.072   9.135  0.4896  0.3011 -0.1005
  698Sol     OW 5875   2.576   1.305   7.054  0.0732 -0.7703 -0.2477
  698Sol     HW 5876   2.530   1.277   6.975 -0.5519  0.5068 -0.3378
  698Sol     HW 5877   2.644   1.238   7.066 -1.1807 -2.1314 -0.6494
  698Sol     MW 5878   2.578   1.296   7.048 -0.0410  0.1618 -0.5424
  699Sol     OW 5879   1.463   2.392   8.703 -0.3409 -0.1292  0.1483
  699Sol     HW 5880   1.477   2.479   8.741 -0.1311 -0.7758  1.5531
  699Sol     HW 5881   1.524   2.335   8.749 -1.2456 -1.2336 -0.0010
  699Sol     MW 5882   1.470   2.395   8.710  0.6700  0.3378 -0.1115
  700Sol     OW 5883   2.598   0.423   2.151  0.2123 -0.1238 -0.4889
  700Sol     HW 5884   2.514   0.379   2.157 -0.3037  1.0657  1.7094
  700Sol     HW 5885   2.577   0.516   2.164  1.6830  0.3621 -1.4596
  700Sol     MW 5886   2.589   0.428   2.152  0.1906  0.0027  0.0627
  701Sol     OW 5887   2.784   1.104   4.660  0.3010 -0.1363  0.2498
  701Sol     HW 5888   2.715   1.037   4.667  0.0959 -0.1638 -1.8645
  701Sol     HW 5889   2.846   1.080   4.729 -1.3399 -0.6466  1.5888
  701Sol     MW 5890   2.784   1.096   4.667 -0.3272  0.2198  0.1541
  702Sol     OW 5891   0.811   0.181   8.546  0.3918  0.0291  0.3253
  702Sol     HW 5892   0.862   0.155   8.623 -0.1965 -2.2837 -0.0092
  702Sol     HW 5893   0.740   0.234   8.581  0.2740 -0.7959  1.3721
  702Sol     MW 5894   0.809   0.183   8.556  0.2531  0.1809 -0.9851
  703Sol     OW 5895   0.800   0.492   2.706 -0.3160  0.2209 -0.3962
  703Sol     HW 5896   0.817   0.400   2.684 -1.3446 -0.1301  0.2502
  703Sol     HW 5897   0.815   0.539   2.624  1.7707 -0.3072 -0.3576
  703Sol     MW 5898   0.803   0.488   2.697  0.1454  0.3120  0.2427
  704Sol     OW 5899   1.356   2.385   2.675  0.1382 -0.0534  0.1991
  704Sol     HW 5900   1.265   2.388   2.646  0.3397  2.6399 -0.3210
  704Sol     HW 5901   1.396   2.317   2.622 -0.7797  1.0698 -2.0064
  704Sol     MW 5902   1.351   2.380   2.668 -0.7302 -0.1711 -0.2295
  705Sol     OW 5903   1.708   1.439   2.339  0.2884 -0.2009  0.2167
  705Sol     HW 5904   1.679   1.354   2.372 -1.9930  0.6353  0.4595
  705Sol     HW 5905   1.648   1.458   2.267 -0.1599  1.8668  1.1051
  705Sol     MW 5906   1.700   1.433   2.335 -0.1138 -0.0093 -0.1177
  706Sol     OW 5907   0.639   0.393   6.352  0.1301 -0.4230 -0.1888
  706Sol     HW 5908   0.633   0.441   6.270 -2.7896 -1.2546 -0.5013
  706Sol     HW 5909   0.613   0.456   6.419  1.2602 -0.1211 -0.0203
  706Sol     MW 5910   0.636   0.403   6.351  0.4332  0.1836 -0.6861
  707Sol     OW 5911   2.174   1.362   4.994  0.2837 -0.8054 -0.1318
  707Sol     HW 5912   2.100   1.399   4.946 -0.2169  0.4649  1.5863
  707Sol     HW 5913   2.146   1.273   5.015 -1.6364  0.3380  2.3131
  707Sol     MW 5914   2.165   1.357   4.991  0.2326 -0.4656 -0.0321
  708Sol     OW 5915   2.892   2.504   4.799  0.4439 -0.1184  0.6122
  708Sol     HW 5916   2.933   2.574   4.748 -2.3624  0.8139 -0.4762
  708Sol     HW 5917   2.900   2.427   4.744  0.1193  0.2134  0.0937
  708Sol     MW 5918   2.897   2.504   4.789  0.5730 -0.1140 -0.5212
  709Sol     OW 5919   0.188   0.512   2.652  0.1009 -0.1093 -0.6426
  709Sol     HW 5920   0.205   0.421   2.677  1.6768  0.6216  1.0870
  709Sol     HW 5921   0.177   0.509   2.557  0.7937 -2.0196 -0.6832
  709Sol     MW 5922   0.189   0.504   2.646 -0.1545  0.1664  0.0141
  710Sol     OW 5923   1.982   2.787   2.033  0.0159 -0.2893  0.2463
  710Sol     HW 5924   2.075   2.807   2.043  0.4488 -1.5231 -1.2160
  710Sol     HW 5925   1.964   2.721   2.100  0.2679 -0.2864  0.3158
  710Sol     MW 5926   1.989   2.783   2.040 -0.2672  0.7515  0.1143
  711Sol     OW 5927   0.141   0.075   3.454  0.5647  0.5910 -0.2032
  711Sol     HW 5928   0.054   0.081   3.415 -0.2835  0.6855  1.6612
  711Sol     HW 5929   0.200   0.111   3.388 -1.0797  2.7368 -0.5372
  711Sol     MW 5930   0.139   0.078   3.445 -0.2738 -0.4199 -0.1402
  712Sol     OW 5931   0.380   1.810   7.434  0.1544 -0.9172  0.0310
  712Sol     HW 5932   0.285   1.816   7.422 -0.0442 -1.4573  1.1499
  712Sol     HW 5933   0.416   1.805   7.346 -0.7674  0.4839 -0.4433
  712Sol     MW 5934   0.374   1.810   7.425  0.0387 -0.0043  0.2278
  713Sol     OW 5935   1.489   0.508   4.205  0.3705  0.0838 -0.0390
  713Sol     HW 5936   1.508   0.524   4.113  0.6378 -0.9120 -0.1654
  713Sol     HW 5937   1.393   0.510   4.210  0.1914 -3.2268 -1.0059
  713Sol     MW 5938   1.482   0.509   4.197 -0.4579 -0.4649  0.1737
  714Sol     OW 5939   1.071   2.552   3.853 -0.1315  1.2353 -0.3702
  714Sol     HW 5940   1.012   2.489   3.894 -0.0770  0.6082 -1.2506
  714Sol     HW 5941   1.140   2.566   3.918 -0.7551  1.2702  0.2916
  714Sol     MW 5942   1.072   2.548   3.863  0.1719 -0.0352 -0.1796
  715Sol     OW 5943   0.745   2.420   3.458  0.8219 -0.3108  0.6176
  715Sol     HW 5944   0.690   2.390   3.385 -0.5883  0.1741  1.4613
  715Sol     HW 5945   0.799   2.344   3.479 -0.4504 -1.2404  0.6206
  715Sol     MW 5946   0.745   2.411   3.453  0.9676 -0.5978  0.1920
  716Sol     OW 5947   1.307   3.081   3.642  0.4099 -0.2141 -0.2438
  716Sol     HW 5948   1.317   3.055   3.734 -1.1758 -0.5063 -0.1371
  716Sol     HW 5949   1.286   3.175   3.645 -0.6834 -0.4446 -0.2242
  716Sol     MW 5950   1.306   3.087   3.651  0.0797 -0.3074  0.4545
  717Sol     OW 5951   0.756   0.391   4.532  0.4768  0.2370 -0.6721
  717Sol     HW 5952   0.701   0.469   4.526 -0.7850 -0.4753  1.3416
  717Sol     HW 5953   0.698   0.322   4.564  2.3224 -0.7510  0.6390
  717Sol     MW 5954   0.746   0.392   4.534 -0.6260 -0.2955  0.2011
  718Sol     OW 5955   2.490   2.846   5.360 -0.0787 -0.3241 -0.4844
  718Sol     HW 5956   2.522   2.928   5.323  2.9267 -0.9511  0.6012
  718Sol     HW 5957   2.532   2.778   5.308 -1.0165 -1.1848 -0.1299
  718Sol     MW 5958   2.497   2.847   5.352  0.8398  0.2974 -0.1263
  719Sol     OW 5959   1.787   0.427   3.861  0.3033 -0.2163 -0.4761
  719Sol     HW 5960   1.708   0.375   3.876 -0.8662  1.4276 -0.7797
  719Sol     HW 5961   1.833   0.424   3.945 -2.2682  2.3662  1.1084
  719Sol     MW 5962   1.784   0.422   3.870 -0.1382 -0.0958 -0.1458
  720Sol     OW 5963   2.913   1.813   8.515  0.5905 -0.1499 -0.1487
  720Sol     HW 5964   3.008   1.811   8.524  0.6945 -2.5303 -1.4297
  720Sol     HW 5965   2.880   1.801   8.604  1.5371 -4.2064 -0.2345
  720Sol     MW 5966   2.919   1.812   8.523 -0.8114  0.0292 -0.2474
  721Sol     OW 5967   2.370   2.193   5.349 -0.3541 -0.4790  0.1427
  721Sol     HW 5968   2.359   2.220   5.440  1.5025 -0.1146  0.2693
  721Sol     HW 5969   2.401   2.103   5.355 -1.6299 -0.9508 -0.1761
  721Sol     MW 5970   2.372   2.187   5.358  0.1414 -0.5345 -0.1004
  722Sol     OW 5971   0.194   2.629   9.465  0.3796  0.1921  0.4887
  722Sol     HW 5972   0.175   2.605   9.374  2.3134 -0.6118  0.2754
  722Sol     HW 5973   0.154   2.715   9.476 -2.7654 -1.1345 -0.0982
  722Sol     MW 5974   0.189   2.634   9.458  0.3472 -0.1769  0.2774
  723Sol     OW 5975   0.634   1.179   6.110  0.1921 -0.0586 -0.8319
  723Sol     HW 5976   0.594   1.205   6.027 -2.6751 -0.4902  0.3330
  723Sol     HW 5977   0.665   1.090   6.095 -1.1834 -0.4950 -1.1893
  723Sol     MW 5978   0.633   1.174   6.101 -0.4149  0.6271  0.3109
  724Sol     OW 5979   1.010   3.325   2.174  0.1817  0.1461 -0.2204
  724Sol     HW 5980   0.990   3.299   2.084 -0.6542  0.2163 -0.0597
  724Sol     HW 5981   1.092   3.280   2.194 -0.1070 -0.6048 -0.7040
  724Sol     MW 5982   1.016   3.318   2.168 -0.1937 -0.3181 -0.6751
  725Sol     OW 5983   2.127   0.578   4.625 -0.1679 -0.0664  0.0221
  725Sol     HW 5984   2.194   0.642   4.649 -0.4352  0.2578 -0.0873
  725Sol     HW 5985   2.085   0.615   4.548 -1.7220  0.6553  1.1816
  725Sol     MW 5986   2.129   0.587   4.621  0.0553  0.1859 -0.1522
  726Sol     OW 5987   2.703   1.681   5.469  0.0264  0.8304  0.2553
  726Sol     HW 5988   2.611   1.704   5.479 -0.7768 -1.9877 -0.0620
  726Sol     HW 5989   2.702   1.593   5.430  2.8752  1.4157 -1.3009
  726Sol     MW 5990   2.695   1.675   5.467  0.3654 -0.6690  0.3068
  727Sol     OW 5991   2.781   0.625   7.607  0.2393 -0.0183  0.4024
  727Sol     HW 5992   2.748   0.536   7.595 -0.5019  0.5559 -2.1698
  727Sol     HW 5993   2.746   0.653   7.692  2.0784 -2.8388  2.1573
  727Sol     MW 5994   2.775   0.620   7.614  0.0446 -0.7024 -0.1801
  728Sol     OW 5995   2.889   3.023   5.843  0.0268  0.6779 -0.0125
  728Sol     HW 5996   2.825   3.095   5.840  1.3750  1.9230  0.0847
  728Sol     HW 5997   2.866   2.967   5.769 -1.9180  0.4323  0.7332
  728Sol     MW 5998   2.881   3.025   5.836 -0.1140  0.8262  0.3966
  729Sol     OW 5999   1.381   0.105   6.920 -0.1625  0.1743 -0.1875
  729Sol     HW 6000   1.346   0.193   6.910 -1.5841 -0.3645 -0.1528
  729Sol     HW 6001   1.459   0.103   6.864  1.3188  2.1841  1.7399
  729Sol     MW 6002   1.385   0.112   6.914  0.4624  0.3849 -0.2576
  730Sol     OW 6003   2.601   2.399   7.438 -0.1337 -0.1027  0.0411
  730Sol     HW 6004   2.624   2.486   7.471  1.6412 -0.4453 -0.2479
  730Sol     HW 6005   2.599   2.409   7.343  0.2352 -0.4085 -0.0004
  730Sol     MW 6006   2.603   2.408   7.433 -0.3731  0.0023  0.5727
  731Sol     OW 6007   0.765   1.754   9.156  0.1174 -0.1799  0.3434
  731Sol     HW 6008   0.826   1.689   9.121 -1.4569 -0.7082 -1.4568
  731Sol     HW 6009   0.712   1.780   9.081 -1.3164  0.8997  1.7105
  731Sol     MW 6010   0.766   1.750   9.146  0.3366  0.3168 -0.2999
  732Sol     OW 6011   0.880   3.333   6.578 -0.3120  0.2183 -0.2130
  732Sol     HW 6012   0.911   3.416   6.541  0.7689 -0.6287 -1.2635
  732Sol     HW 6013   0.810   3.306   6.519 -0.5475  0.2931  0.0320
  732Sol     MW 6014   0.877   3.338   6.569  0.2342 -0.2003  0.0285
  733Sol     OW 6015   0.201   0.955   6.968 -0.1460 -0.0218  0.0518
  733Sol     HW 6016   0.257   1.027   6.941 -0.1920 -0.3400 -0.8871
  733Sol     HW 6017   0.234   0.930   7.054 -0.6469  1.6572  0.7528
  733Sol     MW 6018   0.209   0.959   6.974 -0.2541 -0.8281  0.1023
  734Sol     OW 6019   0.630   3.185   9.885 -1.2063 -0.1873 -0.0147
  734Sol     HW 6020   0.690   3.135   9.941 -1.5113  0.9325  1.3186
  734Sol     HW 6021   0.686   3.224   9.818 -0.6237 -0.1679  0.4895
  734Sol     MW 6022   0.640   3.184   9.884  0.3038 -0.3722 -0.6270
  735Sol     OW 6023   3.183   3.091   2.575 -0.4516 -0.6513 -0.5023
  735Sol     HW 6024   3.243   3.107   2.503 -0.0172  0.6926  0.1439
  735Sol     HW 6025   3.142   3.176   2.593 -2.9970 -1.6394 -1.2997
  735Sol     MW 6026   3.184   3.100   2.570 -0.2533 -0.0027  0.1686
  736Sol     OW 6027   0.876   1.810   8.268 -0.3451 -0.7509 -0.3071
  736Sol     HW 6028   0.801   1.859   8.301  1.3337  0.3984  1.9334
  736Sol     HW 6029   0.892   1.845   8.180 -3.1582 -1.8796 -1.3184
  736Sol     MW 6030   0.871   1.817   8.263 -0.0951 -0.5495  0.2664
  737Sol     OW 6031   2.900   1.241   6.800 -0.1811  0.4322 -0.5374
  737Sol     HW 6032   2.849   1.295   6.739 -1.3437  0.2880  0.3092
  737Sol     HW 6033   2.944   1.177   6.744 -0.5627  0.8428 -1.3179
  737Sol     MW 6034   2.900   1.240   6.789 -0.1907  0.0548 -0.1435
  738Sol     OW 6035   3.172   3.101   7.088 -0.3056  0.0384 -0.2126
  738Sol     HW 6036   3.267   3.114   7.095 -0.1658 -0.5641 -0.9825
  738Sol     HW 6037   3.136   3.189   7.099  0.4219  0.4963 -1.4164
  738Sol     MW 6038   3.178   3.110   7.090  0.2736 -0.5510 -0.2449
  739Sol     OW 6039   3.056   1.188   1.868  0.1650 -0.7337  0.0884
  739Sol     HW 6040   3.095   1.265   1.827 -0.2456 -0.5234  0.0926
  739Sol     HW 6041   3.124   1.155   1.927  0.0341  0.1207  0.7263
  739Sol     MW 6042   3.066   1.192   1.869  0.1558  0.6969 -0.7077
  740Sol     OW 6043   0.415   1.534   5.758  0.4352 -0.4396 -0.7006
  740Sol     HW 6044   0.460   1.567   5.835 -1.8977 -0.8361  0.8835
  740Sol     HW 6045   0.396   1.612   5.706 -2.6766  0.5341  1.7378
  740Sol     MW 6046   0.417   1.544   5.760  0.3424  0.1464  0.0789
  741Sol     OW 6047   0.137   1.452   3.169 -0.0197 -0.6624  0.0720
  741Sol     HW 6048   0.198   1.433   3.097  0.7678 -1.4426  0.9315
  741Sol     HW 6049   0.159   1.388   3.236  0.5288  1.2498  1.7654
  741Sol     MW 6050   0.145   1.445   3.168 -0.1522 -0.2124  0.4152
  742Sol     OW 6051   2.615   1.810   3.921 -0.1062  0.5976  0.5065
  742Sol     HW 6052   2.568   1.853   3.992 -0.3428  0.1357  0.6265
  742Sol     HW 6053   2.687   1.870   3.901 -1.4276  1.8968 -0.4909
  742Sol     MW 6054   2.618   1.820   3.925  0.0024  0.0910  0.7445
  743Sol     OW 6055   2.313   2.705   7.577 -0.7154  0.0577  0.2238
  743Sol     HW 6056   2.312   2.798   7.556  3.0900  0.5767  1.9527
  743Sol     HW 6057   2.340   2.662   7.496 -0.6274  0.6446 -0.0614
  743Sol     MW 6058   2.315   2.709   7.568  0.6793  0.1833 -1.0589
  744Sol     OW 6059   2.151   1.026   8.208 -0.0900  0.0556  0.3163
  744Sol     HW 6060   2.099   0.987   8.279  1.3698 -1.0666  0.7775
  744Sol     HW 6061   2.092   1.023   8.132 -0.6934 -1.2796  0.8097
  744Sol     MW 6062   2.141   1.022   8.207  0.1879 -0.0415  0.2037
  745Sol     OW 6063   2.620   2.490   9.463  0.3120 -0.4192  0.1452
  745Sol     HW 6064   2.638   2.579   9.434  1.0863 -1.2716 -2.1460
  745Sol     HW 6065   2.699   2.462   9.508  0.7227 -0.5055 -0.6130
  745Sol     MW 6066   2.628   2.495   9.464 -0.2289  0.1513  0.4930
  746Sol     OW 6067   3.118   3.074   4.785 -0.2383 -0.1198  0.4782
  746Sol     HW 6068   3.127   3.158   4.829 -1.1758 -0.2857  1.0165
  746Sol     HW 6069   3.023   3.058   4.784 -0.1334 -0.7490 -0.4168
  746Sol     MW 6070   3.110   3.080   4.789  0.4753 -0.2183  0.3731
  747Sol     OW 6071   0.436   0.376   2.933  0.0646  0.2410 -0.0706
  747Sol     HW 6072   0.483   0.297   2.907 -1.3346 -0.5014 -0.3576
  747Sol     HW 6073   0.487   0.447   2.893 -0.0034 -0.6587 -1.8293
  747Sol     MW 6074   0.445   0.376   2.927  0.2708  0.4059 -0.3895
  748Sol     OW 6075   1.807   3.269   7.654  0.0853  0.1214  0.3078
  748Sol     HW 6076   1.793   3.292   7.746 -0.5896  0.4199  0.1250
  748Sol     HW 6077   1.758   3.334   7.604  2.0192  1.1454 -0.3293
  748Sol     MW 6078   1.802   3.277   7.658 -0.4515 -0.3069 -0.6177
  749Sol     OW 6079   0.583   2.068   8.600  0.2219 -0.4060 -0.0227
  749Sol     HW 6080   0.585   2.164   8.598 -1.4959 -0.3556  0.2050
  749Sol     HW 6081   0.673   2.042   8.579  0.4913  1.2328 -0.9757
  749Sol     MW 6082   0.591   2.074   8.598 -0.1855 -1.0575  0.7462
  750Sol     OW 6083   0.686   3.208   9.176  0.2756  0.1999  0.0604
  750Sol     HW 6084   0.717   3.186   9.088 -1.2457 -0.0988 -0.4129
  750Sol     HW 6085   0.758   3.256   9.216  1.0220  0.2293 -1.3102
  750Sol     MW 6086   0.695   3.210   9.172  0.1548  0.3236  0.2436
  751Sol     OW 6087   3.141   0.391   4.309 -0.6555  0.4000  0.4820
  751Sol     HW 6088   3.191   0.324   4.356  0.1816 -1.0873 -2.4583
  751Sol     HW 6089   3.081   0.341   4.253 -1.6178  2.1437 -0.0740
  751Sol     MW 6090   3.140   0.381   4.309 -0.5705 -0.1402 -0.5265
  752Sol     OW 6091   0.739   1.589   8.751 -0.4995  0.0559 -0.6278
  752Sol     HW 6092   0.704   1.659   8.806 -0.3289 -0.8696  0.6856
  752Sol     HW 6093   0.662   1.548   8.711 -0.7305 -0.1730  0.0464
  752Sol     MW 6094   0.729   1.591   8.752 -0.6763 -0.2019  0.2116
  753Sol     OW 6095   0.121   1.553   8.816 -0.2342  0.0867  0.1831
  753Sol     HW 6096   0.175   1.491   8.864 -2.0641  0.0668  2.2955
  753Sol     HW 6097   0.113   1.628   8.875 -0.0837  1.3045 -1.3162
  753Sol     MW 6098   0.125   1.554   8.826 -0.2475 -0.1582  0.5820
  754Sol     OW 6099   2.715   1.426   2.542 -0.2342 -0.3167 -0.5610
  754Sol     HW 6100   2.681   1.505   2.584  1.9221  0.3733 -0.0380
  754Sol     HW 6101   2.704   1.357   2.607  2.7831  0.6788  1.1053
  754Sol     MW 6102   2.711   1.427   2.551 -0.1209  0.3293  0.0348
  755Sol     OW 6103   2.966   0.107   2.552  0.1977 -0.0592 -0.5829
  755Sol     HW 6104   2.893   0.169   2.561 -0.2427 -0.8308  1.2340
  755Sol     HW 6105   3.039   0.162   2.524 -0.5517  1.0601 -0.4055
  755Sol     MW 6106   2.966   0.118   2.550 -0.7500  0.1074 -0.0137
  756Sol     OW 6107   2.874   0.548   4.403  0.9165  0.0209  0.1948
  756Sol     HW 6108   2.910   0.606   4.336  1.2416 -0.3207  0.0736
  756Sol     HW 6109   2.932   0.471   4.403 -0.0101 -0.6888 -0.2479
  756Sol     MW 6110   2.882   0.546   4.397 -0.2208  0.4885 -0.1975
  757Sol     OW 6111   1.398   1.367   6.546  0.0341  0.0951 -0.0684
  757Sol     HW 6112   1.317   1.417   6.557  0.0217  0.6488 -2.3436
  757Sol     HW 6113   1.416   1.373   6.452  1.5074 -1.9079  0.0711
  757Sol     MW 6114   1.392   1.372   6.539 -0.2358  0.0235  0.1666
  758Sol     OW 6115   2.224   2.536   2.626 -0.0162  0.0906 -0.4610
  758Sol     HW 6116   2.259   2.513   2.712  0.6146  0.8388 -0.5177
  758Sol     HW 6117   2.301   2.555   2.573 -0.4835  2.0851 -0.4865
  758Sol     MW 6118   2.234   2.536   2.629 -0.3033  0.4445 -0.3929
  759Sol     OW 6119   3.009   0.119   1.877  0.6057  0.2442 -0.5927
  759Sol     HW 6120   3.053   0.039   1.906  0.6590  0.8251  0.9708
  759Sol     HW 6121   2.916   0.098   1.876  0.5643  0.3702  0.4991
  759Sol     MW 6122   3.005   0.110   1.879  0.2613 -0.4663 -0.3457
  760Sol     OW 6123   2.234   1.661   7.785 -0.3244  0.5911  0.4081
  760Sol     HW 6124   2.139   1.673   7.792 -0.8022 -2.9834  0.5723
  760Sol     HW 6125   2.245   1.571   7.757  3.0983  0.5187  1.8112
  760Sol     MW 6126   2.226   1.654   7.783  0.0768  0.0627 -0.4445
  761Sol     OW 6127   0.161   3.030   7.796 -0.2895  0.4957  0.0103
  761Sol     HW 6128   0.152   2.963   7.863 -1.4350  0.7844  0.1519
  761Sol     HW 6129   0.197   2.984   7.720 -0.7166 -0.1996  0.2252
  761Sol     MW 6130   0.164   3.020   7.795 -0.1670 -0.1155 -0.3739
  762Sol     OW 6131   2.746   3.301   6.324  0.0222 -0.2235  0.2578
  762Sol     HW 6132   2.810   3.235   6.299 -0.0423 -0.1650 -0.0685
  762Sol     HW 6133   2.738   3.357   6.246 -1.3357 -0.9463 -0.1399
  762Sol     MW 6134   2.751   3.300   6.315 -0.4039 -0.7333  0.0605
  763Sol     OW 6135   1.382   1.495   5.079 -0.5676 -0.1747  0.5393
  763Sol     HW 6136   1.313   1.548   5.040 -1.5491 -0.2904  2.0818
  763Sol     HW 6137   1.439   1.472   5.005 -1.2257  1.3450 -0.4653
  763Sol     MW 6138   1.381   1.497   5.069 -0.3050  0.6709  0.2201
  764Sol     OW 6139   3.129   2.087   9.824 -0.3072 -0.1353  0.3591
  764Sol     HW 6140   3.152   2.149   9.893 -1.1443 -0.3195  0.8171
  764Sol     HW 6141   3.041   2.113   9.796  0.3003  0.3541 -1.1160
  764Sol     MW 6142   3.123   2.095   9.828 -0.2436  0.2628  0.3132
  765Sol     OW 6143   3.121   1.810   7.744  0.3433  0.1924 -0.0352
  765Sol     HW 6144   3.142   1.899   7.715 -0.2491  0.2266 -0.3664
  765Sol     HW 6145   3.204   1.763   7.739  0.4902  0.5098 -0.6644
  765Sol     MW 6146   3.130   1.814   7.741 -0.7180 -0.1873  0.2369
  766Sol     OW 6147   2.003   0.111   2.927 -0.0823 -0.3893 -0.1951
  766Sol     HW 6148   1.956   0.172   2.982  0.2885  0.5610 -0.9126
  766Sol     HW 6149   2.037   0.045   2.987 -2.0524 -0.9214  0.3615
  766Sol     MW 6150   2.002   0.110   2.937  0.2412 -0.1488  0.0708
  767Sol     OW 6151   3.093   2.081   7.681 -0.0881  0.2566 -0.0302
  767Sol     HW 6152   3.122   2.163   7.721 -0.9081  1.4698 -1.8731
  767Sol     HW 6153   3.023   2.050   7.738  1.0575  0.1489  1.3768
  767Sol     MW 6154   3.090   2.086   7.690 -0.7440  0.1041  0.0824
  768Sol     OW 6155   2.472   1.847   3.083  0.5615 -0.2587 -0.2942
  768Sol     HW 6156   2.565   1.870   3.075  0.2565  0.4089 -2.1056
  768Sol     HW 6157   2.447   1.815   2.997 -1.1624  0.5720 -0.1269
  768Sol     MW 6158   2.478   1.846   3.075  0.1600 -0.0845 -0.6510
  769Sol     OW 6159   1.705   1.987   5.227  0.1311 -0.2952  0.2836
  769Sol     HW 6160   1.712   2.070   5.274 -0.5050 -0.6812  1.0626
  769Sol     HW 6161   1.642   1.936   5.277  0.0974 -1.0414 -0.5086
  769Sol     MW 6162   1.700   1.990   5.236  0.2026  0.1939 -0.0711
  770Sol     OW 6163   2.275   1.476   5.580 -0.1172 -1.3128 -0.3162
  770Sol     HW 6164   2.180   1.464   5.577  0.0292 -2.7779  0.3409
  770Sol     HW 6165   2.296   1.477   5.673  0.3412  0.6437 -0.4092
  770Sol     MW 6166   2.268   1.475   5.588 -0.4443  0.7261 -0.1587
  771Sol     OW 6167   0.719   2.251   7.643  0.2820  0.1246  0.0976
  771Sol     HW 6168   0.719   2.295   7.558  1.6567 -0.7233 -0.3518
  771Sol     HW 6169   0.629   2.221   7.655 -0.0132  0.6339 -0.8526
  771Sol     MW 6170   0.711   2.252   7.637 -0.4734  0.4596  0.2145
  772Sol     OW 6171   1.257   1.676   8.865 -0.0453 -0.0549 -0.0648
  772Sol     HW 6172   1.169   1.697   8.833  0.1956 -0.1265 -0.7788
  772Sol     HW 6173   1.279   1.748   8.924 -0.8484 -0.3711  0.6390
  772Sol     MW 6174   1.251   1.684   8.868 -0.1937 -0.6548  0.1315
  773Sol     OW 6175   2.477   3.277   5.239  0.2041  0.2461 -0.3728
  773Sol     HW 6176   2.392   3.292   5.198  0.7815 -0.4744 -1.8516
  773Sol     HW 6177   2.507   3.365   5.263 -2.1000  0.3124  2.5741
  773Sol     MW 6178   2.472   3.287   5.237 -0.0445 -0.2043 -0.0498
  774Sol     OW 6179   2.291   1.154   5.859 -0.7316 -0.3707 -0.0689
  774Sol     HW 6180   2.297   1.197   5.944 -0.4115 -1.7835  0.6475
  774Sol     HW 6181   2.371   1.181   5.813 -0.2602 -0.6254  0.5821
  774Sol     MW 6182   2.299   1.160   5.863 -0.5656 -0.2154 -0.0169
  775Sol     OW 6183   0.740   1.824   5.874  0.1032 -0.7739  0.1289
  775Sol     HW 6184   0.804   1.890   5.848  0.0355 -1.1461 -1.0192
  775Sol     HW 6185   0.714   1.782   5.792 -2.7091  0.3530  0.3791
  775Sol     MW 6186   0.743   1.826   5.865 -0.4857 -0.1620  0.0285
  776Sol     OW 6187   1.961   1.553   2.275 -0.0407  0.1281  0.0780
  776Sol     HW 6188   1.988   1.556   2.367  0.7676  0.2579 -0.1603
  776Sol     HW 6189   1.882   1.499   2.275  0.0084  0.0530  0.8367
  776Sol     MW 6190   1.956   1.549   2.283 -0.1333 -0.0840  0.5477
  777Sol     OW 6191   1.104   0.755   4.383  0.0147  0.1975  0.0522
  777Sol     HW 6192   1.141   0.729   4.467 -0.1677 -0.3706 -0.0408
  777Sol     HW 6193   1.050   0.681   4.356 -1.2573  1.0483  0.2168
  777Sol     MW 6194   1.102   0.746   4.388 -0.1067  0.2622  0.0672
  778Sol     OW 6195   0.194   0.537   8.351 -0.4695 -0.4577  0.6335
  778Sol     HW 6196   0.206   0.442   8.342 -0.2501 -0.3432 -0.2666
  778Sol     HW 6197   0.253   0.575   8.287 -2.2587  0.2295 -0.6514
  778Sol     MW 6198   0.200   0.532   8.344 -0.0627 -0.9905  0.1291
  779Sol     OW 6199   0.143   0.649   4.530 -0.3141  0.3658  0.3635
  779Sol     HW 6200   0.121   0.664   4.438  0.0552 -0.7343  0.0924
  779Sol     HW 6201   0.073   0.693   4.578 -1.1655 -0.0584 -0.4622
  779Sol     MW 6202   0.135   0.654   4.526  0.1906 -0.2959 -0.2022
  780Sol     OW 6203   0.764   0.770   7.917  0.4594 -0.5453 -0.3371
  780Sol     HW 6204   0.836   0.715   7.887  0.8014  0.1426 -0.7749
  780Sol     HW 6205   0.769   0.848   7.862 -0.0085 -0.0622  0.3102
  780Sol     MW 6206   0.771   0.772   7.909  0.3709  0.1903  0.6548
  781Sol     OW 6207   2.997   0.610   4.956 -0.2151  0.1604 -0.0090
  781Sol     HW 6208   3.053   0.558   5.014 -0.1223  0.3130  0.0403
  781Sol     HW 6209   3.004   0.567   4.871 -2.8014 -1.9059  0.7769
  781Sol     MW 6210   3.003   0.601   4.953  0.2305  0.4848 -0.1643
  782Sol     OW 6211   1.893   1.785   3.397  0.1909  0.4962 -0.5626
  782Sol     HW 6212   1.986   1.806   3.384  0.7268 -1.6549 -0.2317
  782Sol     HW 6213   1.877   1.801   3.490  0.5397 -0.3152 -0.3614
  782Sol     MW 6214   1.900   1.789   3.404 -0.1904  0.0136 -0.7389
  783Sol     OW 6215   1.021   1.516   4.376 -0.5528  0.6613  0.1817
  783Sol     HW 6216   0.983   1.428   4.383 -0.3996  0.4806 -1.0990
  783Sol     HW 6217   0.965   1.571   4.431 -0.9983 -0.1277  0.5251
  783Sol     MW 6218   1.013   1.513   4.382 -0.0728 -0.2985 -0.4164
  784Sol     OW 6219   0.092   2.207   4.773 -0.0300  0.1839 -0.7554
  784Sol     HW 6220   0.095   2.285   4.827 -3.5601  0.8670 -1.4028
  784Sol     HW 6221   0.062   2.137   4.832  1.1073 -0.2181 -0.6507
  784Sol     MW 6222   0.089   2.208   4.783 -0.2648 -0.2636 -0.7055
  785Sol     OW 6223   1.169   1.181   6.028 -0.1473  0.0445 -0.1294
  785Sol     HW 6224   1.259   1.196   5.998  0.4996  1.6676  2.3898
  785Sol     HW 6225   1.137   1.269   6.050 -2.6715 -0.4218 -1.7587
  785Sol     MW 6226   1.174   1.190   6.027 -0.1294  0.6968 -0.1957
  786Sol     OW 6227   2.749   3.362   7.522  0.1980 -0.2993  0.4467
  786Sol     HW 6228   2.721   3.425   7.456 -0.7732 -0.5112  0.6574
  786Sol     HW 6229   2.816   3.409   7.573 -1.4921  1.0456  1.4822
  786Sol     MW 6230   2.753   3.372   7.521  0.2668 -0.0507  0.0526
  787Sol     OW 6231   2.318   3.420   4.793 -0.2668  0.3542  0.5370
  787Sol     HW 6232   2.396   3.475   4.784  0.7749 -0.8202  2.0989
  787Sol     HW 6233   2.346   3.347   4.848 -2.4496 -0.1641  1.0144
  787Sol     MW 6234   2.328   3.418   4.797 -0.1434  0.5489 -0.5810
  788Sol     OW 6235   0.533   1.338   3.301  0.7436 -0.3323 -0.1884
  788Sol     HW 6236   0.517   1.415   3.246  3.9388  1.7469  1.6437
  788Sol     HW 6237   0.492   1.359   3.385  0.6836 -1.1094 -0.0172
  788Sol     MW 6238   0.528   1.347   3.304  0.6512 -0.0462  0.1548
  789Sol     OW 6239   1.453   2.281   8.442 -0.5113  0.0198 -0.8416
  789Sol     HW 6240   1.464   2.325   8.526 -0.4739  2.6720 -2.1884
  789Sol     HW 6241   1.401   2.203   8.463 -0.4625  0.6001  1.6355
  789Sol     MW 6242   1.449   2.278   8.452  0.1734  0.3870  0.2004
  790Sol     OW 6243   3.251   2.162   8.420 -0.2322  0.0268 -0.2823
  790Sol     HW 6244   3.283   2.117   8.498 -2.1144 -0.6925  0.0859
  790Sol     HW 6245   3.259   2.098   8.350 -2.9727 -0.9563  0.2550
  790Sol     MW 6246   3.255   2.153   8.421  0.4310 -0.2032  0.2480
  791Sol     OW 6247   2.637   2.486   4.930  0.2714  0.4319  0.1730
  791Sol     HW 6248   2.599   2.450   4.850  1.1897  1.1704 -0.6132
  791Sol     HW 6249   2.722   2.520   4.903  1.6847 -1.5036  1.9409
  791Sol     MW 6250   2.642   2.486   4.921 -0.1117 -0.2383 -0.6982
  792Sol     OW 6251   2.379   3.164   3.643  0.9080 -0.0178  0.0929
  792Sol     HW 6252   2.333   3.140   3.562 -0.9663  0.0450  1.1165
  792Sol     HW 6253   2.340   3.109   3.710  1.7251  0.6863  1.1636
  792Sol     MW 6254   2.372   3.157   3.641  0.3738 -0.3578  0.6402
  793Sol     OW 6255   2.727   3.294   4.898 -0.0446  0.2511 -0.1785
  793Sol     HW 6256   2.765   3.213   4.863  0.3744  0.7637 -0.9344
  793Sol     HW 6257   2.633   3.277   4.901  0.1521 -0.7243  0.8980
  793Sol     MW 6258   2.722   3.285   4.895 -0.3891 -0.0384  0.5779
  794Sol     OW 6259   0.870   3.369   2.418  0.5203 -0.2520 -0.4628
  794Sol     HW 6260   0.908   3.322   2.345 -0.0555 -0.7243 -0.4653
  794Sol     HW 6261   0.881   3.311   2.493 -0.6457 -0.6210 -0.5648
  794Sol     MW 6262   0.874   3.360   2.418  0.2556 -0.0759 -0.0757
  795Sol     OW 6263   1.985   2.058   7.625 -0.3010 -0.0250  0.2168
  795Sol     HW 6264   1.997   2.151   7.604 -2.9855  0.8024  2.0576
  795Sol     HW 6265   2.069   2.018   7.605  0.2789  2.3993 -2.6881
  795Sol     MW 6266   1.994   2.063   7.621  0.1618 -0.3184 -0.0935
  796Sol     OW 6267   1.336   1.204   7.175  0.0563  0.0700  0.0273
  796Sol     HW 6268   1.431   1.199   7.160 -0.0732  0.2696 -0.8950
  796Sol     HW 6269   1.327   1.254   7.256  0.7495 -0.1931  0.2709
  796Sol     MW 6270   1.344   1.208   7.181  0.3649  0.0661  0.5841
  797Sol     OW 6271   0.262   0.696   8.884 -0.0960 -0.1430 -0.3268
  797Sol     HW 6272   0.177   0.676   8.924 -0.0726 -1.4928 -0.9393
  797Sol     HW 6273   0.259   0.653   8.799  1.3583 -0.5230 -0.1875
  797Sol     MW 6274   0.254   0.690   8.880  0.6140 -0.3448  0.0053
  798Sol     OW 6275   0.079   1.680   9.226 -0.7857 -0.4124  0.8561
  798Sol     HW 6276   0.128   1.733   9.163 -0.7243 -0.3895  0.9221
  798Sol     HW 6277   0.146   1.628   9.270 -0.5561  1.1807  2.4449
  798Sol     MW 6278   0.090   1.680   9.224  0.1092  0.6265  0.6741
  799Sol     OW 6279   0.223   3.288   1.588  0.1883 -0.0306 -0.0947
  799Sol     HW 6280   0.280   3.212   1.595  1.6567  1.1337  1.1172
  799Sol     HW 6281   0.283   3.363   1.592 -1.4067  1.2115  1.0933
  799Sol     MW 6282   0.233   3.288   1.589 -0.2589  0.4669 -0.0830
  800Sol     OW 6283   0.741   1.236   2.491 -0.3075 -0.5686  0.1906
  800Sol     HW 6284   0.695   1.161   2.453  0.9863 -1.1016 -0.3922
  800Sol     HW 6285   0.680   1.309   2.482 -0.7693 -1.1020 -1.2201
  800Sol     MW 6286   0.732   1.236   2.486 -0.2446 -0.0427  0.1040
  801Sol     OW 6287   0.430   1.135   5.198 -0.2021 -0.1529  0.0323
  801Sol     HW 6288   0.344   1.167   5.170  1.1504  1.7063 -2.1256
  801Sol     HW 6289   0.462   1.203   5.258  0.2031 -0.3428  0.0311
  801Sol     MW 6290   0.425   1.144   5.201  0.0322 -0.0258 -0.2336
  802Sol     OW 6291   1.167   1.978   5.577 -0.6399 -0.4611 -0.1635
  802Sol     HW 6292   1.250   1.970   5.623 -0.4355  2.9799  0.1729
  802Sol     HW 6293   1.102   1.944   5.639  0.4101 -2.7860 -0.2807
  802Sol     MW 6294   1.168   1.974   5.587 -0.2147  0.4424  0.0015
  803Sol     OW 6295   2.859   2.494   1.884  0.4621 -0.1958 -0.0964
  803Sol     HW 6296   2.928   2.558   1.898  0.1895 -0.1538  1.0712
  803Sol     HW 6297   2.900   2.410   1.904  0.3644 -0.2336 -0.0550
  803Sol     MW 6298   2.869   2.492   1.887 -0.4421 -0.1460 -0.5681
  804Sol     OW 6299   3.276   2.550   4.500  0.0543 -0.1735  0.3083
  804Sol     HW 6300   3.308   2.557   4.410  0.4223  2.1472  0.5840
  804Sol     HW 6301   3.334   2.486   4.541  0.6964 -0.2857 -0.7463
  804Sol     MW 6302   3.284   2.545   4.495  0.1943 -0.1061 -0.4309
  805Sol     OW 6303   0.974   1.191   9.044  0.2169  0.3755  0.1691
  805Sol     HW 6304   0.885   1.189   9.010  0.2411  0.4084  0.1025
  805Sol     HW 6305   0.970   1.142   9.126  0.0396  0.7658  0.3954
  805Sol     MW 6306   0.966   1.187   9.048 -0.1444  0.3242  0.1955
  806Sol     OW 6307   0.141   0.544   3.362  0.0995  0.1642  0.3035
  806Sol     HW 6308   0.195   0.525   3.285 -0.8921  0.4199 -0.4646
  806Sol     HW 6309   0.195   0.517   3.436  0.0855 -2.4431 -0.5801
  806Sol     MW 6310   0.151   0.540   3.361 -0.2414  1.0515  0.6632
  807Sol     OW 6311   2.464   0.506   1.517 -0.1212  0.2260 -0.3442
  807Sol     HW 6312   2.539   0.447   1.512  0.1257  0.7030 -2.7958
  807Sol     HW 6313   2.431   0.494   1.606  2.5293 -0.3730  0.6213
  807Sol     MW 6314   2.468   0.499   1.525 -0.1198 -0.0316 -0.4898
  808Sol     OW 6315   2.321   3.231   2.762  0.2649 -0.2485  0.1848
  808Sol     HW 6316   2.347   3.185   2.683  1.4092  0.7871 -0.0537
  808Sol     HW 6317   2.275   3.165   2.814  1.9443 -1.6639 -0.1008
  808Sol     MW 6318   2.319   3.221   2.759  0.4769  0.4530  0.0384
  809Sol     OW 6319   2.434   0.897   7.918  0.4193 -0.3066  0.0456
  809Sol     HW 6320   2.397   0.985   7.913  1.3554  0.0643 -0.3173
  809Sol     HW 6321   2.443   0.881   8.012  1.2062  0.3824  0.0885
  809Sol     MW 6322   2.431   0.903   7.926 -0.0381  0.0240 -0.0956
  810Sol     OW 6323   3.129   2.098   3.248 -0.2608 -0.1810 -0.7622
  810Sol     HW 6324   3.161   2.019   3.293 -0.5955  0.3292  0.3743
  810Sol     HW 6325   3.125   2.072   3.155  1.6538 -0.8515 -0.6918
  810Sol     MW 6326   3.132   2.088   3.243 -0.5669 -0.0405 -0.5049
  811Sol     OW 6327   2.659   1.969   4.666 -0.1162 -0.0154 -0.5730
  811Sol     HW 6328   2.746   1.931   4.666 -0.1457 -0.0867 -0.1541
  811Sol     HW 6329   2.600   1.894   4.656 -0.1904 -0.1256  0.6115
  811Sol     MW 6330   2.661   1.959   4.665  0.0350 -0.1170 -0.1088
  812Sol     OW 6331   1.562   0.051   7.830  0.2697 -0.5065 -0.0490
  812Sol     HW 6332   1.639   0.088   7.871  0.5090 -1.1017  0.0428
  812Sol     HW 6333   1.509   0.019   7.903 -0.4706  0.6722 -0.0579
  812Sol     MW 6334   1.564   0.051   7.840  0.5784  0.1722  0.2570
  813Sol     OW 6335   2.572   1.028   1.800  0.1485 -0.2041 -0.2141
  813Sol     HW 6336   2.649   1.015   1.855 -1.2864 -2.7777  1.3030
  813Sol     HW 6337   2.592   0.980   1.720  0.2767 -0.5724  0.0354
  813Sol     MW 6338   2.581   1.022   1.798 -0.1850 -0.2617 -0.1641
  814Sol     OW 6339   1.577   1.468   6.981 -0.2481 -0.0039 -0.0977
  814Sol     HW 6340   1.485   1.445   6.972  0.0429 -0.8385 -0.9829
  814Sol     HW 6341   1.593   1.532   6.911 -0.1143  0.0250 -0.0409
  814Sol     MW 6342   1.570   1.472   6.974  0.7829  0.1457 -0.1290
  815Sol     OW 6343   1.816   2.702   5.473  0.0951 -0.0159 -0.0223
  815Sol     HW 6344   1.768   2.785   5.473  0.0140 -0.0632 -0.3619
  815Sol     HW 6345   1.764   2.645   5.530  0.6378  0.4462  0.9488
  815Sol     MW 6346   1.807   2.704   5.478 -0.0356  0.2492  0.1199
  816Sol     OW 6347   1.584   2.948   8.638  0.0932  0.1030  0.1234
  816Sol     HW 6348   1.519   2.937   8.569  0.3595  0.9943 -0.2823
  816Sol     HW 6349   1.616   3.037   8.626  1.4096 -0.3394  0.3075
  816Sol     MW 6350   1.581   2.955   8.631 -0.4672  0.0878 -0.7617
  817Sol     OW 6351   2.328   3.184   8.051  0.7636 -0.1928 -0.0729
  817Sol     HW 6352   2.316   3.145   7.964 -0.0200 -0.6807  0.2519
  817Sol     HW 6353   2.317   3.111   8.112  1.4275  0.1244  0.4416
  817Sol     MW 6354   2.326   3.174   8.048 -0.0532 -0.3373 -0.1927
  818Sol     OW 6355   3.320   3.051   5.132 -0.2316 -0.0574 -0.3744
  818Sol     HW 6356   3.387   2.984   5.119  0.6356  0.6702  0.2989
  818Sol     HW 6357   3.251   3.007   5.182 -0.6000 -1.0153 -1.7056
  818Sol     MW 6358   3.320   3.041   5.135  0.1319 -0.2488  0.2455
  819Sol     OW 6359   1.429   0.370   9.529 -0.0241  0.2436  0.3331
  819Sol     HW 6360   1.499   0.309   9.508 -0.9788 -1.1156  0.9745
  819Sol     HW 6361   1.406   0.411   9.446  0.7781 -0.1129 -0.0650
  819Sol     MW 6362   1.433   0.369   9.520  0.5783 -0.3978  0.4425
  820Sol     OW 6363   1.941   3.180   2.337  0.0957  0.0211 -0.1623
  820Sol     HW 6364   1.955   3.123   2.413 -3.2128 -0.1034  0.4285
  820Sol     HW 6365   1.900   3.258   2.373 -0.9942  0.1998 -1.7305
  820Sol     MW 6366   1.939   3.182   2.347  0.4129  0.1914  0.4490
  821Sol     OW 6367   3.265   1.009   7.617  0.1458  0.2034 -0.0253
  821Sol     HW 6368   3.279   1.056   7.535 -1.4612 -0.7683 -0.8780
  821Sol     HW 6369   3.281   0.917   7.595  0.9851  0.0748  1.0725
  821Sol     MW 6370   3.268   1.005   7.607 -0.0615  0.2717 -0.0759
  822Sol     OW 6371   1.495   3.297   7.650 -0.1287  0.1199 -1.0009
  822Sol     HW 6372   1.517   3.366   7.712  0.2914 -0.0553 -0.9503
  822Sol     HW 6373   1.461   3.343   7.573  1.9190  0.4985 -1.7144
  822Sol     MW 6374   1.494   3.307   7.649  0.6565 -0.5797  0.1585
  823Sol     OW 6375   1.791   2.658   4.495 -0.2361 -0.2581 -0.7744
  823Sol     HW 6376   1.812   2.748   4.518  1.7809 -0.8934 -0.0782
  823Sol     HW 6377   1.849   2.638   4.422 -1.0002 -0.8684 -1.2264
  823Sol     MW 6378   1.798   2.664   4.490  0.3219 -0.0743  0.4294
  824Sol     OW 6379   1.404   2.602   5.579 -0.4692  0.0250 -0.3311
  824Sol     HW 6380   1.385   2.574   5.489  0.4081 -0.9349 -0.2315
  824Sol     HW 6381   1.476   2.545   5.607 -0.9062  0.1383  1.0669
  824Sol     MW 6382   1.408   2.594   5.574 -0.0300  0.5026 -0.7896
  825Sol     OW 6383   1.124   2.222   5.435  0.3455 -0.3025  0.1719
  825Sol     HW 6384   1.172   2.229   5.353 -0.6909  0.3274 -0.4016
  825Sol     HW 6385   1.160   2.145   5.478 -0.8590 -2.1801 -2.0527
  825Sol     MW 6386   1.132   2.216   5.432 -0.0405 -0.0678 -0.0363
  826Sol     OW 6387   1.070   1.532   2.584 -0.6519 -0.3317  0.3150
  826Sol     HW 6388   1.109   1.608   2.540 -2.5924 -0.0824 -1.0637
  826Sol     HW 6389   1.126   1.516   2.659  0.3326  1.8978  0.0899
  826Sol     MW 6390   1.078   1.538   2.587  0.5823  0.0720  0.3739
  827Sol     OW 6391   1.521   0.341   2.560  0.4234 -0.5395 -0.1320
  827Sol     HW 6392   1.508   0.292   2.641 -0.3589  2.5728  1.6989
  827Sol     HW 6393   1.607   0.382   2.571  0.1374  0.2123 -0.6874
  827Sol     MW 6394   1.528   0.340   2.568 -0.6087 -0.2132  0.2975
  828Sol     OW 6395   2.097   0.432   3.079  0.3283 -0.6473  0.1165
  828Sol     HW 6396   2.090   0.517   3.123 -0.1655  0.0703 -1.2989
  828Sol     HW 6397   2.180   0.436   3.031  0.0198 -0.7136 -0.4331
  828Sol     MW 6398   2.103   0.440   3.079 -0.0204 -0.1804 -0.5705
  829Sol     OW 6399   1.448   3.218   5.713  0.0917  0.1336 -0.1323
  829Sol     HW 6400   1.399   3.300   5.725 -0.2764 -0.4539  2.9054
  829Sol     HW 6401   1.380   3.151   5.702  0.3174 -0.1312  0.0851
  829Sol     MW 6402   1.437   3.219   5.713  0.6403 -0.6332 -0.1447
  830Sol     OW 6403   1.135   0.349   2.778  0.1712  0.1376  0.3196
  830Sol     HW 6404   1.125   0.443   2.767 -0.9626 -0.1037 -0.8800
  830Sol     HW 6405   1.065   0.324   2.838 -0.0666 -0.0659 -0.0407
  830Sol     MW 6406   1.128   0.355   2.783 -0.4980  0.2780 -0.1079
  831Sol     OW 6407   3.129   2.516   5.880 -0.8099 -0.1048 -0.1905
  831Sol     HW 6408   3.178   2.594   5.905 -3.2850  1.1562  0.8842
  831Sol     HW 6409   3.195   2.447   5.873  1.0152  1.3557  1.9653
  831Sol     MW 6410   3.139   2.517   5.882 -0.2596 -0.3224  0.0417
  832Sol     OW 6411   1.083   3.166   8.674 -0.0220  0.8986 -0.3383
  832Sol     HW 6412   1.111   3.204   8.758  1.5047 -0.1029 -0.3797
  832Sol     HW 6413   1.113   3.228   8.608 -0.0592  1.0352 -0.2275
  832Sol     MW 6414   1.088   3.175   8.676  0.0517  0.2722  0.3169
  833Sol     OW 6415   0.731   0.942   3.046  0.0100  0.0783  0.2186
  833Sol     HW 6416   0.662   0.877   3.045 -1.3454  1.5095 -0.2880
  833Sol     HW 6417   0.699   1.010   3.105  1.3780  0.3503  0.6768
  833Sol     MW 6418   0.722   0.942   3.051 -0.7934  0.4199 -0.5211
  834Sol     OW 6419   3.107   0.702   2.176  0.2030 -0.0658  0.8465
  834Sol     HW 6420   3.058   0.644   2.234 -0.7568 -0.0249  0.0897
  834Sol     HW 6421   3.164   0.643   2.127  0.0545 -0.2459  0.8855
  834Sol     MW 6422   3.108   0.691   2.177 -0.0133  0.8067 -0.0911
  835Sol     OW 6423   1.500   2.679   8.409 -0.2421  0.3866 -0.6558
  835Sol     HW 6424   1.574   2.649   8.357 -0.9843  1.2457 -2.2501
  835Sol     HW 6425   1.431   2.615   8.392 -1.1604  1.8141 -2.4178
  835Sol     MW 6426   1.501   2.671   8.403 -0.3257 -0.5902  0.4423
  836Sol     OW 6427   3.066   0.095   6.231  0.2798  0.0673  0.0865
  836Sol     HW 6428   3.006   0.096   6.306 -1.7362  1.0689 -1.5003
  836Sol     HW 6429   3.103   0.184   6.229 -1.5835  0.8245 -1.5869
  836Sol     MW 6430   3.064   0.103   6.238 -0.2616  0.1109 -0.1760
  837Sol     OW 6431   0.473   2.761   6.143  0.2074  0.0009  0.0873
  837Sol     HW 6432   0.401   2.761   6.080 -0.7025 -0.0407  1.1145
  837Sol     HW 6433   0.534   2.694   6.110 -0.3837 -0.2026 -0.6015
  837Sol     MW 6434   0.472   2.755   6.134 -0.1716 -0.3196  0.1498
  838Sol     OW 6435   2.189   3.131   3.415 -0.3442 -0.1647 -0.5448
  838Sol     HW 6436   2.204   3.129   3.321  1.3206 -0.2119 -0.3094
  838Sol     HW 6437   2.142   3.212   3.431  0.1680  0.2883 -1.3168
  838Sol     MW 6438   2.186   3.138   3.408  0.3670 -0.4546 -0.6041
  839Sol     OW 6439   1.281   1.008   9.266 -0.4820 -0.4066  0.0639
  839Sol     HW 6440   1.187   0.992   9.274 -0.7768  0.9266 -0.6258
  839Sol     HW 6441   1.296   1.088   9.316  0.0958  0.0190 -0.7790
  839Sol     MW 6442   1.274   1.013   9.272  0.0528  0.5101 -0.6738
  840Sol     OW 6443   2.690   0.280   6.137 -0.7524  0.3836 -0.4048
  840Sol     HW 6444   2.628   0.292   6.065 -0.0436 -0.1378 -1.1095
  840Sol     HW 6445   2.638   0.296   6.216 -1.5983  0.7017 -1.0163
  840Sol     MW 6446   2.680   0.282   6.138  0.1377  0.6619 -0.6725
  841Sol     OW 6447   2.212   2.073   3.548 -0.0422 -0.0379  0.3284
  841Sol     HW 6448   2.137   2.095   3.603  0.4772  2.5074  0.0920
  841Sol     HW 6449   2.285   2.061   3.609 -0.3643 -1.3800  0.4707
  841Sol     MW 6450   2.212   2.074   3.558  0.2439 -0.4761  0.2427
  842Sol     OW 6451   1.705   0.683   4.337 -0.2775 -0.2144 -0.5552
  842Sol     HW 6452   1.689   0.751   4.402  2.5519  0.2336 -0.2463
  842Sol     HW 6453   1.619   0.661   4.303 -1.6364  0.7582  2.1210
  842Sol     MW 6454   1.696   0.687   4.340 -0.7041  0.5563  0.1222
  843Sol     OW 6455   0.612   0.394   7.373 -0.3266 -0.7530  0.3080
  843Sol     HW 6456   0.601   0.454   7.299 -0.3576 -1.5309 -0.3192
  843Sol     HW 6457   0.629   0.451   7.447 -0.7594  0.0627 -0.2128
  843Sol     MW 6458   0.612   0.404   7.373 -0.0860 -0.1054  0.6212
  844Sol     OW 6459   2.013   2.171   5.741 -0.7187 -0.6479  0.5860
  844Sol     HW 6460   2.013   2.172   5.645 -0.2728 -1.9356  0.5633
  844Sol     HW 6461   1.998   2.263   5.766 -2.3150 -0.5157 -0.7174
  844Sol     MW 6462   2.011   2.180   5.735  0.5205 -0.0334 -0.3675
  845Sol     OW 6463   1.034   2.413   7.270  0.2975  0.9842  0.0325
  845Sol     HW 6464   0.996   2.364   7.198  1.7878 -0.4964  0.2330
  845Sol     HW 6465   1.079   2.347   7.323  0.7029  2.2968  1.3562
  845Sol     MW 6466   1.035   2.403   7.269 -0.1731  0.1758  0.1213
  846Sol     OW 6467   1.075   3.248   3.671 -0.8014  0.0168  0.3583
  846Sol     HW 6468   1.100   3.336   3.700  0.6731 -0.4188  0.4392
  846Sol     HW 6469   1.059   3.257   3.577  0.4367  0.1486  0.1507
  846Sol     MW 6470   1.076   3.257   3.666  0.1061 -1.0275 -0.0377
  847Sol     OW 6471   0.494   2.946   6.498 -0.4764 -0.4295 -0.1227
  847Sol     HW 6472   0.447   2.886   6.441 -0.2762  0.5244 -1.3145
  847Sol     HW 6473   0.583   2.948   6.463 -0.2907 -0.0208  0.3640
  847Sol     MW 6474   0.498   2.941   6.490 -0.5352 -0.0965 -0.9606
  848Sol     OW 6475   1.319   1.705   6.456  0.2868 -0.1265  0.3308
  848Sol     HW 6476   1.414   1.705   6.471  0.2163  0.2793  0.8003
  848Sol     HW 6477   1.286   1.631   6.509  0.7720 -2.6796 -2.7841
  848Sol     MW 6478   1.325   1.698   6.462 -0.2748  0.4921 -0.1001
  849Sol     OW 6479   2.350   1.427   2.109 -0.0501  0.0975 -0.3008
  849Sol     HW 6480   2.385   1.464   2.190  2.2745  1.7838 -1.9946
  849Sol     HW 6481   2.388   1.338   2.106  0.2620  0.2095  0.2267
  849Sol     MW 6482   2.357   1.422   2.116 -0.7794  0.7934 -0.1718
  850Sol     OW 6483   1.595   0.455   2.927 -0.1929 -0.4738 -0.3294
  850Sol     HW 6484   1.548   0.372   2.924  1.2921 -1.3733  0.7425
  850Sol     HW 6485   1.684   0.431   2.953  0.4137  1.3871 -0.6350
  850Sol     MW 6486   1.599   0.445   2.929  0.1135 -0.2945 -0.2780
  851Sol     OW 6487   1.001   2.742   7.709 -0.0704  0.0509 -0.2504
  851Sol     HW 6488   0.968   2.772   7.625 -0.1803 -0.3888 -0.3625
  851Sol     HW 6489   1.090   2.711   7.692  0.6782  1.8848  0.1808
  851Sol     MW 6490   1.006   2.742   7.700  0.0960 -0.3531  0.1858
  852Sol     OW 6491   0.312   1.870   2.926  0.1282 -0.3768 -0.0638
  852Sol     HW 6492   0.254   1.835   2.993 -2.0522  0.3934 -1.5093
  852Sol     HW 6493   0.374   1.924   2.975 -2.7199  1.8893  1.1851
  852Sol     MW 6494   0.312   1.872   2.937  0.4381 -0.2212  0.0738
  853Sol     OW 6495   1.717   2.190   5.385  0.2409 -0.3848  0.1443
  853Sol     HW 6496   1.709   2.278   5.350 -1.2358 -0.0542  1.2721
  853Sol     HW 6497   1.808   2.186   5.417  0.5394  0.4613 -0.5727
  853Sol     MW 6498   1.725   2.197   5.385 -0.0592 -0.1100  0.0685
  854Sol     OW 6499   0.136   1.118   8.702 -0.1535  0.0871 -0.8597
  854Sol     HW 6500   0.219   1.071   8.716 -0.8035 -0.6237  0.7953
  854Sol     HW 6501   0.117   1.158   8.787 -0.8608  1.3109 -1.5900
  854Sol     MW 6502   0.142   1.117   8.711 -0.0548 -0.8965 -0.3856
  855Sol     OW 6503   0.084   3.130   8.333 -0.1167 -0.4531  0.4511
  855Sol     HW 6504   0.099   3.074   8.257 -1.9711 -1.9108  1.1231
  855Sol     HW 6505   0.122   3.082   8.406  3.0923  1.6585  0.3005
  855Sol     MW 6506   0.089   3.121   8.333  0.5021 -0.4192 -0.8285
  856Sol     OW 6507   0.590   0.694   5.230  0.8187 -0.5902 -0.0809
  856Sol     HW 6508   0.548   0.611   5.252 -0.4076 -0.4117 -1.6772
  856Sol     HW 6509   0.564   0.754   5.300 -2.6736 -0.1396 -1.6559
  856Sol     MW 6510   0.584   0.692   5.239  0.5045 -0.3564  0.2507
  857Sol     OW 6511   1.351   1.661   5.633  0.1502  0.8411 -0.3402
  857Sol     HW 6512   1.391   1.748   5.636 -1.2553  1.5209 -0.8436
  857Sol     HW 6513   1.383   1.623   5.551 -0.0923  1.3174 -0.6634
  857Sol     MW 6514   1.357   1.666   5.626 -0.3891  0.1519  0.2138
  858Sol     OW 6515   3.048   1.829   8.860  0.1347 -0.2069  0.3128
  858Sol     HW 6516   3.094   1.755   8.822  0.4699 -0.0518  0.4162
  858Sol     HW 6517   3.012   1.795   8.942 -0.1800 -0.4062  0.0911
  858Sol     MW 6518   3.049   1.820   8.864  0.6658  0.2239 -0.0918
  859Sol     OW 6519   1.233   0.338   2.514 -0.2260  0.0713  0.6996
  859Sol     HW 6520   1.197   0.333   2.602 -0.6228  0.9844  0.5943
  859Sol     HW 6521   1.327   0.347   2.527 -0.0942 -1.7003  0.9903
  859Sol     MW 6522   1.238   0.339   2.523  0.1462  0.5389  0.0875
  860Sol     OW 6523   3.057   2.466   3.328 -0.0106 -0.6193 -0.2433
  860Sol     HW 6524   3.125   2.419   3.377 -1.1261 -0.1670  1.7699
  860Sol     HW 6525   3.022   2.530   3.390 -1.6842 -0.2586 -1.5323
  860Sol     MW 6526   3.060   2.467   3.338  0.6069 -0.0947  0.0446
  861Sol     OW 6527   3.120   1.941   7.982 -0.2613  0.1806  0.0580
  861Sol     HW 6528   3.116   1.877   7.911 -0.7209  1.0095 -0.6683
  861Sol     HW 6529   3.213   1.964   7.987 -0.0958 -0.5184  0.3084
  861Sol     MW 6530   3.128   1.937   7.976 -0.1419  0.7599 -0.3518
  862Sol     OW 6531   2.868   2.418   9.523  0.0904 -0.5081 -0.1124
  862Sol     HW 6532   2.907   2.348   9.471  1.0510  1.2039 -1.7380
  862Sol     HW 6533   2.927   2.492   9.512 -1.9974  1.2053 -0.1115
  862Sol     MW 6534   2.877   2.418   9.517  0.4178 -0.0906 -0.1711
  863Sol     OW 6535   0.015   3.224   4.104 -0.3955  0.2113  0.0207
  863Sol     HW 6536   0.005   3.160   4.174  0.4776  0.5287  0.4409
  863Sol     HW 6537  -0.067   3.218   4.054 -1.4304  0.6525  1.6193
  863Sol     MW 6538   0.007   3.218   4.106 -0.0115 -0.4782 -0.3775
  864Sol     OW 6539   2.424   3.402   3.763 -0.3077  0.9929  0.1283
  864Sol     HW 6540   2.339   3.416   3.804 -0.8822  0.3066 -0.7991
  864Sol     HW 6541   2.415   3.318   3.717  0.4359  1.5727 -1.0870
  864Sol     MW 6542   2.416   3.395   3.763  0.2146 -0.1989  0.0038
  865Sol     OW 6543   0.369   1.944   2.127  0.3216  0.2190  0.3040
  865Sol     HW 6544   0.446   1.958   2.071 -0.8891  0.0544 -1.4268
  865Sol     HW 6545   0.298   1.989   2.081 -0.8794 -0.6841  1.2653
  865Sol     MW 6546   0.370   1.950   2.118  0.0647  0.0160 -0.6673
  866Sol     OW 6547   0.831   0.589   3.186  0.1512  0.2684 -0.3624
  866Sol     HW 6548   0.908   0.532   3.194  1.8514  2.2582 -1.7091
  866Sol     HW 6549   0.852   0.645   3.111 -1.3907  2.7219  0.9858
  866Sol     MW 6550   0.840   0.589   3.180  0.8083 -0.6443  0.8809
  867Sol     OW 6551   0.791   3.213   3.202 -0.0329  0.2602  0.0376
  867Sol     HW 6552   0.820   3.206   3.293  1.9263  0.9539 -0.5151
  867Sol     HW 6553   0.866   3.249   3.156 -0.8034 -0.6932 -1.9855
  867Sol     MW 6554   0.800   3.216   3.206  0.0254  0.0275 -0.0196
  868Sol     OW 6555   2.241   3.051   1.302 -0.3645 -0.2651  0.3868
  868Sol     HW 6556   2.251   3.098   1.219  0.3741  0.1149  0.6900
  868Sol     HW 6557   2.249   3.119   1.369  0.0629 -0.7256  0.8049
  868Sol     MW 6558   2.242   3.062   1.301  0.2106  0.1689  0.6564
  869Sol     OW 6559   0.709   3.277   6.329 -0.3343  0.0728  0.6307
  869Sol     HW 6560   0.620   3.311   6.334 -0.4333 -0.1312  0.2781
  869Sol     HW 6561   0.764   3.356   6.329 -0.6578  0.3805 -2.4182
  869Sol     MW 6562   0.706   3.288   6.329  0.2879  0.6596 -0.1697
  870Sol     OW 6563   0.004   2.569   4.243  0.2612  0.3474 -0.2618
  870Sol     HW 6564  -0.080   2.596   4.206  0.0333  0.4322  0.3106
  870Sol     HW 6565   0.015   2.478   4.215 -0.4567  0.0477  0.4257
  870Sol     MW 6566  -0.002   2.563   4.237 -0.6611 -0.1359  0.0421
  871Sol     OW 6567   1.704   0.052   8.451 -0.1667  0.1089 -0.2500
  871Sol     HW 6568   1.735   0.035   8.362 -0.5748 -0.7742 -0.2287
  871Sol     HW 6569   1.615   0.086   8.439 -1.0867 -2.1540 -0.0954
  871Sol     MW 6570   1.698   0.053   8.442  0.1269 -0.1409 -0.1667
  872Sol     OW 6571   1.958   1.855   9.086 -0.2830  0.0938  0.1914
  872Sol     HW 6572   1.905   1.878   9.163  1.5640  2.3259  0.8683
  872Sol     HW 6573   1.982   1.763   9.100 -1.4481 -0.0358  1.3936
  872Sol     MW 6574   1.956   1.849   9.094  0.2738 -0.0466 -0.5898
  873Sol     OW 6575   3.290   2.292   5.890 -0.0450 -0.2627  0.3397
  873Sol     HW 6576   3.343   2.271   5.967  0.6372 -0.3620 -0.1509
  873Sol     HW 6577   3.238   2.213   5.875 -0.0215 -0.3218  0.5682
  873Sol     MW 6578   3.290   2.283   5.896 -0.2333  0.1152 -0.8509
  874Sol     OW 6579   0.173   0.724   2.045 -0.4688 -0.4660  0.3836
  874Sol     HW 6580   0.123   0.644   2.029  0.8801 -1.4254  0.8666
  874Sol     HW 6581   0.108   0.788   2.074 -1.1802 -2.2390  2.8523
  874Sol     MW 6582   0.163   0.723   2.046  0.2519  0.8050  0.1174
  875Sol     OW 6583   1.528   2.231   7.990 -0.1563 -0.0996  0.1341
  875Sol     HW 6584   1.437   2.230   8.022 -0.1971  0.2120  0.0294
  875Sol     HW 6585   1.580   2.256   8.067 -0.0562 -1.2644  0.4477
  875Sol     MW 6586   1.524   2.234   8.000  0.3202 -0.0973 -0.1641
  876Sol     OW 6587   0.317   1.865   4.672  0.1954 -0.3008 -0.2291
  876Sol     HW 6588   0.324   1.856   4.768  0.5970  0.8946 -0.1339
  876Sol     HW 6589   0.223   1.868   4.655  0.1172 -0.8168  0.1004
  876Sol     MW 6590   0.310   1.865   4.679  0.2278 -0.5044  0.3732
  877Sol     OW 6591   2.735   2.700   3.349  0.1111  0.2594  0.1054
  877Sol     HW 6592   2.656   2.656   3.381  1.1692 -0.8511  1.2072
  877Sol     HW 6593   2.721   2.707   3.254 -1.7205  0.9094  0.4124
  877Sol     MW 6594   2.727   2.696   3.343 -0.3582 -0.0108 -0.7751
  878Sol     OW 6595   1.789   0.439   9.171 -0.2634  0.3641 -0.4842
  878Sol     HW 6596   1.882   0.443   9.150 -0.3551 -0.8004 -1.1410
  878Sol     HW 6597   1.746   0.489   9.101 -0.3377 -1.2767 -1.6451
  878Sol     MW 6598   1.793   0.444   9.163 -0.2272  0.0639  0.0759
  879Sol     OW 6599   0.556   2.921   4.777 -0.0391 -0.3758  0.2723
  879Sol     HW 6600   0.619   2.849   4.773 -0.7775 -1.0193  0.0827
  879Sol     HW 6601   0.595   2.991   4.725  0.5733 -0.7233  0.2664
  879Sol     MW 6602   0.565   2.921   4.772 -0.2554 -0.2587 -0.2141
  880Sol     OW 6603   0.265   1.086   5.567  0.1229  0.2687  0.0342
  880Sol     HW 6604   0.299   1.076   5.478 -1.7368  0.3389 -0.6974
  880Sol     HW 6605   0.341   1.071   5.623  1.1115 -0.7751 -1.5378
  880Sol     MW 6606   0.275   1.083   5.564  0.6459  0.1560 -0.8592
  881Sol     OW 6607   1.825   2.178   6.501  0.0528 -0.2485  0.2261
  881Sol     HW 6608   1.778   2.260   6.485 -1.7916 -1.4426 -0.6778
  881Sol     HW 6609   1.804   2.155   6.591 -1.2282 -0.8431 -0.2148
  881Sol     MW 6610   1.819   2.183   6.507 -0.0745 -0.3682 -0.0623
  882Sol     OW 6611   0.142   0.933   4.801  0.0767 -0.3262 -0.9105
  882Sol     HW 6612   0.219   0.912   4.749  1.5704 -0.1914  1.1931
  882Sol     HW 6613   0.128   0.856   4.856 -0.0808  0.4326  0.1256
  882Sol     MW 6614   0.147   0.925   4.801  0.5000 -0.3185  0.0643
  883Sol     OW 6615   1.258   0.412   4.035  0.2379 -0.2120 -0.0893
  883Sol     HW 6616   1.237   0.501   4.065 -3.2422 -0.1122 -2.5029
  883Sol     HW 6617   1.221   0.355   4.102  0.2422  0.1018  0.1827
  883Sol     MW 6618   1.253   0.415   4.043 -0.3719 -0.4189  0.0818
  884Sol     OW 6619   1.540   2.472   7.517  0.0792 -0.1047 -0.3604
  884Sol     HW 6620   1.516   2.446   7.605 -0.8854  1.6523 -0.0707
  884Sol     HW 6621   1.634   2.486   7.520  0.2450 -1.3176  0.0462
  884Sol     MW 6622   1.546   2.471   7.525  0.0599 -0.0456 -0.9520
  885Sol     OW 6623   3.248   3.350   8.212  0.0429 -0.5872 -0.4322
  885Sol     HW 6624   3.307   3.290   8.256 -1.0228  0.2897  2.2540
  885Sol     HW 6625   3.166   3.302   8.202 -0.3966 -0.0566  0.5354
  885Sol     MW 6626   3.246   3.341   8.215  0.1266  0.1853 -0.0821
  886Sol     OW 6627   0.308   2.136   6.035  0.5357  0.0328 -0.2451
  886Sol     HW 6628   0.306   2.109   5.943  0.4222 -0.4966 -0.0885
  886Sol     HW 6629   0.220   2.116   6.068  1.7463 -3.5036  1.0270
  886Sol     MW 6630   0.300   2.132   6.029 -1.2020  0.3763  0.1330
  887Sol     OW 6631   0.590   2.670   4.070  0.1540  0.2499 -0.5375
  887Sol     HW 6632   0.572   2.761   4.046 -1.1894 -0.1172 -1.0266
  887Sol     HW 6633   0.505   2.626   4.061  0.6038 -0.8700  0.5278
  887Sol     MW 6634   0.580   2.674   4.067 -0.4722  0.0173 -0.2802
  888Sol     OW 6635   0.046   2.230   6.133  0.2467 -0.0341 -0.8642
  888Sol     HW 6636  -0.040   2.198   6.160  0.7822  0.0886  1.0514
  888Sol     HW 6637   0.066   2.301   6.194  1.1718  0.7626 -2.0740
  888Sol     MW 6638   0.040   2.233   6.141  0.1327 -0.5519  0.3005
  889Sol     OW 6639   0.859   0.949   9.503 -0.2060 -0.5338  0.2024
  889Sol     HW 6640   0.794   0.929   9.435  0.1217 -1.6635  0.2148
  889Sol     HW 6641   0.920   0.875   9.501  0.9755  0.4151  0.3299
  889Sol     MW 6642   0.859   0.941   9.497 -0.1216  0.4309  0.9059
  890Sol     OW 6643   1.736   1.321   1.831  0.8141 -0.5767 -0.4939
  890Sol     HW 6644   1.755   1.414   1.816 -2.4140  0.2605  0.2921
  890Sol     HW 6645   1.708   1.289   1.745  0.1809 -0.3533 -0.3757
  890Sol     MW 6646   1.735   1.327   1.822 -0.2244 -0.5624 -0.0392
  891Sol     OW 6647   2.695   1.407   7.426 -0.1814 -0.3585  0.4297
  891Sol     HW 6648   2.765   1.453   7.380  1.4358 -0.8569  2.3402
  891Sol     HW 6649   2.629   1.475   7.443  0.0008  0.2006 -1.0024
  891Sol     MW 6650   2.696   1.417   7.424 -0.1793  0.0512  0.6392
  892Sol     OW 6651   2.412   2.692   7.327  0.0378 -0.3569  0.2040
  892Sol     HW 6652   2.329   2.707   7.281  0.4249  0.2818 -0.2958
  892Sol     HW 6653   2.450   2.616   7.283  2.4750  2.7943 -3.5583
  892Sol     MW 6654   2.408   2.687   7.319  0.6964  0.3403  0.4565
  893Sol     OW 6655   0.582   1.536   3.081 -0.0968 -0.0226 -0.0380
  893Sol     HW 6656   0.676   1.537   3.065  0.0662 -1.0966  0.7943
  893Sol     HW 6657   0.544   1.571   3.000  0.9013 -1.6587 -1.2447
  893Sol     MW 6658   0.587   1.539   3.072  0.1936 -0.0553  0.2591
  894Sol     OW 6659   1.313   1.026   4.064 -0.5410 -0.0695 -0.4167
  894Sol     HW 6660   1.274   0.974   3.994  0.6426 -0.1015 -1.0529
  894Sol     HW 6661   1.237   1.063   4.110 -1.4132 -2.3351  0.0653
  894Sol     MW 6662   1.302   1.025   4.062 -0.3783  0.0251 -0.0002
  895Sol     OW 6663   2.629   0.303   3.753  0.5388 -0.7807 -0.0351
  895Sol     HW 6664   2.597   0.241   3.687  2.9460  1.0061 -3.0057
  895Sol     HW 6665   2.615   0.389   3.713  0.6318  0.4248  2.4655
  895Sol     MW 6666   2.625   0.305   3.743 -0.5951 -0.3623  0.4801
  896Sol     OW 6667   0.797   3.318   8.256 -0.1158 -0.7311 -0.5341
  896Sol     HW 6668   0.814   3.403   8.217  0.7727 -0.6165  0.0838
  896Sol     HW 6669   0.710   3.294   8.225 -0.6548  0.7037 -0.1768
  896Sol     MW 6670   0.791   3.323   8.250  0.0551  0.0689 -0.2490
  897Sol     OW 6671   1.713   2.921   5.834 -0.0258 -0.4886  0.6927
  897Sol     HW 6672   1.770   2.845   5.848  0.7779 -0.5695 -2.6705
  897Sol     HW 6673   1.643   2.888   5.778 -0.6281  0.8497  0.6438
  897Sol     MW 6674   1.712   2.911   5.830 -0.1873 -0.0248 -0.5054
  898Sol     OW 6675   2.519   1.630   7.374 -0.0508  0.1460 -0.1886
  898Sol     HW 6676   2.447   1.579   7.336 -0.3911 -0.4798  1.2524
  898Sol     HW 6677   2.475   1.696   7.428  0.3106  3.2221 -3.4348
  898Sol     MW 6678   2.508   1.632   7.375  0.6211 -0.2061 -0.2068
  899Sol     OW 6679   1.559   0.691   6.329  0.0256 -0.1501 -0.2143
  899Sol     HW 6680   1.638   0.734   6.295  0.6795  0.0239  1.4651
  899Sol     HW 6681   1.567   0.600   6.299  0.9508 -0.1703  0.0753
  899Sol     MW 6682   1.567   0.686   6.323  0.4390 -0.4329  0.5638
  900Sol     OW 6683   1.239   0.068   9.205  0.6994 -0.0543  0.2634
  900Sol     HW 6684   1.298   0.105   9.139  0.6315 -0.4379 -0.0183
  900Sol     HW 6685   1.173   0.135   9.218  0.7222  0.0333 -0.0512
  900Sol     MW 6686   1.239   0.077   9.200  0.1481  0.4008 -0.5970
  901Sol     OW 6687   1.820   3.045   7.153 -0.3196 -0.2118 -0.3885
  901Sol     HW 6688   1.739   3.072   7.111 -0.3537 -1.3404 -1.0784
  901Sol     HW 6689   1.889   3.073   7.093 -0.2341  0.1454 -0.1257
  901Sol     MW 6690   1.819   3.050   7.144  0.4307 -0.1033  0.2578
  902Sol     OW 6691   0.904   0.127   5.588 -1.3318  0.0461 -0.3209
  902Sol     HW 6692   0.895   0.206   5.641  2.1165 -0.0539  0.5185
  902Sol     HW 6693   0.900   0.055   5.651  0.7166 -0.1733 -0.4083
  902Sol     MW 6694   0.903   0.127   5.598 -0.2132  0.2437  0.5051
  903Sol     OW 6695   0.845   0.960   6.294 -0.2834  0.2168 -0.7073
  903Sol     HW 6696   0.854   0.899   6.367 -1.2431 -1.1101 -1.6689
  903Sol     HW 6697   0.917   1.023   6.306  1.5374 -1.8557 -0.4043
  903Sol     MW 6698   0.852   0.960   6.302  0.0998 -0.6457 -0.3216
  904Sol     OW 6699   0.311   2.760   6.347  0.4019 -0.0522 -0.0525
  904Sol     HW 6700   0.225   2.741   6.309  0.5979  1.4559 -1.2618
  904Sol     HW 6701   0.372   2.755   6.273  0.7267  3.3227 -0.0788
  904Sol     MW 6702   0.308   2.758   6.337  0.1944  0.8138 -0.0278
  905Sol     OW 6703   2.908   0.867   1.583  0.3230 -0.1574 -0.1166
  905Sol     HW 6704   2.814   0.847   1.585  0.2996  0.0546  2.2610
  905Sol     HW 6705   2.948   0.796   1.632  1.3058  0.3306 -0.2114
  905Sol     MW 6706   2.903   0.859   1.587 -0.0839 -0.0020  0.6541
  906Sol     OW 6707   1.841   0.619   2.349 -0.3253  0.2029  0.4191
  906Sol     HW 6708   1.867   0.528   2.334 -0.4189  0.3981 -0.9611
  906Sol     HW 6709   1.749   0.622   2.325  0.0840  1.0181 -1.1169
  906Sol     MW 6710   1.835   0.611   2.346  0.2061  0.4342 -0.1203
  907Sol     OW 6711   0.372   2.667   2.706  0.5485 -0.5344  0.1105
  907Sol     HW 6712   0.337   2.744   2.662 -0.0029 -1.0220 -0.3057
  907Sol     HW 6713   0.369   2.598   2.640  1.1516 -0.8865  0.4441
  907Sol     MW 6714   0.369   2.668   2.697  0.1874  0.0923  0.3088
  908Sol     OW 6715   1.987   2.149   4.798 -0.3185  0.2146  0.1411
  908Sol     HW 6716   1.923   2.119   4.862  0.2025 -0.2326  0.4594
  908Sol     HW 6717   1.978   2.244   4.797  0.4044  0.3038  1.6615
  908Sol     MW 6718   1.981   2.155   4.803 -1.0536 -0.2895 -0.6122
  909Sol     OW 6719   1.086   2.497   9.229  0.1526  0.3282  0.1215
  909Sol     HW 6720   1.115   2.518   9.317  0.4270 -0.8268  0.3234
  909Sol     HW 6721   0.998   2.462   9.240 -0.1867  1.0996 -0.1655
  909Sol     MW 6722   1.081   2.495   9.238  0.3749  0.4617  0.4396
  910Sol     OW 6723   0.621   0.552   1.436 -0.2693 -0.0297 -0.0955
  910Sol     HW 6724   0.642   0.620   1.501  0.3418  0.4872 -0.8355
  910Sol     HW 6725   0.526   0.545   1.440 -0.4776  1.9083 -1.0513
  910Sol     MW 6726   0.615   0.558   1.443  0.3329 -0.0800 -0.2708
  911Sol     OW 6727   2.706   1.820   4.281 -0.0531 -0.6556  0.1548
  911Sol     HW 6728   2.738   1.759   4.214 -0.0437  0.0466 -0.4947
  911Sol     HW 6729   2.610   1.816   4.273 -0.0430  1.7220 -2.0659
  911Sol     MW 6730   2.700   1.815   4.274  0.3951  0.7885 -0.3391
  912Sol     OW 6731   2.186   0.234   8.535 -0.2992  0.7345  0.2108
  912Sol     HW 6732   2.117   0.170   8.517 -0.8301  1.6076 -0.9551
  912Sol     HW 6733   2.220   0.210   8.621 -0.1198 -1.4310 -0.4491
  912Sol     MW 6734   2.183   0.226   8.541 -0.1321  0.1333 -0.5598
  913Sol     OW 6735   1.794   1.969   5.652  0.2167  0.0805  0.0967
  913Sol     HW 6736   1.848   2.022   5.710 -1.6639 -0.5272  2.4628
  913Sol     HW 6737   1.722   2.026   5.626  0.3889 -0.0427 -0.6886
  913Sol     MW 6738   1.793   1.979   5.655  0.1781  0.0277  1.2800
  914Sol     OW 6739   3.077   2.289   4.379 -0.0029 -0.1220 -0.3576
  914Sol     HW 6740   3.093   2.333   4.462 -0.2438  1.5494 -1.1944
  914Sol     HW 6741   3.105   2.198   4.395 -1.9889 -0.3571  2.1850
  914Sol     MW 6742   3.081   2.284   4.388  0.1471 -0.7707  0.2402
  915Sol     OW 6743   3.195   1.555   9.480  0.1045 -0.3865 -0.4074
  915Sol     HW 6744   3.288   1.546   9.503  0.3973 -0.5539 -1.6231
  915Sol     HW 6745   3.193   1.550   9.385 -1.1610 -0.3712 -0.3930
  915Sol     MW 6746   3.203   1.553   9.474 -0.0996  0.2832 -0.1096
  916Sol     OW 6747   2.363   0.074   9.569  1.1807 -0.0518 -0.2437
  916Sol     HW 6748   2.386   0.003   9.509 -0.5822 -0.8792  0.0212
  916Sol     HW 6749   2.445   0.097   9.612  1.5523 -2.8733  0.6565
  916Sol     MW 6750   2.372   0.070   9.568 -0.6112 -0.6584  0.3999
  917Sol     OW 6751   0.307   1.863   7.110  0.0927  0.3976 -0.4524
  917Sol     HW 6752   0.315   1.777   7.068 -0.0777 -0.6456  1.5405
  917Sol     HW 6753   0.217   1.891   7.091  0.0437 -0.0138 -0.8420
  917Sol     MW 6754   0.299   1.857   7.105  0.1344  0.7629  0.6104
  918Sol     OW 6755   0.231   2.661   6.586 -0.0549 -0.1962 -0.7501
  918Sol     HW 6756   0.296   2.701   6.643 -0.3488 -0.2261 -0.3967
  918Sol     HW 6757   0.235   2.714   6.506 -0.1412  0.2771 -0.4421
  918Sol     MW 6758   0.237   2.669   6.584  0.3894  0.0174  0.4844
  919Sol     OW 6759   2.796   0.289   2.272  0.1742 -0.0579 -0.3301
  919Sol     HW 6760   2.710   0.330   2.260  0.1344 -0.4423 -1.3149
  919Sol     HW 6761   2.798   0.266   2.365 -0.6523  0.2527 -0.2302
  919Sol     MW 6762   2.788   0.291   2.280  0.5030  0.3407 -0.1070
  920Sol     OW 6763   2.373   1.071   9.818 -0.0189 -0.0889  0.4259
  920Sol     HW 6764   2.376   1.161   9.849 -0.9826  0.4825 -1.1002
  920Sol     HW 6765   2.283   1.058   9.787  0.4467 -1.1604 -0.5452
  920Sol     MW 6766   2.365   1.078   9.818  0.5347  0.8576 -0.2324
  921Sol     OW 6767   2.756   0.066   8.318 -0.0479  0.2836  0.3306
  921Sol     HW 6768   2.689   0.007   8.283 -1.0146  0.8937  1.1262
  921Sol     HW 6769   2.789   0.021   8.396 -1.0819  0.9665  1.1764
  921Sol     MW 6770   2.753   0.057   8.322 -0.2703 -0.0797 -0.3810
  922Sol     OW 6771   1.799   0.151   6.862  0.4769 -0.2170  0.2381
  922Sol     HW 6772   1.730   0.112   6.809 -0.3552  0.5886  0.7126
  922Sol     HW 6773   1.880   0.118   6.823 -0.1876 -2.6987  0.8675
  922Sol     MW 6774   1.800   0.145   6.854 -0.2028  0.6026 -0.5301
  923Sol     OW 6775   3.269   1.862   9.872 -0.0782  0.2489 -0.2072
  923Sol     HW 6776   3.221   1.938   9.840  0.5531  0.4244 -0.7532
  923Sol     HW 6777   3.344   1.854   9.812 -0.3089 -0.9757 -0.3435
  923Sol     MW 6778   3.272   1.868   9.864  0.6177  0.3921  0.0465
  924Sol     OW 6779   0.659   2.197   9.442 -0.6253  0.3895  0.8136
  924Sol     HW 6780   0.637   2.133   9.373  0.2834  1.2107 -0.2665
  924Sol     HW 6781   0.575   2.220   9.480 -1.0555 -0.8047  0.6350
  924Sol     MW 6782   0.650   2.193   9.439  0.0762 -0.2925  0.0146
  925Sol     OW 6783   3.228   3.128   7.985 -0.4279 -0.1283  0.0430
  925Sol     HW 6784   3.249   3.182   7.908  0.1088  2.5234  1.9728
  925Sol     HW 6785   3.146   3.165   8.018 -1.2604 -1.9999  0.0776
  925Sol     MW 6786   3.222   3.136   7.981 -0.2888  0.2391  0.4945
  926Sol     OW 6787   2.073   3.310   4.878 -0.4048 -0.6614 -0.5716
  926Sol     HW 6788   2.018   3.373   4.926 -1.0695 -0.1760 -1.9306
  926Sol     HW 6789   2.134   3.365   4.829 -0.0852 -1.1279 -0.6922
  926Sol     MW 6790   2.073   3.321   4.878  0.2535  0.5584 -0.5786
  927Sol     OW 6791   2.549   0.938   4.635  0.4728 -0.0261 -0.2470
  927Sol     HW 6792   2.503   1.022   4.644  0.4290 -0.0157 -0.5486
  927Sol     HW 6793   2.538   0.915   4.542 -0.7064 -1.0416  0.1329
  927Sol     MW 6794   2.544   0.944   4.627 -0.8623  0.2463 -0.5504
  928Sol     OW 6795   1.166   0.933   5.259  0.3074  0.2125 -0.3664
  928Sol     HW 6796   1.243   0.989   5.254 -0.0029  0.5581 -1.3200
  928Sol     HW 6797   1.182   0.864   5.194 -0.1754  0.2626 -0.5367
  928Sol     MW 6798   1.175   0.932   5.253  0.0915  0.4503  0.0436
  929Sol     OW 6799   1.063   0.244   8.149  0.5777  0.1999 -0.5200
  929Sol     HW 6800   1.007   0.167   8.142 -1.3238  1.4020  0.8644
  929Sol     HW 6801   1.017   0.311   8.099  2.2189  0.4551 -1.7212
  929Sol     MW 6802   1.053   0.243   8.144 -0.2757  0.0659  0.4977
  930Sol     OW 6803   2.725   0.270   6.545  0.2129  0.6003 -0.0759
  930Sol     HW 6804   2.706   0.253   6.637  0.3419  1.4987  0.1272
  930Sol     HW 6805   2.786   0.201   6.520  0.3454  0.4780  0.5775
  930Sol     MW 6806   2.729   0.263   6.551  0.3245  0.5911  0.9923
  931Sol     OW 6807   3.186   3.051   8.956  0.2089  0.2848 -0.2805
  931Sol     HW 6808   3.270   3.051   8.910  0.9690  1.0922  1.0583
  931Sol     HW 6809   3.127   3.097   8.897  0.5520 -0.7516 -1.4755
  931Sol     MW 6810   3.189   3.055   8.946 -0.5007  0.4506 -0.6458
  932Sol     OW 6811   2.883   2.109   9.166  0.1994 -0.1826  0.2386
  932Sol     HW 6812   2.923   2.183   9.212  1.1596 -0.7148  0.2726
  932Sol     HW 6813   2.796   2.100   9.206  0.7183 -0.1288  1.4062
  932Sol     MW 6814   2.878   2.115   9.174 -0.0042 -0.2783  0.4212
  933Sol     OW 6815   2.297   1.151   8.503 -0.3254  0.2885 -0.3659
  933Sol     HW 6816   2.379   1.122   8.464 -0.1168  1.4515 -0.8321
  933Sol     HW 6817   2.287   1.098   8.581  0.4601 -0.4222 -0.7424
  933Sol     MW 6818   2.303   1.144   8.506  0.0724  0.2278  0.3843
  934Sol     OW 6819   0.488   2.102   7.684  0.3375  0.4995 -0.0483
  934Sol     HW 6820   0.401   2.116   7.721  0.0975  1.4872 -0.9945
  934Sol     HW 6821   0.474   2.091   7.590  1.1268 -0.3948 -0.0741
  934Sol     MW 6822   0.479   2.102   7.679  0.0418  0.1604 -0.1105
  935Sol     OW 6823   0.237   2.060   2.325  0.2696  0.1119 -0.1835
  935Sol     HW 6824   0.207   2.001   2.394  1.0520 -0.0157  0.0502
  935Sol     HW 6825   0.292   2.005   2.269  1.2634  0.6888  0.2171
  935Sol     MW 6826   0.239   2.050   2.326  0.2584 -0.1136  0.6271
  936Sol     OW 6827   2.769   3.043   4.530  0.2652 -0.0996  0.0191
  936Sol     HW 6828   2.833   2.976   4.504 -0.1585 -0.9097  1.0528
  936Sol     HW 6829   2.685   2.998   4.528 -0.1193  0.6213 -0.0517
  936Sol     MW 6830   2.767   3.033   4.528  0.1634  0.0164  0.2946
  937Sol     OW 6831   1.541   2.158   5.633  0.1626  0.3903  0.2949
  937Sol     HW 6832   1.540   2.237   5.687  1.7813 -0.1332  1.1145
  937Sol     HW 6833   1.578   2.187   5.549 -1.5691  1.0173 -0.2888
  937Sol     MW 6834   1.544   2.168   5.630  0.1016  0.1034  1.0930
  938Sol     OW 6835   1.108   2.554   8.953  0.6135 -0.5350  0.2210
  938Sol     HW 6836   1.096   2.538   9.046 -1.0503  1.9554  0.4826
  938Sol     HW 6837   1.202   2.571   8.943  0.3361  2.4163  2.0304
  938Sol     MW 6838   1.115   2.554   8.960 -0.8331 -0.5426  0.0602
  939Sol     OW 6839   0.183   3.105   6.681 -0.3774 -0.6650 -0.1810
  939Sol     HW 6840   0.160   3.190   6.718  0.1844 -0.4534 -0.3069
  939Sol     HW 6841   0.266   3.121   6.636 -0.8062 -1.0252 -1.1095
  939Sol     MW 6842   0.189   3.114   6.680  0.3846  0.3763 -0.5839
  940Sol     OW 6843   3.168   1.939   9.538  0.1368 -0.3810 -0.5281
  940Sol     HW 6844   3.121   1.883   9.599  1.7774 -1.5820 -0.3354
  940Sol     HW 6845   3.163   2.027   9.576 -1.2108 -0.6369 -0.1022
  940Sol     MW 6846   3.163   1.942   9.547  0.4520  0.5646  0.1047
  941Sol     OW 6847   2.331   0.234   6.312  0.5614 -0.1155  0.1890
  941Sol     HW 6848   2.375   0.176   6.249 -0.7369  0.7225 -1.5286
  941Sol     HW 6849   2.287   0.299   6.257 -0.4539  0.7426  1.9966
  941Sol     MW 6850   2.331   0.234   6.301 -0.2180 -0.4805  0.1016
  942Sol     OW 6851   0.758   0.850   7.481 -0.2251  0.0865 -0.3819
  942Sol     HW 6852   0.842   0.880   7.446 -0.2654 -0.1244 -0.6619
  942Sol     HW 6853   0.695   0.868   7.412 -0.7183  1.8195  0.4784
  942Sol     MW 6854   0.760   0.854   7.472 -0.1056 -0.3090  0.0277
  943Sol     OW 6855   3.134   3.295   6.002 -0.1704  0.0660  0.2158
  943Sol     HW 6856   3.050   3.332   5.974 -0.3829 -0.8843 -0.4391
  943Sol     HW 6857   3.115   3.254   6.086  0.5220  3.1292  1.9623
  943Sol     MW 6858   3.125   3.295   6.007  0.6888 -0.7801 -0.6001
  944Sol     OW 6859   3.165   1.014   9.500  0.0073 -0.0238 -0.8515
  944Sol     HW 6860   3.257   0.989   9.507  0.3470  0.9185 -1.7773
  944Sol     HW 6861   3.158   1.095   9.550 -0.7853 -1.1853  0.9588
  944Sol     MW 6862   3.173   1.019   9.505  0.6299  0.4587 -0.7071
  945Sol     OW 6863   2.564   2.384   5.289  0.0260 -0.0121  0.7174
  945Sol     HW 6864   2.495   2.321   5.309 -2.1057  1.5643 -1.5000
  945Sol     HW 6865   2.618   2.341   5.222 -0.5854 -0.0422  0.2457
  945Sol     MW 6866   2.563   2.375   5.285 -0.4669  0.0662 -0.0724
  946Sol     OW 6867   2.634   0.878   3.047  0.0584 -0.2275 -0.5593
  946Sol     HW 6868   2.638   0.963   3.090  1.1016 -0.5011 -0.1023
  946Sol     HW 6869   2.711   0.831   3.078 -0.8594 -1.5916 -0.2727
  946Sol     MW 6870   2.641   0.881   3.053 -0.0519 -0.5398 -0.4875
  947Sol     OW 6871   0.077   1.875   9.398 -0.5203 -0.0841 -0.1272
  947Sol     HW 6872   0.074   1.798   9.341 -0.4725  1.1979 -1.8987
  947Sol     HW 6873  -0.012   1.882   9.433 -1.9309  1.9038 -3.8775
  947Sol     MW 6874   0.069   1.868   9.396 -0.3806  0.0294 -0.0399
  948Sol     OW 6875   0.175   1.746   8.303 -0.0269 -0.2010  0.3702
  948Sol     HW 6876   0.167   1.702   8.388 -0.3495 -0.3189  0.2788
  948Sol     HW 6877   0.215   1.831   8.324 -0.8095  0.0862  0.7391
  948Sol     MW 6878   0.178   1.750   8.313  0.3962 -0.0951 -0.6765
  949Sol     OW 6879   0.591   3.393   1.735 -0.0529  0.6934 -0.2141
  949Sol     HW 6880   0.512   3.442   1.709  0.0988  1.6666  1.1368
  949Sol     HW 6881   0.642   3.455   1.786  0.6348 -0.5730  0.6592
  949Sol     MW 6882   0.588   3.403   1.737  0.5837 -0.2566  0.1444
  950Sol     OW 6883   2.718   1.624   4.485  0.2528 -0.1376 -0.0855
  950Sol     HW 6884   2.656   1.669   4.542  0.5709  0.9693 -0.5827
  950Sol     HW 6885   2.746   1.692   4.422 -1.5224 -1.7851 -2.7490
  950Sol     MW 6886   2.715   1.634   4.484 -0.1081  0.8577 -0.3228
  951Sol     OW 6887   1.284   1.251   2.918 -0.5247 -0.2032 -0.2864
  951Sol     HW 6888   1.197   1.211   2.921 -1.8036  2.3549 -1.8664
  951Sol     HW 6889   1.305   1.271   3.009 -1.5836 -0.8677  0.1021
  951Sol     MW 6890   1.278   1.249   2.926 -0.9671  0.2370  0.3165
  952Sol     OW 6891   1.014   2.081   6.562 -0.1625 -0.2562 -0.5532
  952Sol     HW 6892   1.018   2.157   6.620  2.6752 -0.6364 -0.1814
  952Sol     HW 6893   1.078   2.020   6.597 -0.8914 -1.9677 -2.0832
  952Sol     MW 6894   1.020   2.083   6.570  0.0619  0.5376  0.3730
  953Sol     OW 6895   1.174   3.194   3.310 -0.8930  0.7278  0.7432
  953Sol     HW 6896   1.091   3.189   3.357  0.2565 -0.5265  2.7065
  953Sol     HW 6897   1.197   3.103   3.292 -0.5343  1.1245 -0.8661
  953Sol     MW 6898   1.169   3.185   3.313 -0.1866 -0.1057  0.0322
  954Sol     OW 6899   0.551   0.331   7.963  0.0027 -0.3067 -0.2622
  954Sol     HW 6900   0.541   0.425   7.946 -0.0304 -0.2250  0.1983
  954Sol     HW 6901   0.462   0.299   7.973 -0.0160 -0.5076 -1.0376
  954Sol     MW 6902   0.542   0.337   7.963  0.3298 -0.8014  0.0751
  955Sol     OW 6903   2.329   2.474   6.410 -0.0663 -0.0475 -0.4365
  955Sol     HW 6904   2.391   2.419   6.362 -1.0284 -0.8200 -0.8053
  955Sol     HW 6905   2.243   2.448   6.377 -0.5192  2.0703 -1.0558
  955Sol     MW 6906   2.327   2.467   6.402 -0.0992 -0.0581  0.0700
  956Sol     OW 6907   2.962   0.979   3.088 -0.5283  0.0511  0.6844
  956Sol     HW 6908   3.048   1.014   3.112  0.2894 -1.1387 -0.4188
  956Sol     HW 6909   2.973   0.884   3.091 -1.3003 -0.1243 -1.1832
  956Sol     MW 6910   2.971   0.974   3.090 -0.5380  0.2469 -0.1749
  957Sol     OW 6911   2.531   2.937   4.192 -0.0625  0.2109 -0.0020
  957Sol     HW 6912   2.455   2.994   4.204 -0.8902 -0.8600 -0.0662
  957Sol     HW 6913   2.506   2.879   4.120  1.1168  0.3480 -0.5314
  957Sol     MW 6914   2.522   2.937   4.187  0.0400  0.1716 -0.0553
  958Sol     OW 6915   1.211   2.690   7.942  0.3005 -0.1843  0.0990
  958Sol     HW 6916   1.217   2.781   7.915  0.8387  0.1313  1.2617
  958Sol     HW 6917   1.282   2.679   8.006 -0.2486 -1.2047  0.5409
  958Sol     MW 6918   1.218   2.697   7.946 -0.4205  0.2528  0.7384
  959Sol     OW 6919   1.763   3.452   6.023 -0.4685 -0.1912 -0.6257
  959Sol     HW 6920   1.819   3.519   6.061  2.7931 -1.3040 -3.2300
  959Sol     HW 6921   1.743   3.484   5.935 -1.1895 -1.3711 -0.9074
  959Sol     MW 6922   1.766   3.461   6.018 -0.5432 -0.5413  0.2344
  960Sol     OW 6923   0.098   0.987   8.122  0.4970 -0.6927 -0.1103
  960Sol     HW 6924   0.191   1.010   8.129  0.3565 -0.1216 -0.0806
  960Sol     HW 6925   0.079   0.939   8.202 -0.2011  2.6204  1.7831
  960Sol     MW 6926   0.105   0.985   8.130  0.0462 -0.2240 -0.2098
  961Sol     OW 6927   2.848   0.374   4.104  0.2201  0.1042 -0.1521
  961Sol     HW 6928   2.878   0.445   4.047  0.7190 -0.0152 -0.0369
  961Sol     HW 6929   2.760   0.355   4.073  0.2880  0.4092 -0.5372
  961Sol     MW 6930   2.843   0.379   4.096  0.2696  0.2622 -0.2048
  962Sol     OW 6931   2.084   1.848   2.054  0.4970  0.1984  0.0755
  962Sol     HW 6932   2.072   1.806   1.968  0.3444 -0.6901  0.5318
  962Sol     HW 6933   2.035   1.930   2.047 -0.7467 -0.5418 -0.2001
  962Sol     MW 6934   2.078   1.852   2.045  0.6828 -0.0844  0.0226
  963Sol     OW 6935   1.628   2.663   9.020 -0.6822 -0.3839  0.1572
  963Sol     HW 6936   1.685   2.604   8.970 -0.5004  0.0955 -0.2018
  963Sol     HW 6937   1.543   2.658   8.975 -0.6940 -0.4473  0.1868
  963Sol     MW 6938   1.625   2.657   9.011  0.3171  0.1513 -0.5030
  964Sol     OW 6939   1.548   0.197   5.854  0.1842  0.5411  0.4925
  964Sol     HW 6940   1.624   0.255   5.846 -0.6081  1.7166  1.2548
  964Sol     HW 6941   1.511   0.192   5.766 -0.4804  2.2428  0.6580
  964Sol     MW 6942   1.552   0.202   5.846  0.1050  0.0681  0.1473
  965Sol     OW 6943   0.545   0.256   2.135 -0.2432 -0.2553 -0.3661
  965Sol     HW 6944   0.614   0.199   2.101 -0.9788 -0.4924 -1.4899
  965Sol     HW 6945   0.507   0.206   2.207  0.8657 -0.0494  0.3823
  965Sol     MW 6946   0.548   0.246   2.138 -0.1697 -0.0659  0.6978
  966Sol     OW 6947   1.561   0.171   3.640 -0.1616  0.2951  0.1661
  966Sol     HW 6948   1.588   0.179   3.731  1.3888  1.4437 -0.3562
  966Sol     HW 6949   1.644   0.169   3.591 -0.9818  2.4834 -1.3910
  966Sol     MW 6950   1.571   0.172   3.643 -0.5245 -0.0067 -0.6645
  967Sol     OW 6951   1.367   0.964   2.127 -0.6975  0.6527  0.1652
  967Sol     HW 6952   1.323   0.880   2.140 -0.2884  0.5405  0.8694
  967Sol     HW 6953   1.415   0.954   2.045  0.8787 -0.4831  1.1959
  967Sol     MW 6954   1.368   0.956   2.121  0.5484 -0.0564 -0.2900
  968Sol     OW 6955   2.952   0.781   4.215 -0.0774  0.1913  0.4856
  968Sol     HW 6956   3.038   0.781   4.174  0.1845 -1.4456  1.0110
  968Sol     HW 6957   2.954   0.854   4.276  0.2993  1.2753 -0.7923
  968Sol     MW 6958   2.960   0.787   4.216  0.3599  0.2905 -0.1504
  969Sol     OW 6959   2.561   1.753   8.552  0.2936 -0.2749 -0.5362
  969Sol     HW 6960   2.618   1.752   8.629  0.7439 -1.0389 -0.8774
  969Sol     HW 6961   2.588   1.832   8.504 -1.1776  1.1865  0.9571
  969Sol     MW 6962   2.569   1.760   8.555  0.2049  0.0772 -0.3916
  970Sol     OW 6963   2.309   3.442   4.522  0.4489  0.2636 -0.2396
  970Sol     HW 6964   2.313   3.443   4.617 -0.7417 -0.5876 -0.1653
  970Sol     HW 6965   2.401   3.440   4.494  0.8000 -0.7932  0.9167
  970Sol     MW 6966   2.318   3.442   4.528  0.7895  0.0372 -0.4657
  971Sol     OW 6967   0.584   1.683   2.302 -0.0024 -0.2156  0.3233
  971Sol     HW 6968   0.501   1.678   2.255  1.1331 -1.6657 -1.5746
  971Sol     HW 6969   0.566   1.741   2.376 -2.7038 -0.5481 -0.0383
  971Sol     MW 6970   0.575   1.688   2.304 -0.6995  0.0969 -0.4125
  972Sol     OW 6971   3.064   3.159   7.621  0.1296  0.7719  0.1324
  972Sol     HW 6972   3.024   3.246   7.611 -0.6403  0.2812 -1.2642
  972Sol     HW 6973   2.993   3.102   7.648  0.2925  0.2848 -0.4374
  972Sol     MW 6974   3.054   3.162   7.622 -0.3818  0.4408 -0.7729
  973Sol     OW 6975   0.892   3.039   2.521  0.5274 -0.2644  0.0371
  973Sol     HW 6976   0.964   3.055   2.581  0.6352 -2.0818  0.4322
  973Sol     HW 6977   0.932   2.992   2.448 -0.1354 -0.7820 -0.0005
  973Sol     MW 6978   0.902   3.036   2.520 -0.2318  0.2299  0.0570
  974Sol     OW 6979   2.002   1.485   5.610 -0.0627  0.5125 -0.0444
  974Sol     HW 6980   2.029   1.576   5.623  0.3855  0.5217 -1.0068
  974Sol     HW 6981   1.951   1.486   5.529  0.2858 -0.1531 -0.2803
  974Sol     MW 6982   2.000   1.493   5.604  0.2046 -0.0070 -0.5457
  975Sol     OW 6983   1.262   2.846   3.507  0.0252 -0.2357 -0.0439
  975Sol     HW 6984   1.184   2.837   3.562 -3.0964  0.6326 -4.1230
  975Sol     HW 6985   1.301   2.929   3.534 -0.2046 -0.8510  2.2838
  975Sol     MW 6986   1.258   2.852   3.515  0.1628  0.3448  0.4122
  976Sol     OW 6987   1.651   3.441   9.022  0.3085  0.5583 -0.0184
  976Sol     HW 6988   1.684   3.359   8.985 -1.0770 -0.3246  0.6524
  976Sol     HW 6989   1.621   3.416   9.110 -0.6309  1.6696 -0.0201
  976Sol     MW 6990   1.651   3.431   9.027  0.0606  0.1486 -0.8665
  977Sol     OW 6991   0.976   2.255   6.762 -0.0526  0.8667 -0.2251
  977Sol     HW 6992   0.999   2.337   6.720  0.4127  0.5502 -0.5970
  977Sol     HW 6993   1.021   2.257   6.846 -0.7894  1.3953  0.1611
  977Sol     MW 6994   0.982   2.262   6.765  0.0821 -0.0604  0.5690
  978Sol     OW 6995   1.329   2.497   8.331 -0.0169  0.7098  0.1661
  978Sol     HW 6996   1.243   2.525   8.361 -0.6657 -0.2799 -0.7226
  978Sol     HW 6997   1.348   2.417   8.379  0.5346  1.0737  0.5631
  978Sol     MW 6998   1.323   2.493   8.338  0.1688 -0.0558  0.1739
  979Sol     OW 6999   0.475   1.982   8.843 -0.7241 -0.6187  0.1694
  979Sol     HW 7000   0.525   2.026   8.774  2.1799  0.5901  2.8939
  979Sol     HW 7001   0.433   2.053   8.892 -1.4723 -1.3362  0.5781
  979Sol     MW 7002   0.476   1.992   8.841 -0.0612  0.2057 -0.0688
  980Sol     OW 7003   1.268   2.000   4.491 -0.1811  0.2968  0.3181
  980Sol     HW 7004   1.361   1.978   4.497 -0.3294 -0.2820  0.5349
  980Sol     HW 7005   1.245   2.029   4.580  0.2903  2.4621 -0.2414
  980Sol     MW 7006   1.274   2.001   4.500 -0.0564 -0.7189 -0.1904
  981Sol     OW 7007   0.201   3.412   2.409 -0.2132 -0.4523  0.4554
  981Sol     HW 7008   0.251   3.339   2.444  1.7265  0.3578 -0.5476
  981Sol     HW 7009   0.158   3.451   2.485 -0.5978 -2.1193  1.1013
  981Sol     MW 7010   0.202   3.409   2.419  0.4721 -0.2580 -0.7489
  982Sol     OW 7011   3.027   1.857   4.333  0.0432 -0.2516  0.0092
  982Sol     HW 7012   2.937   1.889   4.335 -0.3698 -1.2918 -1.2672
  982Sol     HW 7013   3.081   1.935   4.345 -0.9843  0.6770 -1.3497
  982Sol     MW 7014   3.024   1.866   4.334 -0.5596 -0.1555 -0.2739
  983Sol     OW 7015   2.659   2.463   6.456 -0.1456  0.4042  0.1431
  983Sol     HW 7016   2.586   2.521   6.480 -0.0920  0.0707  1.1491
  983Sol     HW 7017   2.633   2.426   6.372 -0.7774  0.8950  0.1095
  983Sol     MW 7018   2.650   2.465   6.451 -0.2019 -0.0537 -0.4030
  984Sol     OW 7019   0.262   0.273   8.298 -0.1068  0.2910 -0.0832
  984Sol     HW 7020   0.292   0.256   8.209 -0.5120  0.8919 -0.3454
  984Sol     HW 7021   0.206   0.198   8.320 -1.2495  0.8773 -0.9230
  984Sol     MW 7022   0.259   0.265   8.292 -0.2231  0.1098  0.2288
  985Sol     OW 7023   1.684   1.763   8.956 -1.0843  0.3965 -0.3547
  985Sol     HW 7024   1.729   1.723   9.030 -0.2253  1.4192 -0.3205
  985Sol     HW 7025   1.734   1.735   8.879 -3.0207 -2.1497 -0.7434
  985Sol     MW 7026   1.692   1.757   8.955  0.1197 -0.4486  0.4701
  986Sol     OW 7027   0.452   1.929   3.903  0.7212  0.4682 -0.4282
  986Sol     HW 7028   0.457   1.833   3.897 -0.0702  0.4416 -0.8433
  986Sol     HW 7029   0.457   1.958   3.812  1.7983  0.8738 -0.2425
  986Sol     MW 7030   0.453   1.923   3.894  0.5825  0.2771  1.0535
  987Sol     OW 7031   3.296   2.868   2.266 -0.0097  0.3286  0.1800
  987Sol     HW 7032   3.282   2.931   2.195  0.0444 -0.8480 -0.8946
  987Sol     HW 7033   3.213   2.821   2.274  0.3421 -0.3154  0.1080
  987Sol     MW 7034   3.288   2.869   2.260 -0.0976 -0.6487  0.8128
  988Sol     OW 7035   1.789   0.990   9.400  0.3388 -0.3857  0.2749
  988Sol     HW 7036   1.790   1.006   9.306  2.5998 -0.3990  0.2578
  988Sol     HW 7037   1.727   1.054   9.435  0.4240  0.4597 -1.0963
  988Sol     MW 7038   1.784   0.997   9.395  0.6046  0.0731  0.3220
  989Sol     OW 7039   2.366   1.792   6.260 -0.0335 -0.5277 -0.5886
  989Sol     HW 7040   2.285   1.818   6.216 -0.1805 -0.9433 -0.5723
  989Sol     HW 7041   2.401   1.873   6.295 -2.8467 -0.8785  3.4068
  989Sol     MW 7042   2.362   1.802   6.259  0.2753  0.4587 -0.2717
  990Sol     OW 7043   0.980   1.822   4.355 -0.0377  0.1817 -0.0319
  990Sol     HW 7044   0.931   1.753   4.310 -1.2449 -0.7545  2.6272
  990Sol     HW 7045   0.916   1.891   4.370  0.4417  0.6252 -0.0050
  990Sol     MW 7046   0.970   1.822   4.352 -0.1622 -0.1794  0.5311
  991Sol     OW 7047   0.846   2.637   7.236 -0.1375  0.0427 -0.0801
  991Sol     HW 7048   0.908   2.682   7.179  0.0682 -0.4552 -0.2488
  991Sol     HW 7049   0.897   2.566   7.276  0.3334  1.7033  2.4152
  991Sol     MW 7050   0.856   2.635   7.235 -0.0888 -0.3500 -0.6877
  992Sol     OW 7051   2.394   0.885   8.181  0.0567 -0.0221 -0.0034
  992Sol     HW 7052   2.448   0.896   8.260  0.0921 -2.8876  0.4385
  992Sol     HW 7053   2.323   0.948   8.192  0.9488  0.7639  1.5279
  992Sol     MW 7054   2.392   0.892   8.189 -0.4369 -0.2726 -0.8684
  993Sol     OW 7055   0.992   0.404   2.266  0.0639  0.2209 -0.3028
  993Sol     HW 7056   0.981   0.341   2.337  4.4417  0.3029  0.5562
  993Sol     HW 7057   1.061   0.366   2.211 -1.6335  1.2900 -3.3042
  993Sol     MW 7058   0.997   0.395   2.267 -0.4549 -0.1462 -0.4646
  994Sol     OW 7059   3.266   1.099   3.196  0.1132  0.3640  0.5748
  994Sol     HW 7060   3.293   1.076   3.107  2.7958  0.8903  1.1841
  994Sol     HW 7061   3.337   1.065   3.251 -1.2994  0.4385  2.4585
  994Sol     MW 7062   3.275   1.094   3.193  0.0439  0.3402 -0.2106
  995Sol     OW 7063   2.004   2.507   9.841  0.3287  0.5445  0.0283
  995Sol     HW 7064   2.090   2.483   9.874  0.4467  0.5364 -0.2832
  995Sol     HW 7065   2.018   2.526   9.748  0.0529  0.8375  0.0432
  995Sol     MW 7066   2.013   2.507   9.836 -0.1804 -0.4713 -0.5809
  996Sol     OW 7067   0.553   1.700   7.194 -0.1802 -0.2676 -0.3530
  996Sol     HW 7068   0.498   1.623   7.174 -0.3603  0.2589 -1.9660
  996Sol     HW 7069   0.618   1.667   7.256 -2.1173 -0.9844  1.3797
  996Sol     MW 7070   0.554   1.690   7.198 -0.0623 -0.3788 -0.2803
  997Sol     OW 7071   0.786   0.923   8.967 -0.4411  0.4145 -0.5403
  997Sol     HW 7072   0.744   0.855   8.914 -1.5207  0.0002  0.8259
  997Sol     HW 7073   0.827   0.876   9.040  2.1271  0.8483 -1.6305
  997Sol     MW 7074   0.786   0.913   8.969 -0.2982  0.0016  0.4159
  998Sol     OW 7075   2.605   1.078   3.252 -0.4928 -0.3762 -0.5582
  998Sol     HW 7076   2.535   1.143   3.254  0.2693  0.4454 -0.3419
  998Sol     HW 7077   2.685   1.129   3.262  0.0511 -1.4408  0.6527
  998Sol     MW 7078   2.605   1.088   3.253  0.6423 -0.0784 -0.4352
  999Sol     OW 7079   3.174   1.306   2.275 -0.1199 -0.3146 -0.7843
  999Sol     HW 7080   3.217   1.275   2.354  0.1969  1.6819 -0.1437
  999Sol     HW 7081   3.084   1.326   2.303 -0.5630 -1.4464 -1.3822
  999Sol     MW 7082   3.169   1.305   2.285 -0.4969  0.1698 -0.5068
 1000Sol     OW 7083   1.185   0.609   4.629  0.1068  0.4395 -0.4519
 1000Sol     HW 7084   1.107   0.563   4.658 -0.4217  1.5282 -0.1298
 1000Sol     HW 7085   1.216   0.656   4.706  0.5936  0.6922 -0.7967
 1000Sol     MW 7086   1.181   0.609   4.638 -0.1695 -0.6381 -0.9155
 1001Sol     OW 7087   2.063   2.313   9.027 -0.3615  0.3366  0.5667
 1001Sol     HW 7088   2.150   2.301   9.066  0.4729  1.7879 -0.7984
 1001Sol     HW 7089   2.077   2.306   8.933 -1.9649 -0.7712  0.3990
 1001Sol     MW 7090   2.072   2.312   9.022 -0.4701 -0.3950  0.7617
 1002Sol     OW 7091   1.363   1.219   4.443 -0.1595 -0.0396  0.1279
 1002Sol     HW 7092   1.327   1.298   4.484 -1.5991 -0.5999 -0.0125
 1002Sol     HW 7093   1.304   1.201   4.370  1.3933 -0.0432 -1.1444
 1002Sol     MW 7094   1.354   1.225   4.441  0.0442 -0.1700  0.3740
 1003Sol     OW 7095   0.698   2.595   7.502 -0.5549  0.0556  0.1728
 1003Sol     HW 7096   0.737   2.657   7.439 -2.7548  1.2596 -0.0894
 1003Sol     HW 7097   0.669   2.522   7.448  0.2058 -0.2781  0.2056
 1003Sol     MW 7098   0.699   2.594   7.491  0.0163 -0.4565  0.0519
 1004Sol     OW 7099   3.308   1.468   1.506 -0.0178 -0.7819 -0.2772
 1004Sol     HW 7100   3.255   1.547   1.515  0.0653 -0.5902 -1.3677
 1004Sol     HW 7101   3.394   1.500   1.477  0.4490 -1.1560  0.6719
 1004Sol     MW 7102   3.311   1.478   1.504 -0.0980 -0.2819  0.0619
 1005Sol     OW 7103   0.845   0.965   2.062 -0.0640  0.5161  0.4049
 1005Sol     HW 7104   0.881   1.014   1.988 -1.0976  1.6698  0.6682
 1005Sol     HW 7105   0.907   0.980   2.133  1.9425 -2.0920 -0.6863
 1005Sol     MW 7106   0.854   0.970   2.062 -0.2867  0.6450  0.2955
 1006Sol     OW 7107   2.909   0.545   6.835 -0.1192  0.5021 -0.0904
 1006Sol     HW 7108   2.900   0.638   6.815  0.2712  1.1507  2.4765
 1006Sol     HW 7109   2.857   0.533   6.914  0.1468 -1.3816 -0.1929
 1006Sol     MW 7110   2.904   0.552   6.841  0.5849  0.3004 -0.8536
 1007Sol     OW 7111   1.153   0.224   9.558 -0.1936  0.1738 -0.2153
 1007Sol     HW 7112   1.173   0.134   9.533  0.0310  0.1193  0.1649
 1007Sol     HW 7113   1.237   0.269   9.558 -0.1244  0.0514  0.9330
 1007Sol     MW 7114   1.162   0.220   9.555 -0.3386 -0.0262 -0.2774
 1008Sol     OW 7115   1.254   2.925   7.643 -0.2281 -0.5603 -0.0690
 1008Sol     HW 7116   1.336   2.955   7.602  0.3364 -2.3064 -0.2654
 1008Sol     HW 7117   1.252   2.831   7.626 -2.6784 -0.4207 -0.7438
 1008Sol     MW 7118   1.261   2.919   7.638 -0.2057 -0.2758  0.8256
 1009Sol     OW 7119   3.130   1.889   6.465 -0.0540 -0.3332 -0.0425
 1009Sol     HW 7120   3.094   1.819   6.520 -0.3486  0.8643  1.2824
 1009Sol     HW 7121   3.222   1.866   6.454  0.1436 -0.2523  1.4321
 1009Sol     MW 7122   3.135   1.880   6.469  0.1865  0.0634  1.1427
 1010Sol     OW 7123   3.046   0.213   9.384 -0.1365 -0.3961 -0.2779
 1010Sol     HW 7124   2.980   0.150   9.355  0.1039 -0.7102 -0.1465
 1010Sol     HW 7125   3.025   0.231   9.475  0.6808 -1.4292  0.1266
 1010Sol     MW 7126   3.038   0.209   9.390 -0.3570 -0.3727  0.6081
 1011Sol     OW 7127   0.793   1.571   7.953 -0.1007 -0.1635 -0.0739
 1011Sol     HW 7128   0.699   1.588   7.946 -0.1924  0.2728  1.8602
 1011Sol     HW 7129   0.835   1.646   7.912 -0.5892 -0.6555 -1.4996
 1011Sol     MW 7130   0.788   1.579   7.949  0.0966  0.3881  0.5084
 1012Sol     OW 7131   2.878   3.020   8.681 -0.6564  0.3024 -0.2318
 1012Sol     HW 7132   2.915   3.019   8.592 -1.7928  0.6779 -0.7261
 1012Sol     HW 7133   2.894   2.932   8.715  0.2810  0.3262 -0.6055
 1012Sol     MW 7134   2.882   3.012   8.676  0.1696  0.6982 -0.2755
 1013Sol     OW 7135   2.685   3.425   8.757 -1.0267  0.3731 -0.2475
 1013Sol     HW 7136   2.591   3.417   8.744 -0.9622 -2.5592  0.5593
 1013Sol     HW 7137   2.724   3.388   8.678 -0.6207 -1.7993  0.9089
 1013Sol     MW 7138   2.680   3.421   8.749  0.3730 -0.7485  0.4023
 1014Sol     OW 7139   0.531   0.748   4.821 -0.1413 -0.0454  0.5507
 1014Sol     HW 7140   0.517   0.818   4.884 -0.9639 -1.7353  2.2846
 1014Sol     HW 7141   0.452   0.694   4.826  0.4892 -1.1293 -0.7291
 1014Sol     MW 7142   0.523   0.750   4.827 -0.3672  0.5846  0.1418
 1015Sol     OW 7143   2.637   3.171   3.544 -0.2368 -0.2329  0.6053
 1015Sol     HW 7144   2.547   3.160   3.576 -1.9835 -0.5268 -4.1236
 1015Sol     HW 7145   2.676   3.084   3.554 -1.4842 -0.9050 -0.1341
 1015Sol     MW 7146   2.632   3.162   3.548  0.2805  0.4300  0.3222
 1016Sol     OW 7147   2.204   0.690   4.933  0.1961 -1.3560  0.2098
 1016Sol     HW 7148   2.122   0.641   4.941  0.1615 -1.2788  0.3155
 1016Sol     HW 7149   2.268   0.638   4.982  0.1287 -1.2237  0.4386
 1016Sol     MW 7150   2.202   0.681   4.938  0.7655 -1.3828  0.2729
 1017Sol     OW 7151   1.210   2.050   4.783 -0.8944  0.4865 -0.1597
 1017Sol     HW 7152   1.285   2.079   4.834 -0.4596 -1.3650  0.2936
 1017Sol     HW 7153   1.137   2.049   4.845 -1.2263  1.9383 -0.5145
 1017Sol     MW 7154   1.210   2.052   4.793  0.0529  0.4652 -0.3373
 1018Sol     OW 7155   2.618   2.831   8.993 -0.2798 -0.0647 -0.1846
 1018Sol     HW 7156   2.577   2.915   9.017 -0.2438 -0.2450  0.5063
 1018Sol     HW 7157   2.566   2.765   9.039  1.5093 -0.2240  1.6812
 1018Sol     MW 7158   2.609   2.833   8.999 -0.0950  0.5805  0.1294
 1019Sol     OW 7159   0.462   0.636   5.711 -0.1932 -0.3647 -0.4138
 1019Sol     HW 7160   0.557   0.630   5.698 -0.3713 -0.7299 -1.5894
 1019Sol     HW 7161   0.445   0.580   5.787  0.6017  0.1846  0.1851
 1019Sol     MW 7162   0.469   0.631   5.717  0.6087  0.2322 -0.1365
 1020Sol     OW 7163   2.218   2.810   5.372 -0.5368  0.1159 -0.2749
 1020Sol     HW 7164   2.188   2.806   5.463  0.9044  0.2893  0.2162
 1020Sol     HW 7165   2.311   2.828   5.378 -0.7878  2.1317 -1.8385
 1020Sol     MW 7166   2.223   2.811   5.380  0.0905  0.1049  0.1437
 1021Sol     OW 7167   2.206   2.724   9.521 -0.5296  0.2399 -0.0387
 1021Sol     HW 7168   2.273   2.655   9.522  0.6532  1.3270 -1.2145
 1021Sol     HW 7169   2.235   2.785   9.588 -0.1680  0.8567 -0.7481
 1021Sol     MW 7170   2.215   2.723   9.527 -0.2094 -0.0617 -0.5873
 1022Sol     OW 7171   3.049   0.008   4.027  1.1830 -0.8316 -0.0787
 1022Sol     HW 7172   3.133   0.054   4.033  1.4119 -1.4259  1.7545
 1022Sol     HW 7173   3.013   0.033   3.942  1.6495  2.1705  0.5517
 1022Sol     MW 7174   3.053   0.014   4.020 -0.7866 -0.3143  0.1340
 1023Sol     OW 7175   3.276   2.187   2.099 -0.0541  0.0088 -0.8237
 1023Sol     HW 7176   3.241   2.110   2.142 -1.2251 -0.3513 -2.3553
 1023Sol     HW 7177   3.262   2.171   2.006  2.0572  0.9269 -1.3353
 1023Sol     MW 7178   3.271   2.179   2.094  0.9898 -0.0857 -0.2747
 1024Sol     OW 7179   2.376   1.541   6.134  0.6047  0.0101 -0.2155
 1024Sol     HW 7180   2.470   1.531   6.121  0.8051  1.4604  0.0850
 1024Sol     HW 7181   2.368   1.601   6.208 -0.5537 -0.0031 -0.3244
 1024Sol     MW 7182   2.384   1.545   6.140  0.2736 -0.0724  0.0851
 1025Sol     OW 7183   2.553   1.069   5.554 -0.0184 -0.4869  0.1946
 1025Sol     HW 7184   2.506   0.985   5.562  1.0450 -1.2020 -0.8755
 1025Sol     HW 7185   2.607   1.058   5.476 -0.0459  1.3045 -0.0917
 1025Sol     MW 7186   2.553   1.060   5.547  0.1194  0.0517 -0.7574
 1026Sol     OW 7187   1.003   1.059   7.196 -0.3975  0.0851 -1.2742
 1026Sol     HW 7188   0.926   1.112   7.174 -1.1791 -1.4230 -2.2817
 1026Sol     HW 7189   1.036   1.028   7.111  1.6712  1.1801 -0.8834
 1026Sol     MW 7190   0.999   1.061   7.186  0.2175 -0.6691  0.6221
 1027Sol     OW 7191   2.034   1.136   6.032  0.4334 -0.4056  0.5931
 1027Sol     HW 7192   1.989   1.154   5.949  1.4341 -1.2264 -0.1409
 1027Sol     HW 7193   2.090   1.212   6.046 -2.0977  1.2718  2.1992
 1027Sol     MW 7194   2.035   1.145   6.026  0.2273  0.1564 -0.1529
 1028Sol     OW 7195   2.454   2.639   7.820  0.0796  0.3258  0.0145
 1028Sol     HW 7196   2.419   2.680   7.740 -0.8338  0.2247  0.3610
 1028Sol     HW 7197   2.380   2.635   7.879  0.7198  0.2403  0.8163
 1028Sol     MW 7198   2.445   2.643   7.818  0.3003 -0.6875  0.0429
 1029Sol     OW 7199   1.877   2.904   4.608  0.2901 -0.6572  0.0800
 1029Sol     HW 7200   1.899   2.933   4.696 -2.1619 -1.5406  1.0245
 1029Sol     HW 7201   1.884   2.983   4.554 -0.1056  0.3083  1.4302
 1029Sol     MW 7202   1.880   2.913   4.611  0.1263 -0.3911  0.1734
 1030Sol     OW 7203   0.433   0.858   6.385  0.6378  0.4067 -0.1710
 1030Sol     HW 7204   0.347   0.880   6.349 -0.2300  0.1213  1.6921
 1030Sol     HW 7205   0.490   0.929   6.355  0.0357 -0.0193 -2.4033
 1030Sol     MW 7206   0.430   0.866   6.379 -0.1276 -0.6058  0.0919
 1031Sol     OW 7207   2.918   0.517   7.881 -0.6091  0.1545 -0.2304
 1031Sol     HW 7208   2.975   0.582   7.839  0.3069 -0.7087 -0.3165
 1031Sol     HW 7209   2.829   0.550   7.865 -0.2115  0.5650 -1.6427
 1031Sol     MW 7210   2.915   0.526   7.876  0.0748 -0.1267  0.1001
 1032Sol     OW 7211   3.293   2.727   2.883  0.3187 -0.3866  0.8521
 1032Sol     HW 7212   3.296   2.743   2.788  0.1224  0.3311  0.9587
 1032Sol     HW 7213   3.328   2.807   2.921  0.7527 -0.8262  1.3774
 1032Sol     MW 7214   3.296   2.736   2.878  0.1402 -0.6463  0.1070
 1033Sol     OW 7215   2.154   0.502   3.431  0.9826 -0.1126 -0.0274
 1033Sol     HW 7216   2.242   0.533   3.454  2.4875 -2.1310 -2.8582
 1033Sol     HW 7217   2.139   0.538   3.343 -0.3811 -1.0999 -0.1964
 1033Sol     MW 7218   2.161   0.508   3.425  0.5569  0.1373 -0.5095
 1034Sol     OW 7219   0.929   3.288   1.855  0.1344 -0.0411 -0.1772
 1034Sol     HW 7220   0.917   3.363   1.797 -0.4841  0.0802  0.1087
 1034Sol     HW 7221   0.851   3.235   1.842 -0.3540  0.3617  1.1117
 1034Sol     MW 7222   0.921   3.290   1.849 -0.2917 -0.8341  0.2895
 1035Sol     OW 7223   2.324   0.639   8.335 -0.2065 -0.1300  0.7131
 1035Sol     HW 7224   2.403   0.606   8.292 -0.6820 -0.0122 -0.2538
 1035Sol     HW 7225   2.307   0.723   8.292 -1.7599 -0.8904 -0.1752
 1035Sol     MW 7226   2.330   0.644   8.328  0.1180 -0.7015  0.5640
 1036Sol     OW 7227   0.013   2.754   2.530  0.7076  0.0994 -0.0650
 1036Sol     HW 7228  -0.012   2.791   2.445  1.8842 -0.7914 -0.8241
 1036Sol     HW 7229  -0.019   2.663   2.527  1.4114 -0.1605  0.1281
 1036Sol     MW 7230   0.008   2.749   2.522 -0.5172  0.1743  0.2658
 1037Sol     OW 7231   2.544   2.072   8.259 -0.2478 -0.0525 -0.0899
 1037Sol     HW 7232   2.458   2.059   8.298 -0.5181  0.0110 -0.6730
 1037Sol     HW 7233   2.605   2.052   8.330 -0.7318 -0.4364  0.2206
 1037Sol     MW 7234   2.542   2.069   8.269 -0.0423 -0.2515  0.1287
 1038Sol     OW 7235   2.466   2.293   8.108  0.2090 -0.1270  0.1596
 1038Sol     HW 7236   2.438   2.242   8.032 -0.0474 -0.2387  0.3265
 1038Sol     HW 7237   2.485   2.227   8.175  2.9080 -0.1796 -0.6093
 1038Sol     MW 7238   2.465   2.282   8.107 -0.1872  0.2334 -0.1512
 1039Sol     OW 7239   0.072   1.079   9.769 -0.2564  0.0937  0.2725
 1039Sol     HW 7240   0.061   1.154   9.827  1.2559  0.3101  0.2879
 1039Sol     HW 7241   0.055   1.003   9.825  0.2832  0.3419  0.7838
 1039Sol     MW 7242   0.069   1.079   9.779  0.6319 -0.5968 -0.3167
 1040Sol     OW 7243   2.474   2.963   9.593 -0.4882  0.4189  0.2351
 1040Sol     HW 7244   2.542   2.987   9.655 -0.7989 -1.4098  1.3089
 1040Sol     HW 7245   2.398   2.941   9.647 -0.9615 -0.5781 -0.8051
 1040Sol     MW 7246   2.473   2.963   9.603  0.0441  0.0820  0.1321
 1041Sol     OW 7247   0.444   2.321   5.681 -0.3510  0.0276 -0.0166
 1041Sol     HW 7248   0.501   2.256   5.722  0.9571  1.2418  0.1533
 1041Sol     HW 7249   0.493   2.349   5.603 -0.9732  0.6899 -0.1747
 1041Sol     MW 7250   0.454   2.318   5.678 -0.1039 -0.2970 -0.6494
 1042Sol     OW 7251   1.024   3.428   2.768  0.1912 -0.4478  0.1056
 1042Sol     HW 7252   1.049   3.462   2.854  1.4374  1.2075 -0.8818
 1042Sol     HW 7253   1.087   3.468   2.707 -0.5864 -1.7038 -1.5542
 1042Sol     MW 7254   1.032   3.435   2.770  0.0199  0.0815 -0.3318
 1043Sol     OW 7255   1.927   2.420   4.862  0.1933 -0.7701 -0.4640
 1043Sol     HW 7256   1.950   2.454   4.949  0.1615 -0.7943 -0.4460
 1043Sol     HW 7257   1.968   2.481   4.801  0.4544 -0.9118 -0.4321
 1043Sol     MW 7258   1.933   2.429   4.864  0.2601  0.4786 -0.0627
 1044Sol     OW 7259   2.302   1.404   7.717 -0.4806 -0.5699 -0.2363
 1044Sol     HW 7260   2.283   1.372   7.629 -2.6976 -0.7911  0.2761
 1044Sol     HW 7261   2.397   1.398   7.726 -0.3552 -1.6440 -2.1903
 1044Sol     MW 7262   2.309   1.400   7.710 -0.2860  0.3641  0.2058
 1045Sol     OW 7263   0.931   3.199   3.440 -0.1497  0.1007 -0.2247
 1045Sol     HW 7264   0.923   3.104   3.438  1.5946 -0.0564 -0.0385
 1045Sol     HW 7265   0.859   3.228   3.497  1.0275 -1.3082  2.0143
 1045Sol     MW 7266   0.923   3.193   3.445 -0.1188  0.5495  1.0583
 1046Sol     OW 7267   0.202   2.596   3.650 -0.7258  0.3345  0.1408
 1046Sol     HW 7268   0.155   2.607   3.733  0.7236 -0.6706  1.1104
 1046Sol     HW 7269   0.279   2.652   3.659 -0.3421 -0.1169 -0.3633
 1046Sol     MW 7270   0.204   2.602   3.658 -0.7807  0.7212 -0.2005
 1047Sol     OW 7271   0.106   0.946   5.757 -0.5836 -0.0276 -0.2691
 1047Sol     HW 7272   0.148   1.015   5.705  1.8401 -0.6474  0.8254
 1047Sol     HW 7273   0.031   0.990   5.798  0.0768  1.5855 -0.7441
 1047Sol     MW 7274   0.103   0.956   5.756  0.0242  0.3312 -0.1574
 1048Sol     OW 7275   1.251   2.886   1.981  0.4033 -0.3714 -0.4397
 1048Sol     HW 7276   1.320   2.914   1.921 -0.2355 -0.0134 -1.0208
 1048Sol     HW 7277   1.170   2.901   1.933 -0.2253  1.4946  1.1177
 1048Sol     MW 7278   1.250   2.890   1.971 -0.8210 -0.5126 -0.4569
 1049Sol     OW 7279   2.955   1.549   4.617  0.0253 -0.1709  0.0276
 1049Sol     HW 7280   2.862   1.560   4.595 -0.2140 -1.3723  0.4254
 1049Sol     HW 7281   2.957   1.474   4.676  1.0825  0.7856  1.2284
 1049Sol     MW 7282   2.947   1.543   4.620  0.1949 -0.3913  0.0675
 1050Sol     OW 7283   2.652   0.591   8.212 -0.2289  0.0498  0.2127
 1050Sol     HW 7284   2.583   0.537   8.173 -0.0106  0.0225 -0.1389
 1050Sol     HW 7285   2.733   0.543   8.192  0.0584  1.0175 -0.9627
 1050Sol     MW 7286   2.653   0.582   8.207 -0.5025 -0.7066 -0.4797
 1051Sol     OW 7287   2.450   1.269   1.811  0.1254 -0.3998  0.2299
 1051Sol     HW 7288   2.486   1.182   1.794 -0.7562 -0.4989 -1.2056
 1051Sol     HW 7289   2.357   1.254   1.827 -0.4102  0.4553 -1.8843
 1051Sol     MW 7290   2.445   1.260   1.811 -0.0425  0.0661 -0.0111
 1052Sol     OW 7291   2.486   2.025   6.295  0.0714 -0.6110  0.6988
 1052Sol     HW 7292   2.489   2.087   6.368 -2.3726  0.2751  0.0824
 1052Sol     HW 7293   2.541   2.065   6.228 -0.8919  0.5399  0.5870
 1052Sol     MW 7294   2.492   2.034   6.295 -0.3816 -0.0113 -0.1090
 1053Sol     OW 7295   0.511   2.779   9.611 -0.8324 -0.7840 -0.4179
 1053Sol     HW 7296   0.472   2.845   9.667 -0.3266  0.3544 -1.3726
 1053Sol     HW 7297   0.601   2.810   9.596 -0.4925 -1.8350 -0.6272
 1053Sol     MW 7298   0.516   2.787   9.614  0.3030 -0.0167 -0.1753
 1054Sol     OW 7299   2.911   0.312   3.725 -0.1122 -0.3535 -0.3978
 1054Sol     HW 7300   2.818   0.313   3.747 -0.0416 -3.2639  0.1702
 1054Sol     HW 7301   2.949   0.381   3.780 -1.9898  1.3723 -1.1759
 1054Sol     MW 7302   2.906   0.319   3.732 -0.1898 -0.2062 -0.0052
 1055Sol     OW 7303   2.705   3.393   4.197  0.0371 -0.1864  0.2014
 1055Sol     HW 7304   2.730   3.338   4.123  0.7457 -1.4337  1.3584
 1055Sol     HW 7305   2.758   3.472   4.188  1.4348 -1.0976  0.3738
 1055Sol     MW 7306   2.712   3.395   4.190  0.2577 -0.9259  0.1272
 1056Sol     OW 7307   2.352   0.482   3.987  0.0332  0.8654  0.1735
 1056Sol     HW 7308   2.374   0.552   3.926  0.0566 -0.1969 -1.0440
 1056Sol     HW 7309   2.264   0.454   3.961  0.8124 -0.8953 -0.6217
 1056Sol     MW 7310   2.346   0.486   3.979  0.4516  0.6401 -0.9066
 1057Sol     OW 7311   2.298   1.710   8.071 -0.1660  0.0871 -0.3390
 1057Sol     HW 7312   2.216   1.670   8.101  0.6504 -1.1569  0.2799
 1057Sol     HW 7313   2.301   1.691   7.977 -1.0153  0.9303 -0.5493
 1057Sol     MW 7314   2.291   1.705   8.065 -0.0102 -0.5106 -0.5687
 1058Sol     OW 7315   2.231   3.297   5.120 -0.4422 -0.3765  0.1862
 1058Sol     HW 7316   2.191   3.221   5.163  0.6748 -0.4344  1.1674
 1058Sol     HW 7317   2.208   3.288   5.028 -1.8144 -0.9475  0.5699
 1058Sol     MW 7318   2.225   3.289   5.116  0.0428  0.5566  0.3877
 1059Sol     OW 7319   0.293   0.908   8.381 -0.0666 -0.3226 -0.3360
 1059Sol     HW 7320   0.349   0.881   8.453  0.4265 -0.9440 -0.9365
 1059Sol     HW 7321   0.208   0.928   8.422  0.1999 -0.6878  0.4041
 1059Sol     MW 7322   0.290   0.907   8.391 -0.0263 -0.3849 -0.3192
 1060Sol     OW 7323   0.331   2.365   3.313  0.6233 -0.1319  0.1035
 1060Sol     HW 7324   0.346   2.449   3.270 -0.3733  0.2659  0.5217
 1060Sol     HW 7325   0.248   2.334   3.276  1.1272 -1.0617 -0.2566
 1060Sol     MW 7326   0.325   2.370   3.305 -0.0095  0.1730 -0.1342
 1061Sol     OW 7327   2.111   3.178   7.668  0.3238  0.0088  0.2631
 1061Sol     HW 7328   2.142   3.120   7.736 -1.2506 -0.7129  0.3977
 1061Sol     HW 7329   2.189   3.225   7.638  1.0864  0.0388  2.2561
 1061Sol     MW 7330   2.120   3.177   7.671 -0.5423  0.4568  0.3264
 1062Sol     OW 7331   1.660   2.558   8.199  0.2168  0.2733 -0.2695
 1062Sol     HW 7332   1.657   2.464   8.215 -0.3026  0.5113  1.1054
 1062Sol     HW 7333   1.609   2.571   8.119 -1.6543 -0.3575  0.8064
 1062Sol     MW 7334   1.656   2.551   8.193 -0.4869  0.0471 -0.1049
 1063Sol     OW 7335   2.591   2.416   1.971 -0.6220  0.1688 -0.2215
 1063Sol     HW 7336   2.661   2.390   1.911  0.3031  2.2558 -0.0955
 1063Sol     HW 7337   2.534   2.472   1.918 -1.2189 -0.0708  0.1616
 1063Sol     MW 7338   2.592   2.419   1.961  0.7677  0.1019  0.5097
 1064Sol     OW 7339   1.971   0.681   4.419  0.0824  0.2453 -0.0070
 1064Sol     HW 7340   2.012   0.761   4.384 -0.8407 -0.1003 -1.9716
 1064Sol     HW 7341   1.880   0.685   4.387  0.2523 -2.0064 -0.8641
 1064Sol     MW 7342   1.966   0.689   4.413 -0.2241  0.3370 -0.2504
 1065Sol     OW 7343   3.280   2.810   8.254 -0.4986  0.0096  0.7578
 1065Sol     HW 7344   3.358   2.780   8.301 -0.5249 -2.4640 -0.7199
 1065Sol     HW 7345   3.209   2.755   8.286 -1.2533  0.8849  0.6039
 1065Sol     MW 7346   3.281   2.803   8.261 -1.0120 -0.7176  0.0045
 1066Sol     OW 7347   2.624   3.323   9.491 -0.5710  0.3669  0.1161
 1066Sol     HW 7348   2.692   3.340   9.426 -0.6681 -0.9548 -0.3457
 1066Sol     HW 7349   2.554   3.279   9.442 -1.8104  1.7893  0.5535
 1066Sol     MW 7350   2.624   3.320   9.481  0.2692 -0.2487 -0.5173
 1067Sol     OW 7351   2.415   1.253   4.374 -0.1103 -0.3236  0.0180
 1067Sol     HW 7352   2.413   1.210   4.288  0.2715 -0.3862  0.0392
 1067Sol     HW 7353   2.502   1.292   4.379  0.0050 -0.6428  0.5379
 1067Sol     MW 7354   2.423   1.252   4.367 -0.0494 -0.1596 -0.0519
 1068Sol     OW 7355   0.373   1.492   4.131 -0.7582  0.4160  0.3265
 1068Sol     HW 7356   0.408   1.563   4.185  1.4481  0.0130 -0.5612
 1068Sol     HW 7357   0.289   1.526   4.100  0.5133  2.8852 -0.5556
 1068Sol     MW 7358   0.368   1.501   4.133  0.1828 -0.4595  0.6254
 1069Sol     OW 7359   1.844   0.219   6.163  0.1907 -0.2880  0.0682
 1069Sol     HW 7360   1.809   0.191   6.247  0.5161  0.7885  0.5704
 1069Sol     HW 7361   1.834   0.315   6.163 -1.5024 -0.4224 -1.8701
 1069Sol     MW 7362   1.840   0.225   6.170  0.4204 -0.1405  0.3136
 1070Sol     OW 7363   1.104   3.304   9.132  0.5986 -0.5798  0.2076
 1070Sol     HW 7364   1.167   3.375   9.148 -0.4215  0.2489  0.6557
 1070Sol     HW 7365   1.113   3.284   9.039  0.7091  0.3548  0.0064
 1070Sol     MW 7366   1.110   3.309   9.125  0.1636  0.4836 -0.6053
 1071Sol     OW 7367   0.026   1.939   5.438  0.5348 -0.3939  0.0888
 1071Sol     HW 7368  -0.066   1.936   5.465  0.9849  1.0512  1.8439
 1071Sol     HW 7369   0.024   1.915   5.345 -1.6315 -0.1822  0.0534
 1071Sol     MW 7370   0.017   1.936   5.432  0.5309  0.0371  0.4577
 1072Sol     OW 7371   1.769   2.500   6.788 -0.0966 -0.2601  0.1253
 1072Sol     HW 7372   1.826   2.527   6.716 -1.3870  1.1799 -0.3914
 1072Sol     HW 7373   1.797   2.555   6.862 -2.0374  1.8649 -0.6480
 1072Sol     MW 7374   1.777   2.508   6.788 -0.1499  0.4115 -0.1908
 1073Sol     OW 7375   0.783   0.892   5.626  0.0801  0.1079 -0.7107
 1073Sol     HW 7376   0.757   0.800   5.619  0.0486  0.0929 -0.4213
 1073Sol     HW 7377   0.879   0.890   5.623  0.0980  0.0172 -0.2123
 1073Sol     MW 7378   0.789   0.883   5.625 -0.2052 -0.1869 -0.8480
 1074Sol     OW 7379   1.220   0.668   4.145  0.2868 -0.1925 -0.0511
 1074Sol     HW 7380   1.192   0.721   4.220 -2.5488 -1.0595 -0.4208
 1074Sol     HW 7381   1.233   0.731   4.074 -0.0373  0.3266  0.3500
 1074Sol     MW 7382   1.219   0.679   4.145  0.6046  0.0636 -0.5702
 1075Sol     OW 7383   3.120   3.329   1.908 -0.3785  0.4502 -0.0423
 1075Sol     HW 7384   3.119   3.324   2.003  0.1030  1.5948  0.0316
 1075Sol     HW 7385   3.212   3.318   1.884 -0.6397 -0.9455 -0.4503
 1075Sol     MW 7386   3.128   3.328   1.914 -0.3923  0.0296 -0.0873
 1076Sol     OW 7387   1.147   2.708   5.033  0.2770 -1.0539  0.4469
 1076Sol     HW 7388   1.164   2.692   4.940 -0.6746  0.3070  0.0396
 1076Sol     HW 7389   1.227   2.751   5.064  0.4277 -1.1254  0.1657
 1076Sol     MW 7390   1.156   2.710   5.027  0.7789  0.0823 -0.0310
 1077Sol     OW 7391   2.146   2.472   7.008 -0.2016 -0.1531  0.3275
 1077Sol     HW 7392   2.154   2.458   6.914 -2.6519 -1.0818  0.2103
 1077Sol     HW 7393   2.169   2.387   7.047  0.1150  0.0241  0.5320
 1077Sol     MW 7394   2.149   2.463   7.003 -0.0671 -0.6188  1.1270
 1078Sol     OW 7395   3.231   1.884   2.803  0.7254 -0.7916  0.9380
 1078Sol     HW 7396   3.278   1.960   2.768  0.5892 -0.1629  2.0969
 1078Sol     HW 7397   3.299   1.824   2.831  0.8390 -0.4242  1.4551
 1078Sol     MW 7398   3.241   1.886   2.802 -0.3645 -0.1841  0.4729
 1079Sol     OW 7399   1.029   2.058   4.996 -0.6969  0.3955  0.0656
 1079Sol     HW 7400   0.990   2.132   5.042  0.1385  0.8263  0.0963
 1079Sol     HW 7401   1.076   2.010   5.063  1.5809  1.7237 -0.5036
 1079Sol     MW 7402   1.030   2.061   5.006 -0.3057  0.9281  0.3865
 1080Sol     OW 7403   1.905   0.103   1.785 -0.5473 -0.0166 -0.1217
 1080Sol     HW 7404   1.959   0.038   1.830 -0.3526 -1.1830 -2.0329
 1080Sol     HW 7405   1.950   0.120   1.703 -2.2605  0.1262 -1.0626
 1080Sol     MW 7406   1.914   0.098   1.782  0.4431  0.2502 -0.1190
 1081Sol     OW 7407   2.688   1.454   5.309  0.2955 -0.3520 -0.3596
 1081Sol     HW 7408   2.598   1.430   5.285 -0.3345  0.6222  0.9672
 1081Sol     HW 7409   2.740   1.376   5.290 -0.7625 -0.7841 -1.5226
 1081Sol     MW 7410   2.685   1.445   5.305  0.3819 -0.1586 -0.4713
 1082Sol     OW 7411   1.553   3.251   8.225 -0.0870 -0.1872 -0.0989
 1082Sol     HW 7412   1.559   3.302   8.306 -0.8231  0.8016 -0.6464
 1082Sol     HW 7413   1.499   3.305   8.167  2.4617  0.2713 -2.1285
 1082Sol     MW 7414   1.548   3.261   8.227 -0.1213 -0.0912  0.7560
 1083Sol     OW 7415   0.006   0.802   8.996 -0.3107 -0.5610  0.1881
 1083Sol     HW 7416  -0.044   0.723   9.017  0.0733 -1.2098 -1.3063
 1083Sol     HW 7417  -0.017   0.822   8.905 -0.4655  1.0967  0.5679
 1083Sol     MW 7418  -0.001   0.797   8.990 -0.3282  0.0428 -0.7478
 1084Sol     OW 7419   2.584   0.318   4.028  0.9936  0.0312 -0.2753
 1084Sol     HW 7420   2.603   0.302   3.935  2.1771  2.0048 -0.3832
 1084Sol     HW 7421   2.500   0.364   4.027  1.2875  0.5661 -0.4036
 1084Sol     MW 7422   2.578   0.321   4.019  0.0371  0.3018  0.3703
 1085Sol     OW 7423   2.866   3.267   2.800 -0.3542  0.6046  0.3534
 1085Sol     HW 7424   2.788   3.284   2.747  0.6662 -0.6149 -1.5780
 1085Sol     HW 7425   2.879   3.172   2.793  1.6289  0.8734  0.1882
 1085Sol     MW 7426   2.860   3.260   2.795 -0.4814  0.1974  0.0268
 1086Sol     OW 7427   0.771   2.752   6.412  0.0592  0.0267 -0.8313
 1086Sol     HW 7428   0.746   2.838   6.378 -4.4024 -0.9340 -0.2974
 1086Sol     HW 7429   0.785   2.767   6.505 -0.8870  0.1786 -0.7044
 1086Sol     MW 7430   0.770   2.761   6.417 -0.0358  0.2951  0.4887
 1087Sol     OW 7431   1.396   1.223   5.508  0.1223  0.2382  0.2694
 1087Sol     HW 7432   1.456   1.298   5.511  1.2755 -0.6247 -0.5889
 1087Sol     HW 7433   1.442   1.154   5.555 -0.2818 -0.3836 -0.2417
 1087Sol     MW 7434   1.405   1.224   5.512 -0.7121 -0.3513  0.2135
 1088Sol     OW 7435   2.956   3.196   9.363 -0.4568  0.4770  0.2976
 1088Sol     HW 7436   3.037   3.183   9.315 -0.3072  0.3469  0.5810
 1088Sol     HW 7437   2.890   3.149   9.312  0.0437 -1.2568  1.1953
 1088Sol     MW 7438   2.957   3.190   9.354 -0.5686  0.0010  0.0086
 1089Sol     OW 7439   0.025   2.118   8.704 -0.2758  0.0130 -0.2993
 1089Sol     HW 7440   0.111   2.106   8.744 -0.9021 -1.3453  0.7197
 1089Sol     HW 7441  -0.000   2.208   8.725  0.8069  0.3552 -0.4517
 1089Sol     MW 7442   0.030   2.125   8.710  0.4243 -0.0554  0.0849
 1090Sol     OW 7443   0.957   0.519   4.327 -0.1389  0.2649  0.3257
 1090Sol     HW 7444   0.889   0.485   4.386  1.1699 -1.2353  0.9990
 1090Sol     HW 7445   0.908   0.564   4.258 -1.7635  0.4884  1.5903
 1090Sol     MW 7446   0.947   0.520   4.326 -0.0852  0.2285 -0.0220
 1091Sol     OW 7447   2.608   0.099   9.099  0.7238  0.1477  0.1330
 1091Sol     HW 7448   2.605   0.150   9.179 -2.5236  0.0469  0.1516
 1091Sol     HW 7449   2.601   0.163   9.029 -0.0694 -0.0178  0.0561
 1091Sol     MW 7450   2.607   0.109   9.100  0.3581  0.2992 -0.3409
 1092Sol     OW 7451   1.936   1.775   2.798 -0.3267 -0.3967 -0.5442
 1092Sol     HW 7452   2.020   1.776   2.844 -1.0008 -0.8199  0.7147
 1092Sol     HW 7453   1.950   1.718   2.722  0.2632 -1.1808  0.1547
 1092Sol     MW 7454   1.945   1.770   2.795  0.1770 -0.3103  0.3785
 1093Sol     OW 7455   0.041   1.246   8.932 -0.0326  0.1322 -0.3635
 1093Sol     HW 7456  -0.005   1.221   9.012 -2.2580 -1.0236 -1.9339
 1093Sol     HW 7457  -0.002   1.327   8.904  2.0505  1.6102  0.6319
 1093Sol     MW 7458   0.033   1.251   8.936  0.0610  0.0514 -0.0273
 1094Sol     OW 7459   0.611   1.485   2.479  0.0885 -0.6789  0.0136
 1094Sol     HW 7460   0.604   1.551   2.410 -0.3732  0.5901  1.2346
 1094Sol     HW 7461   0.529   1.494   2.528  0.3125 -1.7131  0.5824
 1094Sol     MW 7462   0.603   1.492   2.477  0.4675  0.0814  0.3748
 1095Sol     OW 7463   0.300   0.830   9.468  0.1669  0.2905 -0.2656
 1095Sol     HW 7464   0.374   0.776   9.495 -1.0655 -0.5768  1.4917
 1095Sol     HW 7465   0.329   0.920   9.482  1.2628 -0.0067 -0.6075
 1095Sol     MW 7466   0.309   0.833   9.471 -0.1405 -0.4301  0.2392
 1096Sol     OW 7467   1.105   2.481   2.581  0.1544  0.1872  0.0511
 1096Sol     HW 7468   1.115   2.576   2.590  2.9991 -0.0936  0.1957
 1096Sol     HW 7469   1.089   2.468   2.488  0.7450  0.7390 -0.1330
 1096Sol     MW 7470   1.104   2.489   2.574 -0.3311  0.0782  0.0160
 1097Sol     OW 7471   2.397   3.059   4.620 -0.3676  0.4575 -0.1007
 1097Sol     HW 7472   2.425   2.978   4.576  0.3627  0.6955 -0.0819
 1097Sol     HW 7473   2.333   3.097   4.560  0.8236  0.9176 -1.1052
 1097Sol     MW 7474   2.394   3.055   4.610 -0.4963  0.4151 -0.6630
 1098Sol     OW 7475   1.065   1.383   4.718  0.0646  0.2420  0.2317
 1098Sol     HW 7476   1.154   1.407   4.695  0.0915 -0.7455 -0.6906
 1098Sol     HW 7477   1.037   1.322   4.650 -1.3423  0.5974  0.4596
 1098Sol     MW 7478   1.070   1.380   4.710 -0.0362 -0.1263  0.4522
 1099Sol     OW 7479   2.662   1.102   6.532  0.2885  0.5837 -0.1145
 1099Sol     HW 7480   2.639   1.090   6.440  0.3362  0.8375 -0.1594
 1099Sol     HW 7481   2.675   1.013   6.564  4.9374  0.6202 -1.5614
 1099Sol     MW 7482   2.661   1.093   6.526  0.0600 -0.2988  0.0437
 1100Sol     OW 7483   1.605   1.105   4.848  0.5411  0.2708  0.0829
 1100Sol     HW 7484   1.666   1.044   4.890  1.5611  0.2372 -1.4353
 1100Sol     HW 7485   1.657   1.184   4.833 -0.9137  1.7645  2.5225
 1100Sol     MW 7486   1.615   1.107   4.851  0.1283 -0.1302  0.1628
 1101Sol     OW 7487   0.893   0.009   6.310  0.0881  0.0077 -0.2811
 1101Sol     HW 7488   0.910  -0.035   6.226  0.3011 -0.9683  0.2690
 1101Sol     HW 7489   0.895   0.103   6.288  0.8972 -0.2138 -1.2314
 1101Sol     MW 7490   0.895   0.014   6.300 -0.4851  0.5028 -0.0910
 1102Sol     OW 7491   2.130   3.041   7.101  0.0063  0.3466 -0.5641
 1102Sol     HW 7492   2.224   3.059   7.100  0.2412 -0.6928  0.8266
 1102Sol     HW 7493   2.103   3.063   7.190 -1.0203  0.3626 -0.8749
 1102Sol     MW 7494   2.136   3.045   7.109 -1.1016 -0.2561 -0.4307
 1103Sol     OW 7495   1.853   3.172   5.787  0.1714 -0.2409  0.0914
 1103Sol     HW 7496   1.808   3.089   5.803 -3.5149  1.6836  0.3737
 1103Sol     HW 7497   1.885   3.199   5.873  0.2025 -0.7333  0.2339
 1103Sol     MW 7498   1.852   3.167   5.796 -0.3294  0.0809 -0.2472
 1104Sol     OW 7499   0.791   3.326   6.851  0.1269  0.3137 -0.1693
 1104Sol     HW 7500   0.843   3.327   6.771  0.7213 -4.2123  0.0447
 1104Sol     HW 7501   0.706   3.292   6.825  0.1594 -0.7138  1.0042
 1104Sol     MW 7502   0.788   3.323   6.842 -0.1724 -0.3637  0.0856
 1105Sol     OW 7503   3.327   0.362   8.527  0.1518 -0.4328 -0.8481
 1105Sol     HW 7504   3.321   0.456   8.544  1.5981 -0.2987 -1.0268
 1105Sol     HW 7505   3.419   0.341   8.542 -0.1958 -1.8561 -0.6551
 1105Sol     MW 7506   3.335   0.369   8.530 -0.1220 -0.3890 -0.1082
 1106Sol     OW 7507   0.579   0.759   6.854 -0.0923  0.1320  0.4806
 1106Sol     HW 7508   0.634   0.782   6.779  0.4619 -0.5468  0.6667
 1106Sol     HW 7509   0.624   0.796   6.930  2.0060 -3.2933  1.0610
 1106Sol     MW 7510   0.588   0.764   6.854  0.2253 -0.0321  0.3004
 1107Sol     OW 7511   0.125   1.830   9.670 -0.1686 -0.0607 -0.0236
 1107Sol     HW 7512   0.219   1.811   9.677  0.4335  1.7928 -2.4784
 1107Sol     HW 7513   0.110   1.842   9.576 -3.3579 -2.5658  0.1017
 1107Sol     MW 7514   0.132   1.829   9.662 -0.2809 -0.5782  0.7517
 1108Sol     OW 7515   2.708   0.990   9.255  0.0612  0.3437 -0.1333
 1108Sol     HW 7516   2.777   1.040   9.211  0.6263 -0.1037  0.2445
 1108Sol     HW 7517   2.627   1.015   9.209  0.1300  2.7169  1.0054
 1108Sol     MW 7518   2.707   0.996   9.247 -0.4908  0.6610  0.0899
 1109Sol     OW 7519   0.398   1.238   4.803  0.1781 -0.7158  0.3404
 1109Sol     HW 7520   0.436   1.324   4.786 -0.2886 -0.3529  1.0810
 1109Sol     HW 7521   0.388   1.198   4.717 -0.1469  0.2101 -0.0560
 1109Sol     MW 7522   0.400   1.242   4.794  0.1595 -0.1666 -0.2695
 1110Sol     OW 7523   2.238   1.305   6.080 -0.0367 -0.1936 -0.0118
 1110Sol     HW 7524   2.260   1.393   6.112  1.0667 -0.1424 -0.8979
 1110Sol     HW 7525   2.244   1.249   6.158  2.4790 -0.0419 -0.0422
 1110Sol     MW 7526   2.241   1.308   6.090  0.1083  0.3068  0.6842
 1111Sol     OW 7527   1.069   0.668   6.333  0.0352  0.2145 -0.2112
 1111Sol     HW 7528   1.120   0.744   6.361  0.5375 -0.3844  0.5352
 1111Sol     HW 7529   1.089   0.601   6.399 -2.2032  0.1713  0.4409
 1111Sol     MW 7530   1.076   0.668   6.341 -0.4937  0.2835 -0.1542
 1112Sol     OW 7531   0.788   0.672   7.137 -0.6143 -0.3145 -0.1353
 1112Sol     HW 7532   0.738   0.745   7.174  0.3248  0.0524  0.4185
 1112Sol     HW 7533   0.819   0.705   7.052 -0.2693 -0.0957  0.0733
 1112Sol     MW 7534   0.786   0.681   7.133  0.4649  0.2839 -0.1833
 1113Sol     OW 7535   3.218   0.639   6.132 -0.3306  0.1333 -0.2596
 1113Sol     HW 7536   3.183   0.725   6.112 -0.1022  0.0792 -0.8950
 1113Sol     HW 7537   3.312   0.648   6.120 -0.3737 -0.3926 -1.0426
 1113Sol     MW 7538   3.223   0.647   6.129  0.0089 -0.3485 -0.0630
 1114Sol     OW 7539   0.226   2.274   2.627  0.5253  0.1991  1.0015
 1114Sol     HW 7540   0.166   2.323   2.683 -0.4446  0.3533 -0.1649
 1114Sol     HW 7541   0.301   2.254   2.684  0.1733  1.5429  1.9572
 1114Sol     MW 7542   0.228   2.276   2.637  0.5899 -0.1468 -0.0604
 1115Sol     OW 7543   0.796   1.215   5.054 -0.1938 -0.4755  0.1985
 1115Sol     HW 7544   0.787   1.149   4.986 -0.4518 -1.2057  0.9382
 1115Sol     HW 7545   0.854   1.281   5.016 -0.9962 -0.4680 -1.0341
 1115Sol     MW 7546   0.800   1.215   5.045 -0.0568  0.7326 -0.1296
 1116Sol     OW 7547   1.815   1.406   6.158 -0.5792 -0.3103  0.2290
 1116Sol     HW 7548   1.884   1.379   6.098 -0.4770 -1.1826  0.7288
 1116Sol     HW 7549   1.783   1.489   6.122 -0.1460 -0.5413 -0.7089
 1116Sol     MW 7550   1.818   1.411   6.150 -0.4632  0.2248  0.2766
 1117Sol     OW 7551   0.534   0.626   7.947 -0.6485 -0.0698  0.7007
 1117Sol     HW 7552   0.512   0.586   7.863 -0.3785 -2.1600  1.5944
 1117Sol     HW 7553   0.599   0.692   7.926 -0.8187 -0.3534 -0.7700
 1117Sol     MW 7554   0.538   0.628   7.938 -0.7537  0.4469  0.1025
 1118Sol     OW 7555   2.741   0.852   6.160 -0.0203  0.3430 -0.0145
 1118Sol     HW 7556   2.802   0.880   6.092  0.1830 -2.3856 -0.9991
 1118Sol     HW 7557   2.658   0.839   6.114  0.6979 -3.8344 -0.2770
 1118Sol     MW 7558   2.739   0.854   6.150 -0.0676 -0.6122  0.0326
 1119Sol     OW 7559   2.038   1.766   5.636 -0.4383  0.5416 -0.1371
 1119Sol     HW 7560   1.962   1.824   5.631 -1.4687 -0.6870  0.6708
 1119Sol     HW 7561   2.079   1.787   5.720 -0.5991  0.3590 -0.0126
 1119Sol     MW 7562   2.035   1.773   5.644  0.5257 -0.1266  0.3786
 1120Sol     OW 7563   1.024   2.783   7.061 -0.0932 -0.2672  0.4182
 1120Sol     HW 7564   1.017   2.823   6.975  0.4966  1.1953  1.0370
 1120Sol     HW 7565   1.048   2.855   7.120  1.9821 -1.6927  1.3919
 1120Sol     MW 7566   1.026   2.793   7.059 -0.3508 -0.3609 -0.4851
 1121Sol     OW 7567   1.548   2.861   8.178 -0.4155  0.2287 -0.6629
 1121Sol     HW 7568   1.551   2.846   8.273 -1.3183  0.2686 -0.6224
 1121Sol     HW 7569   1.621   2.921   8.161 -1.3874  1.7111  0.2909
 1121Sol     MW 7570   1.555   2.865   8.185  0.4536 -0.5373  0.0184
 1122Sol     OW 7571   1.633   1.607   5.784 -0.4286 -0.0370 -0.5883
 1122Sol     HW 7572   1.666   1.644   5.702 -0.9425 -0.4907 -0.9996
 1122Sol     HW 7573   1.546   1.574   5.762 -0.6237 -0.0357  0.1745
 1122Sol     MW 7574   1.628   1.608   5.774 -0.0330  0.0932  0.4960
 1123Sol     OW 7575   2.640   2.286   9.291  0.0557  0.1288 -0.1123
 1123Sol     HW 7576   2.703   2.323   9.229 -2.5086  1.0392 -2.2500
 1123Sol     HW 7577   2.603   2.362   9.335 -2.0371 -0.1375 -1.3613
 1123Sol     MW 7578   2.642   2.296   9.289  0.2906  0.0859  0.2115
 1124Sol     OW 7579   0.007   3.298   2.760 -0.1194  0.1996  0.4327
 1124Sol     HW 7580  -0.080   3.286   2.720  0.8885  0.6382 -1.9912
 1124Sol     HW 7581   0.048   3.212   2.755  0.4283  0.5096 -0.5280
 1124Sol     MW 7582   0.003   3.289   2.756 -0.0241  0.2907  0.1372
 1125Sol     OW 7583   1.235   0.634   7.966  0.0819  0.8721 -0.6120
 1125Sol     HW 7584   1.213   0.670   8.052 -0.2487 -1.5352  0.3533
 1125Sol     HW 7585   1.154   0.642   7.916 -0.3030  0.5527 -0.0594
 1125Sol     MW 7586   1.225   0.638   7.970  0.6780 -0.1435  0.2901
 1126Sol     OW 7587   2.545   2.581   5.894 -0.1347 -0.1071  0.3027
 1126Sol     HW 7588   2.550   2.492   5.858  0.2483 -0.0684  0.2615
 1126Sol     HW 7589   2.463   2.616   5.858 -0.1800 -0.3672  0.1487
 1126Sol     MW 7590   2.538   2.576   5.887  0.3141  0.3155  0.2649
 1127Sol     OW 7591   3.303   0.249   6.940 -0.2221  0.1194 -0.1404
 1127Sol     HW 7592   3.311   0.326   6.884 -0.6513  1.3852  1.4989
 1127Sol     HW 7593   3.381   0.252   6.996 -1.3515  0.6726  1.4683
 1127Sol     MW 7594   3.311   0.256   6.940 -0.0470  0.3318  0.2148
 1128Sol     OW 7595   3.087   3.332   2.641 -0.0508 -0.2652 -0.4578
 1128Sol     HW 7596   3.073   3.424   2.620 -0.1801 -0.1003  0.3604
 1128Sol     HW 7597   3.022   3.312   2.708  0.7204 -0.6538  0.1783
 1128Sol     MW 7598   3.080   3.338   2.645  0.0829 -0.7389  0.2589
 1129Sol     OW 7599   0.855   0.184   2.675 -0.0354  0.3724 -0.7050
 1129Sol     HW 7600   0.905   0.128   2.734 -1.9266 -1.6984 -0.9845
 1129Sol     HW 7601   0.907   0.187   2.595  2.1038  2.4623  0.6924
 1129Sol     MW 7602   0.864   0.179   2.673  0.5996  0.3272 -0.1513
 1130Sol     OW 7603   3.096   1.627   2.346 -0.3004 -0.3174 -0.1793
 1130Sol     HW 7604   3.049   1.675   2.277 -1.9814 -0.7969  0.5937
 1130Sol     HW 7605   3.060   1.538   2.340  2.2594 -1.3382 -1.1327
 1130Sol     MW 7606   3.088   1.623   2.339 -0.0009  0.3492  0.5950
 1131Sol     OW 7607   1.700   1.755   3.867  0.4204  0.2201  0.5406
 1131Sol     HW 7608   1.663   1.842   3.879  0.6317  0.3942 -0.0315
 1131Sol     HW 7609   1.774   1.751   3.927  1.2942  0.9681 -0.4465
 1131Sol     MW 7610   1.703   1.762   3.873 -0.5386  0.4006 -0.4307
 1132Sol     OW 7611   2.071   0.208   6.034  0.0900  0.4976  0.3140
 1132Sol     HW 7612   2.077   0.183   5.941  0.9233  1.6068  0.0555
 1132Sol     HW 7613   1.978   0.208   6.053 -0.1245  0.8793 -0.6995
 1132Sol     MW 7614   2.063   0.206   6.027 -0.3043  0.0426  0.1741
 1133Sol     OW 7615   1.338   0.598   9.987  0.2917  0.1338 -0.0455
 1133Sol     HW 7616   1.410   0.623   9.930  0.0076  3.0447  0.7651
 1133Sol     HW 7617   1.259   0.612   9.935  0.1347  0.9440  0.3887
 1133Sol     MW 7618   1.337   0.602   9.978  0.0408  0.1098 -0.2799
 1134Sol     OW 7619   0.917   3.306   6.036 -0.0543 -0.3142 -0.7350
 1134Sol     HW 7620   0.944   3.341   5.951 -1.1163  2.3296 -0.0494
 1134Sol     HW 7621   0.959   3.220   6.042  1.8285  0.4107 -2.9604
 1134Sol     MW 7622   0.923   3.301   6.029  0.0525  0.5596  0.3259
 1135Sol     OW 7623   0.668   1.185   6.634 -0.0359  0.2193  0.4273
 1135Sol     HW 7624   0.638   1.276   6.626 -1.0180 -0.2121 -0.9578
 1135Sol     HW 7625   0.641   1.144   6.552 -0.7995 -1.6822  1.6157
 1135Sol     MW 7626   0.663   1.190   6.626 -0.4405  0.7444  0.4459
 1136Sol     OW 7627   0.157   0.379   4.534  0.3297  0.3475 -0.0040
 1136Sol     HW 7628   0.147   0.473   4.546  2.0400  0.6616 -0.8149
 1136Sol     HW 7629   0.126   0.340   4.616 -3.9202  1.3338 -1.0143
 1136Sol     MW 7630   0.153   0.384   4.542 -0.5595 -0.0702  0.9526
 1137Sol     OW 7631   1.283   2.074   2.391  0.1050  0.4926 -0.0772
 1137Sol     HW 7632   1.192   2.065   2.420  0.7601 -1.7844  1.4963
 1137Sol     HW 7633   1.282   2.144   2.327 -2.5675  1.2970  0.7945
 1137Sol     MW 7634   1.275   2.079   2.388 -0.4644  0.1780 -0.0216
 1138Sol     OW 7635   2.835   3.029   7.718 -0.5426  0.4740  0.2254
 1138Sol     HW 7636   2.792   3.079   7.787 -2.0578 -0.0377 -0.3264
 1138Sol     HW 7637   2.764   2.989   7.669  0.5439  0.1792 -1.1532
 1138Sol     MW 7638   2.825   3.029   7.720  0.2195 -0.4066  0.0816
 1139Sol     OW 7639   0.190   2.000   5.825 -0.4049 -0.1244 -0.1029
 1139Sol     HW 7640   0.114   2.024   5.772 -0.3810 -0.9428 -0.5286
 1139Sol     HW 7641   0.153   1.956   5.901 -0.3887  0.0206 -0.0123
 1139Sol     MW 7642   0.180   1.998   5.827 -0.1493  0.0281  0.0246
 1140Sol     OW 7643   0.306   2.766   5.933  0.3026 -0.0824  0.0875
 1140Sol     HW 7644   0.295   2.828   5.861  1.4321  1.4284  1.1802
 1140Sol     HW 7645   0.328   2.683   5.890 -0.4939  0.4370 -1.3608
 1140Sol     MW 7646   0.307   2.764   5.923  0.4981  0.0868 -0.5283
 1141Sol     OW 7647   2.464   2.032   1.847  0.6192  0.3770  0.1700
 1141Sol     HW 7648   2.461   1.964   1.914 -1.0293 -0.9448 -1.1892
 1141Sol     HW 7649   2.382   2.080   1.856  1.4112  1.6741  0.5846
 1141Sol     MW 7650   2.457   2.030   1.854  0.2252 -0.1160 -0.3501
 1142Sol     OW 7651   3.172   1.518   9.199  0.0603  0.2767 -0.4252
 1142Sol     HW 7652   3.266   1.535   9.205  0.0209  0.6071 -0.7032
 1142Sol     HW 7653   3.161   1.473   9.115  0.1018 -0.6874  0.0879
 1142Sol     MW 7654   3.179   1.516   9.192  0.0407  0.4056 -0.2500
 1143Sol     OW 7655   1.503   1.342   9.244 -0.3880 -0.5820 -0.0141
 1143Sol     HW 7656   1.442   1.371   9.177 -0.0711 -0.0727 -0.0904
 1143Sol     HW 7657   1.458   1.271   9.290 -1.5238  0.5846  0.7160
 1143Sol     MW 7658   1.494   1.339   9.242  0.1980 -0.3159 -0.3249
 1144Sol     OW 7659   1.886   2.774   9.828 -0.5911  0.0331 -0.2936
 1144Sol     HW 7660   1.944   2.703   9.855 -0.7651  0.6135  1.6938
 1144Sol     HW 7661   1.808   2.764   9.882 -2.4366 -0.8071 -3.0237
 1144Sol     MW 7662   1.884   2.767   9.835  0.5919  0.5030 -0.2231
 1145Sol     OW 7663   0.525   1.754   9.486  0.3318  0.0345 -0.0953
 1145Sol     HW 7664   0.618   1.734   9.470  0.4109  0.9197 -0.7917
 1145Sol     HW 7665   0.478   1.678   9.453  0.7620 -0.0569 -0.5058
 1145Sol     MW 7666   0.529   1.746   9.482  0.1347 -0.1016  0.4562
 1146Sol     OW 7667   0.934   0.467   1.877 -0.0050  0.5023 -0.1101
 1146Sol     HW 7668   1.019   0.455   1.919 -1.1210 -0.4640  1.9704
 1146Sol     HW 7669   0.894   0.540   1.924 -1.5644 -1.0488  1.0583
 1146Sol     MW 7670   0.938   0.473   1.885  0.2303 -0.2616 -0.4454
 1147Sol     OW 7671   1.062   1.985   2.529  0.3025 -0.1341  0.1620
 1147Sol     HW 7672   1.089   1.901   2.490 -1.0315 -1.2269  1.5230
 1147Sol     HW 7673   1.091   1.979   2.620  0.1122  0.8542  0.2911
 1147Sol     MW 7674   1.067   1.977   2.534  0.1348 -0.1701  0.6475
 1148Sol     OW 7675   1.855   2.628   2.658 -0.4622 -0.5746 -0.2341
 1148Sol     HW 7676   1.765   2.659   2.648 -0.5790 -0.4111  1.2007
 1148Sol     HW 7677   1.855   2.583   2.743  1.8829  3.4403  2.0469
 1148Sol     MW 7678   1.847   2.627   2.665 -0.2001 -0.7968  0.1147
 1149Sol     OW 7679   0.999   2.442   2.311  0.4179 -0.0195  0.2802
 1149Sol     HW 7680   0.941   2.385   2.362  0.2268  0.2032  0.3122
 1149Sol     HW 7681   0.940   2.506   2.271  0.6333  0.1525  0.2402
 1149Sol     MW 7682   0.989   2.442   2.312  0.0086  0.1811 -0.7624
 1150Sol     OW 7683   2.531   2.601   6.696  0.6721 -0.4519 -0.1630
 1150Sol     HW 7684   2.581   2.672   6.735  2.2089 -1.0072 -1.1100
 1150Sol     HW 7685   2.499   2.637   6.613  0.3614 -0.4530 -0.0479
 1150Sol     MW 7686   2.532   2.610   6.692  0.0219 -0.5471 -0.2419
 1151Sol     OW 7687   1.443   0.181   8.456  0.4019 -0.0597 -0.3374
 1151Sol     HW 7688   1.450   0.274   8.476 -0.6345  0.2440 -1.3003
 1151Sol     HW 7689   1.409   0.179   8.366 -1.7383 -1.3493  0.4689
 1151Sol     MW 7690   1.441   0.189   8.449 -0.3398  0.0837  0.2533
 1152Sol     OW 7691   2.547   1.243   8.807 -0.2522  0.2113 -0.0848
 1152Sol     HW 7692   2.570   1.233   8.899  0.5207  2.1262 -0.0549
 1152Sol     HW 7693   2.577   1.331   8.783 -2.0994  0.4552 -1.6679
 1152Sol     MW 7694   2.552   1.250   8.813  0.4419 -0.0505 -0.2345
 1153Sol     OW 7695   0.794   1.725   9.428  0.2315 -0.1079 -0.0155
 1153Sol     HW 7696   0.835   1.807   9.452  1.2102 -0.8152  0.7597
 1153Sol     HW 7697   0.763   1.739   9.338 -0.4378  1.4086  0.4372
 1153Sol     MW 7698   0.795   1.733   9.422 -0.2378  0.3601 -1.1832
 1154Sol     OW 7699   0.687   2.035   4.046 -0.2847 -0.2808 -0.3552
 1154Sol     HW 7700   0.734   2.062   3.967  0.7439  1.1603  0.7111
 1154Sol     HW 7701   0.596   2.023   4.018 -0.2092  1.6057 -1.4584
 1154Sol     MW 7702   0.683   2.036   4.036  0.0959  0.0625  0.2774
 1155Sol     OW 7703   2.158   3.048   2.893  0.2258  0.4377  0.1898
 1155Sol     HW 7704   2.080   3.102   2.876  0.4884  1.0300  0.7995
 1155Sol     HW 7705   2.145   2.969   2.841 -0.9655  0.3658  0.5830
 1155Sol     MW 7706   2.150   3.046   2.887 -0.2632  0.5678 -0.5917
 1156Sol     OW 7707   1.996   1.032   6.292  0.2119 -0.1593 -0.1163
 1156Sol     HW 7708   1.981   1.056   6.201 -0.8608  2.0415  0.6048
 1156Sol     HW 7709   2.073   1.083   6.319  1.0979 -1.4985 -0.0238
 1156Sol     MW 7710   2.002   1.039   6.286  0.7296 -0.1114 -0.1554
 1157Sol     OW 7711   0.883   0.950   8.120 -1.1389  0.2274 -0.4544
 1157Sol     HW 7712   0.957   0.978   8.066 -0.6932  1.1154  0.6065
 1157Sol     HW 7713   0.844   0.878   8.070  0.5542 -0.4033 -0.9381
 1157Sol     MW 7714   0.886   0.946   8.111 -0.6809  0.2686 -0.1698
 1158Sol     OW 7715   0.881   2.402   8.016 -0.6853 -0.0846 -0.4417
 1158Sol     HW 7716   0.870   2.444   7.931  1.5130  1.1437 -0.1864
 1158Sol     HW 7717   0.915   2.472   8.073 -2.4196 -0.7925  1.5425
 1158Sol     MW 7718   0.883   2.412   8.014  0.0460  0.2721  0.6874
 1159Sol     OW 7719   3.169   2.464   2.050  0.3245  0.1842 -0.1036
 1159Sol     HW 7720   3.212   2.511   1.978  0.3305  0.0559 -0.1832
 1159Sol     HW 7721   3.187   2.372   2.032  0.5631  0.1661  0.2098
 1159Sol     MW 7722   3.175   2.460   2.042  0.4568  0.0043  0.3712
 1160Sol     OW 7723   0.295   1.601   8.109  0.5436 -0.4462 -0.3645
 1160Sol     HW 7724   0.239   1.525   8.098  1.6086 -1.2848 -0.1134
 1160Sol     HW 7725   0.259   1.648   8.184 -0.4005 -0.4380 -0.8229
 1160Sol     MW 7726   0.287   1.599   8.115  0.5411 -0.2223 -0.1172
 1161Sol     OW 7727   1.571   3.415   6.265 -0.0954 -0.5063  0.7340
 1161Sol     HW 7728   1.632   3.474   6.311 -1.4741  1.3643  0.2410
 1161Sol     HW 7729   1.617   3.394   6.183  1.8183 -2.8231  2.3582
 1161Sol     MW 7730   1.581   3.419   6.261  0.1587 -0.5932 -0.3739
 1162Sol     OW 7731   2.604   0.458   4.416 -0.3117  0.0394  0.0138
 1162Sol     HW 7732   2.564   0.467   4.502  1.1229 -0.5253  0.7544
 1162Sol     HW 7733   2.688   0.503   4.423 -1.2378  2.1081 -1.8434
 1162Sol     MW 7734   2.608   0.463   4.424 -0.1358  0.1970  0.2420
 1163Sol     OW 7735   2.504   3.389   8.100  0.2834  0.3679  0.2777
 1163Sol     HW 7736   2.458   3.449   8.159 -0.9203 -0.0217 -0.2479
 1163Sol     HW 7737   2.440   3.320   8.082  1.8399 -1.4492  1.4174
 1163Sol     MW 7738   2.494   3.388   8.104 -0.1416  0.2454 -0.5589
 1164Sol     OW 7739   3.237   3.153   3.372  0.2263 -0.0111 -0.1835
 1164Sol     HW 7740   3.291   3.076   3.389  0.5842  0.3240  0.2250
 1164Sol     HW 7741   3.239   3.163   3.277  0.1481 -0.5295 -0.2389
 1164Sol     MW 7742   3.242   3.147   3.365  0.4351  0.4267 -0.2297
 1165Sol     OW 7743   2.251   1.749   8.422  0.3583 -0.0650 -0.6461
 1165Sol     HW 7744   2.192   1.676   8.437 -0.6370  0.7088 -0.7906
 1165Sol     HW 7745   2.339   1.712   8.436 -0.2200 -0.8536  1.0521
 1165Sol     MW 7746   2.254   1.739   8.425 -0.6447 -0.0461  0.5116
 1166Sol     OW 7747   1.897   0.958   2.675 -0.5814  0.4478  0.5676
 1166Sol     HW 7748   1.877   1.051   2.672  1.6055  0.8941 -1.3913
 1166Sol     HW 7749   1.905   0.931   2.584  0.0230 -1.3800  1.1271
 1166Sol     MW 7750   1.896   0.964   2.667  0.0669 -0.0783  0.7229
 1167Sol     OW 7751   0.164   2.488   2.083 -0.6199 -0.0928  0.4284
 1167Sol     HW 7752   0.150   2.578   2.055  0.3007  0.1666  0.7728
 1167Sol     HW 7753   0.110   2.479   2.162 -0.0670  0.4261  0.8764
 1167Sol     MW 7754   0.158   2.495   2.088 -0.1167  0.0805 -0.8249
 1168Sol     OW 7755   0.497   3.426   3.982  0.7304 -0.3041 -0.7418
 1168Sol     HW 7756   0.582   3.383   3.971  1.9873  2.4902 -2.4749
 1168Sol     HW 7757   0.491   3.443   4.076  1.5128 -1.6484 -0.4343
 1168Sol     MW 7758   0.504   3.424   3.989 -0.1812  0.2634 -0.6923
 1169Sol     OW 7759   1.170   0.908   6.427  1.0326  0.0913 -0.3620
 1169Sol     HW 7760   1.243   0.952   6.471  0.5301  1.6115 -1.0283
 1169Sol     HW 7761   1.118   0.979   6.389 -0.8466 -0.9684  0.1622
 1169Sol     MW 7762   1.172   0.918   6.427 -0.1098  0.1427 -0.3503
 1170Sol     OW 7763   1.540   2.797   7.758  0.1763  0.0339 -0.5932
 1170Sol     HW 7764   1.509   2.867   7.701 -1.5740 -0.1075  0.1620
 1170Sol     HW 7765   1.594   2.742   7.702 -1.6304 -0.1778 -2.1727
 1170Sol     MW 7766   1.542   2.798   7.748  0.0786  0.2055 -0.4128
 1171Sol     OW 7767   0.829   3.362   4.391  0.4116 -0.6894  0.6138
 1171Sol     HW 7768   0.798   3.330   4.475 -1.2834  0.4872  0.4748
 1171Sol     HW 7769   0.778   3.313   4.326 -0.4814  0.5382  0.3628
 1171Sol     MW 7770   0.821   3.355   4.392 -0.0012  0.0831 -0.1465
 1172Sol     OW 7771   2.215   2.701   7.138  0.2414 -0.1363  0.0632
 1172Sol     HW 7772   2.191   2.621   7.091 -0.4997 -0.3680  0.8320
 1172Sol     HW 7773   2.134   2.732   7.177  0.6121  0.7531  0.1462
 1172Sol     MW 7774   2.206   2.697   7.137  0.6804 -0.2322  0.1130
 1173Sol     OW 7775   3.217   0.003   5.376 -0.2368 -0.4157 -0.2378
 1173Sol     HW 7776   3.241   0.085   5.419  1.2485 -0.2888 -1.2537
 1173Sol     HW 7777   3.300  -0.044   5.368 -1.2220 -2.4750  1.2508
 1173Sol     MW 7778   3.227   0.006   5.379 -0.0203  0.3116  1.0271
 1174Sol     OW 7779   2.010   0.379   6.576  0.3814 -0.2177  0.2306
 1174Sol     HW 7780   2.041   0.437   6.646 -2.0940  2.3442 -0.7354
 1174Sol     HW 7781   2.035   0.423   6.495  1.1732 -2.0367 -0.5440
 1174Sol     MW 7782   2.015   0.388   6.575 -0.2308 -0.3320 -0.1573
 1175Sol     OW 7783   2.234   0.531   2.341  0.2098 -0.1754 -0.1485
 1175Sol     HW 7784   2.228   0.582   2.260  0.3574 -0.1334 -0.1328
 1175Sol     HW 7785   2.262   0.594   2.407  1.2896 -0.4680 -0.3164
 1175Sol     MW 7786   2.236   0.541   2.340 -0.2494 -0.5580 -0.0407
 1176Sol     OW 7787   1.402   2.122   4.964 -0.4382 -0.0046  0.1757
 1176Sol     HW 7788   1.469   2.116   4.896 -1.9394 -0.8403 -1.2881
 1176Sol     HW 7789   1.360   2.207   4.949 -1.0444 -0.3710 -0.2093
 1176Sol     MW 7790   1.404   2.129   4.956 -0.2291 -0.0390 -0.1457
 1177Sol     OW 7791   0.988   2.664   4.500  0.3713  0.1055 -0.3555
 1177Sol     HW 7792   0.900   2.701   4.497  0.5148  0.4612 -0.3147
 1177Sol     HW 7793   1.017   2.662   4.409  0.6082  0.7030 -0.2957
 1177Sol     MW 7794   0.983   2.668   4.492 -0.2855  0.6043 -0.1281
 1178Sol     OW 7795   0.758   2.864   9.907  0.4665  0.3800 -0.0095
 1178Sol     HW 7796   0.797   2.777   9.898 -1.7699 -0.5388 -1.3461
 1178Sol     HW 7797   0.812   2.921   9.851  2.6147  0.1340  1.7423
 1178Sol     MW 7798   0.766   2.862   9.901  0.7413 -0.0165 -0.2748
 1179Sol     OW 7799   1.611   2.863   3.935  0.0417  0.2146 -0.0748
 1179Sol     HW 7800   1.693   2.891   3.977 -0.8227  0.9967  1.1541
 1179Sol     HW 7801   1.632   2.854   3.843  1.7315 -0.4496  0.3610
 1179Sol     MW 7802   1.620   2.865   3.931 -0.3256 -0.0260 -0.3547
 1180Sol     OW 7803   0.810   2.068   4.398  0.1627  0.3552 -0.3157
 1180Sol     HW 7804   0.786   2.065   4.491  1.9157  0.3173  0.1457
 1180Sol     HW 7805   0.761   2.142   4.363 -2.3597 -1.0527  0.0938
 1180Sol     MW 7806   0.803   2.074   4.403  0.8122 -0.3598  0.4360
 1181Sol     OW 7807   2.270   1.249   7.487  0.1646  0.1285  0.0833
 1181Sol     HW 7808   2.354   1.277   7.449  0.2905 -2.0800 -1.3761
 1181Sol     HW 7809   2.204   1.294   7.434  0.3944 -0.0691 -0.3731
 1181Sol     MW 7810   2.272   1.256   7.479 -0.5731  0.1521  0.5519
 1182Sol     OW 7811   0.915   2.368   3.963 -0.0142  0.4997  0.2954
 1182Sol     HW 7812   0.894   2.290   3.911 -0.8961  0.5624  0.5433
 1182Sol     HW 7813   0.980   2.338   4.027 -1.5662 -0.4602  1.4680
 1182Sol     MW 7814   0.919   2.358   3.964  0.6064  0.4990  0.1621
 1183Sol     OW 7815   2.804   3.075   4.207  0.2614 -0.6259 -0.1740
 1183Sol     HW 7816   2.802   3.127   4.288  0.3526 -0.9183  0.0196
 1183Sol     HW 7817   2.721   3.027   4.208 -0.4421  0.5456 -1.0438
 1183Sol     MW 7818   2.797   3.075   4.215 -0.0505 -0.5579 -0.3228
 1184Sol     OW 7819   2.693   2.850   4.948  0.2169 -0.5208  0.4956
 1184Sol     HW 7820   2.731   2.814   5.028  0.4408 -0.5412  0.3822
 1184Sol     HW 7821   2.660   2.936   4.973 -1.2277 -1.2123  1.0083
 1184Sol     MW 7822   2.694   2.855   4.957 -0.0633 -0.7679  0.3749
 1185Sol     OW 7823   2.423   2.307   3.275  0.3713 -0.4283 -0.1524
 1185Sol     HW 7824   2.505   2.262   3.255  0.0745 -0.2892 -1.6975
 1185Sol     HW 7825   2.355   2.250   3.241 -0.0917  0.3382 -0.5280
 1185Sol     MW 7826   2.424   2.298   3.271  0.3239 -0.4265 -0.0000
 1186Sol     OW 7827   1.904   2.579   8.913 -0.0499 -0.7913 -0.4026
 1186Sol     HW 7828   1.959   2.514   8.870 -0.4845 -0.9019 -0.7918
 1186Sol     HW 7829   1.898   2.549   9.003  2.6901  0.6161  0.3029
 1186Sol     MW 7830   1.909   2.571   8.917 -0.4152  0.4330  0.2207
 1187Sol     OW 7831   3.266   0.717   3.331 -0.0133 -0.4356  0.5957
 1187Sol     HW 7832   3.231   0.685   3.247  1.4919  1.4227 -0.7693
 1187Sol     HW 7833   3.342   0.661   3.347 -0.6938 -1.2361  1.0800
 1187Sol     MW 7834   3.269   0.709   3.325  0.0354  0.0628 -1.0261
 1188Sol     OW 7835   2.583   0.654   2.274  0.0277  0.0555  0.0331
 1188Sol     HW 7836   2.498   0.697   2.265 -0.8550 -1.8540 -0.9515
 1188Sol     HW 7837   2.647   0.724   2.258 -1.3028  1.8007  1.9972
 1188Sol     MW 7838   2.581   0.665   2.272 -0.4021  0.0408 -0.0896
 1189Sol     OW 7839   3.062   2.766   3.034 -0.4505  0.0314 -0.2714
 1189Sol     HW 7840   3.137   2.765   2.974 -2.0661  0.9984 -2.3765
 1189Sol     HW 7841   3.036   2.674   3.041  0.9649 -0.3161  0.5245
 1189Sol     MW 7842   3.066   2.757   3.029  0.2564 -0.3265 -0.4011
 1190Sol     OW 7843   2.518   1.848   7.946  0.0737 -0.7479 -0.7643
 1190Sol     HW 7844   2.449   1.810   8.002 -0.4543 -0.9875 -1.5621
 1190Sol     HW 7845   2.581   1.884   8.007 -0.2207 -1.4989  0.0015
 1190Sol     MW 7846   2.517   1.848   7.956  0.0091  0.2152 -0.0931
 1191Sol     OW 7847   1.725   1.191   7.731  0.0233 -0.2612 -0.0137
 1191Sol     HW 7848   1.722   1.225   7.821  0.3000 -0.2205 -0.0188
 1191Sol     HW 7849   1.739   1.097   7.741 -1.2189 -0.4483  0.0092
 1191Sol     MW 7850   1.726   1.186   7.740  0.1097  0.1236 -0.3433
 1192Sol     OW 7851   1.957   1.255   9.373 -0.4312  0.1898 -0.3392
 1192Sol     HW 7852   1.958   1.299   9.458 -1.0318 -0.0216 -0.2124
 1192Sol     HW 7853   1.888   1.188   9.383 -0.4853  0.1518 -0.9829
 1192Sol     MW 7854   1.951   1.253   9.382 -0.2878 -0.6005 -0.6289
 1193Sol     OW 7855   3.101   2.307   4.090  0.6535  0.3733  0.1914
 1193Sol     HW 7856   3.103   2.386   4.037 -1.2193 -0.3315 -0.9679
 1193Sol     HW 7857   3.101   2.339   4.180  1.5581  1.6376 -0.2460
 1193Sol     MW 7858   3.101   2.317   4.094  0.0796 -0.3051  0.0632
 1194Sol     OW 7859   2.444   1.206   4.638  0.1272  0.4876  1.1000
 1194Sol     HW 7860   2.515   1.270   4.641  0.6223 -0.0618  1.2539
 1194Sol     HW 7861   2.411   1.210   4.548  0.5970  0.4805  0.9276
 1194Sol     MW 7862   2.447   1.212   4.630 -0.6259 -0.6135  0.1111
 1195Sol     OW 7863   1.208   2.962   7.915  0.7604  0.3459  0.5413
 1195Sol     HW 7864   1.117   2.993   7.910  1.3189  2.1176  0.8806
 1195Sol     HW 7865   1.249   2.996   7.835  0.9265 -1.1473 -0.0159
 1195Sol     MW 7866   1.203   2.968   7.908 -0.3296 -0.0966 -0.1455
 1196Sol     OW 7867   0.837   0.134   3.314 -0.5331  0.2911 -0.0987
 1196Sol     HW 7868   0.908   0.171   3.366 -0.4912 -0.1063  0.1295
 1196Sol     HW 7869   0.757   0.171   3.352 -0.5102 -0.1018  0.3381
 1196Sol     MW 7870   0.836   0.141   3.322  0.3707 -0.2882 -0.0257
 1197Sol     OW 7871   3.126   3.301   2.183 -0.5710 -0.2145  0.9810
 1197Sol     HW 7872   3.066   3.230   2.205  0.0201 -0.6974  1.0600
 1197Sol     HW 7873   3.206   3.281   2.233 -0.9246  1.3406  2.2414
 1197Sol     MW 7874   3.128   3.293   2.190 -0.6110 -1.0825 -0.1389
 1198Sol     OW 7875   2.972   1.485   3.701 -0.2879 -0.4724 -0.5726
 1198Sol     HW 7876   3.034   1.555   3.723 -2.1781  1.3145 -0.7347
 1198Sol     HW 7877   2.896   1.503   3.755 -2.1295 -0.3852 -3.1063
 1198Sol     MW 7878   2.971   1.493   3.708  0.4687 -0.2677  0.2988
 1199Sol     OW 7879   1.705   0.964   6.053 -0.3153 -0.0571 -0.0940
 1199Sol     HW 7880   1.617   0.948   6.085  0.0611 -0.3791  0.7797
 1199Sol     HW 7881   1.703   1.056   6.024 -0.6681  0.2252  0.8040
 1199Sol     MW 7882   1.697   0.971   6.053 -0.5931  0.4956  0.3300
 1200Sol     OW 7883   2.836   0.995   1.904  0.2036  0.0372 -0.5217
 1200Sol     HW 7884   2.915   1.049   1.913 -0.3784  0.9272 -0.7782
 1200Sol     HW 7885   2.869   0.911   1.870  1.3010 -0.3364  1.3934
 1200Sol     MW 7886   2.846   0.992   1.902  0.0206  0.1241 -0.3367
 1201Sol     OW 7887   0.240   1.819   6.675 -0.1165 -0.3115  0.0644
 1201Sol     HW 7888   0.252   1.914   6.676 -0.3441 -0.2938  1.3869
 1201Sol     HW 7889   0.163   1.803   6.729 -1.3456 -1.0884 -1.8806
 1201Sol     MW 7890   0.234   1.826   6.680 -0.2643 -0.1003 -0.6851
 1202Sol     OW 7891   1.843   1.210   3.506 -0.0279 -0.4790  0.1070
 1202Sol     HW 7892   1.751   1.226   3.525 -0.1271 -0.9935  0.0577
 1202Sol     HW 7893   1.855   1.117   3.523  1.2355  0.1964  3.3012
 1202Sol     MW 7894   1.836   1.203   3.509 -0.3641 -0.2299  0.4843
 1203Sol     OW 7895   1.202   1.517   4.169 -0.9523 -0.8742  0.2526
 1203Sol     HW 7896   1.226   1.425   4.182 -0.0373 -0.6142  0.4717
 1203Sol     HW 7897   1.149   1.540   4.245 -0.2528 -0.9190  0.7645
 1203Sol     MW 7898   1.200   1.511   4.177 -0.4570 -0.5219 -0.1227
 1204Sol     OW 7899   0.433   1.638   6.710  0.4122 -0.0522 -0.2422
 1204Sol     HW 7900   0.370   1.709   6.697  0.2969 -0.0578  0.2904
 1204Sol     HW 7901   0.504   1.678   6.760  1.1462  0.1295 -1.4055
 1204Sol     MW 7902   0.434   1.648   6.713  0.2738 -0.3941  0.4571
 1205Sol     OW 7903   1.112   2.257   8.363 -1.0392  0.1346  0.2621
 1205Sol     HW 7904   1.020   2.232   8.350 -1.6874  0.5181  3.7673
 1205Sol     HW 7905   1.109   2.334   8.419  1.4332  0.0545  0.5698
 1205Sol     MW 7906   1.103   2.261   8.366 -0.7524 -0.0401 -0.1256
 1206Sol     OW 7907   2.968   1.965   4.932 -0.1908  0.1863  0.4707
 1206Sol     HW 7908   2.995   2.056   4.930 -2.1787  0.7877 -2.2992
 1206Sol     HW 7909   2.913   1.958   5.010 -0.6388  1.5562  0.2956
 1206Sol     MW 7910   2.965   1.972   4.939  0.0889 -0.1641 -0.8093
 1207Sol     OW 7911   0.243   2.103   3.589 -0.2969  0.0856  0.8798
 1207Sol     HW 7912   0.156   2.104   3.631 -0.2181 -0.4827  1.0617
 1207Sol     HW 7913   0.264   2.196   3.576 -0.8955  0.2292  0.9129
 1207Sol     MW 7914   0.237   2.112   3.592  0.0214  0.1561 -0.4153
 1208Sol     OW 7915   1.750   1.316   4.738 -0.9626 -0.3372  0.1099
 1208Sol     HW 7916   1.711   1.370   4.669 -0.1593  0.2673  0.1212
 1208Sol     HW 7917   1.793   1.245   4.691  0.7282  0.7996 -0.1198
 1208Sol     MW 7918   1.751   1.315   4.728 -0.1326  0.2987 -0.8006
 1209Sol     OW 7919   1.035   0.538   7.540  0.2556  0.1485  0.1588
 1209Sol     HW 7920   1.093   0.466   7.562  0.7233  0.5361  0.2086
 1209Sol     HW 7921   0.996   0.513   7.456 -1.1910 -1.1205  1.1765
 1209Sol     MW 7922   1.037   0.529   7.534 -0.2838  0.0562  0.4007
 1210Sol     OW 7923   0.798   0.715   3.592 -0.4696  0.0795  0.5366
 1210Sol     HW 7924   0.714   0.678   3.620 -0.3579  0.3725  1.2783
 1210Sol     HW 7925   0.776   0.799   3.553 -0.6258 -0.3228 -0.2465
 1210Sol     MW 7926   0.789   0.719   3.591 -0.1300 -0.2231  0.4616
 1211Sol     OW 7927   0.664   2.253   4.243  0.5743 -0.2553  0.7861
 1211Sol     HW 7928   0.675   2.189   4.173 -0.8020  1.9071 -1.5152
 1211Sol     HW 7929   0.685   2.337   4.202 -2.0915  1.2946  2.4296
 1211Sol     MW 7930   0.667   2.255   4.233  0.1877  0.3897  0.4885
 1212Sol     OW 7931   0.047   1.829   2.087  0.3092 -0.1914  0.3770
 1212Sol     HW 7932   0.028   1.884   2.163 -0.2891  0.3109 -0.1267
 1212Sol     HW 7933   0.018   1.742   2.113  0.2013 -0.0450  0.7632
 1212Sol     MW 7934   0.043   1.826   2.096 -0.4780  0.4041 -0.3059
 1213Sol     OW 7935   2.623   3.204   7.868 -0.3748 -0.3083  0.0157
 1213Sol     HW 7936   2.579   3.226   7.786  2.0132 -0.9603 -1.5250
 1213Sol     HW 7937   2.611   3.281   7.923 -3.2704 -0.4275 -0.3785
 1213Sol     MW 7938   2.618   3.213   7.865  0.4019  0.0653  0.5575
 1214Sol     OW 7939   1.052   2.948   2.334 -0.0180  0.5368 -0.1542
 1214Sol     HW 7940   1.115   3.020   2.326  2.7245 -1.8336 -0.2768
 1214Sol     HW 7941   1.010   2.943   2.248 -0.1958  1.9141 -0.1656
 1214Sol     MW 7942   1.054   2.954   2.325  0.0112  0.5019 -0.5078
 1215Sol     OW 7943   0.258   1.273   5.029 -0.4266  0.2558  0.2653
 1215Sol     HW 7944   0.272   1.362   5.063 -1.1102  0.4787 -0.0217
 1215Sol     HW 7945   0.318   1.267   4.955  0.8530 -0.1285  1.3243
 1215Sol     MW 7946   0.264   1.281   5.025  0.3217  0.0337  0.2120
 1216Sol     OW 7947   1.413   0.242   2.824  0.6936  0.1238  0.8167
 1216Sol     HW 7948   1.429   0.152   2.798 -1.8007 -0.0634 -0.1824
 1216Sol     HW 7949   1.317   0.251   2.823  0.9257  3.0543 -0.1109
 1216Sol     MW 7950   1.406   0.235   2.822 -0.0470 -0.8144 -0.8231
 1217Sol     OW 7951   2.237   1.938   9.101  0.8690 -0.3947  0.2546
 1217Sol     HW 7952   2.304   1.906   9.041 -0.1137 -0.1595 -0.9828
 1217Sol     HW 7953   2.155   1.902   9.067 -0.0263  1.9205 -0.1067
 1217Sol     MW 7954   2.235   1.932   9.093 -0.1581 -0.3726 -0.3665
 1218Sol     OW 7955   1.894   0.934   5.161  0.1780 -0.2438 -0.0313
 1218Sol     HW 7956   1.940   0.862   5.204 -0.1012 -0.3389  0.1035
 1218Sol     HW 7957   1.842   0.893   5.093 -0.8438 -0.2895  0.7666
 1218Sol     MW 7958   1.894   0.924   5.159 -0.1981 -0.6862  0.4917
 1219Sol     OW 7959   0.442   2.726   3.740  0.0388 -0.3704  0.0197
 1219Sol     HW 7960   0.414   2.796   3.800 -0.3943  0.1534 -0.7801
 1219Sol     HW 7961   0.533   2.747   3.720 -0.1203  0.0335 -0.3000
 1219Sol     MW 7962   0.447   2.734   3.743 -1.0801 -0.1187  0.0170
 1220Sol     OW 7963   0.098   2.588   3.916 -0.0672  0.4592  0.5981
 1220Sol     HW 7964   0.170   2.598   3.977 -0.1971  2.0369  0.5132
 1220Sol     HW 7965   0.088   2.493   3.905  1.8983  0.2377  0.6921
 1220Sol     MW 7966   0.103   2.580   3.920  0.2439 -0.3799 -0.3238
 1221Sol     OW 7967   1.246   2.608   1.607  0.3037 -0.0864 -0.1040
 1221Sol     HW 7968   1.309   2.542   1.576  1.7323  0.8910  0.7169
 1221Sol     HW 7969   1.246   2.598   1.702  0.4733  1.0534  0.0144
 1221Sol     MW 7970   1.252   2.601   1.612  0.1429  0.4295  0.3104
 1222Sol     OW 7971   2.881   2.181   6.545 -0.1503 -0.0517 -0.1639
 1222Sol     HW 7972   2.845   2.251   6.599  2.5241  1.9519 -0.8733
 1222Sol     HW 7973   2.886   2.218   6.457  0.7671 -1.3191 -0.6651
 1222Sol     MW 7974   2.878   2.190   6.542  0.0391  0.3990  0.2395
 1223Sol     OW 7975   0.123   0.561   5.986  0.0367  0.6532  1.0044
 1223Sol     HW 7976   0.177   0.638   5.969 -2.2999  2.3341  0.9516
 1223Sol     HW 7977   0.090   0.536   5.899  0.5643 -0.2731  1.0582
 1223Sol     MW 7978   0.125   0.566   5.976 -0.0712 -0.1564  0.5615
 1224Sol     OW 7979   0.633   0.424   9.387 -0.4910  0.3364  0.4015
 1224Sol     HW 7980   0.664   0.354   9.445  0.6932  0.0786 -0.5118
 1224Sol     HW 7981   0.547   0.448   9.421 -1.2031 -2.0096  0.3642
 1224Sol     MW 7982   0.628   0.419   9.395 -0.0962  0.0240 -0.9102
 1225Sol     OW 7983   0.877   0.880   4.488  0.7958 -0.2358 -0.4520
 1225Sol     HW 7984   0.956   0.850   4.443  0.5594 -0.2349 -0.8721
 1225Sol     HW 7985   0.909   0.917   4.570  1.0546 -1.8694  0.1892
 1225Sol     MW 7986   0.887   0.881   4.491  0.1825 -0.0140  0.2753
 1226Sol     OW 7987   0.841   0.234   7.246 -0.2624 -0.2405  0.2073
 1226Sol     HW 7988   0.762   0.263   7.293 -0.9893 -1.2502 -0.3729
 1226Sol     HW 7989   0.812   0.158   7.196  0.2008  1.5085 -2.8362
 1226Sol     MW 7990   0.831   0.230   7.246  0.0116  0.5900  0.6807
 1227Sol     OW 7991   1.325   0.257   8.986  0.7864 -0.4180  0.4281
 1227Sol     HW 7992   1.407   0.224   8.949 -0.6169 -2.2900 -1.1697
 1227Sol     HW 7993   1.264   0.258   8.912 -0.5439  1.3051  1.5029
 1227Sol     MW 7994   1.327   0.254   8.976  0.2681  0.6150  0.3657
 1228Sol     OW 7995   1.976   1.259   9.820 -0.4876 -0.5377 -0.3381
 1228Sol     HW 7996   1.969   1.327   9.753 -0.0985  0.0749  0.2335
 1228Sol     HW 7997   1.892   1.214   9.818 -0.7813  0.0195 -0.6611
 1228Sol     MW 7998   1.968   1.261   9.814  0.4590  0.1419  0.5610
 1229Sol     OW 7999   0.852   2.216   5.384  0.1319 -0.4938 -0.7621
 1229Sol     HW 8000   0.838   2.123   5.368  0.8204 -0.5060 -1.3360
 1229Sol     HW 8001   0.946   2.222   5.403 -0.0211  0.0043 -0.1748
 1229Sol     MW 8002   0.859   2.208   5.384 -0.3631 -0.1645  0.7076
 1230Sol     OW 8003   0.219   0.481   9.208  1.0268 -0.4237 -0.0361
 1230Sol     HW 8004   0.206   0.463   9.115  1.2917 -2.1509  0.2582
 1230Sol     HW 8005   0.138   0.525   9.235  0.4815 -0.9360 -0.8193
 1230Sol     MW 8006   0.211   0.483   9.202 -0.1232  0.1398  0.3026
 1231Sol     OW 8007   1.806   2.203   6.816 -0.2303 -0.0746  0.2144
 1231Sol     HW 8008   1.814   2.180   6.908 -0.0449 -1.4234 -0.1403
 1231Sol     HW 8009   1.783   2.296   6.817  0.9973  0.2306  1.5802
 1231Sol     MW 8010   1.804   2.210   6.824  0.1894 -0.0831  0.5526
 1232Sol     OW 8011   0.862   0.696   2.489 -0.2589 -0.4436 -0.1519
 1232Sol     HW 8012   0.773   0.708   2.457 -0.3885  2.6697  1.2250
 1232Sol     HW 8013   0.917   0.713   2.412 -0.6764  4.3275  0.4295
 1232Sol     MW 8014   0.859   0.699   2.479 -0.0846 -0.1393  0.5043
 1233Sol     OW 8015   0.676   2.756   8.458  0.4606  0.3488  0.0834
 1233Sol     HW 8016   0.649   2.821   8.523  1.2707  2.2192 -1.3854
 1233Sol     HW 8017   0.760   2.724   8.489  0.0827  0.0344  0.7929
 1233Sol     MW 8018   0.681   2.759   8.466 -0.5242 -0.0484  0.0583
 1234Sol     OW 8019   2.063   2.170   2.279  0.0435  0.1387  0.7854
 1234Sol     HW 8020   2.064   2.217   2.362 -0.6363 -2.2415  2.1939
 1234Sol     HW 8021   2.155   2.165   2.253  0.3190  0.3555  1.7088
 1234Sol     MW 8022   2.071   2.174   2.284 -0.2271  0.2419 -0.1113
 1235Sol     OW 8023   1.391   1.107   6.264 -0.0681 -0.2659  0.0941
 1235Sol     HW 8024   1.418   1.104   6.355  0.0033  0.3331  0.0905
 1235Sol     HW 8025   1.361   1.196   6.250 -1.1849 -0.6755 -0.1575
 1235Sol     MW 8026   1.391   1.114   6.270 -0.0586  0.2180  0.3500
 1236Sol     OW 8027   2.212   2.437   8.316 -0.0343 -0.1945  0.0945
 1236Sol     HW 8028   2.221   2.531   8.333 -3.6218 -0.0005  1.2441
 1236Sol     HW 8029   2.248   2.395   8.395  1.9825  0.1561 -0.6099
 1236Sol     MW 8030   2.216   2.441   8.325 -0.8909 -0.1569 -0.8991
 1237Sol     OW 8031   0.585   0.508   3.298  0.2366 -0.1790 -0.1518
 1237Sol     HW 8032   0.660   0.529   3.242 -0.1330  0.1713 -0.5137
 1237Sol     HW 8033   0.514   0.562   3.264  0.3735  1.0973  1.5608
 1237Sol     MW 8034   0.586   0.514   3.290 -0.6699  0.0172  0.0958
 1238Sol     OW 8035   0.271   3.018   9.678  0.1021 -0.3799  0.9977
 1238Sol     HW 8036   0.263   2.951   9.746 -0.9092  1.9201  3.2322
 1238Sol     HW 8037   0.203   2.995   9.615 -2.3256  0.2374  3.2971
 1238Sol     MW 8038   0.264   3.010   9.679 -0.7295 -0.4096 -0.4738
 1239Sol     OW 8039   2.283   1.704   6.860  0.0829  0.1904 -0.0587
 1239Sol     HW 8040   2.275   1.616   6.897  1.2407  0.4873  0.8806
 1239Sol     HW 8041   2.192   1.728   6.839 -0.6729  0.2267  3.0289
 1239Sol     MW 8042   2.274   1.698   6.861 -0.0722  0.0877  0.4092
 1240Sol     OW 8043   2.523   3.275   9.989 -0.7803  0.6121  0.7021
 1240Sol     HW 8044   2.469   3.206   9.950 -0.0876 -0.5273  1.7062
 1240Sol     HW 8045   2.593   3.289   9.925 -1.6382  1.3269 -0.1038
 1240Sol     MW 8046   2.524   3.270   9.980  0.3065  0.3682  0.1742
 1241Sol     OW 8047   1.830   2.478   1.592  0.2160 -0.0561 -0.0212
 1241Sol     HW 8048   1.844   2.498   1.684  0.4755 -0.1012 -0.0507
 1241Sol     HW 8049   1.845   2.383   1.585  2.0485  0.2465 -0.4528
 1241Sol     MW 8050   1.832   2.471   1.599 -0.1699 -0.0434 -0.3915
 1242Sol     OW 8051   0.890   2.555   9.542  0.0246  0.0943 -0.1298
 1242Sol     HW 8052   0.979   2.588   9.549 -0.3035  1.3361 -1.6739
 1242Sol     HW 8053   0.834   2.631   9.560 -0.7277  0.0016 -2.0395
 1242Sol     MW 8054   0.893   2.565   9.545  0.0943 -0.2186  0.0588
 1243Sol     OW 8055   0.446   0.118   2.349  0.1824  0.5226  0.0354
 1243Sol     HW 8056   0.464   0.138   2.441 -1.2410  1.7953  0.0613
 1243Sol     HW 8057   0.354   0.092   2.348  0.4105 -0.2758 -0.9175
 1243Sol     MW 8058   0.440   0.117   2.358  0.5034  0.2744 -0.2858
 1244Sol     OW 8059   1.293   2.080   8.487  0.4636  0.4951  0.1693
 1244Sol     HW 8060   1.223   2.102   8.425 -0.5778 -1.4369  0.6115
 1244Sol     HW 8061   1.334   2.002   8.450 -1.3791 -1.8121  2.7535
 1244Sol     MW 8062   1.290   2.075   8.478 -0.1080 -0.4476  0.2402
 1245Sol     OW 8063   3.183   0.602   6.867  0.0536 -0.3977  0.0470
 1245Sol     HW 8064   3.101   0.554   6.854  0.2818 -0.2742 -1.9545
 1245Sol     HW 8065   3.249   0.549   6.823  1.0993 -0.5906  1.8087
 1245Sol     MW 8066   3.182   0.593   6.862 -0.2172 -0.5200 -0.0895
 1246Sol     OW 8067   0.568   1.839   4.521 -0.0977  0.3039  0.2938
 1246Sol     HW 8068   0.622   1.907   4.560  0.8428 -1.2143  1.7032
 1246Sol     HW 8069   0.494   1.828   4.582 -0.3345  0.1769 -0.0099
 1246Sol     MW 8070   0.566   1.844   4.530  0.3902  0.3228  0.0384
 1247Sol     OW 8071   2.303   1.764   1.343 -0.1432 -0.9629 -0.2854
 1247Sol     HW 8072   2.377   1.752   1.284 -1.1548 -0.4036 -1.6821
 1247Sol     HW 8073   2.282   1.675   1.373 -0.1955 -1.3553 -1.4684
 1247Sol     MW 8074   2.307   1.755   1.341  0.4430 -0.2364  0.2661
 1248Sol     OW 8075   3.252   0.559   5.091 -0.4213 -0.4334 -0.0486
 1248Sol     HW 8076   3.231   0.571   5.184  2.4682  3.0516  0.2536
 1248Sol     HW 8077   3.305   0.479   5.089 -1.5676 -1.2572  1.0598
 1248Sol     MW 8078   3.255   0.553   5.099  0.7346 -0.1525  0.3945
 1249Sol     OW 8079   3.219   2.975   5.979 -0.2725 -0.2811 -0.0051
 1249Sol     HW 8080   3.138   3.026   5.981  1.0374  1.8595 -0.1059
 1249Sol     HW 8081   3.250   2.975   6.070  0.7151  0.7327 -0.3340
 1249Sol     MW 8082   3.215   2.979   5.988 -0.1887 -0.1109  0.3928
 1250Sol     OW 8083   0.553   3.241   6.736 -0.7580 -0.3091  0.2819
 1250Sol     HW 8084   0.522   3.243   6.645  3.4557 -1.5818 -1.2975
 1250Sol     HW 8085   0.554   3.148   6.758  0.6344 -0.1845  0.7462
 1250Sol     MW 8086   0.550   3.233   6.730  0.7299  0.0489  0.1625
 1251Sol     OW 8087   0.763   0.380   5.414  0.1037 -0.2493 -0.5803
 1251Sol     HW 8088   0.676   0.354   5.385 -0.4570 -0.1589  0.9931
 1251Sol     HW 8089   0.787   0.316   5.480  0.7243  0.4167 -0.1472
 1251Sol     MW 8090   0.758   0.372   5.418 -0.3596 -0.7552  0.7681
 1252Sol     OW 8091   0.590   3.391   4.610 -0.0294  0.5143  0.1537
 1252Sol     HW 8092   0.636   3.359   4.688 -0.2261  0.0157  0.0632
 1252Sol     HW 8093   0.599   3.487   4.615  0.0478  0.4805  0.7348
 1252Sol     MW 8094   0.595   3.397   4.618  0.4378 -0.6945  0.7520
 1253Sol     OW 8095   1.357   3.070   5.197  0.2265 -0.3365 -0.2780
 1253Sol     HW 8096   1.379   3.163   5.208 -1.6312 -0.1623  2.3776
 1253Sol     HW 8097   1.262   3.067   5.208 -0.2254 -2.1023 -3.8760
 1253Sol     MW 8098   1.350   3.078   5.199  0.0757 -0.3533  0.4381
 1254Sol     OW 8099   0.963   1.681   3.991 -0.3635 -0.2174  0.2852
 1254Sol     HW 8100   0.922   1.596   4.008 -2.1287  0.0991 -2.1388
 1254Sol     HW 8101   1.049   1.659   3.955 -1.7622 -1.0769 -2.6731
 1254Sol     MW 8102   0.967   1.671   3.989  0.1446 -0.2931  0.3043
 1255Sol     OW 8103   1.732   2.882   8.420 -0.4520 -0.1267  0.0749
 1255Sol     HW 8104   1.772   2.796   8.429  0.8501  0.4507 -0.1205
 1255Sol     HW 8105   1.682   2.894   8.501 -0.9852 -1.2308 -0.0812
 1255Sol     MW 8106   1.731   2.876   8.428  0.6528 -0.1656  0.4795
 1256Sol     OW 8107   3.156   1.241   4.776 -0.6501 -0.0095  0.6268
 1256Sol     HW 8108   3.218   1.202   4.838 -1.1219 -0.5025  0.7916
 1256Sol     HW 8109   3.207   1.307   4.729  0.2849 -1.2008 -0.0273
 1256Sol     MW 8110   3.166   1.244   4.778 -0.0296  0.5491 -0.7117
 1257Sol     OW 8111   3.091   0.338   2.042  0.1602 -0.3781 -0.5607
 1257Sol     HW 8112   3.067   0.264   1.987 -2.5081  0.3290 -0.4017
 1257Sol     HW 8113   3.095   0.302   2.131 -0.3970 -0.5066 -0.5853
 1257Sol     MW 8114   3.089   0.328   2.045  0.0842 -0.2996 -0.4727
 1258Sol     OW 8115   1.892   0.746   6.792 -0.4499 -0.5970  0.5099
 1258Sol     HW 8116   1.860   0.835   6.808 -0.0312 -0.3080 -0.2236
 1258Sol     HW 8117   1.836   0.712   6.722 -0.5554 -0.8738  0.7299
 1258Sol     MW 8118   1.884   0.751   6.787  0.4323  0.2546  0.1328
 1259Sol     OW 8119   1.753   0.419   6.876  0.1161 -0.1630 -0.2779
 1259Sol     HW 8120   1.816   0.468   6.929 -0.9817  0.1693  0.7510
 1259Sol     HW 8121   1.776   0.327   6.889  0.6145 -0.0266 -0.1999
 1259Sol     MW 8122   1.761   0.415   6.882  0.3080 -0.0556  0.1438
 1260Sol     OW 8123   0.697   1.195   2.777  0.1426 -0.6374 -0.2893
 1260Sol     HW 8124   0.707   1.228   2.688 -0.3852 -0.0423 -0.1361
 1260Sol     HW 8125   0.680   1.102   2.767  0.2120 -0.5955 -0.8047
 1260Sol     MW 8126   0.697   1.190   2.768  0.5372 -0.7711  0.2945
 1261Sol     OW 8127   3.067   2.345   7.317  0.1457  0.3185 -0.1447
 1261Sol     HW 8128   3.095   2.414   7.376  0.8702 -0.1838  0.1064
 1261Sol     HW 8129   3.130   2.347   7.245  0.6538 -0.6247  0.2751
 1261Sol     MW 8130   3.075   2.351   7.315 -0.0866  0.0120  0.5859
 1262Sol     OW 8131   3.239   3.274   6.597  0.0313  0.2425 -0.4163
 1262Sol     HW 8132   3.320   3.300   6.639  0.2271 -0.5691 -0.2784
 1262Sol     HW 8133   3.266   3.231   6.516 -0.2824  0.3580 -0.5880
 1262Sol     MW 8134   3.248   3.272   6.593  0.3161 -0.7112  0.3231
 1263Sol     OW 8135   0.633   1.461   9.080 -0.3927 -0.3216 -0.6629
 1263Sol     HW 8136   0.664   1.375   9.050  0.8949 -0.3806  0.7465
 1263Sol     HW 8137   0.713   1.514   9.085 -0.2933 -0.7177  3.8929
 1263Sol     MW 8138   0.643   1.458   9.078  0.3971  0.1192  1.1057
 1264Sol     OW 8139   3.234   0.606   2.673 -0.0806 -0.8302  0.6630
 1264Sol     HW 8140   3.202   0.682   2.623 -0.5822 -1.0374  0.6668
 1264Sol     HW 8141   3.323   0.591   2.639 -0.8427 -1.6919 -1.0123
 1264Sol     MW 8142   3.239   0.611   2.665 -0.5464  0.6595  0.3147
 1265Sol     OW 8143   0.996   0.912   3.095  0.7281 -0.6211 -0.0238
 1265Sol     HW 8144   0.997   0.879   3.185 -0.0269  1.5558  0.8059
 1265Sol     HW 8145   0.903   0.924   3.075  0.9172 -0.6229 -0.9272
 1265Sol     MW 8146   0.988   0.910   3.101 -0.5825 -0.0428 -0.0259
 1266Sol     OW 8147   0.457   3.036   6.117 -0.5118 -0.1032 -0.2046
 1266Sol     HW 8148   0.369   3.073   6.123 -0.2562  0.2825  1.6763
 1266Sol     HW 8149   0.443   2.943   6.098 -1.2647  0.2576 -1.4689
 1266Sol     MW 8150   0.448   3.031   6.116  0.4205 -0.2738  0.4704
 1267Sol     OW 8151   3.008   1.483   7.466 -0.4500  0.4205  0.6230
 1267Sol     HW 8152   2.960   1.495   7.548 -1.6762 -0.1637  0.0081
 1267Sol     HW 8153   3.090   1.441   7.492  0.7899  3.4664  1.9576
 1267Sol     MW 8154   3.011   1.481   7.476 -0.4044 -0.4438 -0.3443
 1268Sol     OW 8155   0.132   2.147   8.153  0.0444  0.3824  0.4021
 1268Sol     HW 8156   0.093   2.089   8.087 -0.2324  0.6687  0.3087
 1268Sol     HW 8157   0.147   2.092   8.229 -0.1912  0.1846  0.3029
 1268Sol     MW 8158   0.130   2.137   8.154  0.0582 -0.3273 -0.0423
 1269Sol     OW 8159   1.245   2.641   7.570 -0.1168  0.0314 -0.7846
 1269Sol     HW 8160   1.283   2.592   7.643  0.1731  0.1678 -0.8451
 1269Sol     HW 8161   1.304   2.625   7.497  0.9341  1.8760 -0.3534
 1269Sol     MW 8162   1.253   2.635   7.570 -0.1849  0.1057  0.2092
 1270Sol     OW 8163   1.667   2.403   6.489 -0.0093  0.1264  0.0499
 1270Sol     HW 8164   1.626   2.409   6.402  0.6121 -0.9532 -0.3220
 1270Sol     HW 8165   1.596   2.375   6.547 -0.0852 -0.6075 -0.3860
 1270Sol     MW 8166   1.657   2.401   6.486  0.0747 -0.5455  0.5917
 1271Sol     OW 8167   0.344   0.150   3.855 -0.6179  0.0912  0.9468
 1271Sol     HW 8168   0.295   0.077   3.817 -0.5400  1.2291 -1.4592
 1271Sol     HW 8169   0.422   0.109   3.892 -0.7653 -1.1002 -0.0223
 1271Sol     MW 8170   0.347   0.140   3.855  1.0207  0.5219 -0.5112
 1272Sol     OW 8171   0.975   3.376   5.760  0.5535 -0.0976  0.0826
 1272Sol     HW 8172   1.041   3.438   5.728  0.0453  0.1316 -0.5257
 1272Sol     HW 8173   1.015   3.290   5.746  2.6840  0.1069  3.9941
 1272Sol     MW 8174   0.985   3.374   5.756  0.1049  0.4279  0.0772
 1273Sol     OW 8175   0.183   0.971   3.015  0.1803  0.0691  0.4432
 1273Sol     HW 8176   0.122   1.030   2.970  1.0246  2.1261  1.9326
 1273Sol     HW 8177   0.183   0.891   2.961 -0.2808  1.7463 -2.1331
 1273Sol     MW 8178   0.177   0.969   3.006 -0.0688 -0.9388  0.2840
 1274Sol     OW 8179   1.581   0.264   4.207 -0.3732 -0.3947 -0.9165
 1274Sol     HW 8180   1.530   0.237   4.130  0.2639 -0.3382 -1.3614
 1274Sol     HW 8181   1.545   0.350   4.229 -1.1994 -0.8185 -0.5711
 1274Sol     MW 8182   1.573   0.269   4.202 -0.6366  0.0714 -0.1610
 1275Sol     OW 8183   0.481   3.115   7.409  0.0940 -0.0861  0.2845
 1275Sol     HW 8184   0.473   3.119   7.505 -0.4991  0.7743  0.2011
 1275Sol     HW 8185   0.467   3.023   7.388 -1.3976 -0.0107  0.8860
 1275Sol     MW 8186   0.479   3.107   7.416  0.1236  0.2158 -0.1164
 1276Sol     OW 8187   2.480   2.750   8.770 -0.2014  0.4271 -0.5049
 1276Sol     HW 8188   2.507   2.774   8.858 -1.2669  0.8749 -0.2977
 1276Sol     HW 8189   2.384   2.758   8.771 -0.2354  0.2194 -1.6328
 1276Sol     MW 8190   2.474   2.753   8.778 -0.4998  0.2284 -0.5388
 1277Sol     OW 8191   0.680   1.185   9.043  0.0557  0.4574 -0.0968
 1277Sol     HW 8192   0.714   1.096   9.029  0.3977  0.4118  1.0453
 1277Sol     HW 8193   0.644   1.184   9.132  1.6648  1.9725  0.5855
 1277Sol     MW 8194   0.680   1.177   9.049  0.0962  0.2834 -0.5409
 1278Sol     OW 8195   1.000   0.956   9.758 -0.2907 -0.0859  0.6499
 1278Sol     HW 8196   0.956   0.945   9.673  1.1291 -0.5033 -0.0421
 1278Sol     HW 8197   0.929   0.953   9.822 -1.4727  1.0384 -0.5791
 1278Sol     MW 8198   0.989   0.955   9.756 -0.4232  0.4548 -0.0739
 1279Sol     OW 8199   3.326   3.078   5.747 -0.0056 -0.0933  0.1367
 1279Sol     HW 8200   3.239   3.115   5.736  0.3440  0.7959  0.2729
 1279Sol     HW 8201   3.341   3.080   5.841  0.8851  1.4862 -0.0233
 1279Sol     MW 8202   3.320   3.081   5.754 -0.0246 -0.1488  0.1477
 1280Sol     OW 8203   3.216   0.187   2.485  0.2863  0.6929  0.7283
 1280Sol     HW 8204   3.283   0.142   2.536 -2.2745  0.0748  3.7483
 1280Sol     HW 8205   3.206   0.272   2.529 -1.2744  0.5455  0.7081
 1280Sol     MW 8206   3.221   0.191   2.494  0.4958 -0.1758 -0.2145
 1281Sol     OW 8207   2.750   3.436   1.879  0.2391  0.4044  0.1037
 1281Sol     HW 8208   2.655   3.442   1.864 -0.0319 -0.5800  1.3383
 1281Sol     HW 8209   2.759   3.450   1.974  1.4537  1.7606 -0.1952
 1281Sol     MW 8210   2.742   3.438   1.886  0.1006  0.5822 -0.9053
 1282Sol     OW 8211   0.346   1.291   9.361 -0.3286 -0.0465  0.4014
 1282Sol     HW 8212   0.310   1.217   9.410  1.5285 -1.5712 -0.4404
 1282Sol     HW 8213   0.390   1.250   9.286  0.2468  1.9718 -0.3939
 1282Sol     MW 8214   0.347   1.280   9.359  0.1474  0.1620 -0.3429
 1283Sol     OW 8215   1.997   3.433   3.343 -0.1871 -0.2221 -0.1273
 1283Sol     HW 8216   2.039   3.510   3.305  0.5251 -0.6177 -0.1574
 1283Sol     HW 8217   1.968   3.382   3.267 -1.8533  0.6533 -0.0960
 1283Sol     MW 8218   1.998   3.435   3.332 -0.2743  0.2870  0.6877
 1284Sol     OW 8219   0.920   0.540   8.847 -0.3945  0.5296 -0.0670
 1284Sol     HW 8220   0.908   0.470   8.911  1.0121 -0.3107 -0.6873
 1284Sol     HW 8221   0.989   0.595   8.884  1.1967 -0.5671 -1.3279
 1284Sol     MW 8222   0.925   0.539   8.856  0.1665  0.2942  0.1287
 1285Sol     OW 8223   0.090   1.883   6.048  0.0889  0.1528  0.3735
 1285Sol     HW 8224   0.115   1.909   6.137 -1.0657 -1.6164  1.2495
 1285Sol     HW 8225   0.147   1.809   6.028 -0.2172  0.0235 -0.0261
 1285Sol     MW 8226   0.097   1.879   6.055  0.9273 -0.6024 -0.2353
 1286Sol     OW 8227   3.242   3.266   4.961 -0.4534  0.1255 -0.3333
 1286Sol     HW 8228   3.254   3.194   5.023 -0.6585 -0.4838 -0.9948
 1286Sol     HW 8229   3.181   3.325   5.005  1.4680  1.0643  1.1915
 1286Sol     MW 8230   3.238   3.265   4.971  0.1837  0.4425  0.3025
 1287Sol     OW 8231   1.303   3.445   3.775 -0.1147  0.6714  0.2460
 1287Sol     HW 8232   1.351   3.499   3.838 -0.4738 -0.0843  1.1756
 1287Sol     HW 8233   1.371   3.405   3.721  0.3097 -0.4022  1.5635
 1287Sol     MW 8234   1.313   3.446   3.776 -0.1093  0.4185 -0.7079
 1288Sol     OW 8235   2.289   0.879   7.189 -0.5798  0.1407  0.4966
 1288Sol     HW 8236   2.238   0.803   7.214 -2.6153  1.7025  1.1834
 1288Sol     HW 8237   2.296   0.873   7.093  2.3472 -2.7717  0.7949
 1288Sol     MW 8238   2.285   0.872   7.183 -0.2757  1.0594 -0.2403
 1289Sol     OW 8239   1.317   2.907   9.442 -0.4037 -0.3028 -0.4054
 1289Sol     HW 8240   1.322   2.985   9.387  3.2365 -0.6545 -0.7230
 1289Sol     HW 8241   1.342   2.835   9.383 -0.9638 -1.3128  0.5738
 1289Sol     MW 8242   1.320   2.907   9.432  0.5268  0.0392 -0.2051
 1290Sol     OW 8243   1.134   0.798   3.529 -0.3798 -0.4834 -0.4778
 1290Sol     HW 8244   1.062   0.771   3.471 -0.0365 -2.6482  0.0558
 1290Sol     HW 8245   1.099   0.789   3.617  0.4393 -1.2924 -0.2233
 1290Sol     MW 8246   1.124   0.795   3.532 -0.1556  0.0226 -0.0264
 1291Sol     OW 8247   0.354   2.088   4.370  0.3524  0.0270  0.6827
 1291Sol     HW 8248   0.334   2.094   4.464  1.5447  0.8852  0.8846
 1291Sol     HW 8249   0.429   2.029   4.365 -0.1389 -0.5558  0.2117
 1291Sol     MW 8250   0.359   2.083   4.378 -0.2106 -0.2339  0.5862
 1292Sol     OW 8251   2.925   0.546   8.144 -0.2356 -0.1998  0.1796
 1292Sol     HW 8252   3.017   0.523   8.156 -0.0482  0.7269  0.5569
 1292Sol     HW 8253   2.906   0.524   8.052  0.1105 -1.2277  0.3530
 1292Sol     MW 8254   2.931   0.542   8.137  0.1568 -0.2436 -1.0196
 1293Sol     OW 8255   1.572   1.011   5.613  0.4903  0.1399 -0.4220
 1293Sol     HW 8256   1.556   0.949   5.684 -0.3329 -1.6201 -2.1023
 1293Sol     HW 8257   1.627   0.963   5.551  1.2647  1.6826 -0.9764
 1293Sol     MW 8258   1.576   1.002   5.614  0.1138 -0.1170 -0.5383
 1294Sol     OW 8259   0.988   1.808   7.280  0.0741 -0.1407  0.0009
 1294Sol     HW 8260   0.919   1.826   7.344 -0.2549  2.7429 -1.0883
 1294Sol     HW 8261   0.974   1.716   7.255 -1.9199 -0.2800  1.4995
 1294Sol     MW 8262   0.980   1.801   7.283 -0.1903  0.3450  0.0636
 1295Sol     OW 8263   1.658   1.985   6.712  0.1080  0.4486  0.1827
 1295Sol     HW 8264   1.693   2.061   6.758  1.7794 -0.2910  0.1471
 1295Sol     HW 8265   1.735   1.941   6.675 -0.9607 -0.4760 -1.0076
 1295Sol     MW 8266   1.668   1.988   6.712 -0.2550  0.1741 -0.5663
 1296Sol     OW 8267   0.493   0.472   7.711  0.1366 -0.0714  0.2152
 1296Sol     HW 8268   0.506   0.379   7.725  0.5390 -0.2030 -0.9782
 1296Sol     HW 8269   0.576   0.504   7.675 -0.0524  0.7060  0.4486
 1296Sol     MW 8270   0.501   0.467   7.709  0.0865 -0.1247  0.4319
 1297Sol     OW 8271   1.175   0.904   8.778  0.4513 -0.1719  0.5785
 1297Sol     HW 8272   1.252   0.854   8.749  0.8719 -0.6480  2.4381
 1297Sol     HW 8273   1.210   0.988   8.807 -0.0778  0.6554 -1.1469
 1297Sol     MW 8274   1.185   0.907   8.778  0.3038 -0.6306  0.0567
 1298Sol     OW 8275   2.135   0.635   8.592 -0.0921  0.0057  0.6963
 1298Sol     HW 8276   2.219   0.595   8.567  1.2979  2.4898  1.2740
 1298Sol     HW 8277   2.159   0.704   8.654 -2.4336  1.7958 -0.3369
 1298Sol     MW 8278   2.145   0.637   8.596  0.4343  0.0308  0.1111
 1299Sol     OW 8279   2.325   2.437   4.388  0.9522 -0.0504 -0.2619
 1299Sol     HW 8280   2.344   2.449   4.481  0.2329 -0.8249 -0.0114
 1299Sol     HW 8281   2.243   2.388   4.386  0.4090  0.8508 -1.3065
 1299Sol     MW 8282   2.319   2.434   4.396 -0.5369 -0.5677  0.7063
 1300Sol     OW 8283   0.841   2.019   8.546  0.0680  0.0093 -0.0693
 1300Sol     HW 8284   0.919   2.061   8.582 -1.4954  1.1048  2.1749
 1300Sol     HW 8285   0.838   2.046   8.454  1.8677  0.6247  0.0470
 1300Sol     MW 8286   0.847   2.025   8.541  0.4278  1.1260  0.3506
 1301Sol     OW 8287   2.726   2.912   3.533 -0.8046  0.1102 -0.1618
 1301Sol     HW 8288   2.728   2.840   3.470 -0.4993  1.3528 -1.6046
 1301Sol     HW 8289   2.696   2.872   3.614 -1.6944 -1.4335 -1.2245
 1301Sol     MW 8290   2.724   2.902   3.534  1.1554 -0.5005 -0.5847
 1302Sol     OW 8291   2.813   0.200   8.828  0.0383 -0.3070 -0.0477
 1302Sol     HW 8292   2.762   0.126   8.798 -0.5378  0.3568 -0.7310
 1302Sol     HW 8293   2.758   0.276   8.809  0.3008  0.2422  1.3075
 1302Sol     MW 8294   2.803   0.201   8.824 -0.3490 -0.4489 -0.0479
 1303Sol     OW 8295   2.233   1.158   6.317  0.3141 -0.0386  0.4650
 1303Sol     HW 8296   2.285   1.088   6.359 -1.1250 -1.8156 -0.6296
 1303Sol     HW 8297   2.255   1.236   6.367  3.5765 -0.8320  0.4351
 1303Sol     MW 8298   2.240   1.158   6.326 -0.1202 -0.0412 -0.0120
 1304Sol     OW 8299   2.618   1.047   5.803 -0.1381  0.2228  0.0464
 1304Sol     HW 8300   2.704   1.087   5.818  0.0317 -0.1688  0.1442
 1304Sol     HW 8301   2.598   1.065   5.711 -0.4193  1.2010  0.2952
 1304Sol     MW 8302   2.624   1.052   5.796  0.1733  0.3158 -0.0310
 1305Sol     OW 8303   3.203   0.702   9.588 -0.4605  0.1274  0.6021
 1305Sol     HW 8304   3.206   0.696   9.683  1.1867  0.8666  0.6267
 1305Sol     HW 8305   3.124   0.751   9.569 -2.1140 -2.1303  1.4517
 1305Sol     MW 8306   3.196   0.706   9.595  0.7794 -0.0818 -0.5054
 1306Sol     OW 8307   2.953   0.178   9.066  0.1261  0.4292 -0.5715
 1306Sol     HW 8308   2.905   0.180   8.984 -1.2639  0.5176  0.2292
 1306Sol     HW 8309   2.911   0.245   9.120  2.1080  1.5351 -0.3741
 1306Sol     MW 8310   2.945   0.184   9.064  0.6613  0.3365 -0.0602
 1307Sol     OW 8311   1.989   3.446   1.523  0.2710 -0.0635  0.3610
 1307Sol     HW 8312   2.062   3.506   1.537  0.4146 -0.3592  0.8752
 1307Sol     HW 8313   1.929   3.495   1.466  0.8206  0.2137  0.0099
 1307Sol     MW 8314   1.990   3.456   1.519  0.0857 -0.4293 -0.1665
 1308Sol     OW 8315   0.200   1.330   3.894 -0.1108 -0.3920  0.6763
 1308Sol     HW 8316   0.107   1.310   3.903 -0.2046 -0.4265 -0.3995
 1308Sol     HW 8317   0.211   1.414   3.940 -0.7419 -0.1845  0.4447
 1308Sol     MW 8318   0.193   1.336   3.899 -0.0149 -0.7119  0.2273
 1309Sol     OW 8319   1.583   3.121   2.387 -0.1552  0.7708  0.0899
 1309Sol     HW 8320   1.604   3.193   2.327  2.0519  0.2568  0.2006
 1309Sol     HW 8321   1.543   3.055   2.331  0.1572  1.0581 -0.4805
 1309Sol     MW 8322   1.581   3.121   2.377 -0.0521  0.1254 -0.1226
 1310Sol     OW 8323   2.990   3.032   3.081  0.1072 -0.3885 -0.2371
 1310Sol     HW 8324   2.976   3.039   3.175  0.8465  0.1426 -0.1671
 1310Sol     HW 8325   2.990   2.937   3.064  0.6340 -0.5047  0.3944
 1310Sol     MW 8326   2.989   3.024   3.088 -0.2537  0.0748 -0.0304
 1311Sol     OW 8327   1.415   0.092   4.031  0.1406  0.1609  0.5448
 1311Sol     HW 8328   1.458   0.006   4.035 -0.6654 -0.2741 -0.0378
 1311Sol     HW 8329   1.343   0.085   4.093  1.1317  1.0315  1.8295
 1311Sol     MW 8330   1.413   0.083   4.037 -0.1307 -0.3062  0.2589
 1312Sol     OW 8331   1.635   3.296   6.598 -0.2824  0.2801 -0.5003
 1312Sol     HW 8332   1.717   3.325   6.559  0.0097 -1.2249 -1.0322
 1312Sol     HW 8333   1.648   3.202   6.615 -1.2407  0.4149  1.0699
 1312Sol     MW 8334   1.643   3.290   6.596  0.2403  0.4279 -0.0712
 1313Sol     OW 8335   2.907   0.056   5.629  0.3102  0.1334  0.0460
 1313Sol     HW 8336   2.932   0.020   5.714 -1.8971 -1.5696  0.0299
 1313Sol     HW 8337   2.927  -0.014   5.567 -2.3062 -0.4338 -0.2232
 1313Sol     MW 8338   2.911   0.047   5.631 -0.8413  0.3181  0.3534
 1314Sol     OW 8339   1.878   1.379   8.764 -0.6339 -0.0918  0.0886
 1314Sol     HW 8340   1.832   1.441   8.707  0.4366  0.9642  0.3512
 1314Sol     HW 8341   1.937   1.331   8.706  0.3942  0.9246  0.2662
 1314Sol     MW 8342   1.879   1.381   8.754 -0.2772  0.7556  0.5409
 1315Sol     OW 8343   0.716   1.328   6.979  0.3173 -0.2082  0.6780
 1315Sol     HW 8344   0.761   1.406   6.947 -1.4732  0.2037 -0.9129
 1315Sol     HW 8345   0.757   1.256   6.930  0.9693 -0.1234  1.0871
 1315Sol     MW 8346   0.724   1.328   6.972  0.1533  0.4852  0.3596
 1316Sol     OW 8347   2.242   0.412   6.140  0.3719 -0.3504  0.1831
 1316Sol     HW 8348   2.178   0.358   6.092 -2.0514  2.9404 -0.4291
 1316Sol     HW 8349   2.287   0.462   6.072  0.2043  0.8944  0.9749
 1316Sol     MW 8350   2.240   0.411   6.130 -0.4550  0.2514 -0.3211
 1317Sol     OW 8351   3.214   2.199   1.830 -0.0741 -0.0027 -0.0477
 1317Sol     HW 8352   3.230   2.144   1.754 -1.0528 -0.5269  0.1121
 1317Sol     HW 8353   3.119   2.195   1.843  0.0677  0.1552  1.1398
 1317Sol     MW 8354   3.207   2.194   1.825  0.4428 -0.3558 -1.0149
 1318Sol     OW 8355   1.542   1.466   2.122  0.1136  0.4497 -0.4148
 1318Sol     HW 8356   1.546   1.383   2.074 -0.1072 -0.7300  1.5372
 1318Sol     HW 8357   1.450   1.475   2.146  0.3223  0.7097  0.2931
 1318Sol     MW 8358   1.534   1.459   2.120 -0.1755  0.1435 -0.2419
 1319Sol     OW 8359   0.593   0.240   3.409 -0.6351  0.5700  0.0561
 1319Sol     HW 8360   0.538   0.249   3.487 -2.5933 -0.1553 -1.2171
 1319Sol     HW 8361   0.578   0.321   3.360 -0.8424  0.2179 -0.4631
 1319Sol     MW 8362   0.587   0.248   3.411 -0.1426 -0.2146 -0.7135
 1320Sol     OW 8363   3.229   2.236   9.600 -0.3429  0.0111  0.4275
 1320Sol     HW 8364   3.231   2.329   9.623  0.8574  0.4081 -1.1845
 1320Sol     HW 8365   3.252   2.190   9.681 -0.0962  1.1591  1.0115
 1320Sol     MW 8366   3.231   2.240   9.610  0.4105  0.3932 -0.5303
 1321Sol     OW 8367   0.196   2.103   2.001  0.0807 -0.3856 -0.6424
 1321Sol     HW 8368   0.232   2.187   1.972 -1.9244  0.0018 -2.1377
 1321Sol     HW 8369   0.120   2.127   2.054 -0.1277 -1.2433 -0.5482
 1321Sol     MW 8370   0.192   2.113   2.003  0.0238 -0.0992 -0.4907
 1322Sol     OW 8371   2.527   0.913   4.378  0.0322  0.1014 -0.0388
 1322Sol     HW 8372   2.481   0.845   4.328 -0.5647  1.3247 -1.1652
 1322Sol     HW 8373   2.533   0.987   4.318  3.8274 -0.1496 -0.0768
 1322Sol     MW 8374   2.524   0.913   4.368 -0.3580  0.1595 -0.4372
 1323Sol     OW 8375   2.824   1.588   2.888 -0.3611  0.0580 -0.5107
 1323Sol     HW 8376   2.893   1.540   2.843 -0.0831  0.8163 -0.9080
 1323Sol     HW 8377   2.772   1.521   2.932 -0.5043 -0.6625 -1.7770
 1323Sol     MW 8378   2.826   1.578   2.888 -0.3647  0.0306  0.1178
 1324Sol     OW 8379   1.115   1.460   9.188  0.2567  0.0849  0.1754
 1324Sol     HW 8380   1.184   1.438   9.127  0.7463  1.0733  0.3582
 1324Sol     HW 8381   1.132   1.551   9.212 -0.7512  0.1521  0.6867
 1324Sol     MW 8382   1.122   1.467   9.185 -0.4512  0.0536 -0.0869
 1325Sol     OW 8383   0.486   1.034   7.789 -0.6343  0.2790  0.0836
 1325Sol     HW 8384   0.417   0.975   7.821 -0.5310 -0.1183 -0.4210
 1325Sol     HW 8385   0.493   1.101   7.856 -1.4394  0.2542  0.1921
 1325Sol     MW 8386   0.480   1.034   7.798  0.6074 -0.0008  1.0760
 1326Sol     OW 8387   1.278   0.118   3.286 -0.4088  0.2006  0.1043
 1326Sol     HW 8388   1.203   0.133   3.343 -0.1144  0.0943  0.5292
 1326Sol     HW 8389   1.323   0.043   3.325 -1.5967 -1.5002 -1.7158
 1326Sol     MW 8390   1.276   0.113   3.295 -0.3605 -0.6035 -0.8411
 1327Sol     OW 8391   1.824   1.743   8.715 -0.0894 -0.6675  0.5850
 1327Sol     HW 8392   1.919   1.733   8.715  0.1044  1.0846  0.6261
 1327Sol     HW 8393   1.794   1.681   8.649  1.3629  1.1120 -1.8484
 1327Sol     MW 8394   1.830   1.736   8.709  0.2787  0.3506 -0.1558
 1328Sol     OW 8395   3.176   0.601   9.020  0.4936  0.5123 -0.6898
 1328Sol     HW 8396   3.083   0.620   9.009 -0.1467 -0.5485  2.3303
 1328Sol     HW 8397   3.186   0.510   8.991  1.0741  1.3434 -3.1873
 1328Sol     MW 8398   3.169   0.595   9.017 -0.4256  1.1572 -0.5753
 1329Sol     OW 8399   1.056   1.117   6.289  0.1747 -0.1445  0.3301
 1329Sol     HW 8400   1.035   1.195   6.340 -0.4906 -0.4965  0.6093
 1329Sol     HW 8401   1.058   1.147   6.199 -0.6801  0.0741  0.3831
 1329Sol     MW 8402   1.054   1.126   6.286 -0.4634 -0.1541  0.1953
 1330Sol     OW 8403   1.411   1.718   8.655  0.6124  0.0304 -1.0909
 1330Sol     HW 8404   1.455   1.633   8.659  1.4078  0.5221  1.4640
 1330Sol     HW 8405   1.352   1.718   8.731 -1.4873  0.6586 -2.6665
 1330Sol     MW 8406   1.410   1.711   8.663  0.5398  0.3398  0.0542
 1331Sol     OW 8407   1.216   0.027   2.574  0.0226 -0.3941  0.8610
 1331Sol     HW 8408   1.286   0.068   2.522 -0.4553 -1.0610 -0.3353
 1331Sol     HW 8409   1.244  -0.063   2.586 -0.5388 -0.6188  0.5267
 1331Sol     MW 8410   1.225   0.023   2.570 -0.0448 -0.0478 -0.1758
 1332Sol     OW 8411   1.254   3.062   6.551  0.2234  0.0252  0.4169
 1332Sol     HW 8412   1.170   3.090   6.516  0.7945  3.9261  1.9126
 1332Sol     HW 8413   1.319   3.093   6.488  0.6693 -1.7589 -0.0417
 1332Sol     MW 8414   1.252   3.067   6.542  0.3934 -0.7860 -0.1030
 1333Sol     OW 8415   1.829   0.707   5.477  0.2216 -0.3280  0.4368
 1333Sol     HW 8416   1.777   0.684   5.400  1.8424 -1.8027 -0.2437
 1333Sol     HW 8417   1.857   0.623   5.513  0.2893  0.3821  2.0934
 1333Sol     MW 8418   1.827   0.698   5.474  0.0088  0.2207  0.9411
 1334Sol     OW 8419   1.692   1.381   7.417 -0.2554  0.4490 -0.1753
 1334Sol     HW 8420   1.613   1.373   7.470  0.9920  0.2534  1.6970
 1334Sol     HW 8421   1.673   1.453   7.356 -2.6384 -0.9993 -1.1932
 1334Sol     MW 8422   1.683   1.387   7.416  0.0502 -0.1499 -0.9057
 1335Sol     OW 8423   1.041   0.972   5.896 -0.4998  0.4091 -0.0618
 1335Sol     HW 8424   1.083   0.898   5.939  0.3138  0.6708 -0.3917
 1335Sol     HW 8425   1.074   1.049   5.943 -0.6024  0.6193 -0.3300
 1335Sol     MW 8426   1.048   0.973   5.905 -0.3734  0.0718 -0.6357
 1336Sol     OW 8427   0.358   2.274   5.075 -0.0088 -0.1786 -0.3675
 1336Sol     HW 8428   0.294   2.238   5.136  0.4055 -0.1567  0.0746
 1336Sol     HW 8429   0.414   2.201   5.052 -0.6598 -0.3822 -1.3605
 1336Sol     MW 8430   0.357   2.265   5.078  0.2357 -0.0260 -0.1134
 1337Sol     OW 8431   2.857   1.163   5.883  0.5813 -0.6282 -0.1494
 1337Sol     HW 8432   2.811   1.192   5.961 -0.2561 -2.6996  0.1755
 1337Sol     HW 8433   2.950   1.166   5.906  0.4863  1.1782  0.0430
 1337Sol     MW 8434   2.861   1.166   5.892 -0.4682  0.6926 -0.0828
 1338Sol     OW 8435   2.765   1.777   8.749 -0.6750 -0.7482 -0.1066
 1338Sol     HW 8436   2.765   1.701   8.806  0.4777 -0.9323 -0.3388
 1338Sol     HW 8437   2.771   1.852   8.809 -1.5635 -0.8445  0.1080
 1338Sol     MW 8438   2.766   1.777   8.759 -0.1700  0.0280  0.1539
 1339Sol     OW 8439   2.549   1.579   9.071  0.3568 -0.0257 -0.1066
 1339Sol     HW 8440   2.635   1.586   9.028  1.0859  0.7369  1.4265
 1339Sol     HW 8441   2.506   1.662   9.052 -0.0926 -0.4579 -0.9799
 1339Sol     MW 8442   2.553   1.588   9.066 -0.2021  0.1579  0.0290
 1340Sol     OW 8443   0.230   0.493   5.224  0.2143  0.4877 -0.0661
 1340Sol     HW 8444   0.241   0.444   5.142  1.2701  1.2433 -0.3891
 1340Sol     HW 8445   0.319   0.510   5.253 -0.1633  0.5574  1.0470
 1340Sol     MW 8446   0.239   0.490   5.219  0.1359  1.0969 -0.6495
 1341Sol     OW 8447   0.380   2.571   5.758  0.3615 -0.0907  0.2293
 1341Sol     HW 8448   0.404   2.486   5.723  0.8776 -0.6417  1.8822
 1341Sol     HW 8449   0.292   2.587   5.724  0.4859 -1.0209 -0.5449
 1341Sol     MW 8450   0.374   2.565   5.751  0.8397  0.3453 -0.2977
 1342Sol     OW 8451   1.329   0.183   8.185  0.3015  0.3375 -0.1204
 1342Sol     HW 8452   1.360   0.271   8.165 -0.4389  0.9067  1.1846
 1342Sol     HW 8453   1.235   0.193   8.200  0.0481 -0.8368 -0.8771
 1342Sol     MW 8454   1.324   0.192   8.185  0.1237 -0.4979  0.7057
 1343Sol     OW 8455   2.980   2.579   4.161  0.2393 -0.6390  0.0695
 1343Sol     HW 8456   2.971   2.672   4.181  0.3820 -0.8786  1.2761
 1343Sol     HW 8457   2.914   2.536   4.214  2.7580 -1.5913  2.5442
 1343Sol     MW 8458   2.973   2.583   4.167  0.0828  0.0433 -0.5221
 1344Sol     OW 8459   0.017   1.532   2.172 -0.7784  0.1478 -0.3847
 1344Sol     HW 8460  -0.063   1.483   2.188 -2.2031  2.8550  1.0658
 1344Sol     HW 8461   0.074   1.509   2.245 -2.6390  2.9653  2.0755
 1344Sol     MW 8462   0.015   1.526   2.180 -0.2615  0.6560 -0.2399
 1345Sol     OW 8463   3.293   3.189   3.769  0.7338  0.2033  0.2656
 1345Sol     HW 8464   3.277   3.267   3.715  0.0943 -0.6094 -0.7376
 1345Sol     HW 8465   3.213   3.178   3.820  1.4226  1.0983  1.5661
 1345Sol     MW 8466   3.284   3.195   3.769  0.2376  0.4376  0.1767
 1346Sol     OW 8467   0.835   1.321   6.254  0.4180  0.4322  0.3554
 1346Sol     HW 8468   0.800   1.401   6.294  0.8876  1.0014 -0.3435
 1346Sol     HW 8469   0.758   1.273   6.224  0.1759  1.1136 -0.1246
 1346Sol     MW 8470   0.825   1.324   6.255  0.4097  0.1799 -0.0184
 1347Sol     OW 8471   0.105   2.661   3.164  0.4357  0.1914  0.1590
 1347Sol     HW 8472   0.036   2.667   3.097  0.2579 -0.8526  0.2479
 1347Sol     HW 8473   0.179   2.621   3.118  0.7300  0.5925  0.2758
 1347Sol     MW 8474   0.105   2.658   3.154  0.1153 -0.5447  0.1994
 1348Sol     OW 8475   1.667   0.531   3.405  0.3843 -0.3079  0.4044
 1348Sol     HW 8476   1.637   0.612   3.364  0.7506  0.3798  1.4725
 1348Sol     HW 8477   1.591   0.474   3.404 -0.1143  0.3496  0.3957
 1348Sol     MW 8478   1.657   0.533   3.402 -0.4316  0.2763 -0.0042
 1349Sol     OW 8479   2.397   3.135   2.527 -0.0102  0.1651  0.1693
 1349Sol     HW 8480   2.427   3.049   2.497 -1.1257 -0.3701  0.5814
 1349Sol     HW 8481   2.339   3.166   2.457  0.0725  0.4090  0.2076
 1349Sol     MW 8482   2.395   3.130   2.518  0.1683  0.3256  0.6037
 1350Sol     OW 8483   0.465   3.385   6.317  0.2065  0.8437  0.2981
 1350Sol     HW 8484   0.456   3.480   6.318 -3.4880  0.5611  0.8517
 1350Sol     HW 8485   0.459   3.361   6.225 -0.9094  1.0017  0.3265
 1350Sol     MW 8486   0.464   3.391   6.309  0.4823  0.1592  0.6236
 1351Sol     OW 8487   2.982   0.236   8.602 -0.3245  0.2078  0.1399
 1351Sol     HW 8488   2.940   0.251   8.517 -2.6932  0.2861  1.2855
 1351Sol     HW 8489   2.917   0.264   8.666  1.3767 -0.0038  1.9953
 1351Sol     MW 8490   2.972   0.239   8.600 -0.2782  0.3188 -0.4499
 1352Sol     OW 8491   1.546   0.871   8.422  0.5167  0.4587  0.2794
 1352Sol     HW 8492   1.476   0.808   8.439  0.4792  0.0141 -1.3858
 1352Sol     HW 8493   1.562   0.913   8.506 -1.1916 -0.0144  0.8633
 1352Sol     MW 8494   1.541   0.869   8.431 -0.2629 -0.7234 -0.0228
 1353Sol     OW 8495   0.126   3.365   6.724 -0.0159 -0.6472 -0.3601
 1353Sol     HW 8496   0.074   3.442   6.748  1.2008 -0.1854  0.8826
 1353Sol     HW 8497   0.216   3.389   6.747  0.6573 -1.7007 -1.8039
 1353Sol     MW 8498   0.129   3.374   6.729  0.5248 -0.0251 -0.3312
 1354Sol     OW 8499   1.326   3.427   7.150 -0.2728 -0.1288 -0.2378
 1354Sol     HW 8500   1.239   3.388   7.140  0.0845 -1.1727  0.7689
 1354Sol     HW 8501   1.338   3.478   7.069 -1.5661 -0.4578 -0.6509
 1354Sol     MW 8502   1.319   3.428   7.142  0.1026 -0.4935 -0.3410
 1355Sol     OW 8503   0.369   1.054   3.218 -0.0116 -0.1475  0.4187
 1355Sol     HW 8504   0.389   1.107   3.141  1.1987 -1.1303  0.0368
 1355Sol     HW 8505   0.282   1.018   3.201  0.0541  0.0210 -0.2767
 1355Sol     MW 8506   0.363   1.056   3.210  0.4701  0.0627 -0.3540
 1356Sol     OW 8507   2.492   0.674   6.318  0.0939 -0.2009 -0.0828
 1356Sol     HW 8508   2.412   0.694   6.269  0.2203  0.8783  0.1281
 1356Sol     HW 8509   2.502   0.579   6.311 -0.5206 -0.1952 -1.1648
 1356Sol     MW 8510   2.486   0.668   6.313 -0.1691 -0.0787 -0.7677
 1357Sol     OW 8511   0.466   1.049   5.746  0.4580 -0.0299 -0.2752
 1357Sol     HW 8512   0.499   0.980   5.803  0.5297  0.0980 -0.1610
 1357Sol     HW 8513   0.480   1.130   5.795  0.5513  0.0838 -0.4863
 1357Sol     MW 8514   0.471   1.050   5.755 -0.3264 -0.5785  0.6691
 1358Sol     OW 8515   2.131   1.737   2.968  0.5843  0.5279  0.2284
 1358Sol     HW 8516   2.122   1.797   3.042  1.0407  0.7611  0.1016
 1358Sol     HW 8517   2.143   1.651   3.007  0.9015  0.6618  0.4250
 1358Sol     MW 8518   2.131   1.735   2.978 -0.0606 -0.1658 -0.2139
 1359Sol     OW 8519   0.965   3.024   1.570  0.4688 -0.5010  0.0309
 1359Sol     HW 8520   0.938   3.076   1.494  0.7180  2.6057  1.9544
 1359Sol     HW 8521   0.903   3.049   1.639  1.6091 -1.5745  1.4698
 1359Sol     MW 8522   0.957   3.031   1.569  0.2645 -0.0608 -0.2133
 1360Sol     OW 8523   1.304   1.419   7.013 -0.3053  0.0445 -0.0362
 1360Sol     HW 8524   1.295   1.353   7.082 -0.8686  0.9150  0.7396
 1360Sol     HW 8525   1.276   1.501   7.055 -0.8917  0.5370 -1.3712
 1360Sol     MW 8526   1.301   1.421   7.023 -0.1395  0.4660  0.6705
 1361Sol     OW 8527   0.941   0.848   2.743  0.3994  0.2577  0.4083
 1361Sol     HW 8528   0.920   0.938   2.717 -1.0420 -0.2189 -0.1338
 1361Sol     HW 8529   0.909   0.795   2.670  1.9587 -0.6475  0.3595
 1361Sol     MW 8530   0.936   0.852   2.734 -0.1304  0.1891  0.0486
 1362Sol     OW 8531   1.762   2.865   1.379 -0.3580  0.1010 -0.2061
 1362Sol     HW 8532   1.747   2.934   1.315 -2.5287  0.2459  0.4269
 1362Sol     HW 8533   1.808   2.908   1.451 -0.7879  0.6597 -0.2632
 1362Sol     MW 8534   1.765   2.875   1.380 -0.1648 -0.0200  0.0490
 1363Sol     OW 8535   1.081   0.238   3.447 -0.2654 -0.4781 -0.4375
 1363Sol     HW 8536   1.102   0.205   3.534  0.0079 -0.9313 -0.6759
 1363Sol     HW 8537   1.063   0.331   3.461 -0.2359 -0.5518  0.1048
 1363Sol     MW 8538   1.081   0.244   3.456 -0.1815  0.4852 -0.3809
 1364Sol     OW 8539   1.791   1.654   5.996 -0.7296 -0.1150  0.9782
 1364Sol     HW 8540   1.753   1.645   5.909  0.7239  0.0242  0.3188
 1364Sol     HW 8541   1.882   1.677   5.980 -0.6140  0.5794  2.5443
 1364Sol     MW 8542   1.795   1.655   5.987  0.7207  0.0044  0.6040
 1365Sol     OW 8543   2.806   0.321   4.929  0.3135  0.2794  0.0919
 1365Sol     HW 8544   2.739   0.288   4.989  1.5847 -0.3221  1.2183
 1365Sol     HW 8545   2.772   0.405   4.899 -0.7989  0.1279  0.8959
 1365Sol     MW 8546   2.797   0.325   4.932  0.4677  0.3194 -1.0271
 1366Sol     OW 8547   2.923   0.041   9.837  0.7256  0.0337 -0.7320
 1366Sol     HW 8548   2.871  -0.034   9.808  0.7642  0.3108 -1.5219
 1366Sol     HW 8549   2.858   0.105   9.868  0.6836 -0.2407 -0.2427
 1366Sol     MW 8550   2.912   0.040   9.837  0.1660 -0.4048  0.0539
 1367Sol     OW 8551   0.443   0.202   6.311  0.5374  0.3955  0.0454
 1367Sol     HW 8552   0.526   0.248   6.325  0.9225 -0.4704  0.6355
 1367Sol     HW 8553   0.391   0.222   6.389  0.2417  0.8110 -0.2532
 1367Sol     MW 8554   0.446   0.208   6.320  0.0840  0.0476  0.0241
 1368Sol     OW 8555   0.982   1.063   5.437  0.2849  0.0415 -0.6636
 1368Sol     HW 8556   0.891   1.059   5.407 -0.4612  3.0672  1.0039
 1368Sol     HW 8557   1.032   1.028   5.364 -2.1361 -0.7081 -2.0335
 1368Sol     MW 8558   0.978   1.060   5.428  0.1790  0.0057 -0.2339
 1369Sol     OW 8559   2.209   2.158   1.911  0.4598 -0.0514 -0.0776
 1369Sol     HW 8560   2.148   2.230   1.897  1.0562  0.9286  2.2177
 1369Sol     HW 8561   2.232   2.163   2.003  1.2267 -2.6369 -0.0899
 1369Sol     MW 8562   2.206   2.165   1.918 -0.6084  1.0169  0.2834
 1370Sol     OW 8563   0.748   2.177   9.018  0.2264  0.3037  0.0592
 1370Sol     HW 8564   0.701   2.117   9.076 -1.7832 -0.4192 -2.2210
 1370Sol     HW 8565   0.814   2.122   8.976  2.0394  0.9433  1.9893
 1370Sol     MW 8566   0.750   2.167   9.020 -0.1512 -0.3894 -0.1524
 1371Sol     OW 8567   0.969   0.139   4.865 -0.4054  0.6816 -0.1095
 1371Sol     HW 8568   0.963   0.173   4.776  0.1320  1.5374  0.1737
 1371Sol     HW 8569   0.921   0.203   4.918 -0.8779  0.0820  0.2016
 1371Sol     MW 8570   0.964   0.148   4.862 -0.2970 -1.0416  0.0389
 1372Sol     OW 8571   1.280   1.147   6.865 -0.2722 -0.1358 -0.2577
 1372Sol     HW 8572   1.257   1.104   6.947  0.6657 -0.7086 -0.2810
 1372Sol     HW 8573   1.296   1.238   6.889 -0.9163 -0.0949  0.0297
 1372Sol     MW 8574   1.280   1.151   6.875 -0.2336 -0.0911 -0.0771
 1373Sol     OW 8575   0.642   1.466   9.429 -0.5295  0.0971  0.2033
 1373Sol     HW 8576   0.657   1.412   9.352 -1.5781  1.4112 -0.9371
 1373Sol     HW 8577   0.728   1.504   9.449 -0.2134 -0.4088 -0.1905
 1373Sol     MW 8578   0.651   1.464   9.424  0.3097 -0.0655 -0.2677
 1374Sol     OW 8579   0.198   1.084   2.670  0.4059  0.2819  0.0758
 1374Sol     HW 8580   0.202   1.000   2.717 -0.4640  0.8917  1.2639
 1374Sol     HW 8581   0.165   1.060   2.583 -1.2228 -0.4512  0.8613
 1374Sol     MW 8582   0.196   1.074   2.667  0.4909 -0.6325 -0.5824
 1375Sol     OW 8583   0.454   2.265   2.762  0.4809 -0.1337 -0.4059
 1375Sol     HW 8584   0.540   2.261   2.721  0.7148 -1.0631  0.1735
 1375Sol     HW 8585   0.460   2.337   2.825  0.0225  1.5334 -2.1902
 1375Sol     MW 8586   0.462   2.271   2.764  0.2224  0.2581 -0.0711
 1376Sol     OW 8587   1.320   1.484   2.758 -0.1153  0.4069 -0.1176
 1376Sol     HW 8588   1.292   1.407   2.806 -0.1553  0.1082 -0.6182
 1376Sol     HW 8589   1.323   1.456   2.666  3.9228 -0.2135  0.1199
 1376Sol     MW 8590   1.318   1.475   2.754 -0.6172  0.4799 -0.7248
 1377Sol     OW 8591   1.639   2.326   2.892 -0.3152 -0.6352  0.0428
 1377Sol     HW 8592   1.565   2.325   2.831 -1.4309  3.2723  1.2132
 1377Sol     HW 8593   1.605   2.285   2.971 -0.8080 -0.1429  0.0927
 1377Sol     MW 8594   1.629   2.322   2.893 -0.6201 -0.0200  0.0116
 1378Sol     OW 8595   2.509   1.247   7.339 -0.3174  0.4585  0.5688
 1378Sol     HW 8596   2.519   1.263   7.245 -0.2637 -2.8962 -0.0490
 1378Sol     HW 8597   2.572   1.306   7.380  2.9629 -1.2389 -1.7792
 1378Sol     MW 8598   2.515   1.254   7.334 -0.3157  0.0705  0.2667
 1379Sol     OW 8599   2.575   1.692   6.734 -0.2407 -0.5511 -0.1763
 1379Sol     HW 8600   2.574   1.788   6.731  0.3161 -0.5422 -0.1791
 1379Sol     HW 8601   2.483   1.667   6.739 -0.3449  0.0193  0.8548
 1379Sol     MW 8602   2.567   1.699   6.734 -0.5191  0.2177  0.0382
 1380Sol     OW 8603   2.426   0.454   8.109 -0.1266  0.0083  0.6370
 1380Sol     HW 8604   2.398   0.376   8.156 -2.9543  0.9362  0.5671
 1380Sol     HW 8605   2.372   0.456   8.030  0.7245  1.4122  0.0619
 1380Sol     MW 8606   2.419   0.447   8.106 -0.0326  0.0233 -0.1685
 1381Sol     OW 8607   2.253   2.262   9.555  0.4038 -0.9010  0.3742
 1381Sol     HW 8608   2.228   2.246   9.646  0.0476 -1.4840  0.1780
 1381Sol     HW 8609   2.266   2.174   9.518 -1.9142 -0.7748 -0.8337
 1381Sol     MW 8610   2.252   2.252   9.560  0.0636  0.0986 -0.2261
 1382Sol     OW 8611   0.112   0.960   2.433 -0.2453  0.1322  0.1018
 1382Sol     HW 8612   0.201   0.951   2.399  0.0468 -2.2498  1.3987
 1382Sol     HW 8613   0.056   0.957   2.355  0.7256  0.5795 -0.6240
 1382Sol     MW 8614   0.115   0.959   2.423  0.5027 -0.1110 -0.0224
 1383Sol     OW 8615   3.086   2.631   5.595 -0.1523 -0.6291 -0.1042
 1383Sol     HW 8616   3.090   2.590   5.682 -1.1865  0.1217  0.3062
 1383Sol     HW 8617   3.125   2.717   5.607 -2.5448  0.4408  0.2043
 1383Sol     MW 8618   3.090   2.635   5.604  0.2743 -0.2986 -0.2315
 1384Sol     OW 8619   1.974   0.049   8.521  0.3969 -0.2189 -0.0990
 1384Sol     HW 8620   1.891   0.081   8.486 -0.3038 -1.2409  0.6099
 1384Sol     HW 8621   1.951   0.005   8.603  1.3219 -2.4145 -0.9627
 1384Sol     MW 8622   1.964   0.048   8.525  0.4237 -0.1906 -0.2074
 1385Sol     OW 8623   2.203   3.155   2.276 -1.0380  0.2870  0.3844
 1385Sol     HW 8624   2.120   3.197   2.250 -1.7993 -2.1166 -1.2741
 1385Sol     HW 8625   2.183   3.062   2.275  1.1919 -0.2297  1.9317
 1385Sol     MW 8626   2.193   3.151   2.274  0.1947 -0.7376 -0.2072
 1386Sol     OW 8627   2.353   0.788   2.232  0.8274  0.2621  0.3701
 1386Sol     HW 8628   2.348   0.855   2.300  0.3492  0.3942  0.2044
 1386Sol     HW 8629   2.377   0.837   2.152 -1.9342  0.6082 -0.2886
 1386Sol     MW 8630   2.355   0.799   2.231 -0.8842 -0.8276 -0.5285
 1387Sol     OW 8631   1.641   0.858   2.800  0.6455  0.1192 -0.4333
 1387Sol     HW 8632   1.590   0.926   2.844 -0.3065 -0.1782 -1.0596
 1387Sol     HW 8633   1.718   0.903   2.767  1.9564  0.1435  2.5183
 1387Sol     MW 8634   1.643   0.868   2.801  0.4192  0.3213  0.1949
 1388Sol     OW 8635   0.625   2.402   9.093 -0.4192 -0.1260 -0.2620
 1388Sol     HW 8636   0.671   2.323   9.062 -1.5932 -0.1507 -2.0309
 1388Sol     HW 8637   0.676   2.431   9.168  0.1037 -2.5292  0.3805
 1388Sol     MW 8638   0.633   2.397   9.097 -0.1267 -0.0154  0.0793
 1389Sol     OW 8639   2.076   3.388   1.922  0.0044  0.0085 -0.3528
 1389Sol     HW 8640   2.140   3.438   1.972  0.0181  0.5582 -0.9193
 1389Sol     HW 8641   2.122   3.307   1.898 -0.1358 -0.4369  0.8628
 1389Sol     MW 8642   2.086   3.385   1.924 -0.0089 -0.1095 -0.3895
 1390Sol     OW 8643   2.257   2.879   2.050  0.4205  0.0771 -0.1406
 1390Sol     HW 8644   2.334   2.933   2.034 -1.1028  1.4691 -3.0889
 1390Sol     HW 8645   2.271   2.800   1.997 -1.3362  1.5000 -2.8024
 1390Sol     MW 8646   2.265   2.877   2.044 -0.4030 -0.1862 -0.0390
 1391Sol     OW 8647   1.132   1.764   4.568 -0.5978  0.2183  0.0585
 1391Sol     HW 8648   1.218   1.806   4.571  0.3135 -1.5443 -0.2223
 1391Sol     HW 8649   1.097   1.788   4.482 -0.6345  1.3896  0.3899
 1391Sol     MW 8650   1.137   1.770   4.561 -0.2247  0.6071  0.7657
 1392Sol     OW 8651   1.966   3.030   1.489  0.9464 -0.3341 -0.2273
 1392Sol     HW 8652   1.928   3.100   1.543 -2.0280  0.1928 -2.8335
 1392Sol     HW 8653   2.038   3.072   1.443  0.5363  0.4685 -0.1621
 1392Sol     MW 8654   1.969   3.040   1.490  0.4372  0.3224  0.6029
 1393Sol     OW 8655   1.388   2.821   4.734  0.6461  0.3869  0.2467
 1393Sol     HW 8656   1.428   2.743   4.696  0.2141  0.4953 -0.4376
 1393Sol     HW 8657   1.414   2.893   4.676 -0.7381  0.4192 -0.3710
 1393Sol     MW 8658   1.394   2.821   4.725 -0.5849 -0.1095  0.7974
 1394Sol     OW 8659   2.571   0.368   3.394  0.6375 -0.3345  0.0689
 1394Sol     HW 8660   2.666   0.382   3.392  0.4242  1.1414  0.0433
 1394Sol     HW 8661   2.553   0.338   3.483  0.9847  0.5126  0.4346
 1394Sol     MW 8662   2.578   0.367   3.402  0.2581 -0.5699 -0.1926
 1395Sol     OW 8663   0.551   3.054   3.229  0.8187 -0.2661 -0.2070
 1395Sol     HW 8664   0.489   3.127   3.236  1.0227 -0.0196 -0.9261
 1395Sol     HW 8665   0.634   3.096   3.204  1.3136 -0.5733  0.8906
 1395Sol     MW 8666   0.553   3.065   3.228 -0.1595 -0.1072  0.1334
 1396Sol     OW 8667   1.872   0.931   3.320 -0.2306 -0.1906 -0.2553
 1396Sol     HW 8668   1.791   0.884   3.301 -0.8290  0.3410  0.9171
 1396Sol     HW 8669   1.857   1.019   3.283  0.2831 -0.4449 -1.0836
 1396Sol     MW 8670   1.863   0.935   3.315  0.1682  0.0815  0.3645
 1397Sol     OW 8671   2.836   2.779   5.166  0.5764  0.3153  0.5902
 1397Sol     HW 8672   2.866   2.830   5.240 -0.6431  1.0472  0.6008
 1397Sol     HW 8673   2.898   2.707   5.159  1.6200  1.1366  1.3179
 1397Sol     MW 8674   2.844   2.777   5.172  0.3696 -0.4589  0.2345
 1398Sol     OW 8675   1.439   2.299   6.627 -0.2906 -0.4194 -0.5707
 1398Sol     HW 8676   1.413   2.266   6.713  3.3168 -0.3861  0.6156
 1398Sol     HW 8677   1.417   2.229   6.566  1.9282 -2.6594  1.1176
 1398Sol     MW 8678   1.435   2.290   6.629 -0.1645  0.6323  0.4449
 1399Sol     OW 8679   2.839   2.811   9.266 -0.3486  0.1110 -0.1347
 1399Sol     HW 8680   2.823   2.899   9.232 -0.9655  0.5939  1.3372
 1399Sol     HW 8681   2.832   2.753   9.191 -0.7746  1.2357 -0.9621
 1399Sol     MW 8682   2.837   2.814   9.256  0.6448  0.1029 -0.4472
 1400Sol     OW 8683   0.451   0.421   4.627  0.5032 -0.2139  0.0893
 1400Sol     HW 8684   0.421   0.486   4.691  1.4666  0.5117 -0.1844
 1400Sol     HW 8685   0.377   0.409   4.568 -0.3632 -0.8069  1.2630
 1400Sol     MW 8686   0.442   0.425   4.627  0.4868  0.0096 -0.4048
 1401Sol     OW 8687   2.250   3.116   5.670  0.0612  0.6459 -0.1207
 1401Sol     HW 8688   2.320   3.051   5.661  0.0315  0.8989 -2.5530
 1401Sol     HW 8689   2.184   3.073   5.726  1.5846 -0.0591  1.1592
 1401Sol     MW 8690   2.250   3.106   5.674 -0.2078  0.4654  0.5010
 1402Sol     OW 8691   2.331   2.706   5.806 -0.8224 -0.1612  0.1097
 1402Sol     HW 8692   2.391   2.775   5.836  0.0465 -0.9687  0.2776
 1402Sol     HW 8693   2.360   2.687   5.717 -1.6589  0.3333 -0.2709
 1402Sol     MW 8694   2.339   2.711   5.801 -0.5904 -0.6175 -0.4191
 1403Sol     OW 8695   1.496   0.363   2.148  0.8235 -0.3020  0.6336
 1403Sol     HW 8696   1.512   0.293   2.085  1.8406 -0.2807  0.8578
 1403Sol     HW 8697   1.406   0.389   2.133  0.5714 -1.3812  0.2609
 1403Sol     MW 8698   1.490   0.359   2.141 -0.2561 -0.3021  0.2335
 1404Sol     OW 8699   1.800   0.738   3.003  0.2150 -0.1153  0.4118
 1404Sol     HW 8700   1.764   0.747   3.091 -0.1943 -1.6808  0.4105
 1404Sol     HW 8701   1.725   0.748   2.944  0.5835  1.5554  0.1945
 1404Sol     MW 8702   1.790   0.740   3.005 -0.0601 -0.7378  0.4334
 1405Sol     OW 8703   1.510   1.507   3.543  0.1687  0.2046 -0.0790
 1405Sol     HW 8704   1.588   1.508   3.598 -0.2489  1.7901  0.4797
 1405Sol     HW 8705   1.520   1.583   3.486 -1.5554  1.1009  0.8074
 1405Sol     MW 8706   1.518   1.514   3.543  0.6772  0.0765 -0.4313
 1406Sol     OW 8707   0.294   0.906   7.249  0.7449 -0.2794 -0.5734
 1406Sol     HW 8708   0.327   0.816   7.247  3.0396  0.5034  0.2585
 1406Sol     HW 8709   0.200   0.897   7.265  0.6784 -2.5639 -2.0735
 1406Sol     MW 8710   0.289   0.897   7.251 -0.0911 -0.0454 -0.2312
 1407Sol     OW 8711   1.917   1.616   7.228 -0.3114 -0.7067  0.6638
 1407Sol     HW 8712   1.822   1.609   7.220 -0.3169  1.0741 -1.0398
 1407Sol     HW 8713   1.930   1.673   7.304 -0.5552 -1.7968  1.5482
 1407Sol     MW 8714   1.910   1.620   7.234 -0.3642  0.3321 -0.4497
 1408Sol     OW 8715   2.708   0.081   7.078 -0.5861 -0.0295 -0.2601
 1408Sol     HW 8716   2.785   0.085   7.135  0.6014  0.9656 -1.8994
 1408Sol     HW 8717   2.636   0.057   7.137  0.7259  0.3002  1.5217
 1408Sol     MW 8718   2.709   0.079   7.089  0.1068 -0.2228  0.3896
 1409Sol     OW 8719   0.086   2.730   6.182  0.0749 -0.5916  0.7412
 1409Sol     HW 8720   0.102   2.736   6.088  2.2517 -0.8289  1.0550
 1409Sol     HW 8721   0.017   2.793   6.199  0.8396  0.6913 -0.7605
 1409Sol     MW 8722   0.081   2.736   6.175 -0.2268  0.1247  0.1559
 1410Sol     OW 8723   2.548   1.339   6.610  0.1467 -0.1817 -0.3901
 1410Sol     HW 8724   2.606   1.411   6.585 -0.2786  0.1030 -0.5642
 1410Sol     HW 8725   2.587   1.262   6.569  0.5982 -0.0518 -0.2114
 1410Sol     MW 8726   2.557   1.339   6.604 -0.0966 -0.6171 -0.2412
 1411Sol     OW 8727   1.895   1.535   7.551 -0.0635  0.3026  0.2986
 1411Sol     HW 8728   1.825   1.492   7.502 -1.2345  1.5923  0.8114
 1411Sol     HW 8729   1.874   1.518   7.642  0.8961 -0.1982  0.4381
 1411Sol     MW 8730   1.887   1.529   7.554  0.4968  0.3676 -0.5714
 1412Sol     OW 8731   0.211   1.754   1.702  0.1542 -0.0045  0.0951
 1412Sol     HW 8732   0.227   1.847   1.720  0.7959 -0.1770  0.4171
 1412Sol     HW 8733   0.253   1.739   1.618  0.4504 -0.1161  0.2639
 1412Sol     MW 8734   0.216   1.761   1.696 -0.8326  0.1280 -0.6909
 1413Sol     OW 8735   0.983   1.120   3.659  0.0588 -0.2592  0.2535
 1413Sol     HW 8736   0.912   1.176   3.627  0.1201 -0.4260 -0.1736
 1413Sol     HW 8737   1.010   1.069   3.582  0.3093 -0.5485  0.5333
 1413Sol     MW 8738   0.979   1.121   3.649 -0.3122  0.0791 -0.0965
 1414Sol     OW 8739   2.752   0.939   5.079  0.5479  0.3545 -0.5899
 1414Sol     HW 8740   2.685   1.007   5.070  0.8673  0.7366 -0.1114
 1414Sol     HW 8741   2.835   0.986   5.069  0.7362 -0.3227 -2.5801
 1414Sol     MW 8742   2.753   0.949   5.077 -0.2578  0.3307  0.1526
 1415Sol     OW 8743   0.678   3.000   6.300  0.1213  0.3324 -0.1980
 1415Sol     HW 8744   0.723   3.085   6.304 -0.2685  0.4775  1.5819
 1415Sol     HW 8745   0.605   3.014   6.240  0.7877  0.8922 -0.8924
 1415Sol     MW 8746   0.676   3.009   6.295 -0.3750 -0.4427  0.6116
 1416Sol     OW 8747   1.383   2.850   4.111  0.0282 -0.2905  0.1170
 1416Sol     HW 8748   1.459   2.839   4.055  0.1366  0.6996  0.0527
 1416Sol     HW 8749   1.418   2.893   4.190 -0.7978  2.1578 -0.8096
 1416Sol     MW 8750   1.393   2.853   4.113 -0.4964 -0.5023 -0.2299
 1417Sol     OW 8751   0.637   2.583   3.214 -0.0698  0.2388  0.2543
 1417Sol     HW 8752   0.666   2.493   3.201 -0.2663 -0.3633  3.6220
 1417Sol     HW 8753   0.544   2.577   3.235  0.0486  1.1572  1.1137
 1417Sol     MW 8754   0.631   2.575   3.214 -0.4642  0.1715 -0.0707
 1418Sol     OW 8755   2.300   0.749   1.808 -0.0798  0.0669 -0.5947
 1418Sol     HW 8756   2.337   0.802   1.878  0.2105  0.0672 -0.7458
 1418Sol     HW 8757   2.342   0.781   1.728 -1.0889  0.6793 -0.8845
 1418Sol     MW 8758   2.307   0.757   1.807  0.1616 -0.2302  0.1724
 1419Sol     OW 8759   0.080   0.291   4.796  0.5047 -0.4089  0.0340
 1419Sol     HW 8760   0.093   0.216   4.854 -1.9050 -0.9468 -0.0770
 1419Sol     HW 8761  -0.008   0.279   4.761  1.5857  0.3574 -3.1029
 1419Sol     MW 8762   0.073   0.283   4.798  0.2181  0.2510  0.4488
 1420Sol     OW 8763   2.278   2.953   8.180  0.0360 -0.2994 -0.1186
 1420Sol     HW 8764   2.249   2.941   8.090  1.7141  1.5179 -0.9229
 1420Sol     HW 8765   2.320   2.871   8.203 -0.6001 -0.8532 -0.9094
 1420Sol     MW 8766   2.279   2.945   8.174  0.1544  0.2815 -0.1117
 1421Sol     OW 8767   1.718   2.191   8.768  0.2296 -0.5048  0.4199
 1421Sol     HW 8768   1.664   2.117   8.738  1.7179 -1.2269 -0.5057
 1421Sol     HW 8769   1.780   2.152   8.830  0.2634  0.1857  0.8338
 1421Sol     MW 8770   1.718   2.181   8.771  0.0708 -0.5590 -0.8237
 1422Sol     OW 8771   2.533   3.422   7.262  0.8494 -0.3636 -0.2241
 1422Sol     HW 8772   2.551   3.328   7.259  1.8268 -0.1413 -1.8358
 1422Sol     HW 8773   2.443   3.430   7.229  0.6103 -0.7621  0.3192
 1422Sol     MW 8774   2.526   3.415   7.259  0.1546 -0.3060 -0.1901
 1423Sol     OW 8775   3.250   1.140   3.608 -0.0582 -0.6433  0.1131
 1423Sol     HW 8776   3.337   1.128   3.570 -1.0255 -0.0979 -2.3424
 1423Sol     HW 8777   3.208   1.054   3.599 -0.2336 -0.5517  0.0437
 1423Sol     MW 8778   3.254   1.131   3.604  0.0246 -0.3088  0.1320
 1424Sol     OW 8779   3.132   0.856   2.597  0.4396  0.0128  0.1831
 1424Sol     HW 8780   3.047   0.898   2.612  1.0133  0.7974  1.3333
 1424Sol     HW 8781   3.195   0.928   2.604  1.2281 -0.6184 -0.3974
 1424Sol     MW 8782   3.130   0.867   2.599  0.4145 -0.4159  0.1867
 1425Sol     OW 8783   3.173   2.351   8.643 -0.9392 -0.1046 -0.0409
 1425Sol     HW 8784   3.188   2.446   8.644 -1.6911  0.0039  1.0961
 1425Sol     HW 8785   3.192   2.325   8.553  1.2781  0.7963  0.1299
 1425Sol     MW 8786   3.176   2.357   8.635 -0.0753  0.4888  0.5231
 1426Sol     OW 8787   2.872   0.865   2.700 -0.3122  1.0652 -0.1097
 1426Sol     HW 8788   2.893   0.799   2.766 -0.5638  1.4485  0.3621
 1426Sol     HW 8789   2.841   0.815   2.625  0.5557  0.5931 -0.1554
 1426Sol     MW 8790   2.871   0.855   2.700  0.8113  0.0904 -0.0347
 1427Sol     OW 8791   0.756   1.273   4.243 -0.5118 -0.3735 -0.3485
 1427Sol     HW 8792   0.794   1.186   4.258  2.3209  0.5765 -1.6872
 1427Sol     HW 8793   0.748   1.311   4.330  5.0079  0.7076 -0.1429
 1427Sol     MW 8794   0.759   1.269   4.252  0.3420  0.0994 -0.9656
 1428Sol     OW 8795   0.020   0.687   3.665  0.0039 -0.5290 -1.0247
 1428Sol     HW 8796   0.097   0.690   3.608 -0.1650  2.2204 -1.1628
 1428Sol     HW 8797   0.042   0.746   3.738 -2.4598  1.3382 -1.7341
 1428Sol     MW 8798   0.029   0.693   3.667  0.4206 -0.1826 -0.0560
 1429Sol     OW 8799   2.458   2.886   2.435  0.2972  0.0221  0.2873
 1429Sol     HW 8800   2.371   2.868   2.400  0.0765 -0.3281  1.0080
 1429Sol     HW 8801   2.464   2.831   2.513  1.7717 -1.1685 -0.6308
 1429Sol     MW 8802   2.451   2.879   2.439  0.9258  0.4713 -0.5049
 1430Sol     OW 8803   2.793   3.412   5.138 -0.6295  0.4387 -0.2711
 1430Sol     HW 8804   2.886   3.410   5.117 -0.5469 -0.0229  0.1428
 1430Sol     HW 8805   2.749   3.388   5.056 -0.3180 -1.0763  0.0022
 1430Sol     MW 8806   2.797   3.410   5.129  0.0178  0.1124  0.4231
 1431Sol     OW 8807   0.764   2.819   3.007  0.5210 -0.3906 -0.2782
 1431Sol     HW 8808   0.693   2.846   2.949  0.0557  0.1004  0.5087
 1431Sol     HW 8809   0.740   2.729   3.033  0.8920 -0.7244 -1.0894
 1431Sol     MW 8810   0.755   2.813   3.004 -0.0114  0.2072  0.6091
 1432Sol     OW 8811   2.061   2.703   2.981 -0.1100  0.1052 -0.1161
 1432Sol     HW 8812   2.086   2.734   2.894  0.3952 -0.5705 -0.2213
 1432Sol     HW 8813   2.006   2.626   2.964  0.1696 -0.1590  0.1569
 1432Sol     MW 8814   2.058   2.699   2.971 -0.0433 -0.1114 -0.2818
 1433Sol     OW 8815   1.090   0.702   9.006  0.4193 -0.2864  0.4534
 1433Sol     HW 8816   1.158   0.638   9.027  0.3890 -0.2607  0.6290
 1433Sol     HW 8817   1.134   0.766   8.950  1.2552  1.2323  2.7870
 1433Sol     MW 8818   1.100   0.702   9.003 -0.0880 -0.5468  0.1291
 1434Sol     OW 8819   2.137   0.083   5.327 -0.6325 -0.5649  0.5369
 1434Sol     HW 8820   2.153   0.006   5.381 -0.3902 -0.6758  0.3067
 1434Sol     HW 8821   2.219   0.097   5.281 -0.4577  0.2303  1.0783
 1434Sol     MW 8822   2.146   0.077   5.328 -0.2094  0.3173 -0.3264
 1435Sol     OW 8823   0.896   0.780   9.176  0.1041 -0.3108  0.0072
 1435Sol     HW 8824   0.977   0.741   9.143  0.7929  0.3899  0.8616
 1435Sol     HW 8825   0.835   0.706   9.181  0.5498 -0.7595 -1.0617
 1435Sol     MW 8826   0.898   0.770   9.173 -0.8598 -0.4009  0.7957
 1436Sol     OW 8827   0.737   1.123   9.660  0.3008  0.8108  0.6046
 1436Sol     HW 8828   0.763   1.084   9.744  2.2286 -0.0385 -0.3535
 1436Sol     HW 8829   0.745   1.051   9.597  0.6872  1.9168 -0.6246
 1436Sol     MW 8830   0.740   1.113   9.662 -0.3674 -0.2160  0.0997
 1437Sol     OW 8831   0.289   0.610   7.544  0.0908  0.5425  0.0597
 1437Sol     HW 8832   0.336   0.573   7.618 -1.3195 -2.3136 -0.4043
 1437Sol     HW 8833   0.356   0.619   7.475  1.0227  1.5600  1.0756
 1437Sol     MW 8834   0.299   0.608   7.544  0.0678  0.3983 -0.0415
 1438Sol     OW 8835   1.421   3.324   5.249 -0.3520  0.4705 -0.2076
 1438Sol     HW 8836   1.428   3.367   5.164  0.5458  0.6607 -0.0361
 1438Sol     HW 8837   1.456   3.388   5.311  0.8751 -0.4512  0.0636
 1438Sol     MW 8838   1.425   3.334   5.247  0.1854  0.3086  0.0067
 1439Sol     OW 8839   2.088   1.538   8.802  0.5420 -0.1648  0.0324
 1439Sol     HW 8840   2.003   1.495   8.787 -0.0096  1.0403 -0.3792
 1439Sol     HW 8841   2.094   1.603   8.732  1.7626 -0.1616  0.1343
 1439Sol     MW 8842   2.081   1.540   8.795 -0.3858 -0.3115  0.4064
 1440Sol     OW 8843   1.391   2.159   5.240 -0.1755  0.3359 -0.0609
 1440Sol     HW 8844   1.411   2.141   5.148 -1.5386 -0.2068 -0.2703
 1440Sol     HW 8845   1.454   2.225   5.266  0.3112  0.3982 -1.3578
 1440Sol     MW 8846   1.398   2.163   5.234 -0.3254 -0.3438  0.2173
 1441Sol     OW 8847   2.982   2.207   8.376 -0.1391  0.2053 -0.3178
 1441Sol     HW 8848   2.985   2.225   8.282 -0.9922  0.5631 -0.2819
 1441Sol     HW 8849   3.072   2.182   8.398  0.4353  1.6611 -0.9241
 1441Sol     MW 8850   2.990   2.206   8.369 -0.4533 -0.6354 -0.8084
 1442Sol     OW 8851   0.758   3.061   7.434  0.3120 -0.9606  0.0148
 1442Sol     HW 8852   0.756   3.078   7.340 -0.1773 -0.3175  0.1332
 1442Sol     HW 8853   0.666   3.049   7.458  0.1829  1.4043  0.8321
 1442Sol     MW 8854   0.750   3.062   7.428 -0.3240  0.5442  0.3287
 1443Sol     OW 8855   1.445   0.673   3.055 -0.3554  0.2929  0.9814
 1443Sol     HW 8856   1.386   0.697   2.984  1.5851  1.7055 -0.1877
 1443Sol     HW 8857   1.496   0.599   3.020  0.6067  0.9939  0.8819
 1443Sol     MW 8858   1.445   0.668   3.046  0.0033 -0.1896 -0.0704
 1444Sol     OW 8859   2.532   0.308   8.920  0.2785  0.2513  0.1091
 1444Sol     HW 8860   2.461   0.367   8.945 -1.5605 -0.6834 -2.7438
 1444Sol     HW 8861   2.499   0.260   8.845  3.6344 -0.8430 -0.7695
 1444Sol     MW 8862   2.523   0.309   8.916 -0.4618 -0.0927  0.3214
 1445Sol     OW 8863   1.038   1.952   7.006  0.4667 -0.1361  0.5630
 1445Sol     HW 8864   0.995   1.912   7.081 -2.1849 -1.3554 -1.4999
 1445Sol     HW 8865   0.988   1.921   6.930  2.1179  2.2262 -1.6034
 1445Sol     MW 8866   1.030   1.946   7.006  0.2260  0.0054  0.5835
 1446Sol     OW 8867   0.962   2.030   8.927 -0.3477  0.2429 -0.1052
 1446Sol     HW 8868   1.034   2.041   8.989  0.8505 -2.6589 -0.8777
 1446Sol     HW 8869   0.995   2.070   8.846 -1.3011  2.6512  0.6641
 1446Sol     MW 8870   0.972   2.035   8.925 -0.3218 -0.0410  0.1880
 1447Sol     OW 8871   0.171   2.414   4.943  0.3994 -0.1258 -0.0534
 1447Sol     HW 8872   0.202   2.501   4.915  1.9131 -0.2987  1.0564
 1447Sol     HW 8873   0.248   2.371   4.980 -0.6577 -1.4269  0.6984
 1447Sol     MW 8874   0.181   2.418   4.944  0.1031 -0.1388  0.2288
 1448Sol     OW 8875   2.004   1.700   8.144 -0.2868  0.0045 -0.3086
 1448Sol     HW 8876   1.959   1.624   8.182  0.3277  0.4667  1.3697
 1448Sol     HW 8877   1.952   1.775   8.173  0.4417  0.3924 -0.0042
 1448Sol     MW 8878   1.995   1.700   8.150  0.4305  0.0532 -0.0780
 1449Sol     OW 8879   1.309   1.947   4.007  0.6290 -0.0729 -0.5631
 1449Sol     HW 8880   1.276   1.954   4.097  0.6622  0.4784 -0.5942
 1449Sol     HW 8881   1.318   1.852   3.993  1.4691 -0.1347  0.3171
 1449Sol     MW 8882   1.307   1.939   4.014 -0.0868  0.2078  0.0820
 1450Sol     OW 8883   1.799   0.466   8.385  0.1640  0.5359 -0.0143
 1450Sol     HW 8884   1.867   0.427   8.440  0.1374  0.7605  0.1791
 1450Sol     HW 8885   1.821   0.559   8.382 -0.8620  0.8252  1.1138
 1450Sol     MW 8886   1.807   0.471   8.390  0.3498  0.2050 -0.1380
 1451Sol     OW 8887   0.691   0.284   4.995 -0.5040 -0.2346  0.1272
 1451Sol     HW 8888   0.680   0.193   5.022  2.8713 -1.2204 -1.5390
 1451Sol     HW 8889   0.755   0.320   5.056  0.8706 -0.0788 -1.3505
 1451Sol     MW 8890   0.696   0.279   5.003 -0.2569 -0.3464 -0.0315
 1452Sol     OW 8891   0.358   2.562   3.112 -0.4989 -0.1204  0.0453
 1452Sol     HW 8892   0.383   2.530   3.026  0.1608  1.5482 -0.3996
 1452Sol     HW 8893   0.389   2.652   3.114 -0.2575 -0.2268  2.1399
 1452Sol     MW 8894   0.363   2.567   3.105  0.3277 -0.4960  0.4846
 1453Sol     OW 8895   2.981   1.512   1.809  0.0440  0.0838  0.4979
 1453Sol     HW 8896   3.067   1.474   1.794 -0.9722 -1.5503 -1.4977
 1453Sol     HW 8897   2.930   1.487   1.732 -1.9207  1.8863  1.1606
 1453Sol     MW 8898   2.984   1.506   1.801  0.0547 -0.1579  0.3325
 1454Sol     OW 8899   0.904   2.986   5.039  0.4156 -0.2374 -0.0861
 1454Sol     HW 8900   0.847   3.062   5.048  1.8588  0.6961  1.2887
 1454Sol     HW 8901   0.970   2.997   5.107  2.0079 -1.5216 -1.3911
 1454Sol     MW 8902   0.905   2.994   5.046 -0.3648 -0.2699  0.3011
 1455Sol     OW 8903   1.935   1.907   4.001  0.2584 -0.1967  0.2950
 1455Sol     HW 8904   1.964   1.997   3.987  0.1197 -0.1991 -0.0315
 1455Sol     HW 8905   1.991   1.854   3.944 -0.3194 -0.2088 -0.2812
 1455Sol     MW 8906   1.942   1.910   3.994  0.7342 -0.3792 -0.1352
 1456Sol     OW 8907   2.520   2.474   8.673 -0.7736  0.3306 -0.0758
 1456Sol     HW 8908   2.499   2.559   8.710  2.3913  0.2219  2.1228
 1456Sol     HW 8909   2.566   2.493   8.592 -0.7361  0.6803  0.0288
 1456Sol     MW 8910   2.522   2.483   8.669 -0.8243  0.8275  0.7162
 1457Sol     OW 8911   0.859   1.556   3.014  0.5393  0.1776  0.3793
 1457Sol     HW 8912   0.930   1.577   3.074  2.0207  0.9713 -1.6025
 1457Sol     HW 8913   0.877   1.608   2.936 -1.5694 -0.5116 -0.6114
 1457Sol     MW 8914   0.867   1.562   3.012  0.0575 -0.0176  0.1028
 1458Sol     OW 8915   0.199   2.750   8.362  0.3272 -0.4963 -0.5350
 1458Sol     HW 8916   0.225   2.695   8.436  0.4803 -1.2664 -1.1499
 1458Sol     HW 8917   0.281   2.791   8.333  0.3558 -0.5971 -0.5965
 1458Sol     MW 8918   0.209   2.749   8.366 -0.3994  0.0416 -0.0821
 1459Sol     OW 8919   3.203   0.065   3.405 -0.4119  0.2561  0.0257
 1459Sol     HW 8920   3.198   0.014   3.324 -2.2060 -1.8455  1.4020
 1459Sol     HW 8921   3.182   0.003   3.474 -0.1797  2.3104  2.0096
 1459Sol     MW 8922   3.201   0.055   3.403  0.1411  0.1334 -0.1868
 1460Sol     OW 8923   1.628   1.965   4.200 -0.3357 -0.0686  0.2068
 1460Sol     HW 8924   1.606   1.962   4.106 -1.2807  0.3006  0.4156
 1460Sol     HW 8925   1.704   1.907   4.208 -0.7222 -0.7087 -0.6641
 1460Sol     MW 8926   1.633   1.959   4.192  0.4401  0.1983 -0.8479
 1461Sol     OW 8927   1.215   2.233   7.437 -0.1024  0.3627  0.3147
 1461Sol     HW 8928   1.185   2.257   7.525 -0.6143 -0.2282  0.3060
 1461Sol     HW 8929   1.205   2.138   7.434  0.7507  0.2854 -0.0774
 1461Sol     MW 8930   1.211   2.226   7.445 -0.1335  0.3367 -0.1335
 1462Sol     OW 8931   0.804   1.372   5.974 -0.0399  0.0696 -0.2038
 1462Sol     HW 8932   0.894   1.346   5.956  0.0855  0.4586 -0.1457
 1462Sol     HW 8933   0.787   1.343   6.064 -0.3240 -0.9489 -0.5814
 1462Sol     MW 8934   0.810   1.367   5.980 -0.1057 -0.6837 -0.2954
 1463Sol     OW 8935   1.627   1.170   9.059  0.3500  0.0945  0.1552
 1463Sol     HW 8936   1.584   1.231   9.119  0.0321  0.1328 -0.1080
 1463Sol     HW 8937   1.720   1.179   9.077  0.3664  1.3765 -0.5678
 1463Sol     MW 8938   1.631   1.176   9.066  0.0189 -0.1573 -0.3185
 1464Sol     OW 8939   2.952   2.224   4.818 -0.4352 -0.0911 -0.5825
 1464Sol     HW 8940   3.027   2.260   4.771 -0.0489 -0.2784 -0.1094
 1464Sol     HW 8941   2.907   2.170   4.753 -0.0953 -0.0729 -0.8343
 1464Sol     MW 8942   2.955   2.223   4.808 -0.0205 -0.3987 -0.3479
 1465Sol     OW 8943   1.933   2.801   8.724  0.0590 -0.3862  0.1861
 1465Sol     HW 8944   1.925   2.755   8.640 -0.1616 -0.8330  0.4513
 1465Sol     HW 8945   1.895   2.741   8.788 -0.5322  0.3151  0.4898
 1465Sol     MW 8946   1.929   2.791   8.722  0.4422 -0.1247 -0.7656
 1466Sol     OW 8947   2.851   0.414   3.451  0.3918 -0.3063 -0.2190
 1466Sol     HW 8948   2.859   0.392   3.544 -0.3038 -1.0199 -0.3234
 1466Sol     HW 8949   2.919   0.363   3.408 -0.3672 -1.2711 -0.2990
 1466Sol     MW 8950   2.858   0.408   3.456 -0.1732 -0.3652  0.7431
 1467Sol     OW 8951   2.083   1.454   2.035  0.1992 -0.1567 -0.0296
 1467Sol     HW 8952   2.176   1.461   2.056  0.2686 -1.0675 -0.0039
 1467Sol     HW 8953   2.040   1.515   2.094  0.7816  0.2368 -0.0151
 1467Sol     MW 8954   2.087   1.460   2.042 -0.0242 -0.9518 -0.2839
 1468Sol     OW 8955   1.908   0.516   6.151 -0.1146  0.2035 -0.4571
 1468Sol     HW 8956   1.888   0.602   6.188 -2.3076 -1.1791  1.6884
 1468Sol     HW 8957   1.986   0.487   6.199 -1.4514 -0.4812  1.3566
 1468Sol     MW 8958   1.914   0.521   6.159  0.0676 -0.1682  0.2763
 1469Sol     OW 8959   3.270   0.045   7.953  0.2143  0.0017 -0.7788
 1469Sol     HW 8960   3.233   0.008   8.033  1.3653  0.2237 -0.1363
 1469Sol     HW 8961   3.216   0.009   7.883 -0.6373 -0.4110  0.0712
 1469Sol     MW 8962   3.261   0.039   7.954 -0.4040 -0.1061  0.2985
 1470Sol     OW 8963   1.316   1.411   2.504  0.0494  0.4615 -0.0836
 1470Sol     HW 8964   1.341   1.478   2.440 -1.9111  1.4402  0.1404
 1470Sol     HW 8965   1.287   1.337   2.450 -1.2427  1.1465 -0.3593
 1470Sol     MW 8966   1.316   1.411   2.493  0.1060 -0.3220 -0.5436
 1471Sol     OW 8967   2.319   1.391   6.445  0.4996 -0.4082  0.3816
 1471Sol     HW 8968   2.381   1.354   6.508 -0.8650 -0.6834  1.5913
 1471Sol     HW 8969   2.324   1.486   6.459  0.6160 -0.4349  0.5215
 1471Sol     MW 8970   2.325   1.397   6.452  0.3755  0.2989  0.2861
 1472Sol     OW 8971   0.863   1.031   4.261  0.0058  0.1533 -0.1652
 1472Sol     HW 8972   0.858   0.990   4.347  0.1219 -0.3373 -0.3886
 1472Sol     HW 8973   0.859   0.957   4.200 -1.8687  0.6095 -0.6214
 1472Sol     MW 8974   0.862   1.020   4.263 -0.0385  0.5302  0.3513
 1473Sol     OW 8975   3.273   2.950   6.630  0.7953  0.3748  0.0130
 1473Sol     HW 8976   3.351   3.000   6.650 -0.0729  0.7818  2.5114
 1473Sol     HW 8977   3.288   2.864   6.669  0.0512  0.4176  0.4041
 1473Sol     MW 8978   3.281   2.947   6.635  0.4928 -0.1995 -0.0008
 1474Sol     OW 8979   2.305   2.635   5.153  0.8107  0.0158 -0.3050
 1474Sol     HW 8980   2.396   2.654   5.176  1.0174 -1.3292  0.0063
 1474Sol     HW 8981   2.253   2.699   5.202  1.4896 -0.2677  0.7788
 1474Sol     MW 8982   2.308   2.642   5.159 -0.6641 -0.6318 -0.1568
 1475Sol     OW 8983   3.100   2.271   3.526 -0.7251  0.3625 -0.1229
 1475Sol     HW 8984   3.059   2.319   3.598 -2.4075  1.6972 -1.9286
 1475Sol     HW 8985   3.027   2.243   3.471  0.3629 -2.6548 -0.1489
 1475Sol     MW 8986   3.090   2.273   3.528 -0.2796 -0.3059  0.5028
 1476Sol     OW 8987   0.649   0.617   6.182  0.2323 -0.0402  0.2025
 1476Sol     HW 8988   0.699   0.657   6.253  1.0952  0.7784 -0.8487
 1476Sol     HW 8989   0.558   0.640   6.201  0.6273  1.6979  0.0947
 1476Sol     MW 8990   0.645   0.623   6.190 -0.1578 -0.6505  0.7463
 1477Sol     OW 8991   3.081   1.926   5.584  0.1521  0.7812 -0.0825
 1477Sol     HW 8992   3.051   1.839   5.556  1.4855 -0.0257  0.9462
 1477Sol     HW 8993   3.029   1.987   5.531 -2.1835 -0.5999  0.5445
 1477Sol     MW 8994   3.074   1.923   5.577 -0.6521  1.0786 -0.2163
 1478Sol     OW 8995   2.057   2.616   6.161 -0.7077  0.7271 -0.0535
 1478Sol     HW 8996   1.992   2.550   6.187 -1.5119  1.5798  0.1303
 1478Sol     HW 8997   2.084   2.657   6.243  0.9099 -0.3872 -0.0164
 1478Sol     MW 8998   2.053   2.613   6.170  0.5175  0.2002  0.1930
 1479Sol     OW 8999   2.054   2.481   3.614 -0.2733 -0.0411 -0.5613
 1479Sol     HW 9000   2.069   2.386   3.614  1.2189  0.1755 -2.2014
 1479Sol     HW 9001   2.047   2.503   3.707  1.0799 -1.5211 -0.0725
 1479Sol     MW 9002   2.055   2.474   3.623  0.3982  0.0988  0.4071
 1480Sol     OW 9003   1.734   0.336   5.444 -0.1588 -0.2803  0.3996
 1480Sol     HW 9004   1.769   0.361   5.529  1.1204 -1.8043  0.3494
 1480Sol     HW 9005   1.809   0.341   5.384 -1.0128  0.6507 -0.6187
 1480Sol     MW 9006   1.744   0.339   5.446 -0.0307 -0.3132  0.3757
 1481Sol     OW 9007   0.274   3.404   7.055  0.5609 -0.4123 -0.3622
 1481Sol     HW 9008   0.182   3.422   7.075  0.3898  2.0999 -3.1909
 1481Sol     HW 9009   0.322   3.444   7.128 -0.4617  0.3177 -0.0762
 1481Sol     MW 9010   0.270   3.409   7.063  0.3020 -0.1840  1.2250
 1482Sol     OW 9011   3.142   2.946   8.449 -0.3104 -0.2865 -0.2602
 1482Sol     HW 9012   3.186   2.891   8.514  1.1520  1.1188 -0.0376
 1482Sol     HW 9013   3.207   2.958   8.380 -0.3729  1.6913  0.0103
 1482Sol     MW 9014   3.152   2.942   8.449 -0.5682  0.1449  0.3130
 1483Sol     OW 9015   2.154   2.810   2.751 -0.2700  0.1038  0.1578
 1483Sol     HW 9016   2.102   2.772   2.680  0.8223 -1.6923  0.2915
 1483Sol     HW 9017   2.244   2.787   2.730  0.1720  0.6075  1.4791
 1483Sol     MW 9018   2.157   2.804   2.743 -0.3465  0.6870 -0.0571
 1484Sol     OW 9019   0.343   3.004   4.338  0.2380  0.0417  0.2532
 1484Sol     HW 9020   0.330   2.982   4.431  0.7032  0.4744  0.4284
 1484Sol     HW 9021   0.293   2.938   4.290 -0.2306 -0.0242  0.8207
 1484Sol     MW 9022   0.337   2.996   4.342 -0.7776 -0.2625  0.2762
 1485Sol     OW 9023   2.396   2.933   5.010  0.2838 -0.5442  0.2950
 1485Sol     HW 9024   2.476   2.934   5.063 -0.1375 -0.3385  0.9386
 1485Sol     HW 9025   2.405   2.856   4.954  1.4329  0.0963 -0.4163
 1485Sol     MW 9026   2.404   2.926   5.010 -0.6221 -0.7553 -0.1993
 1486Sol     OW 9027   3.315   0.918   3.834  0.0050 -0.0997 -0.0268
 1486Sol     HW 9028   3.374   0.897   3.907 -0.4845 -0.0730  0.3779
 1486Sol     HW 9029   3.245   0.969   3.874 -0.4449 -0.3782 -0.4555
 1486Sol     MW 9030   3.314   0.921   3.844  0.4329  0.2117  0.6812
 1487Sol     OW 9031   0.719   0.426   2.253  0.5756  0.3199 -0.4291
 1487Sol     HW 9032   0.811   0.415   2.231 -0.0070 -0.3000 -2.6971
 1487Sol     HW 9033   0.674   0.355   2.207 -0.9642  0.1490  1.2684
 1487Sol     MW 9034   0.723   0.419   2.247 -0.2828 -0.6485 -0.5767
 1488Sol     OW 9035   0.238   2.590   8.119 -0.5353  0.2495  0.2764
 1488Sol     HW 9036   0.218   2.638   8.200  0.2983 -1.7668  1.7296
 1488Sol     HW 9037   0.333   2.590   8.115 -0.5653 -0.2701 -0.3314
 1488Sol     MW 9038   0.245   2.594   8.126 -0.0101  0.3312 -0.4093
 1489Sol     OW 9039   0.894   2.665   2.148 -0.2988 -0.3029 -0.2016
 1489Sol     HW 9040   0.973   2.715   2.129  0.5039 -1.6923 -0.6300
 1489Sol     HW 9041   0.825   2.731   2.161  0.8429  0.8997 -0.2115
 1489Sol     MW 9042   0.895   2.675   2.148 -0.2982  0.2793 -0.4416
 1490Sol     OW 9043   3.189   0.810   5.447 -0.3602  0.4981 -0.2724
 1490Sol     HW 9044   3.200   0.902   5.425  0.5656  0.0524 -1.7442
 1490Sol     HW 9045   3.267   0.788   5.499 -0.7277  0.6091  0.3365
 1490Sol     MW 9046   3.197   0.816   5.450 -0.0201  0.1929 -0.0583
 1491Sol     OW 9047   0.726   3.065   3.832 -0.2278 -0.3090 -0.4606
 1491Sol     HW 9048   0.819   3.041   3.836 -0.6094 -1.6275  0.6547
 1491Sol     HW 9049   0.692   3.018   3.756 -0.3182 -1.0313  0.0217
 1491Sol     MW 9050   0.731   3.059   3.826  0.1618 -0.2150  0.2711
 1492Sol     OW 9051   0.088   1.233   7.889  0.1514 -0.5755  0.1100
 1492Sol     HW 9052   0.143   1.217   7.813  0.6191 -0.8612  0.5084
 1492Sol     HW 9053   0.065   1.146   7.921 -1.5783 -0.4819 -0.8022
 1492Sol     MW 9054   0.091   1.224   7.886  0.2442  0.1202 -0.3186
 1493Sol     OW 9055   0.814   1.541   2.664  0.5744 -0.6866 -0.0528
 1493Sol     HW 9056   0.752   1.531   2.592  1.0865 -1.1698 -0.4286
 1493Sol     HW 9057   0.900   1.534   2.623  0.8698 -1.1342  0.6237
 1493Sol     MW 9058   0.816   1.539   2.654  0.8138  0.4490 -0.7810
 1494Sol     OW 9059   0.963   1.250   4.497 -0.3757  0.1628 -0.7546
 1494Sol     HW 9060   0.980   1.168   4.452 -0.5758 -0.5000  0.3523
 1494Sol     HW 9061   0.871   1.244   4.524 -0.9545  1.5694 -2.3324
 1494Sol     MW 9062   0.956   1.242   4.496 -0.0175  0.2942  0.4652
 1495Sol     OW 9063   2.056   1.442   3.973  0.1360 -0.3343  0.2636
 1495Sol     HW 9064   1.982   1.427   4.032 -0.5658 -0.1603 -0.5521
 1495Sol     HW 9065   2.085   1.354   3.948 -0.4667 -0.4038 -0.2224
 1495Sol     MW 9066   2.052   1.433   3.976 -0.2525  0.0695  0.1128
 1496Sol     OW 9067   3.094   1.354   3.476  0.4781  0.7483 -0.1579
 1496Sol     HW 9068   3.040   1.393   3.544  0.9919 -1.2595  1.4435
 1496Sol     HW 9069   3.156   1.298   3.523 -1.2378 -3.2177 -2.3684
 1496Sol     MW 9070   3.095   1.353   3.486  0.6970 -0.2357 -0.5663
 1497Sol     OW 9071   2.695   1.561   6.941 -0.2588  0.3931 -0.1463
 1497Sol     HW 9072   2.633   1.599   6.880 -0.2688  0.2881 -0.2008
 1497Sol     HW 9073   2.657   1.477   6.965  0.4087 -0.1661 -1.0410
 1497Sol     MW 9074   2.686   1.557   6.938  0.9330 -0.0050 -0.2072
 1498Sol     OW 9075   0.292   2.868   8.891 -0.0769 -0.3584 -0.3527
 1498Sol     HW 9076   0.273   2.842   8.981  1.7249 -2.4830 -0.5424
 1498Sol     HW 9077   0.377   2.912   8.896  0.5737 -1.5036 -1.1636
 1498Sol     MW 9078   0.298   2.870   8.900 -0.0024  1.0117 -0.1333
 1499Sol     OW 9079   1.553   0.157   8.846  0.4131 -0.4719 -0.2004
 1499Sol     HW 9080   1.590   0.096   8.910 -0.1228 -0.1717  0.3952
 1499Sol     HW 9081   1.629   0.205   8.812  0.3841  1.6246  2.5308
 1499Sol     MW 9082   1.563   0.156   8.848  0.0312  0.2809 -0.0371
 1500Sol     OW 9083   1.642   0.041   1.796  0.4407  0.6777  0.3292
 1500Sol     HW 9084   1.736   0.060   1.787  0.4973 -0.5007 -1.9270
 1500Sol     HW 9085   1.638  -0.050   1.823 -0.0511  1.1661  1.9783
 1500Sol     MW 9086   1.650   0.035   1.797  0.0722  0.3497 -0.4317
 1501Sol     OW 9087   0.438   2.896   8.348  0.3391 -0.2154 -0.0703
 1501Sol     HW 9088   0.414   2.972   8.401 -1.6158 -1.2851  0.6127
 1501Sol     HW 9089   0.516   2.861   8.390 -0.1083  0.0544  1.0034
 1501Sol     MW 9090   0.443   2.900   8.356 -0.0230 -0.1490  0.2146
 1502Sol     OW 9091   1.797   2.634   7.202  0.1603  0.3654  0.6004
 1502Sol     HW 9092   1.753   2.667   7.280  2.4188  0.9840  1.6506
 1502Sol     HW 9093   1.867   2.578   7.236  1.3090  0.8284 -0.9429
 1502Sol     MW 9094   1.799   2.632   7.212  0.1945 -0.3834 -0.5715
 1503Sol     OW 9095   2.955   1.839   4.012 -0.1997 -0.3640  0.1547
 1503Sol     HW 9096   2.956   1.901   4.085 -3.2770  0.8141 -0.7150
 1503Sol     HW 9097   2.911   1.761   4.047  0.6983 -0.8066  0.3052
 1503Sol     MW 9098   2.951   1.838   4.022  0.2483  0.4247 -0.1313
 1504Sol     OW 9099   2.930   1.391   2.328  0.3105  0.9289  0.2659
 1504Sol     HW 9100   2.889   1.345   2.255 -0.2473 -1.5613  2.0686
 1504Sol     HW 9101   2.866   1.386   2.399  0.5807  3.8300  0.8020
 1504Sol     MW 9102   2.921   1.387   2.328  0.8012 -0.0553  0.1086
 1505Sol     OW 9103   0.798   3.369   4.824 -0.7039  0.9445  0.1929
 1505Sol     HW 9104   0.871   3.430   4.837  0.4128 -0.1545 -0.7599
 1505Sol     HW 9105   0.743   3.382   4.901  0.0844  2.3573  0.5547
 1505Sol     MW 9106   0.800   3.376   4.832 -0.0942  1.0440 -0.3354
 1506Sol     OW 9107   3.226   3.396   3.143  0.4498  0.2381  0.0632
 1506Sol     HW 9108   3.142   3.420   3.103  0.8279  0.6782 -0.4693
 1506Sol     HW 9109   3.235   3.302   3.124 -0.9761 -0.3295  2.0577
 1506Sol     MW 9110   3.219   3.390   3.138 -0.0226 -0.3946  0.4782
 1507Sol     OW 9111   0.264   0.818   2.786 -0.7460  0.5780 -0.1465
 1507Sol     HW 9112   0.299   0.763   2.716  0.6412  1.1888  0.0466
 1507Sol     HW 9113   0.226   0.756   2.849 -1.7899  0.0168 -1.3168
 1507Sol     MW 9114   0.264   0.807   2.786 -0.1112  0.0677 -0.1154
 1508Sol     OW 9115   2.372   1.528   3.989  0.0835 -0.1900 -0.0971
 1508Sol     HW 9116   2.305   1.468   3.957  0.6196 -1.2729  0.7618
 1508Sol     HW 9117   2.333   1.569   4.066 -0.6521  1.3313 -1.2326
 1508Sol     MW 9118   2.363   1.526   3.993  0.4092  0.1952  0.7506
 1509Sol     OW 9119   3.159   0.323   8.977  0.3407  0.5008  0.7184
 1509Sol     HW 9120   3.081   0.282   9.014  1.1673 -0.5978  1.2668
 1509Sol     HW 9121   3.168   0.283   8.890  0.8627 -0.1177  1.0551
 1509Sol     MW 9122   3.153   0.316   8.972  0.2318  0.0836 -0.5124
 1510Sol     OW 9123   1.613   1.158   2.437  0.4802  0.2504  0.3703
 1510Sol     HW 9124   1.520   1.152   2.415  0.7354  0.9616 -0.9244
 1510Sol     HW 9125   1.614   1.168   2.532 -0.6569 -2.1569  0.6801
 1510Sol     MW 9126   1.604   1.158   2.444 -0.3816  0.6148 -0.3450
 1511Sol     OW 9127   0.689   3.392   9.489 -0.1778 -0.2091  0.0679
 1511Sol     HW 9128   0.734   3.379   9.406  2.2594 -1.1713  1.4796
 1511Sol     HW 9129   0.706   3.484   9.511  0.6706 -0.4120  0.3123
 1511Sol     MW 9130   0.695   3.399   9.484 -0.3865 -0.0372 -0.2184
 1512Sol     OW 9131   0.287   0.466   3.599 -0.4437  0.3662  0.3199
 1512Sol     HW 9132   0.317   0.379   3.624 -0.0496  0.5470  0.4768
 1512Sol     HW 9133   0.267   0.510   3.682  1.0962  1.0486  0.3489
 1512Sol     MW 9134   0.288   0.463   3.609 -0.2037  0.4913 -0.2657
 1513Sol     OW 9135   2.879   3.045   3.322  0.6872 -0.8917  0.0821
 1513Sol     HW 9136   2.940   3.052   3.395  0.0947 -1.4977  0.6480
 1513Sol     HW 9137   2.819   2.974   3.348  0.4252 -1.0517 -0.9527
 1513Sol     MW 9138   2.879   3.039   3.331 -0.4739  0.5102  0.2419
 1514Sol     OW 9139   1.429   1.104   5.993  0.1922 -0.3233  0.2939
 1514Sol     HW 9140   1.494   1.174   5.988  0.3251 -0.5176 -1.0048
 1514Sol     HW 9141   1.401   1.104   6.084 -2.5657  3.9234 -0.3926
 1514Sol     MW 9142   1.433   1.110   6.000 -0.7543 -0.3436  0.2195
 1515Sol     OW 9143   3.017   0.492   9.371  0.4764  0.1412  0.1059
 1515Sol     HW 9144   3.045   0.406   9.401  1.0162 -0.5799 -2.3750
 1515Sol     HW 9145   3.098   0.537   9.349  0.3275  1.9398  2.9536
 1515Sol     MW 9146   3.027   0.489   9.372 -0.0198 -0.4731  0.2564
 1516Sol     OW 9147   0.565   0.533   7.112 -0.1070  0.1230  0.1652
 1516Sol     HW 9148   0.561   0.480   7.032 -0.8738  0.3501  0.0529
 1516Sol     HW 9149   0.649   0.578   7.107  0.2583 -0.5716 -0.0637
 1516Sol     MW 9150   0.573   0.532   7.104  0.0976  0.2395  0.5664
 1517Sol     OW 9151   0.736   2.503   8.333  0.4086  0.1368  0.4705
 1517Sol     HW 9152   0.826   2.535   8.331  1.0481 -1.6241  0.1064
 1517Sol     HW 9153   0.737   2.426   8.275 -1.4152  0.3285  0.1690
 1517Sol     MW 9154   0.744   2.499   8.327  0.0488 -0.1740  0.1466
 1518Sol     OW 9155   2.337   1.061   9.461  0.0254 -0.1503 -0.0294
 1518Sol     HW 9156   2.373   1.016   9.538  1.3470  0.0929 -0.4804
 1518Sol     HW 9157   2.248   1.029   9.454  0.2929 -1.1438  0.8615
 1518Sol     MW 9158   2.333   1.054   9.468 -0.3152 -0.3072  0.4711
 1519Sol     OW 9159   1.146   0.435   3.788 -0.3796 -0.1291  0.3025
 1519Sol     HW 9160   1.178   0.414   3.876 -0.3171  0.9405  0.5396
 1519Sol     HW 9161   1.138   0.350   3.745 -1.5821 -0.7695  1.7344
 1519Sol     MW 9162   1.149   0.426   3.792 -0.1495 -0.5821 -0.4038
 1520Sol     OW 9163   0.524   3.309   8.136  0.5035 -0.4235 -0.1237
 1520Sol     HW 9164   0.540   3.384   8.078  1.6716  0.8235  1.7688
 1520Sol     HW 9165   0.456   3.258   8.091 -0.9289  2.2124 -1.0375
 1520Sol     MW 9166   0.520   3.311   8.127  0.0887 -0.4254 -0.2917
 1521Sol     OW 9167   1.506   1.967   2.252 -0.1585 -0.0053 -0.0031
 1521Sol     HW 9168   1.427   2.001   2.295  1.5245  1.8245  1.7745
 1521Sol     HW 9169   1.473   1.912   2.182 -3.0268  0.5988  0.7907
 1521Sol     MW 9170   1.496   1.965   2.250 -0.3731  0.0880  1.0896
 1522Sol     OW 9171   1.741   0.479   2.043 -0.0849 -0.0420  0.4837
 1522Sol     HW 9172   1.807   0.438   2.098 -1.2684 -0.7860  1.3618
 1522Sol     HW 9173   1.657   0.453   2.081 -0.9119  0.2064 -1.1007
 1522Sol     MW 9174   1.739   0.473   2.051 -1.0770  0.1582 -0.0407
 1523Sol     OW 9175   3.146   1.951   6.064  0.4823 -0.1665  0.0434
 1523Sol     HW 9176   3.150   2.023   6.127  0.7414  0.9528 -1.2380
 1523Sol     HW 9177   3.237   1.923   6.055  0.1656 -1.9761  2.0070
 1523Sol     MW 9178   3.155   1.955   6.069  0.4632 -0.1302 -0.1560
 1524Sol     OW 9179   2.572   3.070   6.394  0.1561  0.1325  0.0338
 1524Sol     HW 9180   2.554   3.026   6.477  0.5608  0.1409  0.1282
 1524Sol     HW 9181   2.633   3.140   6.416  2.6677 -1.7273 -0.7044
 1524Sol     MW 9182   2.576   3.072   6.403 -0.1084  0.0648 -0.1072
 1525Sol     OW 9183   2.133   1.201   4.416 -0.3148 -0.8064  0.5465
 1525Sol     HW 9184   2.215   1.238   4.384 -0.7618 -0.5652 -0.3194
 1525Sol     HW 9185   2.076   1.276   4.430 -1.3201 -1.1649 -1.4910
 1525Sol     MW 9186   2.135   1.211   4.414 -0.1160 -0.0992 -0.3224
 1526Sol     OW 9187   2.925   2.344   7.958 -0.3417  0.5581  0.3251
 1526Sol     HW 9188   2.875   2.268   7.989  0.7169 -0.1845  0.2329
 1526Sol     HW 9189   2.860   2.413   7.947 -1.0450  0.1774  2.0991
 1526Sol     MW 9190   2.915   2.343   7.959  0.6721 -0.1770 -0.0955
 1527Sol     OW 9191   1.959   2.823   3.740  0.3112 -0.3167 -0.5597
 1527Sol     HW 9192   1.944   2.910   3.777  0.6788 -0.8290  0.8296
 1527Sol     HW 9193   2.032   2.834   3.679  0.0378  0.4371 -0.7545
 1527Sol     MW 9194   1.964   2.832   3.738 -0.0773 -0.1360  0.1136
 1528Sol     OW 9195   2.348   1.390   8.638  0.6757  0.7465 -0.0722
 1528Sol     HW 9196   2.324   1.326   8.571  1.0614 -0.7574  1.1917
 1528Sol     HW 9197   2.374   1.337   8.713  0.0901  2.4110  1.3279
 1528Sol     MW 9198   2.348   1.379   8.639  0.0062 -0.6029  0.1514
 1529Sol     OW 9199   0.293   0.172   9.104 -0.1911  0.1729 -0.0364
 1529Sol     HW 9200   0.217   0.149   9.050 -0.8973 -0.2967  1.1229
 1529Sol     HW 9201   0.268   0.146   9.192  0.3981  2.1975  0.7553
 1529Sol     MW 9202   0.284   0.167   9.107 -0.2647  0.2045  0.3310
 1530Sol     OW 9203   0.625   3.318   2.976 -0.2390 -0.2146 -0.3593
 1530Sol     HW 9204   0.662   3.276   3.054  0.4474  1.0560  0.0144
 1530Sol     HW 9205   0.663   3.406   2.976 -1.5579  0.3719 -1.1854
 1530Sol     MW 9206   0.632   3.322   2.983  0.6879 -0.4471 -0.1028
 1531Sol     OW 9207   1.052   0.651   6.744  0.1364 -0.5335  0.1305
 1531Sol     HW 9208   1.123   0.714   6.748  0.2320 -0.7419  1.8413
 1531Sol     HW 9209   1.071   0.587   6.812 -1.6226 -0.6593  0.5404
 1531Sol     MW 9210   1.060   0.651   6.750  0.5144 -0.0692 -0.5193
 1532Sol     OW 9211   2.084   1.721   7.488 -0.4644  0.1961 -0.1295
 1532Sol     HW 9212   2.033   1.645   7.517  1.2417 -0.2139  1.9139
 1532Sol     HW 9213   2.165   1.716   7.539  0.4260  2.3971 -1.2878
 1532Sol     MW 9214   2.087   1.713   7.495  0.2755 -0.4463 -0.0843
 1533Sol     OW 9215   2.071   1.399   7.378 -0.0077 -0.1326 -0.2480
 1533Sol     HW 9216   2.017   1.470   7.343 -0.8560  0.5642  2.3578
 1533Sol     HW 9217   2.009   1.340   7.421  1.1040 -0.1302  1.4246
 1533Sol     MW 9218   2.061   1.400   7.379 -0.2268 -0.3396 -0.4130
 1534Sol     OW 9219   2.156   1.301   1.686  0.7806 -0.1200 -0.3133
 1534Sol     HW 9220   2.198   1.271   1.605 -0.9398 -0.3340 -1.1545
 1534Sol     HW 9221   2.144   1.222   1.738  1.9390  0.0252  0.1875
 1534Sol     MW 9222   2.158   1.292   1.683 -0.0875 -0.2401 -0.3632
 1535Sol     OW 9223   2.342   1.503   9.234  0.2859 -0.2566  0.3581
 1535Sol     HW 9224   2.368   1.440   9.301  0.1352 -0.7066  0.0010
 1535Sol     HW 9225   2.421   1.515   9.180  0.0966 -0.7240 -0.0259
 1535Sol     MW 9226   2.352   1.498   9.235  0.3233 -0.1236 -0.1343
 1536Sol     OW 9227   1.865   2.885   4.047  0.2606 -0.4084 -0.4689
 1536Sol     HW 9228   1.956   2.872   4.072  0.0646  0.4700  0.7450
 1536Sol     HW 9229   1.841   2.970   4.083 -1.0681 -0.6626 -0.6963
 1536Sol     MW 9230   1.871   2.891   4.052 -1.1359  0.1824 -0.3232
 1537Sol     OW 9231   2.085   1.672   4.402  0.0198  0.2214 -0.7313
 1537Sol     HW 9232   2.041   1.590   4.424  0.1334 -0.3127 -2.4694
 1537Sol     HW 9233   2.021   1.721   4.351  0.0478  1.1147  0.0789
 1537Sol     MW 9234   2.075   1.669   4.400  0.0615 -0.3173 -0.0245
 1538Sol     OW 9235   0.130   0.481   5.693  0.1009  0.2488  0.0838
 1538Sol     HW 9236   0.132   0.569   5.656  1.0539  0.1981  0.0119
 1538Sol     HW 9237   0.148   0.423   5.619  2.3047  0.1619  0.6427
 1538Sol     MW 9238   0.132   0.484   5.683 -0.0112  0.2429 -0.2993
 1539Sol     OW 9239   1.371   2.512   4.502  0.3799  0.1974 -0.0680
 1539Sol     HW 9240   1.397   2.451   4.434 -0.1667 -0.2664  0.1378
 1539Sol     HW 9241   1.303   2.467   4.551  0.3234  0.7725  0.3987
 1539Sol     MW 9242   1.368   2.503   4.500  0.1475 -0.0257 -0.2382
 1540Sol     OW 9243   0.193   0.009   2.064  0.3817 -0.7322  0.1945
 1540Sol     HW 9244   0.178   0.030   2.157 -2.1956  1.1638 -0.5712
 1540Sol     HW 9245   0.230   0.089   2.027  1.6600 -1.5749 -0.3664
 1540Sol     MW 9246   0.195   0.018   2.069  0.3458 -0.5964 -0.1064
 1541Sol     OW 9247   0.620   2.375   5.496  0.0847 -0.3901  0.7058
 1541Sol     HW 9248   0.714   2.359   5.485  0.3818  1.6259  0.0487
 1541Sol     HW 9249   0.587   2.388   5.407 -0.3472  1.2359  1.0798
 1541Sol     MW 9250   0.626   2.375   5.487 -0.0744  0.0288  0.6181
 1542Sol     OW 9251   2.040   2.165   4.011  0.2609  0.0432  0.2485
 1542Sol     HW 9252   1.992   2.204   4.084 -0.5386 -0.1601 -0.1653
 1542Sol     HW 9253   2.131   2.185   4.029 -0.1000  1.6485  0.3129
 1542Sol     MW 9254   2.044   2.170   4.019 -0.1837 -0.4341 -0.1385
 1543Sol     OW 9255   0.481   3.383   9.179  0.0544 -0.2507 -0.2632
 1543Sol     HW 9256   0.452   3.383   9.270 -0.6506  0.4344 -0.4848
 1543Sol     HW 9257   0.563   3.334   9.180  0.7710  0.9383  0.9822
 1543Sol     MW 9258   0.486   3.379   9.187  0.8408 -0.7542  0.0674
 1544Sol     OW 9259   0.767   2.819   9.568  0.1040 -0.5495  0.4977
 1544Sol     HW 9260   0.771   2.850   9.477  1.3198 -1.5719  0.1871
 1544Sol     HW 9261   0.792   2.895   9.620 -0.2694 -0.0474 -0.0448
 1544Sol     MW 9262   0.770   2.828   9.564 -0.4963 -0.1578 -0.1878
 1545Sol     OW 9263   0.279   1.095   9.563  0.0735 -0.3600 -0.1630
 1545Sol     HW 9264   0.200   1.096   9.617 -0.3250 -1.1015 -0.7138
 1545Sol     HW 9265   0.341   1.150   9.610 -0.9640  0.7032 -0.0102
 1545Sol     MW 9266   0.277   1.100   9.572 -0.1842 -0.7723  0.0858
 1546Sol     OW 9267   1.749   0.639   5.222  0.4581 -0.0911 -0.3199
 1546Sol     HW 9268   1.657   0.660   5.207  0.1393  0.0783  1.7579
 1546Sol     HW 9269   1.761   0.553   5.182 -1.1698 -1.1219  1.3359
 1546Sol     MW 9270   1.742   0.633   5.217  0.1696 -0.0173 -0.0567
 1547Sol     OW 9271   1.449   3.437   7.423  0.1757  0.1491  0.0004
 1547Sol     HW 9272   1.545   3.435   7.413  0.1030  1.6425 -1.1929
 1547Sol     HW 9273   1.415   3.423   7.335 -0.6839  0.7805  0.2248
 1547Sol     MW 9274   1.455   3.436   7.414  0.1239 -0.2087  0.3434
 1548Sol     OW 9275   0.642   2.821   9.179  0.1977  0.0849 -0.4877
 1548Sol     HW 9276   0.712   2.852   9.237 -0.5787  1.4323 -0.2459
 1548Sol     HW 9277   0.573   2.790   9.239 -0.3171  0.8208 -0.6947
 1548Sol     MW 9278   0.642   2.821   9.190 -0.9725 -0.5439 -0.3525
 1549Sol     OW 9279   1.205   2.181   8.944  0.0087 -0.4373  0.5533
 1549Sol     HW 9280   1.272   2.116   8.922 -1.0094 -1.2699 -0.0621
 1549Sol     HW 9281   1.165   2.203   8.860 -0.1480  0.4549  0.8575
 1549Sol     MW 9282   1.208   2.177   8.935  0.7110  0.0194 -0.1443
 1550Sol     OW 9283   0.753   3.364   8.523 -0.2030 -0.8267 -0.0698
 1550Sol     HW 9284   0.793   3.449   8.542  0.6003 -0.9718 -1.0724
 1550Sol     HW 9285   0.771   3.350   8.430 -2.1254 -1.1481 -0.4048
 1550Sol     MW 9286   0.758   3.370   8.516  0.0953 -0.4006 -0.2402
 1551Sol     OW 9287   2.083   0.318   2.406  0.4519  0.0683 -0.5432
 1551Sol     HW 9288   2.045   0.326   2.493  1.6224 -0.8774  0.0632
 1551Sol     HW 9289   2.122   0.404   2.388 -0.2294  0.4212 -0.3621
 1551Sol     MW 9290   2.083   0.327   2.412  0.2818 -0.3546 -0.0483
 1552Sol     OW 9291   0.372   0.978   8.757  0.2356  0.3330  0.3270
 1552Sol     HW 9292   0.374   0.891   8.796  1.5120  0.0087 -0.4244
 1552Sol     HW 9293   0.415   0.967   8.672 -1.9674  1.1451 -0.9293
 1552Sol     MW 9294   0.376   0.969   8.753 -0.2528  0.2216 -0.0720
 1553Sol     OW 9295   1.650   2.741   2.900  0.4025 -0.8820 -0.2732
 1553Sol     HW 9296   1.585   2.722   2.968 -0.5170  0.0145 -0.8846
 1553Sol     HW 9297   1.702   2.813   2.936  0.1573 -0.6662 -0.3393
 1553Sol     MW 9298   1.649   2.746   2.909  0.1776  0.1254 -0.1361
 1554Sol     OW 9299   1.239   0.584   3.259 -0.7606 -0.8940  0.2775
 1554Sol     HW 9300   1.200   0.670   3.248  0.5431 -0.3274  0.0423
 1554Sol     HW 9301   1.311   0.581   3.196 -0.2253 -1.8030  0.9172
 1554Sol     MW 9302   1.242   0.591   3.253  0.7863 -0.2767 -0.8616
 1555Sol     OW 9303   1.683   1.969   6.383  0.1770  0.0712  0.1028
 1555Sol     HW 9304   1.732   1.934   6.308  0.1436  2.5776 -1.1301
 1555Sol     HW 9305   1.743   2.031   6.424 -1.2442  1.6963 -0.2523
 1555Sol     MW 9306   1.693   1.971   6.380 -0.7905 -0.2501  0.0090
 1556Sol     OW 9307   1.532   1.894   4.454 -0.1721 -0.1482 -0.1103
 1556Sol     HW 9308   1.620   1.896   4.491 -0.4970  1.3168  0.6063
 1556Sol     HW 9309   1.544   1.922   4.363  0.1847 -0.6233 -0.2150
 1556Sol     MW 9310   1.541   1.897   4.449  0.1185  0.6412 -0.5182
 1557Sol     OW 9311   3.219   2.801   4.894 -0.3074  0.0684  0.1978
 1557Sol     HW 9312   3.174   2.886   4.895 -3.2056 -1.3990 -0.0106
 1557Sol     HW 9313   3.271   2.802   4.814 -0.6472  1.4588 -0.0139
 1557Sol     MW 9314   3.220   2.809   4.887  0.3967  0.6250 -0.4116
 1558Sol     OW 9315   0.087   1.496   2.660  0.0049  0.0187  0.4379
 1558Sol     HW 9316   0.078   1.577   2.610 -1.1985 -0.6268 -0.4194
 1558Sol     HW 9317   0.107   1.525   2.749 -0.1949  1.2492  0.0948
 1558Sol     MW 9318   0.088   1.506   2.663 -0.4819 -0.1952 -0.4659
 1559Sol     OW 9319   1.257   1.685   2.927  0.4752 -0.6527 -0.1413
 1559Sol     HW 9320   1.282   1.616   2.866  2.7012  1.6607 -1.9770
 1559Sol     HW 9321   1.243   1.762   2.871 -0.0565  0.8554  2.0092
 1559Sol     MW 9322   1.258   1.686   2.917 -0.3719  0.0391  0.0721
 1560Sol     OW 9323   1.722   3.442   7.425 -0.3112  0.0157 -0.0873
 1560Sol     HW 9324   1.760   3.455   7.338  0.5362 -0.0402  0.2702
 1560Sol     HW 9325   1.768   3.505   7.481 -1.2260  0.4184  0.2141
 1560Sol     MW 9326   1.729   3.448   7.422  0.1475  0.4669  0.1569
 1561Sol     OW 9327   2.564   2.369   6.897  0.4336  0.4272 -0.4985
 1561Sol     HW 9328   2.529   2.453   6.869  0.3622  0.4063 -0.4735
 1561Sol     HW 9329   2.499   2.305   6.867  0.3232  0.4113 -0.2292
 1561Sol     MW 9330   2.555   2.370   6.892 -0.1320  0.2090  0.1135
 1562Sol     OW 9331   2.024   2.499   9.572 -0.0995 -0.2965 -0.3100
 1562Sol     HW 9332   2.055   2.586   9.546 -1.1980  0.4452  0.8263
 1562Sol     HW 9333   2.028   2.447   9.491  0.1543  0.9150 -1.0911
 1562Sol     MW 9334   2.027   2.502   9.562  0.4247 -0.0496 -0.0547
 1563Sol     OW 9335   1.215   1.810   8.083  0.2544  0.0144  0.0935
 1563Sol     HW 9336   1.234   1.815   7.989  0.6031 -0.9012  0.1142
 1563Sol     HW 9337   1.169   1.727   8.095 -2.0151  1.2726  0.3644
 1563Sol     MW 9338   1.213   1.803   8.076 -0.5016  0.3038  0.0819
 1564Sol     OW 9339   3.191   0.489   5.644  0.1038 -0.1612  0.1495
 1564Sol     HW 9340   3.284   0.510   5.650 -0.3848  2.5171 -1.0922
 1564Sol     HW 9341   3.159   0.499   5.734  0.6508  0.8054  0.2455
 1564Sol     MW 9342   3.196   0.492   5.653 -0.2952  0.7097 -0.2245
 1565Sol     OW 9343   2.586   1.959   2.157 -0.2556 -0.1583 -0.4894
 1565Sol     HW 9344   2.637   2.030   2.120 -0.3142 -0.9671 -2.1821
 1565Sol     HW 9345   2.586   1.892   2.089 -1.0270 -1.3757  0.6893
 1565Sol     MW 9346   2.590   1.959   2.147  0.2579  0.4108  0.0987
 1566Sol     OW 9347   2.776   0.642   5.815 -0.1156  0.3388 -0.0207
 1566Sol     HW 9348   2.847   0.640   5.750  0.4525 -0.5074  0.6146
 1566Sol     HW 9349   2.812   0.596   5.891 -1.0387  0.6829  0.6312
 1566Sol     MW 9350   2.785   0.637   5.816  0.0869  0.6121 -0.3425
 1567Sol     OW 9351   1.843   2.433   7.816 -0.0757  0.8302  0.2953
 1567Sol     HW 9352   1.749   2.413   7.818  0.1430 -0.6028 -1.9781
 1567Sol     HW 9353   1.854   2.503   7.880 -2.4148 -0.1306  1.8170
 1567Sol     MW 9354   1.836   2.438   7.822 -0.1658  0.1960  0.8323
 1568Sol     OW 9355   0.370   0.692   5.439 -0.5542 -0.6736  0.5138
 1568Sol     HW 9356   0.406   0.665   5.523  0.3905  0.4867  0.5038
 1568Sol     HW 9357   0.390   0.785   5.433  1.1719 -1.1328 -1.8506
 1568Sol     MW 9358   0.375   0.698   5.446 -0.2160 -0.4346 -0.2083
 1569Sol     OW 9359   1.173   0.064   3.029  0.3660  0.2384  0.0340
 1569Sol     HW 9360   1.154  -0.029   3.040  2.1350 -0.2260 -0.6778
 1569Sol     HW 9361   1.224   0.088   3.107  0.6616  0.3938 -0.2050
 1569Sol     MW 9362   1.176   0.058   3.037  0.0296 -0.2431 -0.0749
 1570Sol     OW 9363   2.368   1.031   7.625 -0.9171 -0.2144 -0.2065
 1570Sol     HW 9364   2.450   1.078   7.613 -0.7571 -1.1703 -3.4877
 1570Sol     HW 9365   2.301   1.091   7.591 -1.4707  0.1926  1.5841
 1570Sol     MW 9366   2.369   1.041   7.621  0.6522 -0.2423 -0.2062
 1571Sol     OW 9367   2.576   0.311   9.290 -0.3423  0.1910 -0.3285
 1571Sol     HW 9368   2.598   0.282   9.378 -0.1106 -0.4906 -0.6110
 1571Sol     HW 9369   2.656   0.349   9.256 -0.5156  0.7349 -0.1346
 1571Sol     MW 9370   2.585   0.312   9.295 -0.2292  0.2005 -0.1297
 1572Sol     OW 9371   0.271   0.887   7.566 -0.2533 -0.0892  0.1233
 1572Sol     HW 9372   0.285   0.926   7.479  4.1013  0.9174  1.1510
 1572Sol     HW 9373   0.282   0.793   7.552  0.5272  0.0776 -0.4502
 1572Sol     MW 9374   0.274   0.882   7.557  0.6223  0.5197  0.1550
 1573Sol     OW 9375   0.427   2.832   9.369  0.9445 -0.5275 -0.3521
 1573Sol     HW 9376   0.453   2.804   9.457 -0.2034  1.0779  0.5222
 1573Sol     HW 9377   0.459   2.922   9.362  0.4991 -0.4416 -1.3406
 1573Sol     MW 9378   0.432   2.837   9.376  0.3992  0.0518 -0.6622
 1574Sol     OW 9379   2.988   0.907   7.067  0.2853 -0.3347 -0.1468
 1574Sol     HW 9380   3.072   0.924   7.024  0.4965 -0.6158  0.1489
 1574Sol     HW 9381   2.978   0.978   7.130 -0.2128  0.3008 -0.9279
 1574Sol     MW 9382   2.995   0.915   7.069  0.0527  0.2467  0.0006
 1575Sol     OW 9383   1.402   0.409   6.022 -0.2143 -0.4680  0.4359
 1575Sol     HW 9384   1.440   0.337   5.971 -1.6338 -1.4806  0.7569
 1575Sol     HW 9385   1.332   0.443   5.966 -0.2866 -0.0898  0.7558
 1575Sol     MW 9386   1.399   0.406   6.013  0.1402  0.0685  0.6444
 1576Sol     OW 9387   0.220   2.958   2.312  0.5015  0.1660 -1.0728
 1576Sol     HW 9388   0.285   2.898   2.275  0.8638  0.4094 -0.8336
 1576Sol     HW 9389   0.138   2.932   2.270  0.4218 -1.3191 -0.0394
 1576Sol     MW 9390   0.219   2.950   2.305  0.2248  0.1528 -0.0523
 1577Sol     OW 9391   0.091   2.326   9.937  0.7407  0.1838  0.2002
 1577Sol     HW 9392   0.128   2.412   9.916 -0.2451  0.4105 -0.6304
 1577Sol     HW 9393   0.128   2.268   9.871  0.1992  0.2601 -0.1647
 1577Sol     MW 9394   0.098   2.328   9.929 -0.2850 -0.3599 -0.3120
 1578Sol     OW 9395   2.609   2.467   3.671  0.1772  0.0725  0.3315
 1578Sol     HW 9396   2.562   2.404   3.616 -1.2800 -0.5222  2.1975
 1578Sol     HW 9397   2.699   2.435   3.672 -0.4345 -1.7186  0.8015
 1578Sol     MW 9398   2.613   2.458   3.666  0.7312 -0.1292  0.0896
 1579Sol     OW 9399   3.158   0.822   4.905  0.2598  0.0344 -0.5854
 1579Sol     HW 9400   3.092   0.757   4.929  2.3712 -1.6854  0.7738
 1579Sol     HW 9401   3.180   0.866   4.987  0.4006  0.9729 -1.1220
 1579Sol     MW 9402   3.154   0.820   4.914  0.1491 -0.3593 -0.2278
 1580Sol     OW 9403   0.782   2.061   6.404 -0.1639 -0.2121 -0.0384
 1580Sol     HW 9404   0.726   2.135   6.381  0.7907  0.0295 -1.7144
 1580Sol     HW 9405   0.843   2.096   6.469 -0.0097  0.3645 -0.4848
 1580Sol     MW 9406   0.782   2.071   6.407 -0.5963 -0.0640 -0.0863
 1581Sol     OW 9407   1.549   1.984   3.930  0.2836  0.3411 -0.3222
 1581Sol     HW 9408   1.460   1.992   3.964 -0.1572  1.1573 -1.6495
 1581Sol     HW 9409   1.553   2.046   3.858  1.5523 -0.5734 -1.0638
 1581Sol     MW 9410   1.541   1.990   3.927 -0.2934  0.1805  0.1813
 1582Sol     OW 9411   0.198   3.362   7.436 -0.5052  0.4432 -0.1258
 1582Sol     HW 9412   0.190   3.267   7.439 -2.4219  0.5591 -0.5426
 1582Sol     HW 9413   0.251   3.384   7.513 -1.2576 -0.8626  0.8006
 1582Sol     MW 9414   0.202   3.356   7.443 -0.4383 -0.2184 -0.2440
 1583Sol     OW 9415   3.302   2.501   9.594 -0.9141 -0.3261  0.3285
 1583Sol     HW 9416   3.359   2.485   9.669 -0.3203  0.0274 -0.0427
 1583Sol     HW 9417   3.361   2.530   9.524 -1.3766 -1.2832 -0.4779
 1583Sol     MW 9418   3.312   2.502   9.594 -0.6994 -0.3817  0.3500
 1584Sol     OW 9419   0.060   1.680   2.933 -0.0768 -0.7853  0.2936
 1584Sol     HW 9420   0.014   1.717   3.008  0.0320 -1.7193  0.8286
 1584Sol     HW 9421   0.150   1.668   2.964  0.7660  1.8029 -0.9971
 1584Sol     MW 9422   0.064   1.682   2.943 -0.6928  0.0995 -0.2069
 1585Sol     OW 9423   2.033   2.746   7.611 -0.2228 -0.8549 -0.7854
 1585Sol     HW 9424   2.124   2.739   7.582 -0.6267  0.7664 -2.6015
 1585Sol     HW 9425   2.030   2.827   7.662 -1.2221  0.6538 -3.1768
 1585Sol     MW 9426   2.041   2.753   7.613 -0.3403 -0.7351 -0.1513
 1586Sol     OW 9427   2.834   3.355   2.393 -0.1533  0.0546 -0.4218
 1586Sol     HW 9428   2.752   3.352   2.441  0.4974  0.3445  0.7329
 1586Sol     HW 9429   2.889   3.415   2.443  0.7988 -0.2239 -1.1177
 1586Sol     MW 9430   2.832   3.360   2.402  0.0908 -0.1237 -0.1465
 1587Sol     OW 9431   1.797   0.539   7.394 -0.3268 -0.1865  0.0224
 1587Sol     HW 9432   1.808   0.520   7.487 -1.7841 -0.2875  0.1934
 1587Sol     HW 9433   1.741   0.468   7.362 -1.0280  0.6419 -0.6068
 1587Sol     MW 9434   1.793   0.531   7.400  0.5112  0.6325  0.1087
 1588Sol     OW 9435   3.256   3.139   3.093  0.0913  0.4284 -0.8942
 1588Sol     HW 9436   3.335   3.095   3.061 -0.1725 -0.1505 -0.7566
 1588Sol     HW 9437   3.184   3.085   3.061 -0.1738 -0.1186  0.6054
 1588Sol     MW 9438   3.257   3.130   3.087  0.4435 -0.3397  0.4103
 1589Sol     OW 9439   3.194   1.503   6.521  0.3118 -0.5619 -0.3214
 1589Sol     HW 9440   3.124   1.565   6.541  1.5662  0.8763 -0.2877
 1589Sol     HW 9441   3.182   1.483   6.428  0.0849  0.0010 -0.4205
 1589Sol     MW 9442   3.187   1.507   6.514 -0.0042 -0.6353 -0.4220
 1590Sol     OW 9443   3.061   0.729   7.792 -0.9086  0.8219  0.4698
 1590Sol     HW 9444   3.147   0.761   7.822  1.0415 -2.5529 -1.1825
 1590Sol     HW 9445   3.058   0.752   7.700 -2.3600  2.0547  0.8236
 1590Sol     MW 9446   3.069   0.734   7.787  0.5232 -0.3917  0.1793
 1591Sol     OW 9447   3.273   1.956   4.872 -0.1837  0.4616 -0.3679
 1591Sol     HW 9448   3.191   1.909   4.855  0.2296 -0.3012 -0.2583
 1591Sol     HW 9449   3.286   1.949   4.966 -0.1654  0.8692 -0.3410
 1591Sol     MW 9450   3.267   1.951   4.879  0.2760  0.0669  0.4839
 1592Sol     OW 9451   1.080   0.559   5.270 -0.4380  0.0615  0.0374
 1592Sol     HW 9452   1.116   0.643   5.242 -2.3911  1.3918  1.2798
 1592Sol     HW 9453   1.062   0.572   5.364 -2.1344 -1.2299 -0.0920
 1592Sol     MW 9454   1.081   0.568   5.276 -0.0421 -0.3214  0.2009
 1593Sol     OW 9455   0.041   2.293   3.273  0.9333 -0.7784  0.0151
 1593Sol     HW 9456  -0.045   2.252   3.275  1.1422 -1.3024 -1.1183
 1593Sol     HW 9457   0.030   2.376   3.320 -0.2385 -0.7684 -0.2694
 1593Sol     MW 9458   0.033   2.297   3.277  0.3629  0.2841 -0.2786
 1594Sol     OW 9459   0.757   1.371   5.626  0.0929  0.5884  0.0085
 1594Sol     HW 9460   0.825   1.356   5.692 -0.4216  0.2530  0.4626
 1594Sol     HW 9461   0.725   1.284   5.604  0.2529  0.7002 -0.6777
 1594Sol     MW 9462   0.760   1.362   5.630  0.0613 -0.3339 -0.0594
 1595Sol     OW 9463   0.434   2.676   8.768 -0.1800 -0.5752  0.1050
 1595Sol     HW 9464   0.519   2.696   8.808 -0.5576 -0.0500  0.6588
 1595Sol     HW 9465   0.373   2.736   8.811 -0.7783 -0.7416 -0.5078
 1595Sol     MW 9466   0.436   2.683   8.776 -0.2764  0.0290 -0.5968
 1596Sol     OW 9467   0.894   0.980   8.722 -0.0091 -0.3340  0.3135
 1596Sol     HW 9468   0.841   0.962   8.800 -0.2891 -1.3212 -0.0919
 1596Sol     HW 9469   0.984   0.987   8.755  0.0392 -1.9331  0.5889
 1596Sol     MW 9470   0.897   0.979   8.732  0.2306  0.6506  0.0422
 1597Sol     OW 9471   2.966   2.081   4.132  0.1423  0.5714  0.5543
 1597Sol     HW 9472   2.924   2.077   4.219  1.7030 -1.3214  1.2433
 1597Sol     HW 9473   3.014   2.164   4.133  1.1797 -0.0178  2.0073
 1597Sol     MW 9474   2.966   2.088   4.140  0.1332 -0.4241  0.1682
 1598Sol     OW 9475   0.111   2.438   6.273 -0.0445 -0.3640  0.0596
 1598Sol     HW 9476   0.078   2.526   6.253  0.8957 -0.6755 -3.1349
 1598Sol     HW 9477   0.206   2.450   6.284 -0.1089 -0.7652  1.1487
 1598Sol     MW 9478   0.117   2.447   6.272 -0.5092  0.4383 -0.0848
 1599Sol     OW 9479   1.221   1.962   7.394  0.0316 -0.0961 -0.1154
 1599Sol     HW 9480   1.152   1.921   7.341 -1.1422  0.0303  1.2714
 1599Sol     HW 9481   1.292   1.978   7.333 -0.3772 -2.1184 -1.1482
 1599Sol     MW 9482   1.221   1.960   7.384  0.2165 -0.1293 -0.0564
 1600Sol     OW 9483   0.259   2.021   1.740  0.2372  0.0158 -0.4581
 1600Sol     HW 9484   0.197   2.050   1.807  0.9089 -2.3252  1.1970
 1600Sol     HW 9485   0.344   2.055   1.769  0.1056  1.4314 -1.6435
 1600Sol     MW 9486   0.261   2.027   1.748  0.1963  0.3344  0.0310
 1601Sol     OW 9487   2.542   2.052   2.412 -0.0406 -0.0694 -0.3325
 1601Sol     HW 9488   2.564   1.978   2.355 -1.7614  0.5556 -1.8267
 1601Sol     HW 9489   2.543   2.129   2.354 -3.4970  0.3525  0.0705
 1601Sol     MW 9490   2.544   2.053   2.401 -0.1530 -0.0180 -0.1854
 1602Sol     OW 9491   0.350   0.474   1.837 -0.3715  0.4479 -0.2009
 1602Sol     HW 9492   0.384   0.437   1.755 -0.4597  2.4713 -1.1930
 1602Sol     HW 9493   0.427   0.491   1.890 -0.2799 -0.4450 -0.0434
 1602Sol     MW 9494   0.360   0.473   1.834 -0.5861  0.0396 -0.0580
 1603Sol     OW 9495   0.262   1.391   8.985 -0.3147  0.2622 -0.0020
 1603Sol     HW 9496   0.324   1.339   8.933  0.0527  2.3432 -1.7252
 1603Sol     HW 9497   0.179   1.344   8.978 -0.1892  0.3154 -2.2378
 1603Sol     MW 9498   0.260   1.383   8.980 -0.5474  0.7370 -0.3325
 1604Sol     OW 9499   2.757   0.541   4.726 -0.8808  0.1498 -0.1490
 1604Sol     HW 9500   2.670   0.515   4.697 -0.7420  1.7764 -2.1155
 1604Sol     HW 9501   2.745   0.626   4.768 -0.4564 -0.3014  0.9054
 1604Sol     MW 9502   2.748   0.546   4.727 -0.3870 -0.0913 -0.3812
 1605Sol     OW 9503   0.427   1.617   9.051  0.2921  0.2250 -0.4990
 1605Sol     HW 9504   0.366   1.547   9.027 -0.0505  0.3327  0.0474
 1605Sol     HW 9505   0.507   1.571   9.078 -0.6185 -0.0724  1.8608
 1605Sol     MW 9506   0.429   1.606   9.051 -0.1888  0.4878  0.3295
 1606Sol     OW 9507   1.192   0.036   1.897  0.7045 -0.1145 -0.2193
 1606Sol     HW 9508   1.171   0.089   1.820  0.7632 -1.0328 -0.8744
 1606Sol     HW 9509   1.195  -0.054   1.864 -0.0065 -0.5941  1.0048
 1606Sol     MW 9510   1.191   0.032   1.887  0.3069 -0.1872 -0.8317
 1607Sol     OW 9511   0.849   1.585   4.647 -0.1781 -0.3024  0.4348
 1607Sol     HW 9512   0.920   1.522   4.663 -1.0495 -1.8595 -1.6442
 1607Sol     HW 9513   0.809   1.597   4.733  0.2293 -2.3305  0.9412
 1607Sol     MW 9514   0.852   1.580   4.656 -0.6639 -0.3173  0.2947
 1608Sol     OW 9515   2.325   2.152   2.206 -0.3506 -0.0686 -0.0809
 1608Sol     HW 9516   2.354   2.239   2.233 -0.7095 -0.2569  0.9132
 1608Sol     HW 9517   2.406   2.107   2.181  0.2982 -0.6253  2.7923
 1608Sol     MW 9518   2.335   2.156   2.206 -0.1605 -0.3700 -0.1066
 1609Sol     OW 9519   2.998   0.636   2.831  0.5687  0.1723  0.7280
 1609Sol     HW 9520   3.075   0.607   2.782  0.1455  0.0685  0.1197
 1609Sol     HW 9521   2.973   0.560   2.883  0.9857  0.2635  1.0608
 1609Sol     MW 9522   3.003   0.627   2.831 -0.0048 -0.0430  0.2924
 1610Sol     OW 9523   1.444   2.427   7.033  0.8323  0.2986 -0.1478
 1610Sol     HW 9524   1.373   2.491   7.041  0.5647  0.0295 -0.3464
 1610Sol     HW 9525   1.466   2.405   7.124 -0.2169 -0.5706 -0.0923
 1610Sol     MW 9526   1.439   2.431   7.042  0.1763  0.3907  0.0847
 1611Sol     OW 9527   3.123   1.505   7.068  0.3991 -0.1826  0.0540
 1611Sol     HW 9528   3.095   1.563   7.138  1.0459  0.0320  0.1432
 1611Sol     HW 9529   3.214   1.530   7.051  0.8559 -1.5348  0.4615
 1611Sol     MW 9530   3.129   1.512   7.072  0.2677 -0.0797 -0.7408
 1612Sol     OW 9531   0.431   0.772   1.778 -0.7335 -0.0974  0.2281
 1612Sol     HW 9532   0.365   0.717   1.735 -1.2715  0.0513  0.8713
 1612Sol     HW 9533   0.481   0.711   1.832 -0.1523 -0.2597 -0.4885
 1612Sol     MW 9534   0.430   0.762   1.779 -0.0059  0.6576 -0.0475
 1613Sol     OW 9535   2.603   3.111   8.440  0.0343  0.4507  0.4495
 1613Sol     HW 9536   2.600   3.024   8.481 -0.6448  0.1518 -0.2003
 1613Sol     HW 9537   2.616   3.092   8.347  0.0212  1.0474  0.3255
 1613Sol     MW 9538   2.604   3.101   8.435 -0.1431  0.0414  0.4779
 1614Sol     OW 9539   0.602   1.993   6.028 -0.3638  0.2467  0.5630
 1614Sol     HW 9540   0.666   2.041   6.080  0.2574  0.1653 -0.1312
 1614Sol     HW 9541   0.652   1.924   5.985 -0.7839  0.6683 -0.6030
 1614Sol     MW 9542   0.612   1.991   6.029 -0.3804  0.4901 -0.3810
 1615Sol     OW 9543   3.168   2.816   3.605 -0.0039  0.2912  0.0082
 1615Sol     HW 9544   3.248   2.823   3.554 -0.3043  0.1587 -0.4809
 1615Sol     HW 9545   3.198   2.787   3.692  0.5459  0.9388  0.0421
 1615Sol     MW 9546   3.178   2.814   3.608 -0.0603 -0.4378  0.3956
 1616Sol     OW 9547   0.161   2.032   3.326  0.9933  0.1467 -0.5116
 1616Sol     HW 9548   0.105   2.107   3.304  1.4624  0.1708 -1.6523
 1616Sol     HW 9549   0.193   2.051   3.415  0.4861  0.9199 -0.4935
 1616Sol     MW 9550   0.159   2.041   3.332  0.1520  0.4538  0.1942
 1617Sol     OW 9551   0.657   2.352   7.403 -0.0390 -0.4354  0.4172
 1617Sol     HW 9552   0.703   2.352   7.320 -2.5716  2.7412 -1.0751
 1617Sol     HW 9553   0.593   2.281   7.395  1.0652 -1.4552  0.4885
 1617Sol     MW 9554   0.655   2.345   7.395  0.0324  0.0747  0.4175
 1618Sol     OW 9555   2.038   1.280   2.986  0.8007  0.5893  0.0459
 1618Sol     HW 9556   2.069   1.197   2.949 -0.8568  0.5152 -1.2150
 1618Sol     HW 9557   2.012   1.258   3.075  0.4931 -0.2342 -0.2392
 1618Sol     MW 9558   2.038   1.271   2.991  0.0208 -0.0257  0.1669
 1619Sol     OW 9559   0.369   1.645   4.916  0.5375  0.0372 -0.1527
 1619Sol     HW 9560   0.359   1.734   4.952 -1.7124 -0.8729  1.6125
 1619Sol     HW 9561   0.399   1.592   4.990 -3.9756 -1.8197  0.5531
 1619Sol     MW 9562   0.371   1.649   4.926  0.1573  0.1841  0.7250
 1620Sol     OW 9563   1.965   3.047   5.529 -0.0628 -0.0896  0.1013
 1620Sol     HW 9564   1.922   3.090   5.603  0.3143  0.6375 -0.0958
 1620Sol     HW 9565   2.018   2.979   5.569  1.3332  1.2793  0.6453
 1620Sol     MW 9566   1.966   3.045   5.539 -0.0056 -0.1615  0.5596
 1621Sol     OW 9567   1.737   0.499   2.590  0.8087 -0.7371  0.1344
 1621Sol     HW 9568   1.692   0.562   2.647 -1.0776 -2.2712  0.3598
 1621Sol     HW 9569   1.780   0.554   2.524  0.7248  0.8923  1.3995
 1621Sol     MW 9570   1.737   0.510   2.589  0.6739 -0.1741 -0.1440
 1622Sol     OW 9571   1.204   1.728   5.989  0.7684 -0.0193  0.4156
 1622Sol     HW 9572   1.163   1.704   5.906  1.0060 -1.7225  0.7799
 1622Sol     HW 9573   1.135   1.716   6.054  0.4240  1.8174  0.4322
 1622Sol     MW 9574   1.194   1.725   5.987 -0.7941 -0.0589 -0.3956
 1623Sol     OW 9575   2.970   2.525   3.061  0.0268  0.0807  0.0651
 1623Sol     HW 9576   3.012   2.454   3.013 -0.1703  0.5463 -0.8126
 1623Sol     HW 9577   2.985   2.505   3.153 -0.0596 -1.1173 -0.1778
 1623Sol     MW 9578   2.975   2.517   3.065  0.4488  0.3120  0.2402
 1624Sol     OW 9579   2.872   2.426   3.666  0.4562 -0.3155  0.8850
 1624Sol     HW 9580   2.908   2.444   3.753  1.6999  0.7370  0.1651
 1624Sol     HW 9581   2.899   2.500   3.613 -0.0658 -1.0832 -0.4783
 1624Sol     MW 9582   2.877   2.434   3.669  0.2004  0.5235  0.3074
 1625Sol     OW 9583   2.114   1.603   9.082 -0.3710 -0.2295  0.2859
 1625Sol     HW 9584   2.120   1.589   8.988 -0.1739  0.5503  0.1786
 1625Sol     HW 9585   2.201   1.580   9.115 -0.8213 -1.7475  0.4524
 1625Sol     MW 9586   2.123   1.600   9.077  0.4213  0.0010 -0.4311
 1626Sol     OW 9587   2.706   0.735   4.060 -0.2303 -0.9307  0.0664
 1626Sol     HW 9588   2.780   0.729   4.120  0.7913 -1.9075 -1.2560
 1626Sol     HW 9589   2.636   0.685   4.103 -0.1159 -0.0508  1.2943
 1626Sol     MW 9590   2.706   0.730   4.069  0.0612  0.2035 -0.6198
 1627Sol     OW 9591   2.344   2.269   7.485 -0.1609  1.2117 -0.6590
 1627Sol     HW 9592   2.350   2.304   7.573 -0.3554  1.9527 -0.9403
 1627Sol     HW 9593   2.422   2.301   7.440  0.4491  0.0136 -0.4676
 1627Sol     MW 9594   2.352   2.275   7.489 -0.1635 -0.0889  0.2365
 1628Sol     OW 9595   3.010   3.310   5.464  0.0211  0.0972  0.6765
 1628Sol     HW 9596   3.083   3.365   5.435 -0.9062  0.8504 -0.2632
 1628Sol     HW 9597   3.045   3.261   5.538  1.1968  1.1529  0.8386
 1628Sol     MW 9598   3.020   3.311   5.468 -0.9079 -0.1950 -0.6442
 1629Sol     OW 9599   0.580   0.149   1.385 -0.3684  0.4494  0.8334
 1629Sol     HW 9600   0.653   0.207   1.364  0.5922 -1.0301  0.0152
 1629Sol     HW 9601   0.512   0.173   1.323  0.4091 -0.0135 -0.2159
 1629Sol     MW 9602   0.581   0.156   1.378  0.0358 -0.3860  0.2486
 1630Sol     OW 9603   2.593   3.321   6.918 -0.0018 -0.5185  0.1524
 1630Sol     HW 9604   2.658   3.357   6.978 -0.8248  3.1655 -1.0976
 1630Sol     HW 9605   2.644   3.275   6.852  1.1526 -0.2699  0.8538
 1630Sol     MW 9606   2.603   3.320   6.918  1.0485  0.1972  0.2687
 1631Sol     OW 9607   2.805   1.594   8.940  0.2689  0.1997  0.0729
 1631Sol     HW 9608   2.832   1.502   8.935  0.2693  0.3361 -2.8134
 1631Sol     HW 9609   2.885   1.642   8.961  0.1017 -0.5221  2.4872
 1631Sol     MW 9610   2.814   1.590   8.942 -0.4952  0.2032  0.1975
 1632Sol     OW 9611   2.500   3.234   7.630  0.0876 -0.1730  0.6175
 1632Sol     HW 9612   2.421   3.230   7.576 -0.9530 -1.3710  2.1493
 1632Sol     HW 9613   2.567   3.273   7.574 -0.9249 -1.4783 -1.5287
 1632Sol     MW 9614   2.499   3.237   7.620  0.1067 -0.3653 -0.3858
 1633Sol     OW 9615   0.339   3.184   7.996  0.6887  0.6719 -0.4320
 1633Sol     HW 9616   0.281   3.122   8.040  2.1874  1.6715  3.1500
 1633Sol     HW 9617   0.375   3.134   7.922  0.7063 -2.2405  1.4487
 1633Sol     MW 9618   0.337   3.174   7.993 -0.1319  0.0173 -0.4396
 1634Sol     OW 9619   1.752   1.202   2.699  1.1633  0.1344 -0.0915
 1634Sol     HW 9620   1.672   1.187   2.749  0.8172 -0.4570 -0.8090
 1634Sol     HW 9621   1.789   1.282   2.736 -0.3062  1.0022 -0.4496
 1634Sol     MW 9622   1.748   1.208   2.707 -0.4803 -0.0909  0.1530
 1635Sol     OW 9623   0.406   1.140   2.192 -0.7866  0.0262  0.0977
 1635Sol     HW 9624   0.382   1.198   2.264 -0.4201  0.5746 -0.2130
 1635Sol     HW 9625   0.343   1.160   2.122 -0.1688  0.6260 -0.2948
 1635Sol     MW 9626   0.398   1.147   2.192  0.0563  0.0604 -0.4365
 1636Sol     OW 9627   0.142   2.189   6.428 -0.0132  0.0927  0.3194
 1636Sol     HW 9628   0.125   2.276   6.391  0.4877 -0.0288 -0.1960
 1636Sol     HW 9629   0.163   2.134   6.353  1.9609  0.0616  0.8845
 1636Sol     MW 9630   0.142   2.192   6.418  0.5443 -0.6496  0.1706
 1637Sol     OW 9631   3.008   1.002   7.644 -0.0859  0.2761  0.5056
 1637Sol     HW 9632   3.103   1.001   7.652  0.1027 -0.8098 -1.6405
 1637Sol     HW 9633   2.990   1.079   7.589 -0.4685  0.6298  1.1259
 1637Sol     MW 9634   3.015   1.009   7.640  0.4168 -0.6790 -0.0613
 1638Sol     OW 9635   0.291   2.105   6.655  0.1201  0.2752 -0.0594
 1638Sol     HW 9636   0.224   2.162   6.616  0.1714  0.3042 -0.1044
 1638Sol     HW 9637   0.339   2.071   6.580  0.9750  1.2455  0.0423
 1638Sol     MW 9638   0.289   2.107   6.645  0.2080  0.4848 -0.5013
 1639Sol     OW 9639   0.652   1.969   7.208  0.0862 -0.4612 -0.1728
 1639Sol     HW 9640   0.704   1.958   7.287  0.0547 -1.8229 -0.3291
 1639Sol     HW 9641   0.614   1.883   7.192 -0.9742  0.1386 -0.9297
 1639Sol     MW 9642   0.653   1.960   7.213  0.0870 -0.4659 -0.1627
 1640Sol     OW 9643   2.450   0.941   6.020  0.2781 -0.4900  0.7310
 1640Sol     HW 9644   2.487   0.996   5.951  0.7238 -1.6544  0.0237
 1640Sol     HW 9645   2.357   0.962   6.020  0.4142  0.1398  0.3607
 1640Sol     MW 9646   2.445   0.948   6.014  0.1793  0.6624 -0.5293
 1641Sol     OW 9647   1.314   2.491   7.784 -0.3970 -0.3857  0.1808
 1641Sol     HW 9648   1.272   2.561   7.835 -2.0032 -2.1002  1.2826
 1641Sol     HW 9649   1.241   2.440   7.748  0.7166 -2.5422  0.8867
 1641Sol     MW 9650   1.304   2.493   7.785  0.0625  0.3430  0.2960
 1642Sol     OW 9651   0.402   2.852   3.082  0.6224 -0.4156 -0.0762
 1642Sol     HW 9652   0.427   2.860   2.990 -0.1642 -1.6123 -0.4057
 1642Sol     HW 9653   0.456   2.917   3.127 -0.1689  1.3142 -1.5912
 1642Sol     MW 9654   0.409   2.858   3.078 -0.5063  0.0334  0.0911
 1643Sol     OW 9655   0.440   1.809   5.670  0.1234 -0.2516 -0.3224
 1643Sol     HW 9656   0.350   1.818   5.636  0.6018 -0.4035 -1.6523
 1643Sol     HW 9657   0.460   1.894   5.708 -1.0341 -0.5918  1.1144
 1643Sol     MW 9658   0.433   1.817   5.670 -0.3568  0.0573  0.5669
 1644Sol     OW 9659   2.360   1.019   2.393 -0.1346 -0.0191  0.3409
 1644Sol     HW 9660   2.451   1.015   2.422 -0.0597  0.6498  0.2258
 1644Sol     HW 9661   2.361   1.082   2.321 -0.6284 -0.2853  0.0999
 1644Sol     MW 9662   2.368   1.025   2.389  0.4502 -0.5961  0.2559
 1645Sol     OW 9663   2.561   2.468   7.176 -0.6381  0.3436  0.4854
 1645Sol     HW 9664   2.559   2.419   7.095 -2.4839 -0.7085  1.1188
 1645Sol     HW 9665   2.652   2.493   7.188  0.0346 -1.4735 -0.7157
 1645Sol     MW 9666   2.569   2.466   7.170  0.3119 -0.2382  0.3059
 1646Sol     OW 9667   0.327   0.339   7.353  0.2894 -0.0846  0.7556
 1646Sol     HW 9668   0.283   0.399   7.413  1.1838 -0.5207  1.8692
 1646Sol     HW 9669   0.417   0.337   7.383  0.3030 -1.8656  0.6461
 1646Sol     MW 9670   0.331   0.344   7.361 -0.4893 -0.1072  0.0804
 1647Sol     OW 9671   2.442   2.532   3.072 -0.0697  0.3056 -0.0309
 1647Sol     HW 9672   2.466   2.446   3.105 -1.7689 -0.3471 -0.4742
 1647Sol     HW 9673   2.356   2.549   3.110 -1.2582  0.3276 -2.6838
 1647Sol     MW 9674   2.436   2.526   3.079 -0.6177  0.0037  0.3186
 1648Sol     OW 9675   2.769   1.308   4.145  0.4509  0.1066 -0.1489
 1648Sol     HW 9676   2.840   1.244   4.149 -0.1950 -0.5704  0.6719
 1648Sol     HW 9677   2.747   1.325   4.236 -0.2332  0.5477 -0.3920
 1648Sol     MW 9678   2.773   1.303   4.153  0.1923  0.1940  0.2114
 1649Sol     OW 9679   2.016   0.840   8.414 -0.3724 -0.2434 -0.1438
 1649Sol     HW 9680   1.931   0.803   8.388  0.4997 -0.6263 -2.5726
 1649Sol     HW 9681   2.061   0.769   8.459 -0.5089 -0.7091 -0.7378
 1649Sol     MW 9682   2.012   0.830   8.415  0.1089 -0.0289  0.3228
 1650Sol     OW 9683   0.007   2.425   5.145  0.3161 -0.2272 -0.2148
 1650Sol     HW 9684   0.037   2.480   5.217 -2.4240  1.1760 -0.0796
 1650Sol     HW 9685   0.058   2.454   5.070 -1.1105  2.5720 -0.1504
 1650Sol     MW 9686   0.014   2.432   5.145 -0.0773  0.1136 -0.1749
 1651Sol     OW 9687   2.604   2.896   2.883 -0.2831  0.4471 -0.5100
 1651Sol     HW 9688   2.693   2.932   2.882  0.6275 -1.6637  0.5448
 1651Sol     HW 9689   2.558   2.950   2.948  0.6326  0.6573 -0.0174
 1651Sol     MW 9690   2.608   2.904   2.889 -0.7495  0.2149 -0.7524
 1652Sol     OW 9691   1.928   0.889   2.413  0.3687  0.2167 -0.2763
 1652Sol     HW 9692   1.880   0.808   2.395 -1.5040  1.3844 -0.7331
 1652Sol     HW 9693   1.942   0.927   2.326  0.5356  0.7639 -0.0072
 1652Sol     MW 9694   1.925   0.885   2.404  0.6766 -0.1320  0.2549
 1653Sol     OW 9695   2.602   0.024   4.704  0.4281  0.5714 -0.1943
 1653Sol     HW 9696   2.623  -0.001   4.614  0.7062 -1.7205  0.4691
 1653Sol     HW 9697   2.687   0.028   4.748  0.1963  0.4312  0.2676
 1653Sol     MW 9698   2.612   0.022   4.699  0.1865 -0.0840 -0.1846
 1654Sol     OW 9699   1.232   2.590   7.090 -0.1940 -0.4200  0.3630
 1654Sol     HW 9700   1.188   2.666   7.052 -0.1657 -0.6546 -0.1350
 1654Sol     HW 9701   1.160   2.535   7.123 -0.2212 -0.2482  0.5881
 1654Sol     MW 9702   1.222   2.592   7.090 -0.0768 -0.0529  0.5317
 1655Sol     OW 9703   2.764   0.055   2.162  0.3326  0.1225 -0.4850
 1655Sol     HW 9704   2.804   0.008   2.235 -0.3212 -0.1979 -0.3262
 1655Sol     HW 9705   2.765   0.147   2.190 -1.1432 -0.1423  0.5367
 1655Sol     MW 9706   2.768   0.059   2.171 -0.5094 -0.3547  0.2441
 1656Sol     OW 9707   1.638   3.083   4.844  0.1139  0.2994  0.2468
 1656Sol     HW 9708   1.688   3.024   4.900  0.2505  2.1209  2.1248
 1656Sol     HW 9709   1.647   3.047   4.756  3.6579 -0.1263  0.7288
 1656Sol     MW 9710   1.643   3.074   4.841 -0.1165 -0.1994 -0.0040
 1657Sol     OW 9711   0.642   1.290   1.335 -0.1651  0.7056  0.5554
 1657Sol     HW 9712   0.630   1.292   1.240  2.7223 -1.2921  0.0605
 1657Sol     HW 9713   0.603   1.208   1.363  1.8651 -0.2763  0.5833
 1657Sol     MW 9714   0.638   1.283   1.329 -0.3981  0.3080 -0.5119
 1658Sol     OW 9715   1.341   1.204   9.453 -0.3471 -0.3680 -0.4522
 1658Sol     HW 9716   1.281   1.278   9.457  0.2442  0.0520  0.7425
 1658Sol     HW 9717   1.313   1.146   9.524 -0.2466 -0.8676 -0.8121
 1658Sol     MW 9718   1.333   1.205   9.460  0.4145 -0.4131 -0.3629
 1659Sol     OW 9719   1.663   2.322   3.912 -0.6327  0.4791 -0.1058
 1659Sol     HW 9720   1.750   2.313   3.951 -0.3220  0.0072 -0.8874
 1659Sol     HW 9721   1.679   2.368   3.829 -0.7416 -2.0806 -1.6073
 1659Sol     MW 9722   1.672   2.325   3.908  0.1953 -0.1594  0.3129
 1660Sol     OW 9723   1.564   1.253   3.599 -0.0899  0.2445  0.5229
 1660Sol     HW 9724   1.546   1.341   3.564 -0.6277  0.3323  1.0151
 1660Sol     HW 9725   1.487   1.232   3.652 -1.0702 -1.4775 -1.4585
 1660Sol     MW 9726   1.555   1.259   3.600 -0.0493  0.3354  0.0954
 1661Sol     OW 9727   3.240   0.699   6.545  0.2988 -0.7304 -0.0328
 1661Sol     HW 9728   3.212   0.750   6.622 -0.3884 -0.4357 -0.4694
 1661Sol     HW 9729   3.333   0.721   6.534  0.2870 -0.4364  0.4540
 1661Sol     MW 9730   3.246   0.706   6.551 -0.0683  0.7953  0.0887
 1662Sol     OW 9731   2.951   1.663   6.900 -0.3005 -0.3239 -0.7600
 1662Sol     HW 9732   2.864   1.623   6.896 -0.5517  0.3079 -1.7401
 1662Sol     HW 9733   2.999   1.610   6.963 -2.3485  1.1512  2.1747
 1662Sol     MW 9734   2.947   1.655   6.905  0.2470  0.0281  0.0299
 1663Sol     OW 9735   1.360   2.392   3.573 -0.4374  0.0098 -0.6748
 1663Sol     HW 9736   1.285   2.370   3.628 -0.4894  0.6134 -0.4989
 1663Sol     HW 9737   1.380   2.483   3.595  0.2485 -0.1005 -0.8348
 1663Sol     MW 9738   1.355   2.398   3.580 -0.3592 -0.1734 -0.8157
 1664Sol     OW 9739   3.011   1.053   8.349  0.0110 -0.7377  0.3323
 1664Sol     HW 9740   2.977   0.968   8.323 -0.5058 -0.4434  0.0199
 1664Sol     HW 9741   3.103   1.038   8.369  0.4090 -1.0258 -1.5663
 1664Sol     MW 9742   3.016   1.044   8.348 -0.5270  0.2523  0.4351
 1665Sol     OW 9743   1.806   1.592   2.978 -0.4149 -0.3028 -0.2097
 1665Sol     HW 9744   1.713   1.597   2.956 -0.2354 -1.1273 -1.2132
 1665Sol     HW 9745   1.845   1.666   2.932 -0.7022  0.5929  0.9617
 1665Sol     MW 9746   1.801   1.599   2.972 -0.2796  0.1512  0.0759
 1666Sol     OW 9747   2.778   0.826   2.151  0.4048 -0.1741  0.4800
 1666Sol     HW 9748   2.834   0.797   2.079  1.2209 -0.2888  1.1445
 1666Sol     HW 9749   2.760   0.918   2.132 -2.2629 -1.0792 -1.6802
 1666Sol     MW 9750   2.782   0.832   2.143 -0.0450 -0.2216 -0.1018
 1667Sol     OW 9751   1.845   3.290   2.058 -0.5321 -0.3213 -0.0341
 1667Sol     HW 9752   1.920   3.332   2.017 -0.1039 -1.6454 -0.6343
 1667Sol     HW 9753   1.879   3.256   2.141 -1.1644  1.5224  1.0034
 1667Sol     MW 9754   1.855   3.291   2.062  0.5073 -0.4014  1.2281
 1668Sol     OW 9755   2.106   0.930   9.368 -0.3826  0.0905 -0.1970
 1668Sol     HW 9756   2.074   0.954   9.281  0.2621 -1.6324 -0.9416
 1668Sol     HW 9757   2.033   0.950   9.427 -0.3907  2.3767 -0.9533
 1668Sol     MW 9758   2.097   0.934   9.366  0.3941  0.3352 -0.0635
 1669Sol     OW 9759   2.628   2.300   2.530 -0.6415 -0.6292 -0.7468
 1669Sol     HW 9760   2.641   2.297   2.625  2.5571  0.5311 -1.0946
 1669Sol     HW 9761   2.602   2.211   2.506 -2.0003 -0.8107  1.2539
 1669Sol     MW 9762   2.627   2.292   2.536 -0.5720 -0.2270  0.3749
 1670Sol     OW 9763   0.473   2.637   7.652  0.0310  0.0992  0.0943
 1670Sol     HW 9764   0.416   2.619   7.577 -0.9329  0.7409  0.6524
 1670Sol     HW 9765   0.562   2.631   7.617 -0.4000 -0.0192 -1.0016
 1670Sol     MW 9766   0.476   2.635   7.642  0.3267  0.4242  0.3753
 1671Sol     OW 9767   0.227   0.845   6.003 -0.1081 -0.2438  0.0101
 1671Sol     HW 9768   0.199   0.867   5.914  0.6688  1.0687  0.0797
 1671Sol     HW 9769   0.323   0.842   5.998 -0.0845 -0.7012  0.6729
 1671Sol     MW 9770   0.233   0.847   5.995  0.1223  0.1338 -0.3607
 1672Sol     OW 9771   1.750   1.208   8.281  0.1412  0.2240 -0.3531
 1672Sol     HW 9772   1.669   1.159   8.269 -1.7368  3.0614  0.1047
 1672Sol     HW 9773   1.785   1.177   8.364 -2.1392  1.1508  0.9930
 1672Sol     MW 9774   1.746   1.201   8.287  0.2939  0.4063 -0.2808
 1673Sol     OW 9775   1.255   3.420   5.758  0.0072 -1.0087 -0.0711
 1673Sol     HW 9776   1.265   3.438   5.852 -1.3595  0.3876 -0.1795
 1673Sol     HW 9777   1.291   3.498   5.715 -0.7642 -0.9826 -0.6747
 1673Sol     MW 9778   1.259   3.429   5.763 -0.6721  0.6163  0.2026
 1674Sol     OW 9779   2.493   0.052   2.214  0.5314 -0.3909 -0.4033
 1674Sol     HW 9780   2.493   0.083   2.305 -1.6584 -1.3990 -0.0310
 1674Sol     HW 9781   2.584   0.061   2.186  0.6853  2.8149  0.8993
 1674Sol     MW 9782   2.501   0.056   2.220  1.0172  0.1182 -0.1881
 1675Sol     OW 9783   2.627   2.546   8.428 -0.0386 -0.3582 -0.2911
 1675Sol     HW 9784   2.700   2.539   8.366 -0.4820  0.3181 -0.9026
 1675Sol     HW 9785   2.626   2.638   8.452 -0.4858 -0.4349 -0.0308
 1675Sol     MW 9786   2.634   2.553   8.424 -0.5060 -0.6249  0.4482
 1676Sol     OW 9787   1.108   0.778   6.070  0.0815 -0.3238  0.0745
 1676Sol     HW 9788   1.056   0.744   6.143  0.4785 -2.4311 -0.5754
 1676Sol     HW 9789   1.192   0.802   6.109 -0.5755  0.9678  0.7324
 1676Sol     MW 9790   1.110   0.777   6.080  0.1305 -0.1189  0.3991
 1677Sol     OW 9791   1.921   1.430   4.419  0.6020  0.2416  0.2776
 1677Sol     HW 9792   1.894   1.420   4.327 -1.9349 -0.3984  1.0499
 1677Sol     HW 9793   1.841   1.455   4.465  1.6786 -0.1565  2.4447
 1677Sol     MW 9794   1.911   1.431   4.415 -0.5475  0.8103 -0.3847
 1678Sol     OW 9795   0.539   2.073   5.776  0.7500  0.0948 -0.7796
 1678Sol     HW 9796   0.532   2.053   5.869 -0.8271 -0.2091 -0.9525
 1678Sol     HW 9797   0.632   2.061   5.756  0.8234 -1.5129  0.3829
 1678Sol     MW 9798   0.547   2.070   5.782 -0.4604  0.5008 -0.0069
 1679Sol     OW 9799   3.161   1.587   8.779  0.7345  0.0192 -0.3634
 1679Sol     HW 9800   3.115   1.545   8.707  0.4777 -1.4497  0.6312
 1679Sol     HW 9801   3.253   1.590   8.751  0.4440  0.6240 -1.2697
 1679Sol     MW 9802   3.165   1.584   8.770  0.3511  0.4314  0.3500
 1680Sol     OW 9803   2.996   1.126   1.609 -0.0111 -0.4173  0.2317
 1680Sol     HW 9804   2.968   1.039   1.580 -1.5081 -0.2100  0.9688
 1680Sol     HW 9805   3.014   1.115   1.703 -2.1799  0.4921  0.7868
 1680Sol     MW 9806   2.995   1.118   1.615  0.7194 -0.0062 -0.0573
 1681Sol     OW 9807   1.998   3.096   8.052 -0.3222  0.5369 -0.2245
 1681Sol     HW 9808   2.049   3.163   8.097  0.7208 -1.4220  1.6327
 1681Sol     HW 9809   1.939   3.061   8.119 -2.1721  0.8390 -1.6315
 1681Sol     MW 9810   1.997   3.098   8.062 -0.0800 -0.5865 -0.3356
 1682Sol     OW 9811   3.178   0.442   8.157  0.0411  0.1775 -0.2819
 1682Sol     HW 9812   3.172   0.401   8.071 -3.5754 -0.9958  0.4418
 1682Sol     HW 9813   3.209   0.373   8.215 -2.1829 -0.4272  0.2085
 1682Sol     MW 9814   3.180   0.433   8.154  0.1293  0.5381 -0.0038
 1683Sol     OW 9815   3.102   1.732   6.675  0.9173 -0.0673 -0.4696
 1683Sol     HW 9816   3.038   1.714   6.744 -0.1669 -0.5105 -1.5806
 1683Sol     HW 9817   3.186   1.738   6.721  0.0726  0.6455  1.0198
 1683Sol     MW 9818   3.104   1.731   6.685  0.0230  0.2356 -0.0876
 1684Sol     OW 9819   2.024   2.045   4.345 -0.2588  0.3498  0.2264
 1684Sol     HW 9820   2.082   2.030   4.419 -1.2508 -1.5381  0.6624
 1684Sol     HW 9821   1.961   2.110   4.377  0.6752  1.2520  0.2566
 1684Sol     MW 9822   2.023   2.050   4.355  0.3211 -0.8082 -0.8208
 1685Sol     OW 9823   0.234   1.899   8.678 -0.5431 -0.1098  0.2539
 1685Sol     HW 9824   0.192   1.900   8.764 -0.7219  1.7201  0.1752
 1685Sol     HW 9825   0.324   1.928   8.695 -0.5807  0.2633 -0.1721
 1685Sol     MW 9826   0.238   1.902   8.688  0.1409 -0.2361  0.3672
 1686Sol     OW 9827   0.501   2.124   1.857 -0.7119  0.6480 -0.6531
 1686Sol     HW 9828   0.464   2.205   1.890 -0.3153 -0.1144  1.7973
 1686Sol     HW 9829   0.591   2.146   1.833 -0.5249  0.8865  0.2586
 1686Sol     MW 9830   0.506   2.133   1.858 -0.7028 -0.1401  0.0611
 1687Sol     OW 9831   0.833   0.681   2.044 -0.8107  0.1846 -0.5796
 1687Sol     HW 9832   0.820   0.775   2.038 -1.1025  0.2910  1.4795
 1687Sol     HW 9833   0.887   0.669   2.121  1.0824 -1.1933 -2.0756
 1687Sol     MW 9834   0.836   0.688   2.050 -0.5196  0.6224 -0.3927
 1688Sol     OW 9835   3.200   2.056   4.424 -0.3838 -0.3917 -0.3095
 1688Sol     HW 9836   3.260   2.060   4.350 -0.0078 -1.8381 -0.0982
 1688Sol     HW 9837   3.247   2.005   4.491 -0.9354  0.4131  0.7122
 1688Sol     MW 9838   3.209   2.052   4.424 -0.1191  0.0330  0.0418
 1689Sol     OW 9839   2.701   1.788   7.757  0.7953 -0.1232 -0.1037
 1689Sol     HW 9840   2.615   1.792   7.798  0.8490 -1.7079  0.1875
 1689Sol     HW 9841   2.698   1.855   7.688  0.2768  1.7013  1.6570
 1689Sol     MW 9842   2.693   1.794   7.754 -0.1664  0.0176 -0.9185
 1690Sol     OW 9843   0.396   3.269   3.256 -0.0895  0.0330  0.1345
 1690Sol     HW 9844   0.374   3.322   3.179  1.3689  1.1102  0.4450
 1690Sol     HW 9845   0.311   3.240   3.289 -0.8240  0.8819 -0.9619
 1690Sol     MW 9846   0.386   3.271   3.252  0.7796 -0.1958  0.3813
 1691Sol     OW 9847   1.193   3.212   1.807 -0.1819 -0.2168 -0.0877
 1691Sol     HW 9848   1.098   3.219   1.818 -0.1497  1.2002 -0.4840
 1691Sol     HW 9849   1.208   3.123   1.775 -1.3450 -0.5584  0.3062
 1691Sol     MW 9850   1.186   3.205   1.805 -0.1645 -0.2274 -0.3983
 1692Sol     OW 9851   0.777   0.953   3.476  0.1843  0.7062 -0.4739
 1692Sol     HW 9852   0.688   0.932   3.448  0.3284  0.6243 -0.8688
 1692Sol     HW 9853   0.777   1.048   3.487 -0.1869  0.6180  0.3426
 1692Sol     MW 9854   0.769   0.959   3.474 -0.7269 -0.1301 -0.6801
 1693Sol     OW 9855   2.931   0.706   1.966  0.0695  0.2190 -0.4555
 1693Sol     HW 9856   3.000   0.702   2.032  0.5460 -0.7448 -1.0068
 1693Sol     HW 9857   2.914   0.615   1.942 -1.4529  0.4383 -0.2672
 1693Sol     MW 9858   2.935   0.698   1.969 -0.4070 -0.4636 -0.4395
 1694Sol     OW 9859   1.449   0.825   8.806  0.4696  0.0052  0.6392
 1694Sol     HW 9860   1.421   0.838   8.896  1.1372  0.4267  0.7904
 1694Sol     HW 9861   1.455   0.730   8.795  1.4321 -0.0226  1.3677
 1694Sol     MW 9862   1.447   0.818   8.813  0.0847  0.0329  0.0961
 1695Sol     OW 9863   1.361   3.284   2.026 -0.1107 -0.1710  0.4408
 1695Sol     HW 9864   1.453   3.269   2.003 -0.0366  0.2112  0.4789
 1695Sol     HW 9865   1.312   3.254   1.949 -0.0685 -2.0985  1.1416
 1695Sol     MW 9866   1.365   3.280   2.017 -0.6536 -0.2269  0.1744
 1696Sol     OW 9867   2.586   1.741   9.395  0.2299  0.1092  0.0376
 1696Sol     HW 9868   2.498   1.735   9.357  0.0631  0.1169  0.4182
 1696Sol     HW 9869   2.607   1.834   9.392 -0.3771  0.3017  1.2868
 1696Sol     MW 9870   2.580   1.748   9.392  0.5808  0.1180  0.8720
 1697Sol     OW 9871   0.841   2.823   8.200  0.9149  0.0801  0.3634
 1697Sol     HW 9872   0.889   2.898   8.236  0.4134 -0.1935  1.6198
 1697Sol     HW 9873   0.772   2.805   8.264 -0.0826 -0.3408 -0.7924
 1697Sol     MW 9874   0.839   2.828   8.209  0.8965 -0.0282  0.3213
 1698Sol     OW 9875   2.915   1.951   6.907 -0.2186 -0.1409  0.0984
 1698Sol     HW 9876   2.938   1.859   6.920  0.9119  0.4647  2.7569
 1698Sol     HW 9877   2.970   1.980   6.835 -0.0646 -1.3484 -0.2850
 1698Sol     MW 9878   2.922   1.945   6.902  0.4944 -0.7470 -0.6108
 1699Sol     OW 9879   0.711   3.160   1.723  0.2279  0.2151  0.4310
 1699Sol     HW 9880   0.700   3.155   1.628 -2.0696  0.9303  0.6445
 1699Sol     HW 9881   0.647   3.224   1.752 -1.3796 -2.3543  2.8240
 1699Sol     MW 9882   0.704   3.165   1.717 -0.5050  0.2809 -0.7810
 1700Sol     OW 9883   2.581   2.892   7.626  0.0977  0.1807 -0.1177
 1700Sol     HW 9884   2.550   2.907   7.716 -0.0036 -1.1588  0.0719
 1700Sol     HW 9885   2.524   2.948   7.572 -0.2901  0.4707  0.5794
 1700Sol     MW 9886   2.573   2.899   7.629  0.2013 -0.7997  0.4479
 1701Sol     OW 9887   0.377   0.092   1.682  0.0260 -0.0403  0.3154
 1701Sol     HW 9888   0.364   0.114   1.774  1.9432  1.8199  0.1970
 1701Sol     HW 9889   0.295   0.119   1.639 -0.7005 -0.5069  1.3839
 1701Sol     MW 9890   0.368   0.097   1.686 -0.2830 -1.1348  0.4905
 1702Sol     OW 9891   2.518   2.960   5.710  0.0318  0.5784 -0.1857
 1702Sol     HW 9892   2.537   2.987   5.800  0.5816 -0.0500 -0.1142
 1702Sol     HW 9893   2.574   3.015   5.655 -0.2062  0.8682 -0.1390
 1702Sol     MW 9894   2.524   2.967   5.713 -0.3202  0.2163  0.2445
 1703Sol     OW 9895   0.110   0.726   4.970 -0.3031 -0.0981 -0.0688
 1703Sol     HW 9896   0.151   0.748   5.053  0.2359  1.8489 -0.8247
 1703Sol     HW 9897   0.022   0.696   4.994 -0.2555  0.7160  1.1809
 1703Sol     MW 9898   0.106   0.725   4.979 -0.3723 -0.0630  0.4709
 1704Sol     OW 9899   0.860   2.470   1.942  0.1472 -0.2756 -0.1205
 1704Sol     HW 9900   0.881   2.540   2.005 -0.7078 -0.1224 -0.0016
 1704Sol     HW 9901   0.880   2.508   1.857 -1.1437  0.4427 -0.1253
 1704Sol     MW 9902   0.864   2.480   1.940 -0.3088  0.0597  0.9511
 1705Sol     OW 9903   0.495   0.281   6.057 -0.1060 -0.3825 -0.2164
 1705Sol     HW 9904   0.551   0.216   6.015 -0.7107 -0.8158 -0.3652
 1705Sol     HW 9905   0.475   0.244   6.143  2.5172  1.2766  1.1777
 1705Sol     MW 9906   0.498   0.272   6.061 -0.4991  0.7037 -0.1779
 1706Sol     OW 9907   1.227   1.494   9.484 -0.1271  0.2204 -0.0178
 1706Sol     HW 9908   1.238   1.541   9.401  0.1925 -2.5552 -1.6233
 1706Sol     HW 9909   1.135   1.507   9.507 -0.0286  1.6507 -0.3659
 1706Sol     MW 9910   1.220   1.499   9.479  0.1955 -0.3088  0.0657
 1707Sol     OW 9911   1.134   1.160   4.222  0.0901 -0.7231 -0.0397
 1707Sol     HW 9912   1.076   1.085   4.238  0.4916 -1.4895 -2.0358
 1707Sol     HW 9913   1.091   1.209   4.152  0.7906 -0.1115 -0.0496
 1707Sol     MW 9914   1.125   1.158   4.217  0.1743  0.3850 -0.0267
 1708Sol     OW 9915   0.345   0.168   8.034  0.1382 -0.0640  0.5016
 1708Sol     HW 9916   0.279   0.234   8.013 -1.0367 -0.4904  2.6702
 1708Sol     HW 9917   0.320   0.091   7.983 -0.7293 -0.0329  0.8685
 1708Sol     MW 9918   0.337   0.167   8.028 -0.2461  0.3307  0.1434
 1709Sol     OW 9919   0.107   0.735   5.574  0.4114 -0.1760  0.5764
 1709Sol     HW 9920   0.115   0.804   5.640 -0.2431  1.2194 -0.7536
 1709Sol     HW 9921   0.178   0.753   5.512 -0.2604 -0.1918 -0.2103
 1709Sol     MW 9922   0.114   0.743   5.575 -0.0501  0.1430 -0.2755
 1710Sol     OW 9923   3.270   2.266   6.631  0.3578  0.0449  0.0230
 1710Sol     HW 9924   3.201   2.207   6.660 -0.7935  1.1829 -0.3343
 1710Sol     HW 9925   3.293   2.234   6.543 -0.4958  0.3165 -0.3056
 1710Sol     MW 9926   3.265   2.258   6.625  0.1996 -0.1332 -0.4762
 1711Sol     OW 9927   1.075   3.107   2.721  0.0800  0.1115 -0.2087
 1711Sol     HW 9928   1.065   3.191   2.765 -0.8743 -0.1986  0.1865
 1711Sol     HW 9929   1.071   3.042   2.791  0.8796 -0.2590 -0.5041
 1711Sol     MW 9930   1.074   3.108   2.731 -0.0603 -0.2306 -0.8645
 1712Sol     OW 9931   1.480   3.219   3.998 -0.2795  0.3141  0.1285
 1712Sol     HW 9932   1.511   3.208   4.088  0.0751 -0.5350 -0.0878
 1712Sol     HW 9933   1.418   3.147   3.985 -0.3597  0.4553 -0.2916
 1712Sol     MW 9934   1.477   3.211   4.005  0.2221  0.5169 -0.0133
 1713Sol     OW 9935   1.376   1.264   4.825 -0.2280 -0.0037 -0.3791
 1713Sol     HW 9936   1.339   1.237   4.909  1.0885 -0.4928  0.0591
 1713Sol     HW 9937   1.463   1.223   4.823 -0.0474  0.4306 -1.7467
 1713Sol     MW 9938   1.381   1.258   4.832  0.5427  0.4606  0.6828
 1714Sol     OW 9939   0.728   1.023   8.488  0.0303  0.0694  0.0570
 1714Sol     HW 9940   0.732   1.107   8.443 -1.0636 -0.0383 -0.2400
 1714Sol     HW 9941   0.791   1.032   8.560 -0.6373  1.4133  0.4903
 1714Sol     MW 9942   0.734   1.031   8.491  0.1904 -0.2124 -0.2586
 1715Sol     OW 9943   2.709   0.966   9.548 -0.0690 -0.1349 -0.1581
 1715Sol     HW 9944   2.713   0.974   9.453 -0.4210  0.6819 -0.1106
 1715Sol     HW 9945   2.781   0.907   9.570 -1.0117 -1.6854 -1.0717
 1715Sol     MW 9946   2.715   0.961   9.542 -0.2890 -0.9940  0.3918
 1716Sol     OW 9947   0.378   2.674   7.079  0.0528 -0.0565  0.1739
 1716Sol     HW 9948   0.387   2.582   7.104  0.3438 -0.1314 -0.1969
 1716Sol     HW 9949   0.287   2.696   7.099 -0.1925 -0.6026 -0.3202
 1716Sol     MW 9950   0.371   2.668   7.083 -0.1400 -0.0127  0.1499
 1717Sol     OW 9951   0.505   1.222   8.003 -0.4717  0.1658  0.0514
 1717Sol     HW 9952   0.435   1.184   8.058  0.1009  0.1005  0.7455
 1717Sol     HW 9953   0.584   1.212   8.056  0.0946  0.0658 -0.8159
 1717Sol     MW 9954   0.506   1.217   8.013  0.2118  0.4947  0.9357
 1718Sol     OW 9955   0.650   1.593   3.523 -0.1194 -0.1921  0.0705
 1718Sol     HW 9956   0.649   1.649   3.600 -0.4150  0.4197 -0.3684
 1718Sol     HW 9957   0.622   1.507   3.554  1.3209 -0.3638  0.9409
 1718Sol     MW 9958   0.647   1.590   3.532  0.0933  0.2359  0.5022
 1719Sol     OW 9959   0.704   3.126   1.433  0.1477  0.5770 -0.3372
 1719Sol     HW 9960   0.731   3.125   1.341 -0.1066  1.7299 -0.4338
 1719Sol     HW 9961   0.706   3.219   1.458  0.4286  0.2628  0.8846
 1719Sol     MW 9962   0.707   3.134   1.427  0.4955 -0.4675 -0.2690
 1720Sol     OW 9963   0.168   2.848   4.189  0.6511 -0.1554  0.4725
 1720Sol     HW 9964   0.130   2.765   4.220  2.2125 -0.8607  0.5060
 1720Sol     HW 9965   0.168   2.840   4.094 -2.1810  1.1477  0.3195
 1720Sol     MW 9966   0.164   2.840   4.183  0.0606  1.0668  0.0310
 1721Sol     OW 9967   2.710   1.541   6.561 -0.0535 -1.1402 -0.3256
 1721Sol     HW 9968   2.679   1.596   6.633  0.1383 -0.4453 -0.7675
 1721Sol     HW 9969   2.779   1.593   6.520 -0.7929 -1.1425 -1.5843
 1721Sol     MW 9970   2.713   1.550   6.564 -0.3758  0.5648 -0.0092
 1722Sol     OW 9971   2.847   2.094   2.837 -0.5451  0.3028 -0.1525
 1722Sol     HW 9972   2.860   2.021   2.776  1.9633  0.0858  0.5941
 1722Sol     HW 9973   2.800   2.056   2.911  1.4489 -0.7686  0.5865
 1722Sol     MW 9974   2.844   2.084   2.838  0.1724 -0.1543  0.0499
 1723Sol     OW 9975   1.662   1.546   9.794  1.0876 -0.3731 -0.5336
 1723Sol     HW 9976   1.586   1.552   9.736 -0.4527 -2.3768  1.1700
 1723Sol     HW 9977   1.715   1.622   9.772 -1.9993  1.7609 -1.0036
 1723Sol     MW 9978   1.660   1.553   9.787 -0.2017  0.0465  0.1420
 1724Sol     OW 9979   3.227   1.374   7.781  0.2949 -0.5218  0.5937
 1724Sol     HW 9980   3.289   1.310   7.815  0.0453 -0.5965  0.9093
 1724Sol     HW 9981   3.141   1.339   7.804  0.1599 -0.0630  0.7933
 1724Sol     MW 9982   3.225   1.365   7.787  0.9534  0.0299 -0.4788
 1725Sol     OW 9983   0.824   1.607   6.954  0.6878  0.5433  0.6278
 1725Sol     HW 9984   0.886   1.675   6.926  0.6140 -0.0031 -0.8718
 1725Sol     HW 9985   0.742   1.655   6.969  0.6872  0.8209 -0.2419
 1725Sol     MW 9986   0.822   1.618   6.953  0.5993  0.7789  0.3425
 1726Sol     OW 9987   1.526   0.379   4.978 -0.7417  0.1508  0.2012
 1726Sol     HW 9988   1.530   0.337   5.064  0.6177 -0.6077 -0.2183
 1726Sol     HW 9989   1.464   0.326   4.929 -1.6516  0.6848  0.7524
 1726Sol     MW 9990   1.521   0.371   4.982 -0.9941  0.3039 -0.6922
 1727Sol     OW 9991   0.719   2.531   3.867  0.3837 -0.4323 -0.5873
 1727Sol     HW 9992   0.695   2.584   3.943 -0.0234 -1.6394  0.1341
 1727Sol     HW 9993   0.799   2.486   3.894  1.1272  0.3497 -1.4556
 1727Sol     MW 9994   0.724   2.532   3.877 -0.8216  0.4963 -0.7820
 1728Sol     OW 9995   0.731   1.179   3.228  0.1330  0.3588 -1.0093
 1728Sol     HW 9996   0.670   1.244   3.264  0.2257 -0.0685 -0.0634
 1728Sol     HW 9997   0.771   1.223   3.153  0.2745  1.4360 -0.3194
 1728Sol     MW 9998   0.729   1.189   3.224  0.3409 -0.5380  0.3003
 1729Sol     OW 9999   0.749   0.107   3.048  0.2759  0.2682  0.5928
 1729Sol     HW10000   0.821   0.158   3.011  0.8808 -0.3713  0.8804
 1729Sol     HW10001   0.756   0.120   3.143  0.1606  0.0071  0.6369
 1729Sol     MW10002   0.756   0.113   3.053  0.2469  0.3938 -0.0916
 1730Sol     OW10003   3.184   2.054   5.808  0.6044  0.1671  0.8858
 1730Sol     HW10004   3.137   2.027   5.887  0.8782 -0.4642  0.8338
 1730Sol     HW10005   3.140   2.007   5.737 -0.1045  1.2799  0.5690
 1730Sol     MW10006   3.176   2.048   5.808  0.7845 -0.0552 -0.2103
 1731Sol     OW10007   0.557   3.099   5.295 -0.0569 -0.6738 -0.1866
 1731Sol     HW10008   0.530   3.054   5.215 -1.2389  2.0727 -1.4088
 1731Sol     HW10009   0.544   3.034   5.364 -0.8856 -2.4638 -1.9618
 1731Sol     MW10010   0.553   3.089   5.294 -0.6056  0.1716 -0.0227
 1732Sol     OW10011   3.031   2.815   7.746  0.3307 -0.4497  0.1973
 1732Sol     HW10012   3.020   2.757   7.822 -0.4681  2.2941  2.2264
 1732Sol     HW10013   2.963   2.881   7.757  1.4142  1.0407 -1.9383
 1732Sol     MW10014   3.024   2.815   7.754 -0.1211 -0.0132  0.4653
 1733Sol     OW10015   2.671   1.367   4.404  0.0504  0.0773 -0.3337
 1733Sol     HW10016   2.673   1.463   4.410 -1.4032  0.1935 -1.2894
 1733Sol     HW10017   2.689   1.337   4.493  2.1395  1.1963 -0.3333
 1733Sol     MW10018   2.673   1.373   4.412  0.3955 -0.3471 -0.5489
 1734Sol     OW10019   0.676   0.698   8.817  0.0732 -0.1028  0.2155
 1734Sol     HW10020   0.754   0.642   8.825 -1.4121 -2.3812 -0.8438
 1734Sol     HW10021   0.615   0.664   8.882 -0.0204  1.7902  1.1656
 1734Sol     MW10022   0.678   0.690   8.824 -0.0888 -0.6121  0.4650
 1735Sol     OW10023   2.591   0.233   5.081  0.0727  0.7204  0.3149
 1735Sol     HW10024   2.612   0.158   5.138 -1.0191 -0.1241 -0.3568
 1735Sol     HW10025   2.566   0.303   5.141  0.5824  0.3684  0.9373
 1735Sol     MW10026   2.590   0.232   5.091 -0.6035 -0.0627  0.7170
 1736Sol     OW10027   1.256   1.567   9.838  0.2017  0.1111 -0.2456
 1736Sol     HW10028   1.182   1.624   9.858 -0.2641 -0.5642 -0.0363
 1736Sol     HW10029   1.321   1.586   9.906  0.2126  0.6872 -0.4182
 1736Sol     MW10030   1.255   1.574   9.846 -0.0455  0.2782  0.2289
 1737Sol     OW10031   0.466   0.204   7.643 -0.2659 -0.4911  0.6963
 1737Sol     HW10032   0.520   0.170   7.572 -0.5439  1.6180 -0.5598
 1737Sol     HW10033   0.426   0.126   7.682 -0.6707 -1.6302 -1.9081
 1737Sol     MW10034   0.467   0.194   7.640  0.5343  0.1789  0.1657
 1738Sol     OW10035   2.283   0.879   4.173  0.2298 -0.1554 -0.9432
 1738Sol     HW10036   2.304   0.967   4.143  1.7099  0.2214  1.1115
 1738Sol     HW10037   2.348   0.823   4.131  1.7626  0.2608  0.8351
 1738Sol     MW10038   2.290   0.882   4.167 -0.1277  0.3177  0.2271
 1739Sol     OW10039   0.303   2.561   5.401 -0.3932  0.0980 -0.0656
 1739Sol     HW10040   0.279   2.647   5.368  1.5734  1.5825  2.2076
 1739Sol     HW10041   0.390   2.545   5.365  0.7580  0.6778  2.3730
 1739Sol     MW10042   0.309   2.567   5.395 -0.7762  0.8748 -0.5863
 1740Sol     OW10043   2.671   0.390   7.501  0.5246  0.5020  0.1392
 1740Sol     HW10044   2.722   0.373   7.421  0.7520  0.8648  0.2042
 1740Sol     HW10045   2.609   0.317   7.506  1.9086 -0.6489  0.7716
 1740Sol     MW10046   2.670   0.382   7.494 -0.1021 -0.1860  0.1885
 1741Sol     OW10047   0.899   3.285   9.325 -0.3896 -0.0786  0.5157
 1741Sol     HW10048   0.953   3.275   9.403 -0.8808 -0.0982  0.8536
 1741Sol     HW10049   0.961   3.300   9.254  0.1001 -0.8851  0.7725
 1741Sol     MW10050   0.909   3.286   9.326  0.1207  0.2972 -0.2003
 1742Sol     OW10051   1.301   2.627   5.865  0.9281 -0.4762  0.4723
 1742Sol     HW10052   1.249   2.560   5.908  0.4476 -0.0464  0.5608
 1742Sol     HW10053   1.302   2.601   5.773  0.9746 -0.7523  0.5495
 1742Sol     MW10054   1.297   2.619   5.860  1.0385 -0.0394 -0.1348
 1743Sol     OW10055   0.662   1.512   1.769 -0.3671  0.0666 -0.1191
 1743Sol     HW10056   0.735   1.573   1.772 -0.4234  0.1168  0.3955
 1743Sol     HW10057   0.690   1.439   1.825 -0.3922 -0.2740 -0.5447
 1743Sol     MW10058   0.671   1.511   1.775 -0.3407 -0.0391 -0.3298
 1744Sol     OW10059   1.196   1.138   9.677  0.1615 -0.4259 -0.4891
 1744Sol     HW10060   1.160   1.051   9.695  1.2330 -0.7923 -0.0245
 1744Sol     HW10061   1.120   1.196   9.673 -0.4783 -1.1969  0.3543
 1744Sol     MW10062   1.186   1.135   9.679  0.3753  0.4960  0.4880
 1745Sol     OW10063   3.289   0.544   2.017  0.9410  0.5461 -0.0310
 1745Sol     HW10064   3.274   0.583   1.931  0.6359 -1.2833 -0.8323
 1745Sol     HW10065   3.239   0.463   2.016 -0.6823  1.4335  2.6174
 1745Sol     MW10066   3.283   0.540   2.009  0.1687  0.5791 -0.3499
 1746Sol     OW10067   2.530   3.118   1.914  0.2626  0.0235  0.7475
 1746Sol     HW10068   2.624   3.136   1.910 -0.0137  1.4201  0.2092
 1746Sol     HW10069   2.500   3.165   1.992 -0.1775  0.5827  0.2520
 1746Sol     MW10070   2.536   3.124   1.921  0.2206  0.4010  0.0525
 1747Sol     OW10071   0.301   1.658   1.454  0.0449  0.0092 -0.3488
 1747Sol     HW10072   0.386   1.617   1.469 -0.0097  0.6365  1.8810
 1747Sol     HW10073   0.314   1.713   1.377  0.9368 -1.8697 -1.5569
 1747Sol     MW10074   0.310   1.660   1.449 -0.0489  0.4456 -0.2587
 1748Sol     OW10075   2.394   0.604   3.448  0.2067 -0.3084  0.3480
 1748Sol     HW10076   2.381   0.686   3.400 -1.3947 -0.1508  1.0035
 1748Sol     HW10077   2.443   0.548   3.388 -1.5898 -0.0556 -1.4065
 1748Sol     MW10078   2.397   0.606   3.438 -0.7357 -0.3582  0.0292
 1749Sol     OW10079   0.426   1.059   9.177  0.2006  0.3234  0.1151
 1749Sol     HW10080   0.336   1.033   9.192  0.2844 -0.6708 -1.0269
 1749Sol     HW10081   0.436   1.057   9.082  0.8093  2.5266  0.0920
 1749Sol     MW10082   0.419   1.057   9.170 -0.0745  0.0035 -0.0764
 1750Sol     OW10083   3.030   2.765   2.293  0.2196  0.1042 -0.0607
 1750Sol     HW10084   3.020   2.670   2.301 -0.7330  0.2550  0.6377
 1750Sol     HW10085   2.963   2.801   2.352  0.8265  1.2056 -0.0372
 1750Sol     MW10086   3.023   2.759   2.299 -0.7258  0.1623 -0.2011
 1751Sol     OW10087   3.328   1.119   4.967 -0.2405  0.2954 -0.0268
 1751Sol     HW10088   3.402   1.178   4.976  0.6090 -0.5814 -1.0803
 1751Sol     HW10089   3.355   1.057   4.899 -1.8648 -0.1423 -0.2970
 1751Sol     MW10090   3.337   1.118   4.962 -0.1318  0.3919 -0.1317
 1752Sol     OW10091   1.633   1.959   3.609 -0.4726 -0.0029  0.1798
 1752Sol     HW10092   1.596   2.044   3.586  1.1565  0.8241  0.5485
 1752Sol     HW10093   1.604   1.901   3.539  0.5042  1.4309 -1.4390
 1752Sol     MW10094   1.627   1.962   3.601 -0.4795 -0.3884  0.5679
 1753Sol     OW10095   2.258   2.986   7.850 -0.7084  0.0767 -0.1664
 1753Sol     HW10096   2.198   2.922   7.888 -0.1968 -0.5024 -0.3384
 1753Sol     HW10097   2.345   2.947   7.859 -0.4157  0.6610 -0.4411
 1753Sol     MW10098   2.260   2.977   7.854 -0.3151  0.4700  0.6194
 1754Sol     OW10099   0.540   2.540   6.681 -0.5300  0.3596 -0.4300
 1754Sol     HW10100   0.521   2.540   6.587  0.4346  1.4008 -0.6336
 1754Sol     HW10101   0.496   2.618   6.715 -1.2015 -0.2269  0.0556
 1754Sol     MW10102   0.535   2.547   6.676 -0.3952 -0.1829  0.2202
 1755Sol     OW10103   1.351   1.817   8.403 -0.2005  0.2911  0.7190
 1755Sol     HW10104   1.378   1.797   8.493  1.4376 -2.3543 -0.3117
 1755Sol     HW10105   1.294   1.744   8.379  1.5977 -0.4897 -1.3157
 1755Sol     MW10106   1.348   1.808   8.409 -0.4225  0.6432  0.1695
 1756Sol     OW10107   2.410   2.205   2.947 -0.2189  0.1350 -0.2870
 1756Sol     HW10108   2.348   2.218   3.019 -1.0502 -0.9762 -0.7914
 1756Sol     HW10109   2.431   2.112   2.949  2.0751  0.6396  0.3740
 1756Sol     MW10110   2.406   2.198   2.954  0.2594 -0.1131  0.0512
 1757Sol     OW10111   3.123   0.020   5.120 -0.7552 -0.2453 -0.3716
 1757Sol     HW10112   3.159   0.004   5.208  0.3197 -0.5238 -0.8566
 1757Sol     HW10113   3.062   0.093   5.132  1.6857  1.7890  0.0618
 1757Sol     MW10114   3.121   0.025   5.129  0.0749 -0.1495 -0.1230
 1758Sol     OW10115   1.621   2.207   4.308 -0.2226 -0.5906 -0.5422
 1758Sol     HW10116   1.527   2.223   4.318 -0.3024 -0.0055 -2.0855
 1758Sol     HW10117   1.626   2.118   4.273 -0.1542 -0.9301  0.3161
 1758Sol     MW10118   1.613   2.201   4.306  0.0769 -1.1805  0.4507
 1759Sol     OW10119   0.657   1.430   5.194 -0.5808 -0.6422  0.5432
 1759Sol     HW10120   0.729   1.467   5.246 -0.7392  1.3046 -0.5814
 1759Sol     HW10121   0.698   1.358   5.145  0.3924 -0.1738  0.6436
 1759Sol     MW10122   0.667   1.427   5.194  0.0219  0.2746 -0.6738
 1760Sol     OW10123   1.477   2.159   9.475 -0.3601  0.6853 -0.0600
 1760Sol     HW10124   1.534   2.170   9.398 -0.6615  1.5544 -0.1635
 1760Sol     HW10125   1.538   2.158   9.549  0.1111 -2.0414 -0.4163
 1760Sol     MW10126   1.488   2.160   9.475 -0.2741  0.1597  0.2688
 1761Sol     OW10127   0.544   2.255   6.607 -0.1801 -0.1462  0.1712
 1761Sol     HW10128   0.458   2.230   6.571 -0.6753 -0.8248  1.7870
 1761Sol     HW10129   0.527   2.333   6.659 -0.2089 -1.3951  2.0958
 1761Sol     MW10130   0.535   2.259   6.608 -0.2543 -0.1413  0.4961
 1762Sol     OW10131   1.386   1.845   2.534  0.5086 -0.4501 -0.2070
 1762Sol     HW10132   1.480   1.865   2.530  0.3239  0.3902 -0.5451
 1762Sol     HW10133   1.344   1.921   2.494 -0.4553  0.1935  1.9550
 1762Sol     MW10134   1.391   1.854   2.530 -0.0236  0.1042  0.0537
 1763Sol     OW10135   0.838   1.216   7.690  0.0116 -0.0737 -0.2419
 1763Sol     HW10136   0.856   1.259   7.774 -0.8776  0.7369 -0.4432
 1763Sol     HW10137   0.801   1.131   7.714  1.6419 -0.6855  0.1649
 1763Sol     MW10138   0.836   1.212   7.700  0.2647  0.4604 -0.1916
 1764Sol     OW10139   2.720   0.521   1.728  0.3256 -0.6639  0.2564
 1764Sol     HW10140   2.761   0.481   1.806  0.0035 -1.0256  0.2419
 1764Sol     HW10141   2.660   0.454   1.696  0.4971 -0.5360 -0.3383
 1764Sol     MW10142   2.719   0.511   1.732  0.1830  0.2563 -0.6687
 1765Sol     OW10143   1.220   2.204   3.989 -0.1799 -0.2384  0.0499
 1765Sol     HW10144   1.168   2.197   4.069  3.9093  0.0692  2.8889
 1765Sol     HW10145   1.244   2.114   3.968  1.0634 -0.0907  0.8081
 1765Sol     MW10146   1.217   2.196   3.994  0.0788  0.2829 -0.2975
 1766Sol     OW10147   3.129   0.995   9.101 -0.1846  0.5775 -0.1582
 1766Sol     HW10148   3.113   0.916   9.153  0.6627  1.7885  1.9916
 1766Sol     HW10149   3.207   0.974   9.050 -0.8962 -0.5415 -0.8326
 1766Sol     MW10150   3.135   0.986   9.101  0.3070 -0.4344 -0.1252
 1767Sol     OW10151   1.217   2.666   2.930  0.0165 -0.5317  0.1100
 1767Sol     HW10152   1.247   2.668   2.840 -0.0015  0.1519  0.1158
 1767Sol     HW10153   1.153   2.737   2.936  0.8640  0.1692  0.9490
 1767Sol     MW10154   1.214   2.673   2.923  0.2157 -0.3453 -0.2465
 1768Sol     OW10155   1.806   2.409   8.615 -0.2122  0.0362 -0.3052
 1768Sol     HW10156   1.769   2.335   8.663  0.0893  0.0209 -0.0962
 1768Sol     HW10157   1.844   2.369   8.537 -0.3068  0.0065 -0.3374
 1768Sol     MW10158   1.806   2.399   8.612  0.0025 -0.1499  0.7783
 1769Sol     OW10159   0.054   2.325   3.901  0.2687  0.0949  0.2352
 1769Sol     HW10160   0.040   2.322   3.996  1.0233  0.4614  0.3660
 1769Sol     HW10161   0.112   2.252   3.883  1.1041  0.7529  0.2385
 1769Sol     MW10162   0.058   2.319   3.908 -0.4042 -0.6272  0.6633
 1770Sol     OW10163   1.946   1.213   7.496  0.1807  0.8260 -0.3164
 1770Sol     HW10164   1.926   1.137   7.443  1.3535  2.2039 -2.8149
 1770Sol     HW10165   1.861   1.253   7.515 -0.2871 -0.0049 -0.6584
 1770Sol     MW10166   1.937   1.210   7.493  0.3573  0.7216 -0.3261
 1771Sol     OW10167   3.058   2.604   9.485  0.4732 -0.1212 -1.3268
 1771Sol     HW10168   3.079   2.689   9.445  0.3916 -0.3373 -1.8353
 1771Sol     HW10169   3.142   2.571   9.517  0.4171  0.4102 -0.6148
 1771Sol     MW10170   3.067   2.609   9.484  0.0705 -0.5871  0.1642
 1772Sol     OW10171   0.569   2.859   2.827  0.0292 -0.1008  0.0436
 1772Sol     HW10172   0.582   2.784   2.769  0.1164 -1.1101  1.3485
 1772Sol     HW10173   0.589   2.936   2.773  0.5786 -1.0545 -1.1077
 1772Sol     MW10174   0.572   2.860   2.817  0.2952 -0.2843 -0.8413
 1773Sol     OW10175   0.992   0.168   2.444 -0.0734  0.7299  0.2878
 1773Sol     HW10176   0.946   0.086   2.429 -3.0379  1.4077  4.6943
 1773Sol     HW10177   1.083   0.142   2.460 -0.7137 -1.5772  0.3371
 1773Sol     MW10178   0.996   0.159   2.444 -0.2860 -0.4219 -0.4388
 1774Sol     OW10179   2.428   2.770   2.686 -0.1907  0.3373 -0.0943
 1774Sol     HW10180   2.446   2.689   2.732  1.4903  0.2370 -0.8936
 1774Sol     HW10181   2.484   2.835   2.729 -0.2626  0.7055 -0.5506
 1774Sol     MW10182   2.434   2.769   2.694  0.6738  0.0279  0.3465
 1775Sol     OW10183   0.492   3.379   8.388  0.1972  0.2774 -0.5420
 1775Sol     HW10184   0.475   3.344   8.301  0.5568 -0.9821 -0.1107
 1775Sol     HW10185   0.587   3.387   8.392  0.2370 -0.4038  0.0082
 1775Sol     MW10186   0.499   3.377   8.381  0.0900 -0.7827  0.5154
 1776Sol     OW10187   0.674   2.374   4.521 -0.8469  0.2131  0.1529
 1776Sol     HW10188   0.657   2.364   4.427 -0.0881 -1.2200  0.1453
 1776Sol     HW10189   0.769   2.379   4.527 -0.7794 -1.7040  1.0040
 1776Sol     MW10190   0.681   2.373   4.513 -0.1663 -0.3923 -0.2780
 1777Sol     OW10191   2.715   0.466   8.786  0.6193 -0.1290  0.7275
 1777Sol     HW10192   2.668   0.510   8.715  1.5014  0.4187  0.4751
 1777Sol     HW10193   2.646   0.439   8.847  0.0098  1.0930  0.6072
 1777Sol     MW10194   2.705   0.468   8.785  0.1365 -0.6674 -0.1134
 1778Sol     OW10195   1.125   0.204   5.436 -0.4922 -0.7320  0.1474
 1778Sol     HW10196   1.131   0.124   5.384 -1.5647 -0.2994 -0.6739
 1778Sol     HW10197   1.057   0.185   5.501 -2.1173  0.1332 -1.2454
 1778Sol     MW10198   1.119   0.195   5.437 -0.4010 -0.4151  0.4304
 1779Sol     OW10199   2.225   0.052   7.386  0.3064 -0.7836  0.7203
 1779Sol     HW10200   2.229   0.093   7.300 -0.5885  1.1615  1.5822
 1779Sol     HW10201   2.162   0.105   7.435  0.0071 -2.5059  2.2334
 1779Sol     MW10202   2.220   0.061   7.383  0.2645 -0.0168  0.2029
 1780Sol     OW10203   2.996   0.946   7.964  0.3866  0.1792  0.4654
 1780Sol     HW10204   3.008   0.868   7.910  1.4141 -0.3324  1.4272
 1780Sol     HW10205   2.927   0.922   8.025  0.0217  0.3684  0.1338
 1780Sol     MW10206   2.991   0.937   7.964  0.2223  0.6012 -0.1159
 1781Sol     OW10207   0.029   1.276   8.498 -0.3568 -0.3493 -0.0797
 1781Sol     HW10208   0.085   1.270   8.420  0.1040 -0.7240  0.2742
 1781Sol     HW10209   0.078   1.229   8.565 -1.2100 -0.8563  0.1809
 1781Sol     MW10210   0.039   1.272   8.497  0.1030  0.6835  0.1186
 1782Sol     OW10211   1.944   0.720   7.895  0.2398 -0.3644 -0.5588
 1782Sol     HW10212   1.997   0.744   7.819  2.6912  2.0227  1.7792
 1782Sol     HW10213   2.000   0.661   7.946 -1.4331 -2.0660 -0.6014
 1782Sol     MW10214   1.954   0.717   7.893 -0.0884  0.4210 -0.1474
 1783Sol     OW10215   0.048   1.745   6.466  0.8408 -0.0657  0.1021
 1783Sol     HW10216   0.066   1.654   6.444  3.5703  1.0582 -2.6383
 1783Sol     HW10217   0.118   1.770   6.526  0.9633  0.6528 -0.3345
 1783Sol     MW10218   0.056   1.739   6.469 -0.5099 -0.3342 -0.2413
 1784Sol     OW10219   3.228   2.536   4.832 -0.1501 -0.4850  0.5236
 1784Sol     HW10220   3.287   2.516   4.905  0.8009  1.0575  0.2014
 1784Sol     HW10221   3.203   2.627   4.846  0.3768 -0.0443 -1.3021
 1784Sol     MW10222   3.231   2.542   4.840 -0.2622  0.7482 -1.1405
 1785Sol     OW10223   0.775   2.376   6.543  0.5890  0.7311  0.5665
 1785Sol     HW10224   0.702   2.322   6.573 -0.8002  2.2515  0.0400
 1785Sol     HW10225   0.793   2.434   6.617  0.0978  1.5048  0.0967
 1785Sol     MW10226   0.770   2.377   6.553  0.2632  0.0178  0.0866
 1786Sol     OW10227   2.857   2.204   8.632  0.4288 -0.2467  1.2436
 1786Sol     HW10228   2.917   2.155   8.688  0.2465  0.2615  1.8893
 1786Sol     HW10229   2.899   2.204   8.546 -0.4648 -3.1261  0.7703
 1786Sol     MW10230   2.866   2.200   8.629 -0.3713  0.1100 -0.8400
 1787Sol     OW10231   0.160   1.451   1.927 -0.5451 -0.3080 -0.5911
 1787Sol     HW10232   0.236   1.507   1.914 -0.7284  0.1059  0.0757
 1787Sol     HW10233   0.128   1.475   2.014 -1.7420 -0.1157 -1.0784
 1787Sol     MW10234   0.164   1.458   1.934 -0.2677 -0.0295 -0.3904
 1788Sol     OW10235   1.525   0.616   2.726 -0.8209  0.2278 -0.1014
 1788Sol     HW10236   1.576   0.696   2.739  2.8338 -1.5435 -2.7141
 1788Sol     HW10237   1.550   0.560   2.800 -1.1181  0.3863  0.1204
 1788Sol     MW10238   1.532   0.618   2.734 -0.8583  0.1209 -0.1476
 1789Sol     OW10239   1.837   2.652   7.991  0.4840  0.0857  0.5151
 1789Sol     HW10240   1.788   2.728   7.960 -1.8471 -2.0041 -1.1376
 1789Sol     HW10241   1.783   2.616   8.062  1.8629  0.2773  1.6912
 1789Sol     MW10242   1.828   2.656   7.995  0.2258 -0.0828  0.3730
 1790Sol     OW10243   2.068   2.048   1.652  0.1131 -0.2170  0.2710
 1790Sol     HW10244   2.101   2.064   1.740 -0.0267 -3.0045  0.8781
 1790Sol     HW10245   2.143   2.012   1.604 -0.2760 -0.3388 -0.2506
 1790Sol     MW10246   2.078   2.046   1.655  0.2271  0.0077 -0.1689
 1791Sol     OW10247   1.743   2.524   5.940  0.4822  0.2167  0.1287
 1791Sol     HW10248   1.745   2.618   5.960  0.3878  0.6366 -1.7218
 1791Sol     HW10249   1.655   2.496   5.965  0.8238  0.4153  1.5691
 1791Sol     MW10250   1.735   2.530   5.944 -0.9322 -0.3287 -0.1841
 1792Sol     OW10251   2.435   0.072   6.122 -0.0444  0.2132 -0.5724
 1792Sol     HW10252   2.409  -0.013   6.085  0.6629  0.0279 -0.6588
 1792Sol     HW10253   2.461   0.124   6.046  2.4646 -0.5366 -0.2701
 1792Sol     MW10254   2.435   0.069   6.112  0.7177  0.2159 -0.5322
 1793Sol     OW10255   2.838   0.424   1.961  0.0955 -0.4016 -0.4645
 1793Sol     HW10256   2.764   0.416   2.021  0.7584  0.9647  0.5613
 1793Sol     HW10257   2.908   0.374   2.003 -0.1485 -1.4796 -1.3108
 1793Sol     MW10258   2.837   0.419   1.970  0.5178  0.4060  0.5220
 1794Sol     OW10259   0.414   0.712   2.131  0.1038 -0.3407  0.5400
 1794Sol     HW10260   0.456   0.792   2.100 -0.9442 -0.4746 -1.3355
 1794Sol     HW10261   0.326   0.715   2.092  0.1917 -2.5697  0.1089
 1794Sol     MW10262   0.410   0.719   2.125 -0.0656 -0.2552  0.2870
 1795Sol     OW10263   2.759   0.530   6.582 -0.2070  0.6039  0.4869
 1795Sol     HW10264   2.726   0.441   6.570  0.8729 -0.1099  2.5755
 1795Sol     HW10265   2.837   0.520   6.636 -0.8761  2.9398  1.9872
 1795Sol     MW10266   2.763   0.521   6.586  0.1532  0.1162 -0.0851
 1796Sol     OW10267   2.693   0.606   3.758 -0.5880 -0.3769  0.3261
 1796Sol     HW10268   2.647   0.653   3.828 -0.7904  0.5524 -0.4147
 1796Sol     HW10269   2.751   0.672   3.719 -0.4003 -0.9156 -0.3180
 1796Sol     MW10270   2.694   0.616   3.760 -0.0256  0.0029 -0.7648
 1797Sol     OW10271   1.569   2.214   3.577  0.3440 -0.1533  0.5848
 1797Sol     HW10272   1.639   2.280   3.578  1.8884 -1.6018 -2.6873
 1797Sol     HW10273   1.490   2.262   3.600  1.9209  2.1810  1.3288
 1797Sol     MW10274   1.569   2.224   3.579  0.0143 -0.7412 -0.1837
 1798Sol     OW10275   2.383   2.499   9.586  0.3414  0.3338  0.0627
 1798Sol     HW10276   2.471   2.499   9.547  0.7526  0.4231  0.9750
 1798Sol     HW10277   2.341   2.421   9.549  1.4976 -0.8135  1.1293
 1798Sol     MW10278   2.387   2.492   9.579 -0.1883 -0.6392 -0.8290
 1799Sol     OW10279   0.307   0.505   1.469  0.1925 -0.0097  0.2782
 1799Sol     HW10280   0.356   0.441   1.521  0.9672  0.5840  0.2989
 1799Sol     HW10281   0.256   0.554   1.534 -1.1230 -1.2091  0.1666
 1799Sol     MW10282   0.307   0.504   1.480 -0.1448 -0.3658  0.4919
 1800Sol     OW10283   2.207   2.660   4.261  0.4948  0.1542  0.0317
 1800Sol     HW10284   2.251   2.597   4.318  1.4508  0.8429  0.0557
 1800Sol     HW10285   2.230   2.632   4.172 -1.5006 -1.2942 -0.0756
 1800Sol     MW10286   2.213   2.651   4.258 -0.5958 -0.0064  0.0541
 1801Sol     OW10287   2.681   1.348   4.674  0.7411  0.1325  0.6065
 1801Sol     HW10288   2.721   1.408   4.736  0.7085  0.4027  0.3647
 1801Sol     HW10289   2.731   1.266   4.684  1.6510  0.6003 -0.0126
 1801Sol     MW10290   2.689   1.346   4.680  0.1807  0.2547  0.4878
 1802Sol     OW10291   1.169   1.986   4.244  0.4980  0.2005 -0.4269
 1802Sol     HW10292   1.213   2.010   4.325 -0.8112 -2.0875  1.0087
 1802Sol     HW10293   1.092   1.937   4.271 -0.7218  0.5588 -3.0221
 1802Sol     MW10294   1.166   1.983   4.253  0.4733 -0.4324 -0.6145
 1803Sol     OW10295   0.774   0.596   4.127 -0.2934 -0.6249  0.3113
 1803Sol     HW10296   0.826   0.673   4.101 -1.1705  0.1141  0.7169
 1803Sol     HW10297   0.788   0.533   4.056  0.6484 -0.1856  0.1066
 1803Sol     MW10298   0.780   0.597   4.118 -0.7818 -0.0617  0.2793
 1804Sol     OW10299   1.932   0.366   7.917 -0.2092  0.1462 -0.0934
 1804Sol     HW10300   1.962   0.415   7.994 -1.9066 -0.5656  1.0595
 1804Sol     HW10301   1.988   0.288   7.914 -2.2069 -1.4323  2.3331
 1804Sol     MW10302   1.940   0.364   7.924  0.2979 -0.0350 -0.4396
 1805Sol     OW10303   1.728   1.689   2.579 -0.2680 -0.2196  0.2756
 1805Sol     HW10304   1.754   1.600   2.556 -1.2053 -0.6392  0.8078
 1805Sol     HW10305   1.758   1.743   2.506 -0.3582 -1.0753 -0.3965
 1805Sol     MW10306   1.733   1.686   2.570  0.4354  0.1230 -0.2056
 1806Sol     OW10307   0.885   2.217   1.985  0.3872  0.0903  0.3086
 1806Sol     HW10308   0.881   2.313   1.987  1.1090  0.1135  1.3080
 1806Sol     HW10309   0.976   2.198   1.961  0.5663 -0.3442  1.3108
 1806Sol     MW10310   0.893   2.224   1.983  0.6150  0.0903 -0.1795
 1807Sol     OW10311   2.273   1.462   6.980 -0.2064 -0.1407  0.2566
 1807Sol     HW10312   2.187   1.419   6.978 -0.7609  0.9684 -0.8130
 1807Sol     HW10313   2.329   1.405   6.928 -1.1667  0.8409 -1.9416
 1807Sol     MW10314   2.270   1.453   6.975  0.2225 -0.2210 -0.1266
 1808Sol     OW10315   1.814   1.302   8.036 -0.0063  0.6209 -0.2909
 1808Sol     HW10316   1.852   1.214   8.034 -2.3671 -0.4372 -2.3017
 1808Sol     HW10317   1.801   1.320   8.129  3.4577  0.2175  0.3295
 1808Sol     MW10318   1.816   1.295   8.044 -0.2105  0.4675 -0.5928
 1809Sol     OW10319   3.011   2.940   2.037  0.1801 -0.3214 -0.3073
 1809Sol     HW10320   2.940   3.004   2.033 -0.0376 -0.4704  0.9764
 1809Sol     HW10321   2.995   2.892   2.118  1.0120 -1.2267 -0.6718
 1809Sol     MW10322   3.003   2.941   2.044 -0.8979  0.7976  0.0998
 1810Sol     OW10323   1.330   2.382   4.915  0.0703  0.1962  0.0756
 1810Sol     HW10324   1.415   2.423   4.931 -0.7928  2.2730 -0.5484
 1810Sol     HW10325   1.286   2.383   5.000  0.5983 -0.7641  0.3708
 1810Sol     MW10326   1.333   2.386   4.924 -0.3120  0.3586  0.4028
 1811Sol     OW10327   1.013   2.348   6.093  0.0374  0.4209 -0.0242
 1811Sol     HW10328   0.947   2.409   6.060 -0.7196 -0.4609 -0.1806
 1811Sol     HW10329   1.020   2.368   6.186  1.7535  2.5300 -0.5694
 1811Sol     MW10330   1.008   2.355   6.098 -0.1311  0.0207 -0.0828
 1812Sol     OW10331   2.006   1.436   9.588 -0.6725  0.1473  0.3514
 1812Sol     HW10332   2.092   1.472   9.610 -0.1315 -1.5488  1.0722
 1812Sol     HW10333   1.961   1.508   9.545  1.4550  0.7906 -0.9190
 1812Sol     MW10334   2.010   1.446   9.586 -0.4589 -0.8503 -0.4310
 1813Sol     OW10335   0.976   2.964   4.773  0.4298 -0.3049  0.2928
 1813Sol     HW10336   1.005   2.873   4.760  1.1898  0.1247 -1.0678
 1813Sol     HW10337   0.936   2.963   4.860  1.8283 -1.6149  0.9670
 1813Sol     MW10338   0.975   2.956   4.780  0.5317  0.0228 -0.2741
 1814Sol     OW10339   2.653   1.008   4.124  0.4975  0.3233  0.2640
 1814Sol     HW10340   2.742   1.039   4.139  0.5352  0.3738 -0.0443
 1814Sol     HW10341   2.662   0.914   4.111  0.1717 -0.1197  2.9435
 1814Sol     MW10342   2.661   1.002   4.124  0.0804 -0.3747  0.1000
 1815Sol     OW10343   1.664   0.256   9.431 -0.1201 -0.0377 -0.4379
 1815Sol     HW10344   1.704   0.192   9.490  0.1311 -0.0784 -0.6502
 1815Sol     HW10345   1.710   0.245   9.348  0.1555  0.6472 -0.3811
 1815Sol     MW10346   1.672   0.249   9.429  0.4348  0.1277  0.3741
 1816Sol     OW10347   0.331   2.926   4.612  0.0111  0.1283 -0.4122
 1816Sol     HW10348   0.310   2.839   4.580 -0.1666 -0.9171  2.3439
 1816Sol     HW10349   0.415   2.915   4.657 -1.8451  0.4085  3.3527
 1816Sol     MW10350   0.337   2.917   4.614  0.3214 -0.2785  0.0218
 1817Sol     OW10351   2.525   2.829   1.979  0.6203  0.5363 -0.1913
 1817Sol     HW10352   2.535   2.770   1.905  2.3714  1.6228 -0.8641
 1817Sol     HW10353   2.556   2.914   1.947 -1.3923  1.7222  0.8958
 1817Sol     MW10354   2.529   2.832   1.970 -0.7024 -0.0321 -0.2313
 1818Sol     OW10355   2.628   2.825   8.554 -0.1933  0.2753 -0.0580
 1818Sol     HW10356   2.562   2.809   8.622 -0.5348 -1.3245 -0.7459
 1818Sol     HW10357   2.702   2.862   8.602 -0.6469 -0.2722  1.1006
 1818Sol     MW10358   2.628   2.827   8.565  0.5242 -0.1210 -0.6541
 1819Sol     OW10359   1.097   2.520   8.502 -0.1940  0.4168 -0.0465
 1819Sol     HW10360   1.059   2.604   8.524 -0.2720  0.3630  0.0226
 1819Sol     HW10361   1.105   2.474   8.585  3.4178  1.8355  0.4805
 1819Sol     MW10362   1.095   2.523   8.511 -0.3206 -0.2234 -0.1325
 1820Sol     OW10363   1.908   3.105   3.778  0.1045  0.2460 -0.2626
 1820Sol     HW10364   1.833   3.157   3.807  0.5399  0.7852 -0.1111
 1820Sol     HW10365   1.950   3.158   3.711 -0.3990 -0.6289 -1.2902
 1820Sol     MW10366   1.905   3.114   3.775  0.2918  0.5260 -0.4018
 1821Sol     OW10367   1.960   1.242   5.737 -0.8833 -0.0260  0.0232
 1821Sol     HW10368   1.976   1.327   5.695 -0.5615 -0.0191  0.1636
 1821Sol     HW10369   2.021   1.182   5.695 -0.9012 -0.1248  0.1386
 1821Sol     MW10370   1.967   1.245   5.729  0.3345 -0.1464  0.7202
 1822Sol     OW10371   2.815   1.898   6.190 -0.1282  0.2447 -0.0260
 1822Sol     HW10372   2.806   1.891   6.285  1.0313  0.3388  0.0905
 1822Sol     HW10373   2.894   1.849   6.169 -0.2093  0.4760 -0.9188
 1822Sol     MW10374   2.821   1.893   6.196  0.0040 -0.0195 -0.3858
 1823Sol     OW10375   0.939   3.110   6.931 -0.2484 -0.2491 -0.2211
 1823Sol     HW10376   1.030   3.137   6.940 -0.4021  0.4367 -0.7393
 1823Sol     HW10377   0.892   3.189   6.905 -1.1808 -0.3421  1.0968
 1823Sol     MW10378   0.943   3.119   6.929  0.6170 -0.1894 -0.6659
 1824Sol     OW10379   2.394   0.110   2.461 -0.8359  0.6321  0.4625
 1824Sol     HW10380   2.376   0.187   2.514 -1.6740 -0.6673  2.1394
 1824Sol     HW10381   2.308   0.085   2.426 -0.3354  1.3087 -1.3134
 1824Sol     MW10382   2.385   0.114   2.462 -0.9756 -0.2247 -0.5161
 1825Sol     OW10383   1.660   0.917   7.350 -0.2516 -0.2567 -0.7353
 1825Sol     HW10384   1.742   0.966   7.350 -0.8855  0.8258 -1.2100
 1825Sol     HW10385   1.651   0.885   7.439 -0.3015  1.3093 -0.1596
 1825Sol     MW10386   1.666   0.919   7.358 -0.0050  0.3666  0.0984
 1826Sol     OW10387   2.138   2.252   7.241  0.0541  0.6085 -0.0183
 1826Sol     HW10388   2.208   2.283   7.299  1.4147 -0.3051 -1.1424
 1826Sol     HW10389   2.116   2.165   7.274 -0.6034  0.9128  0.3628
 1826Sol     MW10390   2.142   2.247   7.250 -0.0125  0.3159 -0.6812
 1827Sol     OW10391   0.399   2.244   9.535  0.1514 -0.4948 -0.2480
 1827Sol     HW10392   0.392   2.330   9.576 -1.6442 -1.3665  1.3402
 1827Sol     HW10393   0.322   2.239   9.477 -1.4386 -2.1840  1.9409
 1827Sol     MW10394   0.391   2.251   9.533  0.5198  0.7286  0.1769
 1828Sol     OW10395   2.991   1.183   7.234 -0.9070 -0.0835  0.3352
 1828Sol     HW10396   2.904   1.179   7.195  0.1655 -0.8343 -2.1080
 1828Sol     HW10397   3.024   1.270   7.210  0.0891 -0.8683 -1.2123
 1828Sol     MW10398   2.986   1.191   7.228 -0.2731 -0.8547  0.0754
 1829Sol     OW10399   1.952   0.396   8.590 -0.4184  0.0667 -0.5184
 1829Sol     HW10400   2.021   0.329   8.597 -0.9619 -0.3556  1.0440
 1829Sol     HW10401   2.000   0.478   8.582  0.2721 -0.3224 -0.4297
 1829Sol     MW10402   1.963   0.397   8.590 -0.1177 -0.3206 -0.3765
 1830Sol     OW10403   1.250   3.431   9.474  0.2243  0.2945 -0.0871
 1830Sol     HW10404   1.336   3.397   9.495  1.1364  2.4722 -0.1548
 1830Sol     HW10405   1.252   3.444   9.379 -0.6520 -0.8716 -0.2779
 1830Sol     MW10406   1.257   3.429   9.467 -0.0649  0.0268 -0.2542
 1831Sol     OW10407   0.302   1.393   2.965 -0.0401  0.0321 -0.1200
 1831Sol     HW10408   0.348   1.448   2.902  2.1055  2.1207  3.1352
 1831Sol     HW10409   0.362   1.322   2.984 -0.4907 -0.3454 -0.1009
 1831Sol     MW10410   0.311   1.392   2.961  0.2281  0.1716 -0.0875
 1832Sol     OW10411   2.445   2.476   2.379 -0.5632 -0.2581 -0.4703
 1832Sol     HW10412   2.492   2.542   2.327 -0.7094  0.8194  0.7347
 1832Sol     HW10413   2.506   2.454   2.449 -1.9059  1.3053  1.2279
 1832Sol     MW10414   2.455   2.480   2.380 -0.0946 -0.1463  0.2897
 1833Sol     OW10415   0.235   0.808   5.214  0.1793 -0.0339 -0.1789
 1833Sol     HW10416   0.316   0.780   5.170  0.6657  0.3344  0.4755
 1833Sol     HW10417   0.229   0.753   5.292  0.4965  0.8259  0.4657
 1833Sol     MW10418   0.242   0.801   5.217 -0.1461 -0.0585  0.3296
 1834Sol     OW10419   2.075   3.095   7.403 -0.1276  0.3171 -0.5841
 1834Sol     HW10420   2.037   3.007   7.407  0.0814  0.3314  2.2187
 1834Sol     HW10421   2.009   3.152   7.442  1.6913  0.7006  2.0026
 1834Sol     MW10422   2.066   3.092   7.407  0.4526  0.2772  0.4003
 1835Sol     OW10423   1.766   3.311   5.468 -0.3877 -0.0241  0.3457
 1835Sol     HW10424   1.772   3.343   5.378  0.7211 -0.3558  0.2944
 1835Sol     HW10425   1.689   3.254   5.469  0.3266 -1.0196 -0.7044
 1835Sol     MW10426   1.760   3.309   5.460 -0.6239 -0.0463  0.2657
 1836Sol     OW10427   0.685   3.448   6.056  0.0700 -0.1840 -0.3448
 1836Sol     HW10428   0.755   3.382   6.049 -0.7566 -1.2313  1.1777
 1836Sol     HW10429   0.604   3.398   6.045 -0.5349  0.7218  0.0020
 1836Sol     MW10430   0.684   3.437   6.054  0.6661 -0.2654  0.4626
 1837Sol     OW10431   0.004   0.957   1.753  0.2523  0.2494  0.5852
 1837Sol     HW10432   0.096   0.956   1.780  0.0179 -0.2363  1.3906
 1837Sol     HW10433   0.005   1.002   1.668  1.1334  0.9256  0.9346
 1837Sol     MW10434   0.013   0.961   1.748 -0.2557  0.6230  0.3172
 1838Sol     OW10435   2.093   2.354   6.341 -0.0228 -0.3730 -0.1302
 1838Sol     HW10436   2.042   2.395   6.410 -0.1914  1.1269 -1.1245
 1838Sol     HW10437   2.040   2.364   6.262  1.5229  0.7250 -1.0820
 1838Sol     MW10438   2.084   2.358   6.340 -0.0972 -0.1283 -0.1409
 1839Sol     OW10439   1.241   0.756   7.167  0.4448 -0.2257  0.0035
 1839Sol     HW10440   1.206   0.739   7.255  0.8389 -2.1952 -0.2094
 1839Sol     HW10441   1.333   0.779   7.182  0.4556 -0.3425  0.1146
 1839Sol     MW10442   1.246   0.757   7.177  0.4817 -0.2995 -0.0730
 1840Sol     OW10443   0.993   0.632   5.507  0.3091 -0.0593 -0.4054
 1840Sol     HW10444   0.900   0.610   5.515  0.7203 -1.4340  0.9618
 1840Sol     HW10445   1.009   0.696   5.577  0.4347  0.0125 -0.4991
 1840Sol     MW10446   0.986   0.636   5.514  0.3847  0.7530 -0.9822
 1841Sol     OW10447   2.146   1.724   7.140 -0.3544  0.1759 -0.0335
 1841Sol     HW10448   2.063   1.680   7.161 -1.3259  1.8223 -0.3004
 1841Sol     HW10449   2.213   1.666   7.174 -1.6561 -0.8431  0.8555
 1841Sol     MW10450   2.144   1.715   7.145 -0.0526 -0.1013  0.2687
 1842Sol     OW10451   0.727   1.781   2.816  0.2141  0.3689  0.3827
 1842Sol     HW10452   0.649   1.741   2.855  0.7606  1.2898  2.4985
 1842Sol     HW10453   0.732   1.743   2.728 -0.8025 -2.1611  1.3505
 1842Sol     MW10454   0.721   1.774   2.812 -0.1932  0.0784  0.3014
 1843Sol     OW10455   2.080   1.932   7.321  0.4082 -0.1619 -0.1373
 1843Sol     HW10456   2.099   1.884   7.241 -1.5446  0.4958 -1.0411
 1843Sol     HW10457   2.077   1.865   7.390 -0.4405 -1.1030 -1.0667
 1843Sol     MW10458   2.081   1.922   7.320  1.1675 -0.6357  0.1900
 1844Sol     OW10459   2.238   1.759   4.617 -0.1358  0.3067  0.2613
 1844Sol     HW10460   2.215   1.739   4.707 -1.5056  2.4496  0.4201
 1844Sol     HW10461   2.161   1.734   4.566  1.2864 -2.6096 -0.6113
 1844Sol     MW10462   2.229   1.755   4.620 -0.5399  0.2389 -0.3978
 1845Sol     OW10463   1.052   1.180   1.862  0.0971 -0.1655 -0.2027
 1845Sol     HW10464   1.068   1.240   1.789 -1.5764  0.7083  0.1125
 1845Sol     HW10465   1.135   1.177   1.910  0.7294  0.5108 -1.2380
 1845Sol     MW10466   1.061   1.185   1.860 -0.1166 -0.5658  0.4331
 1846Sol     OW10467   2.792   0.640   6.311 -0.1500  0.7084  0.1136
 1846Sol     HW10468   2.745   0.610   6.389 -0.9154  0.3685 -0.4687
 1846Sol     HW10469   2.732   0.702   6.269 -0.3440 -0.1875 -0.9617
 1846Sol     MW10470   2.782   0.643   6.314 -0.0011  0.3330  0.4884
 1847Sol     OW10471   2.482   2.200   6.537  0.3819 -0.2991 -0.0993
 1847Sol     HW10472   2.414   2.239   6.592 -0.9330 -3.0517  0.3031
 1847Sol     HW10473   2.561   2.201   6.591  0.3768  1.7495 -0.0979
 1847Sol     MW10474   2.483   2.203   6.547 -0.1406 -0.7047  0.2084
 1848Sol     OW10475   0.333   2.370   3.578 -0.0666  0.2420 -0.3691
 1848Sol     HW10476   0.263   2.434   3.593  1.3326  1.8770 -0.6793
 1848Sol     HW10477   0.344   2.368   3.483  0.1551 -0.1833 -0.3331
 1848Sol     MW10478   0.328   2.375   3.571 -0.4674  0.2843  0.2793
 1849Sol     OW10479   2.122   0.512   9.561 -0.2083  0.7031 -0.1806
 1849Sol     HW10480   2.180   0.530   9.487  0.4725 -2.1581 -0.3766
 1849Sol     HW10481   2.034   0.528   9.527  0.2305  1.4068 -0.9882
 1849Sol     MW10482   2.119   0.515   9.551  0.1697 -0.4011  0.3213
 1850Sol     OW10483   2.024   2.353   1.967  0.2317 -0.1448  0.5861
 1850Sol     HW10484   1.940   2.391   1.991 -0.7429 -2.9243  1.8084
 1850Sol     HW10485   2.084   2.382   2.036  0.5269  2.5613 -0.7670
 1850Sol     MW10486   2.022   2.359   1.976 -1.2064 -0.2966 -0.0071
 1851Sol     OW10487   0.238   0.562   6.337 -0.5961 -0.0281  0.5014
 1851Sol     HW10488   0.294   0.564   6.260  0.8637 -1.8696  1.4375
 1851Sol     HW10489   0.202   0.650   6.345 -0.5475  0.2443 -2.0932
 1851Sol     MW10490   0.240   0.570   6.331 -0.1647 -0.2131  0.2472
 1852Sol     OW10491   1.236   2.297   2.244 -0.0380  0.1659  0.7133
 1852Sol     HW10492   1.223   2.285   2.150 -0.9636 -1.9289  1.0963
 1852Sol     HW10493   1.157   2.345   2.272  0.5287  1.3498  0.3444
 1852Sol     MW10494   1.227   2.300   2.238  0.8169  0.2239  0.5027
 1853Sol     OW10495   2.320   1.575   5.865 -0.1881 -0.5965 -1.1128
 1853Sol     HW10496   2.393   1.636   5.860 -0.7788  0.0731 -1.6415
 1853Sol     HW10497   2.330   1.532   5.950  0.9186 -0.6449 -1.2552
 1853Sol     MW10498   2.328   1.576   5.872  0.1802 -0.7079 -0.1966
 1854Sol     OW10499   1.922   2.052   8.926 -0.5007  0.5319 -0.1977
 1854Sol     HW10500   1.916   1.975   8.982  0.5647  0.4910 -0.1292
 1854Sol     HW10501   1.931   2.126   8.986  1.7681  0.3806 -0.3063
 1854Sol     MW10502   1.923   2.052   8.936  0.2579  0.2061 -0.3334
 1855Sol     OW10503   1.945   1.732   7.858 -0.7700 -0.1514 -0.3218
 1855Sol     HW10504   1.913   1.648   7.825 -1.3120 -0.5027  1.0191
 1855Sol     HW10505   1.933   1.725   7.953  0.5492  0.8786 -0.0693
 1855Sol     MW10506   1.941   1.724   7.864  0.3865  0.6869  0.2850
 1856Sol     OW10507   2.137   1.501   3.110 -0.4504 -0.2104 -0.1711
 1856Sol     HW10508   2.131   1.418   3.062  1.1409 -0.8583  0.7150
 1856Sol     HW10509   2.056   1.504   3.161 -0.4692 -1.2950 -0.1204
 1856Sol     MW10510   2.129   1.494   3.111 -0.7625  0.0545 -0.0664
 1857Sol     OW10511   1.276   2.980   1.684 -0.3658  0.0023 -0.1906
 1857Sol     HW10512   1.236   2.968   1.598  0.8238  0.0989 -0.7669
 1857Sol     HW10513   1.370   2.978   1.668 -0.1048 -1.2166  1.2777
 1857Sol     MW10514   1.280   2.979   1.675 -0.3764  0.4340 -0.2400
 1858Sol     OW10515   2.952   0.056   6.928 -0.5912 -0.5180 -0.0217
 1858Sol     HW10516   2.989   0.128   6.878  0.8647 -1.8780 -0.9298
 1858Sol     HW10517   2.859   0.079   6.938 -0.0720  1.6244 -0.0044
 1858Sol     MW10518   2.947   0.064   6.924  0.3895  0.2083 -0.5397
 1859Sol     OW10519   0.218   0.519   3.862 -0.3473  0.4628 -0.2359
 1859Sol     HW10520   0.170   0.439   3.886 -3.0018  1.8782 -0.6140
 1859Sol     HW10521   0.243   0.557   3.946  1.1586 -0.8588 -0.0559
 1859Sol     MW10522   0.216   0.515   3.872 -0.4583 -0.2734  0.1688
 1860Sol     OW10523   2.659   2.642   7.536 -0.2159  0.1051 -0.0085
 1860Sol     HW10524   2.620   2.720   7.576  0.7114  1.6579 -2.0354
 1860Sol     HW10525   2.753   2.659   7.536 -0.2087  0.4147 -3.2237
 1860Sol     MW10526   2.664   2.650   7.540  0.1393 -0.6176 -0.1234
 1861Sol     OW10527   3.022   2.506   3.882 -0.0092 -0.1740 -0.2762
 1861Sol     HW10528   2.974   2.521   3.964  0.0115  0.6637 -0.4150
 1861Sol     HW10529   3.084   2.579   3.876  0.2852 -0.4630 -0.8263
 1861Sol     MW10530   3.023   2.514   3.889 -0.0073  0.1868  0.3113
 1862Sol     OW10531   0.181   1.010   3.651  0.3940  0.6474  0.2171
 1862Sol     HW10532   0.247   0.941   3.655 -0.1646  0.1200  0.4127
 1862Sol     HW10533   0.115   0.984   3.715 -1.0456  0.0839 -1.4794
 1862Sol     MW10534   0.181   1.002   3.657  0.1694 -0.1578  0.2289
 1863Sol     OW10535   0.814   2.105   5.819 -0.2917 -0.3644 -0.0087
 1863Sol     HW10536   0.834   2.096   5.912 -0.5124  1.7514  0.2646
 1863Sol     HW10537   0.847   2.191   5.795  2.2777 -1.9485 -2.5745
 1863Sol     MW10538   0.819   2.112   5.825  0.1488 -0.0427 -0.3382
 1864Sol     OW10539   2.272   2.550   3.998 -0.4380 -0.3761 -0.4909
 1864Sol     HW10540   2.310   2.488   3.936  1.3213  0.7506 -0.5763
 1864Sol     HW10541   2.179   2.552   3.976 -0.6661 -3.4400 -0.0743
 1864Sol     MW10542   2.267   2.545   3.991  0.3933  0.9931  0.4040
 1865Sol     OW10543   2.476   2.021   4.071  0.7808 -0.0739 -0.0217
 1865Sol     HW10544   2.416   2.096   4.078  0.4505 -0.4021  0.7848
 1865Sol     HW10545   2.561   2.061   4.049  0.4527  0.4751 -0.3028
 1865Sol     MW10546   2.478   2.032   4.070  0.3177  0.0296  0.5148
 1866Sol     OW10547   1.151   0.570   6.968 -0.4138  0.1066  0.8238
 1866Sol     HW10548   1.160   0.624   7.046 -2.0824  0.4039  0.8327
 1866Sol     HW10549   1.236   0.527   6.958  0.4621  1.5887  1.6601
 1866Sol     MW10550   1.159   0.571   6.974 -0.3716  0.2622 -0.6503
 1867Sol     OW10551   0.122   2.675   5.668 -0.2771 -0.4124 -0.2924
 1867Sol     HW10552   0.165   2.760   5.670 -2.0168  0.4934  1.3261
 1867Sol     HW10553   0.073   2.675   5.586  0.3048 -0.1391 -0.6391
 1867Sol     MW10554   0.121   2.683   5.661 -0.3633 -0.0459 -0.2002
 1868Sol     OW10555   3.154   0.868   6.769  0.4554 -0.3424  0.2293
 1868Sol     HW10556   3.192   0.917   6.841  0.0318  0.2421  0.0624
 1868Sol     HW10557   3.141   0.780   6.804  0.0333 -0.0016  0.9443
 1868Sol     MW10558   3.156   0.865   6.779  0.6464  0.0711  0.7762
 1869Sol     OW10559   2.612   0.464   6.927  0.2189 -0.0935 -0.1458
 1869Sol     HW10560   2.633   0.462   7.020 -0.0464 -0.9260 -0.0965
 1869Sol     HW10561   2.612   0.557   6.904  0.3789  0.1098  0.6601
 1869Sol     MW10562   2.614   0.472   6.933  0.0018  0.2306  0.3029
 1870Sol     OW10563   0.664   1.290   3.851  0.0998 -0.0905 -0.2033
 1870Sol     HW10564   0.716   1.362   3.887  0.2183 -0.0088 -0.5372
 1870Sol     HW10565   0.627   1.247   3.928  1.4869 -0.7865  0.0944
 1870Sol     MW10566   0.665   1.293   3.861  0.3697  0.2996 -0.5845
 1871Sol     OW10567   1.550   0.275   5.266  0.3677  0.2600 -0.2083
 1871Sol     HW10568   1.480   0.337   5.287  0.6966  1.0855 -1.5526
 1871Sol     HW10569   1.625   0.305   5.317  0.7254  1.3825 -1.3793
 1871Sol     MW10570   1.551   0.283   5.273 -0.1631 -0.2080  0.0544
 1872Sol     OW10571   2.442   1.013   8.692 -0.1280 -0.2755  0.0106
 1872Sol     HW10572   2.469   1.092   8.738  0.8256 -0.0363 -0.9365
 1872Sol     HW10573   2.484   1.020   8.606 -0.3856 -1.6053 -0.2339
 1872Sol     MW10574   2.448   1.021   8.688 -0.6706 -0.6909 -0.5146
 1873Sol     OW10575   2.045   1.343   7.008 -0.2206  0.1670  0.2149
 1873Sol     HW10576   1.969   1.323   6.954 -0.4547  0.8190  0.3116
 1873Sol     HW10577   2.054   1.267   7.065  0.3441 -0.7749 -1.0954
 1873Sol     MW10578   2.039   1.334   7.008  0.3375  0.0011 -0.2745
 1874Sol     OW10579   1.155   2.922   8.571  0.0774  0.8025 -0.1614
 1874Sol     HW10580   1.230   2.943   8.514  0.7098  0.7820  0.6621
 1874Sol     HW10581   1.110   3.005   8.584 -0.9688  0.5553 -1.9439
 1874Sol     MW10582   1.158   2.931   8.567  0.9289  0.5264  0.4552
 1875Sol     OW10583   2.672   3.302   3.002 -0.3081 -0.2301 -0.8337
 1875Sol     HW10584   2.732   3.247   2.953  2.1296  1.7886 -0.2514
 1875Sol     HW10585   2.709   3.306   3.090 -1.6978  0.4685 -0.2567
 1875Sol     MW10586   2.681   3.298   3.006 -0.3884  0.3777 -0.4558
 1876Sol     OW10587   3.322   2.146   3.683  0.1652  0.2031 -0.0765
 1876Sol     HW10588   3.323   2.215   3.750 -3.7451 -0.4552  0.7670
 1876Sol     HW10589   3.259   2.177   3.619 -2.5780 -3.1034  0.9307
 1876Sol     MW10590   3.317   2.155   3.683  0.0207  0.3975 -0.0865
 1877Sol     OW10591   2.114   2.849   6.866  0.1711 -0.2368 -0.8640
 1877Sol     HW10592   2.043   2.785   6.872 -0.1349  0.1250 -0.5345
 1877Sol     HW10593   2.099   2.907   6.941  0.4574  0.2024 -1.1471
 1877Sol     MW10594   2.106   2.849   6.873 -0.4012  0.3168 -0.1348
 1878Sol     OW10595   0.040   2.481   5.458 -0.1499  0.4096 -0.1709
 1878Sol     HW10596   0.009   2.421   5.526 -0.8195  2.1779  1.1222
 1878Sol     HW10597   0.133   2.493   5.477 -0.9924  3.4479  2.5109
 1878Sol     MW10598   0.045   2.476   5.466  0.3013 -0.2394 -0.4272
 1879Sol     OW10599   1.409   2.874   5.612  0.2230  0.6525 -0.5440
 1879Sol     HW10600   1.374   2.785   5.617 -0.5076  0.9737  0.0928
 1879Sol     HW10601   1.477   2.869   5.544 -0.2926 -0.2307 -1.0068
 1879Sol     MW10602   1.412   2.866   5.606  0.0743 -0.3211 -0.1429
 1880Sol     OW10603   0.852   0.714   5.176  0.3972 -0.4231  0.6203
 1880Sol     HW10604   0.900   0.640   5.214  0.7017 -1.2042 -1.2127
 1880Sol     HW10605   0.760   0.695   5.195  0.5679 -0.6228  1.2553
 1880Sol     MW10606   0.848   0.705   5.181 -0.0845  0.1560  0.2131
 1881Sol     OW10607   1.854   1.086   8.507  0.4193  0.3200 -0.2592
 1881Sol     HW10608   1.792   1.037   8.560  0.1429  1.6024  0.6418
 1881Sol     HW10609   1.922   1.022   8.484 -0.0965 -0.5555  0.6050
 1881Sol     MW10610   1.855   1.076   8.510  0.1452 -0.3402 -0.1585
 1882Sol     OW10611   1.839   0.334   3.015 -0.0209  0.2917  0.1313
 1882Sol     HW10612   1.824   0.328   3.109 -0.7885  1.3931  0.0746
 1882Sol     HW10613   1.927   0.372   3.007 -0.1899  0.7387  0.3964
 1882Sol     MW10614   1.846   0.337   3.022  0.1202 -0.2580  0.2074
 1883Sol     OW10615   0.425   0.231   3.621  0.7266  0.1765  0.0979
 1883Sol     HW10616   0.408   0.208   3.712  0.6691  1.8316  0.5325
 1883Sol     HW10617   0.383   0.162   3.570 -0.9636  0.2807  1.3109
 1883Sol     MW10618   0.419   0.223   3.624  0.1930 -0.0611 -0.9018
 1884Sol     OW10619   1.964   0.307   5.286  0.3053  0.1504  0.0502
 1884Sol     HW10620   2.030   0.239   5.273 -1.1581 -1.2949 -0.0523
 1884Sol     HW10621   1.930   0.324   5.198  0.2518  0.5931  0.1554
 1884Sol     MW10622   1.967   0.302   5.277  0.7012  0.2078  0.1252
 1885Sol     OW10623   2.908   1.211   7.482  0.2976  0.3173 -0.0533
 1885Sol     HW10624   2.929   1.197   7.390  0.2106  1.3279 -0.2372
 1885Sol     HW10625   2.886   1.304   7.488 -1.0227 -0.0232  0.7358
 1885Sol     MW10626   2.908   1.218   7.475 -0.4331  0.4611 -0.3691
 1886Sol     OW10627   3.184   1.474   8.483 -0.7177  0.4835  0.6356
 1886Sol     HW10628   3.134   1.455   8.404 -1.4056  0.5066  1.0514
 1886Sol     HW10629   3.257   1.412   8.482  0.0949  1.4502 -0.7374
 1886Sol     MW10630   3.186   1.467   8.476  0.2650  0.1939 -0.2540
 1887Sol     OW10631   1.467   3.027   9.988  0.0236 -0.1675 -0.3636
 1887Sol     HW10632   1.520   3.099  10.024  0.0965 -0.4826  0.1662
 1887Sol     HW10633   1.443   3.057   9.901 -0.3621  0.7117  0.0382
 1887Sol     MW10634   1.470   3.036   9.984 -0.4386 -0.4440  0.3119
 1888Sol     OW10635   2.241   2.008   7.522  0.3607  0.6945  0.0482
 1888Sol     HW10636   2.206   2.000   7.434 -0.3709  2.7286  0.1235
 1888Sol     HW10637   2.270   2.099   7.529  0.1953  0.6358  1.9580
 1888Sol     MW10638   2.240   2.016   7.515 -0.4830  0.2313  0.6558
 1889Sol     OW10639   0.316   1.281   6.477 -0.0632  0.0652  0.3064
 1889Sol     HW10640   0.257   1.236   6.538 -1.0386  0.8937 -0.0173
 1889Sol     HW10641   0.258   1.327   6.416  0.9070 -0.3082 -0.9211
 1889Sol     MW10642   0.305   1.281   6.477  0.0642  0.0865 -0.2213
 1890Sol     OW10643   1.931   1.448   1.538  0.3244  0.0367 -0.1598
 1890Sol     HW10644   1.985   1.396   1.597 -0.8001 -0.8804  0.0895
 1890Sol     HW10645   1.874   1.499   1.595 -2.7394 -2.9479 -0.3796
 1890Sol     MW10646   1.931   1.448   1.548 -0.4681  0.0999  0.2716
 1891Sol     OW10647   2.975   1.693   5.490  0.0216  0.1138  0.5949
 1891Sol     HW10648   2.983   1.597   5.491  0.6203  0.1557 -0.1847
 1891Sol     HW10649   2.885   1.709   5.462  0.3019 -0.2053 -0.5036
 1891Sol     MW10650   2.968   1.686   5.488  0.6320  0.2706  0.2056
 1892Sol     OW10651   3.221   0.175   8.725  0.1163 -0.0355  0.1947
 1892Sol     HW10652   3.138   0.172   8.678  0.3604  1.3014 -0.3412
 1892Sol     HW10653   3.274   0.237   8.677  1.2681 -0.5167  0.8164
 1892Sol     MW10654   3.218   0.180   8.717  0.3884  0.3768  0.1065
 1893Sol     OW10655   1.969   2.135   5.463  0.1757 -0.5767  0.3102
 1893Sol     HW10656   2.017   2.166   5.387 -1.9897 -0.3539 -1.0173
 1893Sol     HW10657   1.958   2.041   5.447  0.8472 -0.7731  0.9925
 1893Sol     MW10658   1.972   2.129   5.455  1.1489  0.3099  0.7299
 1894Sol     OW10659   0.385   3.201   3.627 -0.0727 -0.1402 -0.1792
 1894Sol     HW10660   0.345   3.250   3.699 -0.5117  0.2599 -0.6979
 1894Sol     HW10661   0.314   3.187   3.565  0.5898  0.5649 -1.1028
 1894Sol     MW10662   0.375   3.204   3.628 -0.2839 -1.1997  0.0195
 1895Sol     OW10663   0.629   0.995   2.398 -0.4330 -0.4152  0.2536
 1895Sol     HW10664   0.541   0.967   2.373 -0.9302  2.7182 -1.7261
 1895Sol     HW10665   0.685   0.965   2.326 -0.1021 -0.9589  0.7256
 1895Sol     MW10666   0.626   0.990   2.389  0.1549  0.3937 -0.3935
 1896Sol     OW10667   0.934   1.326   7.939 -0.3522  0.3869  0.0052
 1896Sol     HW10668   0.884   1.288   8.011  0.2749 -1.4509 -0.4810
 1896Sol     HW10669   0.888   1.407   7.917 -2.1540 -0.4271  0.6609
 1896Sol     MW10670   0.925   1.330   7.943  0.3771  0.4110 -0.1150
 1897Sol     OW10671   1.713   3.120   9.279 -0.3648  0.5305 -0.4704
 1897Sol     HW10672   1.801   3.123   9.315 -0.4810 -0.2161 -0.1068
 1897Sol     HW10673   1.707   3.035   9.236 -1.0622  0.3785 -0.0798
 1897Sol     MW10674   1.720   3.113   9.279  0.0207 -0.4880  0.4374
 1898Sol     OW10675   1.641   1.164   9.536 -0.5187 -0.4628  0.0646
 1898Sol     HW10676   1.549   1.188   9.522 -0.4391  0.5042  1.0621
 1898Sol     HW10677   1.659   1.191   9.626  0.2146 -2.3895  0.5054
 1898Sol     MW10678   1.634   1.169   9.543  0.5136  0.5088 -0.3901
 1899Sol     OW10679   1.251   0.623   5.889  0.1361 -0.1101  0.4984
 1899Sol     HW10680   1.200   0.650   5.966  1.9130 -1.4134  2.1605
 1899Sol     HW10681   1.300   0.702   5.865 -0.6916  0.4045  0.4625
 1899Sol     MW10682   1.251   0.633   5.894  0.2477  0.0860 -0.0266
 1900Sol     OW10683   1.325   2.391   9.432 -0.2541  0.3428  0.2207
 1900Sol     HW10684   1.347   2.396   9.339  0.8270  0.9974  0.4998
 1900Sol     HW10685   1.379   2.320   9.466 -1.9533 -1.0733  0.0008
 1900Sol     MW10686   1.332   2.385   9.427 -0.6939  0.2671 -0.9407
 1901Sol     OW10687   2.223   0.947   2.598 -0.2802  0.7407  0.2170
 1901Sol     HW10688   2.130   0.937   2.578 -0.0190 -0.2112 -0.5525
 1901Sol     HW10689   2.259   0.996   2.524 -0.0997  0.8236  0.3573
 1901Sol     MW10690   2.218   0.950   2.589  0.3743 -0.3454  0.6692
 1902Sol     OW10691   1.716   2.006   1.793  0.2812  0.3858 -0.3594
 1902Sol     HW10692   1.753   1.938   1.736  1.4248  0.1080  0.7023
 1902Sol     HW10693   1.650   1.959   1.844  1.1360  0.0497  0.4395
 1902Sol     MW10694   1.713   1.995   1.792  0.1878  0.4073  0.4123
 1903Sol     OW10695   2.625   0.704   9.393 -0.4970  0.3449 -0.0115
 1903Sol     HW10696   2.677   0.641   9.442 -0.7451  0.3191  0.2199
 1903Sol     HW10697   2.616   0.779   9.452  0.4727  0.9284 -0.5806
 1903Sol     MW10698   2.629   0.705   9.402  0.7215  0.2351 -0.1982
 1904Sol     OW10699   0.508   1.675   3.311 -0.1194  0.0182 -0.1170
 1904Sol     HW10700   0.553   1.634   3.237 -0.2342 -1.0546  0.4026
 1904Sol     HW10701   0.556   1.646   3.388 -2.5987 -2.4593  0.6004
 1904Sol     MW10702   0.516   1.669   3.311 -0.5038 -0.1579 -0.8573
 1905Sol     OW10703   1.206   0.037   4.231  0.0143 -0.0747 -0.2543
 1905Sol     HW10704   1.161  -0.023   4.290 -0.2063 -0.2068 -0.5528
 1905Sol     HW10705   1.171   0.123   4.252  0.6465  0.0113  0.4715
 1905Sol     MW10706   1.199   0.039   4.238  0.2197  0.2647 -0.2236
 1906Sol     OW10707   2.450   0.874   2.803  0.8159  0.2421 -0.7138
 1906Sol     HW10708   2.370   0.912   2.840 -0.0185 -0.7677 -1.4721
 1906Sol     HW10709   2.517   0.892   2.869  0.7215  4.1106 -1.5649
 1906Sol     MW10710   2.449   0.879   2.812 -0.4560 -0.0740 -0.5166
 1907Sol     OW10711   0.383   1.505   6.231 -0.0181 -0.0117 -0.0021
 1907Sol     HW10712   0.470   1.481   6.201 -0.7324 -0.8397 -1.4530
 1907Sol     HW10713   0.398   1.571   6.299  1.7226 -0.1012 -0.2903
 1907Sol     MW10714   0.392   1.509   6.235 -0.2672  0.2013  0.1560
 1908Sol     OW10715   1.982   1.638   9.417 -0.2089  0.4282  0.7324
 1908Sol     HW10716   2.016   1.625   9.329  0.3740 -1.2682  1.1775
 1908Sol     HW10717   1.966   1.732   9.424 -0.8230  0.4852 -1.3686
 1908Sol     MW10718   1.984   1.645   9.410 -0.6280 -0.2777  0.0161
 1909Sol     OW10719   2.611   1.037   8.464  0.1143  0.2004  0.0738
 1909Sol     HW10720   2.638   0.946   8.477 -0.1900  0.2393  1.0737
 1909Sol     HW10721   2.681   1.076   8.412  0.6969 -0.3737  0.4171
 1909Sol     MW10722   2.619   1.032   8.461 -0.1587  0.2217 -0.2566
 1910Sol     OW10723   1.246   2.916   8.877 -0.0038 -0.1367  0.3425
 1910Sol     HW10724   1.245   2.919   8.781  0.3916  1.5374  0.3696
 1910Sol     HW10725   1.154   2.926   8.902 -0.2453 -1.7569  0.1190
 1910Sol     MW10726   1.238   2.917   8.870  0.0609 -0.5192 -0.4303
 1911Sol     OW10727   0.001   2.571   8.743 -0.0397  0.0391 -0.1000
 1911Sol     HW10728   0.068   2.553   8.677 -0.3551  1.0346 -0.7195
 1911Sol     HW10729   0.050   2.586   8.824  0.4162 -0.2606 -0.3171
 1911Sol     MW10730   0.012   2.571   8.744 -0.0447  0.1203  0.1611
 1912Sol     OW10731   1.600   1.965   3.062  0.0493  0.1135  0.2447
 1912Sol     HW10732   1.564   2.053   3.073  1.4072  0.8033 -0.7104
 1912Sol     HW10733   1.637   1.965   2.974  1.6510 -0.8232  0.8911
 1912Sol     MW10734   1.600   1.973   3.055  0.5227 -0.2999  0.6011
 1913Sol     OW10735   3.224   0.702   9.868  1.2480  0.6098 -0.6712
 1913Sol     HW10736   3.220   0.781   9.922  1.4011  0.8467 -1.0024
 1913Sol     HW10737   3.139   0.660   9.879  1.6126  0.1434  0.5232
 1913Sol     MW10738   3.216   0.705   9.874  0.4278  0.1479  0.4182
 1914Sol     OW10739   1.561   2.997   4.586  0.4917  0.3616  0.1300
 1914Sol     HW10740   1.521   3.018   4.501  0.0730  0.4510  0.3500
 1914Sol     HW10741   1.630   2.935   4.565  0.8688  0.9463 -0.3716
 1914Sol     MW10742   1.563   2.994   4.576 -0.0483  0.2335  0.9307
 1915Sol     OW10743   3.267   2.716   7.274  0.2978  0.1695  0.0899
 1915Sol     HW10744   3.186   2.742   7.231  0.2935  0.7708  0.4589
 1915Sol     HW10745   3.268   2.765   7.357  1.3366  0.6507 -0.1980
 1915Sol     MW10746   3.260   2.723   7.278  0.6062 -0.1389  0.6312
 1916Sol     OW10747   2.591   2.261   2.224 -0.7441 -0.3102  0.6675
 1916Sol     HW10748   2.576   2.296   2.137  1.1043  0.3953  0.6109
 1916Sol     HW10749   2.650   2.325   2.266  0.3278 -1.8689  1.5801
 1916Sol     MW10750   2.595   2.270   2.220  1.3183  0.1313 -0.3725
 1917Sol     OW10751   0.553   0.583   2.811 -0.1343 -0.1394 -0.0063
 1917Sol     HW10752   0.491   0.612   2.745 -0.4183 -0.0146  0.3120
 1917Sol     HW10753   0.628   0.550   2.761 -1.1949 -1.9874 -0.4554
 1917Sol     MW10754   0.554   0.582   2.801  0.7580 -0.0551 -0.3713
 1918Sol     OW10755   0.619   0.901   9.330 -0.4408  0.3042 -0.4536
 1918Sol     HW10756   0.553   0.926   9.265  0.2666 -0.2029 -1.3804
 1918Sol     HW10757   0.652   0.816   9.300 -0.2179 -0.0102  0.6620
 1918Sol     MW10758   0.616   0.896   9.322 -0.2015  0.5144 -0.2824
 1919Sol     OW10759   2.110   1.011   9.687 -0.4943  1.1995 -0.0122
 1919Sol     HW10760   2.061   1.076   9.737 -0.4655  0.5585  0.8551
 1919Sol     HW10761   2.045   0.944   9.665 -0.4789  1.4143 -0.7240
 1919Sol     MW10762   2.100   1.011   9.689 -0.7520 -0.3090  0.0682
 1920Sol     OW10763   2.737   1.635   5.836 -0.2353  0.0571 -0.5450
 1920Sol     HW10764   2.669   1.696   5.810 -0.6815 -0.2212 -0.0465
 1920Sol     HW10765   2.753   1.582   5.759 -1.2287 -0.4758 -0.3894
 1920Sol     MW10766   2.733   1.636   5.827 -0.1845 -0.3074 -0.2388
 1921Sol     OW10767   3.315   0.488   7.580  0.3726  0.2075  0.2398
 1921Sol     HW10768   3.386   0.443   7.625 -0.0831 -1.6925 -0.8819
 1921Sol     HW10769   3.235   0.451   7.618 -0.0100 -0.3399 -1.0651
 1921Sol     MW10770   3.314   0.480   7.587 -0.4796  0.1978  0.0318
 1922Sol     OW10771   0.672   2.649   8.962  0.0867 -0.1701 -0.3383
 1922Sol     HW10772   0.645   2.570   9.008 -0.7283 -0.1713 -0.8067
 1922Sol     HW10773   0.671   2.717   9.029 -1.6611 -0.0541 -0.4590
 1922Sol     MW10774   0.670   2.648   8.972  0.7142 -0.1375 -0.0741
 1923Sol     OW10775   0.277   0.336   4.995  0.1418  0.0130  0.0158
 1923Sol     HW10776   0.278   0.240   4.991 -1.8065 -0.2080  2.9926
 1923Sol     HW10777   0.229   0.362   4.917 -1.2865 -1.5842  0.3189
 1923Sol     MW10778   0.272   0.330   4.988 -0.2697 -0.0181 -0.2522
 1924Sol     OW10779   1.603   0.200   2.353  0.4752 -0.6952 -0.3610
 1924Sol     HW10780   1.564   0.248   2.426 -1.8028  0.3121 -2.1416
 1924Sol     HW10781   1.560   0.238   2.275  2.4173 -2.1055 -2.1576
 1924Sol     MW10782   1.595   0.208   2.352 -0.0128 -0.0387  0.2433
 1925Sol     OW10783   1.369   1.647   2.343 -0.0791  0.2299  0.3143
 1925Sol     HW10784   1.376   1.695   2.426 -2.0649 -1.9116  1.8075
 1925Sol     HW10785   1.385   1.712   2.276  0.7429  2.2135  2.3796
 1925Sol     MW10786   1.371   1.657   2.345  0.2400 -0.3633 -0.0258
 1926Sol     OW10787   2.364   3.111   6.796 -0.4228 -0.0878 -0.0918
 1926Sol     HW10788   2.341   3.185   6.740  0.4859  0.3043  0.0482
 1926Sol     HW10789   2.408   3.150   6.871 -0.2435 -0.7421  0.1436
 1926Sol     MW10790   2.366   3.121   6.798 -0.8659 -0.5474 -0.1644
 1927Sol     OW10791   0.653   0.828   6.603 -0.3162  0.3913  0.0541
 1927Sol     HW10792   0.619   0.855   6.517  0.9637  1.7138 -0.0477
 1927Sol     HW10793   0.743   0.858   6.604  0.2659 -1.3052  1.1326
 1927Sol     MW10794   0.658   0.833   6.595 -0.7849 -1.2816 -0.3659
 1928Sol     OW10795   1.513   3.031   3.446  0.0463  0.2935  0.3413
 1928Sol     HW10796   1.443   3.064   3.502 -0.7836 -0.1914 -0.3796
 1928Sol     HW10797   1.590   3.027   3.503 -0.2768  1.7255  0.8982
 1928Sol     MW10798   1.513   3.033   3.456  0.3089 -0.0900 -0.3380
 1929Sol     OW10799   2.626   1.631   2.719  0.1331  0.2009 -0.2359
 1929Sol     HW10800   2.701   1.621   2.778  0.4147  0.6203 -0.5090
 1929Sol     HW10801   2.551   1.642   2.777  0.3003 -0.1227  0.0431
 1929Sol     MW10802   2.626   1.631   2.729  0.5776  0.7461  0.4250
 1930Sol     OW10803   1.830   2.676   1.834  0.4112  0.4286 -0.4431
 1930Sol     HW10804   1.892   2.710   1.898 -1.7513  1.6738  1.0580
 1930Sol     HW10805   1.801   2.753   1.785 -0.5886 -0.0026 -0.5461
 1930Sol     MW10806   1.833   2.686   1.835  0.0947 -0.4721  1.1793
 1931Sol     OW10807   2.729   0.810   4.808 -0.5594  0.1311  0.3857
 1931Sol     HW10808   2.748   0.850   4.893 -0.3757  0.5087  0.1692
 1931Sol     HW10809   2.665   0.869   4.767 -0.4691  0.0757  0.1649
 1931Sol     MW10810   2.725   0.819   4.812 -0.2058 -0.0841  0.1873
 1932Sol     OW10811   1.003   1.992   8.087  0.2176  0.0909 -0.6105
 1932Sol     HW10812   1.015   2.018   7.996 -0.7628 -1.4585 -1.1949
 1932Sol     HW10813   1.075   1.932   8.105  0.5414  0.5714 -0.2865
 1932Sol     MW10814   1.010   1.989   8.081 -0.5464 -0.0872  0.0389
 1933Sol     OW10815   2.800   1.841   1.796 -0.2362 -0.2295 -0.1110
 1933Sol     HW10816   2.792   1.788   1.716  2.5460  1.4929 -1.6368
 1933Sol     HW10817   2.871   1.801   1.844 -0.4751  0.0243  0.4540
 1933Sol     MW10818   2.805   1.833   1.793  0.0065  0.0508  0.9618
 1934Sol     OW10819   0.705   1.215   4.580  0.6505 -0.4562 -0.2876
 1934Sol     HW10820   0.723   1.202   4.673  1.5862 -2.0613 -0.6583
 1934Sol     HW10821   0.652   1.294   4.576  1.0779 -0.0555  1.5604
 1934Sol     MW10822   0.702   1.221   4.588 -0.5055 -0.5378 -0.1266
 1935Sol     OW10823   0.404   3.442   4.258 -0.1406  0.1443 -0.1518
 1935Sol     HW10824   0.464   3.508   4.293  0.0800  0.0909 -0.4244
 1935Sol     HW10825   0.322   3.456   4.306  0.5655 -0.8249  1.3579
 1935Sol     MW10826   0.402   3.449   4.266  0.2307 -0.1120 -0.1627
 1936Sol     OW10827   2.565   2.340   5.715  0.1759 -0.4248  0.3039
 1936Sol     HW10828   2.629   2.318   5.783 -0.3101  1.2405  1.3244
 1936Sol     HW10829   2.615   2.391   5.651  0.0911  0.0429  0.6101
 1936Sol     MW10830   2.575   2.342   5.715  0.5992  0.4998 -0.0837
 1937Sol     OW10831   2.139   0.000   3.831 -0.5071  0.4237  0.0653
 1937Sol     HW10832   2.122  -0.078   3.883  2.1081  0.0606  0.4598
 1937Sol     HW10833   2.090   0.070   3.874  0.7424 -0.0998  2.4218
 1937Sol     MW10834   2.133  -0.000   3.839 -0.0820  0.0308  0.0086
 1938Sol     OW10835   3.195   2.308   8.917  0.1476  0.3644  0.3400
 1938Sol     HW10836   3.119   2.251   8.930  1.3495 -1.1744  0.7389
 1938Sol     HW10837   3.174   2.357   8.838 -0.4110 -1.4703 -0.6791
 1938Sol     MW10838   3.186   2.307   8.911 -0.2785  0.2219 -0.0804
 1939Sol     OW10839   1.824   0.594   3.645  0.0454 -0.0347 -0.0751
 1939Sol     HW10840   1.820   0.521   3.706  0.7531  1.3472  1.6878
 1939Sol     HW10841   1.811   0.555   3.559 -0.6163 -2.0753  0.9263
 1939Sol     MW10842   1.822   0.584   3.643  0.1605 -0.4209 -0.3872
 1940Sol     OW10843   0.075   2.916   3.468 -0.4753 -0.2716  0.0088
 1940Sol     HW10844   0.138   2.853   3.433  0.5574  1.4235 -1.2551
 1940Sol     HW10845   0.095   2.921   3.561  1.2962  0.2656 -0.3798
 1940Sol     MW10846   0.082   2.911   3.473  0.0124 -0.7952 -0.6407
 1941Sol     OW10847   3.198   3.199   9.175  0.0363 -0.2548 -0.1763
 1941Sol     HW10848   3.206   3.294   9.163 -0.5834 -0.2490 -0.6031
 1941Sol     HW10849   3.182   3.165   9.087 -0.0209 -0.7203  0.0137
 1941Sol     MW10850   3.197   3.205   9.166 -0.3663 -0.5679  0.3472
 1942Sol     OW10851   2.090   3.135   5.292  0.0456  0.6865  0.5957
 1942Sol     HW10852   2.058   3.052   5.328  0.3618  0.5652  0.5962
 1942Sol     HW10853   2.075   3.199   5.362 -1.2889  0.8599  0.1565
 1942Sol     MW10854   2.086   3.133   5.302 -0.0066 -0.1572 -0.5144
 1943Sol     OW10855   2.114   3.178   3.966 -0.4486  0.7373 -0.1724
 1943Sol     HW10856   2.173   3.114   3.927 -0.2217  0.2630  0.9390
 1943Sol     HW10857   2.027   3.155   3.932 -0.6973 -1.4379  1.7889
 1943Sol     MW10858   2.111   3.170   3.959 -0.0217 -0.3114 -0.1258
 1944Sol     OW10859   0.148   1.588   4.013  0.9481  0.9996  0.4617
 1944Sol     HW10860   0.158   1.663   3.955 -0.0630 -0.4818 -1.7053
 1944Sol     HW10861   0.054   1.567   4.010  1.3825 -1.0361  0.1056
 1944Sol     MW10862   0.140   1.593   4.007  0.0436  0.3924  0.0942
 1945Sol     OW10863   2.937   2.318   2.446  0.2238  0.1668 -0.3780
 1945Sol     HW10864   2.846   2.346   2.459 -0.0283 -0.7969 -0.0236
 1945Sol     HW10865   2.976   2.387   2.392 -0.4931  0.9885  0.1467
 1945Sol     MW10866   2.932   2.326   2.442  0.2029  0.3639  0.3018
 1946Sol     OW10867   0.294   1.891   2.629  0.6866 -0.4428 -0.2983
 1946Sol     HW10868   0.299   1.986   2.630  0.5020 -0.4102 -1.5593
 1946Sol     HW10869   0.287   1.866   2.721 -0.6673  0.8347 -0.0369
 1946Sol     MW10870   0.294   1.897   2.637  0.1665  0.7312  0.1045
 1947Sol     OW10871   0.849   0.802   8.344 -0.1952  0.2959  0.4807
 1947Sol     HW10872   0.776   0.846   8.389 -0.2231  1.2560 -0.5000
 1947Sol     HW10873   0.867   0.857   8.268  1.5137  0.0184  0.6780
 1947Sol     MW10874   0.844   0.810   8.342  0.2640  0.0638  0.3943
 1948Sol     OW10875   2.450   1.723   5.515 -0.5118  0.4248  0.3880
 1948Sol     HW10876   2.396   1.802   5.516 -0.1777  0.6544  0.2177
 1948Sol     HW10877   2.389   1.653   5.538 -1.4197  0.3731 -2.0385
 1948Sol     MW10878   2.440   1.724   5.517 -0.0775  0.3628  0.0900
 1949Sol     OW10879   0.530   2.910   7.740  0.3282 -0.0598 -0.5437
 1949Sol     HW10880   0.482   2.828   7.732 -0.6963  0.3143  1.3645
 1949Sol     HW10881   0.609   2.887   7.790  1.3501 -0.3528 -2.2427
 1949Sol     MW10882   0.533   2.901   7.744 -0.2298  0.1143  0.6305
 1950Sol     OW10883   1.429   3.392   8.679  0.1944  0.1888 -0.2755
 1950Sol     HW10884   1.467   3.470   8.720  0.6794 -0.1599 -0.0578
 1950Sol     HW10885   1.350   3.425   8.635 -0.4453  0.5447  1.0976
 1950Sol     MW10886   1.425   3.402   8.679  0.1588  0.2770 -0.0207
 1951Sol     OW10887   2.058   0.833   2.876 -0.2670 -0.0049  0.0134
 1951Sol     HW10888   2.000   0.780   2.930  1.5321 -1.8845  0.1870
 1951Sol     HW10889   2.004   0.861   2.802 -1.2716 -2.0916 -0.0640
 1951Sol     MW10890   2.048   0.831   2.874 -0.3046 -0.3119 -0.5621
 1952Sol     OW10891   2.457   2.236   3.576 -0.6844  0.5029  0.0899
 1952Sol     HW10892   2.429   2.256   3.486  2.6071  1.4448 -0.7780
 1952Sol     HW10893   2.507   2.155   3.568 -0.1552  0.7351  1.0236
 1952Sol     MW10894   2.459   2.231   3.567 -0.3365 -0.2431 -0.6075
 1953Sol     OW10895   0.588   2.232   6.298 -0.0623 -0.3026 -0.2622
 1953Sol     HW10896   0.532   2.308   6.309 -0.5933 -0.7335  0.0622
 1953Sol     HW10897   0.595   2.219   6.204  0.3763  0.3947 -0.3317
 1953Sol     MW10898   0.584   2.238   6.291  0.7407  0.0060  0.2372
 1954Sol     OW10899   2.905   2.395   6.978 -0.6581  0.0515 -0.1721
 1954Sol     HW10900   2.874   2.390   6.887 -1.6563  0.4582  0.1376
 1954Sol     HW10901   2.901   2.304   7.009  2.0188 -0.4804 -1.2752
 1954Sol     MW10902   2.902   2.386   6.973  0.2075  0.1143 -0.6083
 1955Sol     OW10903   2.943   2.332   5.084  0.0375 -0.0437 -0.2570
 1955Sol     HW10904   2.949   2.301   4.993  1.0281 -0.1196 -0.1732
 1955Sol     HW10905   2.857   2.301   5.114 -0.1252 -0.3670 -1.0369
 1955Sol     MW10906   2.936   2.326   5.079  0.0095 -0.2557 -0.1533
 1956Sol     OW10907   1.591   1.723   6.533  0.0902 -0.2119 -0.0580
 1956Sol     HW10908   1.660   1.660   6.509  1.0203  0.8588 -0.2356
 1956Sol     HW10909   1.614   1.803   6.485 -1.3677  0.1124 -0.2356
 1956Sol     MW10910   1.600   1.724   6.526  0.4481  0.2283 -0.5236
 1957Sol     OW10911   1.849   3.426   2.446  0.2678 -0.3197  0.0748
 1957Sol     HW10912   1.823   3.455   2.533  0.2053  0.1723 -0.1097
 1957Sol     HW10913   1.767   3.407   2.400  0.3395 -2.7679  0.8593
 1957Sol     MW10914   1.840   3.427   2.449  0.6647 -0.2696 -0.5704
 1958Sol     OW10915   3.013   1.229   7.863 -0.3308  0.6891  0.3703
 1958Sol     HW10916   2.997   1.138   7.838  0.4245  0.7952 -0.5293
 1958Sol     HW10917   3.084   1.224   7.927  1.9382  0.8696 -2.0638
 1958Sol     MW10918   3.018   1.220   7.867  0.4978 -0.1100  0.1551
 1959Sol     OW10919   1.306   1.670   3.957  0.1931  0.4076 -0.0273
 1959Sol     HW10920   1.287   1.630   3.872  0.5444 -0.2539  0.1980
 1959Sol     HW10921   1.268   1.610   4.021  3.3006 -1.1570  0.4523
 1959Sol     MW10922   1.301   1.661   3.955  0.6949 -0.0561 -0.0815
 1960Sol     OW10923   0.022   2.790   4.671 -0.1552  0.1101 -0.0871
 1960Sol     HW10924  -0.027   2.865   4.637 -1.2533  0.1586  1.5744
 1960Sol     HW10925  -0.013   2.715   4.622 -0.3481  0.4357 -0.4544
 1960Sol     MW10926   0.014   2.790   4.663 -0.1994  0.3550 -0.5557
 1961Sol     OW10927   0.531   1.665   4.315  0.0703 -0.3885  0.0630
 1961Sol     HW10928   0.533   1.736   4.378  0.0168 -0.9218  0.6641
 1961Sol     HW10929   0.593   1.692   4.247 -0.3820  0.4994 -0.0062
 1961Sol     MW10930   0.537   1.674   4.314 -0.4613  0.0449  0.1144
 1962Sol     OW10931   2.761   0.298   2.558 -0.0099  0.5451 -0.0719
 1962Sol     HW10932   2.695   0.253   2.610  1.2474  1.7407  2.6509
 1962Sol     HW10933   2.728   0.388   2.550 -1.5478 -0.2480 -3.7953
 1962Sol     MW10934   2.752   0.302   2.562  0.2546  0.6323 -0.2108
 1963Sol     OW10935   1.651   1.535   9.432 -0.1664  0.7155  0.3793
 1963Sol     HW10936   1.636   1.491   9.349  2.0652 -0.9130  0.8143
 1963Sol     HW10937   1.592   1.490   9.493 -0.7060  0.9044 -0.0015
 1963Sol     MW10938   1.644   1.527   9.430 -0.3900  0.0498 -0.2716
 1964Sol     OW10939   1.821   1.984   7.827 -0.1751 -0.0785 -0.2954
 1964Sol     HW10940   1.850   1.893   7.831 -2.3595 -0.8129 -0.1478
 1964Sol     HW10941   1.870   2.022   7.755 -0.8726 -2.0065 -1.8261
 1964Sol     MW10942   1.828   1.979   7.821  0.4780 -0.3169 -0.2327
 1965Sol     OW10943   0.121   3.432   2.981 -0.1170 -0.1356  0.1646
 1965Sol     HW10944   0.110   3.361   2.917  1.6005  0.4879 -0.8687
 1965Sol     HW10945   0.038   3.436   3.028 -0.1236 -3.0702  0.4746
 1965Sol     MW10946   0.113   3.426   2.980 -0.0586  0.2703  0.3585
 1966Sol     OW10947   1.914   1.004   7.322  0.1097  0.3201 -0.6700
 1966Sol     HW10948   1.942   0.913   7.330 -0.8792 -0.1147 -1.9685
 1966Sol     HW10949   1.979   1.043   7.263 -0.5794 -0.0574 -1.6933
 1966Sol     MW10950   1.922   1.000   7.317  0.2423  0.3944 -0.0443
 1967Sol     OW10951   1.425   1.885   6.021 -0.4012 -0.1936 -0.5237
 1967Sol     HW10952   1.400   1.937   6.098 -0.8457  1.7654 -1.9527
 1967Sol     HW10953   1.355   1.821   6.012 -1.4032  0.8723 -0.4594
 1967Sol     MW10954   1.416   1.884   6.027  0.2260 -0.2724 -0.3309
 1968Sol     OW10955   0.979   1.763   8.877 -0.0820 -0.2676 -0.2208
 1968Sol     HW10956   0.954   1.854   8.894  0.5789 -0.1967  0.3853
 1968Sol     HW10957   0.966   1.752   8.783  0.3188  0.6151 -0.3907
 1968Sol     MW10958   0.976   1.770   8.870 -0.7227  0.0147  0.3152
 1969Sol     OW10959   1.756   2.436   3.570  0.2481 -0.0209  0.4258
 1969Sol     HW10960   1.739   2.523   3.534  0.2281 -0.0716  0.3110
 1969Sol     HW10961   1.851   2.426   3.565  0.1177 -0.6650 -1.1170
 1969Sol     MW10962   1.763   2.443   3.566 -0.5068  0.0011 -0.2486
 1970Sol     OW10963   2.049   1.652   1.839  0.1211  0.2042 -0.2095
 1970Sol     HW10964   2.059   1.583   1.905  1.7231  1.0724  0.4640
 1970Sol     HW10965   1.956   1.648   1.815 -0.9636  1.1876  3.5677
 1970Sol     MW10966   2.041   1.645   1.843 -0.6388  0.4344  0.5158
 1971Sol     OW10967   2.797   3.156   1.976 -0.6320 -0.1951  0.3161
 1971Sol     HW10968   2.842   3.213   1.913  0.0523 -0.1317  0.8549
 1971Sol     HW10969   2.784   3.211   2.053 -1.0171 -0.4224  0.4126
 1971Sol     MW10970   2.800   3.166   1.977 -0.2768  0.7691  0.4136
 1972Sol     OW10971   2.782   1.532   2.023  0.4339 -1.0655 -0.7276
 1972Sol     HW10972   2.841   1.520   1.948 -0.8724 -0.2940 -1.9002
 1972Sol     HW10973   2.694   1.530   1.985 -0.1608  2.5663  0.2702
 1972Sol     MW10974   2.780   1.531   2.013  0.1951 -0.7565  0.5722
 1973Sol     OW10975   0.661   1.131   5.582  0.1105  0.0801 -0.7181
 1973Sol     HW10976   0.727   1.061   5.583  0.3901  0.3457 -0.6409
 1973Sol     HW10977   0.585   1.093   5.626 -1.0447 -1.4657 -3.9023
 1973Sol     MW10978   0.660   1.121   5.586  0.4208  0.0013  0.3416
 1974Sol     OW10979   2.215   2.814   8.826  0.3203  0.0260 -0.0215
 1974Sol     HW10980   2.140   2.781   8.776  0.2559  0.4866 -0.2262
 1974Sol     HW10981   2.181   2.826   8.914  0.4054 -0.6834  0.1148
 1974Sol     MW10982   2.205   2.812   8.829 -0.4483 -0.0884 -0.6717
 1975Sol     OW10983   1.125   1.993   7.831 -0.0494  0.2021 -0.2678
 1975Sol     HW10984   1.126   2.083   7.864 -0.5413  0.7637 -1.7539
 1975Sol     HW10985   1.217   1.966   7.833  0.2895  1.2366 -1.1319
 1975Sol     MW10986   1.133   1.999   7.835  0.1070 -0.6233 -1.2467
 1976Sol     OW10987   0.480   0.591   9.013 -0.1250 -0.6588  0.9296
 1976Sol     HW10988   0.457   0.499   9.026 -0.8027 -0.9432 -2.0611
 1976Sol     HW10989   0.403   0.630   8.972  1.2012  0.5958 -0.4238
 1976Sol     MW10990   0.471   0.587   9.011 -0.6338  0.0635  0.1795
 1977Sol     OW10991   1.279   1.058   4.679  0.0899 -0.1401 -0.0795
 1977Sol     HW10992   1.314   1.132   4.729  1.6971 -1.0552  0.1786
 1977Sol     HW10993   1.302   1.078   4.588  0.5698 -0.3471 -0.0038
 1977Sol     MW10994   1.284   1.066   4.675  0.1527  0.5741 -0.3176
 1978Sol     OW10995   2.993   2.736   1.843  0.0038 -0.3778  0.0728
 1978Sol     HW10996   2.997   2.810   1.904  1.2824  1.0528 -1.6864
 1978Sol     HW10997   2.963   2.775   1.761  3.2590 -1.2672 -1.6180
 1978Sol     MW10998   2.991   2.746   1.841  0.5335 -0.5196 -0.5270
 1979Sol     OW10999   1.098   3.321   4.399  0.5257 -0.2994 -0.1160
 1979Sol     HW11000   1.123   3.387   4.463 -2.4682 -0.7870  1.6550
 1979Sol     HW11001   1.003   3.328   4.394  0.2828 -3.5500 -0.8887
 1979Sol     MW11002   1.092   3.327   4.404  0.0357  0.2919  0.5291
 1980Sol     OW11003   3.247   1.371   2.956  0.5172  0.4669  0.2243
 1980Sol     HW11004   3.327   1.404   2.996 -0.0707 -0.3288  2.1322
 1980Sol     HW11005   3.190   1.349   3.030 -0.7757 -0.6788 -1.0550
 1980Sol     MW11006   3.249   1.372   2.966  0.7472  0.3348  0.5889
 1981Sol     OW11007   1.153   2.429   5.147 -0.5603 -0.9598  0.1750
 1981Sol     HW11008   1.133   2.507   5.096  0.0211 -0.5830  0.5065
 1981Sol     HW11009   1.069   2.389   5.164 -0.9709  0.2078  0.9654
 1981Sol     MW11010   1.144   2.433   5.144  0.3935 -0.4508  0.3370
 1982Sol     OW11011   1.590   1.001   6.875 -0.0298 -0.1717  0.7147
 1982Sol     HW11012   1.508   0.974   6.834 -0.7550  1.9083  0.7375
 1982Sol     HW11013   1.564   1.050   6.953  1.2238  0.2675  0.8857
 1982Sol     MW11014   1.581   1.003   6.878  0.1472 -0.0931 -0.0011
 1983Sol     OW11015   0.517   1.401   6.591 -0.0606  0.0106 -0.0647
 1983Sol     HW11016   0.443   1.355   6.551 -0.7325  0.0064  1.1580
 1983Sol     HW11017   0.477   1.465   6.649  0.8937  0.8891 -0.3635
 1983Sol     MW11018   0.507   1.402   6.592 -0.0790 -0.6376  0.0640
 1984Sol     OW11019   2.864   0.716   3.119 -0.7441 -0.0165  0.0770
 1984Sol     HW11020   2.836   0.710   3.210 -0.7646  1.4702  0.1905
 1984Sol     HW11021   2.897   0.629   3.098 -1.8416 -0.7043  1.1370
 1984Sol     MW11022   2.865   0.708   3.125  0.2370  0.0187 -0.3237
 1985Sol     OW11023   2.561   2.919   7.308  0.0734  0.2781  0.0256
 1985Sol     HW11024   2.645   2.912   7.353  0.5581  0.4491 -0.8522
 1985Sol     HW11025   2.521   2.832   7.318  0.0539  0.3958  1.0148
 1985Sol     MW11026   2.565   2.910   7.313  0.2797 -0.1089 -0.7282
 1986Sol     OW11027   1.723   3.016   7.402  0.1266 -0.3173  0.5052
 1986Sol     HW11028   1.676   2.933   7.393  1.4852 -0.9743 -0.8200
 1986Sol     HW11029   1.774   3.023   7.321 -0.4652  2.1341  0.3257
 1986Sol     MW11030   1.723   3.009   7.394 -0.4858 -0.2772  0.1044
 1987Sol     OW11031   1.645   1.242   8.786  0.1029  0.0466 -0.3048
 1987Sol     HW11032   1.734   1.276   8.772 -0.4032  1.1504 -0.8927
 1987Sol     HW11033   1.635   1.240   8.881  0.7520 -0.0854 -0.2327
 1987Sol     MW11034   1.652   1.244   8.793  0.0888 -0.1702  0.4362
 1988Sol     OW11035   0.218   0.237   9.394 -0.0657  0.1022  0.2969
 1988Sol     HW11036   0.247   0.172   9.457 -1.6813 -0.2900  0.6502
 1988Sol     HW11037   0.296   0.290   9.377  1.5454 -2.5069 -0.7552
 1988Sol     MW11038   0.228   0.236   9.398 -0.2162  0.2373  0.3219
 1989Sol     OW11039   0.516   0.942   5.400  0.0605  0.0819  0.3516
 1989Sol     HW11040   0.587   0.990   5.443  1.2626  0.1791 -1.6775
 1989Sol     HW11041   0.490   0.998   5.328 -1.7421 -0.2100  0.7483
 1989Sol     MW11042   0.520   0.951   5.398  0.6460 -0.2337 -0.5761
 1990Sol     OW11043   0.601   0.973   2.706 -0.0519 -0.3010  0.1831
 1990Sol     HW11044   0.568   0.892   2.744 -1.3140  0.9441  1.8207
 1990Sol     HW11045   0.584   0.965   2.613 -0.2382 -1.8867  0.3486
 1990Sol     MW11046   0.597   0.965   2.701  0.2716 -0.0669  0.3936
 1991Sol     OW11047   1.878   2.219   8.002  0.1231  0.1166  0.3580
 1991Sol     HW11048   1.878   2.136   7.954  0.8576 -1.0621  2.3574
 1991Sol     HW11049   1.892   2.285   7.934  3.0575 -1.6357 -0.8497
 1991Sol     MW11050   1.879   2.217   7.991  0.6878 -0.2544 -0.5802
 1992Sol     OW11051   0.718   2.223   2.660  0.2385  0.4642  0.2211
 1992Sol     HW11052   0.794   2.223   2.601  0.5360  0.7491  0.5990
 1992Sol     HW11053   0.742   2.161   2.729  0.0601  0.4345  0.2567
 1992Sol     MW11054   0.727   2.217   2.661 -0.4412  0.0002  0.2984
 1993Sol     OW11055   1.930   2.796   9.301  0.6245  0.1228 -0.0993
 1993Sol     HW11056   1.867   2.841   9.246  0.2891 -0.6878 -0.3895
 1993Sol     HW11057   2.010   2.848   9.292  0.4077  0.3408 -0.8842
 1993Sol     MW11058   1.932   2.805   9.295  0.6796 -0.2610 -0.4468
 1994Sol     OW11059   1.817   0.335   3.297  0.4981  0.7012  0.4330
 1994Sol     HW11060   1.831   0.274   3.370  2.0164  2.5402  1.7291
 1994Sol     HW11061   1.771   0.409   3.336  1.5597  1.8177 -0.3889
 1994Sol     MW11062   1.814   0.336   3.307  0.5079 -0.4794  0.0616
 1995Sol     OW11063   2.017   2.083   8.217  0.0033 -0.2173  0.7312
 1995Sol     HW11064   1.969   2.002   8.234 -1.6011  0.2444 -1.2796
 1995Sol     HW11065   1.965   2.127   8.150  1.9330  1.5277  0.3290
 1995Sol     MW11066   2.008   2.080   8.213 -0.7674 -0.0838 -0.8058
 1996Sol     OW11067   2.955   1.520   9.601 -0.6379  0.1255 -0.3043
 1996Sol     HW11068   3.040   1.535   9.560  0.2634 -0.7092  1.2192
 1996Sol     HW11069   2.895   1.507   9.528  0.9023 -1.1099 -1.3778
 1996Sol     MW11070   2.957   1.520   9.591  0.2194 -0.4962  0.8103
 1997Sol     OW11071   3.225   0.879   4.210  0.0153 -0.1530  0.0726
 1997Sol     HW11072   3.238   0.888   4.304  0.2355 -2.8995  0.3499
 1997Sol     HW11073   3.306   0.912   4.171  0.1790  0.3979  0.8876
 1997Sol     MW11074   3.233   0.882   4.215 -0.3936  0.3337 -0.7106
 1998Sol     OW11075   2.149   0.202   4.415 -0.0228 -0.2827 -0.4880
 1998Sol     HW11076   2.176   0.190   4.324  1.4837 -0.9783  0.0506
 1998Sol     HW11077   2.199   0.138   4.464  1.1432  1.8496  1.1848
 1998Sol     MW11078   2.156   0.196   4.411  0.6884 -0.4116 -0.2624
 1999Sol     OW11079   0.710   2.268   7.142  0.1155 -0.4502  0.1017
 1999Sol     HW11080   0.676   2.306   7.060  0.0698 -0.3241  0.1779
 1999Sol     HW11081   0.656   2.190   7.156  0.9096 -1.1296 -0.6097
 1999Sol     MW11082   0.702   2.264   7.136 -0.0487  0.3751  0.3954
 2000Sol     OW11083   1.330   3.139   9.276  0.4424 -0.0640  0.4420
 2000Sol     HW11084   1.410   3.192   9.274  0.3968  0.0237 -3.7025
 2000Sol     HW11085   1.263   3.195   9.236 -1.3402 -0.7182  2.4047
 2000Sol     MW11086   1.331   3.149   9.272  0.5060 -0.5360  0.1972
 2001Sol     OW11087   2.866   1.203   3.240  0.1884 -0.0928 -0.7148
 2001Sol     HW11088   2.900   1.120   3.206  2.2597  0.8694 -1.0475
 2001Sol     HW11089   2.943   1.258   3.249 -0.8687  1.0040  1.8388
 2001Sol     MW11090   2.876   1.200   3.238 -0.2163 -0.2567  0.3020
 2002Sol     OW11091   3.081   3.019   6.824 -0.1992 -0.1190  0.4020
 2002Sol     HW11092   3.131   3.056   6.897 -0.2362  2.4395 -0.8127
 2002Sol     HW11093   3.147   2.999   6.757 -0.4234  0.0073  0.1423
 2002Sol     MW11094   3.091   3.021   6.825 -0.6902 -0.0279 -0.3735
 2003Sol     OW11095   1.530   2.986   3.188  0.3995 -0.0492  0.4298
 2003Sol     HW11096   1.515   2.997   3.282  0.0105 -1.0264  0.4914
 2003Sol     HW11097   1.484   2.905   3.166 -1.8580  1.6097 -1.1498
 2003Sol     MW11098   1.525   2.979   3.195  0.0696  0.6563 -0.3387
 2004Sol     OW11099   1.424   2.941   9.097 -0.1530  0.1143  0.1512
 2004Sol     HW11100   1.413   3.022   9.146  1.0279  0.4530 -0.1279
 2004Sol     HW11101   1.338   2.926   9.057 -1.4563 -0.7207  3.1046
 2004Sol     MW11102   1.415   2.947   9.098 -0.1749 -0.9181 -0.2557
 2005Sol     OW11103   2.518   1.316   5.640  0.1352 -0.0244 -0.3737
 2005Sol     HW11104   2.443   1.357   5.598 -0.1953  0.0122  0.2431
 2005Sol     HW11105   2.536   1.238   5.588 -0.0875  0.1743 -0.7491
 2005Sol     MW11106   2.513   1.313   5.632  0.1629 -0.3142  0.4205
 2006Sol     OW11107   2.236   3.366   6.407 -0.2419 -0.2171  0.2770
 2006Sol     HW11108   2.196   3.446   6.442  0.6696  0.4372 -0.1731
 2006Sol     HW11109   2.305   3.345   6.470 -0.6750 -0.8276  0.5556
 2006Sol     MW11110   2.239   3.371   6.416  0.3173  0.1080 -0.6349
 2007Sol     OW11111   1.604   3.017   6.957 -0.1995  0.6806 -0.4033
 2007Sol     HW11112   1.531   3.066   6.995  0.4725  1.1678  0.2779
 2007Sol     HW11113   1.568   2.930   6.939 -0.6373  0.5804  0.9362
 2007Sol     MW11114   1.594   3.014   6.958  0.3680  0.8942 -0.0924
 2008Sol     OW11115   0.119   1.831   8.910 -0.7355  0.1901  0.3094
 2008Sol     HW11116   0.183   1.839   8.981  0.5256  0.5322 -0.8256
 2008Sol     HW11117   0.059   1.904   8.923  0.8624  1.6507 -0.3014
 2008Sol     MW11118   0.120   1.838   8.918  0.2409 -0.1672 -0.6248
 2009Sol     OW11119   2.353   1.393   3.680 -1.2054 -0.2425 -0.1964
 2009Sol     HW11120   2.323   1.321   3.625 -1.8666 -0.2184  0.1302
 2009Sol     HW11121   2.299   1.467   3.655 -0.9855 -0.0316 -0.0523
 2009Sol     MW11122   2.346   1.393   3.673 -0.3171 -0.5305  0.0122
 2010Sol     OW11123   1.384   3.140   2.972  0.8867  0.2184 -0.3975
 2010Sol     HW11124   1.431   3.212   3.013 -1.1244  1.9102 -0.9855
 2010Sol     HW11125   1.418   3.061   3.015  1.6332  1.6522  1.7049
 2010Sol     MW11126   1.391   3.139   2.979 -0.0478 -0.2293  0.5971
 2011Sol     OW11127   1.079   2.243   7.941  0.1310  0.3230 -0.5533
 2011Sol     HW11128   1.139   2.260   8.014 -0.2442  1.1574 -0.4384
 2011Sol     HW11129   0.996   2.280   7.969 -0.0514  0.5093 -1.3421
 2011Sol     MW11130   1.077   2.247   7.950  0.0806  0.7647 -0.4989
 2012Sol     OW11131   2.289   2.974   7.548 -0.0240  0.1971  0.1897
 2012Sol     HW11132   2.279   3.029   7.625  1.3925  2.7690 -1.3671
 2012Sol     HW11133   2.244   3.022   7.478  1.7311 -0.3210 -1.3478
 2012Sol     MW11134   2.284   2.983   7.548  0.4053  0.1653  0.4090
 2013Sol     OW11135   1.749   1.863   2.342  0.2927 -0.0065  0.1364
 2013Sol     HW11136   1.663   1.891   2.311 -0.2060 -0.8699  0.7241
 2013Sol     HW11137   1.790   1.822   2.266 -0.5584 -1.2803  0.3469
 2013Sol     MW11138   1.745   1.862   2.332 -0.5849  0.1975 -0.3072
 2014Sol     OW11139   3.072   2.056   6.684  0.3766  0.2098  0.2680
 2014Sol     HW11140   3.106   1.985   6.631  0.0061  0.4243 -0.2605
 2014Sol     HW11141   2.998   2.091   6.634 -0.9788 -0.5983  1.6549
 2014Sol     MW11142   3.069   2.053   6.675 -0.3158  0.2272  0.1098
 2015Sol     OW11143   0.035   0.049   7.620 -0.0589 -0.4733  0.2060
 2015Sol     HW11144   0.020  -0.025   7.678  0.2807 -0.3469  0.4562
 2015Sol     HW11145   0.075   0.012   7.541  0.7642 -0.4674  0.6152
 2015Sol     MW11146   0.037   0.039   7.618 -0.3221 -0.5467 -0.4688
 2016Sol     OW11147   2.796   1.936   5.124 -0.6522 -0.7153 -0.0911
 2016Sol     HW11148   2.716   1.987   5.131  0.3798  0.5876  4.0106
 2016Sol     HW11149   2.767   1.844   5.124 -2.1823 -0.2358  0.2695
 2016Sol     MW11150   2.787   1.932   5.125  0.1794 -0.1465  0.8215
 2017Sol     OW11151   0.283   2.915   5.690  0.3505  0.7597  0.1413
 2017Sol     HW11152   0.248   3.004   5.700 -0.0688  0.5053  0.9857
 2017Sol     HW11153   0.362   2.926   5.637  0.5020  1.6857  0.5496
 2017Sol     MW11154   0.287   2.924   5.686  0.2757  0.5483  0.7250
 2018Sol     OW11155   1.663   1.637   6.797 -0.0832  0.3777 -0.6182
 2018Sol     HW11156   1.653   1.662   6.705 -1.5822 -0.1005 -0.6000
 2018Sol     HW11157   1.754   1.657   6.817  0.3439  0.2186 -2.2946
 2018Sol     MW11158   1.670   1.641   6.790 -0.4889  0.1318 -0.5516
 2019Sol     OW11159   2.442   1.866   4.282  0.3622  0.0286 -0.4650
 2019Sol     HW11160   2.370   1.805   4.265  0.4434  0.0301 -0.8084
 2019Sol     HW11161   2.440   1.927   4.208  2.2934 -1.4411 -1.7798
 2019Sol     MW11162   2.435   1.866   4.274  0.6250 -0.2099 -0.0658
 2020Sol     OW11163   1.162   3.063   4.292 -0.3549  0.3888 -0.4475
 2020Sol     HW11164   1.125   3.141   4.334  0.2250  0.6222 -0.3633
 2020Sol     HW11165   1.089   3.003   4.285 -0.2995  0.0575  1.5914
 2020Sol     MW11166   1.152   3.065   4.295 -0.1720 -0.3733 -0.1032
 2021Sol     OW11167   1.929   0.827   9.604  0.2680 -0.0922  0.2666
 2021Sol     HW11168   1.838   0.832   9.574  0.6281  0.2567 -0.7974
 2021Sol     HW11169   1.969   0.763   9.545  0.9018  0.3458  0.2217
 2021Sol     MW11170   1.924   0.822   9.596  0.0880  0.2301 -0.8059
 2022Sol     OW11171   1.721   0.705   7.181  1.0684  0.4066  0.1455
 2022Sol     HW11172   1.735   0.637   7.247  0.1144 -0.2772 -0.3424
 2022Sol     HW11173   1.701   0.783   7.232 -2.6497 -0.7933  0.6501
 2022Sol     MW11174   1.721   0.706   7.192  0.6940  0.0644 -0.2646
 2023Sol     OW11175   3.316   0.000   6.248  0.2827  0.3345 -0.0311
 2023Sol     HW11176   3.362   0.029   6.170  0.3287  0.1550 -0.0687
 2023Sol     HW11177   3.223   0.005   6.224  0.3125 -0.1259 -0.2335
 2023Sol     MW11178   3.312   0.003   6.239 -0.0415  0.5597 -0.0777
 2024Sol     OW11179   1.394   1.946   5.726  0.0590  0.0760  0.4778
 2024Sol     HW11180   1.399   1.947   5.822 -1.1660  0.4833  0.5464
 2024Sol     HW11181   1.448   2.019   5.699  2.5624 -1.6337  0.7361
 2024Sol     MW11182   1.399   1.953   5.732 -0.0064  0.5934 -0.3601
 2025Sol     OW11183   0.139   0.968   9.188  0.2458  0.0533  0.7709
 2025Sol     HW11184   0.109   0.926   9.269  0.5841 -0.6733  0.5195
 2025Sol     HW11185   0.127   0.902   9.120  0.5270  0.4542  0.3264
 2025Sol     MW11186   0.135   0.958   9.189  0.4649  0.6039  0.4993
 2026Sol     OW11187   1.777   1.622   9.173  0.3534  0.5262  0.0857
 2026Sol     HW11188   1.762   1.538   9.128  0.1344  0.3242  0.5244
 2026Sol     HW11189   1.808   1.597   9.260 -1.4268  0.8464  0.8459
 2026Sol     MW11190   1.778   1.612   9.177 -0.0579  0.2305 -0.2444
 2027Sol     OW11191   2.999   0.247   5.139 -0.5818 -0.0515  0.1586
 2027Sol     HW11192   2.966   0.282   5.222 -0.7590  1.6123 -0.5788
 2027Sol     HW11193   2.949   0.294   5.072  1.6402  0.8655 -0.9318
 2027Sol     MW11194   2.992   0.255   5.140  0.8088 -0.0111  0.1145
 2028Sol     OW11195   3.061   1.301   9.336  0.8488  0.1028 -0.2605
 2028Sol     HW11196   3.083   1.390   9.308  1.1602  0.5194  1.2794
 2028Sol     HW11197   3.130   1.247   9.299  1.2254  0.6403 -0.3499
 2028Sol     MW11198   3.069   1.304   9.330 -0.2132  0.2729 -0.5250
 2029Sol     OW11199   2.085   0.248   8.945  0.7407 -0.0363 -0.2795
 2029Sol     HW11200   1.994   0.220   8.936  1.1781 -2.1807  1.5015
 2029Sol     HW11201   2.081   0.327   8.999  0.2120 -2.8582  4.0191
 2029Sol     MW11202   2.077   0.253   8.949  0.2379  0.5985 -0.2632
 2030Sol     OW11203   1.806   1.391   4.181  0.2045 -0.2862 -0.2249
 2030Sol     HW11204   1.726   1.441   4.166  0.6216 -0.1207 -2.1042
 2030Sol     HW11205   1.779   1.300   4.168  0.2366 -0.2575 -0.5014
 2030Sol     MW11206   1.796   1.387   4.178  0.3545 -0.7006 -0.3736
 2031Sol     OW11207   0.153   3.283   8.875  0.8520  0.1910 -0.3616
 2031Sol     HW11208   0.243   3.306   8.854  0.7694 -0.1267 -1.0642
 2031Sol     HW11209   0.113   3.364   8.907  1.5499  0.1952  0.4985
 2031Sol     MW11210   0.157   3.292   8.876 -0.1176  0.4556  0.1000
 2032Sol     OW11211   0.673   2.283   8.183  0.5198  0.5050  0.9086
 2032Sol     HW11212   0.730   2.321   8.117  0.8972 -1.4436  0.0672
 2032Sol     HW11213   0.586   2.284   8.144  0.8646 -1.3564  0.0144
 2032Sol     MW11214   0.671   2.286   8.174  0.0402 -0.7712  0.3970
 2033Sol     OW11215   2.269   1.347   9.870 -0.2864 -0.1094  0.3161
 2033Sol     HW11216   2.286   1.407   9.797 -1.0138  0.0229  0.2526
 2033Sol     HW11217   2.176   1.327   9.863 -0.0657 -1.2117  0.3628
 2033Sol     MW11218   2.263   1.351   9.863  0.3194 -0.0778  0.3096
 2034Sol     OW11219   0.537   2.966   4.003 -0.1601  0.0496 -0.1949
 2034Sol     HW11220   0.617   2.985   3.954  0.3349 -0.6366  0.3418
 2034Sol     HW11221   0.538   3.028   4.076  1.6549 -2.2566  1.7782
 2034Sol     MW11222   0.544   2.973   4.005  0.3840 -0.0708  0.2516
 2035Sol     OW11223   1.519   0.727   6.761  0.0506 -0.4657 -0.3196
 2035Sol     HW11224   1.524   0.682   6.846  0.0571  0.3209  0.0989
 2035Sol     HW11225   1.597   0.697   6.714 -0.4629 -1.6483 -0.4134
 2035Sol     MW11226   1.527   0.720   6.765 -0.2702 -0.1789  1.2150
 2036Sol     OW11227   0.126   3.324   8.602 -0.0687 -0.4344 -0.2735
 2036Sol     HW11228   0.045   3.283   8.570 -0.6943  0.6112 -0.0353
 2036Sol     HW11229   0.107   3.347   8.693 -0.1523  1.5062 -0.7630
 2036Sol     MW11230   0.117   3.322   8.607 -0.2365  0.8125 -0.3097
 2037Sol     OW11231   1.886   1.882   3.654  1.0643  0.3233  0.3367
 2037Sol     HW11232   1.805   1.924   3.624  1.0059 -1.2241 -1.8195
 2037Sol     HW11233   1.861   1.836   3.734 -0.1673  0.0394 -0.1944
 2037Sol     MW11234   1.876   1.882   3.658 -0.4923  0.4810 -0.5460
 2038Sol     OW11235   2.578   1.590   4.874  0.2916  0.7827  0.1873
 2038Sol     HW11236   2.524   1.515   4.898 -0.5072  1.1413 -0.4887
 2038Sol     HW11237   2.632   1.606   4.952 -0.0492 -0.0352  0.5952
 2038Sol     MW11238   2.578   1.585   4.884  0.7253 -0.3018  0.5168
 2039Sol     OW11239   1.954   0.570   4.962 -0.0596 -0.4952 -0.0434
 2039Sol     HW11240   1.930   0.492   5.013 -3.2808 -0.7827 -1.8635
 2039Sol     HW11241   1.943   0.543   4.871 -0.6143  1.9197 -0.7166
 2039Sol     MW11242   1.951   0.560   4.958  0.0632  0.0604 -0.2748
 2040Sol     OW11243   2.188   0.242   7.173  0.0489 -0.2375 -0.9477
 2040Sol     HW11244   2.154   0.232   7.084  1.4840 -0.7757 -1.4629
 2040Sol     HW11245   2.282   0.260   7.160 -0.1465  1.9491  0.3774
 2040Sol     MW11246   2.194   0.243   7.164  0.2463  0.1077 -0.0421
 2041Sol     OW11247   3.274   0.913   8.674  0.4557 -0.0305  0.0715
 2041Sol     HW11248   3.344   0.977   8.660 -0.4257  1.4324  1.9621
 2041Sol     HW11249   3.193   0.965   8.667 -0.3011 -1.0599  1.0470
 2041Sol     MW11250   3.273   0.924   8.672  0.3553 -0.4623  0.2021
 2042Sol     OW11251   0.183   0.400   9.670 -0.0998  0.4694  0.1875
 2042Sol     HW11252   0.114   0.345   9.707  0.2242  0.3478  0.6184
 2042Sol     HW11253   0.184   0.478   9.725 -1.0825  1.2525 -0.9037
 2042Sol     MW11254   0.177   0.402   9.678 -0.0438  0.1621 -0.3355
 2043Sol     OW11255   2.322   0.557   9.401  0.7745 -0.1490 -0.3014
 2043Sol     HW11256   2.339   0.614   9.325  1.0623  0.6768  0.3680
 2043Sol     HW11257   2.405   0.558   9.450 -0.3543  1.8329  1.6449
 2043Sol     MW11258   2.331   0.562   9.398 -0.0757 -0.2469  0.0357
 2044Sol     OW11259   1.508   2.672   8.001 -0.5221  0.0134  0.0533
 2044Sol     HW11260   1.506   2.707   7.912  1.3488 -1.2475 -0.5121
 2044Sol     HW11261   1.511   2.749   8.057  0.3204  0.7966 -1.0487
 2044Sol     MW11262   1.508   2.682   7.998  0.0447 -0.2464 -0.1788
 2045Sol     OW11263   0.110   1.493   9.587 -0.0061  0.3437 -0.3636
 2045Sol     HW11264   0.035   1.470   9.642  0.6520  1.7597  1.1789
 2045Sol     HW11265   0.185   1.456   9.633  0.2868 -0.7693 -1.7232
 2045Sol     MW11266   0.110   1.488   9.596  0.0129 -0.5263 -0.3615
 2046Sol     OW11267   1.589   0.541   7.645  0.4603  0.1371  0.0156
 2046Sol     HW11268   1.683   0.537   7.664  0.7342 -1.3266 -1.4734
 2046Sol     HW11269   1.550   0.478   7.705  0.4978  0.4036  0.3165
 2046Sol     MW11270   1.594   0.535   7.652 -0.1145  0.1431 -0.0336
 2047Sol     OW11271   0.394   1.112   6.838  0.4544  0.4128 -0.1000
 2047Sol     HW11272   0.315   1.129   6.787  1.5213  1.1206 -1.5467
 2047Sol     HW11273   0.459   1.088   6.772  1.2333 -0.9581  1.1574
 2047Sol     MW11274   0.392   1.111   6.827  0.2995  0.2353  0.2832
 2048Sol     OW11275   2.426   0.717   9.210  0.0522  0.5619  0.3714
 2048Sol     HW11276   2.421   0.810   9.191 -1.4511  0.7608  1.6887
 2048Sol     HW11277   2.496   0.709   9.275  1.4609  0.5296 -1.1248
 2048Sol     MW11278   2.432   0.725   9.214 -0.3211  0.4319  0.5815
 2049Sol     OW11279   2.595   1.340   3.954  0.2091 -0.2287 -0.0461
 2049Sol     HW11280   2.655   1.333   4.028 -0.4205  0.1138  0.4970
 2049Sol     HW11281   2.520   1.388   3.988  0.4814  1.0852 -1.2705
 2049Sol     MW11282   2.594   1.343   3.964  0.6580 -0.4441 -0.3706
 2050Sol     OW11283   2.549   0.010   4.397  0.1034  0.2821  0.1380
 2050Sol     HW11284   2.535   0.098   4.362  1.7898  0.4424 -0.1493
 2050Sol     HW11285   2.597  -0.036   4.328 -1.2945 -1.0724  0.0185
 2050Sol     MW11286   2.552   0.014   4.388 -0.2950  0.4203 -0.8606
 2051Sol     OW11287   2.850   0.326   8.346 -0.2224  0.1506 -0.0700
 2051Sol     HW11288   2.890   0.363   8.267 -1.0417  0.6271 -0.2683
 2051Sol     HW11289   2.821   0.239   8.319  3.6153 -1.5755  0.9687
 2051Sol     MW11290   2.851   0.322   8.336 -0.0011 -0.5281 -0.0483
 2052Sol     OW11291   2.171   2.856   3.571  0.3120 -0.2801 -0.3657
 2052Sol     HW11292   2.182   2.927   3.508  1.6440  0.1321  0.2997
 2052Sol     HW11293   2.186   2.777   3.520 -1.1542 -0.0989 -1.1067
 2052Sol     MW11294   2.174   2.855   3.561  0.2364  0.0658  0.1203
 2053Sol     OW11295   0.076   1.440   8.079  0.3083 -0.7449 -0.0953
 2053Sol     HW11296   0.008   1.503   8.055 -0.1015 -1.0389  0.3037
 2053Sol     HW11297   0.079   1.379   8.005  1.1961  0.1390 -0.8088
 2053Sol     MW11298   0.071   1.440   8.070  0.2719  0.2778  0.0077
 2054Sol     OW11299   1.855   2.976   7.670  0.1803 -0.4872 -0.3176
 2054Sol     HW11300   1.856   3.072   7.680  1.5206 -0.3527 -1.6292
 2054Sol     HW11301   1.820   2.962   7.582  0.2226 -1.2028 -0.2165
 2054Sol     MW11302   1.852   2.984   7.663 -0.2445 -0.3130  0.4048
 2055Sol     OW11303   0.053   1.513   6.988  0.1447  0.0811 -0.1810
 2055Sol     HW11304   0.147   1.530   6.989 -0.2766  2.5505  0.3854
 2055Sol     HW11305   0.041   1.455   6.913  2.2655 -1.3112  0.4961
 2055Sol     MW11306   0.061   1.510   6.981  1.0255  0.1851  0.3188
 2056Sol     OW11307   3.284   1.568   3.359  0.0501  0.0304 -0.1803
 2056Sol     HW11308   3.326   1.542   3.276 -0.7101 -0.7214 -0.3353
 2056Sol     HW11309   3.255   1.485   3.397  1.3105  0.2808  1.3368
 2056Sol     MW11310   3.285   1.558   3.355  0.2429  0.4158 -0.1520
 2057Sol     OW11311   2.611   3.037   5.174  0.2467  0.1852  0.2176
 2057Sol     HW11312   2.556   3.112   5.196 -0.1138 -0.4301  1.5222
 2057Sol     HW11313   2.699   3.063   5.198  0.2627  0.5412 -0.2332
 2057Sol     MW11314   2.614   3.046   5.178  0.2989  0.2180  0.2035
 2058Sol     OW11315   1.657   1.138   3.103 -0.4187  0.3983  0.0648
 2058Sol     HW11316   1.738   1.186   3.119  1.7883 -2.6560 -1.1876
 2058Sol     HW11317   1.612   1.136   3.188  1.3187  1.2591  1.0273
 2058Sol     MW11318   1.660   1.142   3.112 -0.5251 -0.4369 -0.2858
 2059Sol     OW11319   2.376   2.491   4.652  0.1685  0.9875 -0.2439
 2059Sol     HW11320   2.363   2.544   4.731 -0.1884  0.4286  0.0723
 2059Sol     HW11321   2.465   2.458   4.659 -0.1456  0.2738  0.3208
 2059Sol     MW11322   2.383   2.493   4.659 -0.2513 -0.8581 -0.0664
 2060Sol     OW11323   1.559   3.252   4.274 -0.6174  0.3172  0.1839
 2060Sol     HW11324   1.654   3.260   4.270 -0.4783 -0.5572  1.5873
 2060Sol     HW11325   1.530   3.334   4.314 -0.3475  0.0345  0.9689
 2060Sol     MW11326   1.565   3.260   4.277 -0.6846  0.0278  0.6843
 2061Sol     OW11327   2.430   3.275   6.584 -0.1240 -0.3005  0.6944
 2061Sol     HW11328   2.508   3.303   6.633 -0.0392 -0.5303  0.6877
 2061Sol     HW11329   2.459   3.199   6.534 -0.4330 -0.5638  0.9182
 2061Sol     MW11330   2.440   3.271   6.584 -0.0292  0.4554  0.0185
 2062Sol     OW11331   1.665   1.155   4.152  0.0486 -0.2789 -0.1700
 2062Sol     HW11332   1.662   1.143   4.247  0.0467  1.5036  0.0803
 2062Sol     HW11333   1.629   1.074   4.116 -1.2038 -0.4322  1.3816
 2062Sol     MW11334   1.662   1.147   4.158  0.0007  0.6173  0.2066
 2063Sol     OW11335   2.654   0.759   8.475 -0.3386  0.1928  0.6442
 2063Sol     HW11336   2.686   0.713   8.397 -0.9303  0.2992  0.3372
 2063Sol     HW11337   2.604   0.693   8.523 -2.1960  0.8181 -0.3969
 2063Sol     MW11338   2.652   0.749   8.472 -0.0448 -0.0597  0.3001
 2064Sol     OW11339   1.651   1.245   5.992 -0.2612  0.3098  0.0740
 2064Sol     HW11340   1.671   1.280   5.905  1.1634 -0.7262 -0.0315
 2064Sol     HW11341   1.705   1.296   6.052  0.5725 -0.5800  0.0911
 2064Sol     MW11342   1.657   1.253   5.989  0.0827 -0.1448 -0.0206
 2065Sol     OW11343   3.085   2.819   7.042  0.6754  1.0629  0.1978
 2065Sol     HW11344   3.109   2.741   6.992  3.8339  1.7805  0.4907
 2065Sol     HW11345   3.068   2.886   6.975  1.8206  1.1714  0.0049
 2065Sol     MW11346   3.086   2.818   7.031  0.6688  0.2853 -0.1670
 2066Sol     OW11347   2.731   1.541   3.840 -0.3031 -0.1214  0.3132
 2066Sol     HW11348   2.711   1.621   3.889 -0.8854  0.3511 -0.6763
 2066Sol     HW11349   2.680   1.473   3.884  1.0113 -0.1611  1.8068
 2066Sol     MW11350   2.724   1.542   3.849 -0.1821 -0.2563 -0.1227
 2067Sol     OW11351   3.050   2.226   5.518 -0.2740  0.3024 -0.7684
 2067Sol     HW11352   3.081   2.217   5.428  0.2156  1.4034 -0.7215
 2067Sol     HW11353   3.121   2.191   5.572 -0.8247 -0.9225 -0.8346
 2067Sol     MW11354   3.059   2.222   5.515  0.0907  0.2650 -0.0647
 2068Sol     OW11355   0.104   1.725   4.259 -0.7806 -0.3921 -0.0405
 2068Sol     HW11356   0.132   1.657   4.197  0.7368 -0.7941  1.0529
 2068Sol     HW11357   0.148   1.804   4.229  1.4700 -0.9815  1.5611
 2068Sol     MW11358   0.110   1.726   4.251  0.5766 -0.1094 -0.3510
 2069Sol     OW11359   2.145   1.022   3.855 -0.1953  0.0175 -0.3993
 2069Sol     HW11360   2.105   0.941   3.825 -1.1489  0.4841 -0.4016
 2069Sol     HW11361   2.086   1.091   3.824  0.6293  0.7160 -0.4426
 2069Sol     MW11362   2.136   1.021   3.849 -0.3933 -0.2486 -0.4190
 2070Sol     OW11363   2.213   0.064   2.127  0.0789  0.3614  0.1307
 2070Sol     HW11364   2.166   0.040   2.207  0.7352 -0.0504  0.4010
 2070Sol     HW11365   2.252   0.150   2.147  0.8840 -0.0943  0.5359
 2070Sol     MW11366   2.213   0.070   2.136 -0.2772 -0.4978 -0.3761
 2071Sol     OW11367   0.141   2.161   9.443  0.2274 -0.3230 -0.0316
 2071Sol     HW11368   0.059   2.210   9.441  1.3344  1.5980  0.2691
 2071Sol     HW11369   0.119   2.075   9.409 -1.7834  0.3705 -0.5216
 2071Sol     MW11370   0.132   2.158   9.440 -0.2877 -0.1215  0.1290
 2072Sol     OW11371   2.649   2.283   8.819  0.3124  0.0983  0.2943
 2072Sol     HW11372   2.614   2.363   8.781  0.2972  1.0148  2.1633
 2072Sol     HW11373   2.715   2.253   8.756  0.4730  1.7100 -0.3281
 2072Sol     MW11374   2.652   2.287   8.810 -0.4296  0.1101 -0.2568
 2073Sol     OW11375   2.081   2.354   2.489 -0.2111  0.2132 -0.5185
 2073Sol     HW11376   2.043   2.301   2.559  1.5221 -0.1248  0.1935
 2073Sol     HW11377   2.136   2.418   2.533  2.7247 -1.4584 -1.5981
 2073Sol     MW11378   2.082   2.355   2.499  0.1014  0.4002 -0.4919
 2074Sol     OW11379   0.253   2.731   3.367  0.1966 -0.4830  0.2271
 2074Sol     HW11380   0.285   2.647   3.399  3.7078  0.4957 -0.5257
 2074Sol     HW11381   0.221   2.713   3.278  0.7290 -1.0714  0.1547
 2074Sol     MW11382   0.253   2.722   3.362 -0.1559  0.7733  0.1139
 2075Sol     OW11383   2.829   0.263   4.472  0.6671  0.7440 -0.6308
 2075Sol     HW11384   2.855   0.196   4.409  1.3038 -1.5385  1.9183
 2075Sol     HW11385   2.764   0.316   4.425  0.2352 -1.5793 -2.8194
 2075Sol     MW11386   2.825   0.262   4.462  0.0937 -0.2143 -0.5699
 2076Sol     OW11387   2.393   0.846   1.567  0.7335 -0.2916 -0.1613
 2076Sol     HW11388   2.348   0.926   1.539  1.2972 -0.1108 -0.5745
 2076Sol     HW11389   2.365   0.780   1.504  2.2433  0.1884 -1.3898
 2076Sol     MW11390   2.387   0.847   1.559 -0.4719 -0.2715  0.2823
 2077Sol     OW11391   0.980   1.285   6.513 -0.0534  0.7821  0.9584
 2077Sol     HW11392   0.885   1.286   6.501 -0.1071 -0.4133  1.2252
 2077Sol     HW11393   0.995   1.222   6.584  1.0038  0.2315  0.2647
 2077Sol     MW11394   0.973   1.279   6.518 -0.0463 -0.1131  0.1576
 2078Sol     OW11395   2.524   1.615   8.192 -0.6440  0.6454 -0.2919
 2078Sol     HW11396   2.575   1.695   8.192 -0.8048  0.7504 -0.7293
 2078Sol     HW11397   2.437   1.641   8.162 -1.0901  0.5505  0.9182
 2078Sol     MW11398   2.521   1.624   8.189  0.1076  0.0120  0.6873
 2079Sol     OW11399   1.328   3.447   2.269  0.1951 -0.2375 -0.1088
 2079Sol     HW11400   1.296   3.368   2.312  3.6385 -0.9090  1.3783
 2079Sol     HW11401   1.358   3.418   2.183 -0.8505 -0.0754 -0.5296
 2079Sol     MW11402   1.328   3.438   2.266  0.5852  0.2687  0.5844
 2080Sol     OW11403   0.028   1.304   2.476  0.2249  0.2001 -0.1522
 2080Sol     HW11404   0.108   1.300   2.423  0.3064  2.2475 -0.2109
 2080Sol     HW11405   0.054   1.348   2.557 -0.5812 -0.1693  0.3154
 2080Sol     MW11406   0.038   1.308   2.478  0.0117  0.1563  0.2149
 2081Sol     OW11407   0.360   0.024   6.794  0.1536  0.4028 -0.0697
 2081Sol     HW11408   0.417  -0.048   6.766 -0.4558 -0.3357  0.5966
 2081Sol     HW11409   0.342   0.007   6.886 -1.1016  0.6652 -0.2580
 2081Sol     MW11410   0.364   0.016   6.799  0.7107  0.0646 -0.7032
 2082Sol     OW11411   2.292   2.003   8.331  0.3581  0.2425 -0.3095
 2082Sol     HW11412   2.294   1.908   8.346  0.2192  0.2665 -0.1505
 2082Sol     HW11413   2.211   2.018   8.283  0.3617  0.2877 -0.3007
 2082Sol     MW11414   2.285   1.996   8.328 -0.5796  0.2960  0.2266
 2083Sol     OW11415   1.280   1.666   7.115 -0.0623 -0.7753  0.0461
 2083Sol     HW11416   1.194   1.696   7.145 -0.6524 -0.4405 -1.9476
 2083Sol     HW11417   1.342   1.706   7.177 -1.1548  1.0101  0.0182
 2083Sol     MW11418   1.278   1.673   7.123  0.1183 -0.4956 -0.5628
 2084Sol     OW11419   3.326   1.406   4.650  0.0169  0.1566 -0.1389
 2084Sol     HW11420   3.402   1.353   4.629 -0.4182 -0.3009 -0.5899
 2084Sol     HW11421   3.362   1.489   4.683  0.7145  0.4704 -1.6458
 2084Sol     MW11422   3.336   1.409   4.651  0.0795  0.0637 -0.2052
 2085Sol     OW11423   1.803   0.999   1.913  0.5719 -0.0210 -0.3661
 2085Sol     HW11424   1.797   0.912   1.951 -1.5984 -0.1957 -1.0191
 2085Sol     HW11425   1.853   0.987   1.832 -1.3922 -1.0805 -1.4832
 2085Sol     MW11426   1.807   0.990   1.909 -0.3308 -0.0898  0.0489
 2086Sol     OW11427   2.323   0.178   8.780 -0.1411  0.2129 -0.3423
 2086Sol     HW11428   2.262   0.190   8.853  1.9255  1.4324  1.2555
 2086Sol     HW11429   2.348   0.086   8.784 -1.3673 -0.1339 -0.5922
 2086Sol     MW11430   2.320   0.171   8.787 -0.3502  0.0166  0.3040
 2087Sol     OW11431   2.873   0.160   1.599  0.8399  0.2559 -0.1955
 2087Sol     HW11432   2.896   0.069   1.618 -0.8752  0.0582  1.1065
 2087Sol     HW11433   2.927   0.212   1.658 -1.1164 -0.1442  2.0285
 2087Sol     MW11434   2.880   0.157   1.606 -0.1701 -0.3495 -0.5282
 2088Sol     OW11435   0.490   2.929   5.495  0.4688 -0.5580 -0.0956
 2088Sol     HW11436   0.418   2.900   5.438 -0.1250  0.9588 -0.1457
 2088Sol     HW11437   0.529   2.848   5.528 -2.0221 -1.4007  0.8965
 2088Sol     MW11438   0.487   2.919   5.492 -0.0409  0.1977  0.1160
 2089Sol     OW11439   2.922   0.377   5.411 -0.3600 -0.3703 -0.5107
 2089Sol     HW11440   2.993   0.341   5.465 -1.1042  0.1395  0.8441
 2089Sol     HW11441   2.926   0.472   5.427 -1.0343 -0.2910 -0.8200
 2089Sol     MW11442   2.929   0.383   5.417  0.1852  0.0970  0.4566
 2090Sol     OW11443   3.094   3.178   3.959  0.1762  0.7337 -0.1363
 2090Sol     HW11444   3.030   3.182   3.888 -1.1849 -0.4272  0.9953
 2090Sol     HW11445   3.090   3.265   4.000 -1.9652  0.1393  0.9967
 2090Sol     MW11446   3.088   3.186   3.956  0.0918 -0.7734  0.1661
 2091Sol     OW11447   2.237   0.381   8.308  0.2344  0.1659  0.3010
 2091Sol     HW11448   2.236   0.335   8.391  3.2695  0.5291  0.5884
 2091Sol     HW11449   2.252   0.473   8.331 -0.5236  0.5199 -0.5646
 2091Sol     MW11450   2.238   0.385   8.317  0.7352 -0.0896 -0.4714
 2092Sol     OW11451   0.594   1.080   6.380  0.0632  0.4024 -0.1101
 2092Sol     HW11452   0.678   1.076   6.336 -0.1356 -0.1998 -0.4389
 2092Sol     HW11453   0.539   1.133   6.323  0.5644  1.7986  0.6863
 2092Sol     MW11454   0.597   1.084   6.371 -0.6369  0.7132  0.3856
 2093Sol     OW11455   1.077   1.063   7.955 -0.5201 -0.6238  0.1664
 2093Sol     HW11456   1.065   1.158   7.960  1.5669 -0.2889 -0.5720
 2093Sol     HW11457   1.077   1.043   7.861 -0.3135 -1.2735  0.2983
 2093Sol     MW11458   1.076   1.070   7.947 -0.6467  0.2408  0.4553
 2094Sol     OW11459   0.797   3.137   8.925 -0.2917  0.3129 -0.4127
 2094Sol     HW11460   0.821   3.230   8.928  0.7790  0.0886 -1.6117
 2094Sol     HW11461   0.786   3.118   8.832 -1.2854 -0.5730 -0.1188
 2094Sol     MW11462   0.798   3.144   8.917  0.2633 -0.0074 -0.0134
 2095Sol     OW11463   3.080   1.725   2.657 -0.4910 -0.2809  0.5370
 2095Sol     HW11464   3.135   1.746   2.582 -1.0688  1.0832  0.4921
 2095Sol     HW11465   3.113   1.781   2.727 -0.1926 -1.2838  1.2153
 2095Sol     MW11466   3.088   1.732   2.657  0.0248  0.1351 -0.1092
 2096Sol     OW11467   2.184   1.572   3.566  0.0638 -0.0777  1.1199
 2096Sol     HW11468   2.195   1.654   3.614  0.9226  0.3733  0.1725
 2096Sol     HW11469   2.091   1.551   3.575 -0.7843  2.4898 -1.0083
 2096Sol     MW11470   2.177   1.578   3.571  0.2852  0.1432  0.1775
 2097Sol     OW11471   1.938   2.498   6.535 -0.0018 -0.3780  0.9379
 2097Sol     HW11472   1.992   2.575   6.515 -0.2811 -0.1038  1.2545
 2097Sol     HW11473   1.853   2.517   6.496 -0.0764 -0.5200  1.0306
 2097Sol     MW11474   1.935   2.507   6.530  0.2079  0.0709 -0.0683
 2098Sol     OW11475   3.226   1.435   9.768  0.0649  0.9432  0.1721
 2098Sol     HW11476   3.148   1.411   9.718  0.9670 -1.4331 -0.1417
 2098Sol     HW11477   3.200   1.513   9.818 -1.6142  1.8540 -2.0714
 2098Sol     MW11478   3.217   1.440   9.768  0.0719 -0.8011 -0.4318
 2099Sol     OW11479   2.108   0.691   1.615  0.2708 -0.5682  0.6459
 2099Sol     HW11480   2.066   0.777   1.608 -0.1050 -0.8399 -0.6076
 2099Sol     HW11481   2.161   0.697   1.694  1.5064  1.3851 -0.2898
 2099Sol     MW11482   2.109   0.699   1.621  0.1273 -0.1420 -0.0305
 2100Sol     OW11483   3.053   1.265   9.605 -0.1848  0.3341  0.2632
 2100Sol     HW11484   2.962   1.279   9.631  0.0282 -0.7176  1.6418
 2100Sol     HW11485   3.057   1.292   9.514 -1.6422  1.3706  0.4880
 2100Sol     MW11486   3.045   1.269   9.600 -0.0248 -0.0823  0.6027
 2101Sol     OW11487   2.135   1.308   8.295 -0.2706  0.1729  0.3177
 2101Sol     HW11488   2.224   1.333   8.272 -0.1418  1.0508  1.7256
 2101Sol     HW11489   2.123   1.222   8.255  1.5813 -0.4221  1.0051
 2101Sol     MW11490   2.142   1.302   8.289 -0.4337  0.6513  0.1157
 2102Sol     OW11491   2.409   1.272   6.847 -0.5968 -0.0253  0.1291
 2102Sol     HW11492   2.342   1.222   6.801  1.0558 -0.8845 -1.4025
 2102Sol     HW11493   2.466   1.306   6.778  1.4335 -0.6098  1.4686
 2102Sol     MW11494   2.408   1.271   6.837 -0.3281 -0.0834  0.6278
 2103Sol     OW11495   1.300   0.948   8.098 -0.0706 -0.3130 -0.4434
 2103Sol     HW11496   1.244   1.016   8.062 -0.4846  0.0612  0.8870
 2103Sol     HW11497   1.240   0.882   8.133  0.3042 -0.1355  0.5615
 2103Sol     MW11498   1.290   0.948   8.098 -0.2088  0.1668  0.6172
 2104Sol     OW11499   2.823   2.564   8.240  0.2547  0.2255  0.3042
 2104Sol     HW11500   2.773   2.554   8.159  1.8661  0.4447 -0.7162
 2104Sol     HW11501   2.912   2.539   8.217  0.9331  1.2379  1.7579
 2104Sol     MW11502   2.826   2.561   8.231 -0.1645 -0.2331 -0.5798
 2105Sol     OW11503   1.769   1.281   6.913  0.0238  0.1962 -0.7242
 2105Sol     HW11504   1.739   1.292   6.823  1.9828  2.0983 -1.1868
 2105Sol     HW11505   1.697   1.312   6.967 -0.3132  1.1452 -1.7062
 2105Sol     MW11506   1.760   1.284   6.910 -0.1779  0.1681 -0.2373
 2106Sol     OW11507   0.838   0.175   4.300  0.3325  0.0302  0.5673
 2106Sol     HW11508   0.846   0.083   4.327 -0.3735 -0.2830 -0.2699
 2106Sol     HW11509   0.857   0.175   4.207 -0.1845  0.6548  0.4547
 2106Sol     MW11510   0.840   0.167   4.294  0.3057 -0.2463 -0.0880
 2107Sol     OW11511   1.661   1.679   5.250  0.1198  0.2317  0.2951
 2107Sol     HW11512   1.586   1.736   5.236  0.8320  1.1231  0.0827
 2107Sol     HW11513   1.672   1.677   5.345 -1.1609 -1.2101  0.4413
 2107Sol     MW11514   1.656   1.684   5.258  0.0363 -0.1761 -0.2805
 2108Sol     OW11515   0.205   2.394   9.232 -0.4260  0.2089  0.3535
 2108Sol     HW11516   0.146   2.339   9.181 -1.1914 -0.1523  1.6208
 2108Sol     HW11517   0.292   2.355   9.217 -0.9807 -1.4431  1.3670
 2108Sol     MW11518   0.208   2.386   9.226  0.2511  0.0619  0.0659
 2109Sol     OW11519   1.892   3.117   4.426 -0.1735 -0.0239  0.4086
 2109Sol     HW11520   1.850   3.202   4.414 -0.9323 -0.3760  0.5154
 2109Sol     HW11521   1.982   3.138   4.451  0.2049  0.7292 -1.5270
 2109Sol     MW11522   1.896   3.127   4.427 -0.2716  0.0088 -0.1844
 2110Sol     OW11523   0.534   2.071   2.949 -0.2169 -0.3492 -0.4799
 2110Sol     HW11524   0.623   2.048   2.923  0.0284  0.1798 -0.1319
 2110Sol     HW11525   0.502   2.128   2.879 -0.4870 -1.0082 -0.8867
 2110Sol     MW11526   0.539   2.074   2.940 -0.0117 -0.3874 -0.9214
 2111Sol     OW11527   1.203   0.729   2.944 -0.1956 -0.3183  0.6770
 2111Sol     HW11528   1.132   0.665   2.940  0.5770 -1.1647  0.1601
 2111Sol     HW11529   1.159   0.814   2.947 -1.2333 -0.8717  1.3718
 2111Sol     MW11530   1.193   0.731   2.944  0.8324  0.2209  0.0858
 2112Sol     OW11531   0.411   0.027   5.344 -0.0709  0.1189 -0.1347
 2112Sol     HW11532   0.497   0.036   5.383 -0.7913  2.0440  1.0914
 2112Sol     HW11533   0.427  -0.015   5.259  2.1745  1.3781 -0.3736
 2112Sol     MW11534   0.420   0.024   5.340 -0.2767  0.2054  0.7633
 2113Sol     OW11535   1.479   0.313   7.782  0.0652  0.4929  0.4839
 2113Sol     HW11536   1.427   0.314   7.862  1.2548  2.1075  1.2600
 2113Sol     HW11537   1.501   0.221   7.768 -0.0158  0.2317  2.0747
 2113Sol     MW11538   1.476   0.305   7.788  0.4658  0.2787  0.2021
 2114Sol     OW11539   2.689   1.878   8.148  0.2974 -0.1396  0.0674
 2114Sol     HW11540   2.761   1.936   8.121 -0.6369  0.5767 -0.9474
 2114Sol     HW11541   2.632   1.934   8.201 -0.3162 -0.2831 -0.4409
 2114Sol     MW11542   2.691   1.888   8.150  0.6679 -0.7285  0.3356
 2115Sol     OW11543   0.961   2.378   4.522 -0.2032 -0.1776  0.5303
 2115Sol     HW11544   1.041   2.361   4.571  0.6034  1.8189 -0.0604
 2115Sol     HW11545   0.970   2.468   4.491 -2.5718  0.0034  0.2592
 2115Sol     MW11546   0.969   2.384   4.523  0.0302 -0.1814  0.0096
 2116Sol     OW11547   1.133   0.672   9.839  0.4644 -0.1094 -0.5061
 2116Sol     HW11548   1.084   0.751   9.864 -0.0560 -0.8880  0.9894
 2116Sol     HW11549   1.159   0.688   9.748 -1.9378  0.6504 -1.1086
 2116Sol     MW11550   1.131   0.681   9.833  0.2299  0.1914 -0.5121
 2117Sol     OW11551   0.079   0.071   8.348  0.6807 -0.1970 -0.0288
 2117Sol     HW11552   0.112   0.033   8.430 -3.6450  0.8013  2.3512
 2117Sol     HW11553   0.049  -0.005   8.298  0.6785 -0.6100  0.5856
 2117Sol     MW11554   0.079   0.061   8.351  0.6602 -0.5384 -0.8379
 2118Sol     OW11555   2.658   2.814   6.835  0.3214 -0.0979 -0.0482
 2118Sol     HW11556   2.569   2.823   6.868  0.4986  1.4571  0.0404
 2118Sol     HW11557   2.712   2.802   6.914  0.3918  0.7356  0.0410
 2118Sol     MW11558   2.655   2.814   6.845  0.1524  0.3004 -1.0378
 2119Sol     OW11559   3.087   2.207   2.656  0.1216  0.2111 -0.3330
 2119Sol     HW11560   3.072   2.269   2.585 -0.0140  1.4237  0.7425
 2119Sol     HW11561   3.004   2.160   2.666 -0.4236  1.2867  0.2163
 2119Sol     MW11562   3.078   2.208   2.651 -0.5694 -0.1148  0.0867
 2120Sol     OW11563   0.505   2.648   8.218 -0.8450 -0.6508 -0.0899
 2120Sol     HW11564   0.547   2.734   8.223 -2.0326 -0.0397 -0.5626
 2120Sol     HW11565   0.565   2.590   8.266  0.7801  0.0999 -1.1631
 2120Sol     MW11566   0.514   2.650   8.223 -0.0023 -0.1782  0.4101
 2121Sol     OW11567   1.195   0.465   1.976  0.4586  0.4988  0.1774
 2121Sol     HW11568   1.240   0.484   1.893 -0.7709 -0.7613 -0.8056
 2121Sol     HW11569   1.217   0.375   1.995 -0.3728  0.3560  0.4934
 2121Sol     MW11570   1.201   0.459   1.970  0.4195 -0.3076 -0.2762
 2122Sol     OW11571   0.777   1.241   3.498  0.5902  0.7193  0.7947
 2122Sol     HW11572   0.696   1.287   3.519  1.4021  1.8426  1.5358
 2122Sol     HW11573   0.772   1.225   3.404  0.0022  1.7551  0.6456
 2122Sol     MW11574   0.769   1.244   3.491  0.4875 -0.2122  0.6963
 2123Sol     OW11575   0.011   0.201   3.704  0.0608  0.3388  0.0555
 2123Sol     HW11576  -0.024   0.281   3.664  1.2867  0.8165 -0.1092
 2123Sol     HW11577   0.074   0.168   3.639  0.0071 -0.4314  0.3908
 2123Sol     MW11578   0.014   0.205   3.694  0.3741  0.4813 -0.5557
 2124Sol     OW11579   0.698   0.129   7.875  0.6768  0.1879  0.6256
 2124Sol     HW11580   0.718   0.141   7.782 -0.1698 -1.8514  0.1658
 2124Sol     HW11581   0.649   0.208   7.898  0.6589  0.5970 -0.7324
 2124Sol     MW11582   0.695   0.138   7.869  0.3651 -0.1662 -0.3131
 2125Sol     OW11583   0.682   3.361   5.275 -0.0771 -0.1663  0.0654
 2125Sol     HW11584   0.664   3.270   5.301  0.2461  0.0617  1.1092
 2125Sol     HW11585   0.676   3.411   5.356  0.8843  0.5760 -0.3082
 2125Sol     MW11586   0.680   3.357   5.284 -0.8803  0.6616  0.2411
 2126Sol     OW11587   0.314   1.513   4.564 -0.0122 -0.4952 -0.1513
 2126Sol     HW11588   0.265   1.591   4.537  0.6558 -0.2243 -0.5903
 2126Sol     HW11589   0.269   1.441   4.520  0.2747 -0.1918 -0.9621
 2126Sol     MW11590   0.305   1.514   4.558  0.2458 -0.3881  0.0696
 2127Sol     OW11591   3.279   3.004   1.995 -0.4709  0.1244 -0.1885
 2127Sol     HW11592   3.297   3.090   1.957  0.6592 -0.2886 -0.6123
 2127Sol     HW11593   3.184   2.995   1.990 -0.4028  0.3095 -2.4136
 2127Sol     MW11594   3.272   3.011   1.991  0.2861  0.2269  0.3751
 2128Sol     OW11595   0.036   0.010   7.209  0.1133  0.1566 -0.0996
 2128Sol     HW11596   0.058  -0.037   7.289 -0.3370  0.1968  0.0494
 2128Sol     HW11597  -0.059   0.001   7.201  0.1264  0.3545 -0.5019
 2128Sol     MW11598   0.030   0.005   7.215 -0.1151 -0.3310 -0.1232
 2129Sol     OW11599   0.722   3.399   3.466  0.0081  0.3008  0.3296
 2129Sol     HW11600   0.630   3.424   3.472 -0.3253 -0.9389  0.4512
 2129Sol     HW11601   0.753   3.442   3.386 -0.9855 -0.2652 -0.3744
 2129Sol     MW11602   0.717   3.405   3.459  0.1450 -0.2376 -0.5027
 2130Sol     OW11603   1.227   3.401   6.506  0.1817  0.1093 -0.3033
 2130Sol     HW11604   1.298   3.341   6.484  0.5140  0.3473  0.1145
 2130Sol     HW11605   1.222   3.398   6.601  1.3852  2.1108 -0.1737
 2130Sol     MW11606   1.233   3.395   6.512  0.1560 -0.0300 -0.3633
 2131Sol     OW11607   1.066   2.326   4.223 -0.8154 -0.3966 -0.3619
 2131Sol     HW11608   1.116   2.402   4.252  1.1733 -1.7958 -0.0412
 2131Sol     HW11609   1.026   2.292   4.303 -0.7179 -0.4029 -0.3160
 2131Sol     MW11610   1.066   2.330   4.233  0.4609 -0.2924 -0.0480
 2132Sol     OW11611   1.328   1.117   3.695 -0.1263 -0.2317 -0.0152
 2132Sol     HW11612   1.324   1.063   3.616  0.8363  1.2401 -1.1112
 2132Sol     HW11613   1.381   1.065   3.756  2.7674  0.3858 -1.8642
 2132Sol     MW11614   1.333   1.107   3.693  0.2822 -0.0979  0.4719
 2133Sol     OW11615   0.819   3.173   4.635  0.3427  0.1759  0.6301
 2133Sol     HW11616   0.879   3.116   4.681  1.9799  1.1962 -0.1995
 2133Sol     HW11617   0.795   3.240   4.699  1.1957  0.5651  0.5482
 2133Sol     MW11618   0.822   3.174   4.645  0.0494 -0.5805 -0.0095
 2134Sol     OW11619   2.783   1.572   9.300  0.3718 -0.0724 -0.2319
 2134Sol     HW11620   2.828   1.617   9.228 -0.5684  0.2568 -0.6174
 2134Sol     HW11621   2.715   1.633   9.328  0.9945 -0.0129  1.2442
 2134Sol     MW11622   2.781   1.582   9.296  0.0819 -0.0065  0.1163
 2135Sol     OW11623   1.812   2.000   3.245  0.1814 -0.0109  0.6117
 2135Sol     HW11624   1.819   1.933   3.312 -0.4042 -0.4536  0.2316
 2135Sol     HW11625   1.732   1.978   3.197  0.5312  0.3666 -0.1535
 2135Sol     MW11626   1.806   1.992   3.246  0.1070  0.2005 -0.1914
 2136Sol     OW11627   0.382   3.058   1.547 -0.6496 -0.2401  0.4017
 2136Sol     HW11628   0.338   2.973   1.538 -0.8485 -0.2278  1.2228
 2136Sol     HW11629   0.468   3.044   1.507 -0.7664 -0.7684  0.3267
 2136Sol     MW11630   0.386   3.049   1.543  0.1332  0.9927  0.4233
 2137Sol     OW11631   2.981   3.411   3.014 -0.4397  0.2193 -0.5392
 2137Sol     HW11632   2.929   3.375   3.086 -0.5919  0.3929 -0.5641
 2137Sol     HW11633   2.959   3.355   2.939 -1.3373  0.8931 -0.7912
 2137Sol     MW11634   2.975   3.402   3.014  0.4027 -0.3396 -0.2748
 2138Sol     OW11635   1.676   2.661   3.393 -0.4229  0.1457 -0.0152
 2138Sol     HW11636   1.582   2.659   3.377 -0.2804  1.5666 -1.1162
 2138Sol     HW11637   1.715   2.677   3.307  0.7881  0.0820  0.5139
 2138Sol     MW11638   1.671   2.662   3.384 -0.1608  0.2552 -0.0092
 2139Sol     OW11639   0.130   2.132   9.749 -0.4125  0.0692 -0.2221
 2139Sol     HW11640   0.148   2.038   9.756 -1.5308 -0.1807 -0.5274
 2139Sol     HW11641   0.147   2.153   9.657 -0.2227  0.1528 -0.1680
 2139Sol     MW11642   0.133   2.125   9.741  0.0755  0.3036 -0.0605
 2140Sol     OW11643   2.038   1.108   7.776  0.1786  0.2296  0.1636
 2140Sol     HW11644   2.097   1.172   7.816 -0.1343  0.6581 -0.0554
 2140Sol     HW11645   2.000   1.154   7.701 -2.4466  0.8985  1.8410
 2140Sol     MW11646   2.040   1.118   7.773 -0.1792  0.2336 -0.2150
 2141Sol     OW11647   2.386   0.226   1.854  0.5092  0.1236 -0.0761
 2141Sol     HW11648   2.357   0.224   1.945 -0.5459 -1.4443 -0.4190
 2141Sol     HW11649   2.431   0.142   1.842  0.8431  0.4170 -0.9355
 2141Sol     MW11650   2.388   0.218   1.861 -0.2530  0.0993  0.1936
 2142Sol     OW11651   2.127   3.073   6.352 -0.5398  0.3400  0.2088
 2142Sol     HW11652   2.032   3.076   6.358 -0.4490  1.3724  1.3507
 2142Sol     HW11653   2.156   3.157   6.386  0.8482 -0.5736  1.3592
 2142Sol     MW11654   2.121   3.081   6.355  0.0434  0.4494  0.3035
 2143Sol     OW11655   1.807   2.764   9.536 -0.1390 -0.2012  0.4748
 2143Sol     HW11656   1.844   2.754   9.624 -0.3329  1.9633  0.8273
 2143Sol     HW11657   1.881   2.790   9.481 -0.2375 -0.4737  0.2082
 2143Sol     MW11658   1.817   2.765   9.539 -0.3093 -0.1599  0.1369
 2144Sol     OW11659   1.943   0.344   2.658  0.2023  0.1051  0.5810
 2144Sol     HW11660   2.001   0.402   2.707 -0.5580  0.1770  1.3971
 2144Sol     HW11661   1.870   0.400   2.633  0.2493 -0.1076 -0.0401
 2144Sol     MW11662   1.942   0.354   2.660  0.5453 -0.5530  0.2643
 2145Sol     OW11663   0.195   3.427   4.066  0.5864 -0.4574 -0.0960
 2145Sol     HW11664   0.259   3.437   4.137  1.6786 -0.9820 -0.9992
 2145Sol     HW11665   0.144   3.350   4.091 -0.4124  0.5732  1.1557
 2145Sol     MW11666   0.196   3.421   4.075  0.4469  0.4338 -0.2359
 2146Sol     OW11667   2.612   1.976   6.754 -0.5210  0.0716 -0.0814
 2146Sol     HW11668   2.541   1.972   6.818 -0.7068  1.8095 -0.1681
 2146Sol     HW11669   2.691   1.985   6.807 -0.5452  0.1433 -0.0579
 2146Sol     MW11670   2.613   1.976   6.765 -0.6157  0.8557 -0.2821
 2147Sol     OW11671   2.432   1.312   3.193 -0.2075  0.3929 -0.4098
 2147Sol     HW11672   2.467   1.399   3.174  0.0050  0.8129  1.7778
 2147Sol     HW11673   2.362   1.328   3.256 -0.6779 -0.9633 -0.5853
 2147Sol     MW11674   2.429   1.321   3.197  0.1448 -0.3417  0.1012
 2148Sol     OW11675   3.267   0.439   3.570  0.6227 -0.7052 -0.9134
 2148Sol     HW11676   3.287   0.511   3.630  1.0152 -1.8441  0.3650
 2148Sol     HW11677   3.313   0.461   3.489  0.1819  0.8048 -0.7692
 2148Sol     MW11678   3.272   0.447   3.568 -0.0398 -0.4484 -0.3505
 2149Sol     OW11679   2.164   0.532   5.304  0.1479  0.0627 -0.3628
 2149Sol     HW11680   2.135   0.621   5.281 -1.9644 -0.5164 -0.1092
 2149Sol     HW11681   2.085   0.479   5.294  1.1031 -1.5760  0.6724
 2149Sol     MW11682   2.154   0.535   5.301  0.6714 -0.2822 -0.1622
 2150Sol     OW11683   2.040   3.160   6.765 -0.0660 -0.2207  0.7010
 2150Sol     HW11684   2.005   3.098   6.701  0.3558 -0.1698  0.4141
 2150Sol     HW11685   2.129   3.130   6.781  0.8648  1.4838 -1.0193
 2150Sol     MW11686   2.045   3.152   6.761 -0.7829 -0.1874 -0.2022
 2151Sol     OW11687   0.729   2.722   4.767 -0.1263  0.1062 -0.0515
 2151Sol     HW11688   0.672   2.647   4.782 -0.7327  0.4895 -0.3807
 2151Sol     HW11689   0.781   2.729   4.846 -1.0108  0.1514  0.5375
 2151Sol     MW11690   0.728   2.716   4.775 -0.4954  0.4634 -0.4041
 2152Sol     OW11691   0.720   0.547   7.564  0.0710 -0.0196 -0.0959
 2152Sol     HW11692   0.730   0.640   7.547 -1.8040  0.2203  0.0979
 2152Sol     HW11693   0.809   0.517   7.585  0.8172  1.5503 -0.9179
 2152Sol     MW11694   0.729   0.552   7.564  0.2089  0.0359 -0.1604
 2153Sol     OW11695   3.287   0.106   4.114  0.2176  0.1348  0.7781
 2153Sol     HW11696   3.349   0.033   4.108 -2.2323 -1.9590  0.0007
 2153Sol     HW11697   3.329   0.178   4.067  1.1424 -1.8780 -1.5520
 2153Sol     MW11698   3.297   0.106   4.110  0.6114 -0.3115  0.4361
 2154Sol     OW11699   1.381   0.391   6.946 -0.3563 -0.4825  0.0829
 2154Sol     HW11700   1.449   0.458   6.946 -1.9366  1.1534 -1.0295
 2154Sol     HW11701   1.389   0.349   7.032  1.0426  0.7099  0.5591
 2154Sol     MW11702   1.388   0.393   6.954 -0.2266  0.3673 -0.1644
 2155Sol     OW11703   2.655   0.782   1.650  0.3273 -0.1546 -0.4194
 2155Sol     HW11704   2.571   0.768   1.607  0.1574 -1.0229  0.1962
 2155Sol     HW11705   2.678   0.697   1.686  1.3609  0.1334 -0.3845
 2155Sol     MW11706   2.650   0.773   1.649  0.0535 -0.9246  0.0801
 2156Sol     OW11707   1.036   1.548   2.194  0.3010  0.3742  0.1182
 2156Sol     HW11708   1.002   1.479   2.250  0.9063 -0.1197 -0.1152
 2156Sol     HW11709   0.973   1.620   2.202 -0.1436 -0.0759  0.6303
 2156Sol     MW11710   1.027   1.548   2.200  1.1631  0.0873 -0.3646
 2157Sol     OW11711   0.206   1.184   1.985 -0.5154 -0.5634 -0.5686
 2157Sol     HW11712   0.218   1.277   1.969  1.6035 -0.5981  0.5212
 2157Sol     HW11713   0.237   1.141   1.906 -1.2010 -0.3623 -0.9491
 2157Sol     MW11714   0.210   1.188   1.977 -0.1495 -0.4952 -0.2703
 2158Sol     OW11715   1.491   2.566   6.718 -0.3622 -0.0259  0.3492
 2158Sol     HW11716   1.461   2.482   6.685 -0.8798  0.6368 -0.8777
 2158Sol     HW11717   1.586   2.557   6.725 -0.0695  0.2883 -2.6936
 2158Sol     MW11718   1.497   2.558   6.716 -0.2571 -0.8332  0.0067
 2159Sol     OW11719   0.079   3.193   6.388 -0.2378  0.1964  0.2695
 2159Sol     HW11720   0.144   3.208   6.456  1.3087 -0.9994 -0.9288
 2159Sol     HW11721   0.062   3.280   6.351  0.7338  0.4940  0.5163
 2159Sol     MW11722   0.083   3.202   6.391  0.3140  0.4163  0.1377
 2160Sol     OW11723   2.310   3.224   8.572  0.6114  0.3957  0.2858
 2160Sol     HW11724   2.236   3.232   8.512  0.1610  1.0479  0.9148
 2160Sol     HW11725   2.383   3.196   8.517 -0.0198  0.0677 -0.4008
 2160Sol     MW11726   2.310   3.222   8.562 -0.6717 -0.4647 -0.3529
 2161Sol     OW11727   2.769   2.892   6.440  0.2900 -0.2096  0.1201
 2161Sol     HW11728   2.700   2.939   6.393  0.0376 -1.3837 -0.6896
 2161Sol     HW11729   2.766   2.928   6.529  0.3393  1.5621 -0.5763
 2161Sol     MW11730   2.763   2.900   6.444 -0.4971  0.0394 -0.0912
 2162Sol     OW11731   1.949   3.247   6.042  0.4766  0.0480 -0.2439
 2162Sol     HW11732   2.018   3.301   6.082  0.4159 -0.4156  0.5027
 2162Sol     HW11733   1.868   3.292   6.064  0.3932 -0.5800  0.7751
 2162Sol     MW11734   1.948   3.256   6.048  0.5375  0.4141  0.2980
 2163Sol     OW11735   0.886   2.227   2.421 -0.0980  0.4113  0.5506
 2163Sol     HW11736   0.836   2.200   2.344  0.5749  1.3568 -0.2306
 2163Sol     HW11737   0.947   2.156   2.436 -0.2870  0.1860  0.2523
 2163Sol     MW11738   0.887   2.219   2.415  0.4113 -0.1471 -0.7859
 2164Sol     OW11739   0.444   2.352   3.863  0.0150 -0.0468 -0.1194
 2164Sol     HW11740   0.532   2.381   3.839 -0.0270 -0.1363 -0.3842
 2164Sol     HW11741   0.399   2.342   3.779 -0.8210  1.7858  0.0996
 2164Sol     MW11742   0.448   2.353   3.853  0.3237  0.2752 -0.0930
 2165Sol     OW11743   3.279   2.956   6.261  0.2509 -0.3200  0.2033
 2165Sol     HW11744   3.349   2.996   6.313 -0.4768 -0.6427  1.4413
 2165Sol     HW11745   3.204   2.954   6.320  0.0687 -2.8524 -0.0794
 2165Sol     MW11746   3.279   2.960   6.271 -0.1825 -0.3801  0.0954
 2166Sol     OW11747   2.844   2.345   4.566  0.0177 -0.6440 -0.0472
 2166Sol     HW11748   2.872   2.275   4.507  0.3250  0.4365 -1.2063
 2166Sol     HW11749   2.902   2.419   4.545 -1.6363  0.6163 -0.2870
 2166Sol     MW11750   2.852   2.345   4.559  0.5521  0.2808  0.0248
 2167Sol     OW11751   2.765   2.482   4.294  0.0665  0.4003 -0.0526
 2167Sol     HW11752   2.698   2.441   4.239  1.4202  0.9290 -2.1474
 2167Sol     HW11753   2.811   2.408   4.334 -0.1205 -0.0315 -0.6275
 2167Sol     MW11754   2.763   2.471   4.293  0.1320 -0.6839  0.5510
 2168Sol     OW11755   0.784   2.038   2.872  0.1213 -0.1924  0.2767
 2168Sol     HW11756   0.823   2.046   2.959 -0.7532 -1.9461  0.8530
 2168Sol     HW11757   0.791   1.944   2.851 -2.2483 -0.2550 -0.3131
 2168Sol     MW11758   0.788   2.030   2.878  0.3497  0.4313 -0.5129
 2169Sol     OW11759   2.048   1.263   8.592  0.9471 -0.0653  0.2710
 2169Sol     HW11760   1.977   1.209   8.558  0.5189 -1.5237  3.2931
 2169Sol     HW11761   2.127   1.224   8.556  0.3211  0.7030 -1.9899
 2169Sol     MW11762   2.048   1.255   8.586 -0.4047  0.3121  0.1856
 2170Sol     OW11763   0.343   1.112   8.195  0.3411 -0.6386 -0.4311
 2170Sol     HW11764   0.336   1.043   8.261  0.6048 -1.0670 -0.8468
 2170Sol     HW11765   0.289   1.183   8.229 -1.3449 -1.7000 -0.8190
 2170Sol     MW11766   0.337   1.112   8.204  0.0153  0.3484 -0.1364
 2171Sol     OW11767   3.226   2.861   7.501 -0.3797  0.1489 -0.1900
 2171Sol     HW11768   3.182   2.937   7.462 -0.3412  0.7033  0.8239
 2171Sol     HW11769   3.167   2.832   7.570  0.9556  1.0932  1.3909
 2171Sol     MW11770   3.217   2.866   7.504 -0.3461 -0.0867 -1.1348
 2172Sol     OW11771   1.555   2.232   3.145  0.5447  0.2536  0.1439
 2172Sol     HW11772   1.476   2.263   3.189  0.2751  1.3592 -1.0891
 2172Sol     HW11773   1.626   2.250   3.206  0.1930  1.8762  0.0940
 2172Sol     MW11774   1.554   2.236   3.154 -0.5049 -0.1325  0.0946
 2173Sol     OW11775   1.371   2.554   5.302  0.1235  0.3659 -0.1529
 2173Sol     HW11776   1.370   2.637   5.254  0.2006  0.2809 -0.3035
 2173Sol     HW11777   1.286   2.513   5.280  0.3603  0.1088 -0.6063
 2173Sol     MW11778   1.363   2.558   5.296  0.0489 -0.2012  0.0138
 2174Sol     OW11779   1.088   1.392   6.188 -0.2410  0.2166 -0.0006
 2174Sol     HW11780   1.088   1.483   6.159  0.3113  0.1312 -0.2765
 2174Sol     HW11781   1.002   1.380   6.228 -0.6197  0.6345 -0.6765
 2174Sol     MW11782   1.080   1.399   6.189 -0.7138 -0.5232  0.3517
 2175Sol     OW11783   3.014   2.713   8.009  0.3503 -0.5664  0.2763
 2175Sol     HW11784   3.029   2.760   8.092 -1.4241 -1.5924  1.2173
 2175Sol     HW11785   3.098   2.672   7.989  0.1290 -2.3965  2.9232
 2175Sol     MW11786   3.023   2.714   8.015 -0.2301  0.0047  0.3910
 2176Sol     OW11787   0.294   2.587   7.440 -0.1896 -0.4497 -0.3344
 2176Sol     HW11788   0.293   2.506   7.389 -0.2490 -0.6365 -0.0396
 2176Sol     HW11789   0.202   2.603   7.461 -0.1509 -0.4399 -0.1765
 2176Sol     MW11790   0.286   2.581   7.437 -0.4696 -0.6532  0.0670
 2177Sol     OW11791   2.751   0.682   5.147 -0.1227 -0.3745  0.1053
 2177Sol     HW11792   2.826   0.652   5.097 -1.1035 -2.4612 -0.1362
 2177Sol     HW11793   2.751   0.777   5.136  2.7101 -0.2969  0.4548
 2177Sol     MW11794   2.757   0.688   5.142 -0.4980 -0.0096  0.3903
 2178Sol     OW11795   0.865   2.116   8.271  0.0333  0.0442 -0.6753
 2178Sol     HW11796   0.787   2.142   8.222  0.1076  1.3013 -0.1539
 2178Sol     HW11797   0.916   2.064   8.209  0.2561  1.8316 -2.0345
 2178Sol     MW11798   0.862   2.114   8.261  0.1146 -0.1114  0.0616
 2179Sol     OW11799   3.183   1.128   8.042  0.1674 -0.4318 -0.3738
 2179Sol     HW11800   3.261   1.084   8.078  0.0688 -1.4084 -1.3316
 2179Sol     HW11801   3.120   1.057   8.029 -1.3139  0.5032  1.4648
 2179Sol     MW11802   3.184   1.118   8.044 -0.5976 -0.2078 -0.6883
 2180Sol     OW11803   0.559   2.946   6.762  0.2950  0.1644 -0.0864
 2180Sol     HW11804   0.534   2.946   6.670  1.0663 -0.6083 -0.3029
 2180Sol     HW11805   0.636   2.889   6.766  0.9082  1.0381  0.8617
 2180Sol     MW11806   0.564   2.941   6.754 -0.1661  1.1558 -0.0912
 2181Sol     OW11807   0.361   3.402   7.647  0.4332  0.2571  0.1962
 2181Sol     HW11808   0.311   3.408   7.728  0.8956 -0.6256  0.5536
 2181Sol     HW11809   0.413   3.323   7.657  1.1148  0.5953 -0.6158
 2181Sol     MW11810   0.361   3.396   7.655  0.8296  0.5744 -0.4642
 2182Sol     OW11811   0.374   0.098   4.857 -0.2996 -0.3912 -0.0663
 2182Sol     HW11812   0.444   0.128   4.798  0.1913  0.4068  0.8992
 2182Sol     HW11813   0.330   0.028   4.809 -1.1606  1.5525 -2.1689
 2182Sol     MW11814   0.377   0.095   4.848  0.0532 -0.3980  0.7650
 2183Sol     OW11815   2.738   2.781   7.989 -0.2837  0.0538 -0.6618
 2183Sol     HW11816   2.833   2.770   7.984 -0.1467  1.1827 -0.6927
 2183Sol     HW11817   2.704   2.693   8.000  0.8916 -0.1799  1.2605
 2183Sol     MW11818   2.743   2.772   7.990  0.2533 -0.2627 -0.1114
 2184Sol     OW11819   1.739   2.157   6.161 -0.2043  0.0109  0.1437
 2184Sol     HW11820   1.673   2.199   6.215 -0.3034 -0.5640  0.4754
 2184Sol     HW11821   1.698   2.076   6.132  0.3786 -0.3839  0.4106
 2184Sol     MW11822   1.729   2.153   6.163  0.1697 -0.3690  0.4029
 2185Sol     OW11823   2.977   0.819   9.493 -0.8197 -0.1310  0.3055
 2185Sol     HW11824   2.969   0.784   9.405 -2.9696  1.4502 -0.1698
 2185Sol     HW11825   3.032   0.897   9.483  3.4363 -2.7897  1.2657
 2185Sol     MW11826   2.982   0.823   9.484  0.1889  0.0065  0.0417
 2186Sol     OW11827   0.801   3.446   7.130 -0.3426 -0.0058 -0.1910
 2186Sol     HW11828   0.777   3.419   7.041 -1.1325  0.2577 -0.0673
 2186Sol     HW11829   0.738   3.400   7.186  1.7142 -2.1666  0.4430
 2186Sol     MW11830   0.793   3.439   7.127  0.0984  0.2376 -0.2514
 2187Sol     OW11831   1.402   2.721   9.245  0.2154 -0.0555  0.6838
 2187Sol     HW11832   1.484   2.693   9.286  0.5780  1.7304  1.2255
 2187Sol     HW11833   1.429   2.785   9.179 -0.7779  0.8549  1.1528
 2187Sol     MW11834   1.412   2.724   9.243  0.2137 -0.8470  0.4940
 2188Sol     OW11835   2.952   0.575   7.279 -0.2913  0.0145 -0.0052
 2188Sol     HW11836   3.038   0.568   7.237 -0.4423 -0.9873 -0.1472
 2188Sol     HW11837   2.960   0.652   7.336  0.7179 -0.1111  0.0361
 2188Sol     MW11838   2.960   0.581   7.280 -0.2807  0.1076 -0.0259
 2189Sol     OW11839   1.938   2.567   4.297  0.5896 -0.0350  0.0511
 2189Sol     HW11840   1.880   2.586   4.224  1.0047 -1.1913 -0.5891
 2189Sol     HW11841   2.021   2.607   4.274 -0.0222  1.9555  1.1425
 2189Sol     MW11842   1.940   2.572   4.289 -0.4637 -0.5262 -0.4057
 2190Sol     OW11843   1.595   2.470   4.967 -0.0662  0.0804 -0.4497
 2190Sol     HW11844   1.640   2.424   4.896  1.4041  0.3423  0.2963
 2190Sol     HW11845   1.613   2.562   4.951 -1.5436  0.3017 -0.9425
 2190Sol     MW11846   1.601   2.474   4.960  0.7097 -0.0314  0.0451
 2191Sol     OW11847   0.163   0.076   5.471 -0.1482 -0.3523  0.2216
 2191Sol     HW11848   0.238   0.061   5.414  0.5479 -1.0917  1.2941
 2191Sol     HW11849   0.158  -0.003   5.525 -0.0853  0.7975  1.9432
 2191Sol     MW11850   0.169   0.067   5.471  0.4103 -0.0780 -0.2863
 2192Sol     OW11851   1.959   3.275   7.022 -0.8672 -0.6625  0.3610
 2192Sol     HW11852   2.038   3.227   7.047  1.5758  3.5509  1.2040
 2192Sol     HW11853   1.946   3.252   6.930  2.4977 -0.0398 -0.3654
 2192Sol     MW11854   1.965   3.269   7.016 -0.2050  0.2858  0.1012
 2193Sol     OW11855   1.809   0.300   5.777  0.2181 -0.0491 -0.3070
 2193Sol     HW11856   1.902   0.277   5.773  0.1497 -0.4452  0.4547
 2193Sol     HW11857   1.807   0.380   5.830  0.1492  0.1300 -0.5756
 2193Sol     MW11858   1.817   0.305   5.781  0.1650 -0.3976  0.2777
 2194Sol     OW11859   1.221   1.922   9.715  0.7015 -0.0176 -0.0110
 2194Sol     HW11860   1.183   1.991   9.660  0.8774  0.6217  0.6589
 2194Sol     HW11861   1.250   1.968   9.794 -0.6199 -1.0989  1.1295
 2194Sol     MW11862   1.220   1.932   9.717  0.5452 -0.3215 -0.0045
 2195Sol     OW11863   0.116   1.799   7.488 -0.2489  0.2347  0.3861
 2195Sol     HW11864   0.078   1.756   7.564  0.2998 -0.7674  0.0973
 2195Sol     HW11865   0.041   1.818   7.431 -0.6063  0.6046  0.9769
 2195Sol     MW11866   0.106   1.797   7.489 -0.0216 -0.4276  0.9412
 2196Sol     OW11867   0.736   2.704   3.483  0.8894 -0.0656  0.2084
 2196Sol     HW11868   0.651   2.739   3.458  1.2851  2.0846  1.6981
 2196Sol     HW11869   0.735   2.613   3.452  0.0630  1.3899 -4.3867
 2196Sol     MW11870   0.728   2.699   3.478  0.0691 -0.0201  0.4629
 2197Sol     OW11871   0.623   3.043   3.540  0.0695  0.4514 -0.3150
 2197Sol     HW11872   0.558   3.109   3.564 -0.2209  0.4457 -1.0621
 2197Sol     HW11873   0.573   2.974   3.496  0.2693 -0.6202  1.1177
 2197Sol     MW11874   0.613   3.043   3.538  0.0168 -0.2127  0.1334
 2198Sol     OW11875   0.743   2.195   1.758  0.0890  0.3951 -0.0406
 2198Sol     HW11876   0.793   2.199   1.840 -0.2053  1.6909  0.0818
 2198Sol     HW11877   0.785   2.259   1.701  0.9039 -1.2068 -1.2674
 2198Sol     MW11878   0.751   2.201   1.761 -0.6374  0.5000 -0.3859
 2199Sol     OW11879   3.024   3.199   8.813 -0.4604  0.1092 -0.2705
 2199Sol     HW11880   2.969   3.138   8.764 -1.8649  0.2644  1.0367
 2199Sol     HW11881   3.062   3.257   8.747 -2.1786  0.2212 -1.1964
 2199Sol     MW11882   3.022   3.199   8.803  0.4581  0.0440  0.2925
 2200Sol     OW11883   1.891   2.984   8.922  0.0019  0.2550  0.1584
 2200Sol     HW11884   1.906   2.931   8.844 -0.2614  0.8046 -0.2743
 2200Sol     HW11885   1.977   3.021   8.943  0.2967 -0.7786  0.7881
 2200Sol     MW11886   1.900   2.983   8.917 -0.1771  0.0537 -0.0355
 2201Sol     OW11887   1.953   2.407   5.822  0.2385 -0.3701  0.1848
 2201Sol     HW11888   1.878   2.452   5.862 -0.1136 -1.1025  0.3640
 2201Sol     HW11889   2.029   2.440   5.870 -0.1281 -0.8330  1.0968
 2201Sol     MW11890   1.953   2.414   5.830 -0.4661  0.4767  0.4288
 2202Sol     OW11891   0.673   0.637   9.214  0.2406  0.2841  0.1630
 2202Sol     HW11892   0.593   0.627   9.162  1.5968 -1.0993 -1.7217
 2202Sol     HW11893   0.676   0.559   9.269  0.9217 -0.3196 -0.7019
 2202Sol     MW11894   0.666   0.629   9.214  0.1946  0.8086 -0.0111
 2203Sol     OW11895   3.053   0.507   4.702 -0.2682  0.6070 -0.5860
 2203Sol     HW11896   3.093   0.426   4.673  2.2171  2.3362 -2.1388
 2203Sol     HW11897   2.959   0.495   4.687 -0.0358 -2.2548  0.0284
 2203Sol     MW11898   3.048   0.499   4.698 -0.0877 -0.7587  0.6192
 2204Sol     OW11899   2.666   3.304   2.621 -0.2420  0.4514  0.5728
 2204Sol     HW11900   2.583   3.257   2.616 -0.8753  1.6392 -0.3912
 2204Sol     HW11901   2.642   3.393   2.647  1.0587 -0.0166  3.5453
 2204Sol     MW11902   2.657   3.308   2.623 -0.5292 -0.2113  0.1161
 2205Sol     OW11903   1.647   3.029   6.071  0.6245 -0.0120  0.1359
 2205Sol     HW11904   1.672   2.975   5.997 -0.0277 -2.0345  1.3441
 2205Sol     HW11905   1.600   3.103   6.032  1.2056 -0.4909 -1.5103
 2205Sol     MW11906   1.645   3.031   6.061 -1.5155  0.0259 -0.3149
 2206Sol     OW11907   2.421   3.020   7.100  0.8044  0.1628  0.6790
 2206Sol     HW11908   2.459   2.998   7.185 -2.1674 -2.4039  1.4401
 2206Sol     HW11909   2.418   2.937   7.053 -1.6291  0.7119 -0.2074
 2206Sol     MW11910   2.424   3.011   7.103 -0.1091 -0.2745 -0.2301
 2207Sol     OW11911   0.946   0.825   4.066 -0.7363 -0.4093  0.0439
 2207Sol     HW11912   1.029   0.807   4.022 -0.4084  0.0732  0.4674
 2207Sol     HW11913   0.898   0.882   4.006 -0.8243 -0.8003 -0.2623
 2207Sol     MW11914   0.949   0.828   4.057 -0.3181  0.1696 -0.0916
 2208Sol     OW11915   1.568   0.589   6.984  0.1687  0.2812  0.0473
 2208Sol     HW11916   1.612   0.655   7.038 -0.2553  1.4841 -1.0328
 2208Sol     HW11917   1.635   0.523   6.967  1.2427  1.5045 -0.5943
 2208Sol     MW11918   1.578   0.589   6.987 -0.3736 -0.6782  0.0666
 2209Sol     OW11919   2.190   0.278   4.944 -0.0746 -0.0514 -0.2225
 2209Sol     HW11920   2.254   0.207   4.932  0.9600  1.0463 -1.3147
 2209Sol     HW11921   2.152   0.291   4.857 -1.9016 -0.7873  0.4556
 2209Sol     MW11922   2.193   0.273   4.935 -0.6602 -0.0917  0.3949
 2210Sol     OW11923   2.771   1.899   6.480  0.4396  0.7182 -0.4340
 2210Sol     HW11924   2.829   1.975   6.488  0.6092  0.3762  1.8518
 2210Sol     HW11925   2.708   1.909   6.551  0.0873 -0.9801 -0.4909
 2210Sol     MW11926   2.770   1.906   6.487  0.0769  0.1540  0.1675
 2211Sol     OW11927   0.916   2.935   4.248 -0.2033  0.3080  0.0552
 2211Sol     HW11928   0.905   2.879   4.172 -1.1110  0.8981 -0.2598
 2211Sol     HW11929   0.856   2.900   4.314  1.9792 -1.3877  1.2130
 2211Sol     MW11930   0.909   2.927   4.247  0.2397  0.4055 -0.2473
 2212Sol     OW11931   0.363   0.930   2.330  0.2806 -0.3927  0.5347
 2212Sol     HW11932   0.382   1.011   2.282 -0.7379 -0.9967 -0.9120
 2212Sol     HW11933   0.345   0.866   2.262 -1.4863 -1.2072  1.7513
 2212Sol     MW11934   0.363   0.932   2.320  0.0500 -0.2203 -0.2770
 2213Sol     OW11935   1.475   0.877   3.811  0.4472  0.7214 -0.2592
 2213Sol     HW11936   1.512   0.841   3.730  2.2115  1.1415  0.3421
 2213Sol     HW11937   1.552   0.899   3.865 -0.7039  0.3402  1.5762
 2213Sol     MW11938   1.486   0.876   3.808 -0.1493  0.4371  0.4181
 2214Sol     OW11939   2.334   2.668   8.215 -0.3415  0.0034  0.5346
 2214Sol     HW11940   2.287   2.640   8.137 -1.0762  0.3934  0.8336
 2214Sol     HW11941   2.378   2.589   8.246 -0.4836 -0.2759  0.0331
 2214Sol     MW11942   2.334   2.658   8.211  0.0764 -0.0496 -0.9698
 2215Sol     OW11943   1.501   1.433   8.662  0.0007 -0.0537 -0.0488
 2215Sol     HW11944   1.407   1.418   8.657  0.1725 -0.9037 -0.8698
 2215Sol     HW11945   1.536   1.354   8.703  0.5928 -0.7080 -1.7717
 2215Sol     MW11946   1.496   1.425   8.665  0.2018 -0.5274  0.0459
 2216Sol     OW11947   0.043   0.811   9.412  0.6526  0.2742 -0.0087
 2216Sol     HW11948   0.132   0.791   9.443  0.3968  1.2347  1.3641
 2216Sol     HW11949  -0.014   0.786   9.484  0.1227  3.3837  0.7283
 2216Sol     MW11950   0.046   0.807   9.421 -0.0564  0.2093 -0.6776
 2217Sol     OW11951   0.112   3.077   7.398  0.2913  0.0207 -0.1477
 2217Sol     HW11952   0.019   3.054   7.395  0.9998 -3.0880  0.2092
 2217Sol     HW11953   0.135   3.094   7.306 -0.1689 -1.2493 -0.5121
 2217Sol     MW11954   0.106   3.076   7.389 -0.0689  0.2434  0.4408
 2218Sol     OW11955   3.186   0.856   2.905 -0.7564  0.1564  0.4432
 2218Sol     HW11956   3.141   0.827   2.825  1.4679 -0.5358 -0.6105
 2218Sol     HW11957   3.214   0.946   2.885 -1.7912  0.6491  1.1611
 2218Sol     MW11958   3.185   0.862   2.896 -0.2931 -0.2989  0.0621
 2219Sol     OW11959   2.740   2.509   2.216 -0.0899 -0.2412  0.2592
 2219Sol     HW11960   2.698   2.593   2.233  0.1475  0.2636 -1.4843
 2219Sol     HW11961   2.730   2.496   2.121 -1.2261 -2.7842  0.6923
 2219Sol     MW11962   2.736   2.515   2.209  0.4375 -0.1688  0.7530
 2220Sol     OW11963   2.503   0.712   5.856 -0.0531  0.0187 -0.0710
 2220Sol     HW11964   2.497   0.787   5.914  2.2289 -0.4766  0.8609
 2220Sol     HW11965   2.593   0.680   5.867 -0.4201 -1.7305 -1.8197
 2220Sol     MW11966   2.511   0.716   5.862 -0.6833  0.0176 -0.1983
 2221Sol     OW11967   0.214   3.126   2.782 -0.5422  0.3006  0.5742
 2221Sol     HW11968   0.303   3.160   2.790 -0.7803  0.4545  2.7310
 2221Sol     HW11969   0.223   3.049   2.726  0.8166  0.7918  0.0921
 2221Sol     MW11970   0.223   3.122   2.777 -0.0477 -0.0264 -0.1345
 2222Sol     OW11971   0.958   0.625   2.910 -0.1260 -0.7450  0.0665
 2222Sol     HW11972   0.949   0.719   2.899  1.2602 -0.4785  1.0048
 2222Sol     HW11973   0.891   0.587   2.853  0.5391  0.7567 -1.7623
 2222Sol     MW11974   0.951   0.630   2.904 -0.0540  1.1823 -0.3657
 2223Sol     OW11975   1.915   1.246   3.227 -0.5556 -0.1776 -0.0920
 2223Sol     HW11976   1.950   1.221   3.312  1.4081 -1.0582 -1.1237
 2223Sol     HW11977   1.894   1.339   3.235  3.0358  0.6761  0.2943
 2223Sol     MW11978   1.916   1.252   3.235 -0.0663  0.2365 -0.3647
 2224Sol     OW11979   0.093   3.042   8.812 -0.6290  0.5331 -0.7132
 2224Sol     HW11980   0.150   2.992   8.870 -0.0806 -0.3069 -1.9574
 2224Sol     HW11981   0.133   3.129   8.809  0.1213  0.1861 -0.9281
 2224Sol     MW11982   0.102   3.045   8.817 -0.2852 -0.6155 -1.0363
 2225Sol     OW11983   2.714   0.550   9.797 -0.5547  0.1188  0.2467
 2225Sol     HW11984   2.719   0.532   9.703 -0.8124 -0.5260  0.3582
 2225Sol     HW11985   2.624   0.577   9.812 -0.4053  0.6374  0.2395
 2225Sol     MW11986   2.707   0.551   9.790 -0.8754 -0.0810  0.0589
 2226Sol     OW11987   2.937   1.211   2.655  0.5673  0.3115  0.2299
 2226Sol     HW11988   2.920   1.175   2.742  1.3210  1.0636  0.6954
 2226Sol     HW11989   2.984   1.293   2.672  4.1244 -1.3865 -0.9813
 2226Sol     MW11990   2.939   1.215   2.664 -0.3190 -0.5439  0.0110
 2227Sol     OW11991   2.070   0.799   5.335 -0.3063 -0.2591 -0.0827
 2227Sol     HW11992   2.119   0.868   5.379  0.2986  0.4045 -1.7388
 2227Sol     HW11993   2.000   0.777   5.396  1.0337 -0.0154  1.5826
 2227Sol     MW11994   2.068   0.803   5.344  0.3458  0.1639 -0.6091
 2228Sol     OW11995   1.334   2.294   3.317 -0.0977  0.4449  0.2500
 2228Sol     HW11996   1.349   2.334   3.403  0.7910  2.0990 -0.6632
 2228Sol     HW11997   1.293   2.363   3.265 -1.7783 -0.9186 -0.3228
 2228Sol     MW11998   1.331   2.303   3.320  0.3312 -0.3547  0.5206
 2229Sol     OW11999   3.166   0.244   4.670 -0.4870 -0.0508  0.2184
 2229Sol     HW12000   3.194   0.180   4.605 -1.5983 -2.2685  1.8695
 2229Sol     HW12001   3.084   0.210   4.705 -0.9469  2.1102  1.3852
 2229Sol     MW12002   3.161   0.236   4.667  0.3082 -0.1779 -0.4666
 2230Sol     OW12003   0.043   0.436   6.723  0.7919 -0.6293 -0.1207
 2230Sol     HW12004   0.126   0.462   6.683  0.7122 -0.1497  0.0147
 2230Sol     HW12005  -0.020   0.438   6.652  0.9737 -1.3851 -0.3078
 2230Sol     MW12006   0.045   0.438   6.713 -0.1164  0.2895 -0.4334
 2231Sol     OW12007   2.410   1.364   8.119 -0.2859  0.1832 -0.2000
 2231Sol     HW12008   2.466   1.286   8.117 -0.7124 -0.1265 -0.1559
 2231Sol     HW12009   2.468   1.435   8.146 -0.1374 -0.3257  0.8338
 2231Sol     MW12010   2.420   1.363   8.121 -0.4002 -0.1800 -0.3124
 2232Sol     OW12011   2.071   1.716   5.935 -0.0183 -1.3369  0.1425
 2232Sol     HW12012   2.142   1.656   5.916 -0.5869 -1.5043 -1.5424
 2232Sol     HW12013   2.096   1.759   6.017  1.7220 -1.8270 -0.1281
 2232Sol     MW12014   2.079   1.715   5.940 -0.1751 -0.1236  0.1169
 2233Sol     OW12015   2.671   2.130   6.115  0.0170  0.1941 -0.0572
 2233Sol     HW12016   2.731   2.055   6.112 -0.0428  0.1033  1.0930
 2233Sol     HW12017   2.669   2.162   6.024  0.3499 -0.9493 -0.4779
 2233Sol     MW12018   2.676   2.126   6.106 -0.2933  0.3986  0.0769
 2234Sol     OW12019   2.416   0.015   8.398 -0.4613  0.3366 -0.5744
 2234Sol     HW12020   2.339  -0.009   8.347 -0.4274 -0.7879 -0.1111
 2234Sol     HW12021   2.385   0.022   8.488 -0.2074  0.8097 -0.5185
 2234Sol     MW12022   2.407   0.014   8.401  0.2382 -0.0967  0.2420
 2235Sol     OW12023   2.455   1.228   2.908  0.1982  0.3609  0.4340
 2235Sol     HW12024   2.381   1.168   2.898  0.4987  0.1743 -0.7045
 2235Sol     HW12025   2.435   1.277   2.988 -0.7526 -0.2571  0.5819
 2235Sol     MW12026   2.446   1.227   2.915  0.7444  0.0129  0.5708
 2236Sol     OW12027   3.243   0.693   4.688  0.4204 -0.5570 -0.1684
 2236Sol     HW12028   3.169   0.632   4.692  0.3547 -0.4291  0.5248
 2236Sol     HW12029   3.236   0.745   4.768  1.0843 -0.3366 -0.2524
 2236Sol     MW12030   3.236   0.692   4.695 -0.7844  0.5747 -0.5474
 2237Sol     OW12031   2.677   2.494   5.509  0.8694 -0.6428 -0.4380
 2237Sol     HW12032   2.763   2.514   5.473  0.0957  0.0342 -1.9427
 2237Sol     HW12033   2.637   2.435   5.445 -0.2608  0.0334 -0.3700
 2237Sol     MW12034   2.681   2.490   5.500 -0.0483 -0.2376  0.0025
 2238Sol     OW12035   1.423   2.648   3.628 -0.0073  0.1022 -0.3144
 2238Sol     HW12036   1.512   2.677   3.649  0.0075 -0.0145 -0.2121
 2238Sol     HW12037   1.374   2.728   3.612  0.0120  0.1888  0.0534
 2238Sol     MW12038   1.426   2.658   3.629  0.2238  0.1942 -0.0424
 2239Sol     OW12039   1.380   0.985   7.628  0.3043  0.3205  0.2886
 2239Sol     HW12040   1.397   1.000   7.535  0.0937  0.6980  0.3101
 2239Sol     HW12041   1.465   0.997   7.670  0.8797 -2.0029 -0.1026
 2239Sol     MW12042   1.389   0.987   7.623 -0.5097 -0.4265  0.0688
 2240Sol     OW12043   1.175   1.750   5.405  0.8804 -0.1584  0.2972
 2240Sol     HW12044   1.184   1.820   5.470  3.5754  0.1494 -0.3638
 2240Sol     HW12045   1.203   1.671   5.450  0.1889 -0.3982  0.3083
 2240Sol     MW12046   1.178   1.749   5.415  0.7410  0.3139  0.3335
 2241Sol     OW12047   1.303   0.722   2.667  0.4722 -0.2551 -0.0627
 2241Sol     HW12048   1.388   0.686   2.694  0.7096 -1.5727 -2.4739
 2241Sol     HW12049   1.246   0.709   2.743  1.9116 -1.0792  0.9016
 2241Sol     MW12050   1.306   0.718   2.676  0.2586 -0.3707  0.4352
 2242Sol     OW12051   0.504   0.458   6.853 -0.4188  0.0382 -0.1962
 2242Sol     HW12052   0.412   0.441   6.831 -0.9101  0.2885  1.5705
 2242Sol     HW12053   0.523   0.542   6.812 -1.2959  0.4777  0.2749
 2242Sol     MW12054   0.498   0.464   6.847  0.6250  0.0993  0.5377
 2243Sol     OW12055   2.879   2.482   6.076  0.1209  0.2297  0.3797
 2243Sol     HW12056   2.862   2.550   6.142 -0.1007  0.5907 -0.0432
 2243Sol     HW12057   2.948   2.519   6.021 -3.0596  2.0956 -2.6224
 2243Sol     MW12058   2.883   2.492   6.077 -0.5440  0.5523 -0.5588
 2244Sol     OW12059   1.179   0.989   2.568 -0.0281  0.3205  0.1847
 2244Sol     HW12060   1.211   0.931   2.637 -0.2225  0.4154  0.3528
 2244Sol     HW12061   1.086   1.001   2.587 -0.1954 -0.0529 -0.3758
 2244Sol     MW12062   1.174   0.985   2.576 -0.9839  0.1967 -0.0950
 2245Sol     OW12063   1.783   2.291   3.296 -0.1492 -0.1833  0.9272
 2245Sol     HW12064   1.775   2.316   3.388 -1.6476 -0.1224  0.7981
 2245Sol     HW12065   1.815   2.201   3.298 -1.7493 -0.7515  1.5479
 2245Sol     MW12066   1.785   2.285   3.305  0.5546  0.5454  0.4861
 2246Sol     OW12067   0.345   2.539   4.044  0.1762 -0.2630  0.4536
 2246Sol     HW12068   0.369   2.504   3.958  2.2483  0.3594  0.7465
 2246Sol     HW12069   0.314   2.464   4.094  1.9297 -1.1947  0.1652
 2246Sol     MW12070   0.344   2.530   4.041 -0.3434 -0.4307  0.2871
 2247Sol     OW12071   0.484   1.737   6.407  0.2593 -0.3593 -0.7652
 2247Sol     HW12072   0.446   1.705   6.489  0.6132  0.3495 -0.3182
 2247Sol     HW12073   0.566   1.688   6.398  0.7258  0.3069 -0.1609
 2247Sol     MW12074   0.488   1.729   6.414  0.6059  0.0547 -0.1606
 2248Sol     OW12075   2.718   1.324   3.021 -0.5106 -0.1130  0.3308
 2248Sol     HW12076   2.771   1.311   3.099  0.3999  0.0904 -0.2405
 2248Sol     HW12077   2.665   1.245   3.013  1.4224 -1.3637 -0.3986
 2248Sol     MW12078   2.718   1.316   3.027  0.0476  0.0336  0.6308
 2249Sol     OW12079   0.304   2.145   4.639 -0.1475  0.4360 -0.0523
 2249Sol     HW12080   0.307   2.051   4.655  0.2289  0.0592 -2.1640
 2249Sol     HW12081   0.222   2.174   4.679 -0.8621 -1.0164 -0.4419
 2249Sol     MW12082   0.297   2.140   4.644  0.4149  0.3236 -0.0773
 2250Sol     OW12083   2.965   2.058   2.124  0.7048 -0.1725 -0.4452
 2250Sol     HW12084   2.985   2.085   2.213 -0.1280  0.1606 -0.3604
 2250Sol     HW12085   2.943   1.965   2.131 -0.4216  0.1083 -0.1358
 2250Sol     MW12086   2.965   2.052   2.132 -1.3819  0.0429 -0.0082
 2251Sol     OW12087   3.159   2.242   5.266 -0.0689  0.5112 -0.0778
 2251Sol     HW12088   3.105   2.261   5.189  1.0913  0.1396 -1.0070
 2251Sol     HW12089   3.220   2.315   5.271  0.5153  0.0292 -0.1207
 2251Sol     MW12090   3.159   2.250   5.259 -0.1288  0.3956 -0.3903
 2252Sol     OW12091   1.632   2.136   2.082 -0.5936 -0.4611 -0.4334
 2252Sol     HW12092   1.717   2.093   2.083 -0.9120 -1.1492 -2.1827
 2252Sol     HW12093   1.586   2.099   2.158  1.5649  1.8459  2.0895
 2252Sol     MW12094   1.635   2.129   2.089 -0.3306  0.1140  0.0342
 2253Sol     OW12095   1.828   1.752   2.088 -0.0330  0.6424  0.0723
 2253Sol     HW12096   1.900   1.810   2.061  0.7865 -1.0400 -1.4515
 2253Sol     HW12097   1.868   1.692   2.150 -1.1920  2.4947  2.6738
 2253Sol     MW12098   1.838   1.752   2.091  0.7364  0.1954 -0.1503
 2254Sol     OW12099   0.515   1.466   4.741  0.1508 -0.4093  0.4646
 2254Sol     HW12100   0.468   1.479   4.659 -0.1663  0.6240  0.7955
 2254Sol     HW12101   0.483   1.536   4.798  1.3464 -0.3044  1.0236
 2254Sol     MW12102   0.508   1.474   4.739 -0.4670  0.4821  0.1504
 2255Sol     OW12103   1.222   3.149   6.810  0.2103 -0.6804 -0.6178
 2255Sol     HW12104   1.239   3.112   6.723  1.0685  0.5119 -0.9666
 2255Sol     HW12105   1.202   3.241   6.793  0.5048 -0.4152  0.4684
 2255Sol     MW12106   1.221   3.154   6.801  0.4148  0.2241  0.2255
 2256Sol     OW12107   1.023   2.880   2.884  0.3555  0.4343 -0.3536
 2256Sol     HW12108   1.011   2.832   2.802  0.2923 -0.1450 -0.0129
 2256Sol     HW12109   0.936   2.879   2.925  0.6991 -0.5325  0.3866
 2256Sol     MW12110   1.014   2.875   2.881 -0.8432  0.5913 -0.0912
 2257Sol     OW12111   2.187   1.528   1.434  0.2220 -0.6043  0.9666
 2257Sol     HW12112   2.216   1.560   1.520  1.5375  1.9973 -0.4023
 2257Sol     HW12113   2.095   1.508   1.445  0.4979 -0.7812  3.1293
 2257Sol     MW12114   2.182   1.529   1.443  0.3609 -0.3362  0.1103
 2258Sol     OW12115   3.303   3.234   7.745 -0.3888 -0.7064 -0.3236
 2258Sol     HW12116   3.231   3.202   7.690  0.5476 -0.4540 -1.7376
 2258Sol     HW12117   3.375   3.173   7.728 -0.4025 -1.2296  1.4401
 2258Sol     MW12118   3.303   3.226   7.738  0.0948  0.1019  0.0586
 2259Sol     OW12119   2.889   0.799   6.707  0.3450 -0.1520 -0.4643
 2259Sol     HW12120   2.968   0.851   6.701  1.1800 -1.3730 -0.2782
 2259Sol     HW12121   2.877   0.763   6.619 -0.6819  0.9876 -0.8049
 2259Sol     MW12122   2.895   0.800   6.699  0.1285 -0.3740 -0.3716
 2260Sol     OW12123   0.009   0.232   9.219 -0.4314  0.2983  0.0243
 2260Sol     HW12124  -0.065   0.290   9.237  0.3173  1.4150 -0.4218
 2260Sol     HW12125   0.075   0.257   9.284 -0.0411  0.0657 -0.2811
 2260Sol     MW12126   0.009   0.239   9.227 -0.2187  0.0731  0.6023
 2261Sol     OW12127   2.448   1.855   5.032 -0.2132 -0.2470 -0.1289
 2261Sol     HW12128   2.487   1.787   4.977  0.4576 -0.2254  0.3115
 2261Sol     HW12129   2.444   1.933   4.977  1.6889  0.1440  0.2495
 2261Sol     MW12130   2.451   1.856   5.022  0.1308  0.2818 -0.0282
 2262Sol     OW12131   3.094   0.307   3.412 -0.5687  0.4511 -0.0923
 2262Sol     HW12132   3.135   0.225   3.439 -2.0561  0.0126  0.8663
 2262Sol     HW12133   3.132   0.373   3.471 -0.5628  0.1971  0.1899
 2262Sol     MW12134   3.101   0.306   3.420  0.3931 -0.0545  0.1704
 2263Sol     OW12135   1.162   3.383   8.490  0.2047 -0.0161 -0.3332
 2263Sol     HW12136   1.124   3.463   8.454 -1.3371  0.0736  1.3988
 2263Sol     HW12137   1.162   3.321   8.417  1.3432  1.5234 -1.6639
 2263Sol     MW12138   1.158   3.384   8.481 -0.1885 -0.4628  0.0920
 2264Sol     OW12139   1.396   1.539   5.380  0.0191  0.6019 -0.1247
 2264Sol     HW12140   1.468   1.477   5.393 -0.2948  0.4690  0.9774
 2264Sol     HW12141   1.391   1.549   5.285  1.4231  0.5373 -0.2198
 2264Sol     MW12142   1.402   1.534   5.372  0.3372  0.9070 -0.0160
 2265Sol     OW12143   2.984   1.684   5.933 -0.1049 -0.0071  1.1735
 2265Sol     HW12144   2.905   1.658   5.886  0.2920 -1.5683  1.3260
 2265Sol     HW12145   2.991   1.778   5.919 -0.0964 -0.4086 -1.7247
 2265Sol     MW12146   2.977   1.690   5.928 -0.0044  0.5637 -0.4791
 2266Sol     OW12147   2.372   1.317   9.427  0.1174  0.8009  0.2773
 2266Sol     HW12148   2.466   1.299   9.418  0.1971 -0.7017  3.4277
 2266Sol     HW12149   2.334   1.230   9.441 -2.0644  1.1522 -3.0233
 2266Sol     MW12150   2.377   1.307   9.427  0.1195  0.1105 -0.0106
 2267Sol     OW12151   1.545   3.319   9.258 -0.1067 -0.5345  0.3559
 2267Sol     HW12152   1.611   3.250   9.265 -0.2059 -0.6279  0.3715
 2267Sol     HW12153   1.553   3.367   9.340 -0.4733 -0.9195  0.6185
 2267Sol     MW12154   1.552   3.317   9.266 -0.3334 -0.3462  0.2181
 2268Sol     OW12155   0.022   3.201   2.367 -0.0528  0.3522  0.5017
 2268Sol     HW12156   0.070   3.284   2.371 -0.1559  0.5322 -1.4537
 2268Sol     HW12157   0.091   3.134   2.358 -0.0654  0.4012  0.0499
 2268Sol     MW12158   0.033   3.203   2.367 -0.3925 -0.1463  1.1971
 2269Sol     OW12159   1.831   0.148   9.165  0.1100  0.5126  0.1040
 2269Sol     HW12160   1.770   0.117   9.098  0.6650  3.0231 -1.6545
 2269Sol     HW12161   1.815   0.242   9.170  2.1836  0.8363  1.3445
 2269Sol     MW12162   1.824   0.154   9.160 -0.0389 -0.1345  0.7761
 2270Sol     OW12163   1.469   1.620   4.424  0.2667 -0.3850  0.1331
 2270Sol     HW12164   1.478   1.715   4.427 -2.6247 -0.0844  1.0577
 2270Sol     HW12165   1.490   1.597   4.333  0.0440  1.2611 -0.3544
 2270Sol     MW12166   1.471   1.626   4.416  0.2213  0.0875 -0.3508
 2271Sol     OW12167   3.309   2.261   5.615 -0.7605 -0.1067 -0.1569
 2271Sol     HW12168   3.320   2.283   5.707  1.1971  1.7516 -0.8009
 2271Sol     HW12169   3.393   2.221   5.590 -2.3737 -3.5339 -0.3711
 2271Sol     MW12170   3.318   2.259   5.621  0.2559 -0.0213  0.1032
 2272Sol     OW12171   0.573   1.670   8.439 -0.9015  0.0972  0.2133
 2272Sol     HW12172   0.588   1.616   8.361  2.2972 -0.0116  0.8474
 2272Sol     HW12173   0.587   1.759   8.409 -0.3321  0.1090  0.5249
 2272Sol     MW12174   0.575   1.673   8.429  0.6685 -0.3653  0.2821
 2273Sol     OW12175   1.067   2.970   7.275  0.2577 -0.1094  0.0589
 2273Sol     HW12176   1.159   2.996   7.266  0.2086  0.1893  0.4018
 2273Sol     HW12177   1.020   3.052   7.293 -0.3543  0.0317 -2.0179
 2273Sol     MW12178   1.071   2.980   7.276 -0.1786 -0.1656 -0.1325
 2274Sol     OW12179   2.355   1.918   2.627 -0.0274 -0.1432 -0.4165
 2274Sol     HW12180   2.405   1.942   2.549  1.6818 -1.8049  0.1313
 2274Sol     HW12181   2.285   1.861   2.594 -0.4171  0.6326 -0.9461
 2274Sol     MW12182   2.353   1.915   2.617  0.1560 -0.0357  0.3221
 2275Sol     OW12183   0.443   0.333   8.915 -0.0004  0.1385 -0.5590
 2275Sol     HW12184   0.376   0.363   8.854  0.4550  3.8880  0.6383
 2275Sol     HW12185   0.397   0.271   8.972 -1.5402 -0.0327 -1.9487
 2275Sol     MW12186   0.432   0.330   8.915  0.1510  0.4542 -0.3068
 2276Sol     OW12187   2.154   1.799   5.236  0.2289 -0.1539  0.5232
 2276Sol     HW12188   2.210   1.725   5.212  2.2512  1.4929 -0.0035
 2276Sol     HW12189   2.118   1.829   5.153  0.0835 -0.0367  0.6302
 2276Sol     MW12190   2.156   1.795   5.227 -0.1568 -0.1414  0.1402
 2277Sol     OW12191   1.153   2.542   6.770 -0.0828  0.7135 -0.0350
 2277Sol     HW12192   1.214   2.492   6.824 -0.1514  1.5103  0.7894
 2277Sol     HW12193   1.208   2.606   6.724 -0.0227  0.0330 -0.9307
 2277Sol     MW12194   1.163   2.543   6.771 -0.1963 -0.2632 -0.3140
 2278Sol     OW12195   0.525   1.272   4.105  0.1081 -0.0007  0.3626
 2278Sol     HW12196   0.461   1.340   4.122  0.7127  0.6501  0.0789
 2278Sol     HW12197   0.599   1.293   4.163  0.7128  0.1896 -0.4526
 2278Sol     MW12198   0.526   1.280   4.111 -0.0893 -0.2166 -0.5767
 2279Sol     OW12199   1.603   1.415   5.498  0.2210 -0.2924 -0.7087
 2279Sol     HW12200   1.629   1.348   5.561  0.3870 -1.1476 -1.6709
 2279Sol     HW12201   1.669   1.484   5.509  0.2139 -0.4119  0.0939
 2279Sol     MW12202   1.612   1.415   5.504 -0.3303  0.0189 -0.4975
 2280Sol     OW12203   0.498   0.909   3.401 -0.2980  0.2348 -0.1334
 2280Sol     HW12204   0.479   0.829   3.353  0.5578  1.3376 -2.3607
 2280Sol     HW12205   0.441   0.975   3.362  2.0308  1.6714 -1.2083
 2280Sol     MW12206   0.491   0.908   3.393  0.4343  0.0441 -0.9480
 2281Sol     OW12207   2.291   3.113   4.183 -1.1153 -0.2472 -0.2267
 2281Sol     HW12208   2.323   3.194   4.143  1.7053 -1.5873 -0.7964
 2281Sol     HW12209   2.210   3.094   4.136 -0.6860  1.0997 -1.5679
 2281Sol     MW12210   2.287   3.119   4.175 -0.1024 -0.0922 -0.5173
 2282Sol     OW12211   1.005   1.546   7.177  0.1501 -0.6546 -0.3115
 2282Sol     HW12212   0.933   1.536   7.115  1.3324 -2.1646 -1.4733
 2282Sol     HW12213   0.984   1.486   7.248 -0.3641 -0.1726 -0.0572
 2282Sol     MW12214   0.997   1.540   7.178  0.0324  0.0946  0.3165
 2283Sol     OW12215   2.865   1.261   2.054  0.0526  0.4487 -0.4019
 2283Sol     HW12216   2.832   1.349   2.038  0.8491  0.5789 -1.3741
 2283Sol     HW12217   2.929   1.246   1.984  0.4264 -0.6342  0.1571
 2283Sol     MW12218   2.868   1.267   2.046  0.0598  0.2322 -0.2204
 2284Sol     OW12219   0.217   1.263   3.338 -0.5797 -0.1005 -0.0586
 2284Sol     HW12220   0.258   1.282   3.423 -0.2675 -3.3924  0.5687
 2284Sol     HW12221   0.263   1.186   3.306 -2.3716 -0.3640 -2.0803
 2284Sol     MW12222   0.225   1.258   3.343 -0.2037 -0.1382 -0.1839
 2285Sol     OW12223   1.258   2.625   4.046  0.1053  0.1835 -0.0713
 2285Sol     HW12224   1.294   2.713   4.057  0.4125  0.1401 -0.6940
 2285Sol     HW12225   1.335   2.569   4.033 -0.1589 -0.0046 -0.8189
 2285Sol     MW12226   1.268   2.627   4.046  0.2486 -0.0459 -0.1951
 2286Sol     OW12227   2.077   2.096   6.747  0.2525 -0.1492 -0.5004
 2286Sol     HW12228   2.054   2.018   6.797 -0.9420 -0.5535 -1.6490
 2286Sol     HW12229   2.004   2.156   6.760  0.0299 -0.1733 -1.5656
 2286Sol     MW12230   2.069   2.094   6.753  0.8217 -0.0276 -0.3055
 2287Sol     OW12231   2.173   1.889   6.584 -0.4504  0.1185 -0.0151
 2287Sol     HW12232   2.159   1.931   6.499  0.8632 -0.1292 -0.3603
 2287Sol     HW12233   2.180   1.963   6.645  2.1045  0.4421 -0.6608
 2287Sol     MW12234   2.172   1.900   6.582  0.0528  0.2998  0.2302
 2288Sol     OW12235   1.275   0.383   5.283  0.1662 -0.3961  0.3199
 2288Sol     HW12236   1.222   0.464   5.284 -0.4597 -0.7945 -0.4555
 2288Sol     HW12237   1.230   0.326   5.346  1.3712  0.3303  1.8742
 2288Sol     MW12238   1.266   0.385   5.289  0.3147  0.5856  0.5932
 2289Sol     OW12239   1.365   1.545   8.049  0.1001 -0.1748  0.4504
 2289Sol     HW12240   1.349   1.626   8.096 -0.4479  0.4553 -0.8132
 2289Sol     HW12241   1.379   1.480   8.118 -0.6809  0.7360  1.4813
 2289Sol     MW12242   1.365   1.546   8.060  0.2112 -0.5872 -0.4843
 2290Sol     OW12243   0.237   0.348   5.472 -0.0952 -0.0686  0.5209
 2290Sol     HW12244   0.222   0.382   5.383 -2.0064  1.4590  1.3874
 2290Sol     HW12245   0.209   0.257   5.467 -0.7325  0.1596 -0.3106
 2290Sol     MW12246   0.233   0.343   5.463 -0.0524 -0.1523 -0.3378
 2291Sol     OW12247   1.105   1.384   3.319 -0.0695  0.5620  0.0293
 2291Sol     HW12248   1.109   1.454   3.254  0.3840  1.6545  1.2124
 2291Sol     HW12249   1.132   1.426   3.401  0.3030 -1.0213  0.7302
 2291Sol     MW12250   1.108   1.394   3.320  0.1025  0.8764 -0.1459
 2292Sol     OW12251   2.353   0.227   1.379  0.0690  0.0872  0.2673
 2292Sol     HW12252   2.295   0.241   1.454 -0.2433  0.6320 -0.0717
 2292Sol     HW12253   2.368   0.315   1.344 -0.4880 -0.2412 -0.8275
 2292Sol     MW12254   2.349   0.236   1.383  0.0625 -0.0378 -0.0849
 2293Sol     OW12255   0.375   2.241   6.912  0.1065 -0.5631 -0.0935
 2293Sol     HW12256   0.301   2.298   6.889  1.2623  0.6773 -0.8011
 2293Sol     HW12257   0.362   2.163   6.858 -0.9491 -0.5531  0.1384
 2293Sol     MW12258   0.367   2.239   6.905  0.7770 -0.4509  0.5827
 2294Sol     OW12259   1.297   1.344   7.396  0.2170 -0.0677 -0.3011
 2294Sol     HW12260   1.370   1.320   7.453  1.3830  0.7973 -1.4030
 2294Sol     HW12261   1.219   1.329   7.450  1.3674  3.2654  2.4896
 2294Sol     MW12262   1.296   1.340   7.406 -0.0830 -0.4528 -0.4653
 2295Sol     OW12263   0.826   3.412   8.960 -0.5057 -0.1176  0.2481
 2295Sol     HW12264   0.864   3.464   8.889  1.3798 -0.7136  0.7883
 2295Sol     HW12265   0.755   3.467   8.994  0.0970  1.1905 -0.5446
 2295Sol     MW12266   0.823   3.422   8.956  0.0455  0.4782  0.4801
 2296Sol     OW12267   2.617   1.617   6.316 -0.2652 -0.2804  0.8723
 2296Sol     HW12268   2.646   1.583   6.400  0.0859  0.8431  1.1997
 2296Sol     HW12269   2.609   1.711   6.328 -1.0998 -0.2106 -0.0871
 2296Sol     MW12270   2.618   1.622   6.324  0.0084 -0.4605 -0.6279
 2297Sol     OW12271   1.372   2.323   4.284  0.4576  0.6807 -0.3622
 2297Sol     HW12272   1.283   2.290   4.276 -0.8061  4.0674 -1.1806
 2297Sol     HW12273   1.396   2.348   4.194  1.3164  1.9428  0.2002
 2297Sol     MW12274   1.366   2.323   4.275 -0.0019 -0.6034 -0.1548
 2298Sol     OW12275   1.044   3.241   7.344 -0.1196  0.3928  0.4823
 2298Sol     HW12276   1.076   3.217   7.431 -1.2206  0.0751  0.8018
 2298Sol     HW12277   0.976   3.306   7.360 -0.4642  0.1854 -0.1288
 2298Sol     MW12278   1.041   3.245   7.353  0.0227 -0.1984 -0.7337
 2299Sol     OW12279   1.415   3.439   8.037  0.5442 -0.2720 -0.1030
 2299Sol     HW12280   1.375   3.514   8.081  2.0137  0.8337 -0.5996
 2299Sol     HW12281   1.343   3.377   8.024 -0.6039  0.8829  0.6785
 2299Sol     MW12282   1.405   3.440   8.040 -0.0735  0.0051 -0.4668
 2300Sol     OW12283   3.242   0.306   7.928  0.5815 -0.8409 -0.1319
 2300Sol     HW12284   3.333   0.327   7.951  0.4561 -0.3597 -0.0675
 2300Sol     HW12285   3.239   0.211   7.926  0.8226 -0.8856  0.9612
 2300Sol     MW12286   3.250   0.300   7.930 -0.0818  0.0072  0.0437
 2301Sol     OW12287   2.147   1.934   7.933 -0.2363 -0.1278  0.0797
 2301Sol     HW12288   2.138   1.879   7.855 -0.5261  1.5685 -1.1258
 2301Sol     HW12289   2.196   1.880   7.995  1.2320 -1.0227 -1.7838
 2301Sol     MW12290   2.150   1.924   7.931  0.5170 -0.4158  0.2982
 2302Sol     OW12291   0.146   1.516   7.391  0.0741 -0.0204 -0.2041
 2302Sol     HW12292   0.074   1.484   7.445 -1.3131  3.3497  0.0284
 2302Sol     HW12293   0.162   1.605   7.422  2.6296  0.2015 -1.9893
 2302Sol     MW12294   0.141   1.521   7.399 -0.2293  0.5689 -0.1508
 2303Sol     OW12295   2.948   2.206   1.902  0.5589 -0.3668 -0.0080
 2303Sol     HW12296   2.954   2.147   1.978 -0.5989  0.2031  0.5455
 2303Sol     HW12297   2.869   2.177   1.856  0.7570 -0.1260 -0.4999
 2303Sol     MW12298   2.941   2.198   1.905  0.4844  0.1622  0.3531
 2304Sol     OW12299   0.003   1.134   7.376  0.0357 -0.1122  0.6648
 2304Sol     HW12300   0.043   1.194   7.313  0.4811 -0.1157  0.9385
 2304Sol     HW12301   0.006   1.048   7.333  1.1614 -0.2746  1.0451
 2304Sol     MW12302   0.007   1.131   7.366  0.1609  0.4965  0.1304
 2305Sol     OW12303   0.958   0.488   4.708 -0.4110 -0.1400  0.2162
 2305Sol     HW12304   0.916   0.444   4.635 -0.3978  0.8671 -0.4149
 2305Sol     HW12305   0.889   0.539   4.749 -0.9270 -2.4199  2.2928
 2305Sol     MW12306   0.948   0.489   4.705 -0.1957 -0.4764  0.1169
 2306Sol     OW12307   3.111   2.622   8.379  0.6706 -0.0116  0.1429
 2306Sol     HW12308   3.037   2.579   8.422  0.0017  1.5355  0.5799
 2306Sol     HW12309   3.126   2.570   8.301  0.9988 -2.0502  1.5306
 2306Sol     MW12310   3.105   2.614   8.376 -0.3934  0.0299 -0.5729
 2307Sol     OW12311   1.733   0.399   6.580 -0.4218 -0.2955 -0.1673
 2307Sol     HW12312   1.733   0.412   6.675 -1.6245  2.5167 -0.4753
 2307Sol     HW12313   1.824   0.380   6.558 -0.0103 -0.2863  1.4889
 2307Sol     MW12314   1.741   0.399   6.587  0.1001  0.3380 -0.0097
 2308Sol     OW12315   0.909   0.069   4.044 -0.1455 -0.3511 -0.7014
 2308Sol     HW12316   0.988   0.015   4.031 -0.1957 -0.7054  0.4542
 2308Sol     HW12317   0.841   0.023   3.994 -0.3479 -1.7435  0.8235
 2308Sol     MW12318   0.910   0.060   4.038 -0.1325 -0.3032  0.6855
 2309Sol     OW12319   0.502   2.948   9.880 -0.2609 -0.3664 -0.0145
 2309Sol     HW12320   0.531   3.038   9.861 -0.3657 -0.2671  0.3036
 2309Sol     HW12321   0.583   2.900   9.896 -0.3085  0.0942  1.6863
 2309Sol     MW12322   0.512   2.952   9.880  0.1088 -0.0190  0.3571
 2310Sol     OW12323   1.111   3.323   4.026 -0.1957 -0.0654 -0.3307
 2310Sol     HW12324   1.157   3.371   4.095 -1.4318  0.3685  0.2113
 2310Sol     HW12325   1.178   3.269   3.985  1.0203  1.4028 -0.3144
 2310Sol     MW12326   1.121   3.323   4.029 -0.1947  0.7501  0.3561
 2311Sol     OW12327   0.380   0.055   7.276 -0.0971  0.0836  0.1234
 2311Sol     HW12328   0.398   0.147   7.297 -1.2263  0.2374  0.4595
 2311Sol     HW12329   0.315   0.028   7.342  0.0072 -0.8661 -0.1579
 2311Sol     MW12330   0.376   0.061   7.284  0.6238  0.5478  0.3596
 2312Sol     OW12331   1.123   0.963   7.697  0.1670 -0.2850  0.1337
 2312Sol     HW12332   1.079   0.966   7.612 -0.0286  0.8576  0.2644
 2312Sol     HW12333   1.215   0.946   7.675 -0.0420 -0.9718 -0.2393
 2312Sol     MW12334   1.128   0.962   7.687  0.0346 -0.5132  0.2730
 2313Sol     OW12335   2.457   0.486   3.173 -0.7738 -0.0016 -0.1100
 2313Sol     HW12336   2.532   0.443   3.214 -0.8047 -0.4713 -0.5399
 2313Sol     HW12337   2.445   0.440   3.090 -2.5374 -0.9904  0.6671
 2313Sol     MW12338   2.462   0.478   3.169 -0.0533  0.0545 -1.1286
 2314Sol     OW12339   1.090   2.113   3.305  0.4613 -0.0050  0.2822
 2314Sol     HW12340   1.163   2.165   3.272  0.8328 -0.2398  0.7360
 2314Sol     HW12341   1.046   2.170   3.368 -0.4039  0.5389 -0.8081
 2314Sol     MW12342   1.092   2.122   3.308 -0.3233  0.0817  0.0029
 2315Sol     OW12343   1.856   0.905   6.504 -0.4536  0.3743  0.6238
 2315Sol     HW12344   1.791   0.967   6.537  0.0025  1.2159  0.0017
 2315Sol     HW12345   1.903   0.955   6.436  0.8959 -0.1773  1.1265
 2315Sol     MW12346   1.855   0.915   6.501 -0.0268  0.5796  0.4369
 2316Sol     OW12347   0.115   1.061   5.227 -0.2595 -0.5930  0.0615
 2316Sol     HW12348   0.170   0.982   5.220  0.9082  0.2198  0.0261
 2316Sol     HW12349   0.099   1.087   5.136  0.0882 -0.2864  0.0866
 2316Sol     MW12350   0.118   1.056   5.218  0.2003 -0.3451 -0.0797
 2317Sol     OW12351   3.285   2.439   7.169 -0.2150 -0.0428 -0.4264
 2317Sol     HW12352   3.365   2.394   7.143  0.5547  0.3124  1.2396
 2317Sol     HW12353   3.313   2.528   7.190 -0.9846 -0.0120  0.4907
 2317Sol     MW12354   3.294   2.443   7.169 -0.7575  0.1976 -0.3630
 2318Sol     OW12355   2.885   0.495   6.052  0.9454  0.5202 -0.0062
 2318Sol     HW12356   2.881   0.552   6.129  2.3292 -1.1423  1.3287
 2318Sol     HW12357   2.841   0.415   6.080  0.4536  0.3157 -1.3367
 2318Sol     MW12358   2.880   0.493   6.061  0.0325  0.7367  0.3606
 2319Sol     OW12359   2.335   1.663   6.506  0.2714  0.1001  0.0607
 2319Sol     HW12360   2.357   1.698   6.419 -0.5959 -0.3169 -0.3337
 2319Sol     HW12361   2.262   1.717   6.536  0.4726  0.1474  0.4644
 2319Sol     MW12362   2.330   1.671   6.501  0.1692 -0.1632 -0.3274
 2320Sol     OW12363   1.578   0.628   1.844 -0.3556 -0.1923  0.6802
 2320Sol     HW12364   1.626   0.610   1.924  0.9176 -0.0981 -0.0402
 2320Sol     HW12365   1.570   0.724   1.841  0.3836 -0.1346  0.2683
 2320Sol     MW12366   1.582   0.635   1.851 -0.0994  0.0989 -0.0322
 2321Sol     OW12367   1.998   0.011   9.358 -0.2591  0.4467  0.0734
 2321Sol     HW12368   1.949   0.065   9.296 -1.8774  0.8496  1.6958
 2321Sol     HW12369   2.036   0.073   9.420  2.8589  0.2042 -1.4681
 2321Sol     MW12370   1.997   0.021   9.358  0.6816 -0.0800 -0.4539
 2322Sol     OW12371   0.981   2.606   1.699  0.8448 -0.2354 -0.3764
 2322Sol     HW12372   0.934   2.638   1.622 -0.8024 -0.2211  0.6079
 2322Sol     HW12373   1.073   2.606   1.673  0.4188  0.8901 -1.9429
 2322Sol     MW12374   0.985   2.609   1.690  0.0030  0.0634 -0.3265
 2323Sol     OW12375   0.026   0.862   7.295 -0.1872  0.1104  0.0404
 2323Sol     HW12376  -0.006   0.815   7.372  1.8914 -0.8770  0.3628
 2323Sol     HW12377  -0.034   0.838   7.225 -1.0506 -0.4420  0.9576
 2323Sol     MW12378   0.018   0.856   7.296 -0.0920  0.1539  0.4219
 2324Sol     OW12379   1.532   2.719   5.978 -0.2799  0.3425 -0.0590
 2324Sol     HW12380   1.444   2.720   5.941 -0.4566 -0.1270  0.3646
 2324Sol     HW12381   1.544   2.808   6.011 -1.7524 -0.4231  2.6639
 2324Sol     MW12382   1.525   2.727   5.977 -0.1098 -0.5633 -0.4166
 2325Sol     OW12383   3.074   1.311   8.660  0.0454  0.0123  0.4444
 2325Sol     HW12384   3.118   1.353   8.587 -1.9198  1.0603 -0.1724
 2325Sol     HW12385   3.093   1.218   8.650  1.6993  0.3886 -0.0533
 2325Sol     MW12386   3.079   1.306   8.653  0.0790 -0.0540 -0.1382
 2326Sol     OW12387   3.255   2.016   2.348 -0.2958 -0.4931  0.1363
 2326Sol     HW12388   3.305   2.067   2.412  0.0644 -1.8588  0.9607
 2326Sol     HW12389   3.164   2.027   2.375 -0.2981  0.4892 -0.2602
 2326Sol     MW12390   3.251   2.022   2.356 -0.1898  0.0227  0.4859
 2327Sol     OW12391   0.871   2.493   5.837  0.2029  0.3547  0.0075
 2327Sol     HW12392   0.919   2.571   5.812  0.9870  0.0705  0.5948
 2327Sol     HW12393   0.790   2.525   5.876  0.7565  0.8943  0.7281
 2327Sol     MW12394   0.868   2.503   5.838 -0.1997  0.5581 -0.1261
 2328Sol     OW12395   2.952   0.516   2.342 -1.1008  0.6907 -0.4791
 2328Sol     HW12396   2.896   0.443   2.319 -0.4509  0.1181 -0.2579
 2328Sol     HW12397   2.987   0.493   2.428 -0.7872  1.1967 -0.4680
 2328Sol     MW12398   2.950   0.508   2.348  0.0898 -0.1608 -0.2582
 2329Sol     OW12399   2.298   3.250   7.434 -0.1288 -0.8007 -0.2887
 2329Sol     HW12400   2.287   3.344   7.419 -0.4992 -0.7890  0.0481
 2329Sol     HW12401   2.211   3.213   7.421 -0.0584 -1.0488 -0.0547
 2329Sol     MW12402   2.289   3.255   7.432 -0.4647  0.0932  0.4170
 2330Sol     OW12403   0.143   2.728   1.975  0.3636  0.1835  0.1911
 2330Sol     HW12404   0.101   2.706   1.893  0.3622 -1.0338  0.5162
 2330Sol     HW12405   0.075   2.772   2.027  0.1362  0.2114 -0.1333
 2330Sol     MW12406   0.133   2.730   1.972  0.0324 -0.3345  0.0126
 2331Sol     OW12407   2.779   1.138   7.080  0.0703 -0.2136 -0.4004
 2331Sol     HW12408   2.809   1.126   6.990  0.4690 -3.0651  0.0733
 2331Sol     HW12409   2.735   1.056   7.102  3.3310 -1.1214  3.2896
 2331Sol     MW12410   2.778   1.130   7.074  0.4180 -0.2270  0.0928
 2332Sol     OW12411   3.085   1.051   3.937  0.4064  0.4647 -0.0307
 2332Sol     HW12412   3.040   1.068   4.020  1.6972  1.1278  0.5407
 2332Sol     HW12413   3.015   1.049   3.872 -0.6927 -0.6636  1.1439
 2332Sol     MW12414   3.075   1.052   3.939  0.1161  1.1068 -0.3445
 2333Sol     OW12415   2.064   2.827   8.001 -0.1896 -0.5241 -0.4301
 2333Sol     HW12416   1.982   2.778   8.012 -0.6109  0.1589 -0.5364
 2333Sol     HW12417   2.041   2.918   8.020  0.5307 -0.3193 -0.5274
 2333Sol     MW12418   2.054   2.831   8.003  0.1814  0.0797  0.9786
 2334Sol     OW12419   0.436   2.016   6.419  0.1811 -0.4562  0.6124
 2334Sol     HW12420   0.471   1.927   6.420  0.4702 -0.3480  0.2842
 2334Sol     HW12421   0.494   2.064   6.360  0.5698  0.1761  1.5073
 2334Sol     MW12422   0.444   2.012   6.414 -0.3345  0.2445 -0.0316
 2335Sol     OW12423   1.143   3.248   3.048 -0.2113  0.4941  0.0121
 2335Sol     HW12424   1.209   3.204   2.994  0.5771  2.2627 -0.4962
 2335Sol     HW12425   1.158   3.214   3.137 -0.6096 -1.3773 -0.6222
 2335Sol     MW12426   1.151   3.241   3.051  0.1359 -0.0940  0.4112
 2336Sol     OW12427   0.528   0.571   6.508 -0.5539 -0.1141 -0.1111
 2336Sol     HW12428   0.446   0.533   6.539 -1.1420  1.0701 -0.1860
 2336Sol     HW12429   0.518   0.665   6.523  1.3202 -0.0909  1.1374
 2336Sol     MW12430   0.520   0.576   6.512 -0.0383  0.7914 -0.1060
 2337Sol     OW12431   1.553   1.643   7.842 -0.1323 -0.1159 -0.1148
 2337Sol     HW12432   1.502   1.611   7.916  1.0011 -0.2192  0.6261
 2337Sol     HW12433   1.490   1.647   7.770 -1.0529 -0.7962  0.6374
 2337Sol     MW12434   1.543   1.640   7.842  0.4988  0.0535  0.2073
 2338Sol     OW12435   0.002   0.473   9.449 -0.6108  0.1867  0.0147
 2338Sol     HW12436  -0.003   0.556   9.496  1.4332  1.6478 -2.1802
 2338Sol     HW12437   0.070   0.424   9.495 -0.3153  0.6231  0.0497
 2338Sol     MW12438   0.008   0.476   9.457 -0.0678 -0.0832 -0.1620
 2339Sol     OW12439   2.001   0.754   7.403  0.3366  0.3615  0.1071
 2339Sol     HW12440   2.028   0.749   7.495  2.2727 -0.6060 -0.4944
 2339Sol     HW12441   1.916   0.709   7.401  0.3990  0.1488  1.3681
 2339Sol     MW12442   1.996   0.750   7.411  0.1592 -0.3329  0.1524
 2340Sol     OW12443   1.950   1.013   7.997  0.1740  0.3666  0.4333
 2340Sol     HW12444   1.934   0.921   7.975 -1.8819  0.9301 -0.5339
 2340Sol     HW12445   1.991   1.050   7.919  1.1033  0.2696  0.8625
 2340Sol     MW12446   1.952   1.008   7.988  0.2894  1.0302  0.1011
 2341Sol     OW12447   0.835   2.107   3.838  0.3469  0.1644  0.1546
 2341Sol     HW12448   0.882   2.043   3.785 -0.7117 -2.1074  1.8277
 2341Sol     HW12449   0.769   2.144   3.779  1.1240 -0.1090 -0.8977
 2341Sol     MW12450   0.833   2.104   3.828  0.2195 -0.1211  0.0256
 2342Sol     OW12451   0.673   0.082   7.515 -0.1014 -0.0974 -0.1187
 2342Sol     HW12452   0.634   0.019   7.454  0.4596 -0.8054  0.2375
 2342Sol     HW12453   0.764   0.089   7.487  0.5690 -1.6199  1.5566
 2342Sol     MW12454   0.678   0.077   7.507 -0.0888 -0.3079  0.8269
 2343Sol     OW12455   0.853   2.019   7.677  0.0290  0.1997  0.5097
 2343Sol     HW12456   0.945   2.041   7.694  0.3842 -0.5654 -0.4234
 2343Sol     HW12457   0.809   2.104   7.669  0.5526  0.5658  1.4780
 2343Sol     MW12458   0.857   2.029   7.678  0.2251  0.0651 -0.6473
 2344Sol     OW12459   1.276   1.460   4.521  0.4569  0.1075 -0.9094
 2344Sol     HW12460   1.186   1.475   4.490  0.4973  1.3788 -0.4427
 2344Sol     HW12461   1.327   1.530   4.480  1.1005 -0.1742 -0.5845
 2344Sol     MW12462   1.272   1.468   4.514 -0.5238  0.1482 -0.6314
 2345Sol     OW12463   1.090   1.614   3.154  0.1463 -0.1183  0.5651
 2345Sol     HW12464   1.117   1.686   3.210  1.5275 -0.4659  0.3653
 2345Sol     HW12465   1.133   1.632   3.070 -2.0138  0.4870 -0.4530
 2345Sol     MW12466   1.096   1.622   3.151 -0.7450 -0.3121  0.4765
 2346Sol     OW12467   2.006   3.057   2.584 -0.6661  0.0581  0.5851
 2346Sol     HW12468   2.082   3.113   2.600 -0.3939 -0.4443  1.0410
 2346Sol     HW12469   2.036   2.969   2.605 -0.9836 -0.3130 -0.4857
 2346Sol     MW12470   2.015   3.054   2.587 -0.7162 -0.8071 -0.3216
 2347Sol     OW12471   1.829   0.545   9.464 -0.3319 -0.3872 -0.1067
 2347Sol     HW12472   1.838   0.488   9.387  1.0671 -0.9612  0.4655
 2347Sol     HW12473   1.778   0.493   9.526  0.2137 -0.7006  0.0869
 2347Sol     MW12474   1.826   0.535   9.463 -0.0593  0.5938  0.2962
 2348Sol     OW12475   2.144   2.862   1.700 -0.1979  0.2645 -0.3730
 2348Sol     HW12476   2.062   2.843   1.654 -1.1234 -0.5658  1.5705
 2348Sol     HW12477   2.178   2.776   1.724 -0.8807  0.7293  2.4166
 2348Sol     MW12478   2.139   2.852   1.698  0.4145  0.1153  0.9306
 2349Sol     OW12479   2.105   0.841   7.680 -0.0230 -0.0902 -0.2755
 2349Sol     HW12480   2.104   0.935   7.696  0.9747 -0.7538  4.3216
 2349Sol     HW12481   2.197   0.820   7.662  0.3269 -0.6545  2.1046
 2349Sol     MW12482   2.113   0.847   7.680  0.3027  0.1045 -0.3452
 2350Sol     OW12483   0.109   0.275   3.958  0.3090  0.1604  0.7800
 2350Sol     HW12484   0.065   0.262   3.874 -1.1731  1.1288  1.3847
 2350Sol     HW12485   0.197   0.242   3.944 -0.0486 -0.0868 -1.0329
 2350Sol     MW12486   0.113   0.271   3.949  0.1851  0.4053 -1.0223
 2351Sol     OW12487   2.354   2.708   9.953  0.4920 -0.0825 -0.3563
 2351Sol     HW12488   2.320   2.625   9.920  0.1755  0.4081 -1.3061
 2351Sol     HW12489   2.448   2.694   9.964  0.6052 -0.2690 -1.4781
 2351Sol     MW12490   2.359   2.700   9.951 -0.3191  0.7614 -0.2943
 2352Sol     OW12491   2.465   3.111   9.344  0.5804  0.1770  0.0279
 2352Sol     HW12492   2.374   3.101   9.318  0.8365 -0.9358 -0.4894
 2352Sol     HW12493   2.474   3.057   9.423  1.0018 -0.4711 -0.4505
 2352Sol     MW12494   2.458   3.105   9.348  0.1472  0.1418  0.5240
 2353Sol     OW12495   2.980   2.068   2.405 -0.6025 -0.5141  0.0019
 2353Sol     HW12496   2.959   2.160   2.416 -0.8434 -0.2934 -2.1961
 2353Sol     HW12497   2.937   2.025   2.479 -1.7682  0.9312  0.1858
 2353Sol     MW12498   2.974   2.072   2.413  0.5045 -0.1197  0.2316
 2354Sol     OW12499   0.393   2.769   2.260  0.4459  0.3185  0.2561
 2354Sol     HW12500   0.476   2.774   2.214 -0.6590 -1.5040 -2.0367
 2354Sol     HW12501   0.371   2.676   2.261 -2.4601  0.9329 -0.9101
 2354Sol     MW12502   0.398   2.761   2.256 -0.2403 -0.0325 -0.0898
 2355Sol     OW12503   1.534   0.903   4.139 -0.2225 -0.5550  0.3471
 2355Sol     HW12504   1.455   0.946   4.106  0.7102 -0.4384 -1.8119
 2355Sol     HW12505   1.536   0.819   4.093  0.2588 -1.0628  1.2985
 2355Sol     MW12506   1.527   0.899   4.132  0.1361  0.3012  0.0895
 2356Sol     OW12507   2.911   1.599   7.720  0.2240  0.3272 -0.1533
 2356Sol     HW12508   2.841   1.664   7.720  0.6257  0.7650  0.4758
 2356Sol     HW12509   2.992   1.651   7.716  0.5431 -0.1281  0.3161
 2356Sol     MW12510   2.912   1.610   7.720  0.3620  0.6874 -0.5062
 2357Sol     OW12511   1.310   2.272   6.873 -0.5174 -0.2115  0.8083
 2357Sol     HW12512   1.306   2.181   6.903  2.3543 -1.1013 -1.3379
 2357Sol     HW12513   1.348   2.320   6.946 -3.2831 -0.3988  2.4772
 2357Sol     MW12514   1.313   2.268   6.882 -0.2988 -0.4573 -0.4732
 2358Sol     OW12515   0.275   1.537   5.399  0.1217 -0.2124 -0.0479
 2358Sol     HW12516   0.235   1.618   5.431 -1.0728 -0.5288 -0.6895
 2358Sol     HW12517   0.217   1.467   5.431 -0.1837 -0.6390 -1.4746
 2358Sol     MW12518   0.266   1.538   5.404 -0.5414 -0.3285  0.1823
 2359Sol     OW12519   1.325   1.124   2.365 -0.0717  0.4545  0.2713
 2359Sol     HW12520   1.337   1.061   2.294  3.2321  1.1377  0.1407
 2359Sol     HW12521   1.278   1.075   2.433  0.7963 -1.5971 -0.5606
 2359Sol     MW12522   1.322   1.114   2.365 -0.3504  0.0109 -0.2684
 2360Sol     OW12523   2.186   2.519   5.552  0.7051 -0.4364  0.2014
 2360Sol     HW12524   2.210   2.429   5.572  0.0574 -0.4689  0.8613
 2360Sol     HW12525   2.268   2.560   5.526  0.5741 -1.8474 -2.5836
 2360Sol     MW12526   2.195   2.515   5.552  0.3076  0.0412 -0.0475
 2361Sol     OW12527   1.567   2.391   5.225 -0.5679  0.1866  0.3316
 2361Sol     HW12528   1.511   2.461   5.257  0.9383  1.2120  0.7509
 2361Sol     HW12529   1.597   2.420   5.140 -0.1046 -0.0397  0.4138
 2361Sol     MW12530   1.564   2.400   5.221 -0.4753  0.5258  0.1450
 2362Sol     OW12531   1.399   1.021   7.353 -0.0643  0.3967  0.1118
 2362Sol     HW12532   1.359   1.048   7.270  1.8649  0.0088 -0.9567
 2362Sol     HW12533   1.484   0.984   7.329  0.0321 -0.8034  2.1550
 2362Sol     MW12534   1.403   1.020   7.344  0.3751 -0.5097  0.3381
 2363Sol     OW12535   0.770   0.941   6.029 -0.3138 -0.2244 -0.3354
 2363Sol     HW12536   0.806   0.904   6.110  0.7981  0.3209 -0.5659
 2363Sol     HW12537   0.847   0.961   5.976 -1.0422 -0.6963 -1.5872
 2363Sol     MW12538   0.780   0.940   6.032 -0.4747 -0.6784 -0.2452
 2364Sol     OW12539   2.575   0.476   5.206  0.1018 -0.1321 -0.1241
 2364Sol     HW12540   2.625   0.557   5.197 -0.2237  0.0318 -0.4878
 2364Sol     HW12541   2.494   0.493   5.158  0.7401 -1.2819 -1.6277
 2364Sol     MW12542   2.572   0.485   5.201 -0.3772  0.3393  0.3691
 2365Sol     OW12543   2.168   3.192   4.421 -0.6642 -0.5879  0.1912
 2365Sol     HW12544   2.203   3.279   4.442 -0.1294 -1.0506  1.1996
 2365Sol     HW12545   2.208   3.170   4.337  0.6774 -0.6721  0.8482
 2365Sol     MW12546   2.175   3.198   4.415 -0.5430  0.5822 -0.2693
 2366Sol     OW12547   0.498   0.829   5.929  0.2999 -0.6494  0.0008
 2366Sol     HW12548   0.586   0.832   5.967 -0.3298 -1.3281  1.5388
 2366Sol     HW12549   0.507   0.767   5.856  1.0741 -0.7894  0.2048
 2366Sol     MW12550   0.507   0.824   5.925  0.1080  0.2549  0.3264
 2367Sol     OW12551   0.015   2.090   2.633  0.6135  0.0045 -0.0041
 2367Sol     HW12552   0.084   2.154   2.651  0.1778  0.0890  1.4594
 2367Sol     HW12553  -0.066   2.141   2.637  0.4439 -0.0917 -1.7243
 2367Sol     MW12554   0.014   2.101   2.635 -0.0339 -0.0784 -0.2880
 2368Sol     OW12555   2.095   1.552   8.513 -0.7542  0.3962  0.6882
 2368Sol     HW12556   2.104   1.471   8.563 -0.8538 -1.5400 -2.2975
 2368Sol     HW12557   2.041   1.527   8.438  0.3429  2.8963 -0.9821
 2368Sol     MW12558   2.091   1.542   8.511  0.7286  0.1523  0.3201
 2369Sol     OW12559   3.255   2.673   5.300 -0.4596  0.2837  0.4374
 2369Sol     HW12560   3.287   2.606   5.361  2.4151 -0.1131 -1.4091
 2369Sol     HW12561   3.196   2.626   5.241  0.0575 -0.2260  0.3231
 2369Sol     MW12562   3.253   2.663   5.300  0.5228 -0.2025  0.5899
 2370Sol     OW12563   1.095   2.157   6.302  0.1489 -0.3820  0.3192
 2370Sol     HW12564   1.058   2.116   6.381  0.4676 -0.4875  0.4152
 2370Sol     HW12565   1.081   2.250   6.315  0.0054 -0.4138  0.4019
 2370Sol     MW12566   1.091   2.161   6.310  0.0850 -0.2061  0.5458
 2371Sol     OW12567   1.369   1.405   6.244  0.0916 -0.1560  0.0244
 2371Sol     HW12568   1.405   1.453   6.170 -0.4222  0.2809  0.0512
 2371Sol     HW12569   1.275   1.422   6.240  0.2690  1.3721  1.8493
 2371Sol     MW12570   1.363   1.411   6.237 -0.0009 -0.3369 -0.2673
 2372Sol     OW12571   1.738   0.204   7.989  0.3487 -0.1840 -0.2867
 2372Sol     HW12572   1.701   0.263   8.056 -0.1006  0.8597 -1.4304
 2372Sol     HW12573   1.808   0.255   7.949  0.7883 -0.9051 -0.4451
 2372Sol     MW12574   1.741   0.214   7.991 -0.0645 -0.1128 -0.6080
 2373Sol     OW12575   1.443   2.874   1.397 -0.5785 -0.7228  0.0805
 2373Sol     HW12576   1.539   2.879   1.395 -0.6330  0.2215 -2.0938
 2373Sol     HW12577   1.424   2.794   1.445  1.3926 -2.5165 -2.0209
 2373Sol     MW12578   1.450   2.868   1.401 -0.5307  0.3330 -0.6251
 2374Sol     OW12579   2.676   2.243   5.059  0.4459  0.4076 -0.3710
 2374Sol     HW12580   2.698   2.323   5.012  0.7597  0.3929 -0.2523
 2374Sol     HW12581   2.630   2.189   4.995  1.6148  0.0332 -0.9127
 2374Sol     MW12582   2.674   2.245   5.049 -0.3619  0.3461  0.3999
 2375Sol     OW12583   2.156   2.046   4.606 -0.0328 -0.3941  0.1756
 2375Sol     HW12584   2.207   1.966   4.620 -0.9136 -0.8778  0.6458
 2375Sol     HW12585   2.113   2.062   4.690 -1.5403 -0.6210 -0.5445
 2375Sol     MW12586   2.157   2.040   4.615 -1.1509  0.4617 -0.1544
 2376Sol     OW12587   2.303   1.256   3.907 -0.5249  0.3753  0.5129
 2376Sol     HW12588   2.343   1.289   3.827  0.1499 -0.0458  0.6731
 2376Sol     HW12589   2.286   1.164   3.889  0.6998 -0.0111  1.2567
 2376Sol     MW12590   2.305   1.251   3.899 -0.0959  0.2479  0.6785
 2377Sol     OW12591   0.132   1.340   5.529  0.0458 -0.1807 -0.3024
 2377Sol     HW12592   0.210   1.285   5.543  0.4896  0.6428  0.4847
 2377Sol     HW12593   0.138   1.408   5.597 -2.2429 -1.0807  0.8582
 2377Sol     MW12594   0.140   1.341   5.537 -0.1468  0.1945  0.0626
 2378Sol     OW12595   2.359   0.042   9.955 -0.3749 -0.6069  0.2823
 2378Sol     HW12596   2.425  -0.025   9.971  0.0171 -0.1938  0.3945
 2378Sol     HW12597   2.355   0.092  10.037 -1.3364 -1.0631  0.5358
 2378Sol     MW12598   2.364   0.040   9.964  0.1242  0.1363 -0.1780
 2379Sol     OW12599   1.714   0.874   4.933  0.1985  0.2034  0.1261
 2379Sol     HW12600   1.632   0.829   4.953  0.3546 -0.7495 -1.3596
 2379Sol     HW12601   1.756   0.819   4.867  1.4743  1.3133  0.0102
 2379Sol     MW12602   1.710   0.865   4.929 -0.8135 -0.6118 -0.3884
 2380Sol     OW12603   1.122   1.745   2.412  0.2791  0.2286 -0.0911
 2380Sol     HW12604   1.047   1.746   2.353  2.0470  1.2449 -2.4275
 2380Sol     HW12605   1.184   1.685   2.370  0.4922 -1.2392  2.2213
 2380Sol     MW12606   1.121   1.739   2.403 -0.0390  0.2376  0.0330
 2381Sol     OW12607   0.623   2.950   1.870  0.0805 -0.3088 -0.3081
 2381Sol     HW12608   0.662   3.027   1.829 -0.2909 -0.7541 -1.5162
 2381Sol     HW12609   0.528   2.965   1.864  0.0220 -0.0785  0.9795
 2381Sol     MW12610   0.618   2.958   1.866 -0.1980  0.6130  0.2569
 2382Sol     OW12611   2.532   1.737   4.646  0.7116 -0.5507 -0.6083
 2382Sol     HW12612   2.440   1.717   4.630  1.0288 -1.3587 -1.5384
 2382Sol     HW12613   2.554   1.685   4.724  0.6257 -1.1282 -0.9612
 2382Sol     MW12614   2.526   1.730   4.652 -0.3755 -0.0195 -0.3723
 2383Sol     OW12615   3.073   2.461   8.144 -1.0548 -0.0513 -0.2161
 2383Sol     HW12616   3.039   2.441   8.057  1.0132  1.8855 -1.5297
 2383Sol     HW12617   3.167   2.448   8.137 -0.9578 -0.8179  2.0293
 2383Sol     MW12618   3.078   2.458   8.136  0.2369 -0.6820  0.3187
 2384Sol     OW12619   1.993   2.409   3.141  0.7116  0.0986  0.6637
 2384Sol     HW12620   1.939   2.443   3.069 -0.0534 -0.7364  0.8395
 2384Sol     HW12621   1.931   2.387   3.210  1.5933  2.8791  2.4410
 2384Sol     MW12622   1.983   2.410   3.140 -0.4915  0.8377 -0.7319
 2385Sol     OW12623   2.392   2.369   3.829 -0.1677  0.0919 -0.0729
 2385Sol     HW12624   2.371   2.329   3.745  0.5205  0.8167 -0.5938
 2385Sol     HW12625   2.467   2.425   3.811 -0.3589  0.6731  0.9079
 2385Sol     MW12626   2.397   2.370   3.820  0.1861 -0.1449 -0.3740
 2386Sol     OW12627   2.964   0.775   7.490  0.4438  0.1268 -0.2011
 2386Sol     HW12628   2.948   0.851   7.546  1.2012 -0.0566  0.2640
 2386Sol     HW12629   2.897   0.712   7.517  0.1345  0.4351 -0.2388
 2386Sol     MW12630   2.956   0.776   7.498 -0.3968  0.5187 -0.0524
 2387Sol     OW12631   1.199   0.283   8.729 -0.3743 -0.4972 -0.0254
 2387Sol     HW12632   1.241   0.368   8.744 -2.9737  0.7639  0.4320
 2387Sol     HW12633   1.240   0.250   8.650  1.4985  0.6453  0.4266
 2387Sol     MW12634   1.207   0.288   8.724  0.1805  0.1582 -0.5590
 2388Sol     OW12635   2.284   2.468   9.862  0.0759  0.1226  0.4448
 2388Sol     HW12636   2.253   2.378   9.871  0.3845 -0.1190 -0.8832
 2388Sol     HW12637   2.315   2.475   9.772 -2.2267  2.2932 -0.2470
 2388Sol     MW12638   2.284   2.461   9.855 -0.2662  0.0881  0.5930
 2389Sol     OW12639   1.652   2.751   7.393 -0.2645 -0.0973 -0.1320
 2389Sol     HW12640   1.659   2.742   7.488 -1.3589 -0.4546 -0.0796
 2389Sol     HW12641   1.565   2.717   7.372 -0.5438  1.1793 -1.1015
 2389Sol     MW12642   1.645   2.747   7.400  0.5408  0.3271  0.3896
 2390Sol     OW12643   2.578   1.528   3.597 -0.3446 -0.3242 -0.6897
 2390Sol     HW12644   2.508   1.464   3.614  0.2852 -1.0301 -0.6939
 2390Sol     HW12645   2.631   1.526   3.677  1.4979 -2.1853 -1.9045
 2390Sol     MW12646   2.576   1.522   3.606 -0.3130 -0.0437  0.1533
 2391Sol     OW12647   2.175   3.058   9.015 -0.6656  0.2147 -0.2485
 2391Sol     HW12648   2.269   3.056   8.999 -0.8109 -0.1175 -1.1160
 2391Sol     HW12649   2.165   3.107   9.096  0.0925  2.4101 -1.4394
 2391Sol     MW12650   2.182   3.062   9.021 -0.0580  0.3794 -0.6851
 2392Sol     OW12651   2.758   0.904   6.924  0.0303 -0.4720 -0.3728
 2392Sol     HW12652   2.788   0.869   6.840 -0.3284 -2.5812  0.3667
 2392Sol     HW12653   2.831   0.890   6.984 -0.5565 -1.0269  0.2151
 2392Sol     MW12654   2.767   0.900   6.922 -0.2271 -0.0216  0.3636
 2393Sol     OW12655   1.790   2.596   4.040  0.0847  0.3237  0.7686
 2393Sol     HW12656   1.700   2.564   4.028  0.2127 -0.0014  0.6810
 2393Sol     HW12657   1.787   2.688   4.011 -0.1226  0.1930  0.3693
 2393Sol     MW12658   1.781   2.602   4.036 -0.2986  0.5373  0.2356
 2394Sol     OW12659   1.684   1.265   9.785 -0.3889 -0.5070 -0.2790
 2394Sol     HW12660   1.598   1.243   9.821 -0.6101  0.9390  0.1044
 2394Sol     HW12661   1.680   1.359   9.771  1.2682 -0.3759  0.0925
 2394Sol     MW12662   1.676   1.271   9.787  0.0600 -0.3100 -0.2132
 2395Sol     OW12663   1.409   3.352   3.357  0.2456 -0.1848  0.6795
 2395Sol     HW12664   1.336   3.294   3.337  0.1170  0.3548 -0.4875
 2395Sol     HW12665   1.475   3.332   3.290  0.4733  0.5218  0.6861
 2395Sol     MW12666   1.409   3.345   3.349  0.0186  0.0326 -0.9974
 2396Sol     OW12667   0.041   2.648   7.590 -0.0230 -0.0554  0.5222
 2396Sol     HW12668   0.083   2.662   7.675  3.4632 -0.3593 -1.0768
 2396Sol     HW12669   0.022   2.737   7.558 -0.0732  0.1066  0.9943
 2396Sol     MW12670   0.043   2.658   7.595  0.6408  0.5573 -0.2438
 2397Sol     OW12671   1.252   0.850   4.848  0.3348  0.0218  0.2111
 2397Sol     HW12672   1.340   0.815   4.834 -0.6665 -2.1089 -1.1787
 2397Sol     HW12673   1.246   0.924   4.787  0.5096 -1.0633 -1.1611
 2397Sol     MW12674   1.259   0.853   4.841 -0.0423  0.2043 -0.1976
 2398Sol     OW12675   1.640   0.978   8.685 -0.1695  0.7726  0.2822
 2398Sol     HW12676   1.639   1.066   8.721 -0.1200  0.6511  0.5844
 2398Sol     HW12677   1.584   0.927   8.744 -0.8031  0.7689 -0.3211
 2398Sol     MW12678   1.635   0.981   8.694 -0.7575  0.3000 -0.2143
 2399Sol     OW12679   1.183   1.167   8.864 -0.2281 -0.3765  0.8949
 2399Sol     HW12680   1.114   1.192   8.924 -0.2315  1.5940  0.1007
 2399Sol     HW12681   1.172   1.225   8.788  1.1771 -1.2519 -0.0122
 2399Sol     MW12682   1.176   1.174   8.862  0.5562  0.2785 -0.2674
 2400Sol     OW12683   2.507   1.651   1.572  0.5290 -0.6252 -0.4250
 2400Sol     HW12684   2.445   1.620   1.638  0.1858 -0.6342 -0.7527
 2400Sol     HW12685   2.505   1.746   1.579 -0.1306 -0.5943 -0.9931
 2400Sol     MW12686   2.502   1.657   1.579  0.4884 -0.3865  0.2289
 2401Sol     OW12687   3.265   1.387   7.512  0.1949  0.5406 -0.2008
 2401Sol     HW12688   3.270   1.415   7.604 -0.3757  2.1044 -0.6282
 2401Sol     HW12689   3.287   1.294   7.514 -0.3254  0.4390  1.5935
 2401Sol     MW12690   3.268   1.382   7.521  0.6081 -0.2652 -0.2282
 2402Sol     OW12691   1.388   1.979   8.910 -0.1769 -0.1344  0.2425
 2402Sol     HW12692   1.470   1.985   8.861  0.3680  0.6618  1.2289
 2402Sol     HW12693   1.403   1.909   8.974  0.4151  1.2593  1.6590
 2402Sol     MW12694   1.397   1.973   8.912  0.2336  0.3022 -0.0002
 2403Sol     OW12695   2.817   1.131   2.412  0.0373  0.7867 -0.0025
 2403Sol     HW12696   2.856   1.170   2.490  0.8898  0.8374 -0.4483
 2403Sol     HW12697   2.759   1.062   2.445  2.8444 -1.3940  0.5722
 2403Sol     MW12698   2.815   1.128   2.422  0.2130 -0.0461 -0.3870
 2404Sol     OW12699   2.753   3.116   9.209  0.0666 -0.1583 -0.4233
 2404Sol     HW12700   2.757   3.181   9.139 -2.1663  1.1882  0.6503
 2404Sol     HW12701   2.674   3.138   9.257  0.2436 -2.6088  1.0358
 2404Sol     MW12702   2.746   3.124   9.207  0.1983  0.3428 -0.5803
 2405Sol     OW12703   2.764   1.246   6.138 -1.0509 -0.0664  0.4723
 2405Sol     HW12704   2.686   1.214   6.184  0.5597  0.4212  3.6634
 2405Sol     HW12705   2.738   1.330   6.101 -2.5002 -0.6511  0.1450
 2405Sol     MW12706   2.755   1.251   6.139  0.5550 -0.4994  0.9569
 2406Sol     OW12707   0.732   1.564   8.244  0.1033  0.4262 -0.6641
 2406Sol     HW12708   0.742   1.532   8.154 -1.0534  0.2015 -0.7231
 2406Sol     HW12709   0.794   1.637   8.251  1.5118 -0.7167 -1.0697
 2406Sol     MW12710   0.738   1.568   8.236 -0.4857  0.1702  0.3998
 2407Sol     OW12711   1.601   0.630   3.965  0.3130 -0.1924  0.1729
 2407Sol     HW12712   1.540   0.639   3.891  1.4066  0.5352 -0.6458
 2407Sol     HW12713   1.675   0.582   3.929  2.0899  2.5786  0.0524
 2407Sol     MW12714   1.602   0.626   3.955 -0.1301 -0.8986  0.2594
 2408Sol     OW12715   1.590   2.749   4.970  0.5841  0.2985 -0.0350
 2408Sol     HW12716   1.547   2.769   4.887  1.6026 -0.1661 -0.6850
 2408Sol     HW12717   1.667   2.805   4.971  1.5384 -0.9800 -0.2374
 2408Sol     MW12718   1.593   2.756   4.962 -0.0666  0.3060  0.3291
 2409Sol     OW12719   0.521   2.289   4.735 -0.1690  0.0861  0.0042
 2409Sol     HW12720   0.574   2.317   4.660  1.0438 -1.6998  0.1630
 2409Sol     HW12721   0.451   2.236   4.696  0.4094 -0.7671  0.1090
 2409Sol     MW12722   0.519   2.287   4.724 -0.0893  0.1158 -0.2272
 2410Sol     OW12723   1.981   1.223   1.942  0.0772 -0.2214  0.0557
 2410Sol     HW12724   2.011   1.307   1.976 -2.3393  0.5704  0.3855
 2410Sol     HW12725   1.894   1.242   1.906  0.1230 -2.2819 -1.2316
 2410Sol     MW12726   1.976   1.232   1.942 -0.5950  0.0267 -0.2034
 2411Sol     OW12727   1.456   2.053   6.495 -0.0689  0.1935 -0.4841
 2411Sol     HW12728   1.417   1.975   6.536 -0.4868  0.8440  0.3555
 2411Sol     HW12729   1.538   2.021   6.458 -1.2366 -1.1352 -2.0197
 2411Sol     MW12730   1.460   2.043   6.495 -0.1877 -0.8747 -0.5193
 2412Sol     OW12731   0.087   1.596   4.825 -0.2452 -0.6998  0.0244
 2412Sol     HW12732   0.183   1.598   4.832 -0.1640 -1.5530 -0.6862
 2412Sol     HW12733   0.056   1.602   4.915  0.5155 -1.8129  0.3778
 2412Sol     MW12734   0.093   1.597   4.833  0.4266  0.1531 -0.0951
 2413Sol     OW12735   0.781   0.340   1.416  0.3315 -0.3281 -0.0531
 2413Sol     HW12736   0.782   0.347   1.512 -1.3250 -1.4363  0.0522
 2413Sol     HW12737   0.716   0.404   1.388 -0.5284 -1.3159 -0.3195
 2413Sol     MW12738   0.776   0.346   1.422 -0.1812  0.1445  0.0386
 2414Sol     OW12739   2.137   1.663   4.855  0.1732  0.4094  0.7315
 2414Sol     HW12740   2.062   1.715   4.884 -0.1524  0.3007  0.0940
 2414Sol     HW12741   2.102   1.574   4.847  0.4333  0.3134  0.6633
 2414Sol     MW12742   2.127   1.660   4.857  0.0484 -0.1045  0.0799
 2415Sol     OW12743   2.865   0.762   3.620 -0.0886  0.1580  0.1973
 2415Sol     HW12744   2.952   0.777   3.583  0.3139 -1.0044  0.6410
 2415Sol     HW12745   2.859   0.823   3.693 -0.6212  1.9831 -1.3334
 2415Sol     MW12746   2.872   0.769   3.623  0.2846  0.3672  0.1799
 2416Sol     OW12747   2.034   1.033   1.376  0.6146 -0.0009  0.4500
 2416Sol     HW12748   2.002   0.954   1.333 -0.6148  0.4197  0.5897
 2416Sol     HW12749   2.033   1.099   1.308 -0.5433  0.4589  0.8975
 2416Sol     MW12750   2.031   1.032   1.366  0.3814  0.3853 -0.0817
 2417Sol     OW12751   0.021   2.046   4.195 -0.3051 -0.2586 -0.6021
 2417Sol     HW12752   0.107   2.015   4.167  0.4355  0.5105  0.7758
 2417Sol     HW12753  -0.036   2.032   4.119  1.0551 -0.6757 -1.5552
 2417Sol     MW12754   0.023   2.042   4.186 -0.7489 -0.1980 -0.3655
 2418Sol     OW12755   3.256   0.753   7.527 -0.6821  0.0257 -0.0746
 2418Sol     HW12756   3.284   0.662   7.540 -0.2131 -0.2208 -2.4485
 2418Sol     HW12757   3.163   0.747   7.507 -0.9191  0.1910  0.9605
 2418Sol     MW12758   3.250   0.744   7.526 -0.7727  0.0403  0.2423
 2419Sol     OW12759   1.357   2.068   6.240 -0.0906  0.3875  0.0724
 2419Sol     HW12760   1.263   2.084   6.252 -0.4365 -1.5548  0.0166
 2419Sol     HW12761   1.390   2.050   6.328 -0.3216 -1.7221 -0.2472
 2419Sol     MW12762   1.352   2.068   6.249 -0.3293  0.4230 -0.2954
 2420Sol     OW12763   2.128   2.955   5.092  0.2678  0.1212 -0.0564
 2420Sol     HW12764   2.218   2.925   5.105  0.4011  0.0170 -1.1705
 2420Sol     HW12765   2.116   3.025   5.157  0.6993 -0.7856  1.0081
 2420Sol     MW12766   2.135   2.959   5.099  0.4922  0.0994  0.3596
 2421Sol     OW12767   2.915   1.677   6.439 -0.0505 -0.1635 -0.1927
 2421Sol     HW12768   2.958   1.688   6.354 -0.1848 -1.7859 -0.4789
 2421Sol     HW12769   2.875   1.762   6.457  1.5941  0.7616 -0.8598
 2421Sol     MW12770   2.915   1.686   6.433  0.6048 -0.3001 -0.3156
 2422Sol     OW12771   3.094   0.389   7.712  0.6828 -0.1117  0.1545
 2422Sol     HW12772   3.117   0.356   7.799  2.2748  2.0598  0.5987
 2422Sol     HW12773   3.025   0.453   7.727 -1.2662 -1.9822 -0.5456
 2422Sol     MW12774   3.090   0.392   7.721 -0.4880 -0.3123  0.3369
 2423Sol     OW12775   1.772   3.220   7.948  0.2417  0.2800 -0.4456
 2423Sol     HW12776   1.707   3.153   7.929  0.4958 -0.3732  0.9473
 2423Sol     HW12777   1.855   3.173   7.953  0.6534  0.9336 -1.0475
 2423Sol     MW12778   1.774   3.210   7.947 -0.0319 -0.0051 -0.5931
 2424Sol     OW12779   2.466   3.414   1.826  0.4262 -0.3516  0.5388
 2424Sol     HW12780   2.437   3.323   1.832 -1.0174  0.0050 -0.6133
 2424Sol     HW12781   2.463   3.434   1.732 -3.0152  1.9919  1.0270
 2424Sol     MW12782   2.463   3.408   1.818 -0.3609 -0.1450  0.2794
 2425Sol     OW12783   2.511   0.579   2.739  0.3548  0.3893  0.1352
 2425Sol     HW12784   2.579   0.558   2.675 -0.9173  1.5800 -1.6816
 2425Sol     HW12785   2.534   0.667   2.770  1.0806 -0.2703  1.4825
 2425Sol     MW12786   2.519   0.585   2.736 -0.5470  0.3751 -0.4399
 2426Sol     OW12787   2.753   0.394   7.240 -0.1045 -0.4471 -0.0540
 2426Sol     HW12788   2.795   0.310   7.223 -1.1676 -1.0762  0.4647
 2426Sol     HW12789   2.826   0.453   7.262  0.6978 -1.0579 -1.0624
 2426Sol     MW12790   2.764   0.392   7.240 -0.3433 -0.3451  0.2496
 2427Sol     OW12791   0.568   0.616   8.591  0.2636  0.6289  0.0980
 2427Sol     HW12792   0.602   0.528   8.578 -1.1521  0.1119 -0.2194
 2427Sol     HW12793   0.593   0.639   8.680  0.7376 -0.0592  0.1411
 2427Sol     MW12794   0.573   0.610   8.598  0.3421  0.0692 -0.3440
 2428Sol     OW12795   0.617   0.671   2.337 -0.4484  0.6739  0.0377
 2428Sol     HW12796   0.543   0.689   2.279  1.0363  1.5584 -1.6179
 2428Sol     HW12797   0.657   0.592   2.302 -0.3309  0.4401  0.6845
 2428Sol     MW12798   0.614   0.666   2.329  0.1732  0.0210  0.0319
 2429Sol     OW12799   1.749   0.112   6.418 -0.3008  0.9154 -0.1268
 2429Sol     HW12800   1.715   0.182   6.475 -0.2553  0.4165  0.5147
 2429Sol     HW12801   1.803   0.059   6.476  0.4411  0.8986 -0.8321
 2429Sol     MW12802   1.751   0.114   6.429 -0.5084  0.0211  0.1585
 2430Sol     OW12803   2.713   0.811   9.014 -0.0967 -0.1550 -0.2191
 2430Sol     HW12804   2.743   0.835   9.101 -0.5307  0.0174 -0.1140
 2430Sol     HW12805   2.741   0.884   8.958  1.4304 -0.9236 -0.4861
 2430Sol     MW12806   2.718   0.820   9.017 -0.0606 -0.0829 -0.2236
 2431Sol     OW12807   0.946   1.619   5.165  0.1729  0.4428 -0.2369
 2431Sol     HW12808   0.967   1.582   5.251  0.3888  2.5729  0.6528
 2431Sol     HW12809   0.976   1.553   5.103 -1.2763 -1.7751  1.3381
 2431Sol     MW12810   0.950   1.610   5.167  0.0454 -0.1303 -0.3729
 2432Sol     OW12811   1.648   2.215   8.255  0.7757  0.0944 -0.2179
 2432Sol     HW12812   1.577   2.220   8.318  0.9773  0.9334 -0.0510
 2432Sol     HW12813   1.727   2.210   8.308  0.9770  1.2891 -0.3962
 2432Sol     MW12814   1.649   2.215   8.265 -0.2168 -0.4305 -0.8631
 2433Sol     OW12815   2.127   0.550   2.716  0.0310  0.4692  0.5702
 2433Sol     HW12816   2.158   0.599   2.640 -1.0460 -0.7684 -0.7026
 2433Sol     HW12817   2.132   0.613   2.789  1.3109  1.5912 -0.4624
 2433Sol     MW12818   2.130   0.560   2.716 -0.2291  0.1078 -0.8287
 2434Sol     OW12819   2.446   0.360   7.196  0.1057 -0.0483  0.1078
 2434Sol     HW12820   2.540   0.379   7.197  0.5633 -2.1240  2.4374
 2434Sol     HW12821   2.409   0.415   7.265 -0.3314  0.4599 -0.5277
 2434Sol     MW12822   2.451   0.366   7.202  0.6472  0.2085  0.5739
 2435Sol     OW12823   1.180   2.380   8.738  0.2207  0.2836 -0.5859
 2435Sol     HW12824   1.149   2.445   8.801 -0.5150  0.1344 -0.7809
 2435Sol     HW12825   1.275   2.379   8.749  0.2824  1.6865 -0.8578
 2435Sol     MW12826   1.186   2.386   8.745 -0.7132 -0.2807  0.0939
 2436Sol     OW12827   1.508   0.812   7.942 -0.3321 -0.6643  0.1501
 2436Sol     HW12828   1.457   0.762   7.878 -0.9456 -0.0289  0.1393
 2436Sol     HW12829   1.443   0.863   7.990  0.1820 -0.7135  0.9106
 2436Sol     MW12830   1.498   0.812   7.941  0.0947 -0.2145 -0.1842
 2437Sol     OW12831   1.685   1.249   5.713 -0.1883  0.3706  0.2283
 2437Sol     HW12832   1.653   1.163   5.685 -1.3327  1.0815 -0.7101
 2437Sol     HW12833   1.781   1.240   5.715 -0.3118 -0.9653  0.2933
 2437Sol     MW12834   1.691   1.241   5.711  0.3104  0.3537  0.0064
 2438Sol     OW12835   2.770   1.017   8.830  0.1816  0.8423  0.4251
 2438Sol     HW12836   2.801   1.105   8.848 -0.0306  1.5642 -2.5154
 2438Sol     HW12837   2.696   1.029   8.771  0.1224 -1.2867  0.0139
 2438Sol     MW12838   2.766   1.026   8.826 -0.2780 -0.1268 -0.5456
 2439Sol     OW12839   3.248   0.691   1.795  0.3544  0.0987 -0.8217
 2439Sol     HW12840   3.166   0.658   1.760  0.5576 -0.8496 -0.4020
 2439Sol     HW12841   3.239   0.787   1.789 -1.0161  0.0254 -0.2283
 2439Sol     MW12842   3.240   0.697   1.791 -0.3737 -0.2091  0.3764
 2440Sol     OW12843   3.260   0.111   4.388  0.0228 -0.2073  0.2661
 2440Sol     HW12844   3.177   0.071   4.416 -0.8513  1.1283 -0.4065
 2440Sol     HW12845   3.259   0.104   4.293  1.1960 -1.1645  0.3144
 2440Sol     MW12846   3.252   0.107   4.382 -0.0134  0.1091  0.0691
 2441Sol     OW12847   1.599   0.768   3.582  0.4173 -0.6901  0.1864
 2441Sol     HW12848   1.650   0.692   3.608 -0.5231 -1.4709 -0.2066
 2441Sol     HW12849   1.514   0.732   3.557 -0.0725  0.5010  0.1013
 2441Sol     MW12850   1.596   0.758   3.582  0.5140 -0.6361  0.4786
 2442Sol     OW12851   2.201   2.864   2.337 -0.6453  0.7976  0.2086
 2442Sol     HW12852   2.117   2.827   2.363 -1.4730  2.4311 -0.0754
 2442Sol     HW12853   2.197   2.870   2.242 -0.9701  2.6075  0.3161
 2442Sol     MW12854   2.193   2.861   2.331 -0.2617 -0.1925 -0.3195
 2443Sol     OW12855   0.436   1.286   5.442 -0.4300 -0.1992 -0.8189
 2443Sol     HW12856   0.517   1.266   5.490 -0.7971 -1.6760 -0.7994
 2443Sol     HW12857   0.412   1.375   5.471  2.0464  0.9151 -2.0339
 2443Sol     MW12858   0.441   1.293   5.449  0.4721  0.0723 -0.0374
 2444Sol     OW12859   2.356   1.724   3.759 -0.2007 -0.1237  0.0967
 2444Sol     HW12860   2.380   1.656   3.821 -1.6153 -0.4795  0.2718
 2444Sol     HW12861   2.415   1.711   3.685  0.2301 -0.8791  0.5675
 2444Sol     MW12862   2.363   1.717   3.758 -0.2813 -0.1670 -0.0016
 2445Sol     OW12863   0.784   1.963   4.906  0.1634  0.2809  0.6183
 2445Sol     HW12864   0.864   1.997   4.946  0.4647  0.5224 -0.1800
 2445Sol     HW12865   0.795   1.868   4.909  0.5668  0.3198  0.3290
 2445Sol     MW12866   0.792   1.957   4.910 -0.2889  0.0255  0.2497
 2446Sol     OW12867   2.249   2.978   3.837 -0.3294 -0.1927 -0.0060
 2446Sol     HW12868   2.285   2.916   3.900  2.9496  1.3680 -0.1924
 2446Sol     HW12869   2.238   2.927   3.757  3.0690 -0.4877 -0.3900
 2446Sol     MW12870   2.251   2.968   3.836  0.5825 -0.6326  0.2184
 2447Sol     OW12871   1.157   3.401   6.812 -0.1109  0.3429 -0.5450
 2447Sol     HW12872   1.118   3.374   6.895 -1.3702 -0.3940 -1.3522
 2447Sol     HW12873   1.229   3.459   6.837 -1.6205  1.5904  0.9885
 2447Sol     MW12874   1.160   3.404   6.822  0.3507 -0.6382  0.6770
 2448Sol     OW12875   0.834   2.063   3.168  0.7446 -0.0095 -1.0639
 2448Sol     HW12876   0.810   1.981   3.211  1.0555  0.0087 -0.8576
 2448Sol     HW12877   0.925   2.078   3.192 -0.4229  2.4686  2.2411
 2448Sol     MW12878   0.840   2.057   3.174 -0.1228 -0.5212 -0.8800
 2449Sol     OW12879   2.999   1.789   9.699 -0.1903  0.2858  0.4230
 2449Sol     HW12880   2.948   1.711   9.677  0.2633 -0.5813  2.3497
 2449Sol     HW12881   3.034   1.771   9.786  0.1806  2.5156  0.7652
 2449Sol     MW12882   2.998   1.781   9.705  0.8721  0.6233  0.1291
 2450Sol     OW12883   0.449   3.434   3.479  0.2890  0.2781 -0.4588
 2450Sol     HW12884   0.415   3.363   3.534 -1.3545  0.9040 -0.6264
 2450Sol     HW12885   0.446   3.398   3.390 -0.4322  0.5019 -0.5305
 2450Sol     MW12886   0.446   3.424   3.476  0.3118  0.1401 -0.0736
 2451Sol     OW12887   1.409   1.352   8.221 -0.1697  0.1666  0.1279
 2451Sol     HW12888   1.329   1.347   8.273 -1.2822 -1.2559 -1.6421
 2451Sol     HW12889   1.454   1.269   8.237 -0.1368  0.0490 -0.5533
 2451Sol     MW12890   1.405   1.344   8.227 -0.6676  0.0037 -0.0013
 2452Sol     OW12891   1.616   3.256   1.914 -0.4164 -0.6794 -0.7261
 2452Sol     HW12892   1.607   3.173   1.869  0.2637 -1.3311  0.3178
 2452Sol     HW12893   1.701   3.251   1.957 -0.1779  0.7243 -1.0060
 2452Sol     MW12894   1.623   3.248   1.914  0.3590  0.7576 -0.5726
 2453Sol     OW12895   1.849   2.193   1.626  0.4408  0.8867 -0.0765
 2453Sol     HW12896   1.936   2.153   1.619  0.0377 -0.0261  0.1476
 2453Sol     HW12897   1.797   2.130   1.674 -0.4129  1.3422 -0.3916
 2453Sol     MW12898   1.852   2.184   1.629 -0.1502 -0.1453  0.4747
 2454Sol     OW12899   0.461   3.268   2.771 -0.7296  0.2322 -0.4825
 2454Sol     HW12900   0.507   3.280   2.853 -1.4151 -0.4466  0.0048
 2454Sol     HW12901   0.514   3.206   2.721 -1.2843 -0.7981  0.2071
 2454Sol     MW12902   0.470   3.264   2.774  0.8416 -0.5216  0.2128
 2455Sol     OW12903   0.115   2.983   8.082  0.3725  0.2142 -0.1075
 2455Sol     HW12904   0.077   2.896   8.088 -0.2387  0.4657 -0.2836
 2455Sol     HW12905   0.052   3.033   8.029  0.7016  0.7679  0.0209
 2455Sol     MW12906   0.106   2.980   8.077 -0.2030  0.0305  0.5094
 2456Sol     OW12907   0.528   1.104   7.513 -0.3913  0.4819  0.2971
 2456Sol     HW12908   0.570   1.187   7.533  1.7207 -0.2104 -1.1733
 2456Sol     HW12909   0.509   1.066   7.599  1.4458  1.0882  0.9931
 2456Sol     MW12910   0.530   1.108   7.523 -0.0260  0.0789  0.3552
 2457Sol     OW12911   1.154   0.398   8.374  0.0278 -0.6184  0.2684
 2457Sol     HW12912   1.093   0.418   8.445 -0.0144 -0.3525  0.1569
 2457Sol     HW12913   1.099   0.365   8.303 -0.0802  0.3212 -0.1037
 2457Sol     MW12914   1.144   0.397   8.374  0.1679 -0.2818 -0.0956
 2458Sol     OW12915   0.375   1.734   9.716 -0.2649  0.7096  0.2116
 2458Sol     HW12916   0.406   1.667   9.776  0.7141  2.1187  1.2988
 2458Sol     HW12917   0.442   1.738   9.648 -0.5014  0.3599 -0.0491
 2458Sol     MW12918   0.384   1.728   9.715  0.2600 -0.0141  0.4263
 2459Sol     OW12919   1.514   0.925   9.046 -0.2626 -0.0296 -0.8907
 2459Sol     HW12920   1.569   0.999   9.020 -0.4407  0.5555  0.3446
 2459Sol     HW12921   1.448   0.963   9.104 -0.1728 -1.1949  0.0013
 2459Sol     MW12922   1.513   0.935   9.049 -0.0146 -0.2462 -0.5172
 2460Sol     OW12923   0.135   3.117   4.682 -0.5452 -0.2850  0.3717
 2460Sol     HW12924   0.180   3.197   4.654 -0.2928 -0.9128 -1.0586
 2460Sol     HW12925   0.194   3.046   4.657 -1.2473 -0.9780  0.6527
 2460Sol     MW12926   0.144   3.118   4.677  0.5949  0.1714  0.4232
 2461Sol     OW12927   3.207   0.643   3.068  0.2076 -0.2116  0.5524
 2461Sol     HW12928   3.158   0.564   3.044  1.0919 -0.6921  0.3041
 2461Sol     HW12929   3.184   0.707   3.000 -1.2280  0.0460  1.2662
 2461Sol     MW12930   3.201   0.641   3.059 -0.0918  0.0299 -0.1234
 2462Sol     OW12931   2.690   2.005   8.473 -0.5767 -0.2494 -0.5221
 2462Sol     HW12932   2.690   2.063   8.549  0.4244  0.0008 -0.7052
 2462Sol     HW12933   2.778   1.969   8.470 -0.6604 -0.4046 -1.4559
 2462Sol     MW12934   2.698   2.007   8.479  0.4241  0.2700  0.4570
 2463Sol     OW12935   1.256   2.585   1.897  0.0019  0.2419  0.0146
 2463Sol     HW12936   1.351   2.581   1.913 -0.2999 -0.8309  1.6506
 2463Sol     HW12937   1.232   2.675   1.921  0.5711  0.4413 -0.1513
 2463Sol     MW12938   1.263   2.593   1.901 -0.5162  0.4560  0.5632
 2464Sol     OW12939   1.365   2.675   8.875 -0.0665 -0.3736  0.0803
 2464Sol     HW12940   1.410   2.680   8.791  1.0100  1.2687  0.7411
 2464Sol     HW12941   1.308   2.752   8.876  0.7204  0.2008  1.3027
 2464Sol     MW12942   1.364   2.682   8.867 -0.6749 -0.3421  0.5088
 2465Sol     OW12943   0.354   2.148   7.160 -0.1024  0.2654  0.0988
 2465Sol     HW12944   0.350   2.182   7.070 -0.2854 -0.1539 -0.0538
 2465Sol     HW12945   0.335   2.055   7.151  1.0271 -0.0055  0.4469
 2465Sol     MW12946   0.352   2.143   7.151 -0.2438  0.0720  0.1809
 2466Sol     OW12947   3.136   0.869   3.541 -0.2796  0.3752 -0.5306
 2466Sol     HW12948   3.195   0.832   3.607  0.9069  0.0609 -1.7276
 2466Sol     HW12949   3.169   0.834   3.458 -2.7225 -0.4968 -1.1600
 2466Sol     MW12950   3.145   0.863   3.539  0.1410 -0.0746  0.3991
 2467Sol     OW12951   0.816   1.950   3.576  0.1486  0.0304  0.3530
 2467Sol     HW12952   0.734   1.945   3.527  0.3611 -0.5816  0.0601
 2467Sol     HW12953   0.805   1.888   3.648  0.3304 -0.0003  0.3544
 2467Sol     MW12954   0.807   1.944   3.578 -0.3173  0.0273 -0.6609
 2468Sol     OW12955   2.362   2.966   1.530  0.0514  0.0094 -0.0463
 2468Sol     HW12956   2.331   2.961   1.440  0.6532  0.6501 -0.2941
 2468Sol     HW12957   2.283   2.968   1.583 -0.3641  2.7946 -0.7223
 2468Sol     MW12958   2.352   2.965   1.526 -0.1401 -0.0418  0.5798
 2469Sol     OW12959   3.301   3.022   4.272 -0.0063  0.2953  0.1686
 2469Sol     HW12960   3.286   3.042   4.364 -1.5564 -0.6862  0.1391
 2469Sol     HW12961   3.382   2.970   4.272 -0.4361 -0.3919  1.0737
 2469Sol     MW12962   3.307   3.019   4.280  0.1454  0.2545 -0.1029
 2470Sol     OW12963   0.054   2.514   3.418 -0.5380 -0.0228 -0.5937
 2470Sol     HW12964   0.095   2.549   3.497 -0.8948  0.4361 -0.6159
 2470Sol     HW12965   0.058   2.586   3.355 -0.7386 -0.2137 -0.8245
 2470Sol     MW12966   0.058   2.523   3.419 -0.4607  0.2341  0.4637
 2471Sol     OW12967   2.487   0.709   8.922  0.0773 -0.3295  0.0554
 2471Sol     HW12968   2.455   0.665   9.001 -1.8876 -1.5225 -1.3602
 2471Sol     HW12969   2.567   0.753   8.950 -0.3403 -1.1033  2.6018
 2471Sol     MW12970   2.491   0.709   8.931  0.0094 -0.2296  0.0487
 2472Sol     OW12971   2.977   0.754   6.451 -0.0398 -0.5874  0.2196
 2472Sol     HW12972   2.917   0.720   6.385  0.5606  0.0699 -0.6836
 2472Sol     HW12973   3.057   0.703   6.440  0.0149 -0.5657  0.5234
 2472Sol     MW12974   2.979   0.747   6.444 -0.6222 -0.6278  0.6540
 2473Sol     OW12975   1.534   3.359   3.600 -0.1748  0.1424  0.3339
 2473Sol     HW12976   1.561   3.450   3.614 -0.1897  0.0394  1.0529
 2473Sol     HW12977   1.511   3.354   3.507  0.3342  0.7415  0.1721
 2473Sol     MW12978   1.535   3.366   3.593  0.2618 -0.0817  0.0832
 2474Sol     OW12979   0.717   0.374   1.736 -1.2168 -0.1386  0.3232
 2474Sol     HW12980   0.788   0.428   1.770 -2.0755  1.5444 -0.4602
 2474Sol     HW12981   0.719   0.295   1.789  0.0588  0.6839  1.5423
 2474Sol     MW12982   0.723   0.372   1.743 -0.2824 -0.0515 -0.1691
 2475Sol     OW12983   0.512   1.034   4.962 -0.1377  0.0072  0.0634
 2475Sol     HW12984   0.502   1.066   5.052  1.8303 -0.5964  0.5373
 2475Sol     HW12985   0.459   1.093   4.909  0.4066  1.7243  1.3797
 2475Sol     MW12986   0.506   1.042   4.965  0.2914 -0.4644  0.6087
 2476Sol     OW12987   0.279   2.991   5.089 -0.3920  0.3093  0.8646
 2476Sol     HW12988   0.257   3.060   5.026 -0.6813  1.0507  1.7663
 2476Sol     HW12989   0.368   2.965   5.065  0.0936  1.6847  1.1289
 2476Sol     MW12990   0.285   2.995   5.081  0.3028 -0.1256 -0.5752
 2477Sol     OW12991   1.166   1.858   3.292  0.2093 -0.1711 -0.1595
 2477Sol     HW12992   1.132   1.948   3.293 -2.3111 -1.0689  1.1295
 2477Sol     HW12993   1.239   1.860   3.232  1.2059  3.1136  1.0674
 2477Sol     MW12994   1.169   1.866   3.287 -0.4059 -0.3917 -0.0186
 2478Sol     OW12995   0.338   1.659   2.152  0.2532 -0.1773 -0.1571
 2478Sol     HW12996   0.365   1.645   2.061  0.6053 -0.5629  0.0100
 2478Sol     HW12997   0.329   1.754   2.159  1.2160 -0.0668 -0.3116
 2478Sol     MW12998   0.339   1.667   2.144  0.2497 -0.1972  0.3368
 2479Sol     OW12999   1.490   0.879   5.836 -0.0551 -0.2041 -0.3511
 2479Sol     HW13000   1.461   0.955   5.887 -0.3237 -0.2274 -0.4691
 2479Sol     HW13001   1.516   0.815   5.902 -1.1992 -0.5514 -0.2156
 2479Sol     MW13002   1.489   0.880   5.847  0.2997 -0.2717 -0.0752
 2480Sol     OW13003   0.516   0.388   5.196 -0.0928 -0.1033 -0.2156
 2480Sol     HW13004   0.596   0.375   5.146  0.3109  0.1517  0.3648
 2480Sol     HW13005   0.446   0.357   5.138  0.3345  0.5496 -1.0913
 2480Sol     MW13006   0.517   0.384   5.186 -0.2520 -0.4267  0.0616
 2481Sol     OW13007   1.707   0.462   5.974  0.4446  0.0576 -0.7621
 2481Sol     HW13008   1.658   0.544   5.972 -0.7395 -0.6295 -0.3888
 2481Sol     HW13009   1.769   0.472   6.045 -0.4066  0.2462 -0.0313
 2481Sol     MW13010   1.708   0.470   5.980 -0.6627 -0.3973 -0.3247
 2482Sol     OW13011   0.307   3.153   5.436  0.1133 -0.1855  0.0237
 2482Sol     HW13012   0.384   3.150   5.379  0.6801  0.9798  0.7251
 2482Sol     HW13013   0.237   3.189   5.380  0.0970 -1.1169 -0.5706
 2482Sol     MW13014   0.307   3.156   5.426  0.1492 -0.0029 -0.0509
 2483Sol     OW13015   2.268   0.213   3.528 -0.3153  0.3416  0.2497
 2483Sol     HW13016   2.189   0.258   3.559 -1.4853 -1.3373 -0.2554
 2483Sol     HW13017   2.255   0.203   3.434  0.1711 -0.6161  0.2822
 2483Sol     MW13018   2.260   0.216   3.522 -0.0800  0.2193  0.0527
 2484Sol     OW13019   1.197   3.448   4.602 -0.4603  0.6069 -0.3008
 2484Sol     HW13020   1.183   3.363   4.644 -0.2738  0.4521 -0.5498
 2484Sol     HW13021   1.123   3.502   4.632  0.2943  0.8574  1.1298
 2484Sol     MW13022   1.189   3.445   4.609  0.1732  0.2523  0.5556
 2485Sol     OW13023   2.873   0.895   5.911  0.1096  0.0839 -0.5329
 2485Sol     HW13024   2.822   0.839   5.853  1.8951 -2.2663  0.1002
 2485Sol     HW13025   2.844   0.984   5.890 -3.8266 -1.1005 -0.5673
 2485Sol     MW13026   2.866   0.898   5.904 -0.4342  0.5628  0.4620
 2486Sol     OW13027   3.128   1.698   4.748 -0.1744  0.0701  0.4274
 2486Sol     HW13028   3.218   1.665   4.742  0.2281  1.0461  0.9244
 2486Sol     HW13029   3.077   1.640   4.693  0.8986 -0.0342 -0.4748
 2486Sol     MW13030   3.132   1.690   4.743  0.4270 -0.3589 -0.9657
 2487Sol     OW13031   2.040   0.441   4.295  0.3267 -0.5229 -0.2148
 2487Sol     HW13032   2.107   0.395   4.347 -1.8282 -2.6928  0.7191
 2487Sol     HW13033   2.030   0.525   4.339  1.0222 -0.9764  0.8395
 2487Sol     MW13034   2.045   0.444   4.304 -0.1130  0.4211  0.0613
 2488Sol     OW13035   1.235   3.286   8.877 -0.0165  0.7905  0.2462
 2488Sol     HW13036   1.285   3.365   8.854  1.0102  0.3354  0.8783
 2488Sol     HW13037   1.292   3.213   8.851 -0.6065  0.2658  0.4340
 2488Sol     MW13038   1.245   3.287   8.873  0.1269 -0.3526  0.2625
 2489Sol     OW13039   1.601   1.930   8.708  0.3275  0.3004 -0.3724
 2489Sol     HW13040   1.680   1.881   8.732 -0.1525 -0.3111 -0.0513
 2489Sol     HW13041   1.542   1.864   8.672 -0.1501  0.7147 -0.3444
 2489Sol     MW13042   1.603   1.920   8.707 -0.6955 -0.0573  0.7886
 2490Sol     OW13043   1.133   2.233   3.691 -0.0470  0.1821 -0.3140
 2490Sol     HW13044   1.145   2.292   3.766 -1.5416  0.0272  0.0607
 2490Sol     HW13045   1.144   2.146   3.728  3.0290  0.2064 -1.0329
 2490Sol     MW13046   1.135   2.231   3.701 -0.2696  0.2328  0.2975
 2491Sol     OW13047   3.269   0.667   8.276 -0.4501 -0.2496 -0.7559
 2491Sol     HW13048   3.350   0.638   8.318 -0.9561  1.1315  1.2325
 2491Sol     HW13049   3.243   0.593   8.220  1.8130 -0.9550 -0.9081
 2491Sol     MW13050   3.274   0.658   8.275  0.3706  0.6793  0.3860
 2492Sol     OW13051   2.683   0.553   2.511 -0.0839  0.0172  0.1458
 2492Sol     HW13052   2.630   0.565   2.432 -0.5129  0.9468  0.5703
 2492Sol     HW13053   2.747   0.624   2.508  0.4531 -0.4647  0.1860
 2492Sol     MW13054   2.684   0.560   2.503 -0.2063  0.1962  0.4709
 2493Sol     OW13055   0.014   2.701   6.742 -0.7712  0.1979 -0.6538
 2493Sol     HW13056  -0.058   2.641   6.722 -0.4599 -0.4395  0.1239
 2493Sol     HW13057   0.078   2.686   6.672 -0.9096 -0.0259 -0.7326
 2493Sol     MW13058   0.013   2.694   6.734  0.3265 -0.5612 -0.1304
 2494Sol     OW13059   2.692   2.256   7.757 -0.1175  0.1536 -0.6784
 2494Sol     HW13060   2.680   2.324   7.691 -0.6407  1.3405  0.6326
 2494Sol     HW13061   2.611   2.206   7.754 -0.9750  1.4485  0.4685
 2494Sol     MW13062   2.684   2.258   7.751 -0.2454  0.2223  0.0991
 2495Sol     OW13063   1.027   1.185   3.958 -0.1326  0.3685 -0.6667
 2495Sol     HW13064   1.093   1.247   3.925  0.5412 -1.1659 -2.2860
 2495Sol     HW13065   0.993   1.142   3.880 -0.7554 -1.1419  0.4120
 2495Sol     MW13066   1.030   1.187   3.948  0.4367 -0.5684  0.0452
 2496Sol     OW13067   0.238   2.913   7.575  0.2716  0.3532  0.1012
 2496Sol     HW13068   0.201   2.963   7.502  1.9477  1.2487 -0.1663
 2496Sol     HW13069   0.315   2.870   7.539 -0.1847 -1.0702  0.7788
 2496Sol     MW13070   0.242   2.914   7.566  0.1475 -0.5535  0.2064
 2497Sol     OW13071   0.743   0.135   1.867  0.0801  0.0637 -0.2198
 2497Sol     HW13072   0.791   0.102   1.943  0.5268  0.8200 -0.1671
 2497Sol     HW13073   0.808   0.141   1.798  0.4700  2.6826  0.3164
 2497Sol     MW13074   0.753   0.133   1.868 -0.1422 -0.7928  0.3201
 2498Sol     OW13075   2.979   2.885   2.634  0.0360  0.3435 -0.3356
 2498Sol     HW13076   2.999   2.792   2.626 -0.2723  0.3026 -0.6554
 2498Sol     HW13077   3.060   2.930   2.612  0.3860  0.1368  0.5118
 2498Sol     MW13078   2.988   2.881   2.632 -0.4905  0.4943 -0.1083
 2499Sol     OW13079   2.655   2.718   3.073  0.0603  0.3851  0.1017
 2499Sol     HW13080   2.656   2.783   3.002 -0.9863 -0.5055 -0.7311
 2499Sol     HW13081   2.569   2.677   3.067  0.8903 -1.4120  0.3235
 2499Sol     MW13082   2.648   2.720   3.066 -0.3001 -0.1679  0.0935
 2500Sol     OW13083   2.638   1.221   2.720 -0.1749 -0.2860 -0.2529
 2500Sol     HW13084   2.708   1.191   2.779  0.2945 -0.1358 -0.7324
 2500Sol     HW13085   2.558   1.212   2.772 -0.0057 -2.0490 -0.2816
 2500Sol     MW13086   2.637   1.218   2.730  0.0066 -0.3685 -0.4669
 2501Sol     OW13087   0.969   0.237   2.994 -0.4641  0.0597  0.0755
 2501Sol     HW13088   0.972   0.308   3.058  0.8277  2.1381 -2.2188
 2501Sol     HW13089   1.043   0.181   3.017 -0.5096  0.3399  0.9094
 2501Sol     MW13090   0.976   0.238   3.002 -0.4642 -0.0986  0.1164
 2502Sol     OW13091   2.136   1.113   5.124 -0.1988 -0.3411 -0.4830
 2502Sol     HW13092   2.056   1.066   5.144 -0.0525 -0.9435 -1.3022
 2502Sol     HW13093   2.197   1.046   5.094  0.2577  0.2626 -0.9275
 2502Sol     MW13094   2.135   1.103   5.123  0.1196  0.1965 -0.0458
 2503Sol     OW13095   0.848   0.115   2.115 -0.0392 -0.0514 -0.0831
 2503Sol     HW13096   0.874   0.038   2.165  1.2165 -0.2134 -0.9676
 2503Sol     HW13097   0.884   0.189   2.164 -1.6652  0.0363  1.0346
 2503Sol     MW13098   0.853   0.115   2.124  0.0490  0.0959  0.7057
 2504Sol     OW13099   1.960   0.616   4.020 -0.9302  0.0679  0.3904
 2504Sol     HW13100   1.964   0.629   4.115 -0.4330  2.9831  0.0052
 2504Sol     HW13101   1.933   0.701   3.985  2.0063 -0.0071 -2.3127
 2504Sol     MW13102   1.958   0.625   4.026 -0.1412  0.0853 -0.5388
 2505Sol     OW13103   3.209   1.741   8.476  0.4026 -0.3649  0.1335
 2505Sol     HW13104   3.301   1.731   8.503  0.3354 -0.9472  0.1567
 2505Sol     HW13105   3.179   1.651   8.460  0.2418 -0.0667 -1.2346
 2505Sol     MW13106   3.215   1.732   8.477  0.1992 -0.0209  0.0215
 2506Sol     OW13107   0.398   1.509   5.153 -0.5902 -0.1655 -0.0825
 2506Sol     HW13108   0.355   1.491   5.236  0.2301  1.3277  0.6721
 2506Sol     HW13109   0.488   1.482   5.165 -0.2526  0.8867 -0.1824
 2506Sol     MW13110   0.402   1.505   5.161  0.2651 -0.0471 -0.0261
 2507Sol     OW13111   0.919   1.810   5.620  0.4123 -0.1072 -0.5780
 2507Sol     HW13112   0.914   1.866   5.543 -0.5954  0.2374 -0.2721
 2507Sol     HW13113   0.847   1.747   5.608 -0.0084  0.2085  0.2755
 2507Sol     MW13114   0.912   1.809   5.612  0.1082  0.1357 -0.1112
 2508Sol     OW13115   2.243   1.842   2.281 -0.2548  0.3047  0.0024
 2508Sol     HW13116   2.296   1.922   2.288  1.8379 -0.8562 -1.9362
 2508Sol     HW13117   2.196   1.853   2.198  0.6428 -0.7895 -0.6641
 2508Sol     MW13118   2.244   1.850   2.274  0.5448  0.3448  0.4389
 2509Sol     OW13119   0.720   2.767   4.480 -0.1579  0.6293 -0.2065
 2509Sol     HW13120   0.696   2.860   4.471  0.9139  0.9865  0.4576
 2509Sol     HW13121   0.718   2.751   4.574  2.2284  0.7029 -0.1156
 2509Sol     MW13122   0.718   2.774   4.488 -0.0687 -0.7011 -0.0847
 2510Sol     OW13123   1.588   3.222   8.523 -0.6084  0.2926 -0.2650
 2510Sol     HW13124   1.666   3.276   8.512 -1.7720  1.4838 -3.1346
 2510Sol     HW13125   1.531   3.275   8.580 -0.8756  1.1729 -1.3327
 2510Sol     MW13126   1.590   3.232   8.527  0.4241  0.7399 -0.9092
 2511Sol     OW13127   1.050   0.789   8.541 -0.2178 -0.0403  0.2556
 2511Sol     HW13128   1.011   0.826   8.620  1.0898  0.6666  0.5843
 2511Sol     HW13129   0.983   0.800   8.473  0.1632  3.0495  0.3211
 2511Sol     MW13130   1.040   0.794   8.542 -0.5450 -0.0073  0.1603
 2512Sol     OW13131   2.721   3.232   6.671  0.0351  0.2951  0.1010
 2512Sol     HW13132   2.753   3.143   6.681  0.4517  0.3304 -0.8297
 2512Sol     HW13133   2.797   3.287   6.692 -0.4490  0.4503  1.4768
 2512Sol     MW13134   2.731   3.229   6.674 -0.1108 -0.3148 -0.6793
 2513Sol     OW13135   3.113   3.286   9.873 -0.1410  0.5185  0.5558
 2513Sol     HW13136   3.054   3.362   9.865  1.0342  1.2513 -1.4543
 2513Sol     HW13137   3.073   3.219   9.817  0.7401  0.9012 -0.5383
 2513Sol     MW13138   3.104   3.287   9.868  0.1469  0.3878 -0.2517
 2514Sol     OW13139   0.938   0.495   6.549 -0.4350  0.6240 -0.1071
 2514Sol     HW13140   0.984   0.541   6.619  0.3660 -0.6198  0.2001
 2514Sol     HW13141   0.883   0.431   6.595 -1.0912  0.8559 -0.5553
 2514Sol     MW13142   0.937   0.493   6.559  0.5847 -0.0842 -0.0981
 2515Sol     OW13143   0.277   1.703   3.142 -0.1605 -0.2339 -0.2450
 2515Sol     HW13144   0.230   1.621   3.160  0.4904 -0.5832 -0.1434
 2515Sol     HW13145   0.357   1.697   3.193  0.2100  0.1632 -0.7719
 2515Sol     MW13146   0.280   1.695   3.148  0.0228 -0.1354 -0.2571
 2516Sol     OW13147   0.123   2.943   2.981  0.0218  0.0565 -0.7886
 2516Sol     HW13148   0.197   2.904   3.027 -1.3708 -0.8863  0.7496
 2516Sol     HW13149   0.161   3.009   2.923  2.0626 -0.6462 -0.2727
 2516Sol     MW13150   0.133   2.945   2.980  0.0026  0.1653 -0.1142
 2517Sol     OW13151   1.508   3.367   9.520  0.3608  0.3338  0.2434
 2517Sol     HW13152   1.580   3.396   9.577  0.7407  1.3124 -0.7297
 2517Sol     HW13153   1.518   3.272   9.518  1.8510  0.4748 -0.1570
 2517Sol     MW13154   1.516   3.361   9.525 -0.5261 -0.3189 -0.4194
 2518Sol     OW13155   3.287   1.831   1.821  0.4811  0.5949 -0.2989
 2518Sol     HW13156   3.323   1.840   1.910  1.8870  0.7944 -0.8775
 2518Sol     HW13157   3.357   1.789   1.771 -1.2679 -1.9133 -0.7165
 2518Sol     MW13158   3.297   1.828   1.825 -0.2647  0.1656 -0.0181
 2519Sol     OW13159   0.232   3.364   3.799 -0.5393  0.3763 -0.2661
 2519Sol     HW13160   0.225   3.371   3.894  0.8176 -0.1317 -0.1236
 2519Sol     HW13161   0.148   3.326   3.772 -0.3814 -0.8064  0.8643
 2519Sol     MW13162   0.224   3.361   3.805  0.5092 -0.1519 -0.5394
 2520Sol     OW13163   1.540   1.807   9.352  0.7721  0.4213  0.0228
 2520Sol     HW13164   1.588   1.733   9.387  0.3973  0.2687  0.2224
 2520Sol     HW13165   1.517   1.859   9.429  0.8103  0.6070 -0.0902
 2520Sol     MW13166   1.542   1.805   9.362  0.9088  0.4101  0.6194
 2521Sol     OW13167   2.087   2.910   4.205 -0.1548 -0.0810  0.7960
 2521Sol     HW13168   2.064   2.970   4.276  1.5950  1.5871  0.0061
 2521Sol     HW13169   2.148   2.848   4.245  0.5683  0.6540  0.8543
 2521Sol     MW13170   2.090   2.910   4.215  0.8174 -0.4929 -0.7003
 2522Sol     OW13171   1.459   0.039   4.616  0.3276  0.7541 -0.4234
 2522Sol     HW13172   1.366   0.037   4.594 -0.0073 -1.4156  1.0451
 2522Sol     HW13173   1.504   0.030   4.532 -0.8408 -1.1871 -0.8639
 2522Sol     MW13174   1.455   0.038   4.607  0.3253  0.1248 -0.3323
 2523Sol     OW13175   0.863   0.839   6.911  0.5065 -0.4187  0.5561
 2523Sol     HW13176   0.954   0.839   6.943  1.6556  4.1743 -2.2105
 2523Sol     HW13177   0.872   0.821   6.817 -1.5008 -0.4012  0.3543
 2523Sol     MW13178   0.872   0.838   6.905 -0.4719 -0.3375  0.1111
 2524Sol     OW13179   1.097   0.455   5.730  0.2118  0.4934  0.0729
 2524Sol     HW13180   1.097   0.479   5.637  3.0687 -1.4371 -0.5123
 2524Sol     HW13181   1.165   0.509   5.769  2.1459 -1.8059  0.0515
 2524Sol     MW13182   1.103   0.462   5.725  0.4068  0.1048 -0.2294
 2525Sol     OW13183   1.848   0.938   5.662 -0.1725  0.3797  0.2615
 2525Sol     HW13184   1.939   0.957   5.685 -0.2274 -0.8987  1.6476
 2525Sol     HW13185   1.852   0.862   5.604 -0.3460  0.2228  0.4495
 2525Sol     MW13186   1.856   0.933   5.659  0.7429  0.2358  0.4111
 2526Sol     OW13187   0.301   1.382   9.770  0.0737  0.9620  0.1660
 2526Sol     HW13188   0.376   1.352   9.719 -0.3765 -0.2664  0.1929
 2526Sol     HW13189   0.340   1.434   9.841  0.9230  0.1699  0.2992
 2526Sol     MW13190   0.311   1.384   9.772  0.0920 -0.4697  0.1916
 2527Sol     OW13191   2.734   3.226   8.140  0.6339 -0.1045 -0.8687
 2527Sol     HW13192   2.707   3.135   8.154  0.4177 -0.1721 -1.7018
 2527Sol     HW13193   2.651   3.275   8.133  0.7224 -0.1324 -2.2764
 2527Sol     MW13194   2.724   3.223   8.141 -0.3045  0.3753  0.1399
 2528Sol     OW13195   0.713   1.890   6.631 -0.1973  0.0681  0.1136
 2528Sol     HW13196   0.725   1.964   6.690  3.8065 -0.8369  0.5543
 2528Sol     HW13197   0.684   1.929   6.548  0.4991  1.9605  0.7553
 2528Sol     MW13198   0.711   1.900   6.629 -0.3219  0.5464 -0.2602
 2529Sol     OW13199   3.052   1.235   6.543 -0.0264  0.2098 -0.1464
 2529Sol     HW13200   3.010   1.238   6.458 -0.9355  0.0895  0.2914
 2529Sol     HW13201   3.101   1.317   6.549  0.5494 -0.0681 -1.0366
 2529Sol     MW13202   3.053   1.243   6.536 -0.5058 -0.6849 -0.5707
 2530Sol     OW13203   1.770   2.074   4.976 -0.4989  0.2561  0.0817
 2530Sol     HW13204   1.689   2.080   4.925 -0.8136 -2.6296  0.1729
 2530Sol     HW13205   1.742   2.053   5.065  0.2679  1.0905  0.5320
 2530Sol     MW13206   1.760   2.073   4.979  0.1173  0.3990  0.8098
 2531Sol     OW13207   1.393   1.076   6.536  0.5099 -0.4269 -0.1711
 2531Sol     HW13208   1.481   1.045   6.556  0.2925 -0.1219  1.2914
 2531Sol     HW13209   1.396   1.171   6.552  0.1499 -0.2675 -0.9882
 2531Sol     MW13210   1.401   1.082   6.539 -0.0970 -0.3746 -0.0635
 2532Sol     OW13211   3.038   1.764   1.900  0.1819 -0.2448  0.4644
 2532Sol     HW13212   3.041   1.678   1.859 -0.4535  0.8954 -2.0937
 2532Sol     HW13213   3.126   1.800   1.886  0.4874 -0.5009  1.6479
 2532Sol     MW13214   3.046   1.759   1.895 -0.0681 -0.1790  0.1097
 2533Sol     OW13215   1.375   2.793   5.161 -0.3317  0.0087 -0.1660
 2533Sol     HW13216   1.363   2.887   5.173  0.8571  0.1001  0.3705
 2533Sol     HW13217   1.450   2.786   5.101  0.5787 -0.6163  1.0272
 2533Sol     MW13218   1.381   2.801   5.156  0.7955 -0.7598  1.1999
 2534Sol     OW13219   2.282   1.529   7.256  0.6358 -0.3552  0.0452
 2534Sol     HW13220   2.294   1.480   7.175  1.8942 -0.4029  0.2510
 2534Sol     HW13221   2.213   1.481   7.303  0.7469 -1.0197 -0.4625
 2534Sol     MW13222   2.276   1.520   7.253 -0.1488 -0.8391 -0.1015
 2535Sol     OW13223   1.812   3.395   4.067  0.2401  0.2632 -0.1219
 2535Sol     HW13224   1.866   3.473   4.052  0.1667  0.1033 -1.3114
 2535Sol     HW13225   1.782   3.370   3.980 -1.3907  0.0746  0.4836
 2535Sol     MW13226   1.814   3.400   4.058  0.0947 -0.0000  0.2358
 2536Sol     OW13227   1.602   2.758   2.638 -0.3640  0.0644  0.3051
 2536Sol     HW13228   1.640   2.838   2.601  0.0234 -0.3608 -0.2270
 2536Sol     HW13229   1.620   2.765   2.732 -2.9622  2.0206  0.7177
 2536Sol     MW13230   1.607   2.766   2.643  0.6457 -0.6583  0.6913
 2537Sol     OW13231   2.407   1.457   5.298 -0.0269  0.5692 -0.2982
 2537Sol     HW13232   2.372   1.501   5.220  0.4718  0.8443 -0.3655
 2537Sol     HW13233   2.347   1.482   5.368  1.5112  3.1984  0.1416
 2537Sol     MW13234   2.398   1.463   5.297  0.0676  0.0737 -0.0777
 2538Sol     OW13235   2.050   2.136   6.040 -0.1077 -0.2904 -0.0068
 2538Sol     HW13236   1.996   2.204   6.080  1.0477  0.4468  0.3508
 2538Sol     HW13237   2.025   2.136   5.948 -0.1186  0.6284 -0.0060
 2538Sol     MW13238   2.043   2.142   6.035  0.1516  0.1236 -0.1653
 2539Sol     OW13239   1.057   1.128   6.722  0.0027  0.4262  0.2275
 2539Sol     HW13240   0.987   1.160   6.779 -1.0566 -1.3454 -0.0316
 2539Sol     HW13241   1.137   1.161   6.762 -0.9165  1.8039  0.9924
 2539Sol     MW13242   1.058   1.134   6.730  0.3613  0.5120 -1.1435
 2540Sol     OW13243   1.727   0.681   8.064 -0.3221  0.0274  0.1493
 2540Sol     HW13244   1.660   0.733   8.019 -0.7246  0.0788  0.8083
 2540Sol     HW13245   1.807   0.694   8.012 -1.0543 -0.8571 -1.2441
 2540Sol     MW13246   1.728   0.687   8.055 -0.1803 -0.5425 -0.1818
 2541Sol     OW13247   0.380   3.112   8.510 -0.5154  0.1041 -0.2072
 2541Sol     HW13248   0.375   3.208   8.518  1.7943  0.1515  1.1648
 2541Sol     HW13249   0.292   3.082   8.534 -0.8387  1.7926  0.8520
 2541Sol     MW13250   0.371   3.118   8.513 -0.2765 -0.3550 -0.9332
 2542Sol     OW13251   1.291   1.209   2.002 -0.0132  0.3869 -0.0794
 2542Sol     HW13252   1.294   1.150   2.077  2.2898  0.1358 -0.3221
 2542Sol     HW13253   1.382   1.216   1.973 -1.0405 -0.9331 -3.9718
 2542Sol     MW13254   1.299   1.205   2.006  0.6237 -0.3403  0.2459
 2543Sol     OW13255   1.514   2.761   6.962 -0.5463  0.1780 -0.2633
 2543Sol     HW13256   1.524   2.672   6.927  0.9698 -0.2324  1.1235
 2543Sol     HW13257   1.495   2.747   7.055  2.0441  1.3169  0.4788
 2543Sol     MW13258   1.513   2.751   6.967  0.3753  0.2751  0.6842
 2544Sol     OW13259   1.390   0.157   5.628 -0.7876 -0.3055  0.1619
 2544Sol     HW13260   1.438   0.130   5.550 -0.6362  0.3768  0.0190
 2544Sol     HW13261   1.329   0.223   5.598  0.5258  1.2948  0.9154
 2544Sol     MW13262   1.389   0.160   5.618  0.1374  0.2190 -0.3024
 2545Sol     OW13263   1.939   1.650   6.866  0.2911  0.3201  0.2924
 2545Sol     HW13264   1.944   1.599   6.947  0.2558  0.2126  0.2264
 2545Sol     HW13265   1.935   1.741   6.896  0.0728  0.2689  0.4173
 2545Sol     MW13266   1.939   1.653   6.876 -0.1103  0.2956  0.2458
 2546Sol     OW13267   3.044   3.073   3.552 -0.4640  0.9535 -0.2970
 2546Sol     HW13268   3.067   2.982   3.571 -0.4857  1.0735  0.3370
 2546Sol     HW13269   3.123   3.111   3.514  0.1515  1.1526  1.1410
 2546Sol     MW13270   3.053   3.068   3.551 -0.1321  0.2033  0.3074
 2547Sol     OW13271   3.100   2.840   9.375 -0.4496 -0.0796  0.2519
 2547Sol     HW13272   3.005   2.857   9.375 -0.4880 -0.2443 -0.7766
 2547Sol     HW13273   3.117   2.804   9.288  0.6098  0.1825  0.3526
 2547Sol     MW13274   3.093   2.838   9.368  0.1539 -0.3947 -0.3413
 2548Sol     OW13275   2.674   2.519   7.964 -0.3705 -0.3407  0.6650
 2548Sol     HW13276   2.623   2.547   7.888  1.1294  1.7383  0.4039
 2548Sol     HW13277   2.642   2.431   7.982 -0.7532 -0.8793 -2.3600
 2548Sol     MW13278   2.666   2.514   7.959  0.3869 -0.1435  0.0881
 2549Sol     OW13279   1.477   0.659   5.181 -0.2957 -0.2131  0.0960
 2549Sol     HW13280   1.439   0.675   5.267 -0.9280  1.5777 -0.5014
 2549Sol     HW13281   1.402   0.651   5.123  0.1154 -1.8018 -0.2542
 2549Sol     MW13282   1.467   0.659   5.183 -0.9303  0.6605 -0.3371
 2550Sol     OW13283   2.117   0.532   6.356  0.2830 -0.0069  0.9832
 2550Sol     HW13284   2.191   0.483   6.321 -0.7858 -0.1154 -1.2129
 2550Sol     HW13285   2.145   0.623   6.354  0.9679 -0.1901  1.7725
 2550Sol     MW13286   2.126   0.536   6.353 -0.7090 -0.4055  0.5416
 2551Sol     OW13287   2.843   1.359   1.625  0.3971 -0.4021  0.0395
 2551Sol     HW13288   2.889   1.277   1.612 -0.1314 -0.8079  0.7021
 2551Sol     HW13289   2.750   1.335   1.627  0.3474 -0.1518  2.7813
 2551Sol     MW13290   2.839   1.350   1.624 -0.1578 -0.2195  0.6835
 2552Sol     OW13291   0.889   0.365   5.160  0.4234 -0.0230 -0.5144
 2552Sol     HW13292   0.864   0.389   5.250 -0.1830 -0.1161 -0.6546
 2552Sol     HW13293   0.967   0.417   5.142  0.3733  0.2202 -0.0376
 2552Sol     MW13294   0.894   0.372   5.167  0.2001  0.3715 -0.3959
 2553Sol     OW13295   1.783   2.652   7.636  0.2194  0.5082 -0.0239
 2553Sol     HW13296   1.792   2.572   7.688  0.8556 -0.1506 -1.1196
 2553Sol     HW13297   1.873   2.683   7.625  0.2145 -0.0227 -1.7311
 2553Sol     MW13298   1.792   2.648   7.640 -0.2238  0.0884  0.0442
 2554Sol     OW13299   1.828   0.048   7.139 -0.6369  0.2077 -0.3696
 2554Sol     HW13300   1.871  -0.037   7.140  0.0818  0.5691  0.8346
 2554Sol     HW13301   1.826   0.073   7.046  0.5926 -0.4063 -0.5700
 2554Sol     MW13302   1.832   0.043   7.131  0.5612 -0.0381 -0.5196
 2555Sol     OW13303   3.316   0.799   7.949 -0.1356 -0.2279 -0.0920
 2555Sol     HW13304   3.357   0.714   7.965 -0.5099 -0.4674 -0.3943
 2555Sol     HW13305   3.348   0.855   8.020 -0.1164 -0.7007  0.2731
 2555Sol     MW13306   3.322   0.796   7.956  0.7698  0.0552  0.1784
 2556Sol     OW13307   2.992   3.257   8.113  0.0564  0.4492 -0.3867
 2556Sol     HW13308   2.898   3.236   8.110 -0.0965  0.3829  2.5308
 2556Sol     HW13309   2.996   3.351   8.097 -0.6331  0.6282  0.4018
 2556Sol     MW13310   2.984   3.263   8.112  0.0312 -0.0139  0.4594
 2557Sol     OW13311   0.636   3.072   2.654  0.2883  0.1662 -0.2320
 2557Sol     HW13312   0.698   3.136   2.691 -0.6706  0.9812 -0.0180
 2557Sol     HW13313   0.688   3.025   2.589  1.8007 -0.7949  1.6044
 2557Sol     MW13314   0.646   3.074   2.652  0.3273 -0.0739  0.1727
 2558Sol     OW13315   2.014   3.444   6.780 -0.0676  0.0754 -0.4394
 2558Sol     HW13316   2.101   3.485   6.784  0.1926 -0.6416  1.8254
 2558Sol     HW13317   2.032   3.350   6.785 -0.8150 -0.2796 -3.2430
 2558Sol     MW13318   2.024   3.439   6.780 -0.5278  0.2012 -0.8216
 2559Sol     OW13319   0.303   2.410   7.212  0.8209 -0.0883 -0.1187
 2559Sol     HW13320   0.262   2.421   7.126  2.0157  0.5859 -0.6133
 2559Sol     HW13321   0.317   2.315   7.219 -0.3891 -0.2813 -0.1321
 2559Sol     MW13322   0.301   2.402   7.205  0.3051 -0.1715 -0.0407
 2560Sol     OW13323   2.082   2.746   6.399  0.3025 -0.4592  0.1545
 2560Sol     HW13324   2.122   2.765   6.484 -0.6346  0.9984  0.2866
 2560Sol     HW13325   2.079   2.831   6.355 -3.8305 -0.2146  0.6640
 2560Sol     MW13326   2.085   2.755   6.403 -0.2076  0.4406 -0.1654
 2561Sol     OW13327   0.393   2.507   9.618  0.0904 -0.4601  0.1031
 2561Sol     HW13328   0.454   2.581   9.627  0.1863 -0.5772  0.4421
 2561Sol     HW13329   0.329   2.536   9.553  1.2675 -0.8559 -1.2432
 2561Sol     MW13330   0.393   2.517   9.613  0.7298 -0.6241  0.1757
 2562Sol     OW13331   0.060   0.101   8.919 -0.2186 -0.1595 -0.3770
 2562Sol     HW13332   0.001   0.119   8.992  1.3208 -1.2391  1.1565
 2562Sol     HW13333   0.006   0.114   8.841 -1.7362  1.5477  0.9253
 2562Sol     MW13334   0.050   0.104   8.919  0.1049  0.0188  0.4858
 2563Sol     OW13335   0.355   0.657   8.166 -0.3069  0.3332 -0.8805
 2563Sol     HW13336   0.373   0.743   8.203  0.6573  0.1505 -0.9164
 2563Sol     HW13337   0.433   0.637   8.114 -0.0034 -1.0965  0.1151
 2563Sol     MW13338   0.364   0.663   8.164  0.1879 -0.3602 -0.2883
 2564Sol     OW13339   2.418   1.127   4.135  0.6283  0.0304 -0.2035
 2564Sol     HW13340   2.510   1.102   4.126 -0.1387 -2.2108 -2.7544
 2564Sol     HW13341   2.405   1.195   4.069 -0.1335 -1.6290 -1.8289
 2564Sol     MW13342   2.425   1.131   4.128  0.5204  0.2775 -0.2064
 2565Sol     OW13343   1.529   3.108   9.499 -0.2799 -0.1882  0.5697
 2565Sol     HW13344   1.606   3.102   9.442  0.0355 -0.2753  0.9930
 2565Sol     HW13345   1.480   3.028   9.482 -0.7121  0.2604 -0.3136
 2565Sol     MW13346   1.532   3.100   9.492 -0.6571 -0.4541 -0.6435
 2566Sol     OW13347   3.257   1.846   3.372  0.8330  0.0076 -0.0305
 2566Sol     HW13348   3.340   1.889   3.390  0.3858  1.2671 -0.9074
 2566Sol     HW13349   3.277   1.752   3.373  1.8135  0.2131  1.9176
 2566Sol     MW13350   3.266   1.841   3.374  0.1471  0.0009  0.5887
 2567Sol     OW13351   0.351   2.377   4.287 -0.2494 -0.1350 -0.1003
 2567Sol     HW13352   0.395   2.292   4.288 -1.4054 -0.8015 -2.6242
 2567Sol     HW13353   0.420   2.440   4.265  0.2124 -0.6918 -0.2541
 2567Sol     MW13354   0.361   2.375   4.285  0.1554 -0.0771  0.2186
 2568Sol     OW13355   2.670   0.706   7.246  0.1234 -0.3143 -0.0479
 2568Sol     HW13356   2.690   0.790   7.286  0.8674 -0.1925 -0.6705
 2568Sol     HW13357   2.744   0.650   7.270 -0.2855 -0.7457  0.2190
 2568Sol     MW13358   2.679   0.708   7.252  0.4526 -0.0171  0.8391
 2569Sol     OW13359   2.927   1.379   4.819 -0.5136 -0.0207 -1.0676
 2569Sol     HW13360   2.976   1.297   4.809 -1.1301 -0.6290  0.7522
 2569Sol     HW13361   2.969   1.423   4.893 -0.9777  0.7393 -1.2528
 2569Sol     MW13362   2.935   1.376   4.824 -0.2895 -0.3010 -0.7885
 2570Sol     OW13363   0.058   1.993   7.942  0.2912 -0.1712 -0.2687
 2570Sol     HW13364   0.089   2.032   7.860 -0.8871 -1.6271 -1.4189
 2570Sol     HW13365   0.103   1.909   7.948  2.6663  1.1803  2.1125
 2570Sol     MW13366   0.065   1.989   7.936  0.1236 -0.2113  0.5177
 2571Sol     OW13367   2.266   0.636   3.709  0.5846 -0.0314  0.0630
 2571Sol     HW13368   2.333   0.620   3.642  2.4158 -0.1483  1.9029
 2571Sol     HW13369   2.300   0.709   3.760 -1.5924  1.1385 -0.1314
 2571Sol     MW13370   2.275   0.641   3.707 -0.8910  0.7272 -0.5875
 2572Sol     OW13371   1.509   3.230   5.968 -0.2480  0.3270  0.5542
 2572Sol     HW13372   1.507   3.210   5.875 -0.5109 -0.2155  0.6746
 2572Sol     HW13373   1.457   3.310   5.976 -1.7289 -0.6007  0.4660
 2572Sol     MW13374   1.504   3.236   5.960  0.3151  0.4209 -0.6170
 2573Sol     OW13375   2.862   1.367   8.807  0.1149 -0.6187 -0.1888
 2573Sol     HW13376   2.801   1.402   8.742  0.0190  0.2148  0.3426
 2573Sol     HW13377   2.942   1.348   8.757 -0.0103 -0.1366 -0.5823
 2573Sol     MW13378   2.864   1.368   8.796  0.2473  0.7078  0.1668
 2574Sol     OW13379   0.488   1.280   9.602 -0.1041 -0.1878 -0.4116
 2574Sol     HW13380   0.579   1.248   9.597 -0.3265 -0.9018 -0.0022
 2574Sol     HW13381   0.475   1.327   9.520  0.6186 -0.1407 -0.5034
 2574Sol     MW13382   0.495   1.281   9.594  0.7240 -0.7381  0.3517
 2575Sol     OW13383   2.891   1.701   8.254 -0.4485 -0.2068 -0.2428
 2575Sol     HW13384   2.873   1.758   8.329 -2.0027 -1.9082  0.7008
 2575Sol     HW13385   2.832   1.733   8.185  1.2042  1.5607 -0.8992
 2575Sol     MW13386   2.884   1.709   8.254  0.3341 -0.3258 -0.0720
 2576Sol     OW13387   3.184   2.936   4.043 -0.2150 -0.5727  0.4650
 2576Sol     HW13388   3.140   3.017   4.016  0.1365 -0.8608 -1.0240
 2576Sol     HW13389   3.227   2.958   4.126 -0.1120  0.7623  0.0673
 2576Sol     MW13390   3.184   2.945   4.048 -0.4085  0.2425  0.3859
 2577Sol     OW13391   0.438   0.063   2.630 -1.1593  0.0068  0.6148
 2577Sol     HW13392   0.430  -0.032   2.629  0.6275 -0.1554 -1.0384
 2577Sol     HW13393   0.494   0.081   2.705  0.6937 -0.4734 -0.6245
 2577Sol     MW13394   0.442   0.056   2.637  0.5531 -0.5460  0.3446
 2578Sol     OW13395   3.214   1.325   5.693  0.0166  0.3270 -0.3044
 2578Sol     HW13396   3.284   1.331   5.627 -1.2426 -0.5063 -1.7364
 2578Sol     HW13397   3.136   1.357   5.648 -0.6553  0.7686  1.1422
 2578Sol     MW13398   3.214   1.329   5.683 -0.2661 -0.5636 -0.0842
 2579Sol     OW13399   0.704   1.330   8.399  0.0372  0.0110 -0.0721
 2579Sol     HW13400   0.658   1.349   8.481 -0.7076 -0.2097 -0.4341
 2579Sol     HW13401   0.714   1.415   8.357  2.8292  0.5347  1.4687
 2579Sol     MW13402   0.701   1.339   8.403 -0.2428 -0.2762  0.4296
 2580Sol     OW13403   2.002   2.814   7.326 -0.3958 -0.3836 -0.1662
 2580Sol     HW13404   1.910   2.794   7.306 -0.3770 -0.2864 -0.3545
 2580Sol     HW13405   2.012   2.792   7.419 -0.7768  0.1980  0.0120
 2580Sol     MW13406   1.994   2.810   7.332 -0.0473  0.2800  0.4169
 2581Sol     OW13407   2.193   1.002   8.984  0.2946 -0.0885 -0.0403
 2581Sol     HW13408   2.213   0.946   8.910  0.7612  0.8254 -0.6230
 2581Sol     HW13409   2.215   1.090   8.954  0.4768  0.2930  1.1804
 2581Sol     MW13410   2.197   1.005   8.975  0.4715 -0.0271 -0.6130
 2582Sol     OW13411   3.260   1.603   5.956  0.7181  0.4262  0.1118
 2582Sol     HW13412   3.260   1.585   6.050  2.8080  2.1024  0.4763
 2582Sol     HW13413   3.167   1.601   5.932  0.2751 -1.7174  1.8442
 2582Sol     MW13414   3.251   1.601   5.963 -0.0104  0.5909  0.3051
 2583Sol     OW13415   0.584   0.211   4.692 -0.3335 -0.0913  0.3165
 2583Sol     HW13416   0.529   0.288   4.679  0.0838 -0.0593 -1.3432
 2583Sol     HW13417   0.648   0.238   4.758  1.0169  1.6485 -1.6539
 2583Sol     MW13418   0.585   0.220   4.697 -0.2062  0.1862  0.0680
 2584Sol     OW13419   1.290   1.458   5.897  0.1799  0.4496  0.2262
 2584Sol     HW13420   1.283   1.529   5.833 -2.8836  0.6811  0.7431
 2584Sol     HW13421   1.221   1.397   5.873  0.4332 -0.5610  1.9571
 2584Sol     MW13422   1.283   1.459   5.889  0.1939 -0.0500 -0.7970
 2585Sol     OW13423   0.759   1.013   5.285 -0.6560  0.4886  0.1047
 2585Sol     HW13424   0.771   1.074   5.211 -0.5577 -0.6939 -0.8669
 2585Sol     HW13425   0.773   0.927   5.247 -0.4866 -0.1253  1.5549
 2585Sol     MW13426   0.761   1.011   5.275 -0.2035 -0.3759  0.1759
 2586Sol     OW13427   1.202   1.374   8.687 -0.1588 -0.3253 -0.2877
 2586Sol     HW13428   1.203   1.373   8.592  1.6936  0.6323 -0.2935
 2586Sol     HW13429   1.110   1.389   8.710 -0.4649  0.4180 -1.9369
 2586Sol     MW13430   1.193   1.375   8.681 -0.1584 -0.1790  0.4388
 2587Sol     OW13431   2.713   3.357   3.723  0.2223  0.1893 -0.5611
 2587Sol     HW13432   2.630   3.383   3.764 -0.3679 -0.4150 -1.3600
 2587Sol     HW13433   2.689   3.288   3.662  1.2838  0.2145 -1.0150
 2587Sol     MW13434   2.703   3.353   3.721  0.1257  0.2031  0.1896
 2588Sol     OW13435   1.056   1.877   5.187 -0.3269 -0.4336  0.3699
 2588Sol     HW13436   1.117   1.835   5.247 -2.1215 -1.2673  1.6520
 2588Sol     HW13437   0.997   1.806   5.159 -1.6068  0.6283  0.3088
 2588Sol     MW13438   1.056   1.867   5.190 -0.5681 -0.0271  0.1166
 2589Sol     OW13439   2.914   0.154   7.248  0.6548  0.0855  0.5131
 2589Sol     HW13440   2.960   0.128   7.328  1.8498 -0.0837 -0.2205
 2589Sol     HW13441   2.980   0.198   7.195 -0.5345  1.6355  0.2898
 2589Sol     MW13442   2.924   0.155   7.250 -0.2803 -0.2119  0.3157
 2590Sol     OW13443   2.249   2.376   7.728 -0.2580  0.5522 -0.2764
 2590Sol     HW13444   2.305   2.454   7.734  1.6243 -0.7142 -0.8951
 2590Sol     HW13445   2.262   2.331   7.811 -0.3334  0.2320 -0.4406
 2590Sol     MW13446   2.256   2.379   7.736 -0.7087  0.9210  0.3273
 2591Sol     OW13447   1.175   0.705   8.227 -1.1397  0.6750 -0.5785
 2591Sol     HW13448   1.187   0.724   8.320  0.6022  0.3764 -0.7301
 2591Sol     HW13449   1.140   0.615   8.225  0.1158  0.1776 -0.2609
 2591Sol     MW13450   1.173   0.698   8.235  0.2987 -0.5658 -0.0384
 2592Sol     OW13451   2.774   0.666   3.370 -0.3296  0.0425  0.6919
 2592Sol     HW13452   2.787   0.728   3.442  2.1371 -0.7538  0.9649
 2592Sol     HW13453   2.806   0.582   3.403  0.3765 -0.4417 -1.1432
 2592Sol     MW13454   2.778   0.664   3.379 -0.4149  0.3543 -0.1007
 2593Sol     OW13455   2.025   0.152   4.016 -0.7318 -0.3321  0.7398
 2593Sol     HW13456   1.965   0.223   4.036 -1.1092 -0.5196  0.2871
 2593Sol     HW13457   2.102   0.169   4.071 -1.3974 -0.3667  1.6913
 2593Sol     MW13458   2.027   0.160   4.022  0.8219 -0.4758  0.7590
 2594Sol     OW13459   2.327   0.526   5.935  0.1393  1.0098  0.0104
 2594Sol     HW13460   2.383   0.599   5.910  0.7951  1.8150  3.6201
 2594Sol     HW13461   2.239   0.552   5.906  0.7303  2.1322 -0.8419
 2594Sol     MW13462   2.324   0.535   5.930  0.2166 -0.3864  0.1486
 2595Sol     OW13463   0.434   2.361   6.013  0.5205 -0.6247  0.2715
 2595Sol     HW13464   0.442   2.360   5.917 -2.5920  0.2418 -0.0493
 2595Sol     HW13465   0.380   2.285   6.033 -0.0664  0.0232  1.1922
 2595Sol     MW13466   0.430   2.354   6.006 -0.4893  0.5047  0.0018
 2596Sol     OW13467   1.916   1.854   5.365 -0.1749 -0.3201  0.2142
 2596Sol     HW13468   2.000   1.822   5.332  0.7315  0.4842  1.6805
 2596Sol     HW13469   1.876   1.899   5.291  1.1573  0.1843 -0.1981
 2596Sol     MW13470   1.920   1.855   5.356 -0.2022 -0.5546  0.3308
 2597Sol     OW13471   2.785   1.358   5.675  0.0191 -0.2300 -0.4222
 2597Sol     HW13472   2.693   1.347   5.655 -0.5403  2.9577  0.0744
 2597Sol     HW13473   2.803   1.296   5.746 -1.2163 -2.2363 -1.8268
 2597Sol     MW13474   2.779   1.352   5.680 -0.0838  0.1502  0.3862
 2598Sol     OW13475   2.349   3.117   9.847  0.1382  0.2010 -0.1579
 2598Sol     HW13476   2.322   3.026   9.832  1.9708  0.0904 -3.1809
 2598Sol     HW13477   2.285   3.169   9.799 -0.6372  0.5335  1.1937
 2598Sol     MW13478   2.341   3.113   9.841 -0.4070 -0.3227  0.1960
 2599Sol     OW13479   1.525   0.449   8.466 -0.0753  0.0158  0.1523
 2599Sol     HW13480   1.617   0.434   8.444 -0.3220 -1.4431  0.0461
 2599Sol     HW13481   1.493   0.507   8.397 -0.0430 -2.0805 -1.6961
 2599Sol     MW13482   1.530   0.453   8.457  0.2596  0.4067 -0.5729
 2600Sol     OW13483   0.039   1.639   4.498  0.1679 -0.6526 -0.3170
 2600Sol     HW13484  -0.014   1.563   4.476 -0.9487 -0.6695  2.2255
 2600Sol     HW13485   0.057   1.681   4.414 -2.1216 -1.7974 -1.4308
 2600Sol     MW13486   0.036   1.636   4.489 -0.2787  0.4734  0.5896
 2601Sol     OW13487   2.021   2.576   3.864  0.4516 -0.7648  0.7117
 2601Sol     HW13488   1.939   2.560   3.911 -0.3492  0.0290 -0.3895
 2601Sol     HW13489   2.005   2.656   3.814  2.1405 -0.1923  1.0294
 2601Sol     MW13490   2.012   2.582   3.864 -0.1633 -0.4041 -0.4910
 2602Sol     OW13491   2.762   1.632   5.068  0.2064 -0.0208 -0.5164
 2602Sol     HW13492   2.854   1.633   5.040  0.1258  0.2616 -0.7734
 2602Sol     HW13493   2.762   1.581   5.149  0.7493  0.8164  0.0227
 2602Sol     MW13494   2.770   1.628   5.072 -0.0331  0.9713  0.2409
 2603Sol     OW13495   0.362   1.492   8.475  0.3883  0.3794 -0.9709
 2603Sol     HW13496   0.429   1.558   8.456 -0.8816  1.9869  0.0309
 2603Sol     HW13497   0.284   1.542   8.499 -0.6429 -1.4817 -0.3045
 2603Sol     MW13498   0.361   1.502   8.476 -0.0139  0.5995 -0.2041
 2604Sol     OW13499   1.051   0.274   9.280  0.4675  0.1211  0.1030
 2604Sol     HW13500   1.088   0.291   9.366 -0.3514  0.6858  0.3532
 2604Sol     HW13501   0.956   0.286   9.292  0.3684  0.4078 -0.9162
 2604Sol     MW13502   1.046   0.277   9.289  0.7465 -0.2099 -0.1341
 2605Sol     OW13503   2.159   0.626   6.743 -0.0678  0.0344 -0.5846
 2605Sol     HW13504   2.201   0.675   6.671  0.4576 -0.6958 -0.7807
 2605Sol     HW13505   2.078   0.674   6.760  1.1299  1.8542  0.2212
 2605Sol     MW13506   2.156   0.635   6.738  0.2179  0.1096 -0.1376
 2606Sol     OW13507   2.013   0.515   5.589  0.4151 -0.2408 -0.1897
 2606Sol     HW13508   2.098   0.481   5.563  0.4688 -1.4751  1.4740
 2606Sol     HW13509   2.011   0.503   5.684 -1.9620 -1.1096 -0.3148
 2606Sol     MW13510   2.020   0.510   5.595 -0.3703 -0.4975 -0.1592
 2607Sol     OW13511   2.502   0.605   7.464  0.1649  0.1060 -0.0104
 2607Sol     HW13512   2.556   0.545   7.515  0.4732  0.2284 -0.1912
 2607Sol     HW13513   2.561   0.640   7.397 -0.4125 -0.5841 -0.8961
 2607Sol     MW13514   2.512   0.603   7.462  0.0703 -0.2745 -0.0329
 2608Sol     OW13515   1.815   0.230   8.780 -0.1568 -0.0730 -0.0430
 2608Sol     HW13516   1.844   0.141   8.759 -0.5585 -0.4035  0.7565
 2608Sol     HW13517   1.856   0.285   8.713 -0.3386 -0.9225 -0.8636
 2608Sol     MW13518   1.822   0.227   8.772 -0.4339 -0.4278  0.0318
 2609Sol     OW13519   0.263   1.936   4.090  0.3814 -0.4506  0.0735
 2609Sol     HW13520   0.306   1.994   4.152  1.6761 -0.8754 -0.3913
 2609Sol     HW13521   0.326   1.927   4.018 -0.6086 -0.8751 -0.7626
 2609Sol     MW13522   0.273   1.940   4.089 -0.4591 -0.8144 -0.3630
 2610Sol     OW13523   0.550   2.941   8.951 -0.1474 -0.0489 -0.1451
 2610Sol     HW13524   0.578   2.897   9.031  2.4862 -1.6994 -1.9010
 2610Sol     HW13525   0.622   3.000   8.930 -1.4133  1.3617 -0.6140
 2610Sol     MW13526   0.559   2.943   8.956  0.2337 -0.4308  0.3544
 2611Sol     OW13527   2.891   3.274   7.319 -0.0604  0.6154 -0.0633
 2611Sol     HW13528   2.822   3.264   7.253  0.6306  1.2549 -0.8953
 2611Sol     HW13529   2.844   3.275   7.402 -1.1416  1.8002 -0.6645
 2611Sol     MW13530   2.881   3.273   7.321  0.8371 -0.3124 -0.6396
 2612Sol     OW13531   2.633   0.630   7.861  0.5221  0.5679 -0.9487
 2612Sol     HW13532   2.552   0.579   7.853  0.9789 -0.1574 -1.0476
 2612Sol     HW13533   2.607   0.720   7.843 -0.0852  0.1995 -1.9469
 2612Sol     MW13534   2.624   0.633   7.859 -0.0700 -0.5730 -0.2150
 2613Sol     OW13535   1.566   0.587   2.293 -0.0483  0.0537 -0.1722
 2613Sol     HW13536   1.499   0.592   2.361  1.3338  0.5023  1.2060
 2613Sol     HW13537   1.552   0.502   2.252 -1.1670 -0.0538  0.4203
 2613Sol     MW13538   1.559   0.580   2.296 -0.0245 -0.4913  0.2263
 2614Sol     OW13539   0.182   0.634   1.696 -0.2269 -0.2264  0.1626
 2614Sol     HW13540   0.092   0.652   1.725  0.5833  3.3042  0.7467
 2614Sol     HW13541   0.216   0.571   1.759 -2.1114 -1.2265  0.2154
 2614Sol     MW13542   0.177   0.630   1.704 -0.8558  0.3203  0.1062
 2615Sol     OW13543   1.441   2.319   7.286  0.2312 -0.2200  0.1505
 2615Sol     HW13544   1.484   2.383   7.341  1.7527 -0.9896 -0.1105
 2615Sol     HW13545   1.354   2.307   7.325  0.4143  1.0292  0.9400
 2615Sol     MW13546   1.437   2.323   7.294  0.5237  0.3529  0.4339
 2616Sol     OW13547   2.518   0.134   3.576 -0.4720 -0.6113 -0.9121
 2616Sol     HW13548   2.437   0.179   3.553 -1.0444 -0.1493  1.8360
 2616Sol     HW13549   2.493   0.075   3.647  1.6513 -0.1931  0.2322
 2616Sol     MW13550   2.508   0.133   3.580 -0.2774  0.0158  0.2241
 2617Sol     OW13551   3.228   1.081   5.380 -0.4690 -0.2018 -0.1076
 2617Sol     HW13552   3.294   1.088   5.312 -0.9739 -1.1678 -0.7122
 2617Sol     HW13553   3.259   1.138   5.450  1.0685 -0.7535 -0.3218
 2617Sol     MW13554   3.236   1.086   5.380  0.5030  0.4837 -0.1428
 2618Sol     OW13555   3.266   0.111   6.734 -0.0275  0.1219  0.3846
 2618Sol     HW13556   3.174   0.098   6.710  0.0276  1.1787 -0.4137
 2618Sol     HW13557   3.263   0.154   6.819 -0.2643 -0.4484  0.6674
 2618Sol     MW13558   3.258   0.113   6.739 -0.1498 -0.0317 -0.4797
 2619Sol     OW13559   3.036   1.615   5.001 -0.2576  0.2866  0.7768
 2619Sol     HW13560   3.050   1.640   4.909 -0.9719 -1.0667  0.2898
 2619Sol     HW13561   3.123   1.621   5.040  0.6265 -2.0412 -0.7403
 2619Sol     MW13562   3.045   1.618   4.996  0.3044 -0.0451 -0.1048
 2620Sol     OW13563   0.359   1.760   6.022  0.6997  0.2723 -0.3091
 2620Sol     HW13564   0.410   1.693   6.069  2.0282  0.1406 -1.8815
 2620Sol     HW13565   0.415   1.837   6.022 -0.7804  1.3785  1.3878
 2620Sol     MW13566   0.369   1.761   6.026 -0.2406 -0.0988  0.1362
 2621Sol     OW13567   0.372   0.488   9.444  0.5335  0.4469  0.6276
 2621Sol     HW13568   0.334   0.483   9.356  1.3369  0.1646  0.2949
 2621Sol     HW13569   0.299   0.467   9.502  0.2265 -0.2891 -0.0172
 2621Sol     MW13570   0.362   0.486   9.441 -0.0983 -0.3003  0.0510
 2622Sol     OW13571   2.247   2.877   9.771 -0.0623  0.2441 -0.0054
 2622Sol     HW13572   2.277   2.821   9.843  1.2574  0.6177 -0.2532
 2622Sol     HW13573   2.175   2.927   9.809 -1.2107 -1.5649  0.2318
 2622Sol     MW13574   2.243   2.877   9.781  0.3275 -0.1522  0.3676
 2623Sol     OW13575   0.184   0.364   7.933 -0.3229 -0.7985 -0.0087
 2623Sol     HW13576   0.196   0.458   7.927  1.2139 -0.8767  1.4354
 2623Sol     HW13577   0.181   0.334   7.842  3.6561  0.1391 -0.5217
 2623Sol     MW13578   0.185   0.370   7.924 -0.7956 -0.1885 -0.0048
 2624Sol     OW13579   1.418   3.224   6.416 -0.2128  0.0615 -0.0926
 2624Sol     HW13580   1.496   3.232   6.470  0.8641 -2.3286 -1.2328
 2624Sol     HW13581   1.448   3.238   6.327 -1.4028  0.8226 -0.3904
 2624Sol     MW13582   1.427   3.226   6.413  0.1271  0.0094  0.5615
 2625Sol     OW13583   0.531   3.178   7.684 -0.3195 -0.1767  0.1909
 2625Sol     HW13584   0.625   3.191   7.671 -0.5563  0.1280 -1.2731
 2625Sol     HW13585   0.524   3.089   7.718  0.4402 -0.5204 -0.5337
 2625Sol     MW13586   0.539   3.171   7.686 -0.1405  0.1640  0.5487
 2626Sol     OW13587   2.096   2.082   6.359 -0.0744 -0.0501  0.0694
 2626Sol     HW13588   2.116   2.171   6.330 -0.7431 -0.3601 -1.4090
 2626Sol     HW13589   2.015   2.090   6.409  0.7445  0.3972  1.3534
 2626Sol     MW13590   2.091   2.091   6.361 -0.4808  0.3270 -0.5118
 2627Sol     OW13591   3.253   2.635   1.832  0.5906  0.3072  0.2285
 2627Sol     HW13592   3.163   2.666   1.831  0.3897 -0.2965 -0.8167
 2627Sol     HW13593   3.254   2.561   1.771  1.8481  0.4910  0.0100
 2627Sol     MW13594   3.245   2.631   1.826 -0.0406  0.0963 -0.0621
 2628Sol     OW13595   1.260   3.275   7.835 -0.0876 -0.6302  0.0420
 2628Sol     HW13596   1.200   3.254   7.764 -1.3830 -1.7346  1.4245
 2628Sol     HW13597   1.341   3.300   7.791 -0.8560 -1.2929 -1.8115
 2628Sol     MW13598   1.262   3.276   7.825  0.2844 -0.0988 -0.1619
 2629Sol     OW13599   1.168   1.870   6.619  0.1078  0.2175  0.7249
 2629Sol     HW13600   1.224   1.846   6.693 -0.9150 -0.5104  1.2761
 2629Sol     HW13601   1.209   1.829   6.543 -0.5645 -1.7199  1.3654
 2629Sol     MW13602   1.177   1.864   6.619 -0.2338 -0.5187 -0.2210
 2630Sol     OW13603   0.464   1.249   8.871 -0.2591  1.1603  0.0668
 2630Sol     HW13604   0.542   1.235   8.924 -0.7261 -0.7597  0.3093
 2630Sol     HW13605   0.466   1.177   8.807 -0.5187  2.5357 -1.5380
 2630Sol     MW13606   0.471   1.241   8.870 -0.4013 -0.0403 -0.0562
 2631Sol     OW13607   3.136   1.341   4.192 -0.3223 -1.1210 -0.7379
 2631Sol     HW13608   3.102   1.403   4.257  0.2033 -0.1073 -1.4400
 2631Sol     HW13609   3.166   1.395   4.120  1.3436 -2.1151 -0.8006
 2631Sol     MW13610   3.135   1.351   4.192 -0.1908  0.0922  0.2300
 2632Sol     OW13611   0.655   1.825   7.767  0.4111 -0.4059 -0.1365
 2632Sol     HW13612   0.750   1.816   7.760  0.4982  0.8567 -0.7819
 2632Sol     HW13613   0.638   1.917   7.747 -0.9615 -0.6578 -0.1953
 2632Sol     MW13614   0.662   1.833   7.764  0.2637 -0.4521 -0.1553
 2633Sol     OW13615   0.190   3.202   4.947 -0.0866 -0.3180 -0.2249
 2633Sol     HW13616   0.096   3.220   4.956 -0.5129 -2.5677  0.0070
 2633Sol     HW13617   0.200   3.173   4.856  0.5891  1.0049 -0.5880
 2633Sol     MW13618   0.182   3.201   4.940 -0.6045  0.2672 -0.0550
 2634Sol     OW13619   2.822   3.298   9.017 -0.0830 -0.1130  0.5850
 2634Sol     HW13620   2.781   3.369   8.967 -0.4700  0.4479  1.6695
 2634Sol     HW13621   2.899   3.274   8.967 -0.9571 -0.1865 -0.7510
 2634Sol     MW13622   2.825   3.302   9.008  0.7695 -0.0586 -0.2114
 2635Sol     OW13623   2.241   2.763   6.620  0.1872  0.3207 -0.4367
 2635Sol     HW13624   2.333   2.788   6.613  1.7512 -4.2492  2.0990
 2635Sol     HW13625   2.214   2.794   6.706 -0.1016 -0.0508 -0.3940
 2635Sol     MW13626   2.247   2.768   6.627  0.8157 -0.2961 -0.6726
 2636Sol     OW13627   2.313   2.245   4.082 -0.6466  0.4510  0.8207
 2636Sol     HW13628   2.342   2.297   4.007  0.0662 -0.6713  0.2988
 2636Sol     HW13629   2.341   2.295   4.158  0.5545  0.5585  0.3233
 2636Sol     MW13630   2.319   2.254   4.082  0.4644 -0.0855 -0.1602
 2637Sol     OW13631   0.440   1.369   6.961  0.5427 -0.2737  0.0055
 2637Sol     HW13632   0.536   1.368   6.966  0.5229 -1.9450  0.4005
 2637Sol     HW13633   0.418   1.289   6.914 -0.6447  0.3340 -0.4712
 2637Sol     MW13634   0.447   1.361   6.957  0.2561 -0.5476 -0.6964
 2638Sol     OW13635   0.165   2.573   8.966 -0.3759 -0.5332 -0.3980
 2638Sol     HW13636   0.220   2.496   8.979  0.9911  0.3944 -0.6076
 2638Sol     HW13637   0.183   2.629   9.041  0.8915  0.8995 -1.7417
 2638Sol     MW13638   0.172   2.571   8.974  0.0501  0.1373 -0.2158
 2639Sol     OW13639   1.020   1.068   2.262  0.0780 -0.2193  0.1879
 2639Sol     HW13640   1.030   1.139   2.326 -3.1559 -0.7572  1.4299
 2639Sol     HW13641   1.046   0.989   2.309  3.4588  0.0429 -1.1232
 2639Sol     MW13642   1.023   1.067   2.272  0.2889 -0.1124  0.6724
 2640Sol     OW13643   2.882   0.055   6.425  0.6988  0.0009  0.1563
 2640Sol     HW13644   2.832  -0.017   6.386 -1.8717  1.0817  1.2934
 2640Sol     HW13645   2.922   0.017   6.503  0.4106 -0.5437  0.0410
 2640Sol     MW13646   2.881   0.045   6.428  0.2320 -0.0376  0.9900
 2641Sol     OW13647   2.800   2.963   6.096 -0.2051  0.2816  1.0663
 2641Sol     HW13648   2.826   2.975   6.005  2.1461 -1.1330  1.5112
 2641Sol     HW13649   2.707   2.940   6.092  0.0333 -0.3789 -1.0156
 2641Sol     MW13650   2.794   2.962   6.088  0.6366 -0.1460 -0.1270
 2642Sol     OW13651   1.557   1.064   3.351 -0.2899 -0.5193  0.6623
 2642Sol     HW13652   1.478   1.011   3.356 -0.3469 -0.4101  0.9652
 2642Sol     HW13653   1.563   1.105   3.438  0.4412 -1.0308  0.8622
 2642Sol     MW13654   1.551   1.063   3.360 -0.2718  0.5928 -0.4004
 2643Sol     OW13655   2.396   3.351   4.084  0.0464 -0.1877  0.3373
 2643Sol     HW13656   2.410   3.358   3.989 -1.5732 -2.4910 -0.1389
 2643Sol     HW13657   2.483   3.354   4.122  0.8396 -0.9064 -1.3763
 2643Sol     MW13658   2.405   3.352   4.079 -0.0304 -0.0325 -0.1496
 2644Sol     OW13659   1.802   1.481   7.813 -0.0582  0.0233 -0.1926
 2644Sol     HW13660   1.786   1.450   7.902  0.6720  0.6619  0.1680
 2644Sol     HW13661   1.728   1.539   7.794 -0.2306 -0.1394 -0.0113
 2644Sol     MW13662   1.794   1.484   7.819  0.1369  0.0386 -0.1240
 2645Sol     OW13663   2.093   0.454   3.833  0.5829  0.0873  0.1008
 2645Sol     HW13664   2.029   0.503   3.885  0.7914  0.7976 -0.3132
 2645Sol     HW13665   2.146   0.521   3.790  0.1667 -0.4806 -1.3356
 2645Sol     MW13666   2.092   0.464   3.834  0.2592 -0.6410  0.4114
 2646Sol     OW13667   2.101   2.243   5.229  0.4258 -0.3230  0.9976
 2646Sol     HW13668   2.077   2.336   5.220 -1.3903 -0.7572  0.9983
 2646Sol     HW13669   2.196   2.242   5.223  0.4433  1.4973  0.5232
 2646Sol     MW13670   2.107   2.252   5.227 -0.4189  0.6224 -1.0095
 2647Sol     OW13671   1.742   1.545   8.564 -0.3819  0.0631 -0.2713
 2647Sol     HW13672   1.652   1.514   8.574 -0.9488  2.0587  1.0021
 2647Sol     HW13673   1.754   1.558   8.470 -1.7670  0.7741 -0.3516
 2647Sol     MW13674   1.735   1.543   8.556 -0.3722 -0.0823  0.2576
 2648Sol     OW13675   0.096   0.097   5.017 -0.0395  0.1776 -0.2713
 2648Sol     HW13676   0.118   0.023   5.074 -0.6349  0.9441  0.9800
 2648Sol     HW13677   0.019   0.137   5.058  1.2347  2.4742 -0.0186
 2648Sol     MW13678   0.091   0.094   5.026  0.1345  0.1379  0.0181
 2649Sol     OW13679   1.168   0.230   5.080  0.8343  0.4989 -0.0514
 2649Sol     HW13680   1.108   0.192   5.144  1.8647  0.1827  0.7175
 2649Sol     HW13681   1.211   0.301   5.126 -1.0271  2.6324 -1.4550
 2649Sol     MW13682   1.166   0.233   5.090  0.3753 -0.0127 -0.3122
 2650Sol     OW13683   2.132   0.232   9.508  0.6632  0.1639  0.4367
 2650Sol     HW13684   2.189   0.182   9.566 -0.4182 -0.0683  1.3177
 2650Sol     HW13685   2.125   0.318   9.549 -0.0211  0.0338  0.5973
 2650Sol     MW13686   2.137   0.235   9.517 -0.3085 -0.1404  1.0989
 2651Sol     OW13687   2.248   0.140   6.834  0.3970 -0.4872 -0.2681
 2651Sol     HW13688   2.305   0.172   6.764 -0.5401 -0.6325 -1.1097
 2651Sol     HW13689   2.219   0.219   6.879 -0.4290 -0.2655 -1.1759
 2651Sol     MW13690   2.251   0.149   6.831 -0.3093 -0.0167  0.2361
 2652Sol     OW13691   3.159   2.521   7.511  1.0732 -0.2238 -0.0705
 2652Sol     HW13692   3.150   2.464   7.587 -2.4393  0.8891  0.4613
 2652Sol     HW13693   3.239   2.570   7.526  1.5948 -1.6175  1.8075
 2652Sol     MW13694   3.165   2.521   7.519 -0.2810 -0.1941 -0.1793
 2653Sol     OW13695   2.199   3.096   9.302 -0.1805 -0.1443  0.0526
 2653Sol     HW13696   2.196   3.001   9.307  1.4091 -0.1350  1.6639
 2653Sol     HW13697   2.138   3.126   9.369  0.7439 -0.0495  0.8704
 2653Sol     MW13698   2.193   3.090   9.308  0.1690 -0.3847  0.2170
 2654Sol     OW13699   1.286   0.529   9.077 -0.2175  0.3418  0.0415
 2654Sol     HW13700   1.281   0.436   9.056  1.1326  0.5619 -1.2817
 2654Sol     HW13701   1.330   0.532   9.163  0.1059 -0.2147 -0.1045
 2654Sol     MW13702   1.290   0.521   9.083 -0.3771  0.2037  0.0333
 2655Sol     OW13703   3.125   0.301   7.124  0.6129 -0.5698 -0.1266
 2655Sol     HW13704   3.183   0.272   7.053  0.4221 -2.1512  0.3428
 2655Sol     HW13705   3.183   0.320   7.197  0.8070  1.0260 -0.6932
 2655Sol     MW13706   3.135   0.300   7.124 -0.4231  0.8142 -0.4360
 2656Sol     OW13707   3.067   1.013   6.288  0.4234  0.2511 -0.5074
 2656Sol     HW13708   3.021   0.937   6.324 -1.1003  1.3488 -0.0792
 2656Sol     HW13709   3.094   0.987   6.201 -0.5632 -0.5965 -0.5563
 2656Sol     MW13710   3.065   1.004   6.284  0.7849  0.8509  0.2485
 2657Sol     OW13711   2.946   3.140   6.226 -0.2108 -0.4455 -0.3462
 2657Sol     HW13712   2.894   3.072   6.183 -0.7993  0.8134 -1.6778
 2657Sol     HW13713   2.988   3.096   6.300 -2.4289 -1.6941  0.1965
 2657Sol     MW13714   2.945   3.130   6.228  0.1449 -0.0481 -0.1761
 2658Sol     OW13715   2.825   1.633   4.131  0.4778 -0.5103  0.4950
 2658Sol     HW13716   2.857   1.592   4.212 -1.2560 -0.8217  1.0464
 2658Sol     HW13717   2.829   1.564   4.065  1.3147 -0.4310  0.4591
 2658Sol     MW13718   2.828   1.623   4.133  0.0514 -0.6652  0.1735
 2659Sol     OW13719   1.612   1.296   3.885 -0.6992 -0.6383 -0.5023
 2659Sol     HW13720   1.652   1.208   3.883 -0.8242 -0.7270  0.5790
 2659Sol     HW13721   1.570   1.301   3.971  0.1884  0.8679 -0.1417
 2659Sol     MW13722   1.612   1.288   3.893 -0.3404 -0.0148  0.1092
 2660Sol     OW13723   2.246   0.654   1.378  0.1816 -0.5462  0.2368
 2660Sol     HW13724   2.311   0.599   1.422 -0.8222 -0.4164  1.9276
 2660Sol     HW13725   2.178   0.669   1.444  0.0191  2.0437 -0.4382
 2660Sol     MW13726   2.245   0.651   1.388  0.4926  0.5127 -0.2010
 2661Sol     OW13727   1.352   0.014   6.016  0.2838  0.0330 -0.1142
 2661Sol     HW13728   1.397   0.089   5.978 -2.2504  1.0072 -1.3555
 2661Sol     HW13729   1.315   0.048   6.098 -0.1588 -0.0843 -0.2635
 2661Sol     MW13730   1.352   0.024   6.020  0.3548 -0.0883  0.2693
 2662Sol     OW13731   1.745   1.639   4.981 -0.0645  0.0255 -0.8100
 2662Sol     HW13732   1.670   1.608   4.930  0.1854 -1.1992 -0.4473
 2662Sol     HW13733   1.713   1.638   5.072  0.0915  0.4234 -0.7483
 2662Sol     MW13734   1.735   1.636   4.985 -0.4555 -0.2713  0.0509
 2663Sol     OW13735   2.607   1.173   8.141  0.1042  0.7370  0.1043
 2663Sol     HW13736   2.662   1.212   8.209  0.4890 -0.4571  0.4846
 2663Sol     HW13737   2.652   1.092   8.117 -0.5893  0.6182 -0.8123
 2663Sol     MW13738   2.616   1.169   8.145  0.5311  0.1228 -0.0206
 2664Sol     OW13739   1.481   1.735   3.370  0.0177  0.0511  0.1321
 2664Sol     HW13740   1.440   1.753   3.285 -1.0802  0.2316  0.6933
 2664Sol     HW13741   1.420   1.772   3.434  1.6852  1.5062  0.9231
 2664Sol     MW13742   1.472   1.740   3.368 -0.4787 -0.2866 -0.2658
 2665Sol     OW13743   2.260   0.806   8.781 -0.2902 -0.5245  0.0626
 2665Sol     HW13744   2.328   0.856   8.737 -0.0023 -2.2716 -1.5215
 2665Sol     HW13745   2.306   0.762   8.853  0.6436 -2.9206 -1.9128
 2665Sol     MW13746   2.270   0.807   8.784 -0.0086 -0.3549 -0.5513
 2666Sol     OW13747   1.777   1.606   1.728  0.3314  0.3595  0.5628
 2666Sol     HW13748   1.807   1.674   1.668  0.3490 -0.4610 -0.3714
 2666Sol     HW13749   1.706   1.647   1.777  0.3163  1.0365 -0.0144
 2666Sol     MW13750   1.774   1.616   1.727 -0.3499 -0.0718  0.2957
 2667Sol     OW13751   1.637   0.700   9.191  0.0476 -0.0049 -0.2405
 2667Sol     HW13752   1.589   0.774   9.154 -0.5711  0.4700  1.4665
 2667Sol     HW13753   1.725   0.709   9.155  0.5116  2.6885  1.4246
 2667Sol     MW13754   1.640   0.708   9.184  0.0115  0.4502  0.2164
 2668Sol     OW13755   0.793   2.416   9.308  0.0985 -0.4264 -0.0130
 2668Sol     HW13756   0.842   2.459   9.379  0.5281 -0.9497  0.0173
 2668Sol     HW13757   0.759   2.336   9.348 -1.0077  0.0607  0.0310
 2668Sol     MW13758   0.795   2.413   9.318 -0.1950 -0.8824  0.1663
 2669Sol     OW13759   0.013   1.753   2.397  0.3025  0.7923 -0.7517
 2669Sol     HW13760  -0.011   1.845   2.396  0.1710  0.8060  1.2101
 2669Sol     HW13761  -0.066   1.707   2.370 -0.0395  1.1826 -0.4239
 2669Sol     MW13762   0.004   1.757   2.395  0.6629 -0.3667  0.1354
 2670Sol     OW13763   0.382   1.493   2.614 -0.5697  0.0646  0.1791
 2670Sol     HW13764   0.296   1.518   2.580 -0.6686 -0.0366  0.3499
 2670Sol     HW13765   0.368   1.406   2.652 -0.3921  0.0473  0.2061
 2670Sol     MW13766   0.373   1.487   2.615  0.1880  0.5957  0.5123
 2671Sol     OW13767   0.946   0.158   8.802 -0.0425  0.7721 -0.2744
 2671Sol     HW13768   0.929   0.196   8.888  1.2477  0.0959  0.2904
 2671Sol     HW13769   1.026   0.202   8.773 -0.1790  0.6070 -0.9007
 2671Sol     MW13770   0.952   0.166   8.807  0.4594  0.2010 -0.3798
 2672Sol     OW13771   2.203   3.390   8.191  0.6831  0.4080  0.1282
 2672Sol     HW13772   2.162   3.338   8.260 -0.2665  1.3266  0.2667
 2672Sol     HW13773   2.251   3.326   8.137  0.8749 -0.3915  1.2382
 2672Sol     MW13774   2.204   3.379   8.192  0.4144  0.2929  0.4030
 2673Sol     OW13775   2.954   0.059   3.786  0.4188  0.1794 -0.1148
 2673Sol     HW13776   2.865   0.030   3.771  1.3258 -2.6670 -0.2235
 2673Sol     HW13777   2.955   0.150   3.756 -2.4024  0.2303 -0.1464
 2673Sol     MW13778   2.946   0.065   3.782 -0.3231  0.2112  0.3389
 2674Sol     OW13779   3.060   1.060   5.152 -0.0534  0.0852  0.0550
 2674Sol     HW13780   3.108   1.044   5.233  0.0658  0.1467 -0.0045
 2674Sol     HW13781   3.127   1.081   5.087 -0.2582  1.4971  0.2847
 2674Sol     MW13782   3.070   1.060   5.153 -0.5057  0.8406 -0.5030
 2675Sol     OW13783   1.732   3.431   9.704  0.4844  0.1031 -0.0956
 2675Sol     HW13784   1.811   3.379   9.719  0.7466  0.7367  0.7928
 2675Sol     HW13785   1.756   3.519   9.734  0.1154  0.7914 -1.7533
 2675Sol     MW13786   1.741   3.434   9.708  0.7133 -0.2942  0.3181
 2676Sol     OW13787   0.008   1.026   1.475  0.3057  0.3521 -0.0699
 2676Sol     HW13788  -0.054   1.094   1.449 -0.2690 -0.9482 -2.2717
 2676Sol     HW13789   0.017   0.971   1.397  0.5091 -2.2884  1.7467
 2676Sol     MW13790   0.003   1.027   1.465 -0.5679  0.4951  0.1926
 2677Sol     OW13791   1.956   3.192   9.409  0.2422  0.3207 -0.3258
 2677Sol     HW13792   1.966   3.206   9.504 -1.8683  1.2222 -0.2015
 2677Sol     HW13793   1.956   3.280   9.372  1.6199 -0.0557 -1.2506
 2677Sol     MW13794   1.956   3.201   9.414 -0.3773  0.5648 -0.0610
 2678Sol     OW13795   0.544   1.296   5.848  0.5658  0.5310 -0.1475
 2678Sol     HW13796   0.631   1.328   5.827  0.3184  0.7742 -0.8487
 2678Sol     HW13797   0.486   1.370   5.829  0.4433  1.2395  2.7852
 2678Sol     MW13798   0.546   1.305   5.844  0.7977  0.4257 -0.1711
 2679Sol     OW13799   1.014   2.611   8.117  0.3223 -0.0325  0.2110
 2679Sol     HW13800   0.988   2.694   8.157  1.5741  0.9259 -0.9183
 2679Sol     HW13801   1.058   2.636   8.035  0.3403 -1.8207 -0.3527
 2679Sol     MW13802   1.016   2.621   8.113 -0.1144 -0.3222 -0.3230
 2680Sol     OW13803   1.026   1.723   9.792 -0.1479 -0.1858  0.7760
 2680Sol     HW13804   1.096   1.778   9.756 -0.0671 -0.4383  0.5436
 2680Sol     HW13805   0.957   1.785   9.815 -0.9090 -0.1468 -1.4574
 2680Sol     MW13806   1.026   1.734   9.790 -0.0367 -0.0465  0.2788
 2681Sol     OW13807   0.904   1.550   9.031  0.4638 -0.2636  0.0027
 2681Sol     HW13808   0.962   1.502   9.090 -0.3887 -0.3932  0.7391
 2681Sol     HW13809   0.964   1.601   8.976  1.3467 -1.6024 -0.3106
 2681Sol     MW13810   0.915   1.550   9.031  0.7200  0.0246  0.6768
 2682Sol     OW13811   3.150   2.150   6.269  0.2691  0.1615  0.1191
 2682Sol     HW13812   3.068   2.199   6.260  0.8550  1.1688  0.1615
 2682Sol     HW13813   3.133   2.086   6.338 -1.0327 -0.7928 -1.0655
 2682Sol     MW13814   3.141   2.149   6.274  0.2251 -0.3900 -0.7803
 2683Sol     OW13815   0.335   1.109   4.004 -0.1334 -0.2446  0.2371
 2683Sol     HW13816   0.411   1.148   4.048  1.2072 -3.4003  0.8768
 2683Sol     HW13817   0.285   1.183   3.971  1.5424  2.0301  2.6396
 2683Sol     MW13818   0.337   1.119   4.005  0.8801  0.3255  0.2009
 2684Sol     OW13819   1.353   0.846   6.189 -0.5424  0.5149  0.5304
 2684Sol     HW13820   1.394   0.793   6.257 -2.6496 -2.1655 -0.1994
 2684Sol     HW13821   1.353   0.935   6.224  2.3914 -0.0466  2.1231
 2684Sol     MW13822   1.357   0.849   6.198 -0.1586 -0.1515 -0.2980
 2685Sol     OW13823   2.459   3.227   2.153  0.0194  0.2999  0.8206
 2685Sol     HW13824   2.458   3.320   2.176  0.2243  1.0513 -2.0464
 2685Sol     HW13825   2.371   3.196   2.177 -0.9921  1.9067 -0.7060
 2685Sol     MW13826   2.451   3.233   2.158 -0.1110 -0.3218 -0.4720
 2686Sol     OW13827   2.994   2.568   4.523 -0.0374 -0.3568 -0.1782
 2686Sol     HW13828   3.089   2.559   4.511 -0.2732 -1.4899 -1.2291
 2686Sol     HW13829   2.979   2.662   4.522  1.0763 -0.1670  0.0066
 2686Sol     MW13830   3.001   2.575   4.522 -0.4133 -0.2330  0.1888
 2687Sol     OW13831   2.831   3.182   5.301  0.7134  0.7908 -0.5574
 2687Sol     HW13832   2.792   3.248   5.244  1.3936  2.1076  0.4779
 2687Sol     HW13833   2.900   3.228   5.348  0.0570 -0.2175  1.4557
 2687Sol     MW13834   2.834   3.192   5.300  0.2512 -0.7485  0.1195
 2688Sol     OW13835   0.082   3.040   9.262 -0.0149 -0.2573 -0.4117
 2688Sol     HW13836   0.151   3.096   9.226 -0.0275  0.4121  0.5821
 2688Sol     HW13837   0.000   3.084   9.236 -0.0273  0.1067  0.2340
 2688Sol     MW13838   0.081   3.049   9.256 -0.3894  0.1655  0.3051
 2689Sol     OW13839   0.038   2.424   2.810 -0.6254 -0.1803 -0.1314
 2689Sol     HW13840   0.029   2.518   2.825 -1.4878 -0.1033 -1.0603
 2689Sol     HW13841  -0.017   2.384   2.877  0.0810 -0.0376  0.5339
 2689Sol     MW13842   0.032   2.428   2.817 -1.0048  0.0056 -0.4743
 2690Sol     OW13843   3.276   1.260   3.863  0.4376 -0.1706  0.0261
 2690Sol     HW13844   3.263   1.240   3.770  2.0708  0.9383 -0.4515
 2690Sol     HW13845   3.215   1.201   3.908  1.7049 -2.7910 -1.5729
 2690Sol     MW13846   3.269   1.253   3.858  0.3877  0.0691 -0.1427
 2691Sol     OW13847   0.494   2.488   2.892  0.1549 -0.7753 -0.2571
 2691Sol     HW13848   0.462   2.564   2.844  0.3191  0.4401  1.5401
 2691Sol     HW13849   0.585   2.480   2.866  0.1462 -0.3402 -0.4232
 2691Sol     MW13850   0.499   2.494   2.885  0.1526 -0.1197  0.2381
 2692Sol     OW13851   3.250   3.037   4.545 -0.2560 -0.1071  0.2510
 2692Sol     HW13852   3.339   3.054   4.577 -0.6647  0.4316  1.1315
 2692Sol     HW13853   3.195   3.051   4.622 -1.1047 -0.4184 -0.3029
 2692Sol     MW13854   3.253   3.039   4.555 -0.2370  0.3325  0.2286
 2693Sol     OW13855   0.627   3.451   5.020 -0.4210  0.6416  0.7371
 2693Sol     HW13856   0.538   3.434   4.991 -0.3614 -0.2802  1.0777
 2693Sol     HW13857   0.635   3.405   5.103  1.1546 -1.3995 -0.4910
 2693Sol     MW13858   0.620   3.445   5.025 -0.4041 -0.0563 -0.0502
 2694Sol     OW13859   1.529   0.009   2.712 -0.0011  0.7975  0.6160
 2694Sol     HW13860   1.525  -0.087   2.716 -0.1387  0.7735 -0.1133
 2694Sol     HW13861   1.623   0.029   2.718 -0.0400  0.6691  1.7945
 2694Sol     MW13862   1.537   0.002   2.713 -0.2307 -0.2687  0.0019
 2695Sol     OW13863   0.798   0.696   6.388 -0.8626 -0.0370 -0.4096
 2695Sol     HW13864   0.888   0.675   6.363 -0.6930  1.9983 -1.5995
 2695Sol     HW13865   0.779   0.636   6.460  1.3604 -0.6625 -0.2962
 2695Sol     MW13866   0.805   0.689   6.392  0.0435 -0.4359 -0.3999
 2696Sol     OW13867   1.057   2.126   8.648  0.3386 -0.2743  0.0415
 2696Sol     HW13868   1.116   2.072   8.595  1.1057  0.7764 -0.1791
 2696Sol     HW13869   1.094   2.214   8.644 -0.4606  0.1199  1.0602
 2696Sol     MW13870   1.066   2.129   8.643  0.5479  0.0782  0.3648
 2697Sol     OW13871   0.719   2.101   6.804  0.4823 -0.1023  0.0631
 2697Sol     HW13872   0.799   2.152   6.790  0.6106 -0.2850  0.1307
 2697Sol     HW13873   0.651   2.152   6.759  1.1836 -1.5541 -2.7746
 2697Sol     MW13874   0.720   2.110   6.799 -0.6750 -0.0823 -0.2468
 2698Sol     OW13875   0.870   1.939   5.379  0.0885  0.4476 -0.3321
 2698Sol     HW13876   0.950   1.918   5.330 -0.0782 -2.2367  0.4322
 2698Sol     HW13877   0.799   1.917   5.319 -0.0964 -1.3425  0.5138
 2698Sol     MW13878   0.871   1.935   5.369  0.3690 -0.0374  0.3974
 2699Sol     OW13879   1.969   1.831   5.006 -0.5518 -1.0877 -0.3889
 2699Sol     HW13880   1.943   1.923   4.999  2.0928 -0.1778  0.9841
 2699Sol     HW13881   1.888   1.785   5.030 -1.6258  1.0917  0.3351
 2699Sol     MW13882   1.959   1.835   5.008  0.0533 -0.1904  0.5730
 2700Sol     OW13883   1.531   1.141   2.853 -0.2950 -0.1491  0.3891
 2700Sol     HW13884   1.591   1.156   2.926  0.7825  0.5608 -0.6299
 2700Sol     HW13885   1.456   1.198   2.870  0.1650  0.3580  0.6979
 2700Sol     MW13886   1.529   1.147   2.861  0.1599  0.1029 -0.1584
 2701Sol     OW13887   2.133   2.433   6.741 -0.0376 -0.2781 -0.8436
 2701Sol     HW13888   2.221   2.458   6.711 -1.6423  5.2488 -1.3994
 2701Sol     HW13889   2.084   2.417   6.661 -0.6000  0.6312 -0.6855
 2701Sol     MW13890   2.137   2.434   6.731  0.1433 -0.0623 -0.5816
 2702Sol     OW13891   0.735   3.302   3.940  0.2067 -0.0847 -0.4049
 2702Sol     HW13892   0.729   3.218   3.895  2.4590 -0.2052 -0.5456
 2702Sol     HW13893   0.777   3.282   4.024 -1.1518  0.6076  0.4699
 2702Sol     MW13894   0.738   3.293   3.944  0.3672 -0.3354  0.2944
 2703Sol     OW13895   3.116   0.538   5.911  0.0477 -0.1573 -0.1264
 2703Sol     HW13896   3.047   0.504   5.968 -0.4698 -0.8451 -1.1475
 2703Sol     HW13897   3.173   0.589   5.969 -1.4620  0.6274  0.6965
 2703Sol     MW13898   3.115   0.540   5.921  0.0898  0.3063  0.2069
 2704Sol     OW13899   0.389   1.610   1.894  0.4644  0.0145 -0.1229
 2704Sol     HW13900   0.327   1.649   1.833  0.4276  0.0329 -0.0730
 2704Sol     HW13901   0.453   1.565   1.837  0.3610 -0.0712 -0.1708
 2704Sol     MW13902   0.389   1.609   1.883  0.1212 -0.4059  0.1468
 2705Sol     OW13903   0.547   1.337   3.613  0.4877 -0.0836  0.1211
 2705Sol     HW13904   0.585   1.311   3.697 -0.0184  1.4214  0.8493
 2705Sol     HW13905   0.453   1.324   3.625  0.1278  2.8452  0.8298
 2705Sol     MW13906   0.542   1.334   3.622  0.2005  0.3208 -0.2186
 2706Sol     OW13907   2.891   3.371   5.890  0.0397  0.1014  0.0663
 2706Sol     HW13908   2.856   3.419   5.965 -0.0097 -1.9233  1.3669
 2706Sol     HW13909   2.814   3.328   5.851  0.3512 -0.4397  0.0433
 2706Sol     MW13910   2.881   3.372   5.893 -0.2022 -0.3348 -0.4388
 2707Sol     OW13911   2.156   0.623   7.209  0.3125  0.7751 -0.8470
 2707Sol     HW13912   2.094   0.609   7.137 -0.5961  2.0261 -0.3247
 2707Sol     HW13913   2.107   0.673   7.274  0.6795 -1.5808  1.3149
 2707Sol     MW13914   2.146   0.626   7.208 -0.1260 -0.3484  0.4619
 2708Sol     OW13915   2.294   3.184   1.799 -0.2628  0.3519 -0.2972
 2708Sol     HW13916   2.218   3.127   1.802  0.2115 -0.4029 -1.7533
 2708Sol     HW13917   2.365   3.132   1.836 -0.4300  1.0454  1.0375
 2708Sol     MW13918   2.294   3.175   1.802 -0.4761 -0.6457 -0.1915
 2709Sol     OW13919   0.310   2.682   4.502 -0.0262 -0.0548  0.0332
 2709Sol     HW13920   0.380   2.653   4.443  0.4678  0.1483  0.5141
 2709Sol     HW13921   0.278   2.601   4.542  0.2728 -0.0993  0.1853
 2709Sol     MW13922   0.314   2.672   4.500 -0.7129 -0.0431 -0.0650
 2710Sol     OW13923   1.084   0.165   3.721  0.1686  0.0199  0.4332
 2710Sol     HW13924   0.995   0.137   3.740 -0.0660  0.4657  0.0033
 2710Sol     HW13925   1.139   0.092   3.750 -0.2981 -0.0308  1.1851
 2710Sol     MW13926   1.081   0.156   3.725  0.9819  0.6885 -0.2502
 2711Sol     OW13927   1.641   1.070   6.623 -0.0918  0.7835 -0.0861
 2711Sol     HW13928   1.674   1.159   6.631 -0.2972  0.8187  0.4043
 2711Sol     HW13929   1.631   1.040   6.714 -0.3507  0.3838 -0.2451
 2711Sol     MW13930   1.643   1.075   6.632 -0.2748  0.1310 -0.0226
 2712Sol     OW13931   2.958   2.639   3.507  0.4127  0.4301 -0.0127
 2712Sol     HW13932   3.034   2.694   3.529 -0.5441  1.4597  0.7600
 2712Sol     HW13933   2.906   2.693   3.447 -1.1839  0.8942  1.7579
 2712Sol     MW13934   2.961   2.649   3.504  0.2139 -0.3012 -0.0396
 2713Sol     OW13935   1.906   3.419   5.675 -0.4542  0.2606 -0.3982
 2713Sol     HW13936   1.860   3.406   5.592  0.8660 -1.6252 -0.8666
 2713Sol     HW13937   1.889   3.339   5.724 -1.3227  1.4145  1.2287
 2713Sol     MW13938   1.900   3.411   5.672 -0.1435 -0.0894  0.1810
 2714Sol     OW13939   1.154   2.941   3.275  0.5230 -0.1191 -0.5258
 2714Sol     HW13940   1.069   2.900   3.261  0.9636 -0.5665 -1.9261
 2714Sol     HW13941   1.185   2.903   3.358 -0.1696 -0.7596 -0.5528
 2714Sol     MW13942   1.149   2.934   3.281 -0.0563  0.9008  0.2347
 2715Sol     OW13943   1.861   3.219   1.650  0.2281 -0.3522 -0.0561
 2715Sol     HW13944   1.895   3.308   1.645 -0.2340 -0.1982 -0.5369
 2715Sol     HW13945   1.909   3.178   1.722 -1.8533  1.2604  2.3447
 2715Sol     MW13946   1.868   3.223   1.656 -0.3900 -0.2112 -0.2778
 2716Sol     OW13947   1.400   2.060   7.203  0.3375 -0.2089 -0.7378
 2716Sol     HW13948   1.366   2.065   7.114  0.3287  1.2553 -0.6608
 2716Sol     HW13949   1.425   2.150   7.224 -0.6524 -0.3571  1.1267
 2716Sol     MW13950   1.400   2.068   7.197 -0.1017 -0.4559 -0.7110
 2717Sol     OW13951   1.690   2.375   4.718 -0.4396  0.2997  0.0195
 2717Sol     HW13952   1.780   2.382   4.751 -0.2545  2.7587 -0.8778
 2717Sol     HW13953   1.667   2.465   4.693 -3.1178 -0.3279  0.1296
 2717Sol     MW13954   1.696   2.384   4.719  0.5343  0.1523 -0.6369
 2718Sol     OW13955   1.371   0.631   3.497 -0.9542  0.3414  0.3575
 2718Sol     HW13956   1.341   0.584   3.420 -1.4994  0.8815  0.2408
 2718Sol     HW13957   1.303   0.695   3.514  0.1342  1.5834  0.0786
 2718Sol     MW13958   1.362   0.632   3.492  0.3721 -0.1736 -0.6387
 2719Sol     OW13959   2.594   2.704   6.171 -0.1324 -0.0887  0.4869
 2719Sol     HW13960   2.682   2.698   6.208 -0.4042  1.2881  1.3870
 2719Sol     HW13961   2.586   2.626   6.116  1.3488 -0.6459  1.0330
 2719Sol     MW13962   2.601   2.696   6.169  0.4818 -0.7546  0.2680
 2720Sol     OW13963   1.558   2.528   1.960  0.7519 -0.0576 -0.1904
 2720Sol     HW13964   1.520   2.518   2.047 -1.7833 -2.3809 -1.4740
 2720Sol     HW13965   1.625   2.460   1.955 -0.5741 -1.3664 -0.7454
 2720Sol     MW13966   1.561   2.521   1.967 -0.2712  0.0138  0.6244
 2721Sol     OW13967   1.925   2.639   6.945 -0.2138 -0.5747  0.5527
 2721Sol     HW13968   1.989   2.570   6.962  0.5477 -0.2733 -0.9750
 2721Sol     HW13969   1.902   2.673   7.031  1.2049 -1.1245  1.1629
 2721Sol     MW13970   1.929   2.636   6.954  0.5000  0.8840  0.4854
 2722Sol     OW13971   2.296   0.828   6.909  0.3690  0.7609  0.6368
 2722Sol     HW13972   2.262   0.744   6.878 -0.1224  1.0884  0.2920
 2722Sol     HW13973   2.380   0.806   6.950 -0.2322 -0.0447  1.4635
 2722Sol     MW13974   2.300   0.818   6.910 -0.1723 -0.0088  0.0554
 2723Sol     OW13975   0.620   1.767   8.926 -0.0953  0.2262 -0.0035
 2723Sol     HW13976   0.550   1.703   8.938  0.3050 -0.7942 -2.7333
 2723Sol     HW13977   0.575   1.851   8.914 -0.8304 -0.3119 -1.0351
 2723Sol     MW13978   0.610   1.769   8.926  0.1244  0.1448 -0.2219
 2724Sol     OW13979   2.897   0.804   8.280 -0.1543 -0.7361 -0.0235
 2724Sol     HW13980   2.920   0.717   8.246 -0.3614 -1.0185  0.5433
 2724Sol     HW13981   2.821   0.830   8.229 -0.1273 -0.9160 -0.1551
 2724Sol     MW13982   2.892   0.798   8.272  0.2159 -0.1646  0.5502
 2725Sol     OW13983   2.720   0.221   5.500  0.3773  0.6917 -0.3099
 2725Sol     HW13984   2.764   0.287   5.445  0.6978  2.1653  1.6840
 2725Sol     HW13985   2.792   0.175   5.543  0.0627  1.4038  0.9988
 2725Sol     MW13986   2.731   0.223   5.499 -0.3070  0.2442  0.0862
 2726Sol     OW13987   2.831   3.057   4.798 -0.0507  0.4080 -0.0035
 2726Sol     HW13988   2.804   2.972   4.833 -2.0840  1.1586  0.3022
 2726Sol     HW13989   2.804   3.054   4.706 -3.2467  1.9597  0.8042
 2726Sol     MW13990   2.826   3.049   4.793 -0.1684  0.0493  0.6081
 2727Sol     OW13991   2.847   0.921   3.860 -0.1189  0.4415  0.4689
 2727Sol     HW13992   2.819   0.859   3.927 -1.6198  0.0663 -0.4893
 2727Sol     HW13993   2.774   0.983   3.852  0.3440  0.8951 -0.3291
 2727Sol     MW13994   2.838   0.921   3.866 -0.0479  0.4003  0.2059
 2728Sol     OW13995   1.754   3.207   8.881  0.5743  0.5508 -0.4752
 2728Sol     HW13996   1.664   3.176   8.875  0.0236  1.7760  1.2724
 2728Sol     HW13997   1.806   3.126   8.888 -0.4308 -0.1356 -0.7739
 2728Sol     MW13998   1.751   3.197   8.881 -0.3258 -0.2645  0.1645
 2729Sol     OW13999   1.271   1.461   2.105 -0.7641  0.7928 -0.3791
 2729Sol     HW14000   1.264   1.373   2.067 -1.0515  1.5840 -2.2214
 2729Sol     HW14001   1.191   1.471   2.156 -1.0683  0.2528 -0.7393
 2729Sol     MW14002   1.264   1.454   2.106 -0.3721 -0.0671 -0.2436
 2730Sol     OW14003   1.355   2.967   7.240  0.2838 -0.0032 -0.7361
 2730Sol     HW14004   1.363   3.001   7.151  0.2625 -0.8209 -1.0540
 2730Sol     HW14005   1.410   3.025   7.292 -0.5164  1.0931 -1.1107
 2730Sol     MW14006   1.361   2.975   7.237  0.2612  0.2053 -0.2962
 2731Sol     OW14007   1.497   1.330   7.612  0.5752 -0.6325  0.2839
 2731Sol     HW14008   1.449   1.370   7.684  0.8551 -1.9233  1.2085
 2731Sol     HW14009   1.556   1.267   7.654 -0.2860 -2.4387 -1.1516
 2731Sol     MW14010   1.498   1.328   7.622  0.1167 -0.0037  0.4369
 2732Sol     OW14011   1.046   0.888   5.639  0.1470 -0.1456 -0.7514
 2732Sol     HW14012   1.052   0.928   5.726  1.3718 -1.5502 -0.1785
 2732Sol     HW14013   1.047   0.963   5.579  1.3534  0.7445  0.3438
 2732Sol     MW14014   1.046   0.899   5.642 -0.0546 -0.1216  0.2261
 2733Sol     OW14015   0.992   2.871   6.802 -0.2652  0.0392 -1.1600
 2733Sol     HW14016   0.978   2.953   6.849 -0.3772 -0.2060 -0.7601
 2733Sol     HW14017   1.086   2.869   6.784 -0.5336  1.0918 -2.7406
 2733Sol     MW14018   0.999   2.878   6.805  0.1668  0.0672 -0.2169
 2734Sol     OW14019   0.094   2.911   9.500 -0.3746  0.3151  0.1104
 2734Sol     HW14020   0.007   2.922   9.540 -0.2212  0.6491  0.3542
 2734Sol     HW14021   0.094   2.970   9.425 -0.1072  0.8531  0.5243
 2734Sol     MW14022   0.086   2.917   9.497 -0.1203 -0.3858 -0.4438
 2735Sol     OW14023   0.386   1.990   9.344 -0.0130 -0.4790 -0.5487
 2735Sol     HW14024   0.405   1.929   9.415  0.3885 -1.2303 -1.3044
 2735Sol     HW14025   0.320   2.050   9.381  0.6348 -0.4981  0.6469
 2735Sol     MW14026   0.381   1.990   9.354  0.6216  0.5356 -0.1687
 2736Sol     OW14027   0.196   2.393   6.703 -0.0142 -0.4412 -0.8151
 2736Sol     HW14028   0.109   2.368   6.669 -0.9390  1.0286  0.3918
 2736Sol     HW14029   0.226   2.460   6.642 -0.1976 -0.1916 -0.6322
 2736Sol     MW14030   0.191   2.396   6.694 -0.3270 -0.3029 -0.0832
 2737Sol     OW14031   2.412   0.989   9.175 -0.1170  0.2208 -0.3413
 2737Sol     HW14032   2.360   1.037   9.111  0.5583  1.0218 -0.3004
 2737Sol     HW14033   2.392   1.029   9.259 -0.0851 -0.0305 -0.2108
 2737Sol     MW14034   2.406   0.997   9.177  0.6702 -0.3440 -0.1240
 2738Sol     OW14035   1.987   0.457   1.566 -0.1818 -0.4337  0.4479
 2738Sol     HW14036   1.947   0.433   1.650 -0.5681  1.4163  0.8030
 2738Sol     HW14037   2.032   0.539   1.583 -0.9990  0.4276 -1.3628
 2738Sol     MW14038   1.987   0.462   1.575 -0.5687 -0.4389 -0.0291
 2739Sol     OW14039   1.492   1.091   8.248  0.5652 -0.1281  0.0788
 2739Sol     HW14040   1.419   1.049   8.203  0.8211 -0.1133 -0.3592
 2739Sol     HW14041   1.527   1.024   8.306  0.9713 -0.5268 -0.6147
 2739Sol     MW14042   1.488   1.081   8.249  0.1679  0.1123 -0.3338
 2740Sol     OW14043   1.501   1.615  10.013  0.0307 -0.2340 -0.9144
 2740Sol     HW14044   1.561   1.604   9.939  1.7483  2.3321  0.0237
 2740Sol     HW14045   1.550   1.583  10.089 -0.7863 -0.5461 -0.5150
 2740Sol     MW14046   1.511   1.611  10.013 -0.1876 -0.7869 -0.0162
 2741Sol     OW14047   0.251   0.277   8.732 -0.4635  0.3097 -0.2983
 2741Sol     HW14048   0.284   0.199   8.687  0.9619  1.3368 -1.0890
 2741Sol     HW14049   0.253   0.346   8.665  0.0885  1.4745  0.8843
 2741Sol     MW14050   0.254   0.277   8.722 -0.2545  0.3568  0.5975
 2742Sol     OW14051   0.754   2.464   2.829  0.0841  0.2894 -0.4956
 2742Sol     HW14052   0.838   2.479   2.872 -0.2774 -0.5955  0.5293
 2742Sol     HW14053   0.762   2.378   2.788 -1.2467 -1.0307  1.9081
 2742Sol     MW14054   0.762   2.458   2.829 -0.5208  0.2407 -0.0802
 2743Sol     OW14055   0.578   0.597   1.946  0.3963 -0.8057  1.1732
 2743Sol     HW14056   0.531   0.634   2.021  0.5379  2.1395 -0.1021
 2743Sol     HW14057   0.669   0.623   1.959  0.3224  0.2679 -0.2839
 2743Sol     MW14058   0.582   0.603   1.954 -0.2003  0.2923  1.0152
 2744Sol     OW14059   0.435   2.059   3.194  0.2181 -0.3815  0.1123
 2744Sol     HW14060   0.455   2.078   3.102  0.0646 -0.9085 -0.0318
 2744Sol     HW14061   0.340   2.051   3.197  0.1439  0.5051  0.4909
 2744Sol     MW14062   0.428   2.060   3.186 -0.2854 -0.0549 -0.1047
 2745Sol     OW14063   2.733   1.996   3.047  0.3080 -0.0939 -0.2943
 2745Sol     HW14064   2.696   2.016   3.133  3.1072  1.3804  0.6031
 2745Sol     HW14065   2.804   1.934   3.065  1.1999  0.5565 -1.4752
 2745Sol     MW14066   2.736   1.992   3.056  0.1396  0.2356 -0.0907
 2746Sol     OW14067   1.336   0.583   2.445 -0.0037 -0.0005  0.7986
 2746Sol     HW14068   1.308   0.649   2.508 -3.0881  0.6823 -1.1598
 2746Sol     HW14069   1.268   0.516   2.449  0.5952 -0.7117 -0.6312
 2746Sol     MW14070   1.327   0.583   2.451  0.4592 -0.2535 -0.6874
 2747Sol     OW14071   1.654   1.567   7.216 -0.2631 -0.0376  0.5782
 2747Sol     HW14072   1.572   1.610   7.242 -0.9387 -1.6542  1.1455
 2747Sol     HW14073   1.636   1.531   7.130  0.3155  0.8161  0.0926
 2747Sol     MW14074   1.645   1.568   7.211  0.3596 -0.0923  0.2959
 2748Sol     OW14075   3.016   2.861   4.484  0.3631 -0.4096  0.0942
 2748Sol     HW14076   3.005   2.845   4.391  2.0037 -2.3341  0.1825
 2748Sol     HW14077   3.076   2.936   4.489  0.4241 -0.4292 -0.3940
 2748Sol     MW14078   3.021   2.866   4.476  0.2886  0.2328  0.8732
 2749Sol     OW14079   0.063   1.902   4.606  0.1136  0.5696  0.3129
 2749Sol     HW14080   0.026   1.928   4.690 -0.3045  0.0229  0.2997
 2749Sol     HW14081   0.042   1.809   4.598 -0.6884  0.8434 -0.8336
 2749Sol     MW14082   0.058   1.896   4.613 -0.3205  0.3359 -0.4544
 2750Sol     OW14083   2.207   2.445   2.157  0.0097  0.1840  0.7870
 2750Sol     HW14084   2.146   2.453   2.231  0.8259  1.2420  1.3618
 2750Sol     HW14085   2.294   2.453   2.197  0.4652  0.7180 -0.2900
 2750Sol     MW14086   2.210   2.446   2.168  0.3466  0.2364 -0.1323
 2751Sol     OW14087   1.288   0.698   2.131  0.0862  0.2395  0.4224
 2751Sol     HW14088   1.255   0.616   2.095 -1.3682  1.0013 -0.0321
 2751Sol     HW14089   1.380   0.681   2.150  0.4994 -0.6495 -2.2165
 2751Sol     MW14090   1.294   0.690   2.130 -0.1597  0.3819  0.0396
 2752Sol     OW14091   2.109   1.001   5.695  0.6625  0.0317  0.0520
 2752Sol     HW14092   2.162   0.985   5.617 -0.7049 -1.1748 -0.6420
 2752Sol     HW14093   2.172   1.035   5.759  2.0923 -0.4293 -1.0653
 2752Sol     MW14094   2.120   1.003   5.694  0.3380  0.0650  0.1160
 2753Sol     OW14095   1.114   3.368   8.064 -0.1219  0.2393 -0.3973
 2753Sol     HW14096   1.141   3.340   7.976 -1.0897 -1.1453 -0.2768
 2753Sol     HW14097   1.021   3.389   8.056  0.1907  1.7652 -0.0785
 2753Sol     MW14098   1.108   3.367   8.056  0.5930 -0.2292 -0.2300
 2754Sol     OW14099   0.493   1.985   3.596 -0.2516  0.2582  0.2375
 2754Sol     HW14100   0.404   2.017   3.580  0.1485  1.1610 -0.2583
 2754Sol     HW14101   0.516   1.936   3.517 -1.6029 -3.0298  1.8092
 2754Sol     MW14102   0.487   1.984   3.587  0.0931 -0.3929  0.2147
 2755Sol     OW14103   2.499   0.648   4.209  0.4631 -0.0791  0.0679
 2755Sol     HW14104   2.536   0.585   4.271  2.2203 -0.8457 -1.7138
 2755Sol     HW14105   2.431   0.598   4.162 -0.0880  0.1850  0.5676
 2755Sol     MW14106   2.496   0.638   4.211  1.0247 -0.6911 -0.1116
 2756Sol     OW14107   1.792   2.169   9.635  0.5240 -0.8878 -0.1316
 2756Sol     HW14108   1.778   2.251   9.587  0.5597 -1.0902 -0.4823
 2756Sol     HW14109   1.851   2.118   9.580  1.6360 -0.5712  0.7501
 2756Sol     MW14110   1.796   2.172   9.626 -0.4027 -0.0633 -0.0433
 2757Sol     OW14111   2.428   3.330   9.064 -0.3089 -0.2709  0.4873
 2757Sol     HW14112   2.366   3.355   9.133 -0.8407  1.9392 -0.7208
 2757Sol     HW14113   2.500   3.392   9.073 -0.4926  0.1930 -1.0553
 2757Sol     MW14114   2.429   3.338   9.071  0.5459 -0.1194 -0.2599
 2758Sol     OW14115   2.364   0.294   2.182 -0.3325  0.2735  0.7869
 2758Sol     HW14116   2.352   0.323   2.272 -2.1742 -0.4677  0.8032
 2758Sol     HW14117   2.423   0.219   2.188  1.0063  1.3372  1.1688
 2758Sol     MW14118   2.369   0.290   2.190  0.6039  0.5567  0.4974
 2759Sol     OW14119   1.683   2.799   3.651  0.1228 -0.2655  0.1262
 2759Sol     HW14120   1.771   2.805   3.688  0.5261 -0.3884 -0.8065
 2759Sol     HW14121   1.697   2.789   3.557 -0.9044  2.7256 -0.4212
 2759Sol     MW14122   1.692   2.799   3.646  0.1424 -0.2053  0.1759
 2760Sol     OW14123   1.550   0.103   6.700  0.0544  0.0401  0.0200
 2760Sol     HW14124   1.505   0.156   6.634 -0.9653 -0.0743  0.5999
 2760Sol     HW14125   1.574   0.023   6.655  0.2494  0.3766 -0.4724
 2760Sol     MW14126   1.548   0.101   6.690 -0.2796  0.4657  0.0653
 2761Sol     OW14127   0.644   2.545   6.053 -0.1815 -0.2904 -0.6974
 2761Sol     HW14128   0.683   2.534   6.140 -1.2136  1.4808  0.0246
 2761Sol     HW14129   0.571   2.484   6.051 -1.2191  0.8659  0.3725
 2761Sol     MW14130   0.641   2.539   6.061 -0.2699  0.3283  0.3277
 2762Sol     OW14131   0.286   0.661   4.094 -0.5008 -0.3460 -0.1379
 2762Sol     HW14132   0.222   0.631   4.158 -0.6957  1.0050  0.3360
 2762Sol     HW14133   0.371   0.649   4.137 -0.4565 -1.8571 -0.6482
 2762Sol     MW14134   0.288   0.657   4.104 -0.0858  0.2575  0.0499
 2763Sol     OW14135   1.543   3.145   5.479 -0.0145 -0.1231 -0.8297
 2763Sol     HW14136   1.504   3.186   5.556  0.8782  0.2136 -0.5392
 2763Sol     HW14137   1.492   3.178   5.405 -0.0753  0.5593 -0.4876
 2763Sol     MW14138   1.535   3.152   5.479  0.1325  0.2568 -0.0012
 2764Sol     OW14139   0.097   0.322   6.252 -0.2717  0.5164  0.1945
 2764Sol     HW14140   0.151   0.399   6.271  0.7235  0.0424 -0.6562
 2764Sol     HW14141   0.083   0.282   6.337 -0.3313  1.3319  0.5808
 2764Sol     MW14142   0.101   0.326   6.261 -0.4679 -0.3718  0.0907
 2765Sol     OW14143   2.261   2.191   7.933 -0.2886 -0.2358 -0.5603
 2765Sol     HW14144   2.209   2.251   7.987  0.6377  1.4871 -1.5336
 2765Sol     HW14145   2.217   2.107   7.942 -1.6660  0.5959  0.7948
 2765Sol     MW14146   2.252   2.189   7.939  0.5117 -0.7145 -0.3854
 2766Sol     OW14147   0.516   2.488   5.248  0.4720 -0.1286 -0.4164
 2766Sol     HW14148   0.569   2.548   5.195 -2.5879  0.4229 -3.0245
 2766Sol     HW14149   0.464   2.440   5.184 -2.2433 -0.5389  2.0098
 2766Sol     MW14150   0.516   2.489   5.237 -0.5026 -0.1117  0.4484
 2767Sol     OW14151   0.631   2.794   7.169  0.1626 -0.3630 -0.4310
 2767Sol     HW14152   0.560   2.769   7.111 -1.0434 -1.0080  1.2634
 2767Sol     HW14153   0.683   2.714   7.180  0.2265 -0.3172 -0.3942
 2767Sol     MW14154   0.630   2.784   7.165 -0.0562  0.0724 -0.0100
 2768Sol     OW14155   2.118   1.809   2.530 -0.4343  0.0158 -0.2253
 2768Sol     HW14156   2.150   1.810   2.440  3.5514 -0.7738  1.0753
 2768Sol     HW14157   2.079   1.722   2.541 -2.9332  0.8815 -1.7489
 2768Sol     MW14158   2.117   1.801   2.523 -0.4552  0.7273 -0.3345
 2769Sol     OW14159   2.291   1.586   5.083  0.5825 -0.2550  0.5466
 2769Sol     HW14160   2.246   1.504   5.066  1.4251 -0.4775 -0.7495
 2769Sol     HW14161   2.267   1.643   5.009  2.0586 -0.2533  0.0274
 2769Sol     MW14162   2.285   1.584   5.075 -0.3104  0.1791  0.3064
 2770Sol     OW14163   0.242   2.833   9.160  0.0536 -0.3031 -0.2502
 2770Sol     HW14164   0.295   2.819   9.239  1.9430  1.1593 -1.2018
 2770Sol     HW14165   0.188   2.909   9.179  0.3020 -0.1278 -0.2342
 2770Sol     MW14166   0.242   2.838   9.168  0.9276 -0.3756  0.3679
 2771Sol     OW14167   0.121   3.283   5.283 -0.4972  0.6089 -0.2247
 2771Sol     HW14168   0.084   3.215   5.227 -0.3344 -0.5235  1.0128
 2771Sol     HW14169   0.181   3.331   5.226 -2.5206  1.3523 -1.7734
 2771Sol     MW14170   0.123   3.282   5.273 -0.0662  0.5277  0.6133
 2772Sol     OW14171   2.055   2.506   5.121  0.1245  0.3096 -0.3883
 2772Sol     HW14172   2.000   2.579   5.149  1.2153  0.2551  1.9313
 2772Sol     HW14173   2.142   2.544   5.108  0.9703 -0.7649  1.9233
 2772Sol     MW14174   2.058   2.516   5.122 -0.2617 -0.8917  0.5447
 2773Sol     OW14175   2.985   0.277   6.741  0.4599  0.0392  0.3292
 2773Sol     HW14176   3.018   0.307   6.656 -0.6778 -0.8936 -0.4592
 2773Sol     HW14177   2.948   0.355   6.782 -1.0493  0.0429 -1.0154
 2773Sol     MW14178   2.985   0.286   6.737 -0.2888  0.2314 -0.0319
 2774Sol     OW14179   1.030   1.415   4.994  0.7133 -0.0639 -0.0947
 2774Sol     HW14180   1.047   1.433   4.901  0.0831  0.7552 -0.0563
 2774Sol     HW14181   1.084   1.338   5.013  1.8095  0.4973 -0.8277
 2774Sol     MW14182   1.037   1.410   4.987  0.1515  0.2293  0.0800
 2775Sol     OW14183   1.909   1.825   4.244  0.7737 -0.0984  0.3552
 2775Sol     HW14184   1.949   1.901   4.286  2.0911 -0.7674  0.3531
 2775Sol     HW14185   1.931   1.834   4.151  3.2209 -1.8275  0.7283
 2775Sol     MW14186   1.915   1.832   4.239 -0.6079 -0.0755 -0.3456
 2776Sol     OW14187   2.926   3.144   2.269  0.1680  0.2390  0.0926
 2776Sol     HW14188   2.901   3.070   2.325  1.4642 -0.4999 -0.2656
 2776Sol     HW14189   2.914   3.221   2.323 -0.4309 -0.3097  0.7503
 2776Sol     MW14190   2.923   3.144   2.278 -0.3214 -0.2612 -0.6897
 2777Sol     OW14191   0.717   1.529   7.324 -0.4998 -0.5286 -0.0074
 2777Sol     HW14192   0.772   1.455   7.350 -0.3018 -0.2784  0.2969
 2777Sol     HW14193   0.631   1.510   7.362 -0.5487 -0.7819 -0.2439
 2777Sol     MW14194   0.714   1.521   7.330  0.3343  0.0036  0.0224
 2778Sol     OW14195   0.166   0.546   7.117  0.0079 -0.3484  0.1168
 2778Sol     HW14196   0.154   0.452   7.107  0.9776 -0.3767 -0.9969
 2778Sol     HW14197   0.199   0.575   7.031  0.6659  0.8348  0.7512
 2778Sol     MW14198   0.168   0.541   7.108 -0.4695 -0.0478  0.0341
 2779Sol     OW14199   2.896   2.246   6.232 -0.2269 -0.3444  0.1787
 2779Sol     HW14200   2.811   2.225   6.194  0.4808 -1.8927 -0.5783
 2779Sol     HW14201   2.927   2.322   6.183 -1.5217  0.7412  1.0050
 2779Sol     MW14202   2.891   2.251   6.224  0.2729  0.2322 -0.4595
 2780Sol     OW14203   0.951   3.077   8.304 -0.5341  0.5563 -0.2481
 2780Sol     HW14204   0.899   3.152   8.276 -1.0445  0.2717 -0.0704
 2780Sol     HW14205   1.042   3.104   8.292 -0.7349  0.8031 -1.2072
 2780Sol     MW14206   0.955   3.086   8.301  0.2023 -0.2731 -0.1090
 2781Sol     OW14207   2.594   0.076   5.311 -0.0812 -0.3495 -0.4531
 2781Sol     HW14208   2.629   0.121   5.388 -1.7003  0.0207  0.0791
 2781Sol     HW14209   2.667   0.022   5.280  0.5887 -0.5057  1.3305
 2781Sol     MW14210   2.604   0.075   5.315 -0.2205 -0.4325 -0.3572
 2782Sol     OW14211   2.956   1.433   8.030  0.3074 -0.1728  0.0005
 2782Sol     HW14212   2.979   1.352   7.984 -0.3619  0.9257 -2.3410
 2782Sol     HW14213   2.908   1.485   7.965 -1.9334  0.8545  2.3777
 2782Sol     MW14214   2.954   1.430   8.020 -0.4281 -0.0976  0.3536
 2783Sol     OW14215   0.243   2.824   5.353 -0.1606  0.2081  0.0985
 2783Sol     HW14216   0.248   2.862   5.265  0.2669  0.0244  0.0405
 2783Sol     HW14217   0.170   2.869   5.395  1.3738  2.2645  0.5900
 2783Sol     MW14218   0.237   2.831   5.349 -0.1420  0.0657 -0.0421
 2784Sol     OW14219   1.566   3.186   2.671  0.5203 -0.1743  0.4360
 2784Sol     HW14220   1.620   3.117   2.709  1.7423  0.6784  0.2608
 2784Sol     HW14221   1.577   3.176   2.577  0.9549  0.4610  0.4177
 2784Sol     MW14222   1.572   3.179   2.666 -0.5636  0.2785 -0.7460
 2785Sol     OW14223   2.069   2.350   8.750 -0.2800 -0.2707  0.7403
 2785Sol     HW14224   1.987   2.337   8.703 -0.5388  0.0510  1.0995
 2785Sol     HW14225   2.124   2.399   8.689 -0.2450 -0.7527  0.3843
 2785Sol     MW14226   2.067   2.354   8.740  0.0166  0.5642  0.0697
 2786Sol     OW14227   0.408   3.439   9.475 -0.2830  0.0662 -0.0594
 2786Sol     HW14228   0.486   3.386   9.496  0.4539  1.6148  1.2004
 2786Sol     HW14229   0.338   3.399   9.526 -0.3374 -1.3153 -1.1722
 2786Sol     MW14230   0.409   3.430   9.481  0.2545 -0.1725  0.3863
 2787Sol     OW14231   0.297   3.359   4.651 -0.5405  0.1214 -0.0067
 2787Sol     HW14232   0.378   3.341   4.603  0.1471  1.8998  0.4540
 2787Sol     HW14233   0.248   3.419   4.595 -0.4311  0.9760  0.7958
 2787Sol     MW14234   0.300   3.362   4.642  0.2233  0.3685  0.4373
 2788Sol     OW14235   3.123   1.648   9.933 -0.3208 -0.2648 -0.8070
 2788Sol     HW14236   3.177   1.726   9.923 -2.8529  1.5821 -0.5737
 2788Sol     HW14237   3.167   1.597  10.001  1.5215  0.8123 -1.1615
 2788Sol     MW14238   3.131   1.650   9.938 -0.2986  0.1037  0.5729
 2789Sol     OW14239   2.137   0.052   2.385 -0.0126 -0.1972  0.5357
 2789Sol     HW14240   2.121   0.146   2.381 -0.6838 -0.0775  4.2514
 2789Sol     HW14241   2.057   0.015   2.423  1.0169 -1.9731  1.0765
 2789Sol     MW14242   2.129   0.057   2.388 -0.3895  0.1385  0.1562
 2790Sol     OW14243   3.259   1.420   1.776  0.8753  0.0365 -0.0984
 2790Sol     HW14244   3.291   1.426   1.686 -0.9467 -1.9994 -0.9089
 2790Sol     HW14245   3.337   1.435   1.830  1.8778  1.9149 -1.9835
 2790Sol     MW14246   3.269   1.422   1.772 -0.3882 -0.5863 -0.5698
 2791Sol     OW14247   1.385   0.418   8.066  0.4362 -0.3359 -0.2122
 2791Sol     HW14248   1.476   0.440   8.086  0.5329 -1.0066  0.1145
 2791Sol     HW14249   1.346   0.500   8.035  0.8805  0.2010  0.6279
 2791Sol     MW14250   1.389   0.427   8.065  0.0825  0.7946  0.6536
 2792Sol     OW14251   2.544   1.917   1.630 -0.2229  0.4837  0.3105
 2792Sol     HW14252   2.603   1.984   1.595 -1.4238  0.7392 -1.2898
 2792Sol     HW14253   2.516   1.951   1.714 -0.0487  1.5418 -0.0487
 2792Sol     MW14254   2.547   1.926   1.634  0.3898  0.1811  0.4947
 2793Sol     OW14255   0.683   2.043   4.667  0.0838 -0.2740 -0.1310
 2793Sol     HW14256   0.725   2.005   4.744 -2.6992 -0.4317  1.3449
 2793Sol     HW14257   0.656   2.130   4.695  0.4716  0.2843 -1.4475
 2793Sol     MW14258   0.685   2.047   4.676 -0.6636 -0.6998 -0.2713
 2794Sol     OW14259   2.495   2.886   5.991  0.3301 -0.4814 -0.2942
 2794Sol     HW14260   2.427   2.924   6.047 -1.8694 -2.6023 -1.4274
 2794Sol     HW14261   2.534   2.816   6.044  0.3119 -0.5261 -0.3396
 2794Sol     MW14262   2.493   2.883   6.001 -0.1427 -0.5467 -0.1624
 2795Sol     OW14263   0.080   0.070   2.648 -0.1951  0.2819 -0.4655
 2795Sol     HW14264   0.078  -0.012   2.697  1.5868  0.1253 -0.6124
 2795Sol     HW14265   0.134   0.128   2.701  0.9284  0.4257 -1.7478
 2795Sol     MW14266   0.085   0.068   2.657 -0.3199  0.0207  0.2298
 2796Sol     OW14267   1.726   1.711   5.525  0.3109  0.0204 -0.0019
 2796Sol     HW14268   1.713   1.794   5.573  1.0181 -0.6186  1.3201
 2796Sol     HW14269   1.817   1.715   5.496 -0.4038  0.8460 -2.1715
 2796Sol     MW14270   1.733   1.719   5.527  1.0444 -0.3429  0.4793
 2797Sol     OW14271   1.163   2.961   5.475  0.2455 -0.2373  0.7903
 2797Sol     HW14272   1.097   2.896   5.500 -0.4848  1.4499  3.4691
 2797Sol     HW14273   1.245   2.926   5.511  0.2209 -0.7025  0.3959
 2797Sol     MW14274   1.165   2.952   5.481  0.1975  0.2827 -1.2195
 2798Sol     OW14275   2.898   2.197   3.340  0.2272  0.2171  0.5355
 2798Sol     HW14276   2.879   2.287   3.313 -0.1501  0.3650  1.2806
 2798Sol     HW14277   2.981   2.177   3.298 -1.3141 -0.2816 -2.3973
 2798Sol     MW14278   2.904   2.203   3.334 -0.3582 -0.4638 -0.2403
 2799Sol     OW14279   2.848   2.983   2.852  0.4088  0.2310  0.0537
 2799Sol     HW14280   2.884   2.972   2.764  0.7612 -0.3948  0.2752
 2799Sol     HW14281   2.920   2.961   2.911  0.1321  0.5054  0.5007
 2799Sol     MW14282   2.857   2.980   2.850 -0.1439 -0.6928  0.2842
 2800Sol     OW14283   2.502   2.555   3.401 -0.0834  0.1752 -0.1858
 2800Sol     HW14284   2.424   2.581   3.450  0.0379  0.8284 -0.3341
 2800Sol     HW14285   2.475   2.478   3.351 -0.7452  0.6225 -0.5237
 2800Sol     MW14286   2.493   2.551   3.400 -0.8009  0.3452  0.2349
 2801Sol     OW14287   2.811   2.946   2.412  0.1102 -0.0616  0.5481
 2801Sol     HW14288   2.819   2.924   2.505 -0.5298 -1.8136  0.1986
 2801Sol     HW14289   2.717   2.956   2.397  0.2868  1.4356  0.3443
 2801Sol     MW14290   2.804   2.945   2.419  0.2473 -0.1761 -0.8940
 2802Sol     OW14291   1.550   0.302   3.875  0.3908 -0.2381 -0.0507
 2802Sol     HW14292   1.484   0.280   3.941  0.7558 -0.3622  0.2747
 2802Sol     HW14293   1.511   0.376   3.827  0.5646  0.5541  0.9967
 2802Sol     MW14294   1.540   0.307   3.877  0.0394  0.4641  0.1057
 2803Sol     OW14295   2.421   1.626   2.297 -0.3135 -0.3425 -0.3139
 2803Sol     HW14296   2.344   1.680   2.280 -0.6106 -0.6846 -0.0763
 2803Sol     HW14297   2.491   1.688   2.316 -1.0573 -0.0689  1.6479
 2803Sol     MW14298   2.421   1.636   2.297 -0.6629  0.5396  0.0144
 2804Sol     OW14299   2.246   0.815   6.303 -0.4535  0.2035 -0.6029
 2804Sol     HW14300   2.250   0.879   6.375  3.1790  0.5150 -0.9520
 2804Sol     HW14301   2.191   0.857   6.237 -0.4717  1.7379  0.3552
 2804Sol     MW14302   2.242   0.825   6.303  0.0370 -1.0114 -0.1644
 2805Sol     OW14303   1.630   1.215   7.158 -0.3570  0.3005  0.1982
 2805Sol     HW14304   1.671   1.274   7.221 -0.0406  0.9680 -0.6386
 2805Sol     HW14305   1.702   1.180   7.106 -0.5650 -0.6404  0.5245
 2805Sol     MW14306   1.640   1.217   7.159 -0.6103 -0.3061  0.3036
 2806Sol     OW14307   1.627   0.802   9.503  0.2076 -0.0225 -0.3692
 2806Sol     HW14308   1.681   0.851   9.440  0.1442 -1.3498 -1.4853
 2806Sol     HW14309   1.653   0.711   9.490 -2.0935 -0.6465 -0.6897
 2806Sol     MW14310   1.635   0.798   9.496 -0.1433 -0.2696  0.2550
 2807Sol     OW14311   0.790   0.534   8.318 -0.0309 -0.2768  0.0589
 2807Sol     HW14312   0.843   0.508   8.393  1.8578 -0.1148 -1.1868
 2807Sol     HW14313   0.794   0.629   8.317  0.6973 -0.3054 -0.7468
 2807Sol     MW14314   0.795   0.540   8.325 -0.2189  0.0906  0.3965
 2808Sol     OW14315   1.579   0.422   6.261  0.2270 -0.6847  0.0130
 2808Sol     HW14316   1.528   0.370   6.323 -1.0656  0.4988 -0.0210
 2808Sol     HW14317   1.553   0.389   6.175 -0.3046 -0.2706  0.0065
 2808Sol     MW14318   1.572   0.415   6.259  0.0020  0.2019  0.4915
 2809Sol     OW14319   1.409   0.536   3.765 -0.6744  0.8708 -0.4131
 2809Sol     HW14320   1.418   0.546   3.671 -0.7506  1.8303 -0.3216
 2809Sol     HW14321   1.318   0.508   3.777 -0.2528 -0.6871 -0.7204
 2809Sol     MW14322   1.402   0.535   3.758  0.1929  0.0884  0.3485
 2810Sol     OW14323   3.327   1.773   6.843 -0.0098 -1.2354  0.3981
 2810Sol     HW14324   3.345   1.824   6.922 -1.4958 -0.9461  0.5490
 2810Sol     HW14325   3.337   1.682   6.871  2.4281 -1.0948  0.1782
 2810Sol     MW14326   3.330   1.769   6.853  0.2148  0.3668 -0.2380
 2811Sol     OW14327   0.936   1.837   6.796 -0.4578  0.6140 -0.1855
 2811Sol     HW14328   1.001   1.841   6.726  0.7499 -1.2864  0.7536
 2811Sol     HW14329   0.852   1.851   6.753  0.4357  1.5203 -1.6730
 2811Sol     MW14330   0.934   1.838   6.786 -0.0995  0.3385 -0.1969
 2812Sol     OW14331   0.306   0.570   8.629 -0.2338 -0.0443 -0.3294
 2812Sol     HW14332   0.261   0.576   8.545 -0.7671  0.0037 -0.0437
 2812Sol     HW14333   0.396   0.595   8.610 -0.7391  1.6574 -0.5680
 2812Sol     MW14334   0.310   0.573   8.620 -0.3671  0.0293  0.4171
 2813Sol     OW14335   1.084   2.352   5.741  0.2372 -0.2741  0.2644
 2813Sol     HW14336   1.074   2.313   5.654  0.4887 -0.7235  0.4377
 2813Sol     HW14337   0.995   2.378   5.765 -0.1484 -1.8997  0.6854
 2813Sol     MW14338   1.075   2.351   5.735 -0.1379  0.3521 -0.7558
 2814Sol     OW14339   1.595   2.120   4.764 -0.8068 -0.4588 -0.5381
 2814Sol     HW14340   1.637   2.065   4.698  0.5611 -0.3245  0.2049
 2814Sol     HW14341   1.607   2.209   4.733 -3.6586 -0.5432 -2.1164
 2814Sol     MW14342   1.599   2.123   4.755  0.0800  0.3639  0.1730
 2815Sol     OW14343   2.817   3.442   9.298 -0.9840  0.3468 -0.0701
 2815Sol     HW14344   2.784   3.458   9.209  0.4592 -0.0887 -0.7064
 2815Sol     HW14345   2.873   3.364   9.289 -0.4579  0.5767  1.1237
 2815Sol     MW14346   2.819   3.436   9.289 -0.8035  0.5959  0.0202
 2816Sol     OW14347   1.677   0.420   8.152  0.3126  0.2766 -0.4337
 2816Sol     HW14348   1.742   0.411   8.222  2.3610 -1.2480 -2.4623
 2816Sol     HW14349   1.693   0.507   8.115 -2.4592  2.1588  2.5462
 2816Sol     MW14350   1.685   0.427   8.155  0.4605 -0.2137 -0.8557
 2817Sol     OW14351   0.501   2.115   7.400 -0.5060  0.1330  0.2833
 2817Sol     HW14352   0.442   2.144   7.331  0.6790  1.8112 -0.0619
 2817Sol     HW14353   0.552   2.045   7.360  0.0774  1.0031 -0.5199
 2817Sol     MW14354   0.500   2.112   7.390 -0.4221  0.8605 -0.1847
 2818Sol     OW14355   1.635   2.444   5.671  0.3686 -0.5851  0.2996
 2818Sol     HW14356   1.719   2.423   5.630 -0.0528 -0.5524 -0.5838
 2818Sol     HW14357   1.659   2.487   5.753  1.2230 -2.0103  0.8070
 2818Sol     MW14358   1.645   2.446   5.675 -0.3056  0.3106 -0.1960
 2819Sol     OW14359   2.782   3.312   8.500  0.3163  0.6598  0.0987
 2819Sol     HW14360   2.857   3.264   8.464 -0.0373 -0.5993  1.0122
 2819Sol     HW14361   2.708   3.253   8.489 -0.1955  1.1297  0.9280
 2819Sol     MW14362   2.782   3.302   8.496  0.5756 -0.3019  0.4736
 2820Sol     OW14363   1.884   0.900   4.064  0.3219  0.7112 -0.3237
 2820Sol     HW14364   1.923   0.970   4.117  0.8309 -0.6313  1.1046
 2820Sol     HW14365   1.837   0.845   4.126  0.6052 -0.6813 -1.3026
 2820Sol     MW14366   1.884   0.901   4.074 -0.6222 -0.3627  0.6981
 2821Sol     OW14367   1.984   2.479   7.328  0.1943  0.0811  0.0757
 2821Sol     HW14368   2.031   2.417   7.274  1.9421  1.6404 -0.2455
 2821Sol     HW14369   1.984   2.440   7.416  0.6481 -0.6983 -0.2729
 2821Sol     MW14370   1.988   2.470   7.331 -0.3796  0.1493  0.8502
 2822Sol     OW14371   1.001   2.873   1.811 -0.3680 -0.0639 -0.5781
 2822Sol     HW14372   0.967   2.796   1.765 -1.0564  0.9623 -1.8265
 2822Sol     HW14373   1.031   2.931   1.741  2.5987 -0.2888  0.4137
 2822Sol     MW14374   1.001   2.871   1.800  0.4031 -0.1629  0.4424
 2823Sol     OW14375   0.536   0.594   3.563 -0.2919 -0.1934  0.3586
 2823Sol     HW14376   0.458   0.538   3.565 -0.1321 -0.5059 -1.6365
 2823Sol     HW14377   0.564   0.594   3.472 -0.5122  3.4657  0.1879
 2823Sol     MW14378   0.532   0.589   3.555 -0.1530 -0.4356 -0.8431
 2824Sol     OW14379   1.966   2.512   2.289  0.6133 -0.2964  0.3406
 2824Sol     HW14380   1.880   2.492   2.252  0.7696 -0.3170 -0.0084
 2824Sol     HW14381   1.981   2.443   2.354 -0.0001  0.1764  0.9943
 2824Sol     MW14382   1.959   2.504   2.292 -0.3217 -0.7760 -0.2759
 2825Sol     OW14383   2.936   2.497   5.429 -0.3839  0.3606  0.1161
 2825Sol     HW14384   2.989   2.553   5.486  0.1642  1.4991 -1.4851
 2825Sol     HW14385   2.975   2.410   5.438  1.2874  1.0397 -0.4755
 2825Sol     MW14386   2.944   2.494   5.435  0.3864  0.1623 -0.0740
 2826Sol     OW14387   1.147   3.410   5.253 -0.0199  0.5936  0.4796
 2826Sol     HW14388   1.235   3.388   5.285 -0.7656 -0.4763  1.8308
 2826Sol     HW14389   1.153   3.395   5.158  1.0908 -0.0651  0.6328
 2826Sol     MW14390   1.156   3.407   5.247  0.2242 -0.4183 -0.2369
 2827Sol     OW14391   2.068   2.568   4.647  0.0186  0.0503  0.3539
 2827Sol     HW14392   1.981   2.565   4.608 -0.3736 -1.9068  1.3175
 2827Sol     HW14393   2.116   2.497   4.604  0.1771 -0.8649  1.9828
 2827Sol     MW14394   2.064   2.561   4.640  0.0110 -0.6512 -0.0640
 2828Sol     OW14395   1.105   2.328   7.682  0.1166 -0.0422 -1.0867
 2828Sol     HW14396   1.020   2.370   7.667 -0.1030 -0.4450 -0.9779
 2828Sol     HW14397   1.105   2.306   7.775  0.3115 -0.1146 -1.1042
 2828Sol     MW14398   1.098   2.330   7.689 -0.1979  0.1787  0.5040
 2829Sol     OW14399   2.736   0.878   8.064  0.2884  0.8851 -0.0014
 2829Sol     HW14400   2.737   0.857   7.970 -0.0081  0.5320  0.0713
 2829Sol     HW14401   2.692   0.803   8.104 -1.5104  2.0234  0.1892
 2829Sol     MW14402   2.732   0.869   8.059  0.0509  0.0619  0.3416
 2830Sol     OW14403   1.101   1.642   5.741 -0.3679  0.1857  0.0263
 2830Sol     HW14404   1.039   1.699   5.696 -0.2466  0.9560  0.8190
 2830Sol     HW14405   1.186   1.666   5.703 -0.0384  2.1011  1.9071
 2830Sol     MW14406   1.103   1.649   5.733  0.2981 -0.4807  0.2917
 2831Sol     OW14407   1.870   2.527   9.174 -0.3464 -0.7147  0.6617
 2831Sol     HW14408   1.907   2.452   9.221 -0.2305 -0.2551  1.3191
 2831Sol     HW14409   1.926   2.601   9.199  0.4129 -0.6717 -1.1147
 2831Sol     MW14410   1.878   2.527   9.181  0.4400 -0.0010 -0.1408
 2832Sol     OW14411   0.187   2.555   9.808  0.2027 -0.4079 -0.2932
 2832Sol     HW14412   0.262   2.528   9.756 -0.0285  2.1834 -2.0797
 2832Sol     HW14413   0.212   2.641   9.842 -1.7107  0.2475 -0.4986
 2832Sol     MW14414   0.196   2.560   9.806  0.4063 -0.3658  0.0522
 2833Sol     OW14415   1.277   3.051   3.941  0.1396 -0.2086 -0.2137
 2833Sol     HW14416   1.193   3.022   3.905 -0.2030  0.7871 -0.2284
 2833Sol     HW14417   1.304   2.979   3.998  0.4494 -1.6020 -2.0311
 2833Sol     MW14418   1.272   3.042   3.943 -1.1223 -0.2733  0.1073
 2834Sol     OW14419   0.999   1.031   9.274  0.2823  0.2148  0.6995
 2834Sol     HW14420   0.936   1.052   9.342 -0.8338  0.0324 -0.2598
 2834Sol     HW14421   0.974   0.943   9.244 -1.3620  1.6045 -2.2450
 2834Sol     MW14422   0.991   1.025   9.277 -0.2648 -0.0911  0.0421
 2835Sol     OW14423   1.851   2.276   4.169  0.4774 -0.3318 -0.0622
 2835Sol     HW14424   1.769   2.263   4.216 -0.3865 -0.1655 -1.4956
 2835Sol     HW14425   1.885   2.359   4.203  0.4070 -0.7352  1.0225
 2835Sol     MW14426   1.847   2.282   4.176 -0.1804 -0.3941 -0.1030
 2836Sol     OW14427   2.404   3.380   8.778  0.2479  0.1817 -0.1702
 2836Sol     HW14428   2.419   3.348   8.867  1.3146 -0.2175 -0.4827
 2836Sol     HW14429   2.373   3.303   8.730  2.9323 -0.4773 -0.9520
 2836Sol     MW14430   2.403   3.370   8.782 -0.2458 -0.2062 -0.9950
 2837Sol     OW14431   2.964   2.856   4.182  0.4345  0.0678 -0.0260
 2837Sol     HW14432   2.902   2.929   4.190 -0.9677 -1.1567  0.6384
 2837Sol     HW14433   3.036   2.891   4.131 -0.6914  1.6287 -0.5956
 2837Sol     MW14434   2.965   2.866   4.178  0.5980  0.6966  0.2560
 2838Sol     OW14435   3.160   2.945   5.330  0.5110 -0.9490 -0.5137
 2838Sol     HW14436   3.070   2.952   5.362  1.5057  1.8967  1.8961
 2838Sol     HW14437   3.171   2.852   5.309 -2.7371 -1.4688 -0.1756
 2838Sol     MW14438   3.153   2.937   5.331  0.4178  0.1646  0.0519
 2839Sol     OW14439   2.760   3.248   9.742 -0.1347 -0.4548  0.1868
 2839Sol     HW14440   2.846   3.220   9.711 -0.3043  0.2050 -0.8897
 2839Sol     HW14441   2.712   3.272   9.663 -1.3031 -0.7736  0.7776
 2839Sol     MW14442   2.763   3.247   9.732 -0.3784 -0.6814  0.2081
 2840Sol     OW14443   2.519   0.715   6.588 -0.5139 -0.0579 -0.0768
 2840Sol     HW14444   2.570   0.635   6.603 -3.2610 -1.9025 -0.1121
 2840Sol     HW14445   2.510   0.720   6.493  0.7566  1.0555 -0.1548
 2840Sol     MW14446   2.523   0.708   6.581 -0.3479 -0.3929  0.2310
 2841Sol     OW14447   2.663   1.778   2.512 -0.6035  0.2748  0.3776
 2841Sol     HW14448   2.636   1.722   2.585  1.9367 -0.1148  1.0698
 2841Sol     HW14449   2.700   1.718   2.448  1.8592  1.0716  0.9887
 2841Sol     MW14450   2.664   1.768   2.513  0.6061 -0.4248 -0.4520
 2842Sol     OW14451   1.168   3.040   9.633 -0.0205  0.4714  0.0851
 2842Sol     HW14452   1.216   2.978   9.578  0.7237 -1.3635  2.7348
 2842Sol     HW14453   1.235   3.079   9.690 -1.1069  0.5989  1.2975
 2842Sol     MW14454   1.178   3.038   9.633 -0.5239  0.4122 -0.4712
 2843Sol     OW14455   2.278   1.906   1.568 -0.0680  0.6241 -0.6166
 2843Sol     HW14456   2.284   1.866   1.481 -0.6947 -0.0284 -0.3585
 2843Sol     HW14457   2.366   1.940   1.585  0.1522  0.4230 -1.3477
 2843Sol     MW14458   2.286   1.906   1.562 -0.1687 -0.1116  0.1084
 2844Sol     OW14459   1.511   0.582   8.928  0.0660 -0.2475 -0.1952
 2844Sol     HW14460   1.562   0.640   8.985  0.3271 -0.1850 -0.4924
 2844Sol     HW14461   1.437   0.555   8.982  0.9841 -1.2135  0.6144
 2844Sol     MW14462   1.509   0.585   8.938  0.2045  0.8153  0.3029
 2845Sol     OW14463   3.157   2.313   4.664  0.1086 -0.6604 -0.1482
 2845Sol     HW14464   3.178   2.394   4.710 -1.0938 -0.1822 -0.4378
 2845Sol     HW14465   3.219   2.249   4.700  1.1786  0.4070 -0.0424
 2845Sol     MW14466   3.165   2.314   4.671  0.0304 -0.2206 -0.7620
 2846Sol     OW14467   2.462   2.067   7.791  0.5170 -0.0722  0.1032
 2846Sol     HW14468   2.487   1.995   7.848 -2.3802 -1.8040 -0.7455
 2846Sol     HW14469   2.382   2.103   7.830  1.3097  1.9995 -0.0968
 2846Sol     MW14470   2.457   2.064   7.799 -0.7465  0.0197 -0.0909
 2847Sol     OW14471   1.647   3.365   2.253 -0.2716 -0.6577 -0.3140
 2847Sol     HW14472   1.726   3.381   2.201  0.3641 -1.2284  0.4546
 2847Sol     HW14473   1.602   3.450   2.254 -0.0753 -0.5353 -1.4252
 2847Sol     MW14474   1.650   3.374   2.249 -0.5061  0.1172 -0.0103
 2848Sol     OW14475   0.988   2.200   7.088 -0.0399  0.1809 -0.8675
 2848Sol     HW14476   0.894   2.205   7.074 -0.2248 -0.6485  0.0253
 2848Sol     HW14477   1.010   2.109   7.066 -0.0626 -0.6868  2.5038
 2848Sol     MW14478   0.982   2.192   7.085  0.0784 -0.0168 -0.3398
 2849Sol     OW14479   2.209   1.073   2.856  0.3875  0.1598  0.5674
 2849Sol     HW14480   2.160   1.004   2.900 -1.2272  0.9821  0.1029
 2849Sol     HW14481   2.212   1.047   2.764 -2.0180  1.6698  0.0146
 2849Sol     MW14482   2.205   1.065   2.852  0.5805 -0.4679 -0.4721
 2850Sol     OW14483   2.536   0.769   7.010 -0.5851  0.2093 -0.1388
 2850Sol     HW14484   2.611   0.821   6.980 -0.7666  0.7088  0.2688
 2850Sol     HW14485   2.549   0.761   7.105  0.1320 -1.5971 -0.3552
 2850Sol     MW14486   2.544   0.773   7.016 -0.5764 -0.5775 -0.9274
 2851Sol     OW14487   2.646   2.271   2.820 -0.3792 -0.4161 -0.0855
 2851Sol     HW14488   2.728   2.230   2.845 -0.5742 -0.4714  0.4795
 2851Sol     HW14489   2.588   2.256   2.895 -1.5624 -2.2194 -1.2978
 2851Sol     MW14490   2.648   2.266   2.829  0.5791  0.0086  0.3244
 2852Sol     OW14491   2.724   1.948   8.992  0.2643  0.0966  0.3429
 2852Sol     HW14492   2.802   1.975   9.041  0.4167  0.2926 -0.0047
 2852Sol     HW14493   2.676   2.029   8.976 -0.1597 -0.0548  0.8001
 2852Sol     MW14494   2.726   1.957   8.995 -0.2153  0.0087 -0.7705
 2853Sol     OW14495   2.028   0.765   3.705 -0.3838 -0.1788 -0.2048
 2853Sol     HW14496   2.109   0.717   3.690  0.8552  1.4149  1.2444
 2853Sol     HW14497   1.959   0.700   3.690  1.1657 -1.7627 -0.6703
 2853Sol     MW14498   2.029   0.755   3.702  0.0174  0.0693  0.8312
 2854Sol     OW14499   1.889   3.368   6.531  0.1867 -0.0937  0.1821
 2854Sol     HW14500   1.932   3.401   6.609  0.4534  0.5042 -0.2160
 2854Sol     HW14501   1.917   3.276   6.524 -0.2476 -0.2944  1.0684
 2854Sol     MW14502   1.895   3.362   6.537  0.6825  0.2276  0.6589
 2855Sol     OW14503   0.314   1.626   6.975  0.1058  0.2458  0.4635
 2855Sol     HW14504   0.360   1.544   6.996  0.1721  0.2100  0.1889
 2855Sol     HW14505   0.335   1.641   6.883 -2.4637 -1.1025 -0.3762
 2855Sol     MW14506   0.320   1.620   6.969  0.1084  0.0525 -0.3900
 2856Sol     OW14507   2.131   3.420   6.150 -0.4685  0.5538  0.7053
 2856Sol     HW14508   2.167   3.503   6.118 -1.5231 -0.3178 -3.0174
 2856Sol     HW14509   2.186   3.397   6.225  5.3524  0.5057 -3.2029
 2856Sol     MW14510   2.139   3.425   6.154 -0.1102 -0.4409 -0.3112
 2857Sol     OW14511   2.082   2.334   9.355  0.1876  0.6670  0.1670
 2857Sol     HW14512   2.102   2.290   9.272 -0.7818  0.6773 -0.0730
 2857Sol     HW14513   2.134   2.287   9.420 -1.2475 -1.2156  0.0019
 2857Sol     MW14514   2.088   2.326   9.354 -0.0207 -0.2277  0.1620
 2858Sol     OW14515   1.576   2.409   7.808  0.2360  0.7318 -0.1610
 2858Sol     HW14516   1.486   2.438   7.821 -0.1893 -0.2564 -0.7934
 2858Sol     HW14517   1.587   2.336   7.870  0.1331 -0.0597 -1.0508
 2858Sol     MW14518   1.569   2.405   7.814  0.3732  0.0667 -0.2458
 2859Sol     OW14519   2.682   1.481   6.089  0.2145 -0.1546  0.1177
 2859Sol     HW14520   2.696   1.549   6.023 -3.7291  2.2989  1.5496
 2859Sol     HW14521   2.683   1.529   6.172 -5.9687 -1.0408  0.9712
 2859Sol     MW14522   2.683   1.492   6.091 -0.1313  0.1901 -0.2148
 2860Sol     OW14523   1.442   0.352   3.434 -0.3107 -0.4498 -0.0691
 2860Sol     HW14524   1.457   0.292   3.507 -1.5240 -0.3045  0.3073
 2860Sol     HW14525   1.399   0.298   3.368  1.6649 -0.8285 -1.0880
 2860Sol     MW14526   1.440   0.341   3.435 -0.8180  0.0537 -0.8471
 2861Sol     OW14527   2.315   2.354   8.556 -1.0227  0.4304  0.1667
 2861Sol     HW14528   2.390   2.383   8.608  0.1866  1.1588 -1.9452
 2861Sol     HW14529   2.320   2.258   8.557  0.6707  0.4924 -1.0004
 2861Sol     MW14530   2.322   2.348   8.561  0.5822  0.2615  0.0712
 2862Sol     OW14531   1.366   0.494   8.698 -0.8020  0.4799 -0.1471
 2862Sol     HW14532   1.421   0.464   8.625 -1.5365 -2.6150  0.4856
 2862Sol     HW14533   1.429   0.518   8.766 -0.1214  2.9874 -1.5884
 2862Sol     MW14534   1.377   0.493   8.697 -0.1099  0.2447 -0.2253
 2863Sol     OW14535   0.077   2.680   7.021  0.3702 -0.2462  0.1556
 2863Sol     HW14536   0.047   2.705   6.934  0.3562  0.5652  0.3930
 2863Sol     HW14537   0.040   2.746   7.079  1.1662 -0.2358  0.6603
 2863Sol     MW14538   0.071   2.688   7.018  0.7864 -0.1136  0.1142
 2864Sol     OW14539   1.290   3.212   2.598  0.2077  0.8277  0.1317
 2864Sol     HW14540   1.364   3.193   2.655  1.4047  1.2467 -1.2355
 2864Sol     HW14541   1.217   3.161   2.634  1.0659  0.6734  1.6871
 2864Sol     MW14542   1.290   3.206   2.606  0.4665 -0.1240  0.6408
 2865Sol     OW14543   1.255   2.352   5.958 -0.3110  0.0974  0.1340
 2865Sol     HW14544   1.193   2.334   6.028  1.2667 -2.1315  1.0414
 2865Sol     HW14545   1.204   2.340   5.878 -1.5643  0.3541  0.8783
 2865Sol     MW14546   1.245   2.349   5.957 -0.6970 -0.1929 -0.4875
 2866Sol     OW14547   1.006   2.728   5.833 -0.0220  0.0084  0.2783
 2866Sol     HW14548   0.957   2.799   5.873 -0.3526  0.6159 -1.1748
 2866Sol     HW14549   1.097   2.744   5.857 -0.0383  1.1792 -0.4187
 2866Sol     MW14550   1.010   2.735   5.839 -0.2961  0.1615  0.0096
 2867Sol     OW14551   1.710   1.499   3.748 -0.4668  0.7512 -0.1924
 2867Sol     HW14552   1.677   1.417   3.784 -0.6344  0.2225 -1.5293
 2867Sol     HW14553   1.682   1.566   3.811  1.0433 -0.3686  1.7596
 2867Sol     MW14554   1.705   1.497   3.757 -0.0951  0.0934 -0.5380
 2868Sol     OW14555   1.598   1.964   8.000  0.4302 -0.5919 -0.0876
 2868Sol     HW14556   1.678   1.954   7.949 -0.1225 -0.2325 -1.0287
 2868Sol     HW14557   1.581   2.058   8.001 -0.8429 -0.7875 -1.2568
 2868Sol     MW14558   1.604   1.971   7.996  0.4775  0.3736  0.1114
 2869Sol     OW14559   1.414   3.414   4.989  0.1092 -0.2836 -0.2954
 2869Sol     HW14560   1.489   3.424   4.930 -0.3359  0.6235 -0.7127
 2869Sol     HW14561   1.370   3.334   4.959  1.1828 -1.0938  0.2622
 2869Sol     MW14562   1.417   3.408   4.981 -0.0644  0.4396  0.1142
 2870Sol     OW14563   2.415   2.783   3.960  0.3482 -0.4258  0.2241
 2870Sol     HW14564   2.361   2.704   3.965 -2.4716  1.4403 -0.0286
 2870Sol     HW14565   2.467   2.771   3.881 -0.1489 -1.9686  0.1011
 2870Sol     MW14566   2.415   2.775   3.954  0.5639  0.3713  0.0061
 2871Sol     OW14567   2.388   0.483   1.762  0.2005  0.1098  0.2414
 2871Sol     HW14568   2.390   0.397   1.805 -0.7581  0.6742  1.4346
 2871Sol     HW14569   2.375   0.545   1.833 -2.0300  1.0223 -0.9179
 2871Sol     MW14570   2.387   0.481   1.772 -0.7726 -0.3935  0.4585
 2872Sol     OW14571   2.989   1.408   5.518  0.5412  0.2236 -0.7774
 2872Sol     HW14572   2.924   1.381   5.583  0.2025  0.5238 -0.9905
 2872Sol     HW14573   2.955   1.375   5.435  1.7065 -1.4369 -0.6066
 2872Sol     MW14574   2.980   1.403   5.516 -0.0016 -0.0374  0.5471
 2873Sol     OW14575   2.390   2.804   6.940 -0.3276 -0.7590 -0.0741
 2873Sol     HW14576   2.361   2.758   7.018  0.9273 -1.1401  0.1710
 2873Sol     HW14577   2.309   2.822   6.892 -0.9959 -1.5729  0.7248
 2873Sol     MW14578   2.380   2.801   6.943 -0.0650  0.0246 -0.3007
 2874Sol     OW14579   3.137   2.319   2.932 -0.2461 -0.0255  0.3783
 2874Sol     HW14580   3.118   2.293   2.842  1.2144  0.2774 -0.0365
 2874Sol     HW14581   3.137   2.237   2.982  0.6398 -0.3946 -0.2214
 2874Sol     MW14582   3.135   2.309   2.929 -0.4295 -0.8841 -0.3114
 2875Sol     OW14583   1.737   2.972   2.557 -0.3370  0.7063  0.0848
 2875Sol     HW14584   1.827   2.999   2.578 -0.6139  0.7931  1.1430
 2875Sol     HW14585   1.718   3.018   2.475  0.3708  1.1384  0.1544
 2875Sol     MW14586   1.744   2.978   2.551  0.2542  0.1996  0.5290
 2876Sol     OW14587   0.169   1.230   4.519  0.1849  0.0621  0.0766
 2876Sol     HW14588   0.235   1.162   4.503 -0.3818 -0.3748 -0.4537
 2876Sol     HW14589   0.089   1.194   4.480 -0.1777  0.9221  0.0350
 2876Sol     MW14590   0.168   1.220   4.514 -0.1671 -0.1597 -0.0330
 2877Sol     OW14591   2.215   2.637   1.914  0.3911  0.1206 -0.4494
 2877Sol     HW14592   2.195   2.559   1.966  0.8526  0.1136 -0.2716
 2877Sol     HW14593   2.311   2.641   1.914  0.4161 -0.2404 -1.8471
 2877Sol     MW14594   2.222   2.631   1.919 -0.3586  0.0849 -0.2027
 2878Sol     OW14595   2.013   1.559   2.593  0.0191 -0.3725 -0.0815
 2878Sol     HW14596   1.965   1.502   2.653 -0.7603 -2.5133 -2.6678
 2878Sol     HW14597   2.094   1.512   2.574  0.2710  0.2990 -0.6953
 2878Sol     MW14598   2.016   1.550   2.597  0.3283  0.0802 -0.9733
 2879Sol     OW14599   2.198   0.174   6.558  0.3279  0.4035  0.4424
 2879Sol     HW14600   2.257   0.204   6.489 -0.2109  2.7208  0.9682
 2879Sol     HW14601   2.127   0.237   6.559  0.2106  0.2839  2.9541
 2879Sol     MW14602   2.197   0.182   6.552  0.0321  0.0775  0.1684
 2880Sol     OW14603   2.007   2.356   7.583 -0.7818 -0.7181 -0.2491
 2880Sol     HW14604   1.944   2.379   7.651 -0.8848 -0.2401 -0.5065
 2880Sol     HW14605   2.092   2.371   7.624 -0.8311  1.9911 -1.0099
 2880Sol     MW14606   2.009   2.359   7.593 -0.4325 -0.2100 -0.3625
 2881Sol     OW14607   2.213   2.830   9.267 -0.2802 -0.3519  0.4216
 2881Sol     HW14608   2.289   2.799   9.217 -0.6529  0.5551 -0.7474
 2881Sol     HW14609   2.223   2.791   9.353  3.0834  2.0479  1.2178
 2881Sol     MW14610   2.221   2.823   9.270 -0.3136 -0.5039  0.0561
 2882Sol     OW14611   2.080   1.960   3.124  0.0669  0.0111 -0.1319
 2882Sol     HW14612   1.988   1.985   3.132 -0.3433 -0.8583 -1.8379
 2882Sol     HW14613   2.113   1.960   3.214 -1.2444  1.6100  0.3681
 2882Sol     MW14614   2.075   1.962   3.133 -0.2274 -0.9047  0.0962
 2883Sol     OW14615   2.775   2.842   5.630  0.0556 -0.8264 -0.2841
 2883Sol     HW14616   2.781   2.782   5.705  1.0557 -0.4432 -0.0538
 2883Sol     HW14617   2.681   2.851   5.615 -0.1993 -0.1935  1.5025
 2883Sol     MW14618   2.767   2.837   5.636  0.2295  0.1458 -0.0679
 2884Sol     OW14619   2.009   3.319   3.583 -0.1104 -0.0745 -0.2262
 2884Sol     HW14620   2.012   3.363   3.498 -0.1376  1.7177  0.6791
 2884Sol     HW14621   2.060   3.374   3.641 -0.6568 -0.9268  1.0981
 2884Sol     MW14622   2.014   3.327   3.580 -0.1828  0.3285 -1.1105
 2885Sol     OW14623   0.922   2.958   7.856  0.0740 -0.3785 -0.2278
 2885Sol     HW14624   0.961   2.886   7.807 -1.2973  1.1250 -3.6759
 2885Sol     HW14625   0.846   2.919   7.899  0.8030 -1.5434  0.0317
 2885Sol     MW14626   0.919   2.948   7.855 -0.2183 -0.2430 -0.1337
 2886Sol     OW14627   3.175   0.023   9.126 -0.0803 -0.6237 -0.0233
 2886Sol     HW14628   3.089   0.066   9.133  0.2329 -0.0101  0.1486
 2886Sol     HW14629   3.236   0.085   9.167  0.6389 -0.4686 -1.2835
 2886Sol     MW14630   3.173   0.033   9.130 -0.7169  0.4418 -0.6085
 2887Sol     OW14631   0.314   1.301   2.385 -0.2120 -0.3962 -0.4651
 2887Sol     HW14632   0.295   1.393   2.404  0.0592 -0.6753  1.2349
 2887Sol     HW14633   0.349   1.266   2.466 -0.8384 -2.1634 -0.9177
 2887Sol     MW14634   0.315   1.306   2.394  0.6222  0.1384  0.9602
 2888Sol     OW14635   2.360   3.423   7.024  0.4658  0.6696 -0.0016
 2888Sol     HW14636   2.320   3.474   6.953 -1.7557  0.1280  0.8109
 2888Sol     HW14637   2.435   3.380   6.983  1.5141  3.3829 -1.0681
 2888Sol     MW14638   2.363   3.423   7.014 -0.3287 -0.2888  0.0559
 2889Sol     OW14639   0.844   0.089   8.105  0.1678  0.1583 -0.4916
 2889Sol     HW14640   0.799   0.098   8.021 -1.9048 -1.6853  0.3749
 2889Sol     HW14641   0.795   0.144   8.165 -1.0666 -1.9513  0.4883
 2889Sol     MW14642   0.836   0.095   8.103  0.0784 -0.0819 -0.7069
 2890Sol     OW14643   2.210   0.404   6.906 -0.7835 -0.2685  0.2074
 2890Sol     HW14644   2.205   0.483   6.853 -2.8281 -0.2124  0.4591
 2890Sol     HW14645   2.249   0.434   6.989  1.3268 -0.1452 -0.7869
 2890Sol     MW14646   2.213   0.414   6.909  0.1474 -0.5168 -0.0226
 2891Sol     OW14647   2.890   2.924   5.373 -0.1108 -0.4123  0.8097
 2891Sol     HW14648   2.865   3.015   5.358  0.4484 -0.4495 -0.3556
 2891Sol     HW14649   2.852   2.903   5.458 -1.4973  0.4552  0.4255
 2891Sol     MW14650   2.884   2.930   5.379 -0.1929  0.2668 -0.1952
 2892Sol     OW14651   2.758   0.870   7.786 -0.2923  0.0162  0.5029
 2892Sol     HW14652   2.844   0.910   7.799 -0.4514  0.5604 -0.1127
 2892Sol     HW14653   2.722   0.914   7.710 -1.0780 -0.2887  0.6926
 2892Sol     MW14654   2.762   0.877   7.780 -0.8330  0.1863 -0.6779
 2893Sol     OW14655   1.935   0.621   7.055  0.2939 -0.1872  0.6288
 2893Sol     HW14656   1.914   0.654   6.968  2.1727  0.6187  0.4496
 2893Sol     HW14657   1.867   0.657   7.112 -0.9942 -0.7941 -0.5189
 2893Sol     MW14658   1.927   0.627   7.052 -0.2609  0.7375 -0.3631
 2894Sol     OW14659   2.982   1.028   4.834 -0.2434 -0.3830  0.2076
 2894Sol     HW14660   3.022   0.941   4.835 -0.2641 -0.3950  0.0155
 2894Sol     HW14661   3.056   1.088   4.821 -0.0411 -0.2653  1.7800
 2894Sol     MW14662   2.993   1.025   4.833  0.4757  0.0039 -0.4033
 2895Sol     OW14663   2.647   1.335   9.365  0.2575 -0.0843 -0.1384
 2895Sol     HW14664   2.690   1.296   9.441  1.1796 -0.9789 -1.1071
 2895Sol     HW14665   2.701   1.411   9.344  0.1085  0.0566 -0.0128
 2895Sol     MW14666   2.656   1.338   9.370  0.0941  0.2300  0.0108
 2896Sol     OW14667   1.135   1.496   6.540 -0.0840 -0.0600  0.0705
 2896Sol     HW14668   1.133   1.490   6.636  0.0621  0.4016  0.1040
 2896Sol     HW14669   1.083   1.421   6.510  0.6958 -0.7866  0.4927
 2896Sol     MW14670   1.130   1.488   6.546 -0.5586 -0.1231  0.5227
 2897Sol     OW14671   0.679   0.305   8.206 -0.1715 -0.5601 -0.5655
 2897Sol     HW14672   0.706   0.391   8.237 -1.0299 -0.5765  0.2476
 2897Sol     HW14673   0.628   0.322   8.127 -0.1504 -0.3400 -0.5304
 2897Sol     MW14674   0.677   0.314   8.202  0.9198 -0.4056  0.7026
 2898Sol     OW14675   0.591   3.361   7.300  0.4568  0.5052  0.0226
 2898Sol     HW14676   0.558   3.274   7.323  3.3734 -0.4357  0.8074
 2898Sol     HW14677   0.512   3.412   7.281 -1.3296 -2.1864 -0.0695
 2898Sol     MW14678   0.581   3.358   7.300 -0.2272  0.6566  0.0980
 2899Sol     OW14679   0.644   0.061   5.486 -0.7290 -0.6633  0.5388
 2899Sol     HW14680   0.600   0.137   5.525 -1.5670 -0.9244  0.1239
 2899Sol     HW14681   0.724   0.051   5.536 -0.2000  1.0130  0.0817
 2899Sol     MW14682   0.647   0.067   5.494  0.3003  0.4589 -0.2826
 2900Sol     OW14683   0.811   0.700   4.902 -0.6176 -1.1315  0.4799
 2900Sol     HW14684   0.716   0.694   4.911 -0.5703  0.5158  2.3727
 2900Sol     HW14685   0.842   0.723   4.989  1.2566  1.2596 -0.7573
 2900Sol     MW14686   0.806   0.702   4.911 -0.1796  0.3062  0.2217
 2901Sol     OW14687   0.353   0.518   6.100  0.1468 -0.0200  0.1071
 2901Sol     HW14688   0.406   0.442   6.077  0.6737  0.5081 -0.4132
 2901Sol     HW14689   0.266   0.498   6.065  0.3633 -0.2453 -0.3037
 2901Sol     MW14690   0.350   0.510   6.095  0.0197 -0.1533  0.1600
 2902Sol     OW14691   3.066   0.406   2.571  0.9046  0.2895  0.1156
 2902Sol     HW14692   3.115   0.481   2.603  0.3970  0.7227 -0.1062
 2902Sol     HW14693   2.993   0.397   2.633 -0.3357  1.4087 -1.1547
 2902Sol     MW14694   3.064   0.412   2.580  0.2363 -0.3597  0.4164
 2903Sol     OW14695   2.318   2.294   6.038  0.3182  0.5087  0.1425
 2903Sol     HW14696   2.250   2.227   6.044  0.1977  0.7324  1.4738
 2903Sol     HW14697   2.290   2.351   5.966  0.2308 -0.6521 -0.7488
 2903Sol     MW14698   2.310   2.293   6.032 -0.0659 -0.0760 -0.5466
 2904Sol     OW14699   0.774   3.270   2.753  0.4041  0.4636  0.6696
 2904Sol     HW14700   0.855   3.316   2.775 -0.0577  1.4769  0.3199
 2904Sol     HW14701   0.719   3.282   2.831  0.2911  0.4977  0.5847
 2904Sol     MW14702   0.776   3.276   2.762  0.1251  0.5588  0.3008
 2905Sol     OW14703   2.094   0.700   3.197 -0.2022 -0.1498  0.2603
 2905Sol     HW14704   2.040   0.778   3.188 -0.4855 -0.3176  0.4728
 2905Sol     HW14705   2.180   0.726   3.164 -0.2390  0.3135  0.5246
 2905Sol     MW14706   2.097   0.709   3.194 -0.1781  0.1571 -0.2321
 2906Sol     OW14707   2.224   1.934   5.517  0.1227  0.0232 -0.2002
 2906Sol     HW14708   2.163   1.862   5.532  0.1059 -0.3119 -1.8022
 2906Sol     HW14709   2.209   1.960   5.426 -0.5165  2.6585  0.6171
 2906Sol     MW14710   2.217   1.930   5.510  0.2486  0.2012 -0.1593
 2907Sol     OW14711   0.543   2.109   4.960  0.0733  0.4791 -0.2557
 2907Sol     HW14712   0.546   2.179   4.895 -0.5050  0.3266 -0.4456
 2907Sol     HW14713   0.596   2.039   4.922  0.3367  0.6674 -0.2366
 2907Sol     MW14714   0.548   2.109   4.951 -0.0588 -0.1385  0.4853
 2908Sol     OW14715   2.317   2.248   5.606 -0.0408  0.0731  0.0406
 2908Sol     HW14716   2.280   2.176   5.656 -0.8742  0.1482 -0.4629
 2908Sol     HW14717   2.401   2.266   5.648 -0.4058 -0.3441  0.9546
 2908Sol     MW14718   2.321   2.243   5.614 -0.6143  0.1231 -0.1217
 2909Sol     OW14719   2.853   0.399   9.180 -0.1861 -0.5026  0.7285
 2909Sol     HW14720   2.882   0.453   9.107 -1.5284  0.3240  0.7863
 2909Sol     HW14721   2.914   0.418   9.251  0.0340  0.0622  0.3824
 2909Sol     MW14722   2.861   0.405   9.180 -0.0632  0.3343 -0.4369
 2910Sol     OW14723   0.615   3.306   2.300 -0.5643 -0.0399 -0.7044
 2910Sol     HW14724   0.677   3.333   2.368 -1.1447 -1.1773  0.2896
 2910Sol     HW14725   0.558   3.382   2.288 -0.6427  0.0702  0.2961
 2910Sol     MW14726   0.616   3.316   2.305 -0.0799  0.4751 -0.3879
 2911Sol     OW14727   1.529   3.036   7.580 -0.0779  0.1083 -0.0881
 2911Sol     HW14728   1.602   3.036   7.518 -2.3118  0.8157 -2.8262
 2911Sol     HW14729   1.535   3.120   7.624  0.3793  0.4553 -0.7928
 2911Sol     MW14730   1.536   3.044   7.578 -0.4051  0.5992 -0.6083
 2912Sol     OW14731   3.122   1.400   8.965  0.1528  0.0704 -0.1438
 2912Sol     HW14732   3.051   1.345   8.930  2.3666 -1.7525 -1.8904
 2912Sol     HW14733   3.138   1.465   8.896 -0.5997  1.2516  0.7684
 2912Sol     MW14734   3.117   1.401   8.956  0.2060  0.3658  0.3370
 2913Sol     OW14735   2.407   3.253   5.947 -0.5418 -0.3601 -0.2763
 2913Sol     HW14736   2.380   3.211   6.029  0.4652 -0.4004  0.0504
 2913Sol     HW14737   2.345   3.222   5.882 -1.6570  0.0494  0.5670
 2913Sol     MW14738   2.399   3.247   5.949  0.7362 -0.3689  0.2515
 2914Sol     OW14739   0.332   0.803   3.608 -0.0617  0.2086  0.3114
 2914Sol     HW14740   0.379   0.857   3.544  0.3595  2.0472  2.1153
 2914Sol     HW14741   0.385   0.724   3.617  0.3562  0.3348 -0.8995
 2914Sol     MW14742   0.341   0.801   3.603 -0.7878  0.8068 -0.2840
 2915Sol     OW14743   0.979   1.331   2.388  0.0317 -0.3667 -0.6307
 2915Sol     HW14744   0.896   1.302   2.425 -0.7893  0.6401 -1.6609
 2915Sol     HW14745   1.020   1.383   2.457  0.4119 -1.9190  0.3423
 2915Sol     MW14746   0.975   1.333   2.398 -0.1319 -0.4257  0.0178
 2916Sol     OW14747   2.143   0.709   9.210  0.5724  0.3295 -0.0500
 2916Sol     HW14748   2.131   0.785   9.267  0.9494 -0.4835  1.1280
 2916Sol     HW14749   2.229   0.722   9.171  0.4359  0.7515 -0.2116
 2916Sol     MW14750   2.149   0.717   9.212 -0.1254 -0.0952 -0.6961
 2917Sol     OW14751   2.682   1.463   8.600  0.2620  0.6431  0.0084
 2917Sol     HW14752   2.599   1.509   8.586 -0.4270  0.2173  2.5758
 2917Sol     HW14753   2.722   1.460   8.513 -1.6310  2.3406 -0.9644
 2917Sol     MW14754   2.678   1.467   8.591 -0.4941  0.0526  0.3532
 2918Sol     OW14755   2.339   0.450   9.057  0.2224  0.4927  0.6006
 2918Sol     HW14756   2.401   0.488   9.119  0.6969 -0.1653  0.5289
 2918Sol     HW14757   2.306   0.372   9.100 -1.4625  1.4736  1.1383
 2918Sol     MW14758   2.342   0.447   9.066  0.5125  0.1208  0.3886
 2919Sol     OW14759   2.896   2.150   7.115  0.2905 -0.4386  0.4320
 2919Sol     HW14760   2.911   2.078   7.054  1.9960 -1.4777  2.0221
 2919Sol     HW14761   2.926   2.117   7.199  0.6685  1.9755  1.2905
 2919Sol     MW14762   2.900   2.141   7.117 -0.4018  0.0596 -0.3104
 2920Sol     OW14763   1.730   2.930   7.906 -0.2024 -0.0668  0.0025
 2920Sol     HW14764   1.791   2.958   7.838 -0.7132  3.7247  0.9780
 2920Sol     HW14765   1.648   2.914   7.859  0.2034 -0.2962 -0.6339
 2920Sol     MW14766   1.728   2.931   7.896  0.4631  0.3446 -1.0857
 2921Sol     OW14767   2.480   0.222   9.781 -0.0115 -0.1815 -0.8207
 2921Sol     HW14768   2.412   0.289   9.775 -0.1872 -0.0686  1.8052
 2921Sol     HW14769   2.436   0.146   9.820  0.6822 -1.1192 -1.8249
 2921Sol     MW14770   2.470   0.221   9.784  0.2754 -0.7068  0.0719
 2922Sol     OW14771   0.840   1.579   6.581 -0.5489 -0.6982 -0.9317
 2922Sol     HW14772   0.803   1.662   6.610  0.0751 -0.3671 -1.0829
 2922Sol     HW14773   0.933   1.584   6.603 -0.7217 -1.8137  0.0960
 2922Sol     MW14774   0.845   1.586   6.585 -0.3554 -0.0078 -0.1315
 2923Sol     OW14775   2.004   0.323   3.591  0.3866 -0.9996  0.1785
 2923Sol     HW14776   2.005   0.359   3.679 -0.7145  0.1093 -0.2483
 2923Sol     HW14777   2.039   0.393   3.536 -0.2359 -1.1645 -0.4419
 2923Sol     MW14778   2.007   0.332   3.594  0.1893  0.6309 -0.5544
 2924Sol     OW14779   3.190   2.717   3.867  0.0556  0.3627  0.0339
 2924Sol     HW14780   3.273   2.676   3.893  0.4224  1.3025  0.3489
 2924Sol     HW14781   3.179   2.790   3.928 -0.9462  0.3140 -0.0832
 2924Sol     MW14782   3.197   2.720   3.875  0.0650 -0.4401 -0.4626
 2925Sol     OW14783   2.349   0.757   7.637 -0.6079 -0.0381  0.0901
 2925Sol     HW14784   2.402   0.712   7.571  2.8763  0.5831  2.3441
 2925Sol     HW14785   2.388   0.844   7.644 -4.3327  1.8359 -0.8394
 2925Sol     MW14786   2.357   0.761   7.631 -0.1900 -0.7474  0.0052
 2926Sol     OW14787   0.723   3.405   1.481 -0.8279 -0.4517 -0.5808
 2926Sol     HW14788   0.699   3.409   1.573 -1.4019 -1.2556 -0.7020
 2926Sol     HW14789   0.662   3.465   1.437 -0.1784  0.3882 -0.3716
 2926Sol     MW14790   0.716   3.411   1.485 -0.4380  0.5294  0.1608
 2927Sol     OW14791   0.962   1.556   9.572 -0.3529  0.3977 -0.0065
 2927Sol     HW14792   0.914   1.620   9.520 -1.1317 -0.4131 -0.2851
 2927Sol     HW14793   0.983   1.603   9.654  0.2201  1.4209 -0.7236
 2927Sol     MW14794   0.960   1.566   9.575  0.5220  0.3237 -0.2029
 2928Sol     OW14795   2.049   0.445   9.143  0.0699  0.2522 -0.4199
 2928Sol     HW14796   2.093   0.373   9.187 -1.7095 -0.3893  0.3959
 2928Sol     HW14797   2.101   0.522   9.165 -0.9173 -0.0122  3.1314
 2928Sol     MW14798   2.057   0.446   9.149 -0.4362 -0.3151 -0.6548
 2929Sol     OW14799   1.664   1.450   4.515  0.4915  0.4687 -0.1824
 2929Sol     HW14800   1.651   1.370   4.464  0.0950  1.6723 -2.0445
 2929Sol     HW14801   1.596   1.510   4.483  1.4105  1.8847  0.4575
 2929Sol     MW14802   1.656   1.448   4.508 -0.1175 -0.2035  0.6587
 2930Sol     OW14803   2.784   1.229   8.329 -0.1116  0.5612  0.8836
 2930Sol     HW14804   2.879   1.223   8.337 -0.1961 -0.1998  1.3373
 2930Sol     HW14805   2.765   1.323   8.334  0.5685  0.6789  1.2729
 2930Sol     MW14806   2.791   1.237   8.330 -0.9380  0.5255  0.6719
 2931Sol     OW14807   3.147   3.315   8.563  0.0570  0.2508  0.1259
 2931Sol     HW14808   3.145   3.410   8.551  0.1425  0.3713  1.0327
 2931Sol     HW14809   3.099   3.280   8.487  0.6601  0.9717 -0.5893
 2931Sol     MW14810   3.142   3.320   8.555 -0.7296  0.2353 -0.1554
 2932Sol     OW14811   0.714   2.767   3.731  0.2010 -0.2760  0.4155
 2932Sol     HW14812   0.717   2.756   3.636  0.4881 -0.4415  0.4446
 2932Sol     HW14813   0.685   2.682   3.764 -1.5393  0.2671  0.3689
 2932Sol     MW14814   0.711   2.758   3.725  0.5321  0.0509 -0.1562
 2933Sol     OW14815   0.167   0.241   7.126  0.2201 -0.1751  0.0864
 2933Sol     HW14816   0.232   0.264   7.193  0.1394  0.3551 -0.0152
 2933Sol     HW14817   0.128   0.160   7.159 -0.2132  0.3832  0.9687
 2933Sol     MW14818   0.170   0.236   7.135 -0.0042  0.2352 -0.8435
 2934Sol     OW14819   0.590   0.324   8.661  0.1270 -0.4745 -0.3496
 2934Sol     HW14820   0.532   0.286   8.595  0.9626 -1.3117 -0.6216
 2934Sol     HW14821   0.543   0.313   8.744 -0.0123 -1.3475 -0.5412
 2934Sol     MW14822   0.581   0.319   8.663 -0.4200  0.1648 -0.6610
 2935Sol     OW14823   2.214   2.207   3.127  0.3604  0.3335  0.2020
 2935Sol     HW14824   2.161   2.144   3.078 -0.3848  1.6976 -0.7885
 2935Sol     HW14825   2.157   2.284   3.136  0.7662  0.3859  2.5541
 2935Sol     MW14826   2.204   2.208   3.124  0.2898 -0.2638 -0.6030
 2936Sol     OW14827   2.532   2.314   4.261 -0.4785 -0.3557 -0.4560
 2936Sol     HW14828   2.470   2.364   4.314 -1.0098 -0.9352 -0.5228
 2936Sol     HW14829   2.562   2.244   4.319  1.4311  0.9219  0.1424
 2936Sol     MW14830   2.529   2.312   4.271  0.1408  0.4221 -0.4220
 2937Sol     OW14831   1.803   0.793   6.251 -0.0165  0.5024  0.1034
 2937Sol     HW14832   1.844   0.844   6.320  0.0138  0.7150 -0.0721
 2937Sol     HW14833   1.794   0.854   6.178  1.6195 -0.2085 -0.7113
 2937Sol     MW14834   1.806   0.803   6.251 -0.4006  0.1020  0.5878
 2938Sol     OW14835   2.885   1.173   9.138 -0.0047 -0.6823 -0.0449
 2938Sol     HW14836   2.913   1.226   9.212 -0.6757  0.6796 -0.7380
 2938Sol     HW14837   2.957   1.112   9.123  1.1100  0.5277  0.3166
 2938Sol     MW14838   2.894   1.172   9.143 -0.4517 -0.1615  1.0811
 2939Sol     OW14839   1.541   0.907   1.900  0.0414 -0.2149  0.0160
 2939Sol     HW14840   1.598   0.977   1.867 -0.4057  0.6583  1.0431
 2939Sol     HW14841   1.599   0.853   1.955 -0.2641  1.1385  1.7211
 2939Sol     MW14842   1.551   0.908   1.902  0.6437 -1.1234  1.0837
 2940Sol     OW14843   1.803   3.442   8.211 -0.1117 -0.1375 -0.3613
 2940Sol     HW14844   1.751   3.370   8.175  0.4568 -0.0209 -1.4071
 2940Sol     HW14845   1.809   3.506   8.141  0.9076  0.1359 -0.0410
 2940Sol     MW14846   1.799   3.441   8.202 -0.4970  0.1975 -0.0900
 2941Sol     OW14847   2.768   0.504   9.541  0.3147  0.5179 -0.0385
 2941Sol     HW14848   2.853   0.508   9.498  2.0335 -0.1482  3.1335
 2941Sol     HW14849   2.741   0.413   9.533  1.7976 -0.1671  2.3412
 2941Sol     MW14850   2.773   0.496   9.536  0.0613 -0.1393  0.1340
 2942Sol     OW14851   3.288   0.409   7.328 -0.6059 -0.0658 -0.3603
 2942Sol     HW14852   3.271   0.454   7.410  2.7727 -0.7257  0.7572
 2942Sol     HW14853   3.301   0.479   7.264 -0.4004  0.4641  0.2592
 2942Sol     MW14854   3.287   0.419   7.330  0.7947  0.2846 -0.1911
 2943Sol     OW14855   1.005   0.679   2.244 -0.3868  0.6560 -0.1089
 2943Sol     HW14856   1.090   0.692   2.203  0.0887 -0.8481  0.3689
 2943Sol     HW14857   1.008   0.590   2.279 -1.2471  1.4251  2.0538
 2943Sol     MW14858   1.013   0.672   2.243 -0.1374  0.1178  1.0011
 2944Sol     OW14859   1.364   1.320   9.816  0.6168  0.0053 -0.3164
 2944Sol     HW14860   1.319   1.400   9.841 -1.3731 -1.3963  0.7471
 2944Sol     HW14861   1.294   1.259   9.791  2.0288 -1.5574 -0.5952
 2944Sol     MW14862   1.354   1.321   9.816  0.4820 -0.2094 -0.5326
 2945Sol     OW14863   2.282   2.211   9.175 -0.3820  0.2265  0.4591
 2945Sol     HW14864   2.375   2.230   9.187 -0.3709  1.2620 -1.0263
 2945Sol     HW14865   2.279   2.119   9.151  0.2738  0.1738  0.5849
 2945Sol     MW14866   2.290   2.205   9.174  0.3273 -0.1093 -0.7813
 2946Sol     OW14867   2.733   1.493   8.340 -0.0022 -0.6709  0.0275
 2946Sol     HW14868   2.805   1.552   8.315 -0.0876  0.1842  1.7408
 2946Sol     HW14869   2.656   1.531   8.297 -0.1790  0.9020  1.6686
 2946Sol     MW14870   2.732   1.502   8.334 -0.6153 -0.1189  0.8786
 2947Sol     OW14871   1.011   3.137   6.436 -0.1229  0.3035  0.1280
 2947Sol     HW14872   0.985   3.229   6.433  0.5106  0.4829  0.1294
 2947Sol     HW14873   0.956   3.099   6.504  0.1072  0.8341  0.6174
 2947Sol     MW14874   1.003   3.142   6.441 -0.5578  0.5916 -0.7834
 2948Sol     OW14875   2.819   2.983   6.726 -0.4603  0.0884 -0.4626
 2948Sol     HW14876   2.908   2.974   6.760  0.1770 -0.4434 -2.2249
 2948Sol     HW14877   2.766   2.924   6.780 -0.0308  1.4877  1.5427
 2948Sol     MW14878   2.822   2.977   6.734 -0.1229 -0.8057 -0.4503
 2949Sol     OW14879   2.967   3.451   7.657 -1.1033 -0.0371  0.2073
 2949Sol     HW14880   3.027   3.501   7.601 -0.5982 -2.4507 -1.5294
 2949Sol     HW14881   2.954   3.505   7.735  0.0640  2.3595 -1.2323
 2949Sol     MW14882   2.971   3.460   7.659 -0.3163 -0.2756  0.2902
 2950Sol     OW14883   0.635   2.206   3.687 -0.0492 -0.1601  0.2088
 2950Sol     HW14884   0.608   2.281   3.634 -0.4261 -0.7831 -0.5003
 2950Sol     HW14885   0.604   2.130   3.637 -0.0176 -0.7687  1.1147
 2950Sol     MW14886   0.630   2.206   3.678 -0.3537  0.1149  0.3536
 2951Sol     OW14887   2.119   3.177   8.766  0.2470  0.3889 -0.2263
 2951Sol     HW14888   2.192   3.169   8.704 -0.3545 -1.8261 -0.6722
 2951Sol     HW14889   2.142   3.119   8.838 -0.4309  0.7469  0.2811
 2951Sol     MW14890   2.128   3.171   8.767  0.1310 -0.2339  0.0853
 2952Sol     OW14891   1.397   3.039   2.168 -0.1759 -0.5075 -0.1875
 2952Sol     HW14892   1.346   2.968   2.130  1.1071 -1.6348  0.1627
 2952Sol     HW14893   1.410   3.101   2.096 -1.2364 -0.6472 -0.5053
 2952Sol     MW14894   1.394   3.038   2.158 -0.7067  0.0635 -0.0130
 2953Sol     OW14895   2.821   2.640   6.310 -0.5423 -0.7274 -0.2505
 2953Sol     HW14896   2.774   2.584   6.372 -1.5317  0.2089 -0.1480
 2953Sol     HW14897   2.817   2.727   6.348  0.4794 -0.4738 -0.7095
 2953Sol     MW14898   2.817   2.643   6.319 -0.0752  0.1356  0.1876
 2954Sol     OW14899   0.807   1.682   4.913  0.1966 -0.2125 -1.0576
 2954Sol     HW14900   0.825   1.671   5.007 -0.1305  1.6052 -0.7564
 2954Sol     HW14901   0.893   1.687   4.872  0.3563 -2.8985 -1.1210
 2954Sol     MW14902   0.816   1.681   4.918 -0.9081  0.0765  0.2709
 2955Sol     OW14903   1.823   3.124   4.162 -0.1908 -0.2127 -0.1854
 2955Sol     HW14904   1.862   3.130   4.249 -0.3656 -0.3770 -0.0941
 2955Sol     HW14905   1.840   3.209   4.122 -0.5754  0.0571  0.2090
 2955Sol     MW14906   1.828   3.132   4.166  0.1107  0.3415  0.3280
 2956Sol     OW14907   2.163   1.056   1.842 -0.1324 -0.2616 -0.0323
 2956Sol     HW14908   2.109   1.004   1.783 -0.8539  1.1479 -0.6316
 2956Sol     HW14909   2.101   1.103   1.897  0.4824  0.8360 -0.2578
 2956Sol     MW14910   2.153   1.055   1.842  0.2021 -0.1870  0.5494
 2957Sol     OW14911   2.381   1.704   2.839  0.1225  0.5607 -0.1270
 2957Sol     HW14912   2.379   1.758   2.760 -1.9883  0.6896 -0.0239
 2957Sol     HW14913   2.288   1.687   2.859  0.6051  0.4196  2.2314
 2957Sol     MW14914   2.372   1.707   2.834  0.3248  0.5408 -0.4896
 2958Sol     OW14915   2.552   0.392   6.361 -0.1341  0.1746 -0.1091
 2958Sol     HW14916   2.595   0.357   6.439 -0.4630 -1.2475 -0.5394
 2958Sol     HW14917   2.471   0.341   6.354  0.4688 -0.5544 -2.0537
 2958Sol     MW14918   2.548   0.384   6.367  0.6282  0.1556  0.1101
 2959Sol     OW14919   3.303   0.915   8.379  0.2193  0.2894 -0.3764
 2959Sol     HW14920   3.281   0.894   8.470  1.3244  0.0924 -0.1435
 2959Sol     HW14921   3.284   0.834   8.331 -0.5302  0.4496 -0.3452
 2959Sol     MW14922   3.300   0.905   8.383 -1.2387 -0.2317  0.2023
 2960Sol     OW14923   1.639   1.186   4.420  0.2959 -0.1276  0.1113
 2960Sol     HW14924   1.657   1.103   4.464  1.0622 -1.4616 -2.5697
 2960Sol     HW14925   1.544   1.192   4.417  0.2439 -0.5876  0.9139
 2960Sol     MW14926   1.632   1.179   4.424 -0.4048  0.1504 -0.2084
 2961Sol     OW14927   2.441   3.175   4.872  0.0634 -0.3599  0.2150
 2961Sol     HW14928   2.432   3.156   4.779 -0.2894 -0.1498  0.2042
 2961Sol     HW14929   2.422   3.091   4.915  1.3827 -0.7487  0.0566
 2961Sol     MW14930   2.438   3.165   4.868  0.1170  0.0815 -0.5044
 2962Sol     OW14931   2.523   2.948   7.878  0.0288  0.5200 -0.0995
 2962Sol     HW14932   2.547   3.039   7.900  2.0192  0.0181 -0.0520
 2962Sol     HW14933   2.596   2.896   7.912 -1.4228 -1.1818  0.4967
 2962Sol     MW14934   2.532   2.952   7.883 -0.0037 -0.0455 -0.4702
 2963Sol     OW14935   2.188   1.070   5.421  0.0783  0.1318  0.1494
 2963Sol     HW14936   2.138   1.094   5.343 -0.1810  0.1851  0.3322
 2963Sol     HW14937   2.279   1.089   5.398 -0.1433  1.4615  0.3721
 2963Sol     MW14938   2.191   1.074   5.412  0.3359 -0.2785  0.3596
 2964Sol     OW14939   2.070   0.932   4.341  0.0084  0.3466 -0.2839
 2964Sol     HW14940   2.074   1.024   4.367 -0.9478  0.3786 -0.2322
 2964Sol     HW14941   2.139   0.922   4.276  1.0205  0.7778  0.7139
 2964Sol     MW14942   2.076   0.939   4.338 -0.4404 -0.0283 -0.2042
 2965Sol     OW14943   0.530   2.952   5.046  0.4965 -0.4537 -0.0621
 2965Sol     HW14944   0.542   2.936   4.953 -1.7298  0.4681 -0.5472
 2965Sol     HW14945   0.545   2.867   5.087  0.3214 -1.1338 -1.3860
 2965Sol     MW14946   0.532   2.943   5.042  0.3264 -0.2509  0.2937
 2966Sol     OW14947   2.555   0.832   3.405  0.2544  0.1189 -0.5949
 2966Sol     HW14948   2.616   0.768   3.369  2.3644  2.5550 -1.5161
 2966Sol     HW14949   2.565   0.909   3.348 -1.0246  1.8301  1.4261
 2966Sol     MW14950   2.561   0.833   3.397  0.1145  0.5349  0.4529
 2967Sol     OW14951   0.234   2.403   4.541  0.2511 -0.0470 -0.3413
 2967Sol     HW14952   0.262   2.321   4.583 -0.2433  1.0354  2.2077
 2967Sol     HW14953   0.281   2.405   4.458  2.5475 -1.5119  0.8766
 2967Sol     MW14954   0.241   2.396   4.537  0.2660 -0.0743  0.0289
 2968Sol     OW14955   0.735   0.590   5.601 -0.1566  0.1750  0.0409
 2968Sol     HW14956   0.726   0.523   5.534 -0.6159 -0.4276  0.6984
 2968Sol     HW14957   0.760   0.542   5.680  0.3082  0.8683  0.3208
 2968Sol     MW14958   0.737   0.580   5.602 -0.3595 -0.0394  0.2537
 2969Sol     OW14959   1.157   2.760   2.543 -0.4246 -0.1227 -0.5921
 2969Sol     HW14960   1.240   2.747   2.589 -0.4818  1.1483 -0.1153
 2969Sol     HW14961   1.176   2.829   2.479 -1.8310  2.1756  1.4079
 2969Sol     MW14962   1.166   2.765   2.541 -0.7818  0.2927  0.1212
 2970Sol     OW14963   2.238   0.273   9.255  0.3492 -0.1716  0.2500
 2970Sol     HW14964   2.315   0.305   9.301 -0.6669  0.5924  1.4751
 2970Sol     HW14965   2.173   0.258   9.325 -0.7068 -0.5000 -0.7775
 2970Sol     MW14966   2.239   0.274   9.265 -0.1432 -0.0436  0.4827
 2971Sol     OW14967   0.321   2.974   3.841 -0.3780 -0.3153  0.3281
 2971Sol     HW14968   0.344   3.055   3.794 -1.2471  0.3470  1.0305
 2971Sol     HW14969   0.387   2.967   3.910 -0.5937  0.0405  0.5655
 2971Sol     MW14970   0.329   2.981   3.843 -0.2924 -0.3428 -0.0447
 2972Sol     OW14971   0.391   2.430   6.269 -0.1071  0.0624 -0.0631
 2972Sol     HW14972   0.393   2.414   6.175 -1.0171  1.6910 -0.3707
 2972Sol     HW14973   0.476   2.469   6.289 -0.7211  1.7114 -0.5970
 2972Sol     MW14974   0.399   2.432   6.263  0.1964 -0.4652 -0.2997
 2973Sol     OW14975   3.134   2.099   7.419  0.1151  0.4584 -0.6660
 2973Sol     HW14976   3.113   2.098   7.513  2.1772  0.0010 -0.1976
 2973Sol     HW14977   3.105   2.185   7.390 -0.9346  0.4462  0.2989
 2973Sol     MW14978   3.129   2.107   7.425 -0.0594 -0.2145 -0.1202
 2974Sol     OW14979   1.394   3.139   9.767  0.0732 -0.0103  0.0188
 2974Sol     HW14980   1.384   3.221   9.815  0.7226  0.3225 -0.4126
 2974Sol     HW14981   1.475   3.150   9.717  0.6651 -1.2612  0.6753
 2974Sol     MW14982   1.401   3.147   9.767  0.5402  0.0462 -0.4641
 2975Sol     OW14983   2.432   1.715   3.472 -0.3996  0.5866  0.0064
 2975Sol     HW14984   2.390   1.667   3.400 -0.6841  0.3238  0.3412
 2975Sol     HW14985   2.487   1.650   3.515  0.8086  1.0805 -0.7871
 2975Sol     MW14986   2.433   1.705   3.469 -0.1840 -0.0254  0.1890
 2976Sol     OW14987   3.108   3.079   7.344 -0.2660 -0.0351 -0.0666
 2976Sol     HW14988   3.049   3.153   7.354  2.4331  2.2469 -0.4732
 2976Sol     HW14989   3.109   3.061   7.250  1.0219  1.0948 -0.2827
 2976Sol     MW14990   3.103   3.084   7.337  0.3073  0.0714 -0.4427
 2977Sol     OW14991   0.207   1.774   5.547 -0.5611 -0.6675 -0.0533
 2977Sol     HW14992   0.168   1.743   5.628  0.4617 -0.9137  0.3517
 2977Sol     HW14993   0.149   1.844   5.517 -0.2971  0.2292  1.5010
 2977Sol     MW14994   0.198   1.778   5.551 -0.0644  0.6444 -0.2093
 2978Sol     OW14995   1.448   0.148   1.971 -0.0705 -0.2239  0.2178
 2978Sol     HW14996   1.370   0.099   1.946 -0.6155  0.3025  0.9048
 2978Sol     HW14997   1.514   0.122   1.906  0.1084 -3.0843  1.4638
 2978Sol     MW14998   1.447   0.141   1.963  0.1301 -0.4763 -0.1720
 2979Sol     OW14999   2.578   2.643   5.210 -1.1846 -0.1037 -0.0194
 2979Sol     HW15000   2.575   2.547   5.212  0.9084 -0.2663 -2.3112
 2979Sol     HW15001   2.668   2.664   5.185 -1.7910  2.4673 -0.2115
 2979Sol     MW15002   2.586   2.636   5.208 -0.4100 -0.7617  0.2471
 2980Sol     OW15003   2.190   3.227   1.507  0.5893  0.4646 -0.0947
 2980Sol     HW15004   2.241   3.259   1.582 -0.1393  0.7172  0.3013
 2980Sol     HW15005   2.115   3.285   1.503  1.5341  1.5942 -2.1609
 2980Sol     MW15006   2.188   3.235   1.514 -0.2689 -0.5337 -0.2766
 2981Sol     OW15007   0.118   0.433   8.947 -0.8413 -0.0673  0.3683
 2981Sol     HW15008   0.039   0.400   8.990 -2.3488  0.6438 -1.7579
 2981Sol     HW15009   0.149   0.360   8.894 -0.6765 -0.0157  0.3950
 2981Sol     MW15010   0.114   0.424   8.946  0.0909 -0.4430  0.0395
 2982Sol     OW15011   2.508   2.946   6.633  0.0406 -0.3956 -0.3477
 2982Sol     HW15012   2.468   3.017   6.683 -0.5977 -0.0985 -1.2841
 2982Sol     HW15013   2.563   2.900   6.697  1.3066  1.5858  0.0146
 2982Sol     MW15014   2.510   2.948   6.643  0.3960 -0.2371  0.3433
 2983Sol     OW15015   0.978   0.498   7.272  0.2486 -0.3926 -0.5862
 2983Sol     HW15016   0.923   0.560   7.224 -1.1995 -1.3630 -0.2090
 2983Sol     HW15017   0.941   0.412   7.253  0.4701 -0.9035  1.1578
 2983Sol     MW15018   0.970   0.496   7.266 -0.0712 -0.1825 -0.3442
 2984Sol     OW15019   0.548   1.852   2.526  0.1268 -0.2421  0.0884
 2984Sol     HW15020   0.461   1.842   2.565  0.5856 -0.1817  1.1633
 2984Sol     HW15021   0.570   1.944   2.540  0.0003 -0.0568 -0.9583
 2984Sol     MW15022   0.543   1.859   2.531 -0.0663 -0.9711 -0.2010
 2985Sol     OW15023   0.858   0.349   5.738 -0.2700 -0.0621  0.3151
 2985Sol     HW15024   0.943   0.391   5.753 -0.2996  0.6258 -1.3445
 2985Sol     HW15025   0.847   0.290   5.813  2.4430 -1.4185 -0.2716
 2985Sol     MW15026   0.865   0.347   5.746  0.3754 -0.0032  0.5261
 2986Sol     OW15027   0.903   2.212   3.525  0.1562 -0.1471 -0.5230
 2986Sol     HW15028   0.866   2.126   3.543  0.0875  0.0559  0.3097
 2986Sol     HW15029   0.951   2.235   3.604 -0.8898  1.1409 -0.2391
 2986Sol     MW15030   0.904   2.207   3.534 -0.6121  0.5924 -0.2941
 2987Sol     OW15031   0.912   3.014   9.732 -0.2132  0.5055 -0.6003
 2987Sol     HW15032   0.892   3.107   9.723 -0.1886  0.6220  0.5804
 2987Sol     HW15033   0.998   3.004   9.690 -0.1855  1.0250 -0.6640
 2987Sol     MW15034   0.918   3.021   9.727  0.1280  0.1078  0.0198
 2988Sol     OW15035   1.788   0.752   8.345  0.2162 -0.2857  0.3872
 2988Sol     HW15036   1.701   0.784   8.367 -0.7388 -1.9380 -0.9457
 2988Sol     HW15037   1.789   0.745   8.250  1.7372 -0.4926  0.3960
 2988Sol     MW15038   1.781   0.754   8.339 -0.5682 -0.6835  0.3666
 2989Sol     OW15039   2.889   1.250   5.283 -0.2084 -0.2574 -0.3104
 2989Sol     HW15040   2.959   1.202   5.238 -0.1531  0.4409 -0.9775
 2989Sol     HW15041   2.841   1.183   5.331  1.4210 -0.6547  0.8321
 2989Sol     MW15042   2.891   1.240   5.283  0.1614 -0.2195  0.3256
 2990Sol     OW15043   0.951   1.281   9.641  0.3541  0.0252  0.2881
 2990Sol     HW15044   0.874   1.226   9.651  0.1539  0.3203  0.3560
 2990Sol     HW15045   0.919   1.371   9.650  0.6215  0.1717 -0.1811
 2990Sol     MW15046   0.941   1.284   9.643 -0.3622 -0.1409 -0.3327
 2991Sol     OW15047   0.891   2.527   6.755 -0.2650  0.5205  0.0515
 2991Sol     HW15048   0.877   2.503   6.846  1.1583 -2.6859 -0.4724
 2991Sol     HW15049   0.984   2.548   6.750 -0.3056  0.5495 -0.6627
 2991Sol     MW15050   0.898   2.526   6.762 -0.0792  0.2844 -0.5368
 2992Sol     OW15051   0.736   1.756   4.133 -0.1259  0.1054  0.3279
 2992Sol     HW15052   0.816   1.743   4.081  0.1872  1.0061  0.5727
 2992Sol     HW15053   0.718   1.850   4.126 -2.5153 -0.4574 -1.6818
 2992Sol     MW15054   0.742   1.763   4.128  0.4210 -0.3516  0.3157
 2993Sol     OW15055   1.065   3.346   7.077 -0.1297  0.1808 -0.2908
 2993Sol     HW15056   1.057   3.277   7.143 -0.1566  0.2630 -0.2076
 2993Sol     HW15057   0.979   3.388   7.076  0.1484  0.7826  0.2922
 2993Sol     MW15058   1.056   3.344   7.083  0.1117  0.6830 -0.1095
 2994Sol     OW15059   0.504   0.873   8.537  0.4302 -0.3315  0.3197
 2994Sol     HW15060   0.589   0.906   8.510  0.4747 -0.1466  0.6990
 2994Sol     HW15061   0.519   0.780   8.554  0.6210 -0.2291  0.6958
 2994Sol     MW15062   0.513   0.867   8.536  0.1232 -0.1391 -0.0515
 2995Sol     OW15063   3.021   2.204   9.413 -0.0501  0.4734  0.6499
 2995Sol     HW15064   2.972   2.130   9.450  0.4913  0.1969  0.8265
 2995Sol     HW15065   3.104   2.204   9.461 -0.1504  1.3654  0.8373
 2995Sol     MW15066   3.024   2.197   9.421 -0.2892  0.3837  0.2829
 2996Sol     OW15067   1.112   1.121   3.281 -0.2535 -0.0399 -0.0856
 2996Sol     HW15068   1.099   1.215   3.293 -0.9685  0.1135 -2.0552
 2996Sol     HW15069   1.055   1.097   3.208 -0.0090 -1.9937  0.3367
 2996Sol     MW15070   1.106   1.128   3.276 -0.7551 -0.1093  0.4515
 2997Sol     OW15071   3.295   1.199   9.188  0.2492  0.9460 -0.3886
 2997Sol     HW15072   3.371   1.155   9.225  0.5359  0.2175 -1.8258
 2997Sol     HW15073   3.232   1.129   9.171 -0.1173  1.3507 -0.7016
 2997Sol     MW15074   3.296   1.189   9.190  1.4552 -0.3095 -0.3016
 2998Sol     OW15075   0.285   0.988   1.807  0.3715 -0.1386 -0.5523
 2998Sol     HW15076   0.327   0.902   1.800  1.3050  0.0334  2.1084
 2998Sol     HW15077   0.281   1.021   1.717  0.6488 -2.6549 -1.5215
 2998Sol     MW15078   0.289   0.983   1.799 -0.3295  0.1735  0.6276
 2999Sol     OW15079   0.375   0.635   7.279  0.4089  0.5325  0.1004
 2999Sol     HW15080   0.294   0.588   7.260  0.6951 -1.3495  3.1191
 2999Sol     HW15081   0.440   0.595   7.221 -0.6540  1.6753 -1.9398
 2999Sol     MW15082   0.374   0.627   7.272 -0.1165 -0.4586 -0.1984
 3000Sol     OW15083   2.048   0.531   8.120  0.1784 -0.0099  0.4054
 3000Sol     HW15084   2.097   0.612   8.106  0.1266 -0.1345 -0.4993
 3000Sol     HW15085   2.104   0.478   8.177  0.2758  0.6007  0.8725
 3000Sol     MW15086   2.057   0.533   8.124 -0.0560 -0.6591 -0.1069
 3001Sol     OW15087   0.961   2.958   2.091  0.3337  0.1856  0.2744
 3001Sol     HW15088   0.899   3.030   2.078 -1.5818 -1.0780  2.0695
 3001Sol     HW15089   0.969   2.916   2.005 -1.4696  0.2395  0.0753
 3001Sol     MW15090   0.956   2.961   2.082  0.4395  0.7087 -0.0263
   3.32770   3.45240  11.35450
