Water-ethanol mixture in organosilica
15108
    1Sil     Ob    1   2.038   0.488  11.209 -0.3880  0.4417  0.7562
    1Sil     Ob    2   2.636   0.492  10.392 -0.1159 -0.0272 -0.2099
    1Sil     Ob    3   1.859   0.979  10.758  0.2323 -0.2940  0.5994
    1Sil     Ob    4   2.410   0.967  11.143  0.0304  1.2153  0.6071
    1Sil     Ob    5   2.229   0.865  10.387 -0.1083  0.2705  0.1159
    1Sil     Ob    6   2.217   0.823  11.239 -0.6153 -0.3603  0.9808
    1Sil     Ob    7   1.981   0.806  10.437  0.0302  0.9825 -0.0398
    1Sil     Ob    8   2.518   0.792  10.848  0.0040 -0.9573 -0.2178
    1Sil     Ob    9   2.010   0.551  10.955  0.0095  0.6766  0.2889
    1Sil     Ob   10   2.296   0.564  10.559  0.3260  0.7538 -0.4970
    1Sil     Ob   11   1.994   0.733  11.135 -0.3767  0.4338 -0.0550
    1Sil     Ob   12   1.747   0.725  10.351  0.3085  0.0952 -0.2260
    1Sil     Ob   13   2.340   0.628  10.801 -0.1239  0.0603  0.2050
    1Sil     Ob   14   1.934   0.735  10.788  0.5643  0.4720  0.4325
    1Sil     Ob   15   2.448   0.726  11.211 -0.4498  0.3719 -0.5527
    1Sil     Ob   16   2.152   0.629  10.357 -0.4424  0.1212  0.1346
    1Sil     Ob   17   2.397   0.558  10.322 -0.8788  0.3761  0.3023
    1Sil     Ob   18   1.815   0.563  11.116  0.7105 -0.3815  0.4496
    1Sil     Ob   19   2.109   0.557  10.721 -0.8779  0.7164 -0.3988
    1Sil     Ob   20   1.771   0.805  10.601 -0.1169  0.2905 -0.5203
    1Sil     Ob   21   2.307   0.773  11.003 -0.0225  0.1436 -0.1407
    1Sil     Ob   22   1.989   0.483  12.415  0.4729  0.0491 -0.1085
    1Sil     Ob   23   2.561   0.487  11.612  0.2996 -0.2288 -0.8740
    1Sil     Ob   24   1.810   0.965  11.959 -0.7989 -0.0073  0.2871
    1Sil     Ob   25   2.338   0.982  12.358  0.5603 -0.8867 -0.6860
    1Sil     Ob   26   2.171   0.876  11.558  0.1548 -0.2793  0.2088
    1Sil     Ob   27   2.175   0.792  12.428 -0.2746  0.3879  0.5023
    1Sil     Ob   28   1.932   0.811  11.621 -0.3338 -0.1927  0.5095
    1Sil     Ob   29   2.464   0.789  12.033  0.1476 -0.4517  0.0222
    1Sil     Ob   30   1.955   0.548  12.156 -0.5419 -0.1746  0.3355
    1Sil     Ob   31   2.535   0.543  11.361 -0.6431  0.3881 -0.1440
    1Sil     Ob   32   2.242   0.575  11.740 -0.4231 -0.0018  0.0965
    1Sil     Ob   33   1.951   0.728  12.338  0.1095 -0.6866  0.4342
    1Sil     Ob   34   1.705   0.732  11.531 -0.1595 -0.0957 -0.1372
    1Sil     Ob   35   2.270   0.620  11.999  0.2946 -0.3646 -0.2685
    1Sil     Ob   36   1.873   0.717  11.985  1.0846  0.6807  0.2810
    1Sil     Ob   37   2.422   0.739  12.360  0.0712  0.5765  0.2047
    1Sil     Ob   38   2.095   0.633  11.540 -0.1923 -0.2112  0.2844
    1Sil     Ob   39   2.338   0.573  11.509  0.3822 -0.0734  0.4916
    1Sil     Ob   40   1.755   0.567  12.316 -0.0733 -0.4743 -0.2964
    1Sil     Ob   41   2.040   0.543  11.905  0.2177 -0.0462  0.5905
    1Sil     Ob   42   1.724   0.802  11.783 -0.4951  0.8827 -0.1932
    1Sil     Ob   43   2.247   0.813  12.184 -0.2433 -0.5813  0.5119
    1Sil     Ob   44   2.006   0.813  11.377  0.1886  0.0127  0.0101
    1Sil     Ob   45   2.039   0.992  11.195 -0.2350 -0.5379 -0.2774
    1Sil     Ob   46   2.633   0.971  10.406  0.0144  0.5746 -0.5261
    1Sil     Ob   47   2.287   0.867  10.760  0.4844 -0.0517 -0.3355
    1Sil     Ob   48   1.863   1.475  10.771  0.7092  0.6397 -0.5505
    1Sil     Ob   49   2.403   1.471  11.175  0.4463 -0.3343  0.2680
    1Sil     Ob   50   2.212   1.364  10.390 -0.2442 -0.2037 -0.1285
    1Sil     Ob   51   2.218   1.297  11.228  0.1198 -0.4399 -0.2015
    1Sil     Ob   52   1.974   1.287  10.435 -0.0033 -0.4522 -0.2323
    1Sil     Ob   53   2.524   1.286  10.839  0.2370  0.9203  0.2871
    1Sil     Ob   54   2.013   1.063  10.949  0.0309  0.3454 -0.1337
    1Sil     Ob   55   2.313   1.037  10.567  0.0568 -0.3644  0.2085
    1Sil     Ob   56   1.980   1.238  11.138  0.5670  0.6032  0.3533
    1Sil     Ob   57   1.741   1.225  10.348 -0.0067 -0.1868 -0.1174
    1Sil     Ob   58   2.334   1.114  10.805 -0.6152 -0.0554 -0.3451
    1Sil     Ob   59   1.935   1.230  10.779 -0.4122 -0.1603  0.2133
    1Sil     Ob   60   2.464   1.215  11.193  0.3326  0.2942 -0.0234
    1Sil     Ob   61   2.155   1.115  10.374 -0.3896  0.2543 -0.2854
    1Sil     Ob   62   2.396   1.035  10.311 -0.4074 -1.1692  0.1339
    1Sil     Ob   63   1.814   1.055  11.103  0.8734 -0.2815  0.2782
    1Sil     Ob   64   2.102   1.046  10.708  0.1005  0.2506 -0.0424
    1Sil     Ob   65   1.775   1.321  10.594  0.2402 -0.6947 -0.4736
    1Sil     Ob   66   2.315   1.309  10.984 -0.7541 -0.2408  0.3787
    1Sil     Ob   67   2.006   0.976  12.398  0.6629 -0.5967 -0.7415
    1Sil     Ob   68   2.570   0.985  11.609 -0.1129 -0.2514 -0.7814
    1Sil     Ob   69   2.235   0.869  11.926  0.0715  0.4164  0.2355
    1Sil     Ob   70   1.797   1.461  11.950  0.9356 -0.2879 -0.4648
    1Sil     Ob   71   2.330   1.475  12.341 -1.1484  0.5262  0.7131
    1Sil     Ob   72   2.173   1.371  11.570 -0.2525  0.1899 -0.1502
    1Sil     Ob   73   2.160   1.298  12.427  0.1723  0.0191  0.5592
    1Sil     Ob   74   1.935   1.294  11.622 -0.4420 -0.5706 -0.0740
    1Sil     Ob   75   2.463   1.280  12.026  0.0649  0.2317  0.2640
    1Sil     Ob   76   1.964   1.041  12.155  0.0110  0.0396  0.4078
    1Sil     Ob   77   2.543   1.034  11.351 -0.3510 -0.1910 -0.4584
    1Sil     Ob   78   2.260   1.037  11.742  0.8313 -0.5368  0.4391
    1Sil     Ob   79   1.927   1.226  12.346  0.3955 -0.1866  0.1223
    1Sil     Ob   80   1.700   1.226  11.530  0.1129 -0.7411  0.2053
    1Sil     Ob   81   2.286   1.105  11.996  0.4555 -0.3432 -0.3248
    1Sil     Ob   82   1.885   1.216  11.976  0.2569  0.2572  0.4875
    1Sil     Ob   83   2.396   1.220  12.384 -0.1963  0.0780 -0.0732
    1Sil     Ob   84   2.104   1.123  11.549  0.3833  0.4939 -0.0137
    1Sil     Ob   85   2.344   1.064  11.502  1.0049 -0.1912 -0.2220
    1Sil     Ob   86   1.764   1.036  12.332  0.5387  0.0881 -0.2131
    1Sil     Ob   87   2.053   1.035  11.905  0.2430  0.0239  0.5796
    1Sil     Ob   88   1.730   1.288  11.777 -0.4493 -0.4188 -0.7514
    1Sil     Ob   89   2.247   1.281  12.185  0.5798  0.8906 -0.3789
    1Sil     Ob   90   2.013   1.306  11.382 -0.4585  0.3180  0.8732
    1Sil     Ob   91   2.047   1.478  11.198 -0.0431 -0.0535  0.2372
    1Sil     Ob   92   2.617   1.464  10.405 -0.7462 -0.0604 -0.1853
    1Sil     Ob   93   2.295   1.362  10.739 -0.4908  0.0398  0.5350
    1Sil     Ob   94   1.851   1.971  10.764  0.3719 -0.0899 -0.1160
    1Sil     Ob   95   2.402   1.963  11.155  0.1147 -0.4469 -0.0167
    1Sil     Ob   96   2.228   1.862  10.383  0.7050 -0.0855 -0.2257
    1Sil     Ob   97   2.231   1.781  11.232  0.1164  0.4049  0.2247
    1Sil     Ob   98   1.987   1.795  10.436 -0.3002  0.4320  0.0391
    1Sil     Ob   99   2.524   1.800  10.833 -0.1633  0.6070 -0.3449
    1Sil     Ob  100   2.014   1.556  10.960 -0.4908  0.5118 -0.1442
    1Sil     Ob  101   2.302   1.535  10.559  0.2811  0.2088 -0.7011
    1Sil     Ob  102   1.997   1.718  11.142 -0.5175 -0.2851  0.1838
    1Sil     Ob  103   1.756   1.724  10.336 -0.2406 -0.2203 -0.0581
    1Sil     Ob  104   2.348   1.615  10.796  0.2935  0.4132 -0.0824
    1Sil     Ob  105   1.928   1.728  10.798 -0.2716 -0.4563 -0.5738
    1Sil     Ob  106   2.474   1.722  11.181  0.2815 -0.3827  0.1756
    1Sil     Ob  107   2.145   1.614  10.372  0.0260  0.1235  0.6016
    1Sil     Ob  108   2.382   1.535  10.310 -0.7322 -0.8632 -0.3319
    1Sil     Ob  109   1.812   1.540  11.116 -0.2043 -0.2904 -0.5307
    1Sil     Ob  110   2.105   1.537  10.721 -0.3157 -0.5794 -0.1519
    1Sil     Ob  111   1.778   1.795  10.590  0.2595 -0.0979  0.0477
    1Sil     Ob  112   2.315   1.783  10.988 -0.2437 -0.0517  0.1725
    1Sil     Ob  113   1.970   1.478  12.411 -0.3377 -0.0427 -0.0777
    1Sil     Ob  114   2.574   1.476  11.604 -0.5667 -0.3245  0.4758
    1Sil     Ob  115   2.237   1.360  11.941 -0.2744 -0.2905 -0.1919
    1Sil     Ob  116   1.807   1.949  11.944 -0.1962  0.1179 -0.3682
    1Sil     Ob  117   2.356   1.964  12.334  0.0899 -0.9098 -0.3105
    1Sil     Ob  118   2.166   1.866  11.570  0.1356  0.2988  0.5775
    1Sil     Ob  119   2.182   1.793  12.425 -0.1159 -0.0855 -0.1608
    1Sil     Ob  120   1.930   1.802  11.637  0.0502 -0.0558  0.4004
    1Sil     Ob  121   2.472   1.789  12.032  0.2299 -0.1817  0.5454
    1Sil     Ob  122   1.954   1.539  12.157 -0.0639 -0.7803  0.0296
    1Sil     Ob  123   2.561   1.558  11.360  0.2252 -0.5980  0.0849
    1Sil     Ob  124   2.260   1.533  11.752 -0.2913 -0.6314  0.8536
    1Sil     Ob  125   1.955   1.723  12.336  0.6755 -0.3134  0.7007
    1Sil     Ob  126   1.702   1.719  11.534  0.2605 -0.3839 -0.5658
    1Sil     Ob  127   2.295   1.607  11.996 -0.3518  0.0051  0.1720
    1Sil     Ob  128   1.872   1.706  11.992  0.3042  0.0592 -0.2902
    1Sil     Ob  129   2.412   1.715  12.372  0.3629  0.1017 -0.0003
    1Sil     Ob  130   2.102   1.615  11.568 -0.6102  0.3921 -0.1998
    1Sil     Ob  131   2.351   1.537  11.507  0.1171 -0.7016 -0.2098
    1Sil     Ob  132   1.756   1.560  12.300  0.0021 -0.1655 -0.1167
    1Sil     Ob  133   2.050   1.540  11.914  0.3096  0.4141  0.3323
    1Sil     Ob  134   1.726   1.776  11.784  0.2582  0.3224  0.1665
    1Sil     Ob  135   2.252   1.784  12.176  0.2275 -0.4377  0.2636
    1Sil     Ob  136   2.014   1.793  11.389  0.2767  0.0130  0.1476
    1Sil     Ob  137   2.052   1.967  11.198  0.0872 -0.2548  0.3311
    1Sil     Ob  138   2.633   1.972  10.392  0.0960  0.0692  0.2337
    1Sil     Ob  139   2.292   1.864  10.738  0.3046  0.3984  0.4984
    1Sil     Ob  140   1.851   2.454  10.768 -0.5424  0.5491  0.1470
    1Sil     Ob  141   2.401   2.462  11.152  0.1821  0.0713 -0.1411
    1Sil     Ob  142   2.232   2.359  10.390 -0.2585 -0.7112 -0.3976
    1Sil     Ob  143   2.220   2.292  11.231  0.1448  0.3720 -0.3760
    1Sil     Ob  144   1.981   2.278  10.439 -0.0393 -0.2542  0.1710
    1Sil     Ob  145   2.518   2.296  10.844  0.9725  0.5279 -0.3139
    1Sil     Ob  146   2.009   2.030  10.956 -0.0653 -1.0024 -0.3761
    1Sil     Ob  147   2.303   2.041  10.562  0.1646 -0.4591  0.4184
    1Sil     Ob  148   1.990   2.216  11.142 -0.2096 -0.1628  0.6117
    1Sil     Ob  149   1.740   2.212  10.349  0.0180 -0.0322  0.5558
    1Sil     Ob  150   2.337   2.111  10.807  0.5543 -0.4396 -0.4558
    1Sil     Ob  151   1.925   2.213  10.783 -0.1448  0.1612 -0.0937
    1Sil     Ob  152   2.466   2.209  11.188 -0.3542 -0.1837 -0.1342
    1Sil     Ob  153   2.158   2.113  10.350  0.2004 -0.3362  0.1633
    1Sil     Ob  154   2.394   2.041  10.303 -0.2842 -0.1187  0.3067
    1Sil     Ob  155   1.807   2.029  11.121 -0.8358  0.3114 -0.1647
    1Sil     Ob  156   2.096   2.040  10.710  0.1509  0.0185  0.0983
    1Sil     Ob  157   1.770   2.282  10.599  0.3955 -0.9052 -0.7879
    1Sil     Ob  158   2.310   2.276  10.996 -0.0814  0.4820 -0.2326
    1Sil     Ob  159   2.000   1.963  12.397 -0.0247 -0.2338  0.0652
    1Sil     Ob  160   2.573   1.969  11.605  0.4419  0.2422  0.4409
    1Sil     Ob  161   2.238   1.858  11.926 -0.9008  0.4061  0.7649
    1Sil     Ob  162   1.801   2.442  11.973  0.3932 -0.2201 -0.6489
    1Sil     Ob  163   2.360   2.454  12.342  0.0044  0.2851 -0.1675
    1Sil     Ob  164   2.168   2.358  11.571 -0.4699 -0.5992 -0.1617
    1Sil     Ob  165   2.178   2.273  12.415  0.2390  0.1021 -0.0747
    1Sil     Ob  166   1.925   2.278  11.632 -0.9015 -0.2051  0.1927
    1Sil     Ob  167   2.471   2.251  12.016  0.1169 -0.8011 -0.0306
    1Sil     Ob  168   1.954   2.011  12.147  0.4198 -0.1035  0.0295
    1Sil     Ob  169   2.552   2.048  11.355 -0.4665 -0.7971  0.1358
    1Sil     Ob  170   2.250   2.037  11.736 -0.1974 -0.3733 -0.0135
    1Sil     Ob  171   1.948   2.196  12.328 -0.6017 -0.0883  0.1684
    1Sil     Ob  172   1.699   2.209  11.542 -0.1057  0.3169  0.5401
    1Sil     Ob  173   2.274   2.096  11.989 -0.1589 -1.0128 -0.2638
    1Sil     Ob  174   1.882   2.190  11.981  0.4384  0.1465  0.0173
    1Sil     Ob  175   2.421   2.205  12.360  0.3378 -0.2617  0.3553
    1Sil     Ob  176   2.099   2.110  11.540  0.4923  0.1673 -0.4035
    1Sil     Ob  177   2.344   2.045  11.499 -0.2700  0.3530  0.2541
    1Sil     Ob  178   1.762   2.021  12.322 -0.3459  0.4383 -0.0350
    1Sil     Ob  179   2.049   2.019  11.899 -0.1442  0.4287  0.1804
    1Sil     Ob  180   1.720   2.271  11.788 -1.0332  0.0246 -0.2098
    1Sil     Ob  181   2.271   2.280  12.172  0.3468  0.1411 -0.4457
    1Sil     Ob  182   2.003   2.292  11.387  0.2430  0.5042  0.5657
    1Sil     Ob  183   2.035   2.467  11.201  0.5837 -0.3210  0.0765
    1Sil     Ob  184   2.625   2.456  10.415 -0.4111 -0.0507  0.4882
    1Sil     Ob  185   2.280   2.347  10.759  0.1453  0.1868  0.6888
    1Sil     Ob  186   1.856   2.947  10.768  0.6609  0.0389 -0.0668
    1Sil     Ob  187   2.399   2.957  11.151 -0.2661 -0.3238  0.2798
    1Sil     Ob  188   2.202   2.847  10.404 -0.2530 -0.3488  0.4397
    1Sil     Ob  189   2.210   2.786  11.232 -0.5084  0.2126 -0.2787
    1Sil     Ob  190   1.968   2.756  10.443 -0.2178  0.0715 -0.1812
    1Sil     Ob  191   2.515   2.761  10.860  0.4828  0.2623  0.4346
    1Sil     Ob  192   2.002   2.532  10.957 -0.1149 -0.3623 -0.0344
    1Sil     Ob  193   2.302   2.528  10.572 -0.4135  0.0917 -0.0352
    1Sil     Ob  194   1.981   2.710  11.142  0.6430  0.5445  0.4151
    1Sil     Ob  195   1.737   2.704  10.345 -0.0336 -0.0363 -0.2674
    1Sil     Ob  196   2.318   2.595  10.820 -0.6176 -0.1679  0.0672
    1Sil     Ob  197   1.930   2.700  10.785  0.2017  0.5722  0.8464
    1Sil     Ob  198   2.463   2.706  11.183  0.1815  0.0656  0.3521
    1Sil     Ob  199   2.149   2.598  10.367  0.2106  0.2311  0.0265
    1Sil     Ob  200   2.389   2.546  10.330  0.9008  0.2222  0.4795
    1Sil     Ob  201   1.802   2.523  11.111 -0.0394 -0.0569 -0.1623
    1Sil     Ob  202   2.093   2.521  10.721  0.0478 -0.5863 -0.2968
    1Sil     Ob  203   1.763   2.773  10.595  0.2275  0.6006  0.0806
    1Sil     Ob  204   2.300   2.771  10.988  0.2204 -0.1242 -1.0948
    1Sil     Ob  205   1.999   2.447  12.376 -0.3448 -0.2613 -0.3930
    1Sil     Ob  206   2.576   2.457  11.595  0.0516  0.0505 -0.3458
    1Sil     Ob  207   2.245   2.342  11.922  0.1674  0.0240 -0.2257
    1Sil     Ob  208   1.810   2.939  11.955  0.0034 -0.7669  0.5290
    1Sil     Ob  209   2.349   2.940  12.341 -0.5017 -0.6074 -1.0831
    1Sil     Ob  210   2.165   2.852  11.570  0.8080 -0.5834  0.8372
    1Sil     Ob  211   2.172   2.771  12.429  0.1339 -0.2312 -0.3215
    1Sil     Ob  212   1.919   2.779  11.628 -0.1800  0.4043 -0.0478
    1Sil     Ob  213   2.467   2.753  12.030 -0.1678 -0.0745  0.6560
    1Sil     Ob  214   1.960   2.538  12.145 -0.4069 -0.2519  0.2868
    1Sil     Ob  215   2.544   2.543  11.360  0.0916 -0.3447 -0.4270
    1Sil     Ob  216   2.240   2.538  11.742 -0.0531  0.1060  0.3576
    1Sil     Ob  217   1.931   2.701  12.353  0.0043 -0.1372  0.1599
    1Sil     Ob  218   1.696   2.706  11.540  0.0786  0.0353 -0.2325
    1Sil     Ob  219   2.268   2.583  11.993  0.6625  0.0360 -0.4260
    1Sil     Ob  220   1.876   2.694  11.975  0.1365  0.0633 -0.3570
    1Sil     Ob  221   2.415   2.701  12.386 -0.1790 -0.0405  0.2927
    1Sil     Ob  222   2.090   2.603  11.547 -0.3435  0.8446  0.3608
    1Sil     Ob  223   2.336   2.531  11.505 -0.0705  0.3076  0.2274
    1Sil     Ob  224   1.751   2.517  12.313 -0.2618 -0.0521 -0.2373
    1Sil     Ob  225   2.038   2.501  11.907 -0.0185  0.7870 -0.7449
    1Sil     Ob  226   1.721   2.771  11.787  0.2741  0.6245 -0.4086
    1Sil     Ob  227   2.256   2.764  12.184 -0.2445 -0.2003 -0.7371
    1Sil     Ob  228   2.003   2.775  11.387 -0.0061 -0.3032 -0.2852
    1Sil     Ob  229   2.016   2.956  11.215  0.2806  0.2744 -0.4480
    1Sil     Ob  230   2.625   2.935  10.423  0.2136 -0.7904  0.4671
    1Sil     Ob  231   2.299   2.841  10.741 -0.3669  0.4029 -0.0258
    1Sil     Ob  232   1.846   3.446  10.760  0.5607 -0.4051 -0.4218
    1Sil     Ob  233   2.398   3.443  11.144 -0.6927  0.2496 -0.1476
    1Sil     Ob  234   2.233   3.348  10.377 -0.1236 -0.1535 -0.3169
    1Sil     Ob  235   2.217   3.260  11.233 -0.4624 -0.0085  0.9730
    1Sil     Ob  236   1.994   3.289  10.435 -0.2938 -0.1280 -0.1260
    1Sil     Ob  237   2.513   3.257  10.839  0.2694 -0.4791 -0.1779
    1Sil     Ob  238   2.004   3.021  10.967  0.3480  0.7044 -0.7311
    1Sil     Ob  239   2.295   3.022  10.565 -0.1110  0.3708  0.0435
    1Sil     Ob  240   1.988   3.203  11.139 -0.3545 -0.2973 -0.3810
    1Sil     Ob  241   1.761   3.192  10.338  0.7634  0.2538  0.2554
    1Sil     Ob  242   2.338   3.084  10.800 -0.0829  0.4428 -0.3311
    1Sil     Ob  243   1.925   3.200  10.786  0.0048  0.0209  0.1903
    1Sil     Ob  244   2.469   3.199  11.180  0.1260  0.2945  0.3560
    1Sil     Ob  245   2.148   3.100  10.373 -0.0575  0.5747 -0.1092
    1Sil     Ob  246   2.386   3.017  10.334 -0.1797 -0.0287 -0.3512
    1Sil     Ob  247   1.799   3.033  11.117 -0.0270  0.1176  0.1799
    1Sil     Ob  248   2.103   3.004  10.732  0.4404 -0.3314  0.1405
    1Sil     Ob  249   1.785   3.254  10.588 -0.6670 -0.2848  0.5483
    1Sil     Ob  250   2.310   3.259  10.992  0.5505  0.2165  0.0598
    1Sil     Ob  251   1.996   2.947  12.391  0.2867  0.5023 -0.0247
    1Sil     Ob  252   2.581   2.952  11.606 -0.4720  0.0531 -0.1171
    1Sil     Ob  253   2.236   2.836  11.933 -0.2893  0.4996  0.2155
    1Sil     Ob  254   1.807   3.432  11.970 -0.1324  0.4381 -0.2099
    1Sil     Ob  255   2.347   3.441  12.336  0.2188 -0.1846 -0.2812
    1Sil     Ob  256   2.166   3.337  11.573  0.0497  0.4291  0.6064
    1Sil     Ob  257   2.178   3.272  12.419 -0.5835  0.3235 -0.3866
    1Sil     Ob  258   1.933   3.270  11.633 -0.2610 -0.3629  0.0687
    1Sil     Ob  259   2.478   3.262  12.026 -0.2027 -0.7175  0.3905
    1Sil     Ob  260   1.962   3.006  12.153 -0.1987 -0.1128  0.5229
    1Sil     Ob  261   2.554   3.015  11.352 -0.1803  0.6335 -0.1167
    1Sil     Ob  262   2.252   3.016  11.745  0.1129  0.2045  0.7012
    1Sil     Ob  263   1.947   3.194  12.336 -0.2060  0.1996 -0.1226
    1Sil     Ob  264   1.705   3.196  11.536 -0.4314  0.4811  0.1853
    1Sil     Ob  265   2.297   3.086  11.983 -0.3243 -0.1828  0.1882
    1Sil     Ob  266   1.880   3.179  11.996  0.7508 -0.1852 -0.6979
    1Sil     Ob  267   2.419   3.192  12.354 -0.2317  0.2909 -0.7352
    1Sil     Ob  268   2.102   3.097  11.551  0.3641  0.4736 -0.0028
    1Sil     Ob  269   2.349   3.027  11.506  0.3618 -0.0675 -0.3359
    1Sil     Ob  270   1.768   3.010  12.307  0.3642  0.1019 -0.7671
    1Sil     Ob  271   2.060   3.020  11.904 -0.1005 -0.3862 -0.3504
    1Sil     Ob  272   1.736   3.252  11.797  0.1561 -0.2486  0.2456
    1Sil     Ob  273   2.256   3.269  12.167  0.4772 -0.8190  0.0115
    1Sil     Ob  274   2.012   3.270  11.383 -0.0086  0.6701  0.1010
    1Sil     Ob  275   2.043   3.439  11.193  0.2194 -0.1486 -0.1956
    1Sil     Ob  276   2.635   3.440  10.423 -0.3109 -0.1653 -0.0698
    1Sil     Ob  277   2.283   3.326  10.747 -0.4798  0.1791 -0.0217
    1Sil     Ob  278   2.228   0.307  11.234  0.3540 -0.1581 -0.2780
    1Sil     Ob  279   1.977   0.319  10.443  0.2087  0.0983 -1.0124
    1Sil     Ob  280   2.515   0.282  10.830 -0.6327  0.4945  0.7176
    1Sil     Ob  281   2.007   3.525  10.954 -0.4931  0.1182  0.3735
    1Sil     Ob  282   2.312   3.496  10.562  0.3796 -0.4417 -0.0123
    1Sil     Ob  283   1.996   3.697  11.150  0.5996  0.2620  0.3317
    1Sil     Ob  284   1.758   0.234  10.344 -0.4225 -0.0916  0.5828
    1Sil     Ob  285   2.318   3.577  10.806  0.1643 -0.1779  0.3943
    1Sil     Ob  286   1.925   0.245  10.783 -0.1154 -0.2718  0.4434
    1Sil     Ob  287   2.471   0.236  11.177 -0.5352  0.0688 -0.1112
    1Sil     Ob  288   2.156   0.138  10.381  0.0010  0.5878 -0.0340
    1Sil     Ob  289   2.412   3.526  10.322  0.3861 -0.2850 -0.2951
    1Sil     Ob  290   1.807   3.521  11.122  0.1020 -0.5963  0.1668
    1Sil     Ob  291   2.090   3.506  10.713  0.6189 -0.3944 -0.6410
    1Sil     Ob  292   1.771   0.296  10.595 -0.2661 -0.3904  0.1826
    1Sil     Ob  293   2.311   0.304  10.991 -0.0054 -0.1064  0.0863
    1Sil     Ob  294   1.996   3.438  12.396 -0.5378 -0.4084 -0.4827
    1Sil     Ob  295   2.565   3.440  11.603  0.1543 -0.4246 -0.0935
    1Sil     Ob  296   2.247   3.344  11.926 -0.5610  0.1883  0.2901
    1Sil     Ob  297   2.178   0.307  12.421  0.0629 -0.9938  0.5703
    1Sil     Ob  298   1.922   0.316  11.631  0.0669  0.5782  0.0931
    1Sil     Ob  299   2.471   0.296  12.018  0.5219 -0.8919  0.1811
    1Sil     Ob  300   1.962   3.521  12.154 -0.3145  0.3162  0.0658
    1Sil     Ob  301   2.545   3.509  11.352 -0.0039 -0.5761  0.4393
    1Sil     Ob  302   2.256   3.503  11.747 -0.4069 -0.5929  0.2256
    1Sil     Ob  303   1.935   3.693  12.353  0.0286  0.0082  0.0475
    1Sil     Ob  304   1.690   0.240  11.538  0.8209 -0.1532 -0.0823
    1Sil     Ob  305   2.276   3.594  11.990  0.7344  0.2796  0.0045
    1Sil     Ob  306   1.879   0.232  11.979  0.5596  0.0205 -0.6954
    1Sil     Ob  307   2.419   0.233  12.358  0.9029  0.1743  0.2415
    1Sil     Ob  308   2.112   0.138  11.547 -0.1948 -0.0707  0.1680
    1Sil     Ob  309   2.345   3.512  11.509  0.4246 -0.4927 -0.0074
    1Sil     Ob  310   1.767   3.513  12.311  0.0438 -0.4036  0.1987
    1Sil     Ob  311   2.047   3.505  11.901  0.1839  0.0859  0.0990
    1Sil     Ob  312   1.726   0.301  11.786 -0.3336  0.3703  0.7019
    1Sil     Ob  313   2.252   0.318  12.169  0.7369  0.7888  0.3722
    1Sil     Ob  314   2.010   0.307  11.391  0.5183  0.0674  0.6581
    1Sil     Ob  315   2.868   0.490  11.218  0.5759  0.1793  0.4552
    1Sil     Ob  316   3.469   0.502  10.388 -0.3758  0.4945  0.0249
    1Sil     Ob  317   2.689   0.974  10.771  0.1126 -0.2545 -0.3895
    1Sil     Ob  318   3.231   0.985  11.158  0.8099 -0.1531  0.1680
    1Sil     Ob  319   3.047   0.860  10.404 -0.1294 -0.5999 -0.2361
    1Sil     Ob  320   3.053   0.802  11.239  0.3302  0.3513 -0.1132
    1Sil     Ob  321   2.812   0.796  10.456 -0.1527  0.3272  0.4868
    1Sil     Ob  322   3.359   0.783  10.842  0.8114  0.1125  0.5014
    1Sil     Ob  323   2.835   0.543  10.967  0.1102  0.2792  0.1682
    1Sil     Ob  324   3.137   0.549  10.571  0.3679  0.3925 -0.4476
    1Sil     Ob  325   2.820   0.734  11.144  0.3041 -0.7610  0.2871
    1Sil     Ob  326   2.576   0.733  10.360 -0.3895  0.4843 -0.2843
    1Sil     Ob  327   3.162   0.621  10.820  0.5843  0.6465 -0.5284
    1Sil     Ob  328   2.764   0.727  10.798  0.5320 -0.0416  0.5297
    1Sil     Ob  329   3.301   0.734  11.190  0.1088 -0.2358 -1.0039
    1Sil     Ob  330   2.979   0.628  10.377  0.0917 -0.0445  0.4200
    1Sil     Ob  331   3.226   0.571  10.317  0.3889  0.5537 -0.7356
    1Sil     Ob  332   2.631   0.576  11.122 -0.6190  0.0261 -0.3022
    1Sil     Ob  333   2.933   0.534  10.721  0.8690  0.0614 -0.0213
    1Sil     Ob  334   2.606   0.799  10.605 -0.4976  0.1727  0.8118
    1Sil     Ob  335   3.141   0.792  11.002  0.1142 -0.0556  0.0611
    1Sil     Ob  336   2.839   0.481  12.383  0.2010  0.3598 -0.1226
    1Sil     Ob  337   3.398   0.489  11.611  0.2099  0.0473 -0.0447
    1Sil     Ob  338   2.630   0.960  11.969  0.5751  0.1769 -0.3868
    1Sil     Ob  339   3.178   0.971  12.342  0.5267  0.0049  0.1347
    1Sil     Ob  340   3.014   0.872  11.571 -0.1968 -0.2725 -0.3158
    1Sil     Ob  341   3.000   0.796  12.423 -0.1740  0.1501 -0.3700
    1Sil     Ob  342   2.759   0.825  11.629  0.1813 -0.0444 -0.0076
    1Sil     Ob  343   3.318   0.785  12.037 -1.0142 -0.2799  0.4432
    1Sil     Ob  344   2.788   0.546  12.148  0.8187  0.3220 -0.0923
    1Sil     Ob  345   3.367   0.550  11.356 -0.3899  0.0248 -0.0619
    1Sil     Ob  346   3.085   0.567  11.739  0.0657  0.1760 -0.5556
    1Sil     Ob  347   2.780   0.721  12.336 -0.3993 -0.6231 -0.0484
    1Sil     Ob  348   2.538   0.736  11.528  0.4337 -0.2687  0.3812
    1Sil     Ob  349   3.126   0.621  11.994  0.3258  0.5328 -0.5887
    1Sil     Ob  350   2.707   0.721  11.981 -0.0508  0.2704  0.2423
    1Sil     Ob  351   3.242   0.723  12.386 -0.4412 -0.3638  0.2754
    1Sil     Ob  352   2.930   0.633  11.551  0.4311  0.6554 -0.2909
    1Sil     Ob  353   3.169   0.571  11.501  0.2603 -0.1437 -0.3240
    1Sil     Ob  354   2.595   0.544  12.324  0.2290 -0.0829 -0.0933
    1Sil     Ob  355   2.890   0.550  11.907 -0.1476 -0.3456 -0.4349
    1Sil     Ob  356   2.560   0.795  11.785 -0.9182  0.0456 -0.6329
    1Sil     Ob  357   3.099   0.788  12.186  0.1321 -0.3719  0.4185
    1Sil     Ob  358   2.851   0.803  11.390 -0.4011 -0.7161  0.3014
    1Sil     Ob  359   2.868   0.979  11.201  0.0372  0.2021 -0.2746
    1Sil     Ob  360   3.455   0.981  10.408 -0.2637 -0.0379  0.2300
    1Sil     Ob  361   3.119   0.861  10.748  0.0399 -0.4116 -0.0380
    1Sil     Ob  362   2.693   1.469  10.773 -0.3056  0.0732  0.0965
    1Sil     Ob  363   3.224   1.467  11.145  0.3951 -0.3232 -0.0426
    1Sil     Ob  364   3.057   1.357  10.374 -0.5519  0.0596 -0.3006
    1Sil     Ob  365   3.057   1.293  11.226  0.2078  0.6059 -0.6688
    1Sil     Ob  366   2.813   1.308  10.430  0.4706 -0.0914  0.3205
    1Sil     Ob  367   3.352   1.292  10.830  0.1025 -0.3407 -0.6158
    1Sil     Ob  368   2.843   1.052  10.959 -0.8737 -0.3590  0.2821
    1Sil     Ob  369   3.136   1.043  10.555  0.3813  0.6201  0.4894
    1Sil     Ob  370   2.818   1.230  11.152  0.2860 -0.4779  0.1986
    1Sil     Ob  371   2.573   1.219  10.353 -0.5757  0.2998 -0.3674
    1Sil     Ob  372   3.175   1.106  10.797 -0.4561  0.4778 -0.7435
    1Sil     Ob  373   2.765   1.218  10.779 -0.2703 -0.4128 -0.4896
    1Sil     Ob  374   3.304   1.231  11.186  0.3222 -0.0360 -0.2311
    1Sil     Ob  375   2.975   1.118  10.385  0.3238  0.4908  0.7074
    1Sil     Ob  376   3.215   1.046  10.314 -0.0012  0.1009 -0.2438
    1Sil     Ob  377   2.641   1.044  11.109 -0.2810 -0.2182 -0.1640
    1Sil     Ob  378   2.939   1.037  10.711 -0.0716 -0.1931 -1.2377
    1Sil     Ob  379   2.608   1.303  10.597  0.0714 -0.3378 -0.0347
    1Sil     Ob  380   3.145   1.278  10.986  0.4236  0.3744  0.1664
    1Sil     Ob  381   2.812   0.970  12.408 -0.1680  0.0766  0.7815
    1Sil     Ob  382   3.417   0.985  11.607 -0.0070 -0.8509 -0.0603
    1Sil     Ob  383   3.103   0.860  11.938 -0.3938 -0.1111 -0.6561
    1Sil     Ob  384   2.636   1.458  11.977 -0.2705  0.3773  0.3695
    1Sil     Ob  385   3.168   1.464  12.347  0.6753 -0.1406 -0.2382
    1Sil     Ob  386   3.013   1.365  11.571  0.0080 -0.1506  0.3693
    1Sil     Ob  387   2.993   1.289  12.429  0.1161 -0.1406 -0.4077
    1Sil     Ob  388   2.767   1.297  11.627  0.3247 -0.2076  0.0229
    1Sil     Ob  389   3.289   1.277  12.037 -0.5273  0.2512  0.2981
    1Sil     Ob  390   2.790   1.042  12.158 -0.4605 -0.4427 -0.2470
    1Sil     Ob  391   3.388   1.050  11.358 -0.3386 -0.5931 -0.1334
    1Sil     Ob  392   3.090   1.047  11.756  0.3345  0.0944 -1.1773
    1Sil     Ob  393   2.767   1.217  12.332  0.1031 -0.4036 -0.5803
    1Sil     Ob  394   2.538   1.225  11.539  0.2946 -0.3877  0.4562
    1Sil     Ob  395   3.111   1.100  12.008 -0.3572  0.5108 -0.6414
    1Sil     Ob  396   2.714   1.200  11.975 -0.6350 -0.1279 -0.5547
    1Sil     Ob  397   3.245   1.218  12.383  0.1495 -0.1135 -0.2619
    1Sil     Ob  398   2.939   1.119  11.557 -0.4906  0.6464 -0.0029
    1Sil     Ob  399   3.187   1.053  11.507  0.1930  0.5226 -0.0518
    1Sil     Ob  400   2.584   1.051  12.310  0.4259  0.2777  0.7097
    1Sil     Ob  401   2.885   0.999  11.917 -0.7898  0.2602 -0.5593
    1Sil     Ob  402   2.562   1.297  11.790  0.1085  0.1675 -0.6724
    1Sil     Ob  403   3.080   1.284  12.190  0.4366  0.5809 -0.1733
    1Sil     Ob  404   2.852   1.294  11.388 -0.0293 -0.3022 -0.0392
    1Sil     Ob  405   2.886   1.481  11.207  0.0179  0.1020  0.7906
    1Sil     Ob  406   3.457   1.473  10.408 -0.4458 -0.5998 -0.5933
    1Sil     Ob  407   3.115   1.358  10.744  0.0100  0.8532  0.3597
    1Sil     Ob  408   2.704   1.967  10.754 -0.0927 -0.3458 -0.1989
    1Sil     Ob  409   3.236   1.971  11.155 -0.1592 -0.0576  0.0379
    1Sil     Ob  410   3.056   1.871  10.392  0.1740  0.2261 -0.2400
    1Sil     Ob  411   3.059   1.796  11.231  0.4560  0.1985 -0.0591
    1Sil     Ob  412   2.802   1.793  10.433  0.5441 -0.2354 -0.8004
    1Sil     Ob  413   3.341   1.787  10.834  0.6208  0.2047 -0.0691
    1Sil     Ob  414   2.865   1.571  10.956  0.4272  0.2867  0.2084
    1Sil     Ob  415   3.137   1.531  10.554  0.3126  0.0802 -0.1976
    1Sil     Ob  416   2.830   1.734  11.140 -0.1739  0.1994  0.1942
    1Sil     Ob  417   2.558   1.721  10.349 -0.7361 -0.6813 -0.5062
    1Sil     Ob  418   3.160   1.612  10.799  0.1935  0.0757  0.0956
    1Sil     Ob  419   2.762   1.721  10.760 -0.3922 -0.6625 -0.5626
    1Sil     Ob  420   3.300   1.715  11.186  0.7987 -0.3887  0.1993
    1Sil     Ob  421   2.979   1.620  10.370  0.0598 -0.6848 -0.0458
    1Sil     Ob  422   3.227   1.545  10.313  0.0600  1.1443  0.3830
    1Sil     Ob  423   2.651   1.544  11.113 -0.3938 -0.3301 -0.3170
    1Sil     Ob  424   2.935   1.529  10.714  0.1339  0.3400  0.1473
    1Sil     Ob  425   2.596   1.802  10.586  0.9875  0.3806 -0.9303
    1Sil     Ob  426   3.146   1.778  10.989  0.3018 -0.6672  0.1978
    1Sil     Ob  427   2.804   1.463  12.414 -0.0919 -0.2087 -0.1236
    1Sil     Ob  428   3.381   1.477  11.619  0.2659 -0.3597 -0.2080
    1Sil     Ob  429   3.056   1.346  11.954 -0.0200  0.2714  0.0037
    1Sil     Ob  430   2.651   1.956  11.968  0.0255 -0.0417 -0.2652
    1Sil     Ob  431   3.179   1.965  12.355 -0.0198 -0.0209 -0.0778
    1Sil     Ob  432   3.003   1.863  11.596  0.2655 -0.4333  0.0758
    1Sil     Ob  433   2.996   1.791  12.425  0.5359  0.1870  0.2859
    1Sil     Ob  434   2.766   1.792  11.636 -0.1221  0.5716 -0.3626
    1Sil     Ob  435   3.306   1.765  12.043 -0.5951  0.1803  0.7155
    1Sil     Ob  436   2.791   1.524  12.169 -0.5469  0.2790  0.0788
    1Sil     Ob  437   3.357   1.524  11.368 -0.4665  0.0596  0.1589
    1Sil     Ob  438   3.087   1.525  11.770  0.0095  0.3238  0.4416
    1Sil     Ob  439   2.771   1.718  12.342 -0.1508  0.2995 -0.2453
    1Sil     Ob  440   2.519   1.721  11.556 -0.0110  0.3367  0.1376
    1Sil     Ob  441   3.105   1.603  12.014  0.0736  0.4620  0.1319
    1Sil     Ob  442   2.711   1.704  11.999  0.3540 -0.3644  0.4570
    1Sil     Ob  443   3.240   1.709  12.392  0.1022 -0.0115 -0.1057
    1Sil     Ob  444   2.931   1.609  11.573 -0.2551  0.4156  0.0751
    1Sil     Ob  445   3.168   1.571  11.525 -0.4350  0.0500  0.3761
    1Sil     Ob  446   2.588   1.539  12.311  0.4471 -0.6088 -0.6070
    1Sil     Ob  447   2.880   1.534  11.927 -0.3708 -0.5025  0.0076
    1Sil     Ob  448   2.571   1.789  11.793  0.2155 -0.2057 -0.3574
    1Sil     Ob  449   3.096   1.780  12.198 -0.6272 -0.2650 -0.4542
    1Sil     Ob  450   2.862   1.792  11.396  0.0772 -0.4856  0.8453
    1Sil     Ob  451   2.893   1.967  11.195  0.0822 -0.3896  0.1585
    1Sil     Ob  452   3.438   1.969  10.430  0.1905 -0.0870 -0.0225
    1Sil     Ob  453   3.115   1.867  10.749  0.1435 -0.3718 -0.1126
    1Sil     Ob  454   2.690   2.456  10.755  0.1866  0.2321  0.0781
    1Sil     Ob  455   3.237   2.463  11.155 -0.6765 -0.7812  0.1667
    1Sil     Ob  456   3.046   2.363  10.406  0.0376 -1.0848 -0.1889
    1Sil     Ob  457   3.057   2.298  11.241  0.1816  0.4180 -0.1496
    1Sil     Ob  458   2.803   2.269  10.446  0.1349  0.3100  0.0055
    1Sil     Ob  459   3.345   2.284  10.843  0.4592  0.6773 -0.3242
    1Sil     Ob  460   2.851   2.041  10.958 -0.0811  0.2291  0.0960
    1Sil     Ob  461   3.144   2.045  10.563  0.3957 -0.5990  0.4467
    1Sil     Ob  462   2.835   2.215  11.141 -0.4368  0.2416 -0.6646
    1Sil     Ob  463   2.576   2.218  10.348  0.2593 -0.3576  0.4236
    1Sil     Ob  464   3.165   2.109  10.807  0.4076 -0.0833  0.1101
    1Sil     Ob  465   2.744   2.208  10.797 -0.0158  0.4280  0.0830
    1Sil     Ob  466   3.305   2.215  11.196  0.1442 -0.2220  0.1625
    1Sil     Ob  467   2.981   2.124  10.357  0.3564  0.2254  0.3336
    1Sil     Ob  468   3.227   2.052  10.318  0.5108 -0.3754 -0.5502
    1Sil     Ob  469   2.649   2.042  11.110 -0.0635  0.6950 -0.7661
    1Sil     Ob  470   2.943   2.071  10.714  0.3558  0.1746  0.0559
    1Sil     Ob  471   2.597   2.273  10.594  0.0612  0.5270  0.0332
    1Sil     Ob  472   3.142   2.287  10.995 -0.3002 -0.0329  0.4077
    1Sil     Ob  473   2.819   1.970  12.411 -0.3541  0.1525  0.0682
    1Sil     Ob  474   3.418   1.963  11.604 -0.4447  0.4403 -0.7066
    1Sil     Ob  475   3.076   1.850  11.950  0.1800 -0.3748 -0.3094
    1Sil     Ob  476   2.637   2.441  11.975  0.3709 -0.1773 -0.3347
    1Sil     Ob  477   3.174   2.469  12.352  0.3956  0.0470  0.3472
    1Sil     Ob  478   3.004   2.355  11.586 -0.8118 -0.3562 -0.6135
    1Sil     Ob  479   3.008   2.287  12.425  0.4002  0.2557 -0.4586
    1Sil     Ob  480   2.766   2.275  11.628  0.7177 -0.3844  0.1732
    1Sil     Ob  481   3.305   2.272  12.032 -0.0399 -0.4939  0.2362
    1Sil     Ob  482   2.806   2.044  12.161  0.0093 -0.2056 -0.0638
    1Sil     Ob  483   3.398   2.039  11.354 -0.1562 -0.0521  0.1076
    1Sil     Ob  484   3.093   2.031  11.752  0.5592 -0.7153 -0.3891
    1Sil     Ob  485   2.775   2.214  12.349 -0.4389 -0.6604 -0.1795
    1Sil     Ob  486   2.528   2.218  11.549  0.0887 -0.4349  0.0776
    1Sil     Ob  487   3.130   2.096  12.000 -0.2690 -0.5719  0.4295
    1Sil     Ob  488   2.719   2.201  11.965  0.4862 -0.1364 -0.1086
    1Sil     Ob  489   3.247   2.217  12.370  0.8952 -0.3909  0.1799
    1Sil     Ob  490   2.942   2.103  11.558  0.1654  0.1748  0.1121
    1Sil     Ob  491   3.187   2.012  11.508  0.4138 -0.2309  0.8776
    1Sil     Ob  492   2.600   2.031  12.316 -0.2831  0.3847 -0.2231
    1Sil     Ob  493   2.890   2.028  11.923 -0.0993 -0.2467 -0.0815
    1Sil     Ob  494   2.556   2.300  11.782  0.1891  0.3288  0.0842
    1Sil     Ob  495   3.088   2.290  12.175 -0.8969  0.5993 -0.7513
    1Sil     Ob  496   2.852   2.282  11.391  0.2309 -0.3484  0.8096
    1Sil     Ob  497   2.865   2.465  11.219 -0.4428  0.2293  0.6193
    1Sil     Ob  498   3.463   2.466  10.402  0.1681  0.1197 -0.5441
    1Sil     Ob  499   3.128   2.356  10.750  0.1656  0.2665  0.2676
    1Sil     Ob  500   2.684   2.941  10.783 -0.3172  0.0244  0.2642
    1Sil     Ob  501   3.222   2.958  11.177 -0.0582  0.1309 -0.4934
    1Sil     Ob  502   3.051   2.842  10.397 -0.4459  0.1535 -0.6681
    1Sil     Ob  503   3.047   2.769  11.243 -0.0712 -0.5453 -0.0467
    1Sil     Ob  504   2.809   2.773  10.454  0.8101 -0.0855  0.8061
    1Sil     Ob  505   3.364   2.770  10.850  0.6697  0.5248  0.0541
    1Sil     Ob  506   2.838   2.517  10.965  0.5272  0.1651  0.2857
    1Sil     Ob  507   3.139   2.542  10.572  0.1655 -0.0267  0.2187
    1Sil     Ob  508   2.819   2.700  11.143  0.0398  1.0670  0.2715
    1Sil     Ob  509   2.588   2.697  10.356  0.4311  0.0484  0.2555
    1Sil     Ob  510   3.160   2.598  10.827  0.1744 -0.5891 -0.0230
    1Sil     Ob  511   2.753   2.693  10.806  0.1142  0.4288  0.0636
    1Sil     Ob  512   3.298   2.714  11.197 -0.5942  0.0921  0.6556
    1Sil     Ob  513   2.987   2.599  10.368  0.1756 -0.7318  0.1608
    1Sil     Ob  514   3.224   2.523  10.334 -0.1668 -0.1927  0.1116
    1Sil     Ob  515   2.639   2.536  11.119 -0.3415 -0.4394  0.2318
    1Sil     Ob  516   2.936   2.519  10.720 -0.0507  0.4027  0.5581
    1Sil     Ob  517   2.599   2.766  10.610  0.2716  0.2413  0.4845
    1Sil     Ob  518   3.151   2.787  11.008  0.3636  0.2945  0.7197
    1Sil     Ob  519   2.821   2.455  12.409  0.3601  0.2944  0.1688
    1Sil     Ob  520   3.417   2.449  11.599 -0.1590  0.3517  0.2802
    1Sil     Ob  521   3.087   2.349  11.923 -0.7175 -0.3203 -0.3187
    1Sil     Ob  522   2.640   2.933  11.971 -0.6754 -0.4209  0.0231
    1Sil     Ob  523   3.188   2.957  12.350  0.0628  0.0509 -0.1790
    1Sil     Ob  524   2.992   2.841  11.587 -0.8986 -0.1836 -0.1054
    1Sil     Ob  525   3.011   2.778  12.429 -0.2648  0.2262 -0.6507
    1Sil     Ob  526   2.750   2.763  11.629 -0.2719 -0.5835 -0.0306
    1Sil     Ob  527   3.315   2.746  12.032 -0.4613 -0.3999 -0.2177
    1Sil     Ob  528   2.799   2.515  12.156 -0.4307 -0.0703  0.4729
    1Sil     Ob  529   3.392   2.532  11.353 -0.1564 -0.2814  0.0897
    1Sil     Ob  530   3.083   2.539  11.750  0.2076  0.0196  0.4616
    1Sil     Ob  531   2.784   2.694  12.345 -0.0140 -0.1742  0.4706
    1Sil     Ob  532   2.512   2.709  11.546  0.1042 -0.0212  0.1048
    1Sil     Ob  533   3.117   2.591  12.001  0.8895 -0.2360 -0.0237
    1Sil     Ob  534   2.718   2.688  11.983  0.1916  0.5417  0.0024
    1Sil     Ob  535   3.252   2.702  12.390  0.3200  0.2558  0.1969
    1Sil     Ob  536   2.936   2.594  11.542  0.0786  0.9388  0.4934
    1Sil     Ob  537   3.180   2.518  11.506 -0.1513  0.3257  0.6926
    1Sil     Ob  538   2.593   2.528  12.310 -0.1066  0.2589 -0.1546
    1Sil     Ob  539   2.887   2.510  11.906  0.8797 -0.2599  0.0290
    1Sil     Ob  540   2.563   2.767  11.790 -0.4104  0.2962 -0.9154
    1Sil     Ob  541   3.102   2.773  12.183  0.0551  0.5854 -0.2712
    1Sil     Ob  542   2.845   2.776  11.393 -0.5739 -0.1494  0.0704
    1Sil     Ob  543   2.872   2.953  11.204 -0.3463 -0.3399 -0.1977
    1Sil     Ob  544   3.455   2.949  10.426 -0.2253 -0.0228  0.4922
    1Sil     Ob  545   3.137   2.846  10.759 -0.7023 -0.5682  0.1211
    1Sil     Ob  546   2.694   3.435  10.757  0.5219  0.2068 -0.0348
    1Sil     Ob  547   3.230   3.445  11.157 -0.1677  0.2828 -0.0522
    1Sil     Ob  548   3.071   3.341  10.388 -0.1606 -0.1589  0.0366
    1Sil     Ob  549   3.050   3.280  11.234  0.2179  0.1560 -0.0957
    1Sil     Ob  550   2.819   3.278  10.439  0.6666  0.0371 -0.5401
    1Sil     Ob  551   3.357   3.243  10.846  0.1447 -0.1262 -0.0598
    1Sil     Ob  552   2.851   3.018  10.956 -0.0330  0.7805  0.0064
    1Sil     Ob  553   3.143   3.015  10.576 -0.7509 -0.0854 -1.1400
    1Sil     Ob  554   2.828   3.206  11.141  0.0665  0.2096 -0.1019
    1Sil     Ob  555   2.594   3.192  10.344 -0.1184 -0.2219 -0.2410
    1Sil     Ob  556   3.153   3.092  10.826  0.3865 -0.3539  0.1271
    1Sil     Ob  557   2.756   3.189  10.783  1.1380  0.3761  0.0593
    1Sil     Ob  558   3.304   3.206  11.188 -0.3264  0.0365 -0.4448
    1Sil     Ob  559   2.989   3.090  10.397 -0.3241 -0.4129  0.3780
    1Sil     Ob  560   3.223   3.026  10.337  0.1844  0.1429  0.1808
    1Sil     Ob  561   2.644   3.022  11.113 -1.0760 -0.4802 -0.2378
    1Sil     Ob  562   2.929   3.005  10.717  0.2724 -0.0598 -0.2931
    1Sil     Ob  563   2.607   3.255  10.594  0.1201  0.6778  0.3330
    1Sil     Ob  564   3.155   3.287  10.994  0.1873  0.3924 -0.1530
    1Sil     Ob  565   2.823   2.943  12.410  0.2246 -0.1382 -0.0431
    1Sil     Ob  566   3.429   2.950  11.594 -0.3162 -0.1644  0.4667
    1Sil     Ob  567   3.095   2.835  11.930  0.2098  0.1974  0.0002
    1Sil     Ob  568   2.654   3.429  11.944  0.1744 -0.1553  0.3220
    1Sil     Ob  569   3.187   3.443  12.328 -0.8723  0.5019  0.1554
    1Sil     Ob  570   3.014   3.344  11.573  0.3726  0.2062 -0.1509
    1Sil     Ob  571   3.016   3.278  12.411  0.2235  0.2269 -0.4389
    1Sil     Ob  572   2.767   3.277  11.628  0.3604 -0.5813 -0.2292
    1Sil     Ob  573   3.308   3.258  12.034  0.3619 -0.0930  0.1763
    1Sil     Ob  574   2.797   3.014  12.159  0.1372  0.1783 -0.3311
    1Sil     Ob  575   3.389   3.048  11.361 -0.4602  0.6943  0.1600
    1Sil     Ob  576   3.076   3.021  11.748 -0.1098  0.5549 -0.0995
    1Sil     Ob  577   2.777   3.195  12.355 -0.3241 -0.0318  0.3408
    1Sil     Ob  578   2.541   3.197  11.537  0.0164 -0.0327  0.0362
    1Sil     Ob  579   3.119   3.079  11.992 -0.2272 -0.2556 -0.2653
    1Sil     Ob  580   2.719   3.180  11.975 -0.1911  0.5054  0.0761
    1Sil     Ob  581   3.251   3.202  12.370 -0.1582  0.1533  0.2932
    1Sil     Ob  582   2.938   3.094  11.547  0.4452 -0.0749  1.0521
    1Sil     Ob  583   3.184   2.999  11.514  0.2378  0.3667  0.4523
    1Sil     Ob  584   2.601   3.008  12.332  0.1578  0.3541  0.1627
    1Sil     Ob  585   2.878   2.995  11.907  0.0676 -0.7288  0.0998
    1Sil     Ob  586   2.567   3.253  11.783 -0.1067 -0.0834  0.4618
    1Sil     Ob  587   3.091   3.254  12.170 -0.1597  0.5700 -0.2998
    1Sil     Ob  588   2.847   3.276  11.389 -0.1566  0.4145 -0.3441
    1Sil     Ob  589   2.875   3.451  11.202  0.2429  0.3539  0.1462
    1Sil     Ob  590   3.465   3.445  10.430 -0.1306  0.1216 -0.6640
    1Sil     Ob  591   3.142   3.334  10.744  0.6633 -0.3326  1.1105
    1Sil     Ob  592   3.058   0.316  11.225  0.1480 -0.1859 -0.0558
    1Sil     Ob  593   2.828   0.327  10.444 -0.5140 -0.4104  0.3947
    1Sil     Ob  594   3.361   0.291  10.831 -0.6180  0.0449  0.3371
    1Sil     Ob  595   2.847   3.518  10.947 -0.4403  0.2218  0.2397
    1Sil     Ob  596   3.154   3.511  10.567 -0.2175 -0.0271  0.0682
    1Sil     Ob  597   2.822   3.700  11.141  0.1910 -0.4674  0.5580
    1Sil     Ob  598   2.611   3.693  10.337 -0.0298  0.1514 -0.1786
    1Sil     Ob  599   3.171   3.579  10.815  0.2054  0.0241  0.1888
    1Sil     Ob  600   2.768   0.233  10.770 -0.1969 -0.3292 -0.2271
    1Sil     Ob  601   3.295   0.243  11.180 -0.3147  1.0651  0.1290
    1Sil     Ob  602   2.995   0.139  10.382  0.6530 -0.6462  0.0393
    1Sil     Ob  603   3.242   3.526  10.322 -0.0116 -0.0828 -0.6624
    1Sil     Ob  604   2.647   3.518  11.112 -0.0003  0.4994 -0.1120
    1Sil     Ob  605   2.945   3.506  10.712 -0.0848  0.6865  0.1308
    1Sil     Ob  606   2.611   0.316  10.587  0.3920 -0.5105  0.6661
    1Sil     Ob  607   3.143   0.312  10.990 -0.1672  0.3102  0.3816
    1Sil     Ob  608   2.833   3.455  12.387  0.1431 -0.1482 -0.3237
    1Sil     Ob  609   3.391   3.449  11.617  0.0213  0.1181 -0.2367
    1Sil     Ob  610   3.090   3.325  11.924 -0.1913 -0.1866 -0.0734
    1Sil     Ob  611   3.010   0.288  12.413  0.3410 -0.1990  0.2077
    1Sil     Ob  612   2.761   0.328  11.625 -0.1318  0.2376  0.0786
    1Sil     Ob  613   3.312   0.292  12.035  0.6412 -0.6652  0.4202
    1Sil     Ob  614   2.807   3.530  12.137  0.0768 -0.0316 -0.2737
    1Sil     Ob  615   3.379   3.524  11.359 -0.1377  0.4481 -0.1960
    1Sil     Ob  616   3.094   3.513  11.744 -0.1403  0.4813  0.2191
    1Sil     Ob  617   2.770   3.693  12.337 -0.1771  0.2089  0.0996
    1Sil     Ob  618   2.541   3.696  11.533  0.4340 -0.6371 -0.0691
    1Sil     Ob  619   3.121   3.573  11.992  0.8729 -0.6412 -0.0204
    1Sil     Ob  620   2.719   0.229  11.964 -0.2808  0.3086 -0.1249
    1Sil     Ob  621   3.250   0.225  12.379 -0.1616  0.2386 -0.4433
    1Sil     Ob  622   2.931   0.137  11.561 -0.2836 -0.2442  0.5885
    1Sil     Ob  623   3.180   3.533  11.506 -0.9133 -0.6112 -0.0392
    1Sil     Ob  624   2.605   3.508  12.297 -0.3909  0.1142 -0.0092
    1Sil     Ob  625   2.895   3.501  11.895  0.1796 -0.1706 -0.4226
    1Sil     Ob  626   2.562   0.303  11.776  1.0105  0.8479 -0.4676
    1Sil     Ob  627   3.103   0.283  12.175  0.4800 -0.5841 -0.0943
    1Sil     Ob  628   2.847   0.307  11.390  0.0156 -0.1937  0.3916
    1Sil     Ob  629   3.705   0.481  11.212 -0.6842  0.3716 -0.3128
    1Sil     Ob  630   4.268   0.480  10.424 -0.3120  0.3460 -0.4786
    1Sil     Ob  631   3.527   0.964  10.770  0.3652  0.1528 -0.3899
    1Sil     Ob  632   4.052   0.983  11.153  0.3556 -0.4772  0.5228
    1Sil     Ob  633   3.883   0.874  10.392  0.1490  0.1053  0.3401
    1Sil     Ob  634   3.892   0.807  11.221 -0.1957 -0.6762 -0.3931
    1Sil     Ob  635   3.639   0.809  10.432 -0.1669  0.2210  0.3245
    1Sil     Ob  636   4.183   0.785  10.834 -0.3105 -0.1447  0.2986
    1Sil     Ob  637   3.673   0.543  10.959  0.0648 -0.6204  0.3598
    1Sil     Ob  638   3.969   0.560  10.569 -0.4834 -0.1174 -0.3555
    1Sil     Ob  639   3.664   0.729  11.138  0.0611 -0.3583  0.7271
    1Sil     Ob  640   3.414   0.735  10.336 -0.2345  0.0042  0.1735
    1Sil     Ob  641   3.980   0.630  10.812 -0.4336  0.1735 -0.7749
    1Sil     Ob  642   3.600   0.723  10.786 -0.5675 -0.1743  0.2271
    1Sil     Ob  643   4.131   0.738  11.175 -0.3086 -0.2483  0.2712
    1Sil     Ob  644   3.814   0.629  10.373  0.4852 -0.5050  0.6612
    1Sil     Ob  645   4.052   0.571  10.323  0.1219  0.2718  0.4980
    1Sil     Ob  646   3.478   0.555  11.125 -0.1775  0.3425  0.3614
    1Sil     Ob  647   3.759   0.541  10.727 -0.2491  0.0169  0.4672
    1Sil     Ob  648   3.444   0.787  10.594 -1.0326  0.0482 -0.2299
    1Sil     Ob  649   3.978   0.810  10.985  0.1709 -0.2289  0.0942
    1Sil     Ob  650   3.652   0.495  12.413 -0.1756 -0.3561  0.1469
    1Sil     Ob  651   4.259   0.496  11.600  0.2514  0.1805  0.0975
    1Sil     Ob  652   3.471   0.964  11.972  0.4582 -0.5082  0.2493
    1Sil     Ob  653   4.013   0.972  12.343 -0.6396  0.6721 -0.3351
    1Sil     Ob  654   3.835   0.880  11.572  0.1921  0.7755 -0.6489
    1Sil     Ob  655   3.839   0.807  12.427 -0.8262 -0.0397 -0.4936
    1Sil     Ob  656   3.597   0.807  11.635  0.1947 -0.1920  0.2699
    1Sil     Ob  657   4.121   0.800  12.034 -0.0462  0.9222  0.4211
    1Sil     Ob  658   3.636   0.569  12.161 -0.7516  0.2076  0.5365
    1Sil     Ob  659   4.218   0.572  11.353  0.4039 -0.2034 -0.1554
    1Sil     Ob  660   3.923   0.545  11.747  0.8433  0.4198  0.0661
    1Sil     Ob  661   3.608   0.736  12.339 -0.0233  0.0092  0.5128
    1Sil     Ob  662   3.370   0.736  11.530 -0.2065  0.0360 -0.2295
    1Sil     Ob  663   3.946   0.607  11.999 -0.1140 -0.7915 -0.2882
    1Sil     Ob  664   3.554   0.721  11.979 -0.1576  0.1582  0.0452
    1Sil     Ob  665   4.078   0.720  12.378  0.0656  0.2771  0.4847
    1Sil     Ob  666   3.766   0.628  11.556 -0.0059  0.1276 -0.0691
    1Sil     Ob  667   4.018   0.552  11.506  0.0029 -0.0811 -0.5112
    1Sil     Ob  668   3.423   0.547  12.313 -0.3072 -0.1248  0.6419
    1Sil     Ob  669   3.722   0.542  11.912 -0.4140  0.5989 -0.4532
    1Sil     Ob  670   3.389   0.798  11.789  0.0305 -0.0018 -0.0545
    1Sil     Ob  671   3.917   0.779  12.186 -0.0019  0.8100 -0.0990
    1Sil     Ob  672   3.677   0.802  11.384 -0.1891  1.2081 -0.3585
    1Sil     Ob  673   3.700   0.982  11.204  0.0759  0.3859  0.2204
    1Sil     Ob  674   4.288   0.982  10.415  0.0818 -0.0316  0.4520
    1Sil     Ob  675   3.955   0.872  10.742  0.4618  0.0999  0.2548
    1Sil     Ob  676   3.512   1.468  10.765 -0.0974 -0.2791 -0.2427
    1Sil     Ob  677   4.068   1.472  11.148  0.1442 -0.6587  0.1216
    1Sil     Ob  678   3.881   1.367  10.389 -0.1859 -0.4964  0.0324
    1Sil     Ob  679   3.895   1.294  11.228 -0.3273 -0.2841  0.1963
    1Sil     Ob  680   3.630   1.285  10.450 -0.0534  0.6902  0.1271
    1Sil     Ob  681   4.182   1.304  10.832 -0.3441  0.6455 -0.2380
    1Sil     Ob  682   3.682   1.058  10.960  0.0409  0.1487 -0.2028
    1Sil     Ob  683   3.965   1.052  10.558 -0.0421 -0.0295  0.8706
    1Sil     Ob  684   3.657   1.226  11.141  0.0533 -0.3047 -0.1663
    1Sil     Ob  685   3.397   1.228  10.351 -0.3196  0.7479 -0.5567
    1Sil     Ob  686   4.004   1.113  10.798 -0.6550 -0.3409  0.0674
    1Sil     Ob  687   3.583   1.223  10.783 -0.3047  0.0365  0.4903
    1Sil     Ob  688   4.128   1.222  11.173 -0.2290 -0.2225  0.2492
    1Sil     Ob  689   3.817   1.122  10.358 -0.6184  0.0376  0.1955
    1Sil     Ob  690   4.058   1.042  10.306 -0.2675 -0.4622  0.0635
    1Sil     Ob  691   3.477   1.053  11.114 -0.3638  0.1533 -0.3629
    1Sil     Ob  692   3.773   1.048  10.713  0.5286  0.0633  0.1510
    1Sil     Ob  693   3.422   1.301  10.586  0.5630 -0.2103  0.1626
    1Sil     Ob  694   3.977   1.293  10.988  0.5165  0.6211 -0.7259
    1Sil     Ob  695   3.655   0.980  12.405  0.0021 -0.4386  0.0219
    1Sil     Ob  696   4.223   0.986  11.610  0.4232  0.7194 -0.0411
    1Sil     Ob  697   3.898   0.849  11.943  0.4606  0.0767 -0.0087
    1Sil     Ob  698   3.473   1.458  11.966 -0.7531  0.5789 -0.6922
    1Sil     Ob  699   4.021   1.468  12.354 -0.6229 -0.1179  0.3344
    1Sil     Ob  700   3.845   1.374  11.579  0.5752 -0.4215 -0.2357
    1Sil     Ob  701   3.844   1.301  12.430  0.1791  0.3053 -0.2828
    1Sil     Ob  702   3.598   1.332  11.630  0.0890 -0.5152  0.2569
    1Sil     Ob  703   4.149   1.270  12.038  0.5124 -0.3335  0.3154
    1Sil     Ob  704   3.627   1.055  12.155  0.1910 -0.5647  0.2826
    1Sil     Ob  705   4.197   1.049  11.361  0.0944  0.0756 -0.2948
    1Sil     Ob  706   3.920   1.024  11.756  0.1810  0.5371 -0.2111
    1Sil     Ob  707   3.612   1.228  12.341 -0.4554  0.2391  0.3828
    1Sil     Ob  708   3.369   1.237  11.550  0.0746  0.4719  0.4601
    1Sil     Ob  709   3.954   1.099  11.995  0.0673 -0.3931  0.8841
    1Sil     Ob  710   3.544   1.212  11.989 -0.0844  0.3322  0.2798
    1Sil     Ob  711   4.089   1.217  12.379  0.1061  0.5927  0.7635
    1Sil     Ob  712   3.758   1.129  11.576 -0.2223  0.3559  0.2637
    1Sil     Ob  713   4.000   1.074  11.517  0.1231  0.6623 -0.0176
    1Sil     Ob  714   3.432   1.044  12.318 -0.1199  0.0148 -0.2886
    1Sil     Ob  715   3.719   1.039  11.909  0.0832 -0.2865 -0.7816
    1Sil     Ob  716   3.387   1.285  11.796 -0.1703  0.2014  0.1438
    1Sil     Ob  717   3.929   1.283  12.185  0.6409  0.2682 -0.1930
    1Sil     Ob  718   3.684   1.285  11.390  0.1308  0.3434 -0.1951
    1Sil     Ob  719   3.694   1.470  11.208  0.7668  0.4425  0.6946
    1Sil     Ob  720   4.272   1.476  10.404  1.0552 -0.1074 -0.2330
    1Sil     Ob  721   3.955   1.357  10.737 -0.0126  0.0311  0.4073
    1Sil     Ob  722   3.516   1.965  10.767 -0.1975 -0.6265 -0.0480
    1Sil     Ob  723   4.063   1.967  11.174  0.2363  0.2800 -0.2657
    1Sil     Ob  724   3.889   1.862  10.399 -0.2319 -0.3682 -0.0437
    1Sil     Ob  725   3.886   1.795  11.229 -0.0343 -0.4101  0.8795
    1Sil     Ob  726   3.641   1.807  10.461  0.1788 -0.5388  0.5711
    1Sil     Ob  727   4.183   1.771  10.830  0.2067  0.1417 -0.4088
    1Sil     Ob  728   3.671   1.529  10.957  0.2936  0.5488  0.1798
    1Sil     Ob  729   3.952   1.549  10.564 -0.5958  0.1211 -0.4249
    1Sil     Ob  730   3.663   1.718  11.128  0.0210 -0.1224  0.1810
    1Sil     Ob  731   3.412   1.721  10.363 -0.3878  0.0863  0.0904
    1Sil     Ob  732   3.982   1.611  10.809 -0.0682  0.0287 -0.0356
    1Sil     Ob  733   3.589   1.711  10.794 -0.5175 -0.1874 -0.2493
    1Sil     Ob  734   4.141   1.719  11.177  0.5840 -0.1330 -0.3453
    1Sil     Ob  735   3.810   1.620  10.376  0.2785  0.1778  0.0380
    1Sil     Ob  736   4.043   1.557  10.310  0.0017  0.8091 -0.0813
    1Sil     Ob  737   3.466   1.537  11.117  0.4248 -0.0235 -0.3730
    1Sil     Ob  738   3.756   1.512  10.718 -0.4336 -0.1550 -0.2109
    1Sil     Ob  739   3.442   1.781  10.607  0.1352 -0.0426 -0.1158
    1Sil     Ob  740   3.985   1.809  10.988 -0.5290  0.2073 -0.5206
    1Sil     Ob  741   3.654   1.474  12.402  0.3437 -0.3116 -0.1409
    1Sil     Ob  742   4.250   1.472  11.595  0.1318 -0.2515  0.1652
    1Sil     Ob  743   3.923   1.349  11.933  0.4404 -0.4345 -0.0789
    1Sil     Ob  744   3.474   1.954  11.970  0.1227 -0.3712  0.0679
    1Sil     Ob  745   4.013   1.962  12.340  0.4565 -0.1452  0.7649
    1Sil     Ob  746   3.838   1.857  11.564 -0.0426  0.1694  0.1916
    1Sil     Ob  747   3.846   1.781  12.432 -0.0591 -0.2642  0.3622
    1Sil     Ob  748   3.600   1.792  11.628  0.4118  0.0456  0.3121
    1Sil     Ob  749   4.123   1.780  12.024  0.2638 -0.4247 -0.0227
    1Sil     Ob  750   3.627   1.554  12.162  0.2972  0.7920  0.7061
    1Sil     Ob  751   4.219   1.544  11.353  0.0276  0.0028 -0.0430
    1Sil     Ob  752   3.914   1.551  11.747  0.1540  0.1698  0.5352
    1Sil     Ob  753   3.600   1.719  12.350 -0.2573  0.0823  0.0723
    1Sil     Ob  754   3.378   1.722  11.536  0.3678  0.2578  0.2282
    1Sil     Ob  755   3.950   1.594  12.000  0.6088  0.1081  0.4618
    1Sil     Ob  756   3.553   1.710  11.972 -0.5587 -0.2124  0.3696
    1Sil     Ob  757   4.088   1.719  12.377 -0.1161  0.1732 -0.1727
    1Sil     Ob  758   3.769   1.612  11.553  0.0877  0.1394  0.1571
    1Sil     Ob  759   4.007   1.547  11.515  0.1125  0.3559 -0.4195
    1Sil     Ob  760   3.420   1.533  12.325  0.4200  0.3190 -0.2521
    1Sil     Ob  761   3.723   1.513  11.922  0.8386  0.2064 -0.0080
    1Sil     Ob  762   3.390   1.786  11.787  0.3197  0.1103 -0.2364
    1Sil     Ob  763   3.922   1.778  12.190  0.2165  0.2101  0.1371
    1Sil     Ob  764   3.681   1.777  11.377  0.0173 -0.7224  0.5387
    1Sil     Ob  765   3.712   1.967  11.191 -0.1699  0.2702  0.2347
    1Sil     Ob  766   4.299   1.970  10.404 -0.3125  0.1464 -0.0581
    1Sil     Ob  767   3.946   1.864  10.746  0.2825  0.3623  0.1547
    1Sil     Ob  768   3.512   2.454  10.772 -0.2536 -0.4116  0.2089
    1Sil     Ob  769   4.050   2.474  11.156 -0.2452 -0.3473 -0.4961
    1Sil     Ob  770   3.898   2.353  10.384  0.6402  0.5168 -0.1650
    1Sil     Ob  771   3.885   2.288  11.223  0.6739  0.3444 -0.0267
    1Sil     Ob  772   3.655   2.298  10.447  0.4030  0.3363  0.4940
    1Sil     Ob  773   4.178   2.277  10.829  0.1044  0.3094 -0.3811
    1Sil     Ob  774   3.680   2.045  10.957 -0.4273  0.3191  0.2208
    1Sil     Ob  775   3.975   2.035  10.564  0.4312 -0.4056  0.3664
    1Sil     Ob  776   3.649   2.220  11.138  0.0117  0.2531 -0.0839
    1Sil     Ob  777   3.424   2.214  10.352  0.2077 -0.2094  0.7862
    1Sil     Ob  778   3.990   2.111  10.802 -0.1017  0.1906  0.0895
    1Sil     Ob  779   3.586   2.215  10.788 -0.5820  0.6434  0.1331
    1Sil     Ob  780   4.126   2.222  11.181 -0.0895 -0.4692 -0.5676
    1Sil     Ob  781   3.813   2.113  10.364  0.3343 -0.2627 -0.3960
    1Sil     Ob  782   4.063   2.035  10.319  0.0602  0.0516 -0.3744
    1Sil     Ob  783   3.477   2.041  11.114  0.1836  0.2724  0.1338
    1Sil     Ob  784   3.766   2.046  10.710  0.4000 -0.1414  0.4956
    1Sil     Ob  785   3.437   2.297  10.592 -0.8710  0.0280 -0.2882
    1Sil     Ob  786   3.977   2.295  10.979 -0.3279 -1.0682 -0.3559
    1Sil     Ob  787   3.665   1.967  12.394  0.3556 -0.3863 -0.1116
    1Sil     Ob  788   4.249   1.968  11.584 -0.4761  0.4008  0.5862
    1Sil     Ob  789   3.884   1.848  11.949 -0.1738  0.0010 -0.4412
    1Sil     Ob  790   3.471   2.449  11.979  0.3123  0.1797  0.1482
    1Sil     Ob  791   4.016   2.456  12.338 -0.0446  0.6481  0.0449
    1Sil     Ob  792   3.842   2.354  11.578 -0.2805  0.1370 -0.3221
    1Sil     Ob  793   3.851   2.286  12.416 -0.4180  0.0588 -0.3149
    1Sil     Ob  794   3.598   2.267  11.641  0.1138 -0.1198 -0.0546
    1Sil     Ob  795   4.134   2.258  12.020 -0.0815  0.5496  0.0592
    1Sil     Ob  796   3.628   2.043  12.160 -0.4309 -0.2851 -0.1946
    1Sil     Ob  797   4.209   2.057  11.354 -0.1603 -0.0613 -0.5273
    1Sil     Ob  798   3.914   2.017  11.746 -0.1520 -0.6141 -0.4338
    1Sil     Ob  799   3.607   2.217  12.346  0.3950  0.1209 -0.1934
    1Sil     Ob  800   3.357   2.198  11.556  0.1276  0.5861  0.5325
    1Sil     Ob  801   3.950   2.096  11.985 -0.9245  0.1217 -0.3994
    1Sil     Ob  802   3.536   2.196  11.988 -0.2115 -0.2149 -0.1189
    1Sil     Ob  803   4.090   2.209  12.365 -0.0671  0.3638 -0.4659
    1Sil     Ob  804   3.768   2.107  11.554  0.3679  0.1561 -0.2920
    1Sil     Ob  805   4.003   2.031  11.505 -0.0552 -0.4700  0.5696
    1Sil     Ob  806   3.425   2.044  12.313 -0.2640 -0.3324 -0.5641
    1Sil     Ob  807   3.714   2.040  11.910  0.5811 -0.3237 -0.5772
    1Sil     Ob  808   3.391   2.290  11.792 -0.1045  0.7739 -0.1711
    1Sil     Ob  809   3.933   2.276  12.177 -0.8401  0.0587 -0.4563
    1Sil     Ob  810   3.681   2.292  11.396 -0.5933  0.0245 -0.2392
    1Sil     Ob  811   3.712   2.464  11.201  0.1638 -0.3766  0.2514
    1Sil     Ob  812   4.285   2.453  10.413 -0.3855  0.3570  0.2710
    1Sil     Ob  813   3.949   2.350  10.738  0.3941  0.0599  0.4467
    1Sil     Ob  814   3.529   2.940  10.765  0.7689 -0.2855  0.1877
    1Sil     Ob  815   4.049   2.970  11.166 -0.3354  0.1658  0.1399
    1Sil     Ob  816   3.884   2.850  10.401  0.2399 -0.4194 -0.5482
    1Sil     Ob  817   3.887   2.786  11.228  0.3010 -0.6362  0.3356
    1Sil     Ob  818   3.635   2.766  10.452 -0.5678 -0.2585  0.3229
    1Sil     Ob  819   4.186   2.758  10.827  0.3522 -0.7424  0.6132
    1Sil     Ob  820   3.675   2.526  10.959  0.1280  0.3990  0.1866
    1Sil     Ob  821   3.957   2.526  10.558 -0.3709  0.2890  0.4505
    1Sil     Ob  822   3.665   2.714  11.137 -0.3618 -0.2334 -0.3518
    1Sil     Ob  823   3.398   2.704  10.361 -0.0923  0.9192 -0.2023
    1Sil     Ob  824   3.985   2.594  10.814  0.3938  0.2022  0.3314
    1Sil     Ob  825   3.603   2.697  10.791  0.0863 -0.1232 -0.4059
    1Sil     Ob  826   4.128   2.718  11.177 -0.3285  0.5121 -0.5409
    1Sil     Ob  827   3.811   2.605  10.364  0.0033  0.1792 -0.2659
    1Sil     Ob  828   4.063   2.538  10.320  0.4299 -0.0671  0.5442
    1Sil     Ob  829   3.481   2.545  11.117 -0.3921  0.5077  0.3822
    1Sil     Ob  830   3.762   2.524  10.717  0.2600 -0.0632  0.4468
    1Sil     Ob  831   3.438   2.765  10.611  0.3574  0.5411  0.2923
    1Sil     Ob  832   3.978   2.797  10.982  0.3259 -0.0403  0.0069
    1Sil     Ob  833   3.664   2.466  12.398 -0.7658 -0.1783 -0.1764
    1Sil     Ob  834   4.225   2.471  11.600 -0.1045 -0.7196 -0.7389
    1Sil     Ob  835   3.916   2.343  11.923  0.0776 -0.1490 -0.0630
    1Sil     Ob  836   3.472   2.947  11.975  0.2416  0.3414  0.2547
    1Sil     Ob  837   4.010   2.950  12.341  0.0260  0.2125  0.1253
    1Sil     Ob  838   3.834   2.837  11.594 -0.2920 -0.2601  0.0621
    1Sil     Ob  839   3.838   2.789  12.430 -0.2314  0.3761 -0.0295
    1Sil     Ob  840   3.591   2.763  11.631  0.2263 -0.0565  0.0046
    1Sil     Ob  841   4.127   2.763  12.047  0.4705 -0.3765 -0.1880
    1Sil     Ob  842   3.633   2.557  12.153  0.3035  0.3378 -0.3426
    1Sil     Ob  843   4.204   2.552  11.352  0.5290  0.0170 -0.3979
    1Sil     Ob  844   3.915   2.532  11.754 -0.0215  0.0975 -0.0393
    1Sil     Ob  845   3.600   2.711  12.363 -0.4967  0.2015  0.6284
    1Sil     Ob  846   3.351   2.697  11.547 -0.3787 -0.0019  0.8121
    1Sil     Ob  847   3.951   2.587  11.995 -0.2130  0.0564 -0.3840
    1Sil     Ob  848   3.556   2.695  11.956 -0.5517  0.0268 -0.0961
    1Sil     Ob  849   4.073   2.703  12.386  0.1827 -0.3150  0.2525
    1Sil     Ob  850   3.757   2.599  11.559 -0.4076  0.4398 -0.5015
    1Sil     Ob  851   4.003   2.545  11.508  0.4094  0.0131  0.4372
    1Sil     Ob  852   3.430   2.535  12.312  0.0795 -0.1503  0.7220
    1Sil     Ob  853   3.712   2.505  11.912 -0.3566  0.3913 -0.1550
    1Sil     Ob  854   3.391   2.789  11.782 -1.2854  0.6414  0.2132
    1Sil     Ob  855   3.917   2.771  12.184 -0.3395  0.0237  0.1043
    1Sil     Ob  856   3.666   2.778  11.387 -0.7483  0.2553 -0.0960
    1Sil     Ob  857   3.691   2.961  11.212  0.1825 -0.1897 -0.2225
    1Sil     Ob  858   4.289   2.956  10.411  0.2920  0.6107 -0.3064
    1Sil     Ob  859   3.972   2.840  10.734 -0.1332 -0.0393 -0.3781
    1Sil     Ob  860   3.525   3.430  10.777 -0.4616 -0.2848  0.5793
    1Sil     Ob  861   4.058   3.450  11.156  0.0942 -0.2207 -0.2860
    1Sil     Ob  862   3.899   3.346  10.400 -0.3211  0.8798 -0.3052
    1Sil     Ob  863   3.890   3.270  11.250 -0.4456  0.1294  0.5952
    1Sil     Ob  864   3.654   3.278  10.454 -0.1827  0.4809 -0.6639
    1Sil     Ob  865   4.189   3.253  10.850  0.3809 -0.3693 -0.8574
    1Sil     Ob  866   3.675   3.011  10.966  0.7408  0.0089 -0.0186
    1Sil     Ob  867   3.971   3.032  10.562 -0.0823 -0.3281  0.3756
    1Sil     Ob  868   3.663   3.204  11.139 -0.2540  0.0729  0.3789
    1Sil     Ob  869   3.425   3.195  10.359 -0.2996 -0.1311  0.6256
    1Sil     Ob  870   3.991   3.082  10.815  0.0788  0.2137 -0.8417
    1Sil     Ob  871   3.605   3.189  10.788  0.5811 -0.5910  0.4710
    1Sil     Ob  872   4.131   3.201  11.187 -0.1506 -0.0961  0.2083
    1Sil     Ob  873   3.819   3.101  10.366  0.3327 -0.4523 -0.3765
    1Sil     Ob  874   4.060   3.016  10.320  0.0597  0.0611  0.3651
    1Sil     Ob  875   3.472   3.042  11.111  0.1869 -0.4988  0.5827
    1Sil     Ob  876   3.774   3.000  10.721  0.5823 -1.0253 -0.5692
    1Sil     Ob  877   3.443   3.260  10.606  0.3152  0.2848 -0.9832
    1Sil     Ob  878   3.972   3.278  11.000  0.9976  0.2488 -0.2363
    1Sil     Ob  879   3.654   2.960  12.407  0.1563 -0.1712  0.2485
    1Sil     Ob  880   4.232   2.961  11.607  0.2063  0.4947 -0.0632
    1Sil     Ob  881   3.912   2.834  11.938  0.5038  0.4182 -0.1773
    1Sil     Ob  882   3.491   3.434  11.975  0.6978 -0.3522 -0.0888
    1Sil     Ob  883   4.008   3.445  12.345  0.3762  0.3211  0.2649
    1Sil     Ob  884   3.831   3.336  11.584 -0.0826  0.2851  0.4969
    1Sil     Ob  885   3.843   3.262  12.434 -0.5066 -0.9516  0.0652
    1Sil     Ob  886   3.586   3.265  11.634 -0.4081 -0.0123 -0.8286
    1Sil     Ob  887   4.126   3.255  12.043 -0.8873  0.2754  0.3492
    1Sil     Ob  888   3.629   3.033  12.166 -0.0000  0.1830  0.3372
    1Sil     Ob  889   4.215   3.038  11.358 -0.0361  0.5678 -0.1371
    1Sil     Ob  890   3.911   3.026  11.759 -0.4677  0.2938 -0.2233
    1Sil     Ob  891   3.611   3.209  12.354  0.2450  0.5038 -0.0995
    1Sil     Ob  892   3.342   3.199  11.568  1.1218  0.1052  0.4643
    1Sil     Ob  893   3.948   3.083  12.012 -0.4860 -0.0476  0.0032
    1Sil     Ob  894   3.563   3.200  11.977  0.3866  0.3646 -0.0201
    1Sil     Ob  895   4.076   3.193  12.383  0.2962  0.1473 -0.2179
    1Sil     Ob  896   3.758   3.090  11.559  0.4279 -0.3825  0.3888
    1Sil     Ob  897   4.001   3.023  11.505 -0.5077  0.6402  0.2150
    1Sil     Ob  898   3.426   3.030  12.320 -0.2087  0.4252 -0.4352
    1Sil     Ob  899   3.718   2.994  11.927  0.7139 -0.3785 -0.2562
    1Sil     Ob  900   3.395   3.280  11.799 -0.1007 -0.4838  0.1474
    1Sil     Ob  901   3.915   3.274  12.188 -0.0214  0.5206  0.7307
    1Sil     Ob  902   3.668   3.267  11.395  0.2065  0.0153  0.6258
    1Sil     Ob  903   3.705   3.445  11.200 -0.4374 -0.2459  0.3894
    1Sil     Ob  904   4.277   3.440  10.422  0.7383 -0.2981 -0.2525
    1Sil     Ob  905   3.957   3.338  10.753  0.2332 -0.0419 -0.1557
    1Sil     Ob  906   3.885   0.311  11.243  0.3064  0.2508 -0.1252
    1Sil     Ob  907   3.651   0.330  10.444 -0.2035  0.4323  0.2397
    1Sil     Ob  908   4.185   0.300  10.849 -0.0904 -0.1266  0.6671
    1Sil     Ob  909   3.681   3.524  10.956 -0.0493 -0.3291 -0.0451
    1Sil     Ob  910   3.977   3.523  10.567 -0.4474 -0.1298 -0.8143
    1Sil     Ob  911   3.655   3.690  11.153 -0.3530 -0.0439  0.1107
    1Sil     Ob  912   3.435   3.700  10.338 -0.6756  0.3179 -0.2817
    1Sil     Ob  913   3.990   3.582  10.816  0.1309  0.2468  0.2041
    1Sil     Ob  914   3.599   0.228  10.765 -0.3225  0.5482  0.6444
    1Sil     Ob  915   4.139   0.246  11.186  0.3223  0.1553 -0.3717
    1Sil     Ob  916   3.819   0.139  10.384  0.2021  0.4352  0.1911
    1Sil     Ob  917   4.056   3.528  10.320 -0.1955 -0.5167  0.4007
    1Sil     Ob  918   3.477   3.522  11.116  0.0307 -0.8395  0.0797
    1Sil     Ob  919   3.764   3.490  10.713 -0.1089 -0.1078 -0.0731
    1Sil     Ob  920   3.446   0.315  10.588 -0.1022 -0.1034 -0.1432
    1Sil     Ob  921   3.971   0.297  11.005 -0.2044  0.1688 -0.1247
    1Sil     Ob  922   3.661   3.450  12.421  0.3273  0.1294  0.0395
    1Sil     Ob  923   4.241   3.451  11.602  0.6847  0.1559  0.5381
    1Sil     Ob  924   3.916   3.327  11.934  0.1402  0.3894  0.1906
    1Sil     Ob  925   3.828   0.312  12.440 -0.3924 -0.1744 -0.7686
    1Sil     Ob  926   3.593   0.322  11.642  0.1913 -0.2086  0.4290
    1Sil     Ob  927   4.137   0.307  12.040  0.2353  1.2735 -0.0756
    1Sil     Ob  928   3.641   3.523  12.175  0.5593  0.2852  0.3571
    1Sil     Ob  929   4.213   3.531  11.359 -0.5731  0.0283  0.6411
    1Sil     Ob  930   3.929   3.501  11.749  0.2753  0.5951  0.6447
    1Sil     Ob  931   3.602   3.699  12.364  0.6186 -0.0792  0.2829
    1Sil     Ob  932   3.366   3.693  11.546  0.3327 -0.7194 -0.4614
    1Sil     Ob  933   3.958   3.570  11.991 -1.1631 -0.6427 -0.0449
    1Sil     Ob  934   3.557   0.226  11.990 -0.6683  0.1409 -0.4456
    1Sil     Ob  935   4.076   0.228  12.382 -0.4540  0.2580 -0.0027
    1Sil     Ob  936   3.761   0.131  11.568  0.0017 -0.3962 -0.1241
    1Sil     Ob  937   4.008   3.529  11.503  0.0606  0.0490 -0.6656
    1Sil     Ob  938   3.429   3.509  12.329 -0.2245 -0.0094  0.4164
    1Sil     Ob  939   3.722   3.495  11.923  0.0396  0.0493  0.1470
    1Sil     Ob  940   3.398   0.303  11.795 -0.2069 -0.3443 -0.4174
    1Sil     Ob  941   3.916   0.287  12.188  1.3484  0.9009  0.3654
    1Sil     Ob  942   3.679   0.313  11.401 -0.0908  0.3521  0.3111
    1Sil     Ob  943   4.529   0.491  11.206 -0.4738  0.1815 -0.7768
    1Sil     Ob  944   4.348   0.975  10.768  0.2049  0.1333  0.0877
    1Sil     Ob  945   4.899   0.975  11.141  0.3848  0.1896  0.0408
    1Sil     Ob  946   4.720   0.873  10.396  0.9270 -0.1977  0.1625
    1Sil     Ob  947   4.722   0.822  11.232  0.5315  0.2467 -0.1329
    1Sil     Ob  948   4.484   0.807  10.435 -0.1209  0.5081 -0.1391
    1Sil     Ob  949   1.681   0.808  10.836  0.0081 -0.0315  0.2585
    1Sil     Ob  950   4.502   0.547  10.956 -0.5293 -0.3031  0.1156
    1Sil     Ob  951   1.473   0.557  10.554  0.4027  0.1557 -0.1086
    1Sil     Ob  952   4.503   0.738  11.128 -0.6462  0.1177 -0.4121
    1Sil     Ob  953   4.262   0.732  10.348  0.8297  0.3623  0.3868
    1Sil     Ob  954   1.503   0.616  10.809  0.1666  0.6529  0.5655
    1Sil     Ob  955   4.423   0.717  10.794  0.7566  0.2362 -0.3287
    1Sil     Ob  956   4.963   0.731  11.194  0.0703 -0.2446  0.0663
    1Sil     Ob  957   4.651   0.622  10.369 -0.3415 -0.5788  0.2993
    1Sil     Ob  958   1.561   0.558  10.307 -0.4002  0.0062 -0.5855
    1Sil     Ob  959   4.303   0.561  11.113  0.3925 -0.1553  0.1110
    1Sil     Ob  960   1.262   0.539  10.714  0.0899 -0.6381 -0.0463
    1Sil     Ob  961   4.278   0.793  10.594 -0.4335 -0.3970 -0.6348
    1Sil     Ob  962   4.805   0.786  10.999  0.3304  0.1148 -0.2915
    1Sil     Ob  963   4.473   0.491  12.420 -0.3668  0.0692 -0.0285
    1Sil     Ob  964   4.298   0.978  11.961 -0.1745  0.4164  0.4565
    1Sil     Ob  965   4.844   0.983  12.353 -0.2572  0.2997 -0.1914
    1Sil     Ob  966   4.665   0.877  11.551  0.1328  0.3932 -0.6949
    1Sil     Ob  967   4.666   0.809  12.434  0.5629 -0.3018 -0.2513
    1Sil     Ob  968   4.423   0.804  11.624  0.3204  0.5614  0.1468
    1Sil     Ob  969   1.631   0.807  12.029 -0.2131  1.0855  0.5321
    1Sil     Ob  970   4.470   0.574  12.159  0.3673  0.0197  0.5691
    1Sil     Ob  971   1.718   0.550  11.353 -0.4358 -0.3306 -0.5420
    1Sil     Ob  972   1.407   0.573  11.750  0.4430 -0.3637  0.2086
    1Sil     Ob  973   4.432   0.734  12.351 -0.0002 -0.3824  0.2397
    1Sil     Ob  974   4.181   0.745  11.546  0.2163  0.8256 -0.0660
    1Sil     Ob  975   1.448   0.625  12.004  0.0638  0.0385 -0.2088
    1Sil     Ob  976   4.377   0.737  11.979 -0.1487  0.1928 -0.0891
    1Sil     Ob  977   4.911   0.735  12.392  0.4220 -0.9300 -0.3834
    1Sil     Ob  978   4.591   0.624  11.544  0.2530  0.4062  0.3796
    1Sil     Ob  979   1.509   0.562  11.499 -0.8355 -0.4511 -1.0478
    1Sil     Ob  980   4.249   0.551  12.317  0.6635  0.7149 -0.2752
    1Sil     Ob  981   1.213   0.549  11.913  0.3653 -0.0589 -0.0200
    1Sil     Ob  982   4.222   0.801  11.791  0.4191  0.5972  0.9203
    1Sil     Ob  983   4.753   0.808  12.183 -0.0343  0.1264 -0.5474
    1Sil     Ob  984   4.504   0.800  11.375 -0.3181  0.1728 -0.4872
    1Sil     Ob  985   4.531   0.977  11.199  0.1956  0.0349  0.4627
    1Sil     Ob  986   1.444   0.863  10.753 -0.0418  0.4672  0.3693
    1Sil     Ob  987   4.364   1.478  10.747 -0.8245 -0.3893  0.1143
    1Sil     Ob  988   4.894   1.468  11.149 -0.6411  0.8542 -0.1169
    1Sil     Ob  989   4.725   1.361  10.350  0.4580 -0.2760 -0.7111
    1Sil     Ob  990   4.723   1.294  11.235  0.2045 -0.6328  0.6889
    1Sil     Ob  991   4.476   1.305  10.418 -0.8743 -0.3517  0.3058
    1Sil     Ob  992   1.692   1.300  10.834  0.0608 -0.1582  0.0786
    1Sil     Ob  993   4.503   1.043  10.947 -0.0783 -0.1353  0.5058
    1Sil     Ob  994   1.458   1.048  10.563  0.3868  0.4729  0.2217
    1Sil     Ob  995   4.484   1.220  11.148  1.0314 -0.0650  0.4870
    1Sil     Ob  996   4.243   1.228  10.331 -0.3270 -0.3543  0.5403
    1Sil     Ob  997   1.497   1.115  10.813  0.3883  0.0205  0.2679
    1Sil     Ob  998   4.424   1.226  10.782  0.3746  0.2047  0.3472
    1Sil     Ob  999   4.968   1.220  11.166  0.2551 -0.0389 -0.0111
    1Sil     Ob 1000   4.636   1.115  10.366 -0.1370 -0.3820 -0.1547
    1Sil     Ob 1001   1.555   1.051  10.325  0.3861  0.5765  0.1599
    1Sil     Ob 1002   4.299   1.039  11.118  0.2084 -0.1771  0.5993
    1Sil     Ob 1003   1.254   1.035  10.710  0.0944 -0.8264  0.2917
    1Sil     Ob 1004   4.280   1.296  10.583  0.0783  0.1579 -0.5302
    1Sil     Ob 1005   4.812   1.298  10.986 -0.2557  0.1526  0.4655
    1Sil     Ob 1006   4.487   0.988  12.401 -0.1474 -0.2701 -0.0545
    1Sil     Ob 1007   1.403   0.867  11.923  0.2018  0.0350 -0.6867
    1Sil     Ob 1008   4.307   1.463  12.000  0.4455 -0.1564 -0.5140
    1Sil     Ob 1009   4.853   1.467  12.333  1.0070 -0.7003  0.2995
    1Sil     Ob 1010   4.673   1.369  11.583  0.2685  0.3013 -0.5003
    1Sil     Ob 1011   4.689   1.302  12.423 -0.2795  0.3918  0.4937
    1Sil     Ob 1012   4.428   1.295  11.629 -0.9863 -0.1733  0.1222
    1Sil     Ob 1013   1.637   1.277  12.014  0.0428 -0.5439 -0.5141
    1Sil     Ob 1014   4.470   1.054  12.148 -0.2942  0.2050  0.1974
    1Sil     Ob 1015   1.714   1.042  11.339  0.3280  0.5593  0.4754
    1Sil     Ob 1016   1.417   1.034  11.729 -0.3908 -0.5374 -0.3161
    1Sil     Ob 1017   4.448   1.229  12.345  0.1231  0.4702  0.4109
    1Sil     Ob 1018   4.188   1.236  11.551  0.4722  0.4814 -0.0794
    1Sil     Ob 1019   1.451   1.112  11.976  0.2498  0.1820  0.2664
    1Sil     Ob 1020   4.389   1.216  11.963 -0.0913  0.2141 -0.2295
    1Sil     Ob 1021   4.928   1.217  12.360 -0.1733 -0.1338  0.3070
    1Sil     Ob 1022   4.600   1.120  11.546 -0.0022  0.0870  0.5237
    1Sil     Ob 1023   1.506   1.052  11.490 -1.1020 -0.0745  0.0105
    1Sil     Ob 1024   4.259   1.057  12.302  0.3008  0.8003 -0.5618
    1Sil     Ob 1025   1.222   1.021  11.897 -0.0363 -0.1736 -0.2141
    1Sil     Ob 1026   4.222   1.315  11.795  0.2508  0.1282  0.0772
    1Sil     Ob 1027   4.762   1.281  12.174  0.2607  0.3048  0.2396
    1Sil     Ob 1028   4.523   1.312  11.387  0.1332  0.2014 -0.0395
    1Sil     Ob 1029   4.541   1.470  11.190 -0.3080  0.4145  0.8925
    1Sil     Ob 1030   1.447   1.366  10.755  0.1183  0.4723  0.2742
    1Sil     Ob 1031   4.350   1.955  10.775  0.4092  0.5502 -0.2390
    1Sil     Ob 1032   4.890   1.964  11.150 -0.0558  0.0226 -0.1061
    1Sil     Ob 1033   4.726   1.853  10.395 -0.0370  0.3483  0.6539
    1Sil     Ob 1034   4.712   1.779  11.223 -0.2636 -0.0910  0.4364
    1Sil     Ob 1035   4.482   1.785  10.440  0.3006 -0.3366 -0.9678
    1Sil     Ob 1036   1.689   1.791  10.836 -0.2081  0.4054  0.1547
    1Sil     Ob 1037   4.525   1.542  10.954 -0.1359 -0.0346  0.5964
    1Sil     Ob 1038   1.484   1.516  10.543 -0.6592 -0.2887 -0.3383
    1Sil     Ob 1039   4.484   1.722  11.133  0.5760 -0.2595  0.4958
    1Sil     Ob 1040   4.252   1.717  10.329 -0.4990 -0.1142 -0.2601
    1Sil     Ob 1041   1.523   1.610  10.780 -0.3868 -0.6990  0.6764
    1Sil     Ob 1042   4.435   1.721  10.783  0.0049 -0.1213 -0.3199
    1Sil     Ob 1043   4.962   1.709  11.187  0.1579 -0.2117 -0.0783
    1Sil     Ob 1044   4.655   1.621  10.347 -0.5951  0.3593  0.3186
    1Sil     Ob 1045   1.579   1.536  10.298 -0.0005 -0.3422  0.2299
    1Sil     Ob 1046   4.312   1.543  11.105 -0.8918  0.4391  0.4272
    1Sil     Ob 1047   1.289   1.559  10.704  0.3796  0.7295 -0.6237
    1Sil     Ob 1048   4.269   1.784  10.589 -0.0933  0.0373 -0.1981
    1Sil     Ob 1049   4.806   1.771  10.990  0.3732  0.8879 -0.1297
    1Sil     Ob 1050   4.492   1.467  12.407 -0.0971  0.5949  0.1553
    1Sil     Ob 1051   1.406   1.364  11.923  0.1049  0.0421  0.0635
    1Sil     Ob 1052   4.293   1.959  11.961  0.1723  0.3294  0.0983
    1Sil     Ob 1053   4.844   1.965  12.344  0.7893  0.3411  0.7053
    1Sil     Ob 1054   4.664   1.860  11.568 -0.1619 -0.3327  0.0061
    1Sil     Ob 1055   4.663   1.797  12.424  0.2591  0.7544 -0.4914
    1Sil     Ob 1056   4.427   1.774  11.617 -0.3013  0.7901 -0.3210
    1Sil     Ob 1057   1.631   1.787  12.032  0.3973 -0.3056  0.0827
    1Sil     Ob 1058   4.463   1.549  12.162  0.0278 -0.3996 -0.9740
    1Sil     Ob 1059   1.719   1.545  11.353  0.1965  0.4196 -0.3511
    1Sil     Ob 1060   1.421   1.558  11.755  0.3854 -0.1152  1.4038
    1Sil     Ob 1061   4.428   1.716  12.360 -0.0281 -0.2773 -0.6711
    1Sil     Ob 1062   4.188   1.719  11.539  0.4760 -0.0391  0.2195
    1Sil     Ob 1063   1.445   1.599  12.005  0.0599  0.7300 -0.3682
    1Sil     Ob 1064   4.376   1.719  11.979  0.2873  0.6647  0.0312
    1Sil     Ob 1065   4.903   1.717  12.375 -0.5245  0.1939 -0.3436
    1Sil     Ob 1066   4.607   1.606  11.552  0.1745 -0.0485 -0.1764
    1Sil     Ob 1067   1.518   1.547  11.504 -0.1435 -0.2257  0.0968
    1Sil     Ob 1068   4.258   1.532  12.330  0.2956  0.2118  0.0274
    1Sil     Ob 1069   1.211   1.530  11.909 -0.5204 -0.3657 -0.0410
    1Sil     Ob 1070   4.226   1.793  11.778 -0.4182 -0.3879  0.0435
    1Sil     Ob 1071   4.753   1.784  12.187  0.4354  0.2430 -0.9179
    1Sil     Ob 1072   4.506   1.772  11.375  0.0814 -0.4592 -0.5578
    1Sil     Ob 1073   4.533   1.967  11.203 -0.4100 -0.2513 -0.2909
    1Sil     Ob 1074   1.459   1.857  10.738  0.1360 -0.1723 -0.7801
    1Sil     Ob 1075   4.361   2.453  10.756 -0.2228  0.3564  0.0976
    1Sil     Ob 1076   4.894   2.453  11.154 -0.1953 -0.2267  0.9816
    1Sil     Ob 1077   4.724   2.349  10.396  0.2869  0.3797 -0.2179
    1Sil     Ob 1078   4.720   2.291  11.242  0.3348  0.3248  0.1044
    1Sil     Ob 1079   4.484   2.290  10.439 -0.0979  0.2950  0.2229
    1Sil     Ob 1080   1.686   2.271  10.847  0.0658  0.3616 -0.1940
    1Sil     Ob 1081   4.510   2.042  10.962 -1.0596  0.3505  0.7254
    1Sil     Ob 1082   1.479   2.030  10.562  0.1226 -0.2224 -0.2014
    1Sil     Ob 1083   4.494   2.222  11.141  0.0949 -0.8956 -0.5496
    1Sil     Ob 1084   4.258   2.205  10.345 -0.3263 -0.7218  1.2068
    1Sil     Ob 1085   1.506   2.094  10.816  0.0412 -0.1323 -0.5237
    1Sil     Ob 1086   4.418   2.200  10.795  0.1566  0.6967 -1.4338
    1Sil     Ob 1087   4.952   2.202  11.208 -0.4077 -1.1705 -0.0022
    1Sil     Ob 1088   4.654   2.103  10.375  0.1655  0.3389  0.7122
    1Sil     Ob 1089   1.558   2.035  10.324 -0.0028 -0.5259 -0.7503
    1Sil     Ob 1090   4.309   2.053  11.109  0.6231  0.0446 -0.1327
    1Sil     Ob 1091   1.271   2.041  10.716 -0.3711 -0.2384  0.3460
    1Sil     Ob 1092   4.279   2.269  10.592 -0.1335 -0.2619 -0.3922
    1Sil     Ob 1093   4.804   2.270  11.003 -0.6207  0.6024 -0.2786
    1Sil     Ob 1094   4.475   1.969  12.384  0.2552  0.1657  0.6854
    1Sil     Ob 1095   1.400   1.843  11.937  0.8450 -0.2783  0.2606
    1Sil     Ob 1096   4.301   2.449  11.974  0.1197 -0.0250 -0.2181
    1Sil     Ob 1097   4.832   2.445  12.374  0.0188  0.8013 -0.0916
    1Sil     Ob 1098   4.676   2.349  11.564  0.4954 -0.5317  0.0468
    1Sil     Ob 1099   4.658   2.260  12.416  0.0765  0.0639 -0.2161
    1Sil     Ob 1100   4.422   2.301  11.630  0.3979 -0.5439  0.6280
    1Sil     Ob 1101   1.634   2.256  12.036 -0.6226 -0.3385  0.1542
    1Sil     Ob 1102   4.447   2.038  12.139  0.3834  0.4485  0.8064
    1Sil     Ob 1103   1.703   2.026  11.363  0.2255 -0.3721  0.4938
    1Sil     Ob 1104   1.418   2.021  11.755  0.4008  0.7685  0.0097
    1Sil     Ob 1105   4.424   2.219  12.333 -0.1030 -0.1399  0.6304
    1Sil     Ob 1106   4.179   2.216  11.542  0.2447 -0.0614 -0.4590
    1Sil     Ob 1107   1.430   2.095  12.005 -0.3000  0.3050 -0.1579
    1Sil     Ob 1108   4.373   2.199  11.951  0.0204 -0.3581  0.6413
    1Sil     Ob 1109   4.912   2.205  12.382 -0.0853  0.2897 -0.0861
    1Sil     Ob 1110   4.588   2.108  11.574  0.2684 -0.2109 -0.2182
    1Sil     Ob 1111   1.501   2.052  11.519 -0.1275 -0.8353  0.1891
    1Sil     Ob 1112   4.250   2.028  12.292 -0.2458  0.0818 -0.0189
    1Sil     Ob 1113   1.210   2.009  11.901 -0.1621 -0.2033  0.1899
    1Sil     Ob 1114   4.211   2.290  11.779  0.1727  0.3872 -0.3696
    1Sil     Ob 1115   4.754   2.282  12.186  0.0639 -0.2288  0.0057
    1Sil     Ob 1116   4.502   2.276  11.390  0.0932 -0.1561 -0.1536
    1Sil     Ob 1117   4.527   2.469  11.213  0.2720  0.6099 -0.3053
    1Sil     Ob 1118   1.448   2.346  10.763  0.3966  0.3389 -0.0062
    1Sil     Ob 1119   4.358   2.940  10.756 -0.2523  0.0874 -0.4161
    1Sil     Ob 1120   4.892   2.952  11.158  0.3330  0.0675  0.0956
    1Sil     Ob 1121   4.730   2.847  10.381 -0.1490  0.6174  0.2164
    1Sil     Ob 1122   4.716   2.781  11.237 -0.0763  0.7262  0.0527
    1Sil     Ob 1123   4.486   2.803  10.438 -0.2128  0.8188 -0.4946
    1Sil     Ob 1124   1.683   2.780  10.854 -0.1320 -0.4223  0.5236
    1Sil     Ob 1125   4.504   2.517  10.963  0.3986  0.4226  0.1068
    1Sil     Ob 1126   1.481   2.516  10.576 -0.2636  0.1173 -0.1332
    1Sil     Ob 1127   4.493   2.710  11.136  0.0629 -0.3881 -0.4187
    1Sil     Ob 1128   4.273   2.703  10.341  0.4262 -0.3628 -0.5769
    1Sil     Ob 1129   1.507   2.588  10.831  0.3939 -0.2325 -0.2265
    1Sil     Ob 1130   4.433   2.690  10.788 -0.2047 -0.4615  0.0715
    1Sil     Ob 1131   4.958   2.708  11.201  0.1801 -0.3777 -0.1731
    1Sil     Ob 1132   4.647   2.596  10.384 -0.4800  0.0497  0.3001
    1Sil     Ob 1133   1.558   2.524  10.334  0.4981 -0.2607 -0.3173
    1Sil     Ob 1134   4.297   2.540  11.118  0.4569 -0.0652  0.2672
    1Sil     Ob 1135   1.282   2.519  10.729 -0.0655  0.2479  0.2499
    1Sil     Ob 1136   4.274   2.774  10.593 -0.2680  0.4718  0.1508
    1Sil     Ob 1137   4.802   2.770  11.003 -0.3660  0.6098 -0.0857
    1Sil     Ob 1138   4.489   2.465  12.391 -0.4056 -0.1605  0.2622
    1Sil     Ob 1139   1.408   2.338  11.922 -0.2497 -0.7007  0.3785
    1Sil     Ob 1140   4.296   2.946  11.973  0.2646  0.5589 -0.3778
    1Sil     Ob 1141   4.857   2.935  12.333  0.3891  0.4369 -0.4839
    1Sil     Ob 1142   4.661   2.844  11.589 -0.6395 -0.6438 -0.3617
    1Sil     Ob 1143   4.670   2.785  12.433  0.0560  0.2631 -0.3664
    1Sil     Ob 1144   4.416   2.777  11.633  0.0003  0.1496 -0.1047
    1Sil     Ob 1145   1.635   2.765  12.035  0.0592 -0.2011  0.2426
    1Sil     Ob 1146   4.475   2.538  12.144  0.1682  0.0683  0.1609
    1Sil     Ob 1147   1.707   2.518  11.353 -0.1576 -0.1077 -0.1128
    1Sil     Ob 1148   1.421   2.526  11.739  0.1147 -0.6160 -0.2545
    1Sil     Ob 1149   4.449   2.717  12.336  0.0476 -0.4364  0.0324
    1Sil     Ob 1150   4.189   2.713  11.554  0.0275 -0.3660  0.4168
    1Sil     Ob 1151   1.460   2.587  11.995 -0.3073 -0.6501  0.4249
    1Sil     Ob 1152   4.378   2.701  11.979  0.2030  0.1021 -0.1327
    1Sil     Ob 1153   4.907   2.693  12.389  0.4326  0.0766  0.3018
    1Sil     Ob 1154   4.595   2.600  11.549  0.3751  0.2619  0.1914
    1Sil     Ob 1155   1.510   2.533  11.502  0.8060  0.0817  0.2927
    1Sil     Ob 1156   4.260   2.535  12.304  0.2216 -0.5563  0.2620
    1Sil     Ob 1157   1.217   2.510  11.903  0.3868 -0.3802 -0.0388
    1Sil     Ob 1158   4.222   2.784  11.800 -0.5470 -0.3527  0.3299
    1Sil     Ob 1159   4.751   2.756  12.183  0.2117  0.0269 -0.1898
    1Sil     Ob 1160   4.502   2.785  11.394  0.2725  0.6291  0.1480
    1Sil     Ob 1161   4.540   2.952  11.204  0.0719  0.1843 -0.3790
    1Sil     Ob 1162   1.455   2.836  10.757  0.3258 -0.4895  0.0885
    1Sil     Ob 1163   4.356   3.434  10.776 -0.0692 -0.0152  0.1007
    1Sil     Ob 1164   4.893   3.449  11.162  0.1172  0.4300 -0.1709
    1Sil     Ob 1165   4.715   3.347  10.386  0.3004 -0.6627  0.4401
    1Sil     Ob 1166   4.718   3.273  11.241 -0.0557 -0.2342  0.5213
    1Sil     Ob 1167   4.464   3.271  10.448 -0.1474 -0.3138  0.2392
    1Sil     Ob 1168   1.685   3.248  10.833 -0.0377  0.5778 -0.5986
    1Sil     Ob 1169   4.505   3.023  10.966  0.0559  0.4512 -0.0456
    1Sil     Ob 1170   1.475   3.015  10.564 -0.7248  0.3205 -0.1317
    1Sil     Ob 1171   4.487   3.199  11.144 -0.4069  0.5571 -0.2316
    1Sil     Ob 1172   4.235   3.199  10.359 -0.0750 -0.0493  0.1233
    1Sil     Ob 1173   1.490   3.085  10.819 -0.7227 -0.1629  0.2423
    1Sil     Ob 1174   4.437   3.192  10.789  0.4595  0.0174  0.4072
    1Sil     Ob 1175   4.963   3.204  11.183  0.0177  0.1516 -0.7662
    1Sil     Ob 1176   4.646   3.097  10.379 -0.2668 -0.2413  0.2751
    1Sil     Ob 1177   1.558   3.037  10.318  0.3697 -0.0552 -0.0055
    1Sil     Ob 1178   4.296   3.013  11.115 -0.0653 -0.2023  0.1250
    1Sil     Ob 1179   1.278   3.020  10.718 -0.0209 -0.0041 -0.1190
    1Sil     Ob 1180   4.268   3.259  10.611 -0.4171  0.0060  0.0804
    1Sil     Ob 1181   4.807   3.277  10.991 -0.4366 -0.8078 -0.1309
    1Sil     Ob 1182   4.491   2.953  12.398  0.1647 -0.0554 -0.3033
    1Sil     Ob 1183   1.413   2.835  11.927  0.1189 -0.6656  0.2353
    1Sil     Ob 1184   4.289   3.432  11.971 -0.4250 -0.3195 -0.0536
    1Sil     Ob 1185   4.846   3.435  12.335 -0.2810 -0.4020  0.7600
    1Sil     Ob 1186   4.661   3.342  11.573  0.4588 -0.7681 -0.2959
    1Sil     Ob 1187   4.675   3.260  12.420  0.6776 -0.4746  0.4982
    1Sil     Ob 1188   4.424   3.276  11.631 -0.4679  0.7931 -0.3560
    1Sil     Ob 1189   1.634   3.259  12.037 -0.8793  0.0872 -0.1221
    1Sil     Ob 1190   4.468   3.039  12.154  0.1226  0.3603  0.7438
    1Sil     Ob 1191   1.708   3.013  11.365 -0.1210 -0.2187 -0.3308
    1Sil     Ob 1192   1.414   3.018  11.749 -0.4803  0.1052  0.1455
    1Sil     Ob 1193   4.440   3.195  12.356 -0.2996  0.0313  0.2330
    1Sil     Ob 1194   4.191   3.205  11.541 -0.2447 -0.1466 -0.4741
    1Sil     Ob 1195   1.453   3.088  11.994 -0.6999  0.5738  0.4969
    1Sil     Ob 1196   4.370   3.194  11.981  0.1091 -0.5437  0.6034
    1Sil     Ob 1197   4.910   3.186  12.353 -0.6008 -0.0019  0.2424
    1Sil     Ob 1198   4.588   3.090  11.551 -0.5406  0.1911 -0.0122
    1Sil     Ob 1199   1.498   3.031  11.513  0.3112 -0.8212  0.6373
    1Sil     Ob 1200   4.263   3.016  12.309  0.3126  0.2991 -0.2012
    1Sil     Ob 1201   1.217   3.011  11.899  0.3276 -0.7381 -0.5468
    1Sil     Ob 1202   4.208   3.281  11.789  0.0993 -0.3446  0.0967
    1Sil     Ob 1203   4.747   3.273  12.174  0.3512 -0.3399  0.2773
    1Sil     Ob 1204   4.508   3.262  11.388  0.1201 -0.4684  0.2059
    1Sil     Ob 1205   4.534   3.439  11.205  0.1473  0.1018 -0.4232
    1Sil     Ob 1206   1.460   3.331  10.739  0.4428  0.3769  0.3673
    1Sil     Ob 1207   1.398   0.334  11.235  0.0231 -0.9042 -0.1771
    1Sil     Ob 1208   1.146   0.330  10.432  0.1098 -0.3711  0.2195
    1Sil     Ob 1209   1.686   0.298  10.840  0.3536  0.3247 -0.1187
    1Sil     Ob 1210   4.515   3.508  10.962 -0.0625 -0.0970 -0.6485
    1Sil     Ob 1211   1.462   3.526  10.565  0.6512 -0.2967 -0.2478
    1Sil     Ob 1212   4.493   3.697  11.143 -0.3012  0.2344 -0.2353
    1Sil     Ob 1213   4.243   3.691  10.352  0.0237  0.5033 -0.4612
    1Sil     Ob 1214   1.505   3.576  10.808  0.0270  0.4577 -0.2187
    1Sil     Ob 1215   4.426   0.223  10.798 -0.2777  0.5003  0.0391
    1Sil     Ob 1216   1.631   0.236  11.199 -0.2458 -1.0765  0.3042
    1Sil     Ob 1217   1.309   0.135  10.361 -0.2977 -0.8742  0.4449
    1Sil     Ob 1218   1.559   3.537  10.326  0.5565  0.2772 -0.0283
    1Sil     Ob 1219   4.305   3.524  11.114 -0.1859 -0.4976  0.4527
    1Sil     Ob 1220   1.268   3.505  10.718  0.3972  0.0102 -0.3767
    1Sil     Ob 1221   4.276   0.291  10.598  0.4557 -0.0641 -0.3823
    1Sil     Ob 1222   1.477   0.296  10.998 -0.0882  0.3902 -0.2997
    1Sil     Ob 1223   4.481   3.449  12.416 -0.0914 -0.3424 -0.1913
    1Sil     Ob 1224   1.410   3.339  11.922 -0.2481  0.8375 -0.1828
    1Sil     Ob 1225   1.343   0.305  12.427 -0.3526 -0.3358  0.3235
    1Sil     Ob 1226   1.108   0.299  11.635 -0.5982 -0.1207  0.4102
    1Sil     Ob 1227   1.639   0.294  12.029  0.7332  0.2235  0.2640
    1Sil     Ob 1228   4.454   3.515  12.154  0.0438  0.4204  0.0832
    1Sil     Ob 1229   1.710   3.513  11.356 -0.0324 -0.2345  0.1695
    1Sil     Ob 1230   1.393   3.526  11.745 -0.0690 -0.3638 -0.5244
    1Sil     Ob 1231   4.448   3.699  12.343  0.4440 -0.6408  0.3533
    1Sil     Ob 1232   4.195   3.698  11.545  0.0148 -0.5655  0.6603
    1Sil     Ob 1233   1.430   3.586  11.999  0.1740 -0.0695 -0.1015
    1Sil     Ob 1234   4.376   0.234  11.975 -0.5003  0.3928  0.6357
    1Sil     Ob 1235   1.583   0.231  12.365 -0.2323 -0.0922 -0.0081
    1Sil     Ob 1236   1.262   0.131  11.542 -0.0628  0.3932  0.5713
    1Sil     Ob 1237   1.501   3.523  11.505 -0.4042 -0.2036 -0.0165
    1Sil     Ob 1238   4.258   3.519  12.304  0.2575 -0.1612 -0.8122
    1Sil     Ob 1239   1.202   3.485  11.918  0.2541 -0.5136  0.2973
    1Sil     Ob 1240   4.224   0.323  11.792  0.3201 -0.0752 -0.5045
    1Sil     Ob 1241   1.435   0.311  12.176  0.0911  0.2633  0.0100
    1Sil     Ob 1242   4.507   0.312  11.390  0.0540  0.1080  0.4438
    1Sil     Ob 1243   1.790   0.485  10.411  0.3914  0.1475 -0.2553
    1Sil     Ob 1244   1.723   0.479  11.605 -0.3961 -0.0480 -0.1104
    1Sil     Ob 1245   1.790   0.975  10.407 -0.2223  0.1763  0.2255
    1Sil     Ob 1246   1.734   0.973  11.594  0.3083  0.2309  0.4203
    1Sil     Ob 1247   1.820   1.469  10.383 -0.2675  0.3869 -0.0411
    1Sil     Ob 1248   1.734   1.468  11.601 -0.0752  0.2559  0.4234
    1Sil     Ob 1249   1.809   1.967  10.404  0.5047 -0.3173 -0.1606
    1Sil     Ob 1250   1.728   1.967  11.613  0.6450  0.0273 -0.0265
    1Sil     Ob 1251   1.803   2.456  10.403 -0.0716  0.8157 -0.4834
    1Sil     Ob 1252   1.736   2.459  11.607  0.7995  0.3032 -0.2796
    1Sil     Ob 1253   1.790   2.946  10.398 -0.1075  0.3075  0.1980
    1Sil     Ob 1254   1.735   2.956  11.608  0.3951 -0.2487  0.1124
    1Sil     Ob 1255   1.781   3.442  10.426 -0.5228 -0.0398  0.6054
    1Sil     Ob 1256   1.736   3.444  11.609 -0.3339  0.3250  0.6193
    1Sil     Ob 1257   2.293   0.374  10.737  0.7344 -0.2268 -0.3430
    1Sil     Ob 1258   2.249   0.379  11.912 -0.6472  0.3465 -0.1186
    1Sil     Ob 1259   3.123   0.373  10.747  0.2039  0.0329 -0.5717
    1Sil     Ob 1260   3.080   0.370  11.929  0.1509 -0.5794  0.0670
    1Sil     Ob 1261   3.958   0.376  10.749  0.1679  0.2746 -0.4961
    1Sil     Ob 1262   3.910   0.363  11.945  0.3222 -0.0718 -0.1363
    1Sil     Ob 1263   1.460   0.371  10.741 -0.6838  0.4483 -0.0071
    1Sil     Ob 1264   1.407   0.385  11.930 -0.1458 -0.1788  0.0725
    1Sil     Ob 1265   1.851   0.482  10.759  0.0532  0.0072  0.2254
    1Sil     Ob 1266   2.394   0.486  11.159  0.2678 -0.5924 -0.4248
    1Sil     Ob 1267   2.221   0.384  10.378  0.2350 -0.1653 -0.2725
    1Sil     Ob 1268   1.805   0.476  11.961 -0.0853 -0.3703 -0.6147
    1Sil     Ob 1269   2.349   0.482  12.346  0.2348 -0.2134 -0.1632
    1Sil     Ob 1270   2.173   0.395  11.577 -0.3810  0.6789 -0.5528
    1Sil     Ob 1271   2.681   0.477  10.775  0.4753  0.0291  0.2761
    1Sil     Ob 1272   3.225   0.491  11.169 -0.7766 -0.6030 -0.5353
    1Sil     Ob 1273   3.065   0.381  10.388  0.3574 -0.3353 -0.2342
    1Sil     Ob 1274   2.640   0.482  11.943 -0.1564 -0.0301 -0.1559
    1Sil     Ob 1275   3.180   0.475  12.351 -0.0756 -0.5315  0.1805
    1Sil     Ob 1276   3.006   0.383  11.576  0.2765 -0.2780 -0.0197
    1Sil     Ob 1277   3.523   0.482  10.764 -0.5182  0.1028  0.2219
    1Sil     Ob 1278   4.060   0.487  11.162 -0.3717  0.4635 -0.4132
    1Sil     Ob 1279   3.891   0.388  10.389 -0.4621 -0.1514  0.0026
    1Sil     Ob 1280   3.478   0.479  11.972 -0.3560 -0.4989 -0.1195
    1Sil     Ob 1281   4.000   0.474  12.338  0.0738  0.1583  0.0564
    1Sil     Ob 1282   3.838   0.377  11.581 -0.2485  0.1106  0.2079
    1Sil     Ob 1283   4.350   0.466  10.766 -0.5651  0.6894 -0.0313
    1Sil     Ob 1284   1.574   0.484  11.147 -0.2513  0.1983  0.4427
    1Sil     Ob 1285   1.400   0.374  10.376 -0.0652  0.0868 -0.3480
    1Sil     Ob 1286   4.305   0.484  11.976  1.0303 -0.2597 -0.3147
    1Sil     Ob 1287   1.509   0.483  12.348 -0.5061  0.0139 -0.0455
    1Sil     Ob 1288   1.345   0.381  11.573  0.7892  0.5034  0.0867
    1Sil     Oy 1289   2.588   0.580  10.158  0.5421 -0.7536  0.8649
    1Sil     Cm 1290   2.074   0.811  10.183  0.0141  0.2016 -0.3738
    1Sil     Cm 1291   1.974   0.798  12.586  0.1471 -0.2139  0.1707
    1Sil     Cm 1292   2.492   0.579  12.560 -0.1917  0.9967  0.8704
    1Sil     Cm 1293   2.609   1.051  10.154  0.1336 -0.1773  0.2135
    1Sil     Cm 1294   2.063   1.282  10.178  0.5866  0.3911 -0.2862
    1Sil     Cm 1295   1.963   1.303  12.618  0.0766 -0.0309 -0.2912
    1Sil     Cm 1296   2.483   1.043  12.550  0.3667  1.2199 -0.1475
    1Sil     Cm 1297   2.590   1.553  10.161  0.2366  0.0916  0.0870
    1Sil     Oy 1298   2.082   1.781  10.182  0.8552  0.1209 -0.3541
    1Sil     Oy 1299   1.983   1.805  12.587 -0.0266 -0.0224  0.2508
    1Sil     Cm 1300   2.497   1.542  12.551 -0.6304  0.4635  0.3323
    1Sil     Cm 1301   2.605   2.055  10.122  0.0050 -0.4427  0.2933
    1Sil     Cm 1302   2.070   2.294  10.186  0.2054 -0.5473  0.1987
    1Sil     Oy 1303   1.981   2.284  12.572  0.1706  0.8349 -0.3778
    1Sil     Cm 1304   2.492   2.030  12.578  0.5878  0.3388 -0.9145
    1Sil     Cm 1305   2.590   2.512  10.153  0.0141  0.0887  0.3023
    1Sil     Cm 1306   2.056   2.792  10.186 -0.3006  0.1826  0.3085
    1Sil     Cm 1307   1.964   2.777  12.608 -0.5755  0.4139  0.3600
    1Sil     Cm 1308   2.502   2.496  12.556  0.1531  0.1751 -0.3975
    1Sil     Cm 1309   2.590   3.001  10.161 -0.1665 -0.3363  0.0400
    1Sil     Cm 1310   2.085   3.264  10.172 -0.0088  0.1340 -0.0601
    1Sil     Cm 1311   1.966   3.257  12.582 -0.3662  0.3500  0.0645
    1Sil     Cm 1312   2.472   3.033  12.559  0.1068 -0.2564  0.4892
    1Sil     Cm 1313   2.617   3.491  10.153 -0.4508 -0.1485  0.1586
    1Sil     Cm 1314   2.053   0.297  10.175 -0.2252 -0.0220 -0.2301
    1Sil     Cm 1315   1.976   0.315  12.612  0.2131 -0.3303 -0.0506
    1Sil     Oy 1316   2.500   3.515  12.539 -0.2526 -0.2649 -0.3288
    1Sil     Cm 1317   3.423   0.563  10.136  0.2309 -0.1634  0.2520
    1Sil     Oy 1318   2.901   0.803  10.207  0.0128  0.0028 -0.6796
    1Sil     Oy 1319   2.808   0.780  12.588  0.8779 -0.0489  0.5868
    1Sil     Cm 1320   3.313   0.535  12.572  0.1789  0.8156  0.1100
    1Sil     Cm 1321   3.434   1.040  10.130  0.5732 -0.3615  0.2014
    1Sil     Oy 1322   2.907   1.264  10.193 -0.0832  0.2945 -0.0397
    1Sil     Cm 1323   2.798   1.276  12.589  0.4057  0.2896  0.0950
    1Sil     Cm 1324   3.324   1.026  12.570  0.4326 -1.4437 -0.0796
    1Sil     Oy 1325   3.435   1.548  10.174 -0.3218  0.0984  0.0920
    1Sil     Cm 1326   2.901   1.793  10.178 -0.2544 -0.4064  0.4619
    1Sil     Cm 1327   2.791   1.789  12.612  0.3516 -0.5580 -0.4057
    1Sil     Cm 1328   3.291   1.528  12.566  0.3627 -0.0323  0.4760
    1Sil     Oy 1329   3.444   2.023  10.182  0.3078 -0.0202  0.0682
    1Sil     Cm 1330   2.887   2.319  10.180  0.4678 -0.5265  0.9401
    1Sil     Cm 1331   2.813   2.285  12.595  0.4740  0.5373 -0.9420
    1Sil     Cm 1332   3.328   2.054  12.567 -0.0245  0.1663 -0.3712
    1Sil     Oy 1333   3.413   2.543  10.163  0.2093 -0.0669 -0.1720
    1Sil     Oy 1334   2.887   2.784  10.210 -0.1645  0.1015 -0.1317
    1Sil     Cm 1335   2.805   2.753  12.595  0.6083  0.8381  0.4333
    1Sil     Cm 1336   3.330   2.518  12.552 -0.1182 -0.1643 -0.7704
    1Sil     Oy 1337   3.419   3.009  10.174 -0.2753 -0.0701  0.2514
    1Sil     Cm 1338   2.926   3.234  10.192  0.3383 -0.2903 -0.8730
    1Sil     Cm 1339   2.819   3.304  12.604  0.4180 -0.0865  0.4051
    1Sil     Cm 1340   3.302   3.038  12.579 -0.1857 -1.0555 -0.5593
    1Sil     Oy 1341   3.455   3.501  10.171 -0.2948  0.5904 -0.2634
    1Sil     Oy 1342   2.917   0.298  10.199 -0.2685 -0.0134  0.1876
    1Sil     Cm 1343   2.795   0.323  12.578 -0.0341 -0.1012 -0.4587
    1Sil     Cm 1344   3.289   3.492  12.565  0.3152 -0.9085 -0.1333
    1Sil     Cm 1345   4.260   0.530  10.164  0.0305  0.3517  0.4546
    1Sil     Oy 1346   3.726   0.809  10.192 -0.4182 -0.5190 -0.5972
    1Sil     Oy 1347   3.627   0.799  12.586  0.0304 -0.9279 -0.2140
    1Sil     Cm 1348   4.138   0.524  12.569  0.8759  0.2186  0.5356
    1Sil     Cm 1349   4.284   1.027  10.148 -0.5786 -0.0683 -1.2503
    1Sil     Oy 1350   3.721   1.313  10.197  0.1190 -0.4039 -0.0646
    1Sil     Cm 1351   3.648   1.301  12.584  0.2943 -0.0680  0.5228
    1Sil     Cm 1352   4.174   1.040  12.549  0.1365  0.0242  0.2771
    1Sil     Cm 1353   4.253   1.532  10.144  0.3054 -0.1241 -0.2042
    1Sil     Cm 1354   3.736   1.801  10.199 -0.1600  0.1300  0.9493
    1Sil     Cm 1355   3.615   1.793  12.611 -0.2968 -0.2314 -0.0011
    1Sil     Cm 1356   4.157   1.553  12.573 -0.0742  0.6390 -0.3904
    1Sil     Cm 1357   4.264   2.027  10.149  0.0673 -0.2076  0.3354
    1Sil     Cm 1358   3.721   2.283  10.193  0.1966  0.6707 -0.0432
    1Sil     Cm 1359   3.660   2.293  12.591  0.2604 -0.1449 -0.3214
    1Sil     Cm 1360   4.173   2.030  12.540  0.1968  0.7770 -0.0984
    1Sil     Cm 1361   4.273   2.514  10.155  0.0798 -0.2172 -0.4090
    1Sil     Cm 1362   3.720   2.786  10.188  0.0750  0.5243  0.1153
    1Sil     Cm 1363   3.650   2.801  12.614  0.5115  0.2013  0.2808
    1Sil     Cm 1364   4.157   2.503  12.551  0.1629  0.1406  0.2540
    1Sil     Cm 1365   4.269   3.029  10.164  0.8227 -0.1990 -0.0736
    1Sil     Cm 1366   3.726   3.293  10.190  0.5441 -0.6202  0.2546
    1Sil     Cm 1367   3.629   3.255  12.615 -0.1091 -0.0454 -0.1173
    1Sil     Cm 1368   4.162   3.003  12.557  0.4571 -0.2638  0.6565
    1Sil     Cm 1369   4.279   3.502  10.170 -1.3012  0.2658 -0.0891
    1Sil     Cm 1370   3.740   0.303  10.178  0.3949  0.3109 -0.7153
    1Sil     Cm 1371   3.616   0.313  12.618 -0.1811  0.7223 -0.1661
    1Sil     Cm 1372   4.162   3.511  12.564  0.0924  0.3862 -0.8230
    1Sil     Cm 1373   1.787   0.537  10.151  0.1359  0.0643  0.0458
    1Sil     Cm 1374   4.580   0.798  10.197  0.2198  0.4794 -0.2797
    1Sil     Oy 1375   4.460   0.806  12.593 -0.5200 -0.0368 -0.2362
    1Sil     Cm 1376   1.653   0.546  12.555  0.0848  0.0902 -0.3866
    1Sil     Oy 1377   1.756   1.047  10.165  0.7371 -0.0536  0.2416
    1Sil     Cm 1378   4.551   1.261  10.163 -0.1133 -0.4885 -0.1071
    1Sil     Cm 1379   4.490   1.299  12.611 -0.1816 -0.2012  0.1267
    1Sil     Cm 1380   1.644   1.056  12.581  0.5636  0.6453 -0.2886
    1Sil     Cm 1381   1.790   1.551  10.135  0.7024  0.4014 -0.4992
    1Sil     Cm 1382   4.561   1.819  10.182  0.0167  0.6072 -0.6551
    1Sil     Oy 1383   4.476   1.818  12.602 -0.5516  0.3766  0.0928
    1Sil     Cm 1384   1.663   1.540  12.551  0.8344 -0.0842 -0.0215
    1Sil     Cm 1385   1.773   2.033  10.143 -0.0487  0.2941  0.7641
    1Sil     Cm 1386   4.578   2.278  10.178  0.2395 -0.2301 -0.0097
    1Sil     Oy 1387   4.476   2.297  12.580  0.2635 -0.0682 -0.0267
    1Sil     Cm 1388   1.650   2.012  12.566 -0.7392  0.0107  0.0740
    1Sil     Cm 1389   1.747   2.516  10.144  0.1055 -0.1537 -0.2320
    1Sil     Cm 1390   4.579   2.771  10.185 -0.1097  0.1901 -0.2227
    1Sil     Oy 1391   4.484   2.789  12.586  0.4359  0.4851 -0.6447
    1Sil     Oy 1392   1.646   2.524  12.553  0.3355 -0.1040  0.0700
    1Sil     Cm 1393   1.759   3.011  10.139  0.0945 -0.4570  0.9232
    1Sil     Cm 1394   4.556   3.250  10.190  0.2214 -0.2400 -0.0804
    1Sil     Cm 1395   4.467   3.257  12.613 -0.6363 -0.1305  0.4566
    1Sil     Cm 1396   1.651   3.007  12.551  0.5361 -0.0595 -0.0605
    1Sil     Cm 1397   1.757   3.497  10.176  0.5011 -0.0582  0.0720
    1Sil     Oy 1398   1.230   0.314  10.190 -0.3203  0.0350 -0.5700
    1Sil     Cm 1399   4.472   0.285  12.618 -0.1371 -0.5251  0.6620
    1Sil     Cm 1400   1.658   3.502  12.558 -0.0156  0.5675 -0.4919
    1Sil    Sib 1401   2.546   0.585  10.311  0.3593 -0.1893  0.3259
    1Sil    Sib 1402   1.967   0.584  11.105 -0.2499 -0.1553  0.0036
    1Sil    Sib 1403   2.260   0.528  10.709 -0.1234 -0.5350  0.4089
    1Sil    Sib 1404   1.810   0.825  10.747  0.1880 -0.4536  0.3955
    1Sil    Sib 1405   2.351   0.823  11.148  0.2035 -0.0612 -0.0736
    1Sil    Sim 1406   2.105   0.775  10.343 -0.2490 -0.6687  0.0932
    1Sil    Sib 1407   2.063   0.839  11.233 -0.7349  0.4472 -0.2553
    1Sil    Sib 1408   1.821   0.826  10.450  0.0051  0.0164  0.1270
    1Sil    Sib 1409   2.363   0.768  10.858  0.0794  0.4863 -0.0576
    1Sil    Sib 1410   1.975   0.579  10.803 -0.3009  0.1561 -0.1408
    1Sil    Sib 1411   2.506   0.581  11.215  0.1005 -0.1019  0.0496
    1Sil    Sib 1412   2.267   0.536  10.407  0.4205 -0.1558  0.0319
    1Sil    Sib 1413   2.496   0.585  11.505 -0.5845  0.1009  0.0619
    1Sil    Sib 1414   1.913   0.580  12.308 -0.1603 -0.1332  0.1670
    1Sil    Sib 1415   2.201   0.531  11.891 -0.0214 -0.4173  0.6483
    1Sil    Sib 1416   1.756   0.817  11.939 -0.0208 -0.5376  0.4663
    1Sil    Sib 1417   2.296   0.831  12.335 -0.1067  0.2656  0.5813
    1Sil    Sib 1418   2.052   0.777  11.525  0.3998 -0.2536  0.1059
    1Sil    Sim 1419   2.025   0.819  12.438 -0.3867  0.0665 -0.5651
    1Sil    Sib 1420   1.774   0.829  11.636 -0.2197  0.1335 -0.1845
    1Sil    Sib 1421   2.300   0.774  12.036 -0.2693  0.1765  0.1248
    1Sil    Sib 1422   1.919   0.572  12.003  0.0029 -0.3919 -0.0674
    1Sil    Sim 1423   2.462   0.585  12.399  0.0511 -0.2899 -0.1001
    1Sil    Sib 1424   2.211   0.549  11.591  0.0459 -0.0458 -0.0967
    1Sil    Sim 1425   2.557   1.066  10.305  0.2342 -0.3952 -0.0047
    1Sil    Sib 1426   1.964   1.085  11.098  0.2085  0.0486 -0.0876
    1Sil    Sib 1427   2.259   1.014  10.712 -0.3063  0.0189 -0.1525
    1Sil    Sib 1428   1.818   1.330  10.741 -0.1451  0.3420 -0.4692
    1Sil    Sib 1429   2.355   1.320  11.141  0.4826 -0.2910 -0.3904
    1Sil    Sim 1430   2.099   1.264  10.346 -0.1004  0.1826 -0.1002
    1Sil    Sib 1431   2.064   1.332  11.233 -0.3148 -0.0066  0.1003
    1Sil    Sib 1432   1.824   1.324  10.439  0.0462  0.1885 -0.0674
    1Sil    Sib 1433   2.367   1.269  10.841 -0.2988  0.0157  0.2803
    1Sil    Sib 1434   1.975   1.077  10.795  0.2324  0.1847  0.2879
    1Sil    Sib 1435   2.518   1.065  11.198 -0.0291 -0.4745 -0.1040
    1Sil    Sib 1436   2.275   1.018  10.412 -0.0876  0.1785  0.4425
    1Sil    Sib 1437   2.498   1.075  11.499  0.0927  0.1088 -0.1673
    1Sil    Sib 1438   1.912   1.077  12.308 -0.1878  0.5034 -0.3639
    1Sil    Sib 1439   2.210   1.012  11.891 -0.0903  0.0841 -0.4019
    1Sil    Sib 1440   1.766   1.310  11.929  0.1752  0.4373 -0.6623
    1Sil    Sib 1441   2.280   1.319  12.329 -0.5462  0.4267 -0.3838
    1Sil    Sib 1442   2.060   1.276  11.526  0.3464  0.0668 -0.0717
    1Sil    Sim 1443   2.007   1.325  12.446  0.1208 -0.1876  0.2195
    1Sil    Sib 1444   1.778   1.320  11.630  0.0135 -0.0277  0.0763
    1Sil    Sib 1445   2.308   1.254  12.035  0.2768 -0.1847  0.1661
    1Sil    Sib 1446   1.929   1.060  11.997 -0.0583 -0.1467  0.3155
    1Sil    Sim 1447   2.452   1.074  12.403 -0.1722 -0.3578 -0.6099
    1Sil    Sib 1448   2.222   1.021  11.584 -0.4344 -0.1932 -0.2753
    1Sil    Sim 1449   2.540   1.569  10.313 -0.0920 -0.3831 -0.3547
    1Sil    Sib 1450   1.967   1.573  11.104  0.0297  0.0996 -0.0093
    1Sil    Sib 1451   2.264   1.517  10.705  0.3167  0.0376 -0.5033
    1Sil    Sib 1452   1.809   1.820  10.745  0.2784  0.1285 -0.3786
    1Sil    Sib 1453   2.351   1.813  11.138 -0.1334 -0.0845 -0.1809
    1Sil    Sib 1454   2.111   1.766  10.340  0.3805  0.0211 -0.1721
    1Sil    Sib 1455   2.074   1.810  11.241  0.1377 -0.1865  0.0598
    1Sil    Sib 1456   1.831   1.818  10.439 -0.4067 -0.1694  0.0064
    1Sil    Sib 1457   2.371   1.768  10.838  0.3220 -0.1002 -0.2072
    1Sil    Sib 1458   1.982   1.574  10.805  0.1910 -0.1394 -0.1927
    1Sil    Sib 1459   2.525   1.574  11.205  0.0824  0.2092  0.1844
    1Sil    Sib 1460   2.256   1.512  10.411  0.4049  0.5305 -0.2024
    1Sil    Sib 1461   2.501   1.574  11.505  0.0334 -0.8710 -0.0064
    1Sil    Sib 1462   1.913   1.575  12.301 -0.1393 -0.2287 -0.0997
    1Sil    Sib 1463   2.207   1.511  11.902  0.0151 -0.0184  0.0569
    1Sil    Sib 1464   1.756   1.804  11.940 -0.1264 -0.1501  0.1920
    1Sil    Sib 1465   2.297   1.813  12.324 -0.1514  0.0555 -0.5039
    1Sil    Sib 1466   2.051   1.766  11.544  0.2013 -0.0027 -0.2100
    1Sil    Sib 1467   2.030   1.816  12.437 -0.2548  0.1422  0.3304
    1Sil    Sib 1468   1.773   1.816  11.639  0.3998 -0.2326 -0.7037
    1Sil    Sib 1469   2.315   1.757  12.033 -0.2879 -0.3150 -0.1249
    1Sil    Sib 1470   1.923   1.555  12.002  0.0902 -0.1506  0.6211
    1Sil    Sim 1471   2.451   1.567  12.392 -0.6454  0.3235 -0.2427
    1Sil    Sib 1472   2.222   1.517  11.600  0.2911 -0.4304 -0.1523
    1Sil    Sim 1473   2.550   2.071  10.297 -0.2273  0.2472  0.0868
    1Sil    Sib 1474   1.966   2.063  11.105 -0.1269  0.0748  0.0428
    1Sil    Sib 1475   2.256   2.014  10.711  0.1064  0.2659 -0.2274
    1Sil    Sib 1476   1.805   2.306  10.749  0.0026 -0.1346  0.8766
    1Sil    Sib 1477   2.348   2.314  11.142  0.4733  0.3711  0.4267
    1Sil    Sim 1478   2.109   2.264  10.343 -0.2046 -0.7425  0.1342
    1Sil    Sib 1479   2.062   2.313  11.242 -0.1778 -0.3388  0.0525
    1Sil    Sib 1480   1.823   2.309  10.447  0.6680 -0.1124 -0.4506
    1Sil    Sib 1481   2.357   2.253  10.854 -0.0324  0.0092  0.0950
    1Sil    Sib 1482   1.973   2.065  10.800  0.2506  0.2255  0.0721
    1Sil    Sib 1483   2.516   2.063  11.203  0.3318  0.0882  0.1306
    1Sil    Sib 1484   2.269   2.012  10.400 -0.0946  0.3587 -0.0162
    1Sil    Sib 1485   2.501   2.066  11.501 -0.3057  0.3263 -0.1711
    1Sil    Sib 1486   1.915   2.051  12.297 -0.3172  0.4945 -0.2079
    1Sil    Sib 1487   2.202   2.005  11.883  0.0482 -0.0698 -0.1247
    1Sil    Sib 1488   1.759   2.289  11.945  0.3465  0.2781  0.0849
    1Sil    Sib 1489   2.309   2.303  12.321  0.1930  0.4990  0.5904
    1Sil    Sib 1490   2.050   2.260  11.536 -0.1232 -0.4878  0.0756
    1Sil    Sib 1491   2.024   2.301  12.413 -0.1312  0.0923  0.2230
    1Sil    Sib 1492   1.766   2.306  11.642 -0.3657  0.0160  0.1868
    1Sil    Sib 1493   2.319   2.242  12.028 -0.0383 -0.1302  0.3322
    1Sil    Sib 1494   1.924   2.039  11.995  0.1143  0.8882  0.1751
    1Sil    Sim 1495   2.468   2.063  12.397 -0.4505 -0.1048 -0.3373
    1Sil    Sib 1496   2.217   2.020  11.585 -0.2434  0.3455  0.3227
    1Sil    Sim 1497   2.545   2.552  10.320 -0.7468 -0.0822  0.2642
    1Sil    Sib 1498   1.955   2.561  11.104 -0.0732  0.3785 -0.5903
    1Sil    Sib 1499   2.247   2.499  10.721  0.1448  0.1504 -0.0525
    1Sil    Sib 1500   1.808   2.797  10.746  0.1034  0.4623  0.1242
    1Sil    Sib 1501   2.340   2.803  11.139 -0.1685  0.6725  0.3576
    1Sil    Sim 1502   2.097   2.749  10.346  0.1651 -0.2361  0.0438
    1Sil    Sib 1503   2.050   2.807  11.245 -0.6536  0.0436  0.4328
    1Sil    Sib 1504   1.814   2.798  10.446  0.0635  0.0212  0.1550
    1Sil    Sib 1505   2.361   2.747  10.850  0.3202  0.1848 -0.2563
    1Sil    Sib 1506   1.968   2.552  10.806 -0.2277  0.1484 -0.2160
    1Sil    Sib 1507   2.514   2.556  11.206 -0.3541  0.2075 -0.0712
    1Sil    Sib 1508   2.267   2.508  10.422 -0.4274 -0.1264  0.0139
    1Sil    Sib 1509   2.488   2.558  11.506  0.0924  0.5595 -0.0707
    1Sil    Sib 1510   1.906   2.549  12.297 -0.3849 -0.2660  0.0415
    1Sil    Sib 1511   2.198   2.494  11.889 -0.5182  0.0679 -0.0010
    1Sil    Sib 1512   1.760   2.793  11.939 -0.0862  0.3457  0.2677
    1Sil    Sib 1513   2.298   2.793  12.335  0.6022 -0.2182  0.2529
    1Sil    Sib 1514   2.046   2.758  11.530  0.1373  0.0529 -0.1930
    1Sil    Sim 1515   2.013   2.799  12.449 -0.2479  0.2245  0.5234
    1Sil    Sib 1516   1.769   2.805  11.643  0.2289  0.2243  0.1565
    1Sil    Sib 1517   2.311   2.735  12.029  0.1807  0.5885  0.0537
    1Sil    Sib 1518   1.918   2.541  11.998  0.1487  0.2825 -0.4531
    1Sil    Sim 1519   2.469   2.548  12.399  0.2235  0.3743 -0.1029
    1Sil    Sib 1520   2.208   2.513  11.592 -0.6837 -0.2005  0.2380
    1Sil    Sim 1521   2.547   3.040  10.323  0.2787  0.1688  0.0724
    1Sil    Sib 1522   1.951   3.049  11.108  0.1379 -0.3470  0.2485
    1Sil    Sib 1523   2.258   2.986  10.711 -0.0874  0.0872  0.3098
    1Sil    Sib 1524   1.803   3.291  10.739 -0.5514  0.2612  0.0196
    1Sil    Sib 1525   2.345   3.287  11.145  0.4360  0.2990  0.3291
    1Sil    Sim 1526   2.114   3.248  10.338 -0.2681 -0.4739 -0.0612
    1Sil    Sib 1527   2.066   3.292  11.236  0.1820  0.1616  0.3026
    1Sil    Sib 1528   1.834   3.292  10.447  0.1086  0.5954  0.1091
    1Sil    Sib 1529   2.366   3.230  10.844 -0.3971 -0.0276  0.1938
    1Sil    Sib 1530   1.976   3.044  10.815 -0.0666 -0.2726 -0.0432
    1Sil    Sib 1531   2.517   3.047  11.198  0.2139  0.0282 -0.3163
    1Sil    Sib 1532   2.251   2.995  10.421  0.4819  0.1946 -0.3239
    1Sil    Sib 1533   2.510   3.044  11.502 -0.5553  0.1153 -0.2592
    1Sil    Sib 1534   1.922   3.042  12.292 -0.5149  0.0214 -0.3998
    1Sil    Sib 1535   2.212   2.989  11.891  0.1428 -0.3613  0.1608
    1Sil    Sib 1536   1.765   3.277  11.950  0.3588  0.2983 -0.0507
    1Sil    Sib 1537   2.297   3.294  12.320 -0.3847 -0.0136  0.1290
    1Sil    Sib 1538   2.052   3.247  11.534  0.0059 -0.0379 -0.1270
    1Sil    Sim 1539   2.023   3.290  12.435  0.4347  0.0301  0.1503
    1Sil    Sib 1540   1.774   3.287  11.643 -0.1184 -0.5579  0.3003
    1Sil    Sib 1541   2.321   3.242  12.023 -0.2759  0.3314 -0.4908
    1Sil    Sib 1542   1.931   3.031  11.999  0.1407 -0.2591 -0.4411
    1Sil    Sim 1543   2.461   3.041  12.394 -0.2588  0.0865 -0.0023
    1Sil    Sib 1544   2.219   2.999  11.589  0.1178 -0.0165 -0.1548
    1Sil    Sim 1545   2.569   3.538  10.316 -0.3234  0.0562 -0.3002
    1Sil    Sib 1546   1.963   3.547  11.106 -0.5676  0.0683 -0.0255
    1Sil    Sib 1547   2.249   3.478  10.708  0.3522 -0.4225 -0.1080
    1Sil    Sib 1548   1.804   0.332  10.746 -0.2407 -0.3230  0.6628
    1Sil    Sib 1549   2.353   0.335  11.141  0.3639 -0.3297 -0.2784
    1Sil    Sim 1550   2.107   0.289  10.348 -0.4001 -0.0622 -0.0367
    1Sil    Sib 1551   2.071   0.335  11.245 -0.1041  0.3855 -0.4417
    1Sil    Sib 1552   1.821   0.331  10.452  0.3532  0.0139 -0.4337
    1Sil    Sib 1553   2.360   0.271  10.840 -0.6775 -0.1413 -0.7220
    1Sil    Sib 1554   1.968   3.544  10.804 -0.0334 -0.3424 -0.5176
    1Sil    Sib 1555   2.513   3.539  11.194 -0.1857  0.6106 -0.5422
    1Sil    Sib 1556   2.281   3.497  10.412  0.3494  0.0081  0.2178
    1Sil    Sib 1557   2.498   3.542  11.502 -0.5661  0.2894 -0.1249
    1Sil    Sib 1558   1.919   3.542  12.302  0.2245 -0.2836  0.0586
    1Sil    Sib 1559   2.205   3.490  11.896  0.4533  0.0847  0.2383
    1Sil    Sib 1560   1.759   0.326  11.937 -0.0887 -0.3140  0.0858
    1Sil    Sib 1561   2.298   0.331  12.320  0.0119 -0.1718  0.5179
    1Sil    Sib 1562   2.053   0.289  11.539  0.2487  0.6030 -0.2026
    1Sil    Sim 1563   2.022   0.334  12.448 -0.2302 -0.0500 -0.4676
    1Sil    Sib 1564   1.763   0.331  11.638  0.3309 -0.3144 -0.0848
    1Sil    Sib 1565   2.309   0.285  12.025 -0.1641 -0.1908 -0.0328
    1Sil    Sib 1566   1.922   3.536  12.003 -0.4462 -0.4205  0.1747
    1Sil    Sib 1567   2.469   3.536  12.378 -0.1750 -0.2939  0.3815
    1Sil    Sib 1568   2.220   3.485  11.599  0.3298 -0.6136 -0.5206
    1Sil    Sim 1569   3.383   0.588  10.298 -0.2161  0.1752  0.2762
    1Sil    Sib 1570   2.789   0.582  11.114  0.1258  0.1162 -0.0738
    1Sil    Sib 1571   3.088   0.522  10.717 -0.2021  0.5767  0.6138
    1Sil    Sib 1572   2.643   0.826  10.754 -0.0622  0.0380 -0.1661
    1Sil    Sib 1573   3.182   0.828  11.147 -0.7095 -0.0190 -0.0828
    1Sil    Sib 1574   2.929   0.772  10.363  0.1216  0.2408  0.1224
    1Sil    Sib 1575   2.898   0.832  11.243  0.3173  0.0635  0.1745
    1Sil    Sib 1576   2.656   0.825  10.453 -0.3315  0.1824 -0.2956
    1Sil    Sib 1577   3.198   0.770  10.855 -0.1852  0.0546 -0.3252
    1Sil    Sib 1578   2.800   0.574  10.813 -0.0529 -0.1887 -0.0873
    1Sil    Sib 1579   3.346   0.585  11.208 -0.4783  0.0654  0.3805
    1Sil    Sib 1580   3.105   0.531  10.413  0.3226  0.7641 -0.1044
    1Sil    Sib 1581   3.326   0.583  11.503 -0.2833 -0.3576 -0.0937
    1Sil    Sib 1582   2.748   0.574  12.296 -0.7395 -0.0313 -0.0353
    1Sil    Sib 1583   3.045   0.527  11.892  0.2008  0.4650 -0.4520
    1Sil    Sib 1584   2.589   0.810  11.941  0.1647 -0.2898 -0.1168
    1Sil    Sib 1585   3.130   0.823  12.338  0.2223 -0.3186 -0.0834
    1Sil    Sib 1586   2.891   0.785  11.534  0.8752 -0.0531 -0.2055
    1Sil    Sib 1587   2.848   0.818  12.438  0.6294  0.6028 -0.1076
    1Sil    Sib 1588   2.603   0.829  11.636  0.1595  0.2538  0.2257
    1Sil    Sib 1589   3.162   0.768  12.045  0.4734  0.2836  0.2663
    1Sil    Sib 1590   2.754   0.571  11.997  0.0779  0.0142  0.3532
    1Sil    Sim 1591   3.292   0.570  12.403 -0.5007 -0.2749  0.2231
    1Sil    Sib 1592   3.046   0.538  11.593  0.4288  0.5299 -0.0691
    1Sil    Sim 1593   3.374   1.073  10.307  0.0681 -0.3906  0.0559
    1Sil    Sib 1594   2.793   1.079  11.110 -0.0735 -0.1628 -0.4686
    1Sil    Sib 1595   3.090   1.014  10.704 -0.5785  0.4346  0.5035
    1Sil    Sib 1596   2.648   1.322  10.748 -0.0727  0.0031  0.0792
    1Sil    Sib 1597   3.183   1.318  11.135 -0.0497 -0.2278 -0.0350
    1Sil    Sib 1598   2.933   1.264  10.345  0.2065 -0.0055  0.3128
    1Sil    Sib 1599   2.905   1.327  11.244  0.0304  0.5088 -0.5709
    1Sil    Sib 1600   2.651   1.322  10.446 -0.0895  0.1632  0.3163
    1Sil    Sib 1601   3.199   1.260  10.837  0.5424  0.2000 -0.7333
    1Sil    Sib 1602   2.812   1.070  10.810  0.5198  0.0255  0.1554
    1Sil    Sib 1603   3.352   1.079  11.211  0.0719  0.2936 -0.4085
    1Sil    Sib 1604   3.090   1.017  10.412 -0.0946  0.3135 -0.0368
    1Sil    Sib 1605   3.345   1.082  11.505  0.1451  0.0046  0.0442
    1Sil    Sib 1606   2.740   1.066  12.300 -0.4840 -0.3544  0.7064
    1Sil    Sib 1607   3.042   1.003  11.907  0.0217 -0.0646  0.0527
    1Sil    Sib 1608   2.597   1.307  11.942 -0.1481 -0.2314 -0.3820
    1Sil    Sib 1609   3.123   1.313  12.338  0.3824 -0.3700 -0.2497
    1Sil    Sib 1610   2.893   1.265  11.535 -0.0461 -0.3311 -0.0681
    1Sil    Sim 1611   2.835   1.313  12.437 -0.1720 -0.2406 -0.2590
    1Sil    Sib 1612   2.609   1.324  11.638 -0.1590 -0.2757  0.0677
    1Sil    Sib 1613   3.135   1.254  12.045  0.1853  0.3570 -0.5333
    1Sil    Sib 1614   2.754   1.046  12.004 -0.0626 -0.3123  0.2408
    1Sil    Sim 1615   3.293   1.072  12.398  0.0990  0.1112  0.0920
    1Sil    Sib 1616   3.055   1.022  11.600 -0.1375  0.0247  0.2948
    1Sil    Sib 1617   3.381   1.574  10.317  0.3634 -0.0651 -0.0688
    1Sil    Sib 1618   2.809   1.580  11.110 -0.0401 -0.1395  0.2811
    1Sil    Sib 1619   3.087   1.508  10.703 -0.0248 -0.0628  0.7540
    1Sil    Sib 1620   2.646   1.824  10.737  0.0387 -0.6177 -0.5833
    1Sil    Sib 1621   3.183   1.816  11.142  0.0474  0.5534 -0.4192
    1Sil    Sim 1622   2.935   1.769  10.348 -0.4255 -0.5445 -0.0488
    1Sil    Sib 1623   2.908   1.825  11.246 -0.2581  0.4389 -0.1184
    1Sil    Sib 1624   2.645   1.822  10.437 -0.0157  0.2450 -0.5597
    1Sil    Sib 1625   3.187   1.765  10.840  0.1085  0.0257  0.0955
    1Sil    Sib 1626   2.810   1.573  10.802 -0.0892  0.0147 -0.2054
    1Sil    Sib 1627   3.338   1.560  11.207 -0.4778  0.0643 -0.2796
    1Sil    Sib 1628   3.100   1.509  10.404  0.3059  0.0941  0.2207
    1Sil    Sib 1629   3.323   1.573  11.511  0.1776  0.0537 -0.2901
    1Sil    Sib 1630   2.743   1.564  12.307  0.0500 -0.4721  0.1486
    1Sil    Sib 1631   3.030   1.505  11.916  0.0394  0.0051 -0.2162
    1Sil    Sib 1632   2.600   1.809  11.943 -0.4390  0.0880  0.2864
    1Sil    Sib 1633   3.131   1.816  12.341  0.2266 -0.2935  0.0363
    1Sil    Sib 1634   2.891   1.764  11.547  0.5080  0.2868 -0.0035
    1Sil    Sim 1635   2.844   1.817  12.441  0.1492  0.0291  0.0158
    1Sil    Sib 1636   2.608   1.819  11.645  0.2435 -0.4737 -0.0244
    1Sil    Sib 1637   3.147   1.749  12.052 -0.2484 -0.3924  0.2203
    1Sil    Sib 1638   2.756   1.554  12.016  0.3622 -0.4104  0.2641
    1Sil    Sim 1639   3.280   1.557  12.403 -0.2510 -0.3573 -0.1541
    1Sil    Sib 1640   3.051   1.518  11.610 -0.2345 -0.2332 -0.0943
    1Sil    Sib 1641   3.383   2.068  10.321 -0.1624 -0.1283 -0.0617
    1Sil    Sib 1642   2.807   2.065  11.102 -0.1688  0.3043 -0.0724
    1Sil    Sib 1643   3.094   2.020  10.708 -0.1554 -0.5571  0.3770
    1Sil    Sib 1644   2.633   2.314  10.744 -0.2217  0.3975 -0.2739
    1Sil    Sib 1645   3.185   2.316  11.149 -0.0304  0.3617 -0.1267
    1Sil    Sim 1646   2.928   2.271  10.350  0.1319 -0.1685  0.0465
    1Sil    Sib 1647   2.901   2.314  11.250 -0.2309  0.0062 -0.1924
    1Sil    Sib 1648   2.650   2.303  10.450 -0.7808 -0.1461 -0.0431
    1Sil    Sib 1649   3.193   2.259  10.848 -0.2651  0.4677  0.2213
    1Sil    Sib 1650   2.813   2.068  10.804 -0.3470 -0.2013  0.0216
    1Sil    Sib 1651   3.353   2.065  11.209  0.3122  0.3519 -0.1108
    1Sil    Sib 1652   3.103   2.027  10.409  0.2065  0.4881  0.0579
    1Sil    Sib 1653   3.342   2.052  11.504 -0.0302 -0.3465  0.3334
    1Sil    Sib 1654   2.751   2.063  12.308  0.2426 -0.1077 -0.0761
    1Sil    Sib 1655   3.048   1.995  11.907  0.1193 -0.1591 -0.2076
    1Sil    Sib 1656   2.593   2.297  11.933  0.2774  0.2345  0.1497
    1Sil    Sib 1657   3.128   2.314  12.327 -0.3926 -0.2241  0.0441
    1Sil    Sib 1658   2.894   2.251  11.535  0.0536 -0.4022 -0.2546
    1Sil    Sim 1659   2.852   2.312  12.452 -0.1920 -0.3945  0.0955
    1Sil    Sib 1660   2.611   2.312  11.638 -0.3065  0.5412 -0.2326
    1Sil    Sib 1661   3.152   2.254  12.033 -0.4905 -0.4828  0.1119
    1Sil    Sib 1662   2.764   2.054  12.011 -0.0814 -0.0853 -0.0731
    1Sil    Sim 1663   3.294   2.070  12.394  0.3287  0.4429 -0.1151
    1Sil    Sib 1664   3.057   2.003  11.603  0.2552  0.5379 -0.2017
    1Sil    Sib 1665   3.371   2.558  10.316  0.1265  0.4197  0.2818
    1Sil    Sib 1666   2.790   2.551  11.115  0.1313  0.0332 -0.6281
    1Sil    Sib 1667   3.092   2.506  10.719 -0.2672  0.6692  0.3084
    1Sil    Sib 1668   2.637   2.791  10.763 -0.0450 -0.3635 -0.1412
    1Sil    Sib 1669   3.180   2.809  11.157 -0.3814  0.1242 -0.3173
    1Sil    Sib 1670   2.935   2.746  10.363 -0.0782 -0.4603  0.6593
    1Sil    Sib 1671   2.892   2.799  11.240  0.1670 -0.1737 -0.0058
    1Sil    Sib 1672   2.653   2.789  10.463 -0.1232  0.2113  0.2820
    1Sil    Sib 1673   3.209   2.749  10.862 -0.3524  0.5039  0.1079
    1Sil    Sib 1674   2.807   2.544  10.811 -0.4478  0.1551  0.2707
    1Sil    Sib 1675   3.351   2.561  11.202 -0.0364 -0.1997  0.0476
    1Sil    Sib 1676   3.105   2.508  10.424 -0.2726 -0.1840  0.4464
    1Sil    Sib 1677   3.336   2.544  11.506  0.1532 -0.0605  0.2647
    1Sil    Sib 1678   2.753   2.547  12.305 -0.2338  0.1728  0.1674
    1Sil    Sib 1679   3.046   2.499  11.893  0.0002 -0.1580 -0.8748
    1Sil    Sib 1680   2.599   2.789  11.946 -0.1498  0.2547 -0.2770
    1Sil    Sib 1681   3.137   2.801  12.337 -0.2976  0.0097  0.0323
    1Sil    Sib 1682   2.881   2.740  11.534 -0.3047 -0.0634  0.1546
    1Sil    Sim 1683   2.852   2.793  12.439  0.1521  0.3682 -0.4148
    1Sil    Sib 1684   2.600   2.798  11.642  0.0910 -0.0884  0.1679
    1Sil    Sib 1685   3.164   2.741  12.037  0.4626  0.4340 -0.0782
    1Sil    Sib 1686   2.760   2.537  12.004 -0.0991 -0.6491  0.1393
    1Sil    Sim 1687   3.298   2.553  12.402 -0.0062  0.3936  0.1036
    1Sil    Sib 1688   3.052   2.505  11.596  0.3454  0.0461  0.1707
    1Sil    Sib 1689   3.382   3.046  10.327 -0.0867  0.0496 -0.0112
    1Sil    Sib 1690   2.800   3.051  11.101  0.0309  0.0197  0.5474
    1Sil    Sib 1691   3.088   2.992  10.725  0.1730  0.1271 -0.2028
    1Sil    Sib 1692   2.642   3.288  10.745  0.3006  0.0953  0.3656
    1Sil    Sib 1693   3.183   3.295  11.145  0.0095 -0.3228  0.1882
    1Sil    Sim 1694   2.950   3.239  10.355 -0.1754 -0.0589 -0.1140
    1Sil    Sib 1695   2.891   3.303  11.245 -0.8974  0.4690  0.8286
    1Sil    Sib 1696   2.661   3.293  10.450 -0.1065 -0.0736 -0.5937
    1Sil    Sib 1697   3.197   3.237  10.854  0.5699 -0.1169  0.1226
    1Sil    Sib 1698   2.810   3.039  10.808 -0.4300  0.0443 -0.5011
    1Sil    Sib 1699   3.347   3.060  11.209  0.0007 -0.2098  0.5425
    1Sil    Sib 1700   3.103   2.989  10.426 -0.2596  0.3560 -0.5661
    1Sil    Sib 1701   3.336   3.048  11.514 -0.0639 -0.3165 -0.3822
    1Sil    Sib 1702   2.754   3.040  12.312  0.1247  0.0494  0.0463
    1Sil    Sib 1703   3.039   2.979  11.901 -0.4901 -0.0968 -0.0505
    1Sil    Sib 1704   2.604   3.281  11.933  0.6961 -0.1404  0.0251
    1Sil    Sib 1705   3.137   3.296  12.316  0.1471 -0.0382 -0.3168
    1Sil    Sib 1706   2.890   3.249  11.538 -0.2559  0.0889  0.1399
    1Sil    Sim 1707   2.865   3.308  12.435  0.6236 -0.1400  0.3575
    1Sil    Sib 1708   2.611   3.296  11.634  0.4227 -0.0154  0.2781
    1Sil    Sib 1709   3.154   3.225  12.027 -0.0443 -0.1523  0.3104
    1Sil    Sib 1710   2.756   3.027  12.004 -0.1100  0.1197  0.1189
    1Sil    Sim 1711   3.293   3.055  12.408  0.0094 -0.6765 -0.0528
    1Sil    Sib 1712   3.045   2.990  11.598  0.0221  0.0006  0.1632
    1Sil    Sib 1713   3.398   3.544  10.319  0.3354 -0.0838  0.1646
    1Sil    Sib 1714   2.796   3.548  11.098  0.1879  0.2710  0.4288
    1Sil    Sib 1715   3.102   3.484  10.714  0.0959 -0.4397 -0.0853
    1Sil    Sib 1716   2.642   0.325  10.743  0.1617 -0.1845  0.1941
    1Sil    Sib 1717   3.182   0.340  11.140 -0.2394  0.1543 -0.0745
    1Sil    Sib 1718   2.947   0.285  10.357 -0.1459 -0.3394  0.2094
    1Sil    Sib 1719   2.900   0.336  11.242 -0.1943  0.4772  0.0161
    1Sil    Sib 1720   2.671   0.343  10.445  0.3710  0.1640  0.0523
    1Sil    Sib 1721   3.202   0.278  10.844  0.0512 -0.1001 -0.1621
    1Sil    Sib 1722   2.818   3.536  10.796  0.2213  0.3878 -0.0651
    1Sil    Sib 1723   3.347   3.543  11.202 -0.1987 -0.2780  0.1392
    1Sil    Sib 1724   3.116   3.494  10.411 -0.3010 -0.3723 -0.1403
    1Sil    Sib 1725   3.334   3.552  11.506  0.3319 -0.0358  0.0439
    1Sil    Sib 1726   2.754   3.549  12.284  0.0383  0.3161 -0.1141
    1Sil    Sib 1727   3.048   3.482  11.893  0.2220  0.2649  0.2597
    1Sil    Sib 1728   2.596   0.329  11.928  0.0891  0.1439  0.0957
    1Sil    Sib 1729   3.137   0.321  12.323 -0.1995  0.2497  0.0401
    1Sil    Sib 1730   2.888   0.286  11.538  0.0446  0.6298 -0.3406
    1Sil    Sim 1731   2.857   0.333  12.428 -0.7119 -0.2818 -0.0390
    1Sil    Sib 1732   2.608   0.336  11.633  0.2866  0.3273 -0.0879
    1Sil    Sib 1733   3.152   0.269  12.030 -0.3889 -0.0469 -0.5529
    1Sil    Sib 1734   2.767   3.534  11.988  0.1552  0.4673  0.2953
    1Sil    Sim 1735   3.291   3.533  12.400  0.4464 -0.4132 -0.0366
    1Sil    Sib 1736   3.056   3.496  11.596 -0.2360 -0.1492 -0.4353
    1Sil    Sim 1737   4.212   0.581  10.312  0.2571 -0.2144  0.0066
    1Sil    Sib 1738   3.631   0.571  11.112 -0.0414 -0.3000  0.6517
    1Sil    Sib 1739   3.915   0.528  10.714 -0.2237 -0.0445 -0.0229
    1Sil    Sib 1740   3.484   0.816  10.751 -0.0709 -0.1197  0.1445
    1Sil    Sib 1741   4.018   0.835  11.131  0.5399 -0.0965  0.2166
    1Sil    Sib 1742   3.765   0.779  10.345 -0.4311  0.1837 -0.1455
    1Sil    Sib 1743   3.734   0.832  11.241 -0.2193  0.2342  0.2391
    1Sil    Sib 1744   3.485   0.826  10.446 -0.6381  0.0976 -0.1766
    1Sil    Sib 1745   4.025   0.775  10.840 -0.2333  0.0775  0.6451
    1Sil    Sib 1746   3.637   0.575  10.812  0.2043 -0.7471  0.4350
    1Sil    Sib 1747   4.178   0.588  11.200  0.3047  0.1178 -0.0793
    1Sil    Sib 1748   3.931   0.539  10.415  0.4011  0.1933  0.0202
    1Sil    Sib 1749   4.171   0.592  11.502 -0.1495 -0.2732 -0.2490
    1Sil    Sib 1750   3.575   0.584  12.305 -0.2395  0.1827  0.1700
    1Sil    Sib 1751   3.877   0.513  11.898  0.2815 -0.1967  0.0315
    1Sil    Sib 1752   3.429   0.814  11.943  0.0500 -0.5699  0.5756
    1Sil    Sib 1753   3.962   0.819  12.330  0.0766 -0.4311  0.1592
    1Sil    Sib 1754   3.717   0.778  11.540  0.0901  0.0306 -0.2039
    1Sil    Sib 1755   3.686   0.830  12.437  0.2677 -0.2667  0.0019
    1Sil    Sib 1756   3.442   0.830  11.642 -0.0544 -0.0601 -0.0559
    1Sil    Sib 1757   3.968   0.755  12.040 -0.0082  0.2812  0.2328
    1Sil    Sib 1758   3.600   0.572  12.008 -0.1968 -0.4814  0.0250
    1Sil    Sim 1759   4.115   0.568  12.394 -0.3161  0.1249  0.1998
    1Sil    Sib 1760   3.891   0.526  11.595 -0.0770  0.3161  0.0787
    1Sil    Sim 1761   4.214   1.069  10.300  0.3288 -0.0887 -0.0487
    1Sil    Sib 1762   3.625   1.078  11.108 -0.0029 -0.0444 -0.1156
    1Sil    Sib 1763   3.926   1.022  10.704 -0.2154 -0.1663 -0.4756
    1Sil    Sib 1764   3.469   1.317  10.739 -0.0908 -0.1291 -0.3371
    1Sil    Sib 1765   4.020   1.319  11.139 -0.1579  0.0985 -0.1207
    1Sil    Sib 1766   3.761   1.268  10.349  0.2429 -0.0517 -0.6753
    1Sil    Sib 1767   3.733   1.317  11.244  0.5123  0.3989 -0.3037
    1Sil    Sib 1768   3.474   1.324  10.447 -0.2268  0.3932 -0.1573
    1Sil    Sib 1769   4.030   1.264  10.839  0.0168 -0.0958 -0.2782
    1Sil    Sib 1770   3.645   1.071  10.805  0.5174  0.4498  0.1104
    1Sil    Sib 1771   4.168   1.072  11.205 -0.3178  0.2351 -0.1604
    1Sil    Sib 1772   3.932   1.021  10.406 -0.1709 -0.2567 -0.0316
    1Sil    Sib 1773   4.156   1.087  11.513  0.1188 -0.2739 -0.0360
    1Sil    Sib 1774   3.582   1.077  12.302 -0.2511 -0.0417 -0.1806
    1Sil    Sib 1775   3.872   1.004  11.900  0.0768 -0.2909  0.0804
    1Sil    Sib 1776   3.422   1.304  11.950 -0.2744  0.3233  0.0599
    1Sil    Sib 1777   3.970   1.318  12.334  0.3408  0.2802  0.2237
    1Sil    Sib 1778   3.718   1.278  11.541 -0.1973 -0.1979  0.0341
    1Sil    Sim 1779   3.687   1.327  12.435 -0.0224 -0.1439 -0.3562
    1Sil    Sib 1780   3.433   1.331  11.649 -0.1801 -0.3232  0.1177
    1Sil    Sib 1781   3.984   1.251  12.038 -0.1323 -0.0152  0.2900
    1Sil    Sib 1782   3.591   1.064  12.006 -0.4786  0.0509 -0.2090
    1Sil    Sim 1783   4.131   1.068  12.389 -0.1994  0.0587  0.0016
    1Sil    Sib 1784   3.877   1.030  11.608  0.4301  0.0905  0.1418
    1Sil    Sim 1785   4.202   1.572  10.291  0.4839  0.1071 -0.0667
    1Sil    Sib 1786   3.626   1.566  11.100  0.5846 -0.3316 -0.2497
    1Sil    Sib 1787   3.918   1.511  10.705  0.3412 -0.1006  0.1889
    1Sil    Sib 1788   3.474   1.812  10.756 -0.2212  0.0988 -0.4316
    1Sil    Sib 1789   4.023   1.819  11.144  0.0037  0.3845  0.0293
    1Sil    Sim 1790   3.770   1.770  10.365 -0.3429 -0.0161 -0.4041
    1Sil    Sib 1791   3.728   1.817  11.232 -0.0429 -0.0640  0.0949
    1Sil    Sib 1792   3.488   1.818  10.459  0.3830  0.3148 -0.0368
    1Sil    Sib 1793   4.022   1.766  10.841  0.3499 -0.0271  0.2322
    1Sil    Sib 1794   3.632   1.556  10.805  0.2157  0.0430  0.1160
    1Sil    Sib 1795   4.183   1.569  11.198  0.2071  0.3247 -0.0958
    1Sil    Sib 1796   3.924   1.522  10.410  0.0757 -0.2363  0.8036
    1Sil    Sib 1797   4.162   1.563  11.506  0.4838  0.4891  0.1104
    1Sil    Sib 1798   3.571   1.568  12.308 -0.1534 -0.0651  0.2887
    1Sil    Sib 1799   3.880   1.501  11.899  0.3048  0.4515  0.4041
    1Sil    Sib 1800   3.428   1.799  11.945  0.1353 -0.1917  0.0803
    1Sil    Sib 1801   3.971   1.808  12.335  0.1250 -0.0239  0.3669
    1Sil    Sib 1802   3.721   1.761  11.525  0.7047  0.2792 -0.2770
    1Sil    Sim 1803   3.690   1.817  12.442 -0.2118  0.2621 -0.3021
    1Sil    Sib 1804   3.444   1.815  11.638 -0.2027  0.0024  0.2255
    1Sil    Sib 1805   3.968   1.748  12.043  0.0944  0.0006  0.2320
    1Sil    Sib 1806   3.595   1.560  12.006 -0.0776 -0.0677 -0.4626
    1Sil    Sim 1807   4.131   1.564  12.408  0.2079 -0.5585  0.0833
    1Sil    Sib 1808   3.882   1.524  11.602  0.4993 -0.1967 -0.4777
    1Sil    Sim 1809   4.216   2.059  10.306  0.0878 -0.1606 -0.3469
    1Sil    Sib 1810   3.636   2.071  11.100  0.5293  0.3028 -0.1662
    1Sil    Sib 1811   3.919   2.010  10.711 -0.0748 -0.4682 -0.1873
    1Sil    Sib 1812   3.469   2.310  10.749 -0.3273 -0.1680  0.4354
    1Sil    Sib 1813   4.009   2.322  11.137 -0.1291  0.7829 -0.1469
    1Sil    Sim 1814   3.771   2.259  10.353  0.0968 -0.4519  0.1775
    1Sil    Sib 1815   3.728   2.313  11.246  0.3143 -0.4155  0.0258
    1Sil    Sib 1816   3.498   2.317  10.450  0.3024 -0.3876  0.1200
    1Sil    Sib 1817   4.026   2.260  10.835  0.2924  0.0342  0.0340
    1Sil    Sib 1818   3.635   2.068  10.800 -0.4334  0.2434  0.2937
    1Sil    Sib 1819   4.177   2.078  11.204 -0.2233  0.0667 -0.5217
    1Sil    Sib 1820   3.934   2.012  10.412  0.4981  0.3471  0.2255
    1Sil    Sib 1821   4.163   2.063  11.501  0.5233  0.1871 -0.1360
    1Sil    Sib 1822   3.576   2.067  12.307  0.0403 -0.4682 -0.3444
    1Sil    Sib 1823   3.866   2.002  11.899 -0.1137  0.1630 -0.1393
    1Sil    Sib 1824   3.431   2.300  11.946  0.3154 -0.1683 -0.2919
    1Sil    Sib 1825   3.973   2.301  12.322  0.2680  0.4076 -0.5000
    1Sil    Sib 1826   3.729   2.257  11.541 -0.1018 -0.4435 -0.0070
    1Sil    Sim 1827   3.697   2.312  12.435  0.1376  0.2851  0.0007
    1Sil    Sib 1828   3.443   2.303  11.643 -0.2981 -0.1574  0.2850
    1Sil    Sib 1829   3.982   2.243  12.028 -0.1717 -0.1832 -0.3598
    1Sil    Sib 1830   3.588   2.048  12.013 -0.0241 -0.4711 -0.1685
    1Sil    Sim 1831   4.127   2.055  12.388  0.0330  0.1561  0.1687
    1Sil    Sib 1832   3.881   2.003  11.591  0.0495 -0.2044  0.1456
    1Sil    Sim 1833   4.225   2.554  10.310  0.0721 -0.0292 -0.1379
    1Sil    Sib 1834   3.632   2.563  11.106 -0.5798 -0.2504  0.2067
    1Sil    Sib 1835   3.912   2.503  10.706 -0.1573  0.2321  0.1607
    1Sil    Sib 1836   3.482   2.791  10.757  0.1741 -0.5279 -0.0499
    1Sil    Sib 1837   4.012   2.818  11.134 -0.1161  0.2960 -0.0134
    1Sil    Sim 1838   3.762   2.760  10.352  0.0414  0.2971 -0.1971
    1Sil    Sib 1839   3.727   2.808  11.241 -0.2307  0.4656 -0.2275
    1Sil    Sib 1840   3.483   2.798  10.463  0.2774  0.2913  0.1578
    1Sil    Sib 1841   4.033   2.745  10.842  0.2352  0.0508 -0.1363
    1Sil    Sib 1842   3.639   2.548  10.810  0.5476 -0.1165  0.0217
    1Sil    Sib 1843   4.166   2.567  11.201  0.0151 -0.2798 -0.6552
    1Sil    Sib 1844   3.932   2.506  10.407 -0.2582  0.2003  0.2087
    1Sil    Sib 1845   4.158   2.568  11.505  0.1920  0.1847 -0.0458
    1Sil    Sib 1846   3.583   2.561  12.302 -0.3075 -0.1641  0.2690
    1Sil    Sib 1847   3.869   2.491  11.899 -0.3595  0.1196 -0.0084
    1Sil    Sib 1848   3.436   2.797  11.936 -0.5349  0.1922 -0.4118
    1Sil    Sib 1849   3.959   2.800  12.334 -0.3300 -0.3032  0.2170
    1Sil    Sib 1850   3.716   2.749  11.543  0.0064  0.2270  0.4039
    1Sil    Sim 1851   3.683   2.813  12.454 -0.2720 -0.4152 -0.0549
    1Sil    Sib 1852   3.435   2.800  11.635 -0.1548 -0.0297 -0.0445
    1Sil    Sib 1853   3.972   2.737  12.041  0.0461  0.2214  0.4789
    1Sil    Sib 1854   3.592   2.548  11.998  0.1367  0.1468 -0.1184
    1Sil    Sim 1855   4.126   2.548  12.392 -0.2160 -0.1633 -0.3688
    1Sil    Sib 1856   3.878   2.506  11.598  0.2679 -0.3949  0.0191
    1Sil    Sim 1857   4.216   3.051  10.308  0.2885 -0.2091  0.1111
    1Sil    Sib 1858   3.624   3.053  11.107  0.6851  0.2869  0.2972
    1Sil    Sib 1859   3.926   2.989  10.711  0.4260 -0.2733  0.4056
    1Sil    Sib 1860   3.482   3.276  10.754 -0.0308 -0.3241 -0.2749
    1Sil    Sib 1861   4.016   3.300  11.150  0.2648  0.1532 -0.0691
    1Sil    Sim 1862   3.778   3.253  10.358  0.2170  0.1122 -0.3620
    1Sil    Sib 1863   3.731   3.296  11.247 -0.4470  0.5649 -0.5049
    1Sil    Sib 1864   3.492   3.291  10.465  0.1100 -0.4204 -0.0754
    1Sil    Sib 1865   4.027   3.235  10.857 -0.3553 -0.1451  0.1002
    1Sil    Sib 1866   3.643   3.034  10.816  0.0341  0.3453  0.2843
    1Sil    Sib 1867   4.174   3.053  11.203 -0.0628  0.3050  0.0009
    1Sil    Sib 1868   3.932   3.004  10.412 -0.1146  0.0335  0.1729
    1Sil    Sib 1869   4.160   3.059  11.504 -0.0940 -0.5730 -0.1955
    1Sil    Sib 1870   3.581   3.062  12.313 -0.3036 -0.0542  0.1933
    1Sil    Sib 1871   3.877   2.985  11.911  0.4007  0.1377  0.0602
    1Sil    Sib 1872   3.437   3.291  11.947  0.0447  0.3191  0.1177
    1Sil    Sib 1873   3.964   3.295  12.341 -0.0758  0.1852  0.2145
    1Sil    Sib 1874   3.708   3.241  11.540  0.6187 -0.3423  0.2225
    1Sil    Sim 1875   3.690   3.296  12.452  0.2326  0.0660  0.2355
    1Sil    Sib 1876   3.428   3.301  11.655  0.0342  0.5223 -0.6206
    1Sil    Sib 1877   3.977   3.230  12.047 -0.0088 -0.0070  0.0806
    1Sil    Sib 1878   3.591   3.047  12.009 -0.1025  0.0367 -0.2789
    1Sil    Sim 1879   4.127   3.040  12.396  0.0188  0.1738  0.1100
    1Sil    Sib 1880   3.881   2.994  11.609 -0.0401 -0.0059 -0.2854
    1Sil    Sim 1881   4.213   3.538  10.315 -0.2839  0.0286  0.3820
    1Sil    Sib 1882   3.634   3.545  11.107 -0.1407 -0.3203  0.2270
    1Sil    Sib 1883   3.923   3.486  10.712  0.0376  0.0478  0.2086
    1Sil    Sib 1884   3.481   0.331  10.733  0.1465  0.3774 -0.2564
    1Sil    Sib 1885   4.013   0.333  11.148  0.0340  0.2003  0.0171
    1Sil    Sim 1886   3.776   0.289  10.354  0.2678 -0.1593  0.2574
    1Sil    Sib 1887   3.732   0.330  11.250 -0.3138 -0.2753  0.1531
    1Sil    Sib 1888   3.499   0.352  10.438  0.1372 -0.4499  0.0313
    1Sil    Sib 1889   4.027   0.278  10.856 -0.0377  0.3240 -0.0441
    1Sil    Sib 1890   3.642   3.527  10.803 -0.3764  0.0193  0.0916
    1Sil    Sib 1891   4.177   3.552  11.206  0.1937 -0.1220  0.3837
    1Sil    Sib 1892   3.939   3.502  10.421  0.1158 -0.6181 -0.2150
    1Sil    Sib 1893   4.164   3.547  11.505 -0.1112  0.4315  0.2555
    1Sil    Sib 1894   3.582   3.547  12.321  0.0424  0.3901 -0.1162
    1Sil    Sib 1895   3.881   3.478  11.899  0.8560  0.0834  0.1584
    1Sil    Sib 1896   3.440   0.329  11.947 -0.5324 -0.5255  0.0686
    1Sil    Sib 1897   3.953   0.322  12.339  0.2777 -0.2907  0.3179
    1Sil    Sib 1898   3.718   0.281  11.550  0.1191 -0.2483  0.3749
    1Sil    Sim 1899   3.676   0.344  12.461  0.4990 -0.1627  0.0578
    1Sil    Sib 1900   3.438   0.339  11.650 -0.4353  0.0097  0.2816
    1Sil    Sib 1901   3.983   0.266  12.045 -0.0241  0.2005  0.4285
    1Sil    Sib 1902   3.599   3.530  12.018 -0.2327 -0.3156 -0.0934
    1Sil    Sim 1903   4.126   3.534  12.395 -0.7348 -0.6403  0.3178
    1Sil    Sib 1904   3.887   3.491  11.595 -0.3590  0.7173  0.3639
    1Sil    Sim 1905   1.715   0.576  10.310  0.6992  0.4845 -0.3245
    1Sil    Sib 1906   4.458   0.586  11.104  0.3209  0.2739 -0.2081
    1Sil    Sib 1907   1.421   0.521  10.704 -0.2064  0.3433  0.4137
    1Sil    Sib 1908   4.307   0.820  10.749 -0.2473 -0.1313  0.0034
    1Sil    Sib 1909   4.855   0.825  11.137  0.2457 -0.4809 -0.0151
    1Sil    Sim 1910   4.607   0.777  10.348  0.1610 -0.0150  0.0432
    1Sil    Sib 1911   4.571   0.831  11.232 -0.2678  0.2571  0.4158
    1Sil    Sib 1912   4.329   0.831  10.451 -0.2322  0.2693  0.2164
    1Sil    Sib 1913   1.526   0.766  10.847 -0.5764  0.0450 -0.1331
    1Sil    Sib 1914   4.464   0.564  10.810  0.1391  0.4142  0.0329
    1Sil    Sib 1915   1.684   0.583  11.200 -0.1473  0.0580 -0.0317
    1Sil    Sib 1916   1.441   0.527  10.401  0.1254  0.4069 -0.2043
    1Sil    Sib 1917   1.664   0.580  11.501 -0.3759  0.0243  0.0523
    1Sil    Sib 1918   4.408   0.587  12.309  0.7106  0.1412  0.3980
    1Sil    Sib 1919   1.369   0.535  11.903 -0.2897 -0.3058  0.2239
    1Sil    Sib 1920   4.249   0.826  11.941  0.0816  0.0891 -0.2448
    1Sil    Sib 1921   4.800   0.833  12.334 -0.4750 -0.0955 -0.0509
    1Sil    Sib 1922   4.543   0.773  11.525 -0.2785 -0.2097  0.2053
    1Sil    Sib 1923   4.513   0.836  12.438  0.5068  0.1907  0.0392
    1Sil    Sib 1924   4.268   0.834  11.639  0.1151 -0.2227 -0.0635
    1Sil    Sib 1925   1.479   0.778  12.033 -0.2715 -0.2201 -0.0959
    1Sil    Sib 1926   4.422   0.587  12.006  0.3257 -0.6017  0.1118
    1Sil    Sim 1927   1.622   0.582  12.406 -0.1460  0.0307  0.1123
    1Sil    Sib 1928   1.385   0.536  11.593  0.0448 -0.1959 -0.1022
    1Sil    Sib 1929   1.710   1.075  10.314 -0.5243  0.0633 -0.2235
    1Sil    Sib 1930   4.451   1.071  11.100 -0.0683  0.0825  0.2401
    1Sil    Sib 1931   1.415   1.016  10.711  0.1829  0.0428 -0.1314
    1Sil    Sib 1932   4.310   1.328  10.734  0.0285 -0.3109  0.0223
    1Sil    Sib 1933   4.852   1.317  11.139 -0.1258 -0.2219 -0.0448
    1Sil    Sim 1934   4.600   1.261  10.330 -0.2791 -0.4870 -0.2662
    1Sil    Sib 1935   4.570   1.321  11.241 -0.3525 -0.4386 -0.3853
    1Sil    Sib 1936   4.312   1.325  10.432 -0.2310  0.2467  0.7357
    1Sil    Sib 1937   1.533   1.267  10.843  0.0045 -0.2189  0.4602
    1Sil    Sib 1938   4.465   1.073  10.796  0.6055  0.4714 -0.6833
    1Sil    Sib 1939   1.681   1.068  11.190  0.0637 -0.0676  0.4215
    1Sil    Sib 1940   4.755   1.025  10.414  0.1469  0.5036  0.3826
    1Sil    Sib 1941   1.664   1.074  11.488  0.1919 -0.2590  0.2470
    1Sil    Sib 1942   4.415   1.085  12.299  0.3287  0.3402 -0.3812
    1Sil    Sib 1943   1.375   1.014  11.882  0.2787  0.2527  0.0823
    1Sil    Sib 1944   4.263   1.320  11.950 -0.4880  0.6219  0.1095
    1Sil    Sib 1945   4.806   1.317  12.322 -0.2722  0.1196  0.0600
    1Sil    Sib 1946   4.559   1.276  11.535 -0.1407 -0.1293 -0.1810
    1Sil    Sim 1947   4.526   1.323  12.446  0.0479 -0.2392 -0.1418
    1Sil    Sib 1948   4.271   1.327  11.649 -0.8067  0.4918  0.1833
    1Sil    Sib 1949   1.479   1.261  12.023 -0.0187  0.1498  0.1267
    1Sil    Sib 1950   4.427   1.066  11.992 -0.0377  0.2112 -0.1297
    1Sil    Sim 1951   1.634   1.076  12.407  0.1545 -0.2516 -0.0547
    1Sil    Sib 1952   4.708   1.020  11.581 -0.1158 -0.0352  0.0511
    1Sil    Sim 1953   1.737   1.572  10.293 -0.0470 -0.3414  0.3318
    1Sil    Sib 1954   4.464   1.569  11.091  0.1106 -0.0714 -0.5216
    1Sil    Sib 1955   1.437   1.513  10.692  0.2471 -0.2430 -0.2836
    1Sil    Sib 1956   4.308   1.805  10.743  0.4636  0.2903  0.1969
    1Sil    Sib 1957   4.848   1.808  11.136  0.3753 -0.1182 -0.7814
    1Sil    Sim 1958   4.605   1.763  10.344 -0.3552 -0.2813 -0.2180
    1Sil    Sib 1959   4.557   1.816  11.235 -0.2714 -0.4256 -0.5499
    1Sil    Sib 1960   4.328   1.815  10.440 -0.0335 -0.0162  0.1445
    1Sil    Sib 1961   1.537   1.756  10.840  0.1574  0.1339 -0.2207
    1Sil    Sib 1962   4.489   1.571  10.799 -0.2417 -0.1436 -0.1541
    1Sil    Sib 1963   1.688   1.563  11.202 -0.3620 -0.0872 -0.5719
    1Sil    Sib 1964   4.771   1.509  10.390 -0.2852 -0.3230 -0.2113
    1Sil    Sib 1965   1.670   1.568  11.497 -0.2420 -0.3266 -0.2293
    1Sil    Sib 1966   4.409   1.564  12.311 -0.1597  0.0976  0.2218
    1Sil    Sib 1967   1.371   1.511  11.896 -0.1840 -0.3735  0.0000
    1Sil    Sib 1968   4.253   1.813  11.935  0.1686  0.2545 -0.0968
    1Sil    Sib 1969   4.787   1.814  12.335 -0.3460 -0.0094 -0.1549
    1Sil    Sib 1970   4.551   1.754  11.528  0.2666 -0.1913  0.3437
    1Sil    Sib 1971   4.511   1.823  12.445 -0.2605  0.0086  0.2498
    1Sil    Sib 1972   4.272   1.816  11.627 -0.0375 -0.1063  0.4675
    1Sil    Sib 1973   1.479   1.753  12.040  0.3481  0.1560 -0.0492
    1Sil    Sib 1974   4.423   1.561  12.009 -0.3484 -0.2511  0.1205
    1Sil    Sim 1975   1.624   1.569  12.385 -0.0488  0.0382 -0.0386
    1Sil    Sib 1976   4.724   1.520  11.599  0.2795 -0.4176  0.3273
    1Sil    Sim 1977   1.719   2.064  10.306  0.1109 -0.2263  0.1535
    1Sil    Sib 1978   4.458   2.071  11.109 -0.0816  0.0132 -0.7566
    1Sil    Sib 1979   1.429   2.010  10.708  0.1414 -0.2899 -0.6020
    1Sil    Sib 1980   4.307   2.302  10.742 -0.4625 -0.0109 -0.4266
    1Sil    Sib 1981   4.847   2.302  11.151  0.3882  0.0373  0.0756
    1Sil    Sim 1982   4.609   2.253  10.352  0.3126 -0.0298  0.0480
    1Sil    Sib 1983   4.561   2.316  11.249  0.2456  0.4360 -0.2982
    1Sil    Sib 1984   4.324   2.300  10.448  0.1874  0.3875 -0.3274
    1Sil    Sib 1985   1.525   2.243  10.858 -0.2790  0.4971 -0.3239
    1Sil    Sib 1986   4.469   2.053  10.806  0.1401 -0.0199 -0.1434
    1Sil    Sib 1987   1.675   2.054  11.210 -0.4262  0.5218  0.2683
    1Sil    Sib 1988   4.767   2.001  10.415 -0.4010 -0.0138 -0.4196
    1Sil    Sib 1989   1.664   2.062  11.506  0.0198  0.0648  0.0002
    1Sil    Sib 1990   4.399   2.062  12.285 -0.1577 -0.6512  0.3302
    1Sil    Sib 1991   1.369   1.991  11.899  0.0696  0.3304  0.5920
    1Sil    Sib 1992   4.256   2.298  11.930  0.1381 -0.3014  0.2250
    1Sil    Sib 1993   4.789   2.298  12.341 -0.1279  0.1515  0.1318
    1Sil    Sib 1994   4.549   2.254  11.545  0.3512  0.3788 -0.1810
    1Sil    Sib 1995   4.508   2.310  12.429  0.0649  0.0732  0.0069
    1Sil    Sib 1996   4.265   2.323  11.635  0.3366  0.0879 -0.0506
    1Sil    Sib 1997   1.473   2.244  12.039 -0.0168  0.1609  0.1632
    1Sil    Sib 1998   4.418   2.054  11.983 -0.1441 -0.3189  0.2815
    1Sil    Sim 1999   1.631   2.051  12.400 -0.4047 -0.2441 -0.0856
    1Sil    Sib 2000   4.709   2.007  11.603 -0.5446  0.3003  0.4694
    1Sil    Sim 2001   1.711   2.548  10.309 -0.6136 -0.1622  0.2561
    1Sil    Sib 2002   4.454   2.563  11.107 -0.4142 -0.3216  0.0623
    1Sil    Sib 2003   1.438   2.491  10.726  0.3094  0.1330  0.3227
    1Sil    Sib 2004   4.312   2.793  10.742  0.0617 -0.0890  0.4526
    1Sil    Sib 2005   4.841   2.802  11.155 -0.2567  0.1528 -0.2762
    1Sil    Sim 2006   4.609   2.746  10.353 -0.5933 -0.0774 -0.3456
    1Sil    Sib 2007   4.560   2.804  11.245 -0.0981  0.1245  0.3867
    1Sil    Sib 2008   4.327   2.805  10.451 -0.0919 -0.2075  0.1756
    1Sil    Sib 2009   1.526   2.743  10.860  0.1054 -0.0514 -0.0048
    1Sil    Sib 2010   4.476   2.543  10.808 -0.1683  0.0465  0.1950
    1Sil    Sib 2011   1.677   2.552  11.205  0.1961 -0.0293  0.6944
    1Sil    Sib 2012   4.767   2.493  10.430  0.0120 -0.0672 -0.0072
    1Sil    Sib 2013   1.661   2.555  11.502  0.3632  0.4902  0.1414
    1Sil    Sib 2014   4.416   2.565  12.293 -0.1765 -0.4668  0.2615
    1Sil    Sib 2015   1.375   2.489  11.892 -0.0412 -0.2265 -0.2089
    1Sil    Sib 2016   4.251   2.792  11.949  0.4142 -0.0984 -0.4653
    1Sil    Sib 2017   4.791   2.789  12.338  0.0549 -0.4663 -0.1610
    1Sil    Sib 2018   4.543   2.749  11.543  0.0239 -0.0856  0.0577
    1Sil    Sib 2019   4.522   2.811  12.436 -0.3656 -0.2483 -0.0347
    1Sil    Sib 2020   4.266   2.810  11.644 -0.3920  0.0916  0.1565
    1Sil    Sib 2021   1.474   2.735  12.035  0.0709  0.1620  0.4346
    1Sil    Sib 2022   4.426   2.545  11.998 -0.2016 -0.1441  0.2735
    1Sil    Sib 2023   1.627   2.541  12.398  0.0709  0.1841  0.1654
    1Sil    Sib 2024   4.714   2.501  11.591 -0.4266 -0.1593  0.1879
    1Sil    Sim 2025   1.715   3.045  10.299 -0.8729 -0.3954 -0.3820
    1Sil    Sib 2026   4.452   3.048  11.109  0.5108 -0.2704  0.1333
    1Sil    Sib 2027   1.428   2.986  10.714  0.0261  0.0914  1.1273
    1Sil    Sib 2028   4.310   3.284  10.758 -0.3059 -0.5012  0.0734
    1Sil    Sib 2029   4.842   3.300  11.145 -0.1555  0.1002 -0.5256
    1Sil    Sim 2030   4.594   3.247  10.352  0.1663 -0.0040  0.0882
    1Sil    Sib 2031   4.561   3.294  11.246  0.1710  0.0896  0.0179
    1Sil    Sib 2032   4.311   3.291  10.460  0.0808  0.9268  0.5091
    1Sil    Sib 2033   1.527   3.238  10.847 -0.0080  0.3378 -0.0785
    1Sil    Sib 2034   4.473   3.039  10.810 -0.5082  0.0374 -0.2732
    1Sil    Sib 2035   1.680   3.050  11.209 -0.3714  0.2990  0.0465
    1Sil    Sib 2036   4.763   3.002  10.411  0.0606  0.2623 -0.5154
    1Sil    Sib 2037   1.662   3.050  11.506 -0.1315  0.0150 -0.1818
    1Sil    Sib 2038   4.417   3.050  12.299 -0.1737 -0.3069  0.1462
    1Sil    Sib 2039   1.370   2.988  11.895  0.5982  0.2630 -0.1114
    1Sil    Sib 2040   4.250   3.287  11.942 -0.0051  0.2453  0.2461
    1Sil    Sib 2041   4.794   3.286  12.319  0.3160  0.2001  0.2694
    1Sil    Sib 2042   4.550   3.242  11.533 -0.4010  0.1942 -0.5484
    1Sil    Sim 2043   4.521   3.294  12.453  0.5032 -0.0823  0.2633
    1Sil    Sib 2044   4.270   3.299  11.643 -0.5443  0.0121 -0.0968
    1Sil    Sib 2045   1.478   3.243  12.028  0.0389 -0.2254  0.0762
    1Sil    Sib 2046   4.421   3.042  11.999 -0.1057  0.0330  0.0003
    1Sil    Sim 2047   1.633   3.035  12.389 -0.3008  0.0601 -0.4586
    1Sil    Sib 2048   4.706   2.997  11.603  0.1533 -0.6235  0.2147
    1Sil    Sim 2049   1.710   3.537  10.318  0.0060  0.0341 -0.5291
    1Sil    Sib 2050   4.462   3.546  11.112 -0.1087  0.4509 -0.4736
    1Sil    Sib 2051   1.425   3.483  10.712 -0.1752  0.2095  0.3391
    1Sil    Sib 2052   4.311   0.316  10.756  0.0834 -0.1007  0.0839
    1Sil    Sib 2053   1.523   0.336  11.146  0.2141  0.2101  0.2150
    1Sil    Sib 2054   1.270   0.283  10.348 -0.2176 -0.1701 -0.0959
    1Sil    Sib 2055   4.564   0.346  11.244  0.1794  0.4546  0.0952
    1Sil    Sib 2056   4.317   0.335  10.450  0.1888 -0.0476 -0.0915
    1Sil    Sib 2057   1.529   0.276  10.848  0.1777  0.5687 -0.4391
    1Sil    Sib 2058   4.471   3.531  10.817 -0.3446 -0.1551 -0.1046
    1Sil    Sib 2059   1.680   3.543  11.207 -0.0390  0.2359  0.0015
    1Sil    Sib 2060   4.760   3.494  10.411 -0.0188  0.0763 -0.1824
    1Sil    Sib 2061   1.659   3.543  11.505  0.3393  0.2278  0.0454
    1Sil    Sib 2062   4.414   3.543  12.306 -0.0443  0.2138 -0.4241
    1Sil    Sib 2063   1.357   3.486  11.894  0.2959  0.1536 -0.0188
    1Sil    Sib 2064   4.260   0.338  11.945  0.3814 -0.2525 -0.2920
    1Sil    Sib 2065   1.466   0.325  12.327  0.4537 -0.2697 -0.0471
    1Sil    Sib 2066   1.224   0.282  11.534  0.4435 -0.0628  0.5151
    1Sil    Sim 2067   4.521   0.338  12.447  0.1290 -0.0185 -0.4787
    1Sil    Sib 2068   4.282   0.342  11.643 -0.0603 -0.0547 -0.0420
    1Sil    Sib 2069   1.478   0.283  12.031 -0.4186 -0.0169 -0.3686
    1Sil    Sib 2070   4.409   3.534  12.001 -0.0288 -0.1431 -0.2873
    1Sil    Sim 2071   1.632   3.529  12.390  0.3777  0.1502 -0.4235
    1Sil    Sib 2072   4.703   3.496  11.597 -0.2627  0.3234  0.3421
    1Sil     Hy 2073   2.540   0.650  10.117  1.8240 -0.1030  0.4459
    1Sil     Hm 2074   2.047   0.717  10.135  0.8204 -0.1605 -0.1228
    1Sil     Hm 2075   1.993   0.884  10.172 -0.5927 -0.1212  1.7567
    1Sil     Hm 2076   2.161   0.849  10.131 -0.8315  1.7086 -0.7127
    1Sil     Hm 2077   1.992   0.880  12.655  0.6103 -0.4897  0.3817
    1Sil     Hm 2078   1.866   0.778  12.587 -0.1434  0.5426 -4.4562
    1Sil     Hm 2079   2.013   0.706  12.629 -2.0868 -1.2931  0.0028
    1Sil     Hm 2080   2.589   0.625  12.574  0.2722  0.1304  0.5470
    1Sil     Hm 2081   2.419   0.633  12.620 -0.7951  0.3315  0.7413
    1Sil     Hm 2082   2.490   0.475  12.595 -0.2968  1.4870  2.3519
    1Sil     Hm 2083   2.540   0.983  10.105 -1.2503  1.5221 -0.2257
    1Sil     Hm 2084   2.618   1.141  10.094  1.0586  0.1527  0.8265
    1Sil     Hm 2085   2.706   1.003  10.168  0.2657  0.1436  0.4024
    1Sil     Hm 2086   1.956   1.270  10.163  0.7659  0.0356 -1.3678
    1Sil     Hm 2087   2.083   1.382  10.140  1.3748 -0.1814 -1.4019
    1Sil     Hm 2088   2.109   1.212  10.107  1.2575  0.5306  0.0043
    1Sil     Hm 2089   1.875   1.240  12.626  0.3695 -0.3117  0.8531
    1Sil     Hm 2090   2.046   1.262  12.676 -1.5024 -1.8635  0.7145
    1Sil     Hm 2091   1.941   1.403  12.657 -2.9869 -0.0323 -1.8943
    1Sil     Hm 2092   2.395   1.059  12.612 -1.7797 -2.4539 -2.0533
    1Sil     Hm 2093   2.565   1.103  12.589  2.0998 -1.3720  0.3373
    1Sil     Hm 2094   2.519   0.940  12.550 -0.6166  0.8673  1.6432
    1Sil     Hm 2095   2.540   1.624  10.095 -0.1914 -0.4219 -0.1546
    1Sil     Hm 2096   2.549   1.459  10.123 -1.6896  1.1336 -0.5221
    1Sil     Hm 2097   2.698   1.556  10.155  0.0885  2.0872 -2.4766
    1Sil     Hy 2098   2.127   1.711  10.138  0.3789 -1.1893  1.1714
    1Sil     Hy 2099   2.027   1.868  12.642  1.3145  2.3457 -3.4013
    1Sil     Hm 2100   2.405   1.549  12.609 -1.6839  2.4495 -1.5134
    1Sil     Hm 2101   2.555   1.450  12.559  0.7845  1.1245 -1.9441
    1Sil     Hm 2102   2.561   1.624  12.581 -0.3982  1.0416 -1.6463
    1Sil     Hm 2103   2.552   2.123  10.055  0.7785  0.4156  0.5408
    1Sil     Hm 2104   2.711   2.080  10.118 -0.3854  1.6109  1.8301
    1Sil     Hm 2105   2.586   1.952  10.093  1.6883 -0.4535 -0.8512
    1Sil     Hm 2106   1.970   2.255  10.169 -0.2719  0.8990 -0.3989
    1Sil     Hm 2107   2.077   2.401  10.169 -1.0037 -0.4134  0.5184
    1Sil     Hm 2108   2.134   2.244  10.114  1.3861  1.0261  0.1455
    1Sil     Hy 2109   2.009   2.199  12.600  1.8108  1.6981  0.6473
    1Sil     Hm 2110   2.459   2.116  12.637 -4.0658  0.1735 -3.1017
    1Sil     Hm 2111   2.433   1.945  12.611  0.2107  0.3999 -1.4383
    1Sil     Hm 2112   2.596   2.009  12.602  0.9458  3.3111  0.3597
    1Sil     Hm 2113   2.553   2.588  10.084 -1.6281 -1.0267 -0.0476
    1Sil     Hm 2114   2.696   2.498  10.133 -0.2789  0.0268 -1.2976
    1Sil     Hm 2115   2.541   2.418  10.129 -2.3266  1.4469 -0.3720
    1Sil     Hm 2116   2.114   2.726  10.121 -0.4262  0.0607  0.3204
    1Sil     Hm 2117   1.955   2.767  10.154  1.4880 -2.3089 -3.7803
    1Sil     Hm 2118   2.077   2.896  10.162  0.1715  0.6347  2.5734
    1Sil     Hm 2119   2.046   2.734  12.666 -0.4207 -1.1076 -0.9632
    1Sil     Hm 2120   1.948   2.877  12.649 -0.2639  0.4279  0.4499
    1Sil     Hm 2121   1.871   2.723  12.622  0.0953 -0.1411  3.0443
    1Sil     Hm 2122   2.421   2.530  12.621 -0.1095 -0.6669 -0.2900
    1Sil     Hm 2123   2.517   2.389  12.566 -1.1364 -0.1143 -1.4594
    1Sil     Hm 2124   2.591   2.543  12.599  0.0019 -1.6812  2.0212
    1Sil     Hm 2125   2.696   3.018  10.141  0.1044  0.6296  2.1556
    1Sil     Hm 2126   2.521   3.050  10.093 -0.0020 -1.4372 -0.9282
    1Sil     Hm 2127   2.568   2.895  10.146  0.5323 -0.4545 -0.1546
    1Sil     Hm 2128   2.163   3.213  10.116  2.4105  2.1622  1.3411
    1Sil     Hm 2129   1.988   3.224  10.142 -1.9403  2.9701  2.1757
    1Sil     Hm 2130   2.081   3.370  10.148 -3.4641 -0.0373 -0.5508
    1Sil     Hm 2131   1.975   3.344  12.646 -0.5767  0.2727  0.1989
    1Sil     Hm 2132   1.864   3.220  12.582  0.5040 -2.2651 -2.0886
    1Sil     Hm 2133   2.031   3.181  12.627  1.4288  1.5511 -0.4378
    1Sil     Hm 2134   2.515   2.940  12.595 -0.4916 -1.3039 -1.4267
    1Sil     Hm 2135   2.540   3.112  12.592 -0.2161  0.5409 -0.7016
    1Sil     Hm 2136   2.372   3.045  12.602 -0.0890 -0.8495  0.2002
    1Sil     Hm 2137   2.725   3.505  10.145 -0.4711 -0.1648 -0.1485
    1Sil     Hm 2138   2.594   3.385  10.141  1.7451 -0.5801 -0.4757
    1Sil     Hm 2139   2.563   3.552  10.081  1.8145  1.8195  0.0469
    1Sil     Hm 2140   2.095   0.381  10.119 -2.5988  1.3383 -0.0629
    1Sil     Hm 2141   2.075   0.207  10.117 -1.3565 -0.3608 -0.1345
    1Sil     Hm 2142   1.944   0.305  10.173 -0.3968 -2.2729 -1.9766
    1Sil     Hm 2143   1.890   0.247  12.617  1.3270 -1.9396 -1.9858
    1Sil     Hm 2144   2.051   0.267  12.674  0.9546  1.7112  0.6494
    1Sil     Hm 2145   1.938   0.406  12.657 -1.0357 -0.1667 -1.3729
    1Sil     Hy 2146   2.571   3.453  12.541 -0.3420 -0.3481  0.4876
    1Sil     Hm 2147   3.524   0.602  10.121 -0.0721  1.4479  2.2017
    1Sil     Hm 2148   3.421   0.459  10.106  0.5549  0.2872 -1.3873
    1Sil     Hm 2149   3.355   0.624  10.076 -0.3239  0.1847  1.2241
    1Sil     Hy 2150   2.917   0.718  10.170  1.0142 -1.0307  1.9961
    1Sil     Hy 2151   2.885   0.762  12.639  0.4864 -0.7702  0.9433
    1Sil     Hm 2152   3.416   0.545  12.607 -0.7716  1.2867  2.8997
    1Sil     Hm 2153   3.238   0.579  12.638  1.1575  0.9611  1.1401
    1Sil     Hm 2154   3.298   0.427  12.582 -1.0336  0.7731 -1.8954
    1Sil     Hm 2155   3.388   1.106  10.057  1.6051  0.4459  0.2699
    1Sil     Hm 2156   3.542   1.037  10.113  0.6535  0.3600  0.5376
    1Sil     Hm 2157   3.393   0.942  10.108 -0.7009  0.3837 -0.7895
    1Sil     Hy 2158   2.943   1.180  10.169 -2.0565 -0.7417  0.4630
    1Sil     Hm 2159   2.690   1.265  12.589  0.5243 -1.2153 -1.8885
    1Sil     Hm 2160   2.833   1.175  12.611 -1.8237 -0.2857  1.0692
    1Sil     Hm 2161   2.833   1.352  12.659 -0.2710 -0.3709  1.1542
    1Sil     Hm 2162   3.235   1.019  12.632  0.2542  1.5788  0.0757
    1Sil     Hm 2163   3.370   0.927  12.577  0.0500 -1.4588  2.7036
    1Sil     Hm 2164   3.380   1.103  12.623 -0.4032  0.5546 -2.0298
    1Sil     Hy 2165   3.497   1.477  10.176 -1.7159 -1.1056  0.5037
    1Sil     Hm 2166   2.988   1.775  10.114 -1.1421  0.2791 -0.9434
    1Sil     Hm 2167   2.831   1.719  10.141  0.1863 -1.9912  2.6537
    1Sil     Hm 2168   2.864   1.894  10.166  0.7557 -0.1142 -0.2701
    1Sil     Hm 2169   2.688   1.822  12.625  0.2565 -0.5311 -1.2627
    1Sil     Hm 2170   2.797   1.683  12.636 -0.8007 -0.8499 -1.3739
    1Sil     Hm 2171   2.856   1.849  12.676  0.0135 -0.5744 -0.0446
    1Sil     Hm 2172   3.224   1.597  12.617 -0.4788 -1.0239  0.7344
    1Sil     Hm 2173   3.251   1.429  12.589 -2.7305  0.9198 -0.5835
    1Sil     Hm 2174   3.391   1.542  12.606  0.4291  1.3112 -0.1371
    1Sil     Hy 2175   3.394   2.072  10.119 -0.0222 -0.0221  0.3303
    1Sil     Hm 2176   2.902   2.427  10.180 -3.4049  0.0715 -0.0961
    1Sil     Hm 2177   2.931   2.262  10.098 -1.4838 -0.7755  0.0466
    1Sil     Hm 2178   2.782   2.310  10.155  0.0874  3.2136  0.8555
    1Sil     Hm 2179   2.709   2.251  12.598  0.9540 -0.8524  3.0434
    1Sil     Hm 2180   2.877   2.213  12.646 -0.3197  0.2828 -0.2932
    1Sil     Hm 2181   2.807   2.377  12.653 -3.0074  1.2586 -2.3028
    1Sil     Hm 2182   3.266   2.124  12.623  1.5588  2.5026 -1.4593
    1Sil     Hm 2183   3.316   1.951  12.599 -0.8132  0.3896  0.0719
    1Sil     Hm 2184   3.431   2.085  12.586 -0.2475 -0.1228  1.3579
    1Sil     Hy 2185   3.427   2.632  10.136 -1.5387  0.2285 -0.1621
    1Sil     Hy 2186   2.949   2.850  10.185 -0.2614  0.6181  0.9681
    1Sil     Hm 2187   2.717   2.809  12.626  0.2083  0.4900 -0.0547
    1Sil     Hm 2188   2.791   2.646  12.609 -1.6826  1.4184  2.9337
    1Sil     Hm 2189   2.888   2.776  12.662  0.3690  1.0847  0.6439
    1Sil     Hm 2190   3.243   2.539  12.613 -0.7513 -1.5189 -1.1968
    1Sil     Hm 2191   3.351   2.411  12.560  0.6439  0.0776  0.7479
    1Sil     Hm 2192   3.418   2.568  12.594 -0.5918  0.9323 -1.0795
    1Sil     Hy 2193   3.449   3.087  10.131 -0.8926 -0.2854 -0.6025
    1Sil     Hm 2194   2.969   3.146  10.143 -0.1985 -0.9782 -0.1302
    1Sil     Hm 2195   2.818   3.228  10.178  0.0410 -0.9448  1.5232
    1Sil     Hm 2196   2.967   3.324  10.147  0.0737  0.6619  0.7645
    1Sil     Hm 2197   2.761   3.219  12.638  1.9142 -0.5813  1.7720
    1Sil     Hm 2198   2.905   3.316  12.671  0.0614 -0.6261  0.9557
    1Sil     Hm 2199   2.767   3.399  12.616  0.0509  0.0386 -1.9647
    1Sil     Hm 2200   3.215   2.979  12.608  0.7158 -1.8029  0.6538
    1Sil     Hm 2201   3.391   2.983  12.610  0.7699  1.8548  2.0970
    1Sil     Hm 2202   3.312   3.138  12.620  0.7226 -0.8119 -1.3641
    1Sil     Hy 2203   3.455   3.577  10.117 -0.8687  0.9181  0.1903
    1Sil     Hy 2204   2.912   0.211  10.164 -1.2985 -0.3066  1.0419
    1Sil     Hm 2205   2.722   0.242  12.571 -1.4607  1.1604 -0.3719
    1Sil     Hm 2206   2.870   0.298  12.653 -0.1703 -0.7771 -0.5367
    1Sil     Hm 2207   2.755   0.418  12.612  0.7568 -0.4437  1.5132
    1Sil     Hm 2208   3.217   3.559  12.610  0.3412 -0.4034 -0.8314
    1Sil     Hm 2209   3.269   3.388  12.589  1.4954 -0.9225  0.8387
    1Sil     Hm 2210   3.390   3.512  12.601  0.7649  0.1377 -1.9087
    1Sil     Hm 2211   4.257   0.421  10.164  1.5701  0.2418 -3.1209
    1Sil     Hm 2212   4.191   0.563  10.086  1.6453 -1.2828 -1.6978
    1Sil     Hm 2213   4.361   0.561  10.139  0.0274  0.8400  1.0411
    1Sil     Hy 2214   3.721   0.728  10.144  3.0428 -2.3518  1.9035
    1Sil     Hy 2215   3.693   0.801  12.653  0.2782  1.7628 -0.4846
    1Sil     Hm 2216   4.182   0.601  12.634  0.1023  1.2097 -0.1003
    1Sil     Hm 2217   4.033   0.520  12.600 -0.2397 -0.5185 -3.1509
    1Sil     Hm 2218   4.186   0.427  12.576  1.4961  0.3904 -1.1525
    1Sil     Hm 2219   4.265   1.106  10.075 -0.7379  1.1716  0.1018
    1Sil     Hm 2220   4.391   1.009  10.150 -0.5599  0.1396  0.5299
    1Sil     Hm 2221   4.233   0.940  10.106 -0.4632 -1.3490  1.2015
    1Sil     Hy 2222   3.765   1.259  10.134  2.8413  2.2541 -0.5534
    1Sil     Hm 2223   3.719   1.348  12.652 -2.5906  0.6278  3.1630
    1Sil     Hm 2224   3.553   1.339  12.620  0.7010  0.3683  1.1471
    1Sil     Hm 2225   3.649   1.195  12.611  0.8184 -0.6307 -1.5731
    1Sil     Hm 2226   4.220   0.943  12.570 -0.8335 -0.0018  2.4171
    1Sil     Hm 2227   4.247   1.117  12.571 -0.5038  0.7160 -0.0108
    1Sil     Hm 2228   4.088   1.053  12.615 -0.4448 -0.4721 -0.3696
    1Sil     Hm 2229   4.339   1.467  10.160  0.1492  0.0629  1.4848
    1Sil     Hm 2230   4.178   1.473  10.091  0.0393  0.2702 -0.2737
    1Sil     Hm 2231   4.279   1.613  10.076  1.6064 -0.5616 -0.2314
    1Sil     Hm 2232   3.669   1.887  10.193 -0.8415 -0.5048 -0.9047
    1Sil     Hm 2233   3.825   1.811  10.138 -0.2129  2.1758  1.1578
    1Sil     Hm 2234   3.679   1.715  10.164  1.7204 -0.3171 -1.0938
    1Sil     Hm 2235   3.643   1.698  12.656  3.6280  1.2632  0.8996
    1Sil     Hm 2236   3.652   1.872  12.676 -0.7294  1.6110 -1.9242
    1Sil     Hm 2237   3.508   1.814  12.603  0.0645  1.7828  0.1614
    1Sil     Hm 2238   4.218   1.470  12.609 -0.4092 -0.5062 -2.4041
    1Sil     Hm 2239   4.061   1.536  12.621 -0.6366  0.2068 -1.6406
    1Sil     Hm 2240   4.206   1.646  12.602  0.8927  0.2152 -0.6299
    1Sil     Hm 2241   4.241   1.925  10.119 -1.2353  1.0766 -3.2646
    1Sil     Hm 2242   4.217   2.100  10.083  0.1563  1.4806  2.0766
    1Sil     Hm 2243   4.371   2.045  10.152  0.2564 -1.1889 -0.3413
    1Sil     Hm 2244   3.668   2.377  10.180 -0.4134  0.3350 -0.0475
    1Sil     Hm 2245   3.795   2.270  10.114  0.8061  0.3576  0.5832
    1Sil     Hm 2246   3.647   2.207  10.166 -1.4263  2.0101  0.5503
    1Sil     Hm 2247   3.708   2.366  12.656  1.0509  0.4292 -1.5420
    1Sil     Hm 2248   3.687   2.194  12.627  0.5505  0.2670  0.6027
    1Sil     Hm 2249   3.553   2.315  12.603  0.0833 -1.8407  1.4160
    1Sil     Hm 2250   4.100   2.087  12.597 -1.9975 -1.0092 -1.0412
    1Sil     Hm 2251   4.274   2.068  12.559  0.0412  0.8699  0.5387
    1Sil     Hm 2252   4.165   1.923  12.557 -0.4482  1.0085  1.0808
    1Sil     Hm 2253   4.259   2.407  10.140  0.6217 -0.5503  1.4221
    1Sil     Hm 2254   4.375   2.545  10.132  0.5712 -0.2330  1.7218
    1Sil     Hm 2255   4.214   2.566  10.079  0.8929  1.3838  0.0219
    1Sil     Hm 2256   3.638   2.724  10.152  2.0890 -1.4449 -1.2390
    1Sil     Hm 2257   3.801   2.770  10.117 -2.6508 -1.2414 -2.7516
    1Sil     Hm 2258   3.695   2.890  10.167 -2.3380 -0.3419 -1.4938
    1Sil     Hm 2259   3.620   2.896  12.657 -0.3869 -0.0153  0.1355
    1Sil     Hm 2260   3.737   2.765  12.669  2.7777  1.3831 -2.3795
    1Sil     Hm 2261   3.571   2.731  12.641  0.3687  0.8655  1.6168
    1Sil     Hm 2262   4.062   2.465  12.591  1.4839 -2.5508  0.9670
    1Sil     Hm 2263   4.222   2.416  12.540 -1.0026 -0.6680 -0.3976
    1Sil     Hm 2264   4.206   2.578  12.613  0.3076 -0.2983  0.6710
    1Sil     Hm 2265   4.206   2.970  10.098  1.0666 -0.8001  0.2224
    1Sil     Hm 2266   4.281   3.126  10.116  0.1344 -0.1223 -0.0879
    1Sil     Hm 2267   4.369   2.986  10.160  0.9920  0.2342 -0.4905
    1Sil     Hm 2268   3.808   3.267  10.123  0.1037 -1.4705  0.0347
    1Sil     Hm 2269   3.631   3.242  10.172  0.2554  0.1208 -0.3418
    1Sil     Hm 2270   3.709   3.400  10.186 -0.9849 -0.8342  0.8727
    1Sil     Hm 2271   3.646   3.150  12.637  1.1050 -0.1881 -1.6622
    1Sil     Hm 2272   3.677   3.322  12.686 -0.8176  2.1613 -1.6799
    1Sil     Hm 2273   3.522   3.277  12.621 -0.3874 -1.6032  0.9204
    1Sil     Hm 2274   4.198   3.092  12.609 -0.6320 -1.7382  4.0672
    1Sil     Hm 2275   4.073   2.978  12.614 -0.1172 -0.0577 -0.1327
    1Sil     Hm 2276   4.233   2.921  12.559  0.0886 -0.6182 -0.4377
    1Sil     Hm 2277   4.266   3.396  10.151  0.1473  0.6372 -3.5516
    1Sil     Hm 2278   4.230   3.562  10.093 -0.2599 -1.6578 -2.2777
    1Sil     Hm 2279   4.384   3.529  10.168 -0.6759 -2.1800 -1.4094
    1Sil     Hm 2280   3.766   0.211  10.126  0.2339 -0.1367 -0.0096
    1Sil     Hm 2281   3.634   0.322  10.159  0.3703 -0.5936 -1.4809
    1Sil     Hm 2282   3.809   0.380  10.143  0.0175  0.3639 -1.3397
    1Sil     Hm 2283   3.507   0.317  12.626 -0.1960 -0.7753  0.3820
    1Sil     Hm 2284   3.643   0.209  12.633 -0.4687  0.4564 -1.4508
    1Sil     Hm 2285   3.660   0.377  12.694  1.2416  1.7604 -1.8203
    1Sil     Hm 2286   4.232   3.588  12.595  1.0962 -0.7999 -0.0916
    1Sil     Hm 2287   4.204   3.413  12.586 -1.3760 -0.5786 -2.1994
    1Sil     Hm 2288   4.079   3.528  12.634 -1.2849  0.4636 -2.4422
    1Sil     Hm 2289   1.756   0.438  10.119 -1.3432  0.4537  0.2167
    1Sil     Hm 2290   1.761   0.612  10.075 -1.3125 -1.0441 -0.5897
    1Sil     Hm 2291   1.896   0.536  10.148  0.0982 -1.5081 -1.6198
    1Sil     Hm 2292   4.649   0.731  10.144 -0.0905 -1.5844  1.8344
    1Sil     Hm 2293   4.476   0.779  10.170  0.4602 -0.4338 -0.5913
    1Sil     Hm 2294   4.594   0.902  10.167  2.2452  0.9818  2.2520
    1Sil     Hy 2295   4.515   0.853  12.653 -0.0353 -0.1838 -0.5696
    1Sil     Hm 2296   1.728   0.466  12.557 -0.9210 -0.8602  2.1242
    1Sil     Hm 2297   1.690   0.628  12.616 -1.2582  0.3889  0.0330
    1Sil     Hm 2298   1.564   0.503  12.603 -1.6348  1.0856 -2.6331
    1Sil     Hy 2299   1.678   1.038  10.114  1.2896  0.3132 -0.6743
    1Sil     Hm 2300   4.623   1.302  10.092 -0.1602  0.3470  0.3225
    1Sil     Hm 2301   4.461   1.318  10.140  0.2769  0.0445 -0.2942
    1Sil     Hm 2302   4.539   1.160  10.123  1.4537 -1.1214  0.9737
    1Sil     Hm 2303   4.403   1.350  12.652 -0.4325 -1.9107  1.8176
    1Sil     Hm 2304   4.576   1.336  12.666  0.8612 -1.4911 -0.5886
    1Sil     Hm 2305   4.476   1.192  12.627 -4.2658  0.2852  0.5351
    1Sil     Hm 2306   1.684   0.957  12.603 -1.8901 -0.0549  1.3014
    1Sil     Hm 2307   1.712   1.135  12.611  1.3198 -0.7461  1.8078
    1Sil     Hm 2308   1.542   1.070  12.617 -1.8029 -1.7816 -5.4877
    1Sil     Hm 2309   1.898   1.563  10.145  0.6585 -1.0767  2.4163
    1Sil     Hm 2310   1.764   1.454  10.095 -1.9860  0.6710  0.5025
    1Sil     Hm 2311   1.747   1.634  10.080  1.6748  1.1339 -0.1759
    1Sil     Hm 2312   4.467   1.786  10.139 -0.2058  0.4692 -0.0607
    1Sil     Hm 2313   4.637   1.783  10.112  0.5745  1.3172 -0.4269
    1Sil     Hm 2314   4.579   1.926  10.168 -0.5684  0.6387 -1.1956
    1Sil     Hy 2315   4.469   1.904  12.637 -0.1342 -0.7393  3.0889
    1Sil     Hm 2316   1.605   1.600  12.621  0.8443 -0.0552 -0.0386
    1Sil     Hm 2317   1.635   1.437  12.574  0.7934 -0.2699 -0.9034
    1Sil     Hm 2318   1.769   1.557  12.566  0.5075  2.4034 -0.4645
    1Sil     Hm 2319   1.763   1.927  10.121  3.1160  0.1803 -0.3633
    1Sil     Hm 2320   1.703   2.081  10.075 -0.9291  0.1967  1.5893
    1Sil     Hm 2321   1.872   2.071  10.119 -0.7192  0.8145 -1.2206
    1Sil     Hm 2322   4.611   2.379  10.157 -0.2701  0.4605  2.3161
    1Sil     Hm 2323   4.628   2.212  10.107  0.4834 -0.2263  0.1557
    1Sil     Hm 2324   4.470   2.273  10.167  0.0557 -0.0593  1.5486
    1Sil     Hy 2325   4.498   2.383  12.609 -1.1100 -0.0449  1.0030
    1Sil     Hm 2326   1.557   2.037  12.617 -0.6998  1.2724 -0.4602
    1Sil     Hm 2327   1.661   1.904  12.579  3.8317  0.4092  0.4343
    1Sil     Hm 2328   1.727   2.071  12.615 -1.0864  0.6517 -0.1341
    1Sil     Hm 2329   1.759   2.603  10.080  2.0163 -0.8016 -0.7846
    1Sil     Hm 2330   1.835   2.453  10.155 -1.5424 -2.3800  0.6366
    1Sil     Hm 2331   1.669   2.452  10.103 -1.5186  0.9402  1.0508
    1Sil     Hm 2332   4.670   2.757  10.126 -0.6123  1.3401 -1.2814
    1Sil     Hm 2333   4.514   2.690  10.151 -1.6263  0.9341  0.8591
    1Sil     Hm 2334   4.538   2.867  10.152 -2.1391 -0.3035  0.8000
    1Sil     Hy 2335   4.546   2.836  12.640 -0.2754  0.6763  0.0103
    1Sil     Hy 2336   1.562   2.519  12.595 -1.0226  0.9740 -2.4150
    1Sil     Hm 2337   1.792   3.101  10.087 -0.7377 -1.0880 -0.7511
    1Sil     Hm 2338   1.850   2.952  10.127  0.3841  0.6894 -3.3585
    1Sil     Hm 2339   1.672   2.974  10.085  0.5041  1.6713 -1.2928
    1Sil     Hm 2340   4.470   3.309  10.158  1.0699  0.2473 -1.5238
    1Sil     Hm 2341   4.632   3.299  10.130 -1.2216  1.9743 -0.1442
    1Sil     Hm 2342   4.533   3.149  10.155 -0.1193  0.1579 -1.0153
    1Sil     Hm 2343   4.523   3.300  12.696  0.3545 -0.5457  0.0027
    1Sil     Hm 2344   4.359   3.267  12.624 -0.6304 -0.3872  0.7428
    1Sil     Hm 2345   4.477   3.149  12.625 -0.0432 -0.2053 -0.6748
    1Sil     Hm 2346   1.564   3.030  12.612  0.6160 -0.5902  0.2597
    1Sil     Hm 2347   1.679   2.902  12.564  1.1045 -0.2800 -2.7958
    1Sil     Hm 2348   1.732   3.074  12.581  0.9886  0.0561 -1.5008
    1Sil     Hm 2349   1.719   3.399  10.148 -1.7678  0.5657  0.9136
    1Sil     Hm 2350   1.719   3.567  10.101  0.2524 -0.0745  0.1854
    1Sil     Hm 2351   1.866   3.491  10.173  0.4880 -1.4269  2.0861
    1Sil     Hy 2352   1.147   0.359  10.189 -0.6030 -0.3585  2.5760
    1Sil     Hm 2353   4.538   0.329  12.692 -0.6029  2.4298 -0.5949
    1Sil     Hm 2354   4.373   0.328  12.635  0.4708  1.0769  0.2271
    1Sil     Hm 2355   4.468   0.176  12.617  2.8781 -0.6825  0.3414
    1Sil     Hm 2356   1.711   3.410  12.581 -0.4672  1.0837  2.9902
    1Sil     Hm 2357   1.726   3.576  12.602 -0.5392  0.9921 -0.4002
    1Sil     Hm 2358   1.564   3.510  12.613  1.0256  1.7683  1.1818
    2Eth     Ho 2359   3.173   0.931   1.655 -0.3983  0.1740 -0.3620
    2Eth     Oh 2360   3.195   0.874   1.584  0.1975  0.1610 -0.1675
    2Eth     Co 2361   3.325   0.834   1.620  0.1269  0.4142 -0.4649
    2Eth    Hco 2362   3.316   0.750   1.688  0.1018  0.2901 -0.6200
    2Eth    Hco 2363   3.378   0.913   1.674 -0.2152  0.4141 -0.1278
    2Eth     Ch 2364   3.403   0.786   1.501  0.1828 -0.2227  0.1742
    2Eth    Hcc 2365   3.351   0.701   1.455 -2.7828  2.3532 -1.4170
    2Eth    Hcc 2366   3.504   0.756   1.529  0.7382  1.3402 -0.1078
    2Eth    Hcc 2367   3.406   0.870   1.432 -1.0389 -1.1302 -1.0229
    3Eth     Ho 2368   2.980   2.811   6.599  0.1558 -0.2383  0.4555
    3Eth     Oh 2369   2.936   2.751   6.657 -0.3060 -0.1737  0.1743
    3Eth     Co 2370   2.878   2.823   6.764  0.0664 -0.4059 -1.0279
    3Eth    Hco 2371   2.800   2.889   6.726  0.9275  2.3596  1.8564
    3Eth    Hco 2372   2.956   2.887   6.804 -0.4012  0.2457 -1.1566
    3Eth     Ch 2373   2.822   2.743   6.885  0.0111 -0.1815  0.0781
    3Eth    Hcc 2374   2.794   2.817   6.960 -0.0698  0.7566 -0.8734
    3Eth    Hcc 2375   2.899   2.676   6.924 -1.3204 -1.3143  0.8264
    3Eth    Hcc 2376   2.735   2.688   6.850  0.2471 -0.3615 -0.2246
    4Eth     Ho 2377   0.207   2.508   2.313 -0.7222 -0.7011 -0.0289
    4Eth     Oh 2378   0.217   2.525   2.405 -0.1589  0.5898 -0.3099
    4Eth     Co 2379   0.085   2.517   2.453 -0.2576 -0.2320  0.5442
    4Eth    Hco 2380   0.071   2.412   2.476 -0.9812 -0.3626 -0.4184
    4Eth    Hco 2381   0.021   2.522   2.364 -1.0879  1.6422  1.2166
    4Eth     Ch 2382   0.046   2.630   2.559  0.0377 -0.0751 -0.5191
    4Eth    Hcc 2383   0.112   2.716   2.549 -2.5134  1.6604 -3.4419
    4Eth    Hcc 2384   0.065   2.588   2.658  1.2890  0.9620 -0.3094
    4Eth    Hcc 2385  -0.054   2.673   2.553  0.3711  0.8807  0.5421
    5Eth     Ho 2386   3.304   0.352   9.855 -0.9511  0.1033 -0.3929
    5Eth     Oh 2387   3.275   0.262   9.852 -0.0726 -0.1975 -0.0856
    5Eth     Co 2388   3.133   0.249   9.845  0.4828  0.9310  0.5254
    5Eth    Hco 2389   3.108   0.271   9.741  0.7446  1.4258  0.5648
    5Eth    Hco 2390   3.080   0.317   9.911 -1.4476  0.6497 -0.6946
    5Eth     Ch 2391   3.104   0.103   9.878  0.0133 -0.3790 -0.1317
    5Eth    Hcc 2392   3.140   0.070   9.976  2.6221 -1.1687 -1.3230
    5Eth    Hcc 2393   3.136   0.027   9.807  4.6626 -0.8297  2.2634
    5Eth    Hcc 2394   2.996   0.108   9.893 -0.0013 -1.0047 -0.0341
    6Eth     Ho 2395   1.301   1.084   2.513  0.2196 -0.6351  0.1054
    6Eth     Oh 2396   1.371   1.145   2.528  0.3013 -0.7253  0.0888
    6Eth     Co 2397   1.403   1.209   2.410  0.3345  0.1307  0.1913
    6Eth    Hco 2398   1.304   1.225   2.368  0.4139  1.2715  0.4252
    6Eth    Hco 2399   1.452   1.144   2.338 -0.1819  0.1055 -0.1375
    6Eth     Ch 2400   1.462   1.351   2.439 -0.0964  0.3718  0.9066
    6Eth    Hcc 2401   1.493   1.411   2.353  1.5440 -2.8238 -0.7989
    6Eth    Hcc 2402   1.550   1.355   2.504  0.5680  1.7885 -0.0473
    6Eth    Hcc 2403   1.387   1.410   2.491 -1.1957 -0.7213  0.5684
    7Eth     Ho 2404   1.431   2.414   2.024  0.4410 -0.3589  0.7926
    7Eth     Oh 2405   1.471   2.343   1.978 -0.5170 -0.2987 -0.1683
    7Eth     Co 2406   1.371   2.238   1.939 -0.4609  0.1686 -0.5012
    7Eth    Hco 2407   1.278   2.289   1.914  0.2346  1.6969 -0.0462
    7Eth    Hco 2408   1.350   2.181   2.030 -1.6570  1.1023 -0.1747
    7Eth     Ch 2409   1.434   2.144   1.828  0.1815  0.5291 -0.4814
    7Eth    Hcc 2410   1.374   2.056   1.800  0.2100  0.0511  0.9242
    7Eth    Hcc 2411   1.527   2.102   1.867  1.2526  2.2919 -1.1238
    7Eth    Hcc 2412   1.446   2.203   1.737  3.3930 -1.8171 -1.6807
    8Eth     Ho 2413   2.754   1.109   8.344  0.0005  0.7987  0.1470
    8Eth     Oh 2414   2.705   1.076   8.417  0.0565 -0.1033 -0.2252
    8Eth     Co 2415   2.635   1.187   8.476 -0.1042 -0.1618  0.3627
    8Eth    Hco 2416   2.583   1.238   8.395  1.8407  0.9747 -0.2085
    8Eth    Hco 2417   2.705   1.257   8.523 -2.2232  0.8850  2.0180
    8Eth     Ch 2418   2.527   1.142   8.573  0.4511 -0.1063  0.3166
    8Eth    Hcc 2419   2.570   1.088   8.657 -0.9304  0.1614  1.2173
    8Eth    Hcc 2420   2.462   1.059   8.544  2.9181 -2.2080  0.6596
    8Eth    Hcc 2421   2.463   1.221   8.613 -1.0325  0.6957 -3.4367
    9Eth     Ho 2422   3.136   3.339   9.591  0.0067 -0.3923 -0.2337
    9Eth     Oh 2423   3.142   3.247   9.612 -0.5084 -0.4419 -0.2965
    9Eth     Co 2424   3.007   3.199   9.619  0.5168  0.3625 -0.0319
    9Eth    Hco 2425   2.955   3.235   9.530  0.7224  0.0638 -0.2718
    9Eth    Hco 2426   2.953   3.248   9.700 -0.0845 -2.2468  1.1890
    9Eth     Ch 2427   3.010   3.043   9.609 -0.1560 -0.0883 -0.0939
    9Eth    Hcc 2428   3.034   3.021   9.505 -1.0617 -0.7810 -0.1606
    9Eth    Hcc 2429   2.910   3.002   9.624 -0.8865  1.9820  0.8781
    9Eth    Hcc 2430   3.085   2.984   9.662  0.1532  0.5189  0.1481
   10Eth     Ho 2431   2.603   2.881   9.820 -0.8612 -0.3793 -0.3003
   10Eth     Oh 2432   2.519   2.916   9.845 -0.4268  0.5310 -0.1071
   10Eth     Co 2433   2.437   2.809   9.883 -0.6458 -0.6168  0.1872
   10Eth    Hco 2434   2.458   2.743   9.967 -1.9549  0.8758  1.7325
   10Eth    Hco 2435   2.407   2.738   9.806 -2.1582  0.1622  0.0409
   10Eth     Ch 2436   2.305   2.884   9.914 -0.7699  0.4295 -0.0208
   10Eth    Hcc 2437   2.313   2.959   9.992  0.8796 -0.8042  0.9975
   10Eth    Hcc 2438   2.222   2.814   9.926 -1.6913  1.6087  0.6255
   10Eth    Hcc 2439   2.278   2.936   9.822 -0.0049  1.8246  0.5276
   11Eth     Ho 2440   0.536   2.840   1.901 -1.2713 -2.1754  2.1160
   11Eth     Oh 2441   0.587   2.896   1.957 -0.0012 -0.1980 -0.8874
   11Eth     Co 2442   0.500   2.967   2.041  0.4840  0.8738 -0.2848
   11Eth    Hco 2443   0.432   2.892   2.080  0.0174  1.2369 -0.4021
   11Eth    Hco 2444   0.434   3.035   1.987 -1.0262 -1.6118 -1.6805
   11Eth     Ch 2445   0.575   3.040   2.157 -0.5436 -0.3625  0.2419
   11Eth    Hcc 2446   0.504   3.091   2.222  0.6019 -0.7431  1.7970
   11Eth    Hcc 2447   0.643   3.124   2.139 -0.0599 -0.7450  0.2803
   11Eth    Hcc 2448   0.628   2.959   2.205  0.9235  0.7269  0.5014
   12Eth     Ho 2449   0.326   2.742   6.444 -3.2917  0.5068  0.7092
   12Eth     Oh 2450   0.306   2.716   6.356  0.1295  0.2158 -0.0645
   12Eth     Co 2451   0.416   2.723   6.269 -0.6013 -0.2435 -0.6900
   12Eth    Hco 2452   0.501   2.668   6.309 -1.6666 -0.0858  1.8874
   12Eth    Hco 2453   0.447   2.827   6.285 -0.5813 -0.2277 -0.8276
   12Eth     Ch 2454   0.384   2.702   6.120 -0.0565  0.0501  0.0968
   12Eth    Hcc 2455   0.333   2.609   6.097 -1.1457  0.4442  0.8953
   12Eth    Hcc 2456   0.475   2.702   6.059  1.8352 -1.6468  2.8238
   12Eth    Hcc 2457   0.322   2.784   6.084 -0.0492  0.1267  0.2600
   13Eth     Ho 2458   2.186   0.471   9.682  0.4344 -2.1114 -0.5631
   13Eth     Oh 2459   2.170   0.404   9.747  0.3776 -1.3473  0.2255
   13Eth     Co 2460   2.263   0.418   9.855 -0.3225 -0.2620 -0.3177
   13Eth    Hco 2461   2.221   0.463   9.945 -1.3804  0.9213 -1.3691
   13Eth    Hco 2462   2.334   0.496   9.828  0.5055 -0.3608  1.5353
   13Eth     Ch 2463   2.321   0.287   9.901 -0.2201  0.2796 -0.3699
   13Eth    Hcc 2464   2.247   0.208   9.909 -0.4013  0.6550  2.1976
   13Eth    Hcc 2465   2.379   0.302   9.992  0.4915  0.3954 -0.8417
   13Eth    Hcc 2466   2.391   0.262   9.822  0.2646 -0.8427  0.3992
   14Eth     Ho 2467   0.698   3.370   9.635  0.8076  1.3037  0.8729
   14Eth     Oh 2468   0.633   3.369   9.703  0.0108  0.0925  0.1192
   14Eth     Co 2469   0.621   3.510   9.739 -0.9393  0.3430 -0.0213
   14Eth    Hco 2470   0.543   3.570   9.694 -0.1861  1.1586 -0.2536
   14Eth    Hco 2471   0.715   3.554   9.705  0.5252 -1.8224  1.0618
   14Eth     Ch 2472   0.613   3.513   9.890 -0.4554  0.3573  0.0057
   14Eth    Hcc 2473   0.522   3.459   9.919  0.8416 -0.6652  2.3112
   14Eth    Hcc 2474   0.632   3.612   9.931 -1.6925 -0.0936  1.6863
   14Eth    Hcc 2475   0.686   3.445   9.934 -2.3828 -2.0342 -0.3796
   15Eth     Ho 2476   1.471   2.793   4.355 -1.3409 -1.1724  0.7358
   15Eth     Oh 2477   1.420   2.869   4.375 -0.1018 -0.0636 -0.2348
   15Eth     Co 2478   1.508   2.978   4.412  0.4510 -0.1088 -0.2852
   15Eth    Hco 2479   1.602   2.934   4.448 -0.8081 -0.1348  3.1732
   15Eth    Hco 2480   1.471   3.034   4.498  1.4202 -1.4377  1.0490
   15Eth     Ch 2481   1.559   3.067   4.294  0.0567 -0.2262  0.9581
   15Eth    Hcc 2482   1.655   3.115   4.310  0.2296 -0.5290  0.8366
   15Eth    Hcc 2483   1.495   3.154   4.279  1.7449  0.9034  0.2147
   15Eth    Hcc 2484   1.556   3.005   4.204  0.2100  2.0376 -0.6575
   16Eth     Ho 2485   0.880   1.471   9.639  0.9197 -1.0403  0.4250
   16Eth     Oh 2486   0.821   1.453   9.710  0.3908  0.6490  0.4496
   16Eth     Co 2487   0.746   1.569   9.745  0.2338  0.2867  0.3529
   16Eth    Hco 2488   0.692   1.583   9.651 -0.5179  1.0498  0.8929
   16Eth    Hco 2489   0.804   1.660   9.757  0.3301  0.6564 -2.5649
   16Eth     Ch 2490   0.644   1.555   9.858 -0.0832 -0.0002 -0.1075
   16Eth    Hcc 2491   0.708   1.550   9.946  1.1358  3.4324 -0.7391
   16Eth    Hcc 2492   0.578   1.470   9.843 -1.9300  1.6455 -1.5920
   16Eth    Hcc 2493   0.572   1.637   9.862 -1.7733 -1.4198 -1.0615
   17Eth     Ho 2494   1.438   2.214   4.889  0.3567  2.7265  0.6451
   17Eth     Oh 2495   1.397   2.247   4.811  0.0148  0.2060 -0.2814
   17Eth     Co 2496   1.501   2.301   4.732 -0.2675  0.0681  0.5622
   17Eth    Hco 2497   1.577   2.224   4.717  3.1353  3.1577  1.2107
   17Eth    Hco 2498   1.540   2.389   4.782 -0.7667  0.8267 -0.3673
   17Eth     Ch 2499   1.446   2.340   4.586  0.7448  0.1939 -0.3810
   17Eth    Hcc 2500   1.357   2.402   4.596  1.6007  1.2493  0.9672
   17Eth    Hcc 2501   1.433   2.258   4.516 -2.0066  1.2789 -1.2091
   17Eth    Hcc 2502   1.523   2.400   4.538  2.1395 -1.0496  0.2324
   18Eth     Ho 2503   0.969   2.538   4.290 -0.1818  0.3165  0.7038
   18Eth     Oh 2504   0.884   2.502   4.267  0.1451 -0.3542  0.5172
   18Eth     Co 2505   0.844   2.417   4.375  0.6174 -0.0271 -0.6538
   18Eth    Hco 2506   0.895   2.458   4.463  1.8849 -3.2872  0.2083
   18Eth    Hco 2507   0.890   2.319   4.364 -2.6711 -1.5097 -2.0700
   18Eth     Ch 2508   0.689   2.394   4.382  0.4952  0.5020 -1.0480
   18Eth    Hcc 2509   0.651   2.304   4.335 -0.9239  0.7184 -0.3394
   18Eth    Hcc 2510   0.653   2.460   4.303  1.7639  0.2177 -1.8705
   18Eth    Hcc 2511   0.644   2.406   4.481  1.6760  0.5222 -0.4999
   19Eth     Ho 2512   0.404   1.672   2.962 -0.4296 -0.8855 -0.5558
   19Eth     Oh 2513   0.331   1.723   2.932 -0.2026 -0.2504 -0.0359
   19Eth     Co 2514   0.316   1.818   3.038  0.1338  0.5025  0.4142
   19Eth    Hco 2515   0.417   1.849   3.067  0.2007  1.0381 -0.3650
   19Eth    Hco 2516   0.246   1.779   3.112 -0.7904  1.9246  0.3158
   19Eth     Ch 2517   0.257   1.948   2.984 -0.1210  0.2696 -0.3800
   19Eth    Hcc 2518   0.301   1.993   2.895 -0.8360 -0.5677 -1.1742
   19Eth    Hcc 2519   0.252   2.023   3.063 -2.0408  1.2386 -1.3898
   19Eth    Hcc 2520   0.150   1.935   2.967 -0.8804  0.6857  3.5513
   20Eth     Ho 2521   2.690   1.531   6.868 -2.0069 -2.3414 -4.9244
   20Eth     Oh 2522   2.610   1.516   6.914  0.3315 -0.0189  0.2986
   20Eth     Co 2523   2.597   1.593   7.033 -0.0153  0.5110  0.3928
   20Eth    Hco 2524   2.592   1.699   7.009 -0.5593  0.7146  1.3824
   20Eth    Hco 2525   2.692   1.575   7.084 -0.4925 -1.6660  0.5968
   20Eth     Ch 2526   2.468   1.553   7.110  0.1675 -0.2659  0.5911
   20Eth    Hcc 2527   2.379   1.598   7.066  1.1427 -0.4453 -1.6491
   20Eth    Hcc 2528   2.475   1.583   7.214  1.6832 -2.4279  1.1505
   20Eth    Hcc 2529   2.464   1.444   7.106  1.1851 -0.3264  0.9822
   21Eth     Ho 2530   0.016   2.196   9.885 -0.8003 -0.0115 -0.7546
   21Eth     Oh 2531   0.031   2.107   9.857  0.3504 -0.2034  0.4350
   21Eth     Co 2532  -0.094   2.051   9.870 -0.3823 -0.6688  0.0457
   21Eth    Hco 2533  -0.146   2.077   9.777  0.3331  0.8720  0.0632
   21Eth    Hco 2534  -0.156   2.099   9.946  1.7534  1.3115  0.5818
   21Eth     Ch 2535  -0.085   1.905   9.909  0.1188  0.7775  0.2774
   21Eth    Hcc 2536  -0.031   1.859   9.826 -1.9320 -0.6961 -0.2826
   21Eth    Hcc 2537  -0.183   1.858   9.906  0.2221  0.5520  0.4275
   21Eth    Hcc 2538  -0.034   1.890  10.005 -0.1360 -1.2215  0.1256
   22Eth     Ho 2539   1.429   3.449   3.345  0.5270  0.0301 -1.8039
   22Eth     Oh 2540   1.375   3.525   3.356 -0.4731 -0.9431  0.3796
   22Eth     Co 2541   1.250   3.483   3.410  0.1719 -0.8499 -0.3968
   22Eth    Hco 2542   1.292   3.444   3.502 -0.0030 -2.4286 -0.9796
   22Eth    Hco 2543   1.195   3.407   3.355 -2.1414  0.8133 -0.4763
   22Eth     Ch 2544   1.172   3.605   3.447  0.3276 -0.0477  0.1278
   22Eth    Hcc 2545   1.236   3.668   3.509 -0.5122  2.1351 -1.1918
   22Eth    Hcc 2546   1.078   3.574   3.492  0.4974  1.5558  1.6395
   22Eth    Hcc 2547   1.147   3.663   3.359 -1.2393  0.2583  0.7653
   23Eth     Ho 2548   0.178   2.429   5.250 -1.1311  0.1248 -0.4656
   23Eth     Oh 2549   0.182   2.522   5.237  0.3709  0.1698  0.2814
   23Eth     Co 2550   0.087   2.538   5.139 -0.0364  0.0225  0.2041
   23Eth    Hco 2551  -0.009   2.500   5.173 -0.5251  0.5924 -0.5170
   23Eth    Hco 2552   0.111   2.483   5.047 -1.5939 -0.9988  0.3978
   23Eth     Ch 2553   0.069   2.678   5.098 -0.1097  0.3170  0.1043
   23Eth    Hcc 2554   0.045   2.743   5.182  2.0578 -0.7616  1.5989
   23Eth    Hcc 2555  -0.016   2.688   5.030  0.1929  1.3245 -0.1426
   23Eth    Hcc 2556   0.161   2.718   5.055  0.1871 -2.1388 -1.6136
   24Eth     Ho 2557   0.189   0.853   4.509  0.9409 -0.3727 -0.2507
   24Eth     Oh 2558   0.152   0.845   4.423  0.1490 -0.3546  0.0863
   24Eth     Co 2559   0.015   0.824   4.454  0.1425 -0.4244 -0.0328
   24Eth    Hco 2560  -0.020   0.887   4.536 -0.4967  0.9328 -1.3116
   24Eth    Hco 2561   0.005   0.721   4.488  0.6833 -0.1170  1.0891
   24Eth     Ch 2562  -0.068   0.846   4.324  0.0620 -0.2654 -0.9117
   24Eth    Hcc 2563  -0.168   0.804   4.335  0.2730 -0.9328 -1.5069
   24Eth    Hcc 2564  -0.043   0.787   4.236 -1.0916 -0.2094 -1.2902
   24Eth    Hcc 2565  -0.087   0.949   4.291 -1.8737  0.1889  1.4729
   25Eth     Ho 2566   0.428   0.974  10.069  0.1587 -0.5287 -0.5210
   25Eth     Oh 2567   0.445   1.057  10.027 -0.7076 -0.0159  0.1212
   25Eth     Co 2568   0.570   1.055   9.966  0.3017  0.7360  0.2644
   25Eth    Hco 2569   0.566   1.016   9.864  1.2879 -1.4998  1.0304
   25Eth    Hco 2570   0.626   0.974  10.014 -1.3765  0.6829  2.1742
   25Eth     Ch 2571   0.650   1.183   9.966  0.0458  0.5665 -0.0407
   25Eth    Hcc 2572   0.754   1.155   9.952  0.5418  2.6481 -0.7387
   25Eth    Hcc 2573   0.634   1.237  10.059 -0.1353  1.0327 -0.3435
   25Eth    Hcc 2574   0.627   1.250   9.883  2.2348  0.4901 -0.7451
   26Eth     Ho 2575   2.615   2.987   1.627 -1.7593 -0.3745  1.9413
   26Eth     Oh 2576   2.656   3.062   1.665  0.0347  0.1126 -0.7792
   26Eth     Co 2577   2.685   3.153   1.560  0.5489  0.3182  0.3483
   26Eth    Hco 2578   2.594   3.173   1.504  0.6345  0.7974  0.3772
   26Eth    Hco 2579   2.753   3.108   1.487 -1.5354  1.5728 -2.4328
   26Eth     Ch 2580   2.760   3.283   1.597  0.1706 -0.1392  0.3563
   26Eth    Hcc 2581   2.779   3.349   1.512  1.4935  0.3461  1.0010
   26Eth    Hcc 2582   2.858   3.268   1.643  0.9419 -2.3425 -1.9155
   26Eth    Hcc 2583   2.698   3.339   1.667 -0.8116 -1.6155  0.6711
   27Eth     Ho 2584   0.638   3.292   1.666 -0.4385  0.6324  1.3523
   27Eth     Oh 2585   0.555   3.317   1.629  0.1922  0.0559 -0.5189
   27Eth     Co 2586   0.587   3.424   1.542 -0.1865 -0.5689 -1.3546
   27Eth    Hco 2587   0.618   3.383   1.446  2.5351  0.4582 -0.9564
   27Eth    Hco 2588   0.664   3.470   1.604 -0.8992 -0.6122 -0.4127
   27Eth     Ch 2589   0.462   3.516   1.511 -0.0887 -0.0326  0.0520
   27Eth    Hcc 2590   0.482   3.574   1.421 -3.0567  1.4932  0.3326
   27Eth    Hcc 2591   0.434   3.585   1.590  1.5427  2.3156 -1.3584
   27Eth    Hcc 2592   0.377   3.449   1.495  0.8949 -1.3364  0.2055
   28Eth     Ho 2593   1.734   1.173   8.484  0.1859 -2.8563 -3.0780
   28Eth     Oh 2594   1.819   1.148   8.515 -0.0062 -0.1302 -0.0512
   28Eth     Co 2595   1.897   1.268   8.523  0.5346 -0.0316  0.1700
   28Eth    Hco 2596   1.845   1.352   8.476  1.7055  0.9010  0.5275
   28Eth    Hco 2597   1.983   1.256   8.458 -2.1112 -1.3816 -3.2513
   28Eth     Ch 2598   1.941   1.305   8.665 -0.3277 -0.3392 -0.3643
   28Eth    Hcc 2599   1.854   1.335   8.724 -1.3678 -3.5206 -0.1517
   28Eth    Hcc 2600   1.997   1.398   8.664  0.2359 -0.5570  3.5087
   28Eth    Hcc 2601   1.998   1.223   8.709  2.5538  1.4735 -0.6543
   29Eth     Ho 2602   0.014   2.438  10.004  0.7174  2.4874 -3.1496
   29Eth     Oh 2603  -0.026   2.379   9.943 -0.1802 -0.1002 -0.2265
   29Eth     Co 2604  -0.160   2.420   9.919 -0.2443 -0.1101  0.3551
   29Eth    Hco 2605  -0.186   2.525   9.937 -0.4076  0.2953 -2.1006
   29Eth    Hco 2606  -0.220   2.364   9.991 -0.2315 -0.3395  0.1878
   29Eth     Ch 2607  -0.197   2.376   9.778  0.4197 -0.3138 -0.1434
   29Eth    Hcc 2608  -0.221   2.270   9.776  0.6402 -0.3980  1.0901
   29Eth    Hcc 2609  -0.123   2.397   9.701 -2.6231  1.8108 -2.6441
   29Eth    Hcc 2610  -0.289   2.430   9.756  1.5336  2.2106  1.1696
   30Eth     Ho 2611   1.700   0.406   9.382 -1.0815 -2.1362 -0.6443
   30Eth     Oh 2612   1.623   0.460   9.378  0.2923 -0.0661 -0.2858
   30Eth     Co 2613   1.574   0.451   9.242 -0.0350  0.2392 -0.2122
   30Eth    Hco 2614   1.586   0.351   9.199 -0.6346  0.3411 -0.6090
   30Eth    Hco 2615   1.640   0.519   9.187  1.1541  2.6488  3.9849
   30Eth     Ch 2616   1.434   0.512   9.231 -0.2239  0.7236  0.0596
   30Eth    Hcc 2617   1.398   0.486   9.131  2.6902 -0.9355 -0.5986
   30Eth    Hcc 2618   1.437   0.621   9.241  0.2349  0.7045  0.1597
   30Eth    Hcc 2619   1.362   0.479   9.306  0.1965  1.0831  0.6238
   31Eth     Ho 2620   2.970   2.792   6.021  1.1843  0.7298  1.4703
   31Eth     Oh 2621   3.055   2.782   5.983  0.3103  0.0216 -0.3753
   31Eth     Co 2622   3.065   2.638   5.960  0.6435  0.5814  0.2040
   31Eth    Hco 2623   2.986   2.600   5.896  0.6592 -0.2355  0.6580
   31Eth    Hco 2624   3.030   2.585   6.050  0.6453 -3.2576 -1.9370
   31Eth     Ch 2625   3.206   2.602   5.917  0.5164 -0.0584 -0.0894
   31Eth    Hcc 2626   3.210   2.504   5.964 -2.8443  0.6263  1.7996
   31Eth    Hcc 2627   3.272   2.668   5.973  0.8100 -3.0632  3.2873
   31Eth    Hcc 2628   3.205   2.607   5.808  0.3898  3.1023  0.0131
   32Eth     Ho 2629   2.852   2.806   9.455 -1.2127 -0.2144  3.2788
   32Eth     Oh 2630   2.788   2.862   9.415  0.6653 -0.3888 -0.1308
   32Eth     Co 2631   2.838   2.895   9.287 -0.5367 -0.8188  0.2484
   32Eth    Hco 2632   2.843   2.808   9.221 -2.7923 -1.0058  0.2635
   32Eth    Hco 2633   2.939   2.932   9.304 -1.0519  0.5333  0.4258
   32Eth     Ch 2634   2.762   3.017   9.229  0.1160  0.2861 -0.3309
   32Eth    Hcc 2635   2.790   3.018   9.124  1.0645 -1.1506 -0.0967
   32Eth    Hcc 2636   2.772   3.111   9.283  0.3110 -0.0142  0.1586
   32Eth    Hcc 2637   2.653   3.009   9.222 -0.0740  1.5569  0.8191
   33Eth     Ho 2638   0.132   2.641   9.654  1.4163  2.7719 -0.3451
   33Eth     Oh 2639   0.218   2.606   9.666  0.1019 -0.3927  0.4196
   33Eth     Co 2640   0.226   2.486   9.741  0.0655  0.4566  0.0073
   33Eth    Hco 2641   0.135   2.425   9.738 -0.2167  0.7931  1.3685
   33Eth    Hco 2642   0.244   2.518   9.844  1.2680  1.1292 -0.4069
   33Eth     Ch 2643   0.324   2.392   9.671  0.1827 -0.2731 -0.2768
   33Eth    Hcc 2644   0.304   2.403   9.565 -0.3388 -0.9236 -0.2499
   33Eth    Hcc 2645   0.331   2.288   9.704 -1.1553 -0.6178 -1.0179
   33Eth    Hcc 2646   0.421   2.441   9.679  0.0369 -0.0597  0.2059
   34Eth     Ho 2647   1.272   1.012   8.316  0.5386 -0.8653  1.0720
   34Eth     Oh 2648   1.287   0.926   8.351  0.4146 -1.2168  0.2598
   34Eth     Co 2649   1.368   0.944   8.465 -0.5933 -0.4034  0.5422
   34Eth    Hco 2650   1.315   1.021   8.521 -0.6527 -0.3543  0.4196
   34Eth    Hco 2651   1.459   0.992   8.428 -1.4371  0.7198 -0.1107
   34Eth     Ch 2652   1.400   0.810   8.523  0.1327 -0.5123 -0.0477
   34Eth    Hcc 2653   1.315   0.751   8.557 -0.4197  0.3554  0.1131
   34Eth    Hcc 2654   1.460   0.835   8.611 -1.6040  2.2729  0.4010
   34Eth    Hcc 2655   1.456   0.751   8.451  0.9769  1.7691 -1.3348
   35Eth     Ho 2656   1.537   3.160   9.707  1.0551 -0.1722 -0.5128
   35Eth     Oh 2657   1.508   3.183   9.793  0.4543 -0.1496 -0.7149
   35Eth     Co 2658   1.527   3.077   9.872  0.3285 -0.3480 -0.5963
   35Eth    Hco 2659   1.633   3.081   9.896  0.3001 -0.0199 -0.5176
   35Eth    Hco 2660   1.515   2.984   9.817 -2.3200 -0.1982 -0.3035
   35Eth     Ch 2661   1.432   3.069   9.994  0.6872  0.4392 -0.4819
   35Eth    Hcc 2662   1.441   2.973  10.044  1.0525  1.0982  0.7329
   35Eth    Hcc 2663   1.328   3.074   9.962  0.5946  1.7269 -0.0372
   35Eth    Hcc 2664   1.448   3.156  10.058  2.0883 -0.1169 -0.0654
   36Eth     Ho 2665   0.174   0.045   1.770  1.6765  1.4426 -1.0370
   36Eth     Oh 2666   0.142   0.130   1.794  0.0772  0.5611  0.0015
   36Eth     Co 2667   0.062   0.111   1.909 -0.5579  0.0163  0.3339
   36Eth    Hco 2668   0.122   0.070   1.991  2.3647  3.3961  0.0068
   36Eth    Hco 2669  -0.019   0.042   1.888 -1.6237  1.0893  0.8607
   36Eth     Ch 2670   0.024   0.252   1.964 -0.5156  0.1886  0.7882
   36Eth    Hcc 2671   0.013   0.256   2.073  0.1966 -0.0336  0.8765
   36Eth    Hcc 2672  -0.072   0.283   1.924 -0.2758  1.6622  1.3317
   36Eth    Hcc 2673   0.100   0.327   1.943 -0.0833 -0.2362  0.8064
   37Eth     Ho 2674   2.059   0.504   4.973 -1.1286 -0.3078  1.9159
   37Eth     Oh 2675   1.983   0.471   4.929 -0.1828 -0.4694  0.3295
   37Eth     Co 2676   1.963   0.331   4.939  1.1046 -0.2634  0.1672
   37Eth    Hco 2677   2.039   0.285   4.876  0.3028  0.7187 -1.5442
   37Eth    Hco 2678   1.872   0.300   4.888  1.8921 -0.2548 -1.2599
   37Eth     Ch 2679   1.958   0.290   5.089 -0.0577 -0.7551  0.4698
   37Eth    Hcc 2680   2.057   0.258   5.121 -0.5686 -3.7046 -0.7100
   37Eth    Hcc 2681   1.892   0.203   5.096  0.1571 -1.1310 -1.7685
   37Eth    Hcc 2682   1.926   0.372   5.153 -1.2913  0.4895 -1.7000
   38Eth     Ho 2683   1.226   0.612   9.737  1.1456 -2.1032 -1.3206
   38Eth     Oh 2684   1.153   0.557   9.713 -0.2114 -0.9414  0.0130
   38Eth     Co 2685   1.110   0.482   9.819 -0.0798  0.3034 -0.7462
   38Eth    Hco 2686   1.111   0.550   9.905 -0.9691  0.4211 -0.8320
   38Eth    Hco 2687   1.178   0.398   9.837  1.5958  1.7610 -0.0633
   38Eth     Ch 2688   0.967   0.432   9.794  0.7967 -0.7190 -0.5522
   38Eth    Hcc 2689   0.909   0.518   9.760 -1.9853 -2.4295 -0.2733
   38Eth    Hcc 2690   0.912   0.387   9.877 -2.5389  0.5101 -2.0048
   38Eth    Hcc 2691   0.967   0.360   9.712  0.8319 -1.7475  0.3374
   39Eth     Ho 2692   0.339   1.532   1.718 -0.4198 -0.2309 -0.4691
   39Eth     Oh 2693   0.356   1.457   1.664 -0.3577 -0.2498 -0.4233
   39Eth     Co 2694   0.476   1.487   1.587  0.5958  0.3044 -0.4403
   39Eth    Hco 2695   0.511   1.583   1.622  0.3738 -0.2666  1.3769
   39Eth    Hco 2696   0.452   1.496   1.481 -0.1136 -0.0777 -0.3168
   39Eth     Ch 2697   0.578   1.380   1.586  0.3557  0.3221 -0.6331
   39Eth    Hcc 2698   0.642   1.368   1.673 -0.0609 -2.4175 -0.6488
   39Eth    Hcc 2699   0.641   1.413   1.503  1.0113 -1.9949 -1.0984
   39Eth    Hcc 2700   0.526   1.286   1.568  2.6601 -1.0895 -0.1890
   40Eth     Ho 2701   2.489   1.779   1.500  1.1486 -1.0877 -1.1251
   40Eth     Oh 2702   2.548   1.725   1.550  0.5116 -0.8945 -0.1293
   40Eth     Co 2703   2.489   1.599   1.570 -0.1339  0.5521 -0.4999
   40Eth    Hco 2704   2.437   1.573   1.478  0.7272 -1.4406 -0.4567
   40Eth    Hco 2705   2.409   1.610   1.643  0.2525 -0.1760  0.0465
   40Eth     Ch 2706   2.583   1.493   1.639 -0.3111 -0.3396 -0.7281
   40Eth    Hcc 2707   2.658   1.460   1.566 -1.2111 -3.8126 -0.1724
   40Eth    Hcc 2708   2.532   1.400   1.664 -1.4812  0.1567 -1.2537
   40Eth    Hcc 2709   2.638   1.535   1.723  0.7460 -1.7484 -0.6999
   41Eth     Ho 2710   0.860   1.084   5.279 -0.2537  0.3638  0.2963
   41Eth     Oh 2711   0.818   1.114   5.200  0.0818 -0.0456 -0.0366
   41Eth     Co 2712   0.919   1.131   5.103 -0.2054  0.5168 -0.0554
   41Eth    Hco 2713   0.967   1.035   5.082 -0.7213  0.3635 -0.5369
   41Eth    Hco 2714   1.001   1.195   5.134 -0.3384  1.0464 -0.7962
   41Eth     Ch 2715   0.847   1.193   4.984 -0.6188 -0.3851 -0.4824
   41Eth    Hcc 2716   0.907   1.203   4.893 -0.3386  3.6758  0.0492
   41Eth    Hcc 2717   0.804   1.291   5.003  1.0126  0.6950 -2.0860
   41Eth    Hcc 2718   0.767   1.125   4.957  1.0895 -1.0102 -4.4417
   42Eth     Ho 2719   0.067   2.962   7.477 -0.1909  0.0552  0.7694
   42Eth     Oh 2720   0.020   2.884   7.452 -0.0630  0.3206 -0.3221
   42Eth     Co 2721  -0.090   2.884   7.538  0.2269  0.0057 -1.0200
   42Eth    Hco 2722  -0.124   2.983   7.568 -0.1102 -1.2400  2.9291
   42Eth    Hco 2723  -0.058   2.833   7.628 -2.6136 -1.5194 -0.7964
   42Eth     Ch 2724  -0.221   2.818   7.484 -0.6066 -0.4059 -0.1041
   42Eth    Hcc 2725  -0.240   2.855   7.383  2.1667  1.9479  0.1766
   42Eth    Hcc 2726  -0.309   2.830   7.547 -0.9031 -1.2946 -0.3336
   42Eth    Hcc 2727  -0.207   2.711   7.501 -4.9759 -0.9339  0.8942
   43Eth     Ho 2728   0.520   0.666   4.714 -0.0161  0.2817 -0.2958
   43Eth     Oh 2729   0.440   0.617   4.705  0.3414 -0.3464 -0.0836
   43Eth     Co 2730   0.341   0.690   4.780  0.1127 -0.0917 -0.2246
   43Eth    Hco 2731   0.238   0.655   4.788 -0.9163  2.7715 -0.0271
   43Eth    Hco 2732   0.330   0.790   4.736 -0.3845 -0.2801 -0.5328
   43Eth     Ch 2733   0.396   0.711   4.924 -0.5925 -0.2852  0.6862
   43Eth    Hcc 2734   0.420   0.617   4.975 -1.8246 -1.1084 -0.2084
   43Eth    Hcc 2735   0.331   0.772   4.987  0.7019  1.4942  0.3335
   43Eth    Hcc 2736   0.489   0.766   4.914 -0.4772 -0.6324 -0.1805
   44Eth     Ho 2737   2.656   1.108   1.803  0.2870  0.0946  0.6663
   44Eth     Oh 2738   2.604   1.108   1.724  0.3183 -0.4307  0.6398
   44Eth     Co 2739   2.694   1.084   1.625  0.4638  0.2634 -0.5353
   44Eth    Hco 2740   2.776   1.025   1.664  0.5680  2.7942  3.4361
   44Eth    Hco 2741   2.744   1.174   1.589 -1.2807  0.9034 -1.3964
   44Eth     Ch 2742   2.608   1.004   1.511  1.0264  0.3752 -0.4340
   44Eth    Hcc 2743   2.666   0.975   1.424  0.3948  0.0675 -0.7515
   44Eth    Hcc 2744   2.532   1.069   1.467 -0.4707 -0.4121  0.9564
   44Eth    Hcc 2745   2.550   0.919   1.545  2.5312 -0.5910 -0.2266
   45Eth     Ho 2746   3.082   1.708   9.795 -0.1161  0.6664  1.0050
   45Eth     Oh 2747   3.046   1.637   9.845 -0.0339  0.0072  0.1324
   45Eth     Co 2748   3.149   1.553   9.906 -0.0004 -0.8965  0.5563
   45Eth    Hco 2749   3.220   1.621   9.953  0.2692  1.4623 -3.0804
   45Eth    Hco 2750   3.207   1.505   9.828  1.7997  3.1594 -0.7545
   45Eth     Ch 2751   3.092   1.454   9.997 -0.3535 -0.2293  0.0826
   45Eth    Hcc 2752   3.017   1.392   9.947  2.1491 -1.3493 -2.4457
   45Eth    Hcc 2753   3.039   1.503  10.078  1.9128  1.2378  0.7142
   45Eth    Hcc 2754   3.173   1.400  10.046 -0.3691 -0.0353  0.3214
   46Eth     Ho 2755   2.756   2.431   2.326  0.1052 -1.3978  0.4527
   46Eth     Oh 2756   2.664   2.416   2.329 -0.1661  0.1408  0.2271
   46Eth     Co 2757   2.609   2.501   2.222 -0.7186  0.0664 -0.3613
   46Eth    Hco 2758   2.648   2.462   2.128  1.7217  0.2400  0.5488
   46Eth    Hco 2759   2.653   2.600   2.232  2.1599 -1.2915  0.9215
   46Eth     Ch 2760   2.453   2.486   2.215  0.3341 -0.1344  0.4979
   46Eth    Hcc 2761   2.434   2.517   2.113  3.2933 -0.4703 -0.2023
   46Eth    Hcc 2762   2.394   2.551   2.280  0.2320 -0.7723  1.0494
   46Eth    Hcc 2763   2.427   2.381   2.224  3.4330 -1.0618 -0.7847
   47Eth     Ho 2764   1.235   3.232   2.400 -0.0111 -0.3630 -0.9949
   47Eth     Oh 2765   1.312   3.183   2.376  0.4898 -0.1197  0.0502
   47Eth     Co 2766   1.277   3.048   2.403 -0.7440  0.5087 -0.1176
   47Eth    Hco 2767   1.333   2.985   2.334 -2.1254 -2.6346  1.5148
   47Eth    Hco 2768   1.171   3.028   2.387 -1.4976  2.5984  2.0183
   47Eth     Ch 2769   1.322   3.018   2.544  0.1879  0.7300 -0.0520
   47Eth    Hcc 2770   1.306   2.915   2.576 -3.5205  1.7016  1.3968
   47Eth    Hcc 2771   1.267   3.073   2.620 -1.6319  1.1100 -1.6221
   47Eth    Hcc 2772   1.429   3.042   2.545  0.7823 -1.7712  1.5079
   48Eth     Ho 2773   1.801   0.592   7.227  0.5283  0.1504  1.3145
   48Eth     Oh 2774   1.716   0.613   7.262 -0.0943 -0.1805  0.0245
   48Eth     Co 2775   1.724   0.728   7.335  0.2155 -0.6328  0.7531
   48Eth    Hco 2776   1.746   0.818   7.277 -0.2638 -1.9528 -1.5002
   48Eth    Hco 2777   1.807   0.703   7.401  1.8182 -0.3427 -1.1296
   48Eth     Ch 2778   1.592   0.748   7.417  0.0465  0.2470  0.0430
   48Eth    Hcc 2779   1.554   0.653   7.453 -1.8330  0.0194 -2.3779
   48Eth    Hcc 2780   1.519   0.785   7.345 -0.8952  2.0767  1.8936
   48Eth    Hcc 2781   1.593   0.817   7.501  0.6503  1.4823 -0.9433
   49Eth     Ho 2782   0.218   2.948   5.449 -0.2657 -0.0625  0.5933
   49Eth     Oh 2783   0.188   2.878   5.505  0.0020 -0.6770 -0.0224
   49Eth     Co 2784   0.094   2.946   5.583  0.5494 -0.2373  0.3103
   49Eth    Hco 2785   0.001   2.949   5.525  1.2421 -0.1051 -0.8048
   49Eth    Hco 2786   0.122   3.049   5.607  2.0256 -0.9998  1.9097
   49Eth     Ch 2787   0.075   2.874   5.715 -0.7050 -0.4167 -0.4703
   49Eth    Hcc 2788   0.174   2.865   5.761 -0.6303 -0.7000 -0.6875
   49Eth    Hcc 2789   0.040   2.772   5.703 -0.7531 -0.1465 -2.8407
   49Eth    Hcc 2790   0.002   2.921   5.781 -1.1789 -0.9625 -0.6031
   50Eth     Ho 2791   1.550   3.264   1.733  0.6153  1.4572  0.6452
   50Eth     Oh 2792   1.597   3.294   1.657  0.6429  0.1962  0.1588
   50Eth     Co 2793   1.535   3.245   1.547  0.3058  0.5115 -0.3392
   50Eth    Hco 2794   1.450   3.309   1.525 -1.6986 -1.4417  1.4093
   50Eth    Hco 2795   1.500   3.145   1.573  1.8596  0.1008  0.2178
   50Eth     Ch 2796   1.635   3.253   1.432  0.1440  0.4064 -1.1584
   50Eth    Hcc 2797   1.686   3.349   1.435 -0.7397  0.8520  2.3899
   50Eth    Hcc 2798   1.580   3.245   1.339 -1.1316  0.3761 -0.4117
   50Eth    Hcc 2799   1.717   3.182   1.448 -0.2383  0.7086  2.7377
   51Eth     Ho 2800   2.245   2.244   1.605  3.2784 -0.2112 -1.1226
   51Eth     Oh 2801   2.259   2.336   1.616 -0.4103  0.2548  0.1322
   51Eth     Co 2802   2.264   2.388   1.483  0.1050 -1.0207 -0.4615
   51Eth    Hco 2803   2.272   2.310   1.407  0.9617 -1.6618  0.2724
   51Eth    Hco 2804   2.348   2.457   1.479 -1.1031  0.3780 -2.9705
   51Eth     Ch 2805   2.140   2.475   1.459  0.6367  0.5200  0.1906
   51Eth    Hcc 2806   2.129   2.572   1.507 -0.4098  1.1474 -1.2778
   51Eth    Hcc 2807   2.051   2.413   1.461 -0.2391  1.7449 -0.3060
   51Eth    Hcc 2808   2.142   2.512   1.357  3.1021 -1.2300 -0.4525
   52Eth     Ho 2809   1.625   2.521   5.866 -2.6995  2.1054 -1.6925
   52Eth     Oh 2810   1.546   2.492   5.908 -0.7339 -0.3431  0.3998
   52Eth     Co 2811   1.545   2.358   5.946  0.0341  0.2000 -0.0853
   52Eth    Hco 2812   1.640   2.329   5.991 -2.0343 -3.7005  1.9850
   52Eth    Hco 2813   1.554   2.295   5.858  1.8492  0.5640 -0.1856
   52Eth     Ch 2814   1.430   2.319   6.037  0.0347 -0.0929 -0.0404
   52Eth    Hcc 2815   1.422   2.211   6.039 -2.2657  0.0741  0.6921
   52Eth    Hcc 2816   1.337   2.358   5.995 -0.3377 -1.0603 -0.1177
   52Eth    Hcc 2817   1.433   2.354   6.140 -1.1303 -0.9986  0.3092
   53Eth     Ho 2818   0.767   2.820   9.722 -1.1842 -0.6876 -1.6253
   53Eth     Oh 2819   0.718   2.741   9.740 -0.0275 -0.9687  0.5255
   53Eth     Co 2820   0.718   2.729   9.878 -0.1367  0.7696 -0.3821
   53Eth    Hco 2821   0.651   2.804   9.918  0.4881  0.1744  1.8292
   53Eth    Hco 2822   0.818   2.749   9.918  0.5099 -0.2833 -1.4278
   53Eth     Ch 2823   0.665   2.588   9.920  0.1626 -0.1920  0.2215
   53Eth    Hcc 2824   0.574   2.561   9.865  1.7035 -1.4803 -1.7517
   53Eth    Hcc 2825   0.637   2.591  10.026  2.3951 -1.4553  0.8812
   53Eth    Hcc 2826   0.747   2.517   9.912  1.3391  1.3147 -1.4152
   54Eth     Ho 2827   0.973   1.785   1.658  1.9117  3.5981 -0.1818
   54Eth     Oh 2828   0.900   1.831   1.620 -0.1200  0.6679 -0.0465
   54Eth     Co 2829   0.868   1.773   1.497  0.1657  0.0136  0.1148
   54Eth    Hco 2830   0.869   1.665   1.509 -0.0302 -0.1548 -1.2610
   54Eth    Hco 2831   0.937   1.801   1.417  1.3247  0.4360  1.2619
   54Eth     Ch 2832   0.720   1.801   1.483  0.2739  0.2584 -0.6855
   54Eth    Hcc 2833   0.685   1.904   1.472 -0.1860  0.1037 -0.6836
   54Eth    Hcc 2834   0.660   1.748   1.558  2.2614 -0.8237  0.1679
   54Eth    Hcc 2835   0.684   1.746   1.395 -0.0723  1.9579 -1.6266
   55Eth     Ho 2836   2.042   2.925   2.531 -0.3007 -1.9609 -1.0555
   55Eth     Oh 2837   2.096   2.877   2.591  0.3151  0.3784  0.3133
   55Eth     Co 2838   2.019   2.762   2.622 -0.1916 -0.0279 -0.4707
   55Eth    Hco 2839   1.992   2.717   2.526 -1.3741  1.3133 -0.7707
   55Eth    Hco 2840   1.923   2.790   2.664 -1.7323 -2.8431 -1.9101
   55Eth     Ch 2841   2.098   2.655   2.702  0.2469 -0.3367  0.0477
   55Eth    Hcc 2842   2.146   2.688   2.794  2.1994 -0.8760 -0.7527
   55Eth    Hcc 2843   2.182   2.619   2.643  0.5678 -1.6348  1.2610
   55Eth    Hcc 2844   2.042   2.565   2.730  1.9350 -1.3023  0.3436
   56Eth     Ho 2845   2.636   1.557   8.503  1.1519 -1.0340 -2.2133
   56Eth     Oh 2846   2.714   1.604   8.525 -0.2992  0.2677  0.2743
   56Eth     Co 2847   2.824   1.510   8.548 -0.5308  0.1189  0.2549
   56Eth    Hco 2848   2.820   1.440   8.465 -2.9330  1.7459 -1.0603
   56Eth    Hco 2849   2.812   1.445   8.635 -0.7813 -0.6476 -0.3429
   56Eth     Ch 2850   2.947   1.595   8.547 -0.6278 -0.2563 -0.0858
   56Eth    Hcc 2851   2.956   1.652   8.639  2.6705 -1.3936  0.3441
   56Eth    Hcc 2852   2.944   1.671   8.468 -0.7342 -0.7101 -0.5166
   56Eth    Hcc 2853   3.043   1.545   8.540 -0.9162 -0.6918 -1.0513
   57Eth     Ho 2854   1.954   2.288   8.493 -0.5356  0.1658  0.1136
   57Eth     Oh 2855   1.958   2.341   8.571 -0.1295  0.2004  0.0731
   57Eth     Co 2856   1.830   2.333   8.638  0.4952  0.0663 -1.1729
   57Eth    Hco 2857   1.841   2.362   8.742  1.4861  0.6156 -1.4196
   57Eth    Hco 2858   1.780   2.237   8.644 -1.2616  1.0711  0.9466
   57Eth     Ch 2859   1.723   2.420   8.562 -0.2033  0.0316 -0.0026
   57Eth    Hcc 2860   1.628   2.397   8.609 -0.0917  1.0193  0.7244
   57Eth    Hcc 2861   1.723   2.400   8.455 -1.2658  2.4619 -0.4771
   57Eth    Hcc 2862   1.742   2.527   8.571  0.4017 -0.1541  1.0082
   58Eth     Ho 2863   0.722   1.854   5.222 -0.5615  0.4036 -1.0043
   58Eth     Oh 2864   0.632   1.846   5.250 -0.3708 -0.0385 -0.5002
   58Eth     Co 2865   0.636   1.786   5.381  0.6518  0.4381  0.3558
   58Eth    Hco 2866   0.676   1.852   5.457 -0.0567  0.5758  0.6119
   58Eth    Hco 2867   0.709   1.704   5.375  0.2387 -0.0452  1.8557
   58Eth     Ch 2868   0.494   1.740   5.424 -0.3929  0.3525  0.2444
   58Eth    Hcc 2869   0.481   1.696   5.523 -1.1153  0.8418  0.3761
   58Eth    Hcc 2870   0.469   1.664   5.350 -0.1962  1.4231 -0.9340
   58Eth    Hcc 2871   0.428   1.825   5.409  0.2701  0.6268 -1.1817
   59Eth     Ho 2872   1.638   3.286   9.881 -0.6492  0.0590 -1.7020
   59Eth     Oh 2873   1.702   3.354   9.894 -0.7227 -0.1426 -0.0848
   59Eth     Co 2874   1.823   3.332   9.823  0.8798  0.1270 -0.3310
   59Eth    Hco 2875   1.793   3.353   9.720 -0.8875  1.8528  0.5065
   59Eth    Hco 2876   1.850   3.227   9.834  0.0864 -0.1080 -0.6203
   59Eth     Ch 2877   1.929   3.426   9.858 -0.6202  0.1619 -0.3933
   59Eth    Hcc 2878   1.903   3.523   9.816  0.4558  1.2028  1.2941
   59Eth    Hcc 2879   2.030   3.404   9.823 -0.8634  1.5243 -2.0560
   59Eth    Hcc 2880   1.931   3.433   9.967 -0.6765 -1.1212 -0.3010
   60Eth     Ho 2881   1.146   0.041   9.912 -0.3297  1.2572 -0.7189
   60Eth     Oh 2882   1.074  -0.012   9.884 -0.0099  0.2632  0.3235
   60Eth     Co 2883   1.008   0.058   9.790 -0.8451 -0.4169 -0.1763
   60Eth    Hco 2884   0.978   0.150   9.840 -1.0397 -0.8628  0.5491
   60Eth    Hco 2885   0.916   0.006   9.765 -0.2849 -1.7632  0.4940
   60Eth     Ch 2886   1.091   0.093   9.664  0.2196 -0.6830 -0.3353
   60Eth    Hcc 2887   1.023   0.152   9.601 -0.2928  0.7108  1.4874
   60Eth    Hcc 2888   1.128   0.011   9.602 -0.3380 -1.2375  0.0587
   60Eth    Hcc 2889   1.172   0.161   9.690 -0.6718 -0.0695  0.8883
   61Eth     Ho 2890   0.595   3.327   7.848  3.2943  0.1294  1.4491
   61Eth     Oh 2891   0.623   3.397   7.791 -0.5530  0.2938 -0.3476
   61Eth     Co 2892   0.636   3.343   7.660 -0.1340  0.3676  0.5517
   61Eth    Hco 2893   0.565   3.261   7.656 -1.6160  1.6538  0.2569
   61Eth    Hco 2894   0.739   3.306   7.655  0.6723  2.7906 -2.3374
   61Eth     Ch 2895   0.591   3.434   7.553  0.2456 -0.2902 -0.4614
   61Eth    Hcc 2896   0.504   3.491   7.585  1.4652  2.1821 -1.3852
   61Eth    Hcc 2897   0.579   3.381   7.458 -0.5498  0.2251 -0.6627
   61Eth    Hcc 2898   0.663   3.514   7.533 -2.3768  2.3549  0.2251
   62Eth     Ho 2899   2.334   2.790   4.205 -0.0780  0.5217 -0.7991
   62Eth     Oh 2900   2.303   2.862   4.257 -0.0558 -0.0921  0.0649
   62Eth     Co 2901   2.328   2.980   4.183 -0.4400  0.0997 -0.5895
   62Eth    Hco 2902   2.265   2.955   4.098 -0.1094 -0.6427 -0.6262
   62Eth    Hco 2903   2.432   2.984   4.149 -1.3233  1.7930 -3.2466
   62Eth     Ch 2904   2.280   3.094   4.264  0.4003 -0.3009  0.2541
   62Eth    Hcc 2905   2.276   3.191   4.216 -2.7099 -0.2014  0.6348
   62Eth    Hcc 2906   2.338   3.109   4.355  3.1172 -2.3732 -1.0403
   62Eth    Hcc 2907   2.181   3.079   4.308 -0.3574  1.1224 -0.9323
   63Eth     Ho 2908   1.603   0.723   3.858  1.3474 -0.1636  0.0667
   63Eth     Oh 2909   1.624   0.807   3.894  0.2419  0.1725 -0.0531
   63Eth     Co 2910   1.509   0.896   3.890  0.2583  0.0258  0.0981
   63Eth    Hco 2911   1.429   0.872   3.959  0.1986  3.7555  1.4431
   63Eth    Hco 2912   1.457   0.888   3.794  1.6404  0.0110 -0.6594
   63Eth     Ch 2913   1.552   1.042   3.916  0.2785 -0.3578  0.1345
   63Eth    Hcc 2914   1.609   1.045   4.009 -0.6397  2.6557  0.6485
   63Eth    Hcc 2915   1.459   1.097   3.932  0.6717  0.6611 -1.0468
   63Eth    Hcc 2916   1.605   1.082   3.830 -1.4977 -1.7672 -1.6691
   64Eth     Ho 2917   1.157   0.799   1.869 -0.4505  0.1587 -0.3456
   64Eth     Oh 2918   1.234   0.846   1.844  0.2019 -0.3957  0.5498
   64Eth     Co 2919   1.312   0.874   1.956 -0.0279 -0.2424  0.4895
   64Eth    Hco 2920   1.332   0.777   2.002 -2.5759 -0.9310  0.2610
   64Eth    Hco 2921   1.263   0.935   2.031  2.6173  0.2194  1.8850
   64Eth     Ch 2922   1.443   0.935   1.925  0.1533 -0.0324  0.1493
   64Eth    Hcc 2923   1.431   1.033   1.879 -0.3061  0.4969  1.3710
   64Eth    Hcc 2924   1.511   0.875   1.865  2.3039 -0.0371  2.4736
   64Eth    Hcc 2925   1.498   0.949   2.018 -0.0478 -1.4021  0.4869
   65Eth     Ho 2926   0.147   1.262   7.396  0.5514  2.3182 -1.1775
   65Eth     Oh 2927   0.174   1.299   7.478  0.0939  0.0351  0.0583
   65Eth     Co 2928   0.074   1.394   7.523  0.3439 -0.1648 -0.2585
   65Eth    Hco 2929  -0.015   1.378   7.461 -0.7770  1.4405  0.8984
   65Eth    Hco 2930   0.093   1.500   7.507  1.4600 -0.3575 -0.2610
   65Eth     Ch 2931   0.047   1.395   7.671  0.3606 -0.0224  0.1190
   65Eth    Hcc 2932  -0.021   1.474   7.701  1.5991  1.9097 -2.0034
   65Eth    Hcc 2933   0.143   1.397   7.724  0.2102 -2.5077  0.5519
   65Eth    Hcc 2934   0.005   1.305   7.716  0.5776 -0.2333 -0.0899
   66Eth     Ho 2935   1.396   0.126   1.673 -1.8420  2.6746  0.0679
   66Eth     Oh 2936   1.460   0.183   1.633 -0.0524  0.7251  0.0968
   66Eth     Co 2937   1.426   0.201   1.494 -0.3906  0.1207 -0.2010
   66Eth    Hco 2938   1.323   0.232   1.476 -1.5329 -2.7927  1.0272
   66Eth    Hco 2939   1.426   0.102   1.447 -1.3672  0.2346 -0.4410
   66Eth     Ch 2940   1.522   0.294   1.424 -0.1646  0.1384  0.0036
   66Eth    Hcc 2941   1.625   0.258   1.429 -0.7029 -1.5176 -0.8000
   66Eth    Hcc 2942   1.521   0.385   1.484 -2.3824 -0.6777  1.2435
   66Eth    Hcc 2943   1.495   0.310   1.320 -0.1906 -0.2169 -0.0425
   67Eth     Ho 2944   2.603   1.734   1.763  0.7578 -0.1462  0.1096
   67Eth     Oh 2945   2.630   1.806   1.817 -0.4396  0.6859 -0.3854
   67Eth     Co 2946   2.763   1.768   1.819  0.4832 -0.5623  0.3909
   67Eth    Hco 2947   2.787   1.769   1.713  1.0254 -0.7196  0.5099
   67Eth    Hco 2948   2.786   1.666   1.850 -1.5066 -1.0127  0.4788
   67Eth     Ch 2949   2.854   1.872   1.877 -0.0044  0.4615  0.4404
   67Eth    Hcc 2950   2.825   1.973   1.846  0.2464  0.6221  0.7189
   67Eth    Hcc 2951   2.956   1.854   1.845 -0.8151 -1.5859 -1.0509
   67Eth    Hcc 2952   2.846   1.874   1.986 -0.7940 -0.2177  0.3964
   68Eth     Ho 2953   2.437   3.163   9.473 -0.2960  2.2369  0.4806
   68Eth     Oh 2954   2.458   3.219   9.400  0.5221  0.0930 -0.9700
   68Eth     Co 2955   2.335   3.266   9.349 -0.0163  0.7440  0.0054
   68Eth    Hco 2956   2.279   3.326   9.422  0.8112  2.3949 -0.7001
   68Eth    Hco 2957   2.259   3.195   9.314  0.8042 -0.0770 -0.1237
   68Eth     Ch 2958   2.363   3.353   9.227  0.0105 -0.5582 -0.3031
   68Eth    Hcc 2959   2.445   3.328   9.161  0.5936  1.2919 -0.3095
   68Eth    Hcc 2960   2.383   3.455   9.260  1.5531 -1.4001  1.4326
   68Eth    Hcc 2961   2.272   3.349   9.167  1.1539 -0.1804 -2.0719
   69Eth     Ho 2962   3.208   2.500   1.460 -0.2254  1.2616  0.2101
   69Eth     Oh 2963   3.117   2.515   1.441 -0.3481  0.0694 -0.1538
   69Eth     Co 2964   3.082   2.651   1.487  0.5526 -0.0488  0.1685
   69Eth    Hco 2965   3.119   2.661   1.589 -2.0095 -0.5165  1.2000
   69Eth    Hco 2966   2.980   2.687   1.474 -0.5530 -2.6859  1.1839
   69Eth     Ch 2967   3.160   2.747   1.400 -0.0402  0.8549 -0.5577
   69Eth    Hcc 2968   3.148   2.846   1.444  0.1136  1.0178 -0.8818
   69Eth    Hcc 2969   3.125   2.734   1.297 -0.7399 -2.2987  0.0278
   69Eth    Hcc 2970   3.269   2.738   1.405 -0.1072  0.4215  0.1805
   70Eth     Ho 2971   2.129   1.506   4.789  2.4927  1.6493 -0.6625
   70Eth     Oh 2972   2.179   1.479   4.864 -0.2009 -0.9008  0.3247
   70Eth     Co 2973   2.298   1.554   4.873 -0.0303  0.2009  0.6766
   70Eth    Hco 2974   2.262   1.656   4.868  2.4460  1.1795  1.9913
   70Eth    Hco 2975   2.365   1.528   4.791  2.0863  0.2428  2.3529
   70Eth     Ch 2976   2.373   1.534   5.006 -0.0740 -0.0820 -0.0695
   70Eth    Hcc 2977   2.449   1.612   5.017  0.3827 -0.3681 -1.1985
   70Eth    Hcc 2978   2.425   1.440   5.021 -2.2794 -1.1100  1.4241
   70Eth    Hcc 2979   2.302   1.535   5.089  2.8666  1.2327  2.5134
   71Eth     Ho 2980   1.647   1.607   7.037 -2.6961 -0.0150  0.9432
   71Eth     Oh 2981   1.675   1.623   7.125 -0.4983  0.0855  0.2630
   71Eth     Co 2982   1.792   1.553   7.127  0.1365 -0.2301 -0.2567
   71Eth    Hco 2983   1.863   1.559   7.044 -0.0702  0.6291 -0.3768
   71Eth    Hco 2984   1.763   1.448   7.128  1.6978 -0.6982 -0.9401
   71Eth     Ch 2985   1.861   1.597   7.256  0.6324 -0.4084  0.2102
   71Eth    Hcc 2986   1.795   1.632   7.335  0.0640  0.3715 -0.5962
   71Eth    Hcc 2987   1.912   1.688   7.225  0.0790 -0.5467 -1.1247
   71Eth    Hcc 2988   1.935   1.524   7.290 -1.1514 -1.5171  1.8052
   72Eth     Ho 2989   3.087   3.444   3.756  0.4378 -0.5242 -1.0228
   72Eth     Oh 2990   3.161   3.431   3.813 -0.0277  0.3771 -0.1939
   72Eth     Co 2991   3.260   3.488   3.727  0.0609 -0.6238  0.1227
   72Eth    Hco 2992   3.206   3.553   3.659 -0.3134 -1.6547 -0.5747
   72Eth    Hco 2993   3.292   3.395   3.680 -1.3619 -1.0142 -0.0923
   72Eth     Ch 2994   3.373   3.543   3.820  0.2927 -0.5214 -1.0595
   72Eth    Hcc 2995   3.339   3.624   3.883  0.5483 -0.6385 -0.7700
   72Eth    Hcc 2996   3.456   3.584   3.763 -0.4380  3.2981  0.4979
   72Eth    Hcc 2997   3.413   3.457   3.874  1.2028 -0.1314 -1.0958
   73Eth     Ho 2998   0.174   2.129   1.650 -0.5534 -1.5491 -1.0753
   73Eth     Oh 2999   0.267   2.115   1.662 -0.3876  0.2393 -0.0672
   73Eth     Co 3000   0.282   1.984   1.612 -0.4040  0.3372 -0.5866
   73Eth    Hco 3001   0.220   1.979   1.522 -0.5109  0.7085 -0.5301
   73Eth    Hco 3002   0.236   1.917   1.685 -2.7999  0.3902 -2.0018
   73Eth     Ch 3003   0.425   1.950   1.571  0.0087 -0.3960  0.1562
   73Eth    Hcc 3004   0.443   1.989   1.471 -0.2537  0.2693  0.3581
   73Eth    Hcc 3005   0.425   1.842   1.562 -1.3198 -0.6294  2.3531
   73Eth    Hcc 3006   0.502   1.978   1.644  0.0638 -0.1959  0.0204
   74Eth     Ho 3007   2.304   2.679   7.851 -0.9910 -1.8763  1.8136
   74Eth     Oh 3008   2.259   2.630   7.784 -0.2758 -0.6304  0.3643
   74Eth     Co 3009   2.231   2.502   7.838 -0.3413 -0.1660  1.1357
   74Eth    Hco 3010   2.322   2.471   7.889  0.0092  0.9910  1.2343
   74Eth    Hco 3011   2.208   2.433   7.758 -1.8525  0.1377  1.2988
   74Eth     Ch 3012   2.105   2.507   7.925 -0.2680 -0.1492  0.1221
   74Eth    Hcc 3013   2.032   2.568   7.873 -1.6951  0.6246  2.9104
   74Eth    Hcc 3014   2.120   2.560   8.019  1.6117  2.1881 -1.4217
   74Eth    Hcc 3015   2.063   2.407   7.937  1.3359 -0.8230  0.3777
   75Eth     Ho 3016   3.153   1.218   6.072  0.7050 -0.7892  0.4671
   75Eth     Oh 3017   3.119   1.180   6.151 -0.1163 -0.0087  0.4904
   75Eth     Co 3018   3.222   1.083   6.191  0.0129 -0.2149 -0.4278
   75Eth    Hco 3019   3.320   1.121   6.217 -0.2020  0.1610 -0.1677
   75Eth    Hco 3020   3.253   1.034   6.098  1.3064 -0.8598  0.3284
   75Eth     Ch 3021   3.176   0.978   6.294 -0.0753  0.7435  0.3878
   75Eth    Hcc 3022   3.083   0.927   6.270  0.3651 -0.6454  1.5448
   75Eth    Hcc 3023   3.167   1.031   6.389  2.0751  0.0614  1.0038
   75Eth    Hcc 3024   3.256   0.904   6.296 -0.2571  0.5395  0.0286
   76Eth     Ho 3025   0.943   0.152   1.857 -3.1796 -0.3370 -1.2213
   76Eth     Oh 3026   0.984   0.191   1.782  0.4177 -0.1162  0.7261
   76Eth     Co 3027   0.875   0.216   1.699 -0.1506  0.0169  0.1185
   76Eth    Hco 3028   0.841   0.320   1.700  0.5775  0.2576 -0.2790
   76Eth    Hco 3029   0.795   0.152   1.737  0.4725 -2.5385 -2.7063
   76Eth     Ch 3030   0.923   0.186   1.556 -0.6541  0.1121 -1.0458
   76Eth    Hcc 3031   0.956   0.082   1.556 -0.9631  0.0043 -0.1048
   76Eth    Hcc 3032   1.004   0.248   1.519  0.5121 -0.6663  0.1281
   76Eth    Hcc 3033   0.839   0.212   1.492 -0.1986  1.3396 -1.1598
   77Eth     Ho 3034   1.896   2.244   5.297  0.7742  0.6231  1.1111
   77Eth     Oh 3035   1.823   2.196   5.331  1.1735 -0.3618  0.5941
   77Eth     Co 3036   1.834   2.058   5.287 -0.0271  0.2033 -0.3972
   77Eth    Hco 3037   1.912   2.008   5.345 -1.3157 -1.6514 -0.2326
   77Eth    Hco 3038   1.857   2.056   5.181  0.1580 -2.2098 -0.3400
   77Eth     Ch 3039   1.703   1.988   5.300 -0.0742  0.4262  0.1202
   77Eth    Hcc 3040   1.623   2.020   5.232 -2.4166 -1.0464  2.0884
   77Eth    Hcc 3041   1.664   1.989   5.402 -1.7429 -2.2439 -0.4378
   77Eth    Hcc 3042   1.731   1.887   5.270 -1.7769 -0.2959  0.8662
   78Eth     Ho 3043   2.649   2.962   2.544 -1.6601  2.5077 -1.9946
   78Eth     Oh 3044   2.619   2.891   2.491  0.5802  0.0730 -0.1728
   78Eth     Co 3045   2.487   2.932   2.455  0.0110  0.2072  0.3620
   78Eth    Hco 3046   2.494   3.026   2.401 -0.2121  0.9074  1.5397
   78Eth    Hco 3047   2.436   2.953   2.550 -0.7043 -2.2822  0.5880
   78Eth     Ch 3048   2.401   2.830   2.377  0.0923  0.5086  0.3826
   78Eth    Hcc 3049   2.357   2.759   2.446 -0.4415 -0.9703 -1.4357
   78Eth    Hcc 3050   2.471   2.774   2.315  0.3235  1.9967 -0.7356
   78Eth    Hcc 3051   2.331   2.891   2.320  1.1659  0.3932 -1.1019
   79Eth     Ho 3052   2.578   0.916   8.947 -0.6610  1.7577 -1.1660
   79Eth     Oh 3053   2.652   0.946   8.997 -0.7776  0.0631  0.0629
   79Eth     Co 3054   2.750   0.856   8.960  0.8694  0.3104  0.3857
   79Eth    Hco 3055   2.763   0.849   8.852 -0.6870 -0.6004  0.2470
   79Eth    Hco 3056   2.717   0.757   8.994  2.5601  0.3024  2.0968
   79Eth     Ch 3057   2.880   0.882   9.034  0.5449 -0.3833 -0.0427
   79Eth    Hcc 3058   2.884   0.847   9.137  0.6478 -2.0063 -0.5977
   79Eth    Hcc 3059   2.907   0.988   9.040  1.0793 -0.5634  0.7147
   79Eth    Hcc 3060   2.961   0.836   8.977  0.4268  1.3064 -1.6428
   80Eth     Ho 3061   0.660   2.185   9.582  1.7909  0.7169  1.2619
   80Eth     Oh 3062   0.645   2.139   9.662 -0.1514 -0.4279  0.2576
   80Eth     Co 3063   0.671   2.227   9.773 -0.3091  0.0230 -0.2537
   80Eth    Hco 3064   0.592   2.303   9.776 -0.0648  0.2296  1.9682
   80Eth    Hco 3065   0.771   2.269   9.761  0.5297 -1.0321  2.6377
   80Eth     Ch 3066   0.673   2.144   9.904 -0.4411  0.5266  0.7068
   80Eth    Hcc 3067   0.685   2.210   9.990 -0.2037  1.6999 -0.1997
   80Eth    Hcc 3068   0.733   2.055   9.922  1.1312  0.9729 -2.1198
   80Eth    Hcc 3069   0.573   2.104   9.923  0.0525 -1.0876 -0.0973
   81Eth     Ho 3070   3.319   2.856   6.914 -1.3573 -0.5521 -0.4413
   81Eth     Oh 3071   3.355   2.783   6.866  0.5022 -0.0957  0.2150
   81Eth     Co 3072   3.359   2.810   6.731 -0.8342 -0.3582 -0.2129
   81Eth    Hco 3073   3.426   2.891   6.700  0.8415 -0.7315  2.2574
   81Eth    Hco 3074   3.261   2.833   6.690 -1.3674 -1.0518  0.6724
   81Eth     Ch 3075   3.422   2.694   6.666 -0.0010  0.7900  0.6024
   81Eth    Hcc 3076   3.356   2.610   6.686  0.1440  0.5275 -0.0119
   81Eth    Hcc 3077   3.522   2.666   6.697 -0.1783  1.4643  1.8197
   81Eth    Hcc 3078   3.428   2.708   6.558 -1.2426 -1.4947  0.2005
   82Eth     Ho 3079   2.060   0.836   4.765  0.1668  0.1017 -0.0176
   82Eth     Oh 3080   2.147   0.818   4.735  0.1310  0.4216 -0.3158
   82Eth     Co 3081   2.241   0.837   4.836 -0.3798 -0.6234 -0.5798
   82Eth    Hco 3082   2.227   0.770   4.922 -2.1185  1.1691  0.5835
   82Eth    Hco 3083   2.246   0.936   4.880  0.3491  0.5501 -3.2398
   82Eth     Ch 3084   2.373   0.809   4.770 -0.0990  0.1320 -0.6001
   82Eth    Hcc 3085   2.378   0.873   4.682 -2.1496  2.7252  1.1201
   82Eth    Hcc 3086   2.365   0.706   4.735  1.2288 -0.0567 -0.3972
   82Eth    Hcc 3087   2.457   0.831   4.835  1.3370 -1.5910 -1.7917
   83Eth     Ho 3088   0.068   1.328   8.014 -0.5586 -0.6542  0.0753
   83Eth     Oh 3089   0.001   1.382   8.052  0.2314  0.2994  0.1575
   83Eth     Co 3090   0.056   1.511   8.068 -0.3185  0.0405 -0.5294
   83Eth    Hco 3091   0.123   1.535   7.985 -0.5782  1.1826 -0.4223
   83Eth    Hco 3092   0.119   1.528   8.155 -0.3762  0.0459 -0.4888
   83Eth     Ch 3093  -0.057   1.616   8.069 -0.0065  0.6940 -0.1191
   83Eth    Hcc 3094  -0.110   1.633   7.975  1.5798  1.0451 -0.9822
   83Eth    Hcc 3095  -0.021   1.717   8.087 -0.6514  0.8776  0.1460
   83Eth    Hcc 3096  -0.136   1.598   8.141  1.2435 -1.3225  0.7687
   84Eth     Ho 3097   2.373   1.268   6.168 -0.4624 -1.1706  0.6084
   84Eth     Oh 3098   2.300   1.304   6.216  0.3152 -0.1462  1.0394
   84Eth     Co 3099   2.214   1.199   6.257  0.5434  0.9649 -0.3110
   84Eth    Hco 3100   2.195   1.118   6.186  0.0096  0.8117 -0.0002
   84Eth    Hco 3101   2.115   1.243   6.272  0.1651  0.6480 -1.7783
   84Eth     Ch 3102   2.270   1.136   6.384 -0.3909 -0.1902  0.3702
   84Eth    Hcc 3103   2.298   1.214   6.454 -2.3626  0.3127  0.6330
   84Eth    Hcc 3104   2.352   1.072   6.351 -1.6922 -1.0711 -1.2442
   84Eth    Hcc 3105   2.195   1.076   6.436 -2.0584 -0.3625 -2.1776
   85Eth     Ho 3106   0.476   0.755   1.781  0.4127  0.8648  0.6223
   85Eth     Oh 3107   0.520   0.779   1.701 -0.0492  0.2280  0.1724
   85Eth     Co 3108   0.479   0.679   1.607 -0.4726 -0.2867 -0.5731
   85Eth    Hco 3109   0.395   0.718   1.551  0.0125  0.1337 -1.0118
   85Eth    Hco 3110   0.438   0.590   1.656  0.5106 -0.6130 -0.3288
   85Eth     Ch 3111   0.598   0.620   1.518  0.0655 -0.3722 -0.3927
   85Eth    Hcc 3112   0.648   0.695   1.456  1.3613  0.0642  1.1494
   85Eth    Hcc 3113   0.563   0.551   1.441 -0.5424  0.6151 -1.0148
   85Eth    Hcc 3114   0.685   0.589   1.575  0.8959 -0.5017 -1.6923
   86Eth     Ho 3115   0.968   2.541   8.356 -0.2561 -1.3979  1.2658
   86Eth     Oh 3116   0.995   2.475   8.295  0.2026  0.3029 -0.4116
   86Eth     Co 3117   1.113   2.524   8.238 -0.0105 -0.0664 -0.3300
   86Eth    Hco 3118   1.191   2.514   8.314  1.1191  0.1138 -1.4504
   86Eth    Hco 3119   1.101   2.632   8.238  1.2773  0.0905 -0.1759
   86Eth     Ch 3120   1.149   2.455   8.102 -0.3319  0.0985 -0.1533
   86Eth    Hcc 3121   1.082   2.486   8.023  0.3276 -1.0225 -1.1745
   86Eth    Hcc 3122   1.152   2.348   8.124  1.7887  0.1637 -0.0016
   86Eth    Hcc 3123   1.252   2.468   8.070 -0.6906  0.2321 -1.2783
   87Eth     Ho 3124   1.426   1.892   9.513  1.1566 -0.5532 -0.4280
   87Eth     Oh 3125   1.491   1.949   9.550 -0.3152  0.8448  0.0614
   87Eth     Co 3126   1.612   1.888   9.538  1.3707  0.0746 -0.2890
   87Eth    Hco 3127   1.642   1.884   9.433  1.9575  0.2473 -0.1300
   87Eth    Hco 3128   1.577   1.791   9.573 -0.3696  1.7055  2.6893
   87Eth     Ch 3129   1.710   1.953   9.629  0.1835  0.1080 -0.1459
   87Eth    Hcc 3130   1.738   2.051   9.589 -0.1888  0.0289 -0.6082
   87Eth    Hcc 3131   1.799   1.892   9.638  1.1045  1.5691  0.8842
   87Eth    Hcc 3132   1.681   1.977   9.731 -1.5189  1.4423 -0.9123
   88Eth     Ho 3133   2.948   1.659   3.421  1.4022 -3.6544  0.9305
   88Eth     Oh 3134   3.026   1.696   3.459  0.1138  0.1216  0.1135
   88Eth     Co 3135   3.013   1.832   3.492  0.8867 -0.1425 -0.0072
   88Eth    Hco 3136   2.921   1.844   3.550  1.3152 -0.5335  0.7570
   88Eth    Hco 3137   3.007   1.893   3.402 -1.1953  1.7416  1.3408
   88Eth     Ch 3138   3.123   1.890   3.592 -0.1041  0.0289  0.4240
   88Eth    Hcc 3139   3.219   1.884   3.540 -1.0471  0.2144 -1.3994
   88Eth    Hcc 3140   3.130   1.833   3.684 -1.1582  1.6640  1.5379
   88Eth    Hcc 3141   3.101   1.996   3.606 -3.3361 -0.8176  2.2344
   89Eth     Ho 3142   3.161   3.084   7.928 -0.6281 -1.5839 -2.4983
   89Eth     Oh 3143   3.069   3.098   7.923 -0.5792 -0.7372 -1.0318
   89Eth     Co 3144   3.046   3.227   7.870 -0.1377  0.6772  0.5478
   89Eth    Hco 3145   3.103   3.248   7.779 -2.6165  0.5101 -1.0718
   89Eth    Hco 3146   3.067   3.295   7.953  1.2429 -0.5610  1.2337
   89Eth     Ch 3147   2.900   3.242   7.840  0.3120 -0.2249  0.1383
   89Eth    Hcc 3148   2.841   3.244   7.932 -1.0724 -0.0311 -0.7366
   89Eth    Hcc 3149   2.870   3.158   7.778 -1.3226  0.3706  0.1034
   89Eth    Hcc 3150   2.881   3.338   7.793  1.7014 -0.1549 -0.3055
   90Eth     Ho 3151   0.092   3.009   8.928 -0.2535 -0.7228  2.0981
   90Eth     Oh 3152   0.172   2.960   8.933  0.2578 -0.1654 -0.2498
   90Eth     Co 3153   0.236   2.987   9.059 -0.0488 -0.2711 -0.0260
   90Eth    Hco 3154   0.179   2.937   9.137 -0.8794 -0.2622 -0.6218
   90Eth    Hco 3155   0.226   3.096   9.069 -0.5210 -0.2623 -0.5706
   90Eth     Ch 3156   0.385   2.958   9.065  0.1223 -0.1383 -0.4653
   90Eth    Hcc 3157   0.409   3.009   9.159 -1.2838  1.6402 -1.0485
   90Eth    Hcc 3158   0.441   3.008   8.987  0.2973  1.2894  0.5528
   90Eth    Hcc 3159   0.396   2.850   9.077 -0.2803 -0.2753 -1.3262
   91Eth     Ho 3160   1.164   2.610   1.328 -0.1486  0.5958  1.5536
   91Eth     Oh 3161   1.196   2.532   1.370 -0.1540 -0.6216 -0.6105
   91Eth     Co 3162   1.337   2.524   1.347  0.7396  0.2212  0.1620
   91Eth    Hco 3163   1.392   2.609   1.387  3.0976 -0.3793 -1.6846
   91Eth    Hco 3164   1.334   2.516   1.238 -1.2813 -3.1986  0.3961
   91Eth     Ch 3165   1.402   2.399   1.412  0.3039  0.0605 -0.3016
   91Eth    Hcc 3166   1.511   2.403   1.416  0.2871 -0.1288  0.3723
   91Eth    Hcc 3167   1.369   2.301   1.377  0.5987  0.2290 -1.0635
   91Eth    Hcc 3168   1.366   2.405   1.515 -2.5784 -2.6398 -1.0719
   92Eth     Ho 3169   1.076   2.248   1.740 -1.9280  0.8494  0.1816
   92Eth     Oh 3170   1.071   2.296   1.660 -0.4647  0.3835 -0.2054
   92Eth     Co 3171   1.065   2.202   1.556  0.0683  0.5010 -0.8404
   92Eth    Hco 3172   1.069   2.252   1.460 -2.2535  0.3223 -1.0544
   92Eth    Hco 3173   0.965   2.160   1.562  0.4298 -0.0314  2.2627
   92Eth     Ch 3174   1.177   2.096   1.562 -0.1667  0.6570  0.0846
   92Eth    Hcc 3175   1.193   2.041   1.469 -0.6947 -4.5959  2.9245
   92Eth    Hcc 3176   1.160   2.025   1.643  2.5171 -0.1549 -0.0103
   92Eth    Hcc 3177   1.274   2.140   1.587 -0.5091  1.8344 -0.6309
   93Eth     Ho 3178   3.158   0.081   6.049  0.0722  0.1348  0.9675
   93Eth     Oh 3179   3.241   0.111   6.017 -0.1493 -0.0866  0.1867
   93Eth     Co 3180   3.310   0.163   6.131  0.5340  0.4817  0.5314
   93Eth    Hco 3181   3.363   0.092   6.196  1.4529  1.5124  0.9290
   93Eth    Hco 3182   3.243   0.206   6.206 -0.0428  1.8580 -0.7454
   93Eth     Ch 3183   3.420   0.256   6.080 -0.2754 -0.5022  0.5307
   93Eth    Hcc 3184   3.451   0.315   6.167  1.1035  0.2835 -0.4706
   93Eth    Hcc 3185   3.388   0.328   6.005 -2.9574 -0.0752  1.9987
   93Eth    Hcc 3186   3.503   0.202   6.036 -0.4428  0.0016 -0.4183
   94Eth     Ho 3187   2.233   3.420   9.687 -2.4658 -1.4876 -0.9211
   94Eth     Oh 3188   2.259   3.338   9.724 -0.0768 -0.3255  0.0382
   94Eth     Co 3189   2.341   3.369   9.832  0.0896 -0.0206  0.3034
   94Eth    Hco 3190   2.284   3.419   9.910 -0.1804 -1.6676  1.2001
   94Eth    Hco 3191   2.421   3.438   9.807 -1.1390  1.4702  0.3910
   94Eth     Ch 3192   2.398   3.240   9.886  0.5944 -0.3346  0.2765
   94Eth    Hcc 3193   2.468   3.201   9.812  0.2556 -1.2050  0.3993
   94Eth    Hcc 3194   2.329   3.156   9.900 -1.0725  0.5120 -2.3709
   94Eth    Hcc 3195   2.468   3.257   9.968  0.5391 -0.7409  0.4090
   95Eth     Ho 3196   1.002   2.299   6.133  0.3947 -0.0762  0.0896
   95Eth     Oh 3197   1.012   2.261   6.048  0.2383  0.0467  0.0158
   95Eth     Co 3198   0.908   2.317   5.978 -0.1223 -0.4625 -0.7187
   95Eth    Hco 3199   0.926   2.420   5.946 -0.8641  0.7262  2.5403
   95Eth    Hco 3200   0.819   2.326   6.040  0.6114 -0.2495  0.3087
   95Eth     Ch 3201   0.874   2.240   5.849 -0.0592 -0.3668 -0.2590
   95Eth    Hcc 3202   0.959   2.258   5.783 -1.3640  0.1335 -1.8233
   95Eth    Hcc 3203   0.794   2.286   5.791 -0.4694 -0.3262  0.3335
   95Eth    Hcc 3204   0.860   2.132   5.858  1.7620 -0.8517 -2.7905
   96Eth     Ho 3205   1.246   1.425   1.511  0.7429  0.0731 -0.8594
   96Eth     Oh 3206   1.241   1.519   1.514 -0.3965  0.0090 -0.2285
   96Eth     Co 3207   1.342   1.560   1.429 -0.6663  0.0143 -0.0132
   96Eth    Hco 3208   1.306   1.563   1.327 -1.2057  0.8813  0.1960
   96Eth    Hco 3209   1.429   1.495   1.428 -1.6320 -1.2736 -1.0974
   96Eth     Ch 3210   1.388   1.708   1.448  0.4199 -0.2852 -0.4473
   96Eth    Hcc 3211   1.311   1.776   1.484  0.0362 -1.1477  0.3694
   96Eth    Hcc 3212   1.443   1.747   1.362 -0.3636 -0.3196 -0.9672
   96Eth    Hcc 3213   1.454   1.712   1.535 -1.1422 -0.3160  0.7689
   97Eth     Ho 3214   3.088   1.139   9.404 -0.8746 -0.3460  0.0904
   97Eth     Oh 3215   3.102   1.102   9.489  0.1904 -0.3396 -0.0747
   97Eth     Co 3216   3.156   1.211   9.566  0.2978  0.2298  0.6867
   97Eth    Hco 3217   3.116   1.302   9.521 -0.1292  0.4787  1.5545
   97Eth    Hco 3218   3.264   1.197   9.558  0.2191  0.0212 -0.0339
   97Eth     Ch 3219   3.124   1.202   9.714  0.2113 -0.1156 -0.2505
   97Eth    Hcc 3220   3.171   1.280   9.774 -0.5757  0.6496 -0.6126
   97Eth    Hcc 3221   3.160   1.106   9.749  0.9212  0.6143  1.0860
   97Eth    Hcc 3222   3.016   1.206   9.725  0.0301  1.3583 -2.1646
   98Eth     Ho 3223   3.165   3.029   1.642 -2.7503  1.2407 -0.8481
   98Eth     Oh 3224   3.227   3.082   1.594 -0.2431 -0.3833  0.4538
   98Eth     Co 3225   3.163   3.212   1.564  0.0420  0.0039  0.5157
   98Eth    Hco 3226   3.092   3.240   1.642 -2.6938 -1.0410 -1.5168
   98Eth    Hco 3227   3.107   3.202   1.471 -0.8709  2.2450  0.7954
   98Eth     Ch 3228   3.272   3.323   1.570  0.3500  0.4366 -0.2910
   98Eth    Hcc 3229   3.349   3.313   1.494  1.3564  0.6391  0.6829
   98Eth    Hcc 3230   3.315   3.341   1.669  2.3055  0.2265 -1.0676
   98Eth    Hcc 3231   3.226   3.416   1.536 -0.5636  0.0215 -0.1830
   99Eth     Ho 3232   1.351   1.806   2.873  0.6964  1.7885  2.0577
   99Eth     Oh 3233   1.340   1.725   2.921  0.1790  0.6586  0.0687
   99Eth     Co 3234   1.376   1.615   2.836 -0.1853 -0.4484  0.0437
   99Eth    Hco 3235   1.479   1.633   2.806 -0.3528 -2.8352 -2.2165
   99Eth    Hco 3236   1.304   1.618   2.754 -0.1991 -2.4607 -0.0401
   99Eth     Ch 3237   1.364   1.482   2.906 -0.0370 -0.5391 -0.4039
   99Eth    Hcc 3238   1.426   1.462   2.993  0.9173 -1.5609 -1.2863
   99Eth    Hcc 3239   1.399   1.404   2.838  3.2355  0.3874  0.1244
   99Eth    Hcc 3240   1.260   1.464   2.935 -0.9863  1.3319 -2.4510
  100Eth     Ho 3241   1.426   2.770   9.822 -0.3892 -3.1468  0.4565
  100Eth     Oh 3242   1.333   2.772   9.835 -0.5080 -0.5772 -0.4976
  100Eth     Co 3243   1.298   2.632   9.837  0.0962  0.0113 -0.4746
  100Eth    Hco 3244   1.320   2.586   9.933  0.7092  0.6474 -0.3094
  100Eth    Hco 3245   1.361   2.583   9.763  1.0504 -0.4221  0.6084
  100Eth     Ch 3246   1.147   2.625   9.799  0.1985  0.5373 -0.4683
  100Eth    Hcc 3247   1.089   2.678   9.875  0.0682  0.5628 -0.5852
  100Eth    Hcc 3248   1.106   2.525   9.795  3.2854 -0.8898  1.6863
  100Eth    Hcc 3249   1.127   2.669   9.701  1.5337 -0.3811 -1.1763
  101Eth     Ho 3250   3.003   2.133   1.494  2.0489  1.1538  0.2827
  101Eth     Oh 3251   3.058   2.071   1.540  0.5544 -0.4590 -0.0536
  101Eth     Co 3252   3.065   1.948   1.459 -0.1405 -0.4803  0.3717
  101Eth    Hco 3253   3.077   1.980   1.356  0.9288 -0.9414  0.3429
  101Eth    Hco 3254   2.987   1.877   1.485 -1.6801  0.8534 -0.5498
  101Eth     Ch 3255   3.187   1.865   1.488  0.1866  0.1931  0.1849
  101Eth    Hcc 3256   3.222   1.801   1.407  0.5625  1.9917 -1.0916
  101Eth    Hcc 3257   3.182   1.804   1.578  3.2897 -2.5782 -1.3952
  101Eth    Hcc 3258   3.266   1.938   1.504 -0.8776  1.3429  0.2450
  102Eth     Ho 3259   2.128   1.031   9.608 -1.0637 -2.6462 -0.0693
  102Eth     Oh 3260   2.191   1.000   9.670 -0.3996  0.2766  0.8060
  102Eth     Co 3261   2.292   1.093   9.691  0.1672 -0.0763 -0.4438
  102Eth    Hco 3262   2.246   1.188   9.720 -0.6958 -0.8041  0.5880
  102Eth    Hco 3263   2.341   1.102   9.594 -2.4610  1.7894 -1.6472
  102Eth     Ch 3264   2.391   1.048   9.803  0.5921 -0.2920 -0.1118
  102Eth    Hcc 3265   2.474   1.115   9.824 -0.5081  0.9461  0.4147
  102Eth    Hcc 3266   2.438   0.951   9.786  3.6919  0.7670  2.0607
  102Eth    Hcc 3267   2.327   1.036   9.891 -0.8585  2.9762 -0.6332
  103Eth     Ho 3268   0.976   1.193   3.056 -0.0325  0.9956 -1.5190
  103Eth     Oh 3269   0.959   1.278   3.092 -0.0371  0.0967  0.6570
  103Eth     Co 3270   0.953   1.365   2.979  1.0798  0.7472 -0.2940
  103Eth    Hco 3271   0.864   1.332   2.926  1.6624 -3.1958  1.0379
  103Eth    Hco 3272   1.033   1.347   2.906 -0.6433  0.1582 -2.0938
  103Eth     Ch 3273   0.954   1.513   3.014 -0.6998 -0.3709  0.6775
  103Eth    Hcc 3274   0.888   1.537   3.097 -1.5058  0.3855 -0.1634
  103Eth    Hcc 3275   0.924   1.570   2.925 -2.9815  0.9999  2.2730
  103Eth    Hcc 3276   1.053   1.548   3.045 -0.6066 -2.3069  2.6397
  104Eth     Ho 3277   2.179   3.228   1.697  1.7468  1.2131  0.3730
  104Eth     Oh 3278   2.196   3.190   1.613  0.1838 -0.2655  0.6925
  104Eth     Co 3279   2.301   3.266   1.559  0.2220 -0.0213 -0.0282
  104Eth    Hco 3280   2.381   3.194   1.575 -1.0700 -0.9929  2.3344
  104Eth    Hco 3281   2.318   3.343   1.634  0.7802 -1.3295  1.2183
  104Eth     Ch 3282   2.264   3.316   1.417  0.4127  0.3653  0.0698
  104Eth    Hcc 3283   2.266   3.227   1.354 -1.0376  0.2625  0.1496
  104Eth    Hcc 3284   2.343   3.375   1.370  2.4365 -3.3099 -1.3835
  104Eth    Hcc 3285   2.166   3.362   1.403 -0.8013 -2.4300 -1.0054
  105Eth     Ho 3286   2.081   0.115   9.291  1.3292 -2.4105  0.0722
  105Eth     Oh 3287   2.138   0.181   9.327 -0.5381 -0.1530 -1.0126
  105Eth     Co 3288   2.196   0.252   9.218  0.5387  0.0468  0.4421
  105Eth    Hco 3289   2.132   0.315   9.158  1.0941  0.6135  0.4373
  105Eth    Hco 3290   2.244   0.190   9.142 -0.9223  1.3100 -1.5498
  105Eth     Ch 3291   2.297   0.330   9.297  0.7722  0.0185 -0.6483
  105Eth    Hcc 3292   2.369   0.270   9.353  1.5270  0.4499 -1.1442
  105Eth    Hcc 3293   2.247   0.401   9.363 -0.3078 -1.1926 -0.1402
  105Eth    Hcc 3294   2.357   0.395   9.233 -0.8715  0.5628 -1.6718
  106Eth     Ho 3295   0.512   3.184   7.081 -1.4286  1.7206 -1.1415
  106Eth     Oh 3296   0.498   3.133   7.004 -0.1200 -0.0113 -0.2787
  106Eth     Co 3297   0.366   3.084   7.023 -0.1982 -0.4294  0.3389
  106Eth    Hco 3298   0.286   3.152   7.052  0.2334  1.0580 -1.8465
  106Eth    Hco 3299   0.362   3.007   7.100  1.1344 -0.2399  0.6012
  106Eth     Ch 3300   0.326   3.039   6.883  0.1121  0.2720  0.1371
  106Eth    Hcc 3301   0.350   3.110   6.803  1.4850  0.4010  0.6499
  106Eth    Hcc 3302   0.218   3.027   6.874  0.1078 -0.3012  0.9519
  106Eth    Hcc 3303   0.372   2.943   6.860  0.8699  0.5434  0.4824
  107Eth     Ho 3304   2.468   1.887   4.315  2.6553 -3.2318 -0.1891
  107Eth     Oh 3305   2.467   1.891   4.408  0.3587  0.1988 -0.2575
  107Eth     Co 3306   2.336   1.850   4.449 -0.6287 -0.4329  0.6747
  107Eth    Hco 3307   2.303   1.764   4.390  0.8167 -0.4701 -0.0929
  107Eth    Hco 3308   2.272   1.934   4.419  0.0457  1.0138  3.2134
  107Eth     Ch 3309   2.326   1.831   4.604 -0.0171 -0.1760 -0.1229
  107Eth    Hcc 3310   2.344   1.925   4.657  1.9979  0.4513 -1.8693
  107Eth    Hcc 3311   2.402   1.763   4.643  0.7859  0.0259 -1.3421
  107Eth    Hcc 3312   2.232   1.786   4.636  1.8517 -3.5753  0.8678
  108Eth     Ho 3313   0.446   2.108   6.605  2.6013 -0.9701 -3.7834
  108Eth     Oh 3314   0.433   2.196   6.576  0.0108  0.1354  0.2964
  108Eth     Co 3315   0.320   2.195   6.497 -0.5072 -0.1248  0.6181
  108Eth    Hco 3316   0.235   2.158   6.553 -0.2614  0.7190  1.5631
  108Eth    Hco 3317   0.344   2.133   6.411  2.2960  1.1007  0.4739
  108Eth     Ch 3318   0.313   2.345   6.446  0.0343 -0.6033 -0.7029
  108Eth    Hcc 3319   0.244   2.366   6.364  1.2533  2.0905 -1.1218
  108Eth    Hcc 3320   0.413   2.369   6.409 -0.0300 -0.8911 -1.0617
  108Eth    Hcc 3321   0.286   2.410   6.529  3.3710 -1.9043  1.5109
  109Eth     Ho 3322   3.116   3.229   1.996 -0.4411 -0.4314  0.6394
  109Eth     Oh 3323   3.060   3.304   2.003  0.6196  0.4741 -0.2661
  109Eth     Co 3324   2.944   3.291   1.927  0.7922 -0.0641  0.0597
  109Eth    Hco 3325   2.886   3.214   1.979 -0.5853  0.3446 -0.8428
  109Eth    Hco 3326   2.975   3.253   1.830 -0.5319  2.7185 -1.5142
  109Eth     Ch 3327   2.870   3.430   1.919 -0.3044  0.2669 -0.0297
  109Eth    Hcc 3328   2.772   3.415   1.874  0.0777  0.0470 -0.8107
  109Eth    Hcc 3329   2.936   3.500   1.867  1.2979  1.2025  3.1159
  109Eth    Hcc 3330   2.846   3.477   2.014  3.2987 -1.2616  1.7088
  110Eth     Ho 3331   1.232   1.424   4.496 -0.0164 -1.9840 -3.1339
  110Eth     Oh 3332   1.320   1.454   4.488 -0.2229 -0.1901  0.2388
  110Eth     Co 3333   1.332   1.559   4.396 -0.8129  1.2186  0.2852
  110Eth    Hco 3334   1.319   1.658   4.441  2.8235  1.2407  1.4056
  110Eth    Hco 3335   1.259   1.533   4.320  1.6572 -2.5498 -0.9041
  110Eth     Ch 3336   1.476   1.557   4.325  0.3193  0.0984 -0.8010
  110Eth    Hcc 3337   1.535   1.625   4.386 -0.3390  1.2434 -1.4178
  110Eth    Hcc 3338   1.473   1.596   4.224  0.0528  1.4357 -0.2828
  110Eth    Hcc 3339   1.519   1.457   4.331  1.9568  0.7685 -1.3897
  111Eth     Ho 3340   2.482   0.148   1.339  5.6243 -2.1505  1.6330
  111Eth     Oh 3341   2.467   0.195   1.419 -0.0592  0.3937 -0.6684
  111Eth     Co 3342   2.344   0.254   1.418 -0.2277 -0.2484 -0.8010
  111Eth    Hco 3343   2.276   0.172   1.439 -0.0504 -0.2865 -0.3626
  111Eth    Hco 3344   2.326   0.289   1.317  1.0716  0.3090 -0.8542
  111Eth     Ch 3345   2.347   0.373   1.516  0.0538 -0.2778 -0.6419
  111Eth    Hcc 3346   2.395   0.334   1.606 -1.1716  0.2681  0.2668
  111Eth    Hcc 3347   2.254   0.422   1.545  1.7523  2.0124  1.2116
  111Eth    Hcc 3348   2.417   0.446   1.476  0.4977 -1.1462 -1.4739
  112Eth     Ho 3349   0.172   1.473   1.559  0.1617  3.7383  0.3932
  112Eth     Oh 3350   0.080   1.482   1.542 -0.2819 -0.0155  0.3372
  112Eth     Co 3351   0.021   1.355   1.517  0.0309  0.6466  0.4358
  112Eth    Hco 3352   0.057   1.282   1.589  1.4309  0.3369 -0.5505
  112Eth    Hco 3353   0.059   1.320   1.421  2.4540  0.4296  1.4434
  112Eth     Ch 3354  -0.135   1.377   1.539  0.2244  0.4907  0.4250
  112Eth    Hcc 3355  -0.171   1.410   1.637  1.7419  1.7595  0.5724
  112Eth    Hcc 3356  -0.192   1.284   1.528  0.8587  0.1682 -0.1538
  112Eth    Hcc 3357  -0.167   1.442   1.458 -1.8537 -0.6237  0.2987
  113Eth     Ho 3358   2.683   2.383   1.630  2.6378  1.6265 -0.3345
  113Eth     Oh 3359   2.706   2.314   1.570 -0.5022  0.1630  0.0596
  113Eth     Co 3360   2.633   2.193   1.608 -0.3820 -0.3065  0.4460
  113Eth    Hco 3361   2.541   2.196   1.550 -1.8534 -1.5722  2.6289
  113Eth    Hco 3362   2.621   2.205   1.716 -0.4283  3.2476  0.0890
  113Eth     Ch 3363   2.725   2.078   1.578 -0.8598 -0.1791  0.6179
  113Eth    Hcc 3364   2.761   2.071   1.475  2.4579 -1.8742  1.8194
  113Eth    Hcc 3365   2.671   1.987   1.604 -1.2988  0.2877  1.3545
  113Eth    Hcc 3366   2.814   2.081   1.641  1.5482  1.1955 -2.6885
  114Eth     Ho 3367   0.261   2.046   1.866  0.8045 -1.5452  0.2477
  114Eth     Oh 3368   0.204   2.036   1.940  0.0398 -0.4896 -0.1889
  114Eth     Co 3369   0.242   2.135   2.022  1.1826 -0.6564  0.3746
  114Eth    Hco 3370   0.231   2.232   1.972  2.4384 -1.1427 -0.9018
  114Eth    Hco 3371   0.350   2.147   2.035  1.2791 -2.9959  1.9430
  114Eth     Ch 3372   0.147   2.131   2.143 -0.1695 -0.8501  0.4253
  114Eth    Hcc 3373   0.180   2.047   2.205  1.1835 -0.6708 -0.0300
  114Eth    Hcc 3374   0.039   2.136   2.133 -0.0361  0.2284 -0.5725
  114Eth    Hcc 3375   0.164   2.222   2.201  0.2829 -0.0420 -0.9490
  115Eth     Ho 3376   2.518   0.205   3.337 -0.1133  0.0160 -0.3066
  115Eth     Oh 3377   2.478   0.272   3.284  0.2614  0.2520 -0.2885
  115Eth     Co 3378   2.340   0.252   3.287  0.0956  0.1772 -0.1132
  115Eth    Hco 3379   2.303   0.287   3.383 -3.6976 -2.4104 -0.5313
  115Eth    Hco 3380   2.309   0.149   3.268  0.6916 -0.4158  1.9820
  115Eth     Ch 3381   2.285   0.338   3.164  0.3537  0.1849 -0.3861
  115Eth    Hcc 3382   2.342   0.315   3.074  0.4125 -2.5754  0.3245
  115Eth    Hcc 3383   2.309   0.443   3.183  1.8639 -0.2410  0.1733
  115Eth    Hcc 3384   2.179   0.327   3.145  0.2964 -2.8053  1.3476
  116Eth     Ho 3385   0.402   2.955   5.084  0.1006  0.6505  0.5659
  116Eth     Oh 3386   0.320   2.994   5.109 -0.3512 -0.4130  0.7500
  116Eth     Co 3387   0.239   3.007   4.991  0.2907 -0.0985 -0.5903
  116Eth    Hco 3388   0.231   2.906   4.951 -1.5139  0.0004 -0.5369
  116Eth    Hco 3389   0.289   3.063   4.912  0.5231 -0.5099 -0.7371
  116Eth     Ch 3390   0.101   3.061   5.030  0.0491  0.2340 -0.0916
  116Eth    Hcc 3391   0.112   3.169   5.045 -0.6026  0.2753  0.1269
  116Eth    Hcc 3392   0.066   3.010   5.119  0.9254 -1.8817 -0.9389
  116Eth    Hcc 3393   0.036   3.049   4.943 -1.2056  3.0177  0.3843
  117Eth     Ho 3394   2.338   2.956   1.560 -0.4551 -0.3033  0.1316
  117Eth     Oh 3395   2.386   2.893   1.509  0.1334  0.1354  0.1438
  117Eth     Co 3396   2.442   2.792   1.585  0.1628  0.4387 -0.2610
  117Eth    Hco 3397   2.362   2.725   1.616 -0.2479  1.2776  0.5276
  117Eth    Hco 3398   2.474   2.833   1.681  0.1639  1.7356 -0.8103
  117Eth     Ch 3399   2.547   2.716   1.505  0.4342  0.9705 -0.5071
  117Eth    Hcc 3400   2.593   2.634   1.560  2.6523  3.0737  0.8958
  117Eth    Hcc 3401   2.636   2.776   1.486  0.6405  0.2128 -2.0413
  117Eth    Hcc 3402   2.512   2.682   1.408 -0.1558  3.3529 -1.1605
  118Eth     Ho 3403   2.253   0.189   6.834 -0.1165  1.9797 -0.4408
  118Eth     Oh 3404   2.311   0.195   6.907 -0.1678 -0.3370 -0.1677
  118Eth     Co 3405   2.294   0.329   6.946  0.7662 -0.2862  0.9000
  118Eth    Hco 3406   2.189   0.357   6.949  0.3013 -1.9502  0.4844
  118Eth    Hco 3407   2.324   0.407   6.876 -2.3391  1.4464  1.4154
  118Eth     Ch 3408   2.352   0.350   7.084 -0.3582 -0.0175  0.5055
  118Eth    Hcc 3409   2.454   0.314   7.072 -0.7362 -1.4643  1.4975
  118Eth    Hcc 3410   2.297   0.292   7.158  0.1341 -0.5737  0.4471
  118Eth    Hcc 3411   2.356   0.455   7.111 -0.4464  0.0977  0.0836
  119Eth     Ho 3412   1.097   0.334   1.812  4.7414 -2.7273 -0.2177
  119Eth     Oh 3413   1.137   0.418   1.802 -0.3183 -0.0798 -0.2629
  119Eth     Co 3414   1.264   0.403   1.744 -0.0979 -0.1219  0.0291
  119Eth    Hco 3415   1.252   0.365   1.643  0.9013 -0.4340  0.0190
  119Eth    Hco 3416   1.323   0.335   1.805  0.0766  1.9541  2.2625
  119Eth     Ch 3417   1.337   0.538   1.752 -0.7985 -0.2649  0.0649
  119Eth    Hcc 3418   1.445   0.543   1.734 -0.1511  3.8803  4.1066
  119Eth    Hcc 3419   1.327   0.563   1.858  3.4362 -1.9906  1.0006
  119Eth    Hcc 3420   1.284   0.603   1.683  0.2816  0.0684 -0.4756
  120Eth     Ho 3421   2.020   1.126   1.731  0.8488 -1.3247 -1.4826
  120Eth     Oh 3422   2.099   1.164   1.698  0.3394  0.7386 -0.4151
  120Eth     Co 3423   2.135   1.076   1.597  0.5273 -0.2329  0.9733
  120Eth    Hco 3424   2.055   1.057   1.526  1.3379  0.6447 -0.1889
  120Eth    Hco 3425   2.165   0.984   1.646 -0.3244  0.9041  3.7428
  120Eth     Ch 3426   2.257   1.136   1.534  0.1293  1.2424 -0.2330
  120Eth    Hcc 3427   2.343   1.119   1.599 -0.7463  0.6582  0.7777
  120Eth    Hcc 3428   2.259   1.242   1.506  0.4285  0.9633 -1.2867
  120Eth    Hcc 3429   2.277   1.078   1.444  0.6464 -0.4902  0.9847
  121Eth     Ho 3430   0.688   2.641   7.533 -0.6768  2.6707  2.2171
  121Eth     Oh 3431   0.708   2.696   7.459 -1.0057 -0.2239 -0.1379
  121Eth     Co 3432   0.787   2.798   7.508  0.6423  0.5654 -0.2239
  121Eth    Hco 3433   0.875   2.737   7.530 -1.3983 -2.1306  0.7545
  121Eth    Hco 3434   0.741   2.816   7.605 -0.8085 -2.8623 -0.1960
  121Eth     Ch 3435   0.795   2.920   7.415  0.6886 -0.2046  0.0220
  121Eth    Hcc 3436   0.699   2.967   7.396  0.8526 -1.0266 -3.2282
  121Eth    Hcc 3437   0.835   2.883   7.320  1.4745 -0.0341  0.2876
  121Eth    Hcc 3438   0.868   2.986   7.460 -0.1600  0.5149  0.3545
  122Eth     Ho 3439   0.668   3.013   4.345  2.2339 -0.3440  1.8703
  122Eth     Oh 3440   0.594   3.016   4.403  0.3298  0.0311 -0.5194
  122Eth     Co 3441   0.503   3.123   4.374  0.4180  0.1535  0.0260
  122Eth    Hco 3442   0.446   3.113   4.282 -0.3130  0.0757  0.4836
  122Eth    Hco 3443   0.572   3.208   4.375  0.9029 -0.2127 -0.9652
  122Eth     Ch 3444   0.412   3.118   4.501 -0.4204 -0.4584  0.4679
  122Eth    Hcc 3445   0.345   3.203   4.503 -3.5194 -2.8230  1.3873
  122Eth    Hcc 3446   0.477   3.118   4.589  1.6783 -1.3540 -1.0488
  122Eth    Hcc 3447   0.346   3.032   4.514  0.5666 -1.7905 -2.7477
  123Eth     Ho 3448   0.376   3.021   9.606 -0.1224 -0.5756 -0.2892
  123Eth     Oh 3449   0.375   3.044   9.697  0.2285 -0.6083 -0.2781
  123Eth     Co 3450   0.498   2.997   9.760  0.3235 -0.3148 -0.0230
  123Eth    Hco 3451   0.581   3.020   9.694  1.5935 -0.4029  1.5024
  123Eth    Hco 3452   0.495   2.888   9.762  0.3656 -0.3319 -1.0021
  123Eth     Ch 3453   0.505   3.061   9.893 -1.0446  0.5854  0.5331
  123Eth    Hcc 3454   0.606   3.066   9.935 -0.8188  0.0648  0.0670
  123Eth    Hcc 3455   0.451   3.009   9.972 -1.6459  1.2285  0.5412
  123Eth    Hcc 3456   0.475   3.165   9.878 -3.8228 -0.1315  0.8955
  124Eth     Ho 3457   0.412   1.093   8.434  3.1099 -1.6787 -0.1240
  124Eth     Oh 3458   0.444   1.175   8.399 -0.2602 -0.1258  0.2643
  124Eth     Co 3459   0.369   1.283   8.452 -0.6655  0.5220 -0.0468
  124Eth    Hco 3460   0.423   1.318   8.540 -1.5358  2.2778 -0.1975
  124Eth    Hco 3461   0.271   1.254   8.487 -0.0603 -1.0854  0.3692
  124Eth     Ch 3462   0.364   1.382   8.342 -0.3086  0.8776 -0.3522
  124Eth    Hcc 3463   0.321   1.480   8.363 -0.6664 -0.0814  3.8225
  124Eth    Hcc 3464   0.312   1.339   8.256  0.7433 -0.9806 -0.0842
  124Eth    Hcc 3465   0.460   1.401   8.294  0.0752  1.5407  0.6573
  125Eth     Ho 3466   0.988   0.904   1.570 -1.6950  1.6409  2.6756
  125Eth     Oh 3467   0.936   0.825   1.571  0.1752  0.2566  0.0026
  125Eth     Co 3468   1.028   0.722   1.564 -0.0763  0.1181  0.8498
  125Eth    Hco 3469   1.107   0.742   1.637  0.1038  0.7874  0.4814
  125Eth    Hco 3470   1.061   0.724   1.460 -0.8317 -0.8669  0.5877
  125Eth     Ch 3471   0.976   0.582   1.580  0.5238  0.8036 -0.1898
  125Eth    Hcc 3472   0.947   0.553   1.681  0.6548 -0.3959 -0.4990
  125Eth    Hcc 3473   1.045   0.509   1.538 -1.2381 -2.1298  1.8836
  125Eth    Hcc 3474   0.891   0.584   1.511  0.5139 -3.1016 -0.4072
  126Eth     Ho 3475   0.690   0.818   9.743  1.3238  2.4319  2.3539
  126Eth     Oh 3476   0.636   0.780   9.809  0.0411 -0.5271 -0.2805
  126Eth     Co 3477   0.678   0.655   9.855 -0.2482 -0.8167  0.1917
  126Eth    Hco 3478   0.781   0.665   9.892  1.1511  1.3946 -4.0227
  126Eth    Hco 3479   0.682   0.581   9.775 -1.4248 -1.9615  1.1671
  126Eth     Ch 3480   0.588   0.603   9.966 -0.5205  0.3809 -0.3754
  126Eth    Hcc 3481   0.624   0.505   9.998  1.2914  1.2753  0.3504
  126Eth    Hcc 3482   0.483   0.602   9.936 -0.6593  2.5378 -0.0170
  126Eth    Hcc 3483   0.603   0.660  10.057 -0.5624  0.0778 -0.1785
  127Eth     Ho 3484   2.827   0.264   2.852 -0.3070 -0.0494  0.5397
  127Eth     Oh 3485   2.815   0.175   2.824  0.1162 -0.0602  0.3766
  127Eth     Co 3486   2.912   0.160   2.720 -0.1299  0.6900 -0.3486
  127Eth    Hco 3487   2.897   0.059   2.682  2.2504  0.3222 -0.3922
  127Eth    Hco 3488   3.012   0.170   2.761  0.4122 -1.3429 -1.1197
  127Eth     Ch 3489   2.891   0.264   2.611 -0.3476  0.4513 -0.0147
  127Eth    Hcc 3490   2.793   0.247   2.566 -1.2086  0.4374  1.8338
  127Eth    Hcc 3491   2.966   0.276   2.534 -1.3648 -2.6287 -1.5772
  127Eth    Hcc 3492   2.886   0.361   2.661 -0.2467 -0.0219  0.9303
  128Eth     Ho 3493   0.219   1.033   4.771  0.3701  0.8178  0.1841
  128Eth     Oh 3494   0.195   1.049   4.681  0.2835 -0.4993 -0.0278
  128Eth     Co 3495   0.266   1.161   4.624  0.0707  0.3396  0.3527
  128Eth    Hco 3496   0.371   1.137   4.641 -0.2616 -1.3416  0.1315
  128Eth    Hco 3497   0.237   1.249   4.681 -0.6493 -0.7850  1.7572
  128Eth     Ch 3498   0.227   1.183   4.474  0.2274 -0.3613 -0.3952
  128Eth    Hcc 3499   0.120   1.192   4.450  0.5173  2.6842 -0.7254
  128Eth    Hcc 3500   0.265   1.094   4.423  0.3822  0.5458 -1.9023
  128Eth    Hcc 3501   0.275   1.268   4.426  0.1034 -1.1186 -1.9171
  129Eth     Ho 3502   3.188   1.184   8.771 -0.9942  1.0342  1.1371
  129Eth     Oh 3503   3.134   1.236   8.715 -0.6812 -0.3155 -0.4436
  129Eth     Co 3504   3.021   1.272   8.791 -0.1212 -0.2903  0.0259
  129Eth    Hco 3505   2.994   1.376   8.774 -1.7502 -0.6745  0.0952
  129Eth    Hco 3506   3.040   1.262   8.898  0.5002 -1.4548 -0.1864
  129Eth     Ch 3507   2.894   1.194   8.756 -0.1578  0.0435 -0.0560
  129Eth    Hcc 3508   2.807   1.211   8.819 -1.3037 -0.0902 -1.5748
  129Eth    Hcc 3509   2.919   1.089   8.768 -0.2034  0.0205 -0.1627
  129Eth    Hcc 3510   2.869   1.208   8.651 -0.4903 -0.2252 -0.0121
  130Eth     Ho 3511   0.322   1.129   9.906 -0.0215  0.4055  0.1423
  130Eth     Oh 3512   0.267   1.158   9.836 -0.3462  0.1248  0.2739
  130Eth     Co 3513   0.260   1.295   9.866  0.2772  0.8832  0.4464
  130Eth    Hco 3514   0.333   1.346   9.803 -1.1619  1.3578 -0.8665
  130Eth    Hco 3515   0.270   1.306   9.974  0.5420  1.9141  0.3216
  130Eth     Ch 3516   0.117   1.335   9.830 -0.6393 -0.0889  0.5054
  130Eth    Hcc 3517   0.099   1.436   9.865 -1.7391  0.5297 -1.7323
  130Eth    Hcc 3518   0.046   1.265   9.874 -1.7743 -1.3234 -3.0895
  130Eth    Hcc 3519   0.104   1.340   9.722  0.8285  0.1517  0.3381
  131Eth     Ho 3520   1.883   2.158   4.720  2.1761 -2.3132  0.0587
  131Eth     Oh 3521   1.910   2.179   4.632 -0.0582 -0.0719 -0.1903
  131Eth     Co 3522   1.806   2.145   4.539  0.7803 -0.3989  0.0237
  131Eth    Hco 3523   1.719   2.211   4.540  0.5437 -0.6765 -1.4593
  131Eth    Hco 3524   1.766   2.055   4.587  1.5145 -0.5418  0.3806
  131Eth     Ch 3525   1.859   2.119   4.400 -0.1260 -0.3325  0.2937
  131Eth    Hcc 3526   1.776   2.124   4.329  0.0220 -0.8201  0.0802
  131Eth    Hcc 3527   1.905   2.022   4.381  3.5763  1.3565  0.2108
  131Eth    Hcc 3528   1.921   2.198   4.360  0.3732  0.5958  2.8187
  132Eth     Ho 3529   1.906   2.084   3.830  0.2194 -0.4353 -0.2449
  132Eth     Oh 3530   1.851   2.046   3.764 -0.1220  0.1402 -0.2925
  132Eth     Co 3531   1.935   1.995   3.664  0.3126  0.2577 -0.0621
  132Eth    Hco 3532   1.886   1.922   3.600  0.9910 -2.1630  2.0849
  132Eth    Hco 3533   2.025   1.953   3.709 -0.2359 -0.5819  0.2613
  132Eth     Ch 3534   1.959   2.109   3.565 -0.2131  0.2089 -0.3175
  132Eth    Hcc 3535   2.037   2.088   3.492  0.5102 -0.6312  0.6783
  132Eth    Hcc 3536   1.989   2.193   3.627  1.4133  0.0078 -0.8013
  132Eth    Hcc 3537   1.865   2.140   3.519 -0.5946  0.1074  0.3920
  133Eth     Ho 3538   2.695   2.711   6.066  1.1171 -1.2978  0.4415
  133Eth     Oh 3539   2.743   2.789   6.086 -0.1197 -0.4212  0.0641
  133Eth     Co 3540   2.673   2.892   6.034  0.2641  0.1155  0.3651
  133Eth    Hco 3541   2.581   2.920   6.086 -0.0336 -0.6158  0.2457
  133Eth    Hco 3542   2.650   2.861   5.932  1.4017 -1.9772  0.7146
  133Eth     Ch 3543   2.750   3.019   6.015  0.2989 -0.6441 -0.0041
  133Eth    Hcc 3544   2.692   3.094   5.963  2.0395 -0.4872 -1.7597
  133Eth    Hcc 3545   2.835   3.008   5.948  0.4770 -0.3652  0.1742
  133Eth    Hcc 3546   2.781   3.057   6.112 -1.1376  0.5873 -0.0092
  134Eth     Ho 3547   1.467   2.822   1.399 -1.0168 -1.9267 -0.2518
  134Eth     Oh 3548   1.382   2.861   1.387 -0.2395  0.0039  0.3853
  134Eth     Co 3549   1.332   2.898   1.517 -0.1081 -0.0207 -0.3414
  134Eth    Hco 3550   1.415   2.944   1.570  0.1529 -0.6942 -0.1629
  134Eth    Hco 3551   1.302   2.814   1.578 -2.7415  1.0656 -0.0772
  134Eth     Ch 3552   1.222   3.009   1.510 -0.3108  0.4586  0.4604
  134Eth    Hcc 3553   1.136   2.958   1.466  0.1461 -0.7410  0.9231
  134Eth    Hcc 3554   1.245   3.100   1.454 -0.4525  0.1649 -0.0839
  134Eth    Hcc 3555   1.192   3.030   1.612  0.5343  1.9587  0.4207
  135Eth     Ho 3556   2.473   0.626   9.473 -1.7546 -0.9477  0.2720
  135Eth     Oh 3557   2.477   0.607   9.565  0.3499 -1.1100  0.1803
  135Eth     Co 3558   2.591   0.680   9.608  0.3368  0.8325  0.5846
  135Eth    Hco 3559   2.571   0.786   9.590  1.6485  0.5893 -2.5375
  135Eth    Hco 3560   2.675   0.647   9.547 -2.1361 -0.8629 -2.0203
  135Eth     Ch 3561   2.616   0.664   9.759 -0.1823  0.1049 -0.3491
  135Eth    Hcc 3562   2.689   0.732   9.803  0.7817 -3.0547  3.2054
  135Eth    Hcc 3563   2.655   0.563   9.773  3.5916  1.2625 -1.7790
  135Eth    Hcc 3564   2.529   0.674   9.824  1.3778 -1.4084  2.0436
  136Eth     Ho 3565   0.649   1.799   7.736  3.5996 -0.3086 -1.6344
  136Eth     Oh 3566   0.685   1.841   7.811  0.2577  0.0599 -0.1730
  136Eth     Co 3567   0.772   1.948   7.769 -0.0146  0.0412  0.3039
  136Eth    Hco 3568   0.711   2.027   7.726  1.0961  1.3476  1.0672
  136Eth    Hco 3569   0.837   1.913   7.688 -0.0773 -1.5976  0.9501
  136Eth     Ch 3570   0.853   2.017   7.874 -0.3437  0.2908  0.2309
  136Eth    Hcc 3571   0.785   2.063   7.946 -1.3931 -1.7476  0.6145
  136Eth    Hcc 3572   0.930   2.085   7.840 -1.2867  1.5220  0.5481
  136Eth    Hcc 3573   0.917   1.942   7.921 -1.7863 -0.6064  0.8132
  137Eth     Ho 3574   1.341   2.128   8.181 -2.2110  1.4850  1.3411
  137Eth     Oh 3575   1.288   2.061   8.140  0.0680  0.2083  0.3861
  137Eth     Co 3576   1.236   1.978   8.247 -0.3340  0.1518  0.5697
  137Eth    Hco 3577   1.155   2.036   8.292  0.1643  1.1286  0.2164
  137Eth    Hco 3578   1.317   1.966   8.318 -1.0291  1.1728  1.5418
  137Eth     Ch 3579   1.191   1.838   8.208 -0.6545  0.2704  0.4868
  137Eth    Hcc 3580   1.150   1.788   8.297  0.9977 -3.6485 -0.8550
  137Eth    Hcc 3581   1.281   1.782   8.184  0.8868  2.5779  0.7906
  137Eth    Hcc 3582   1.123   1.823   8.124 -0.8311 -0.3926  0.7370
  138Eth     Ho 3583   0.465   0.156   2.109  2.6914 -1.6426  0.2670
  138Eth     Oh 3584   0.503   0.220   2.052 -0.4450  0.0108 -0.0671
  138Eth     Co 3585   0.410   0.247   1.949  0.4380 -0.5317  0.2846
  138Eth    Hco 3586   0.335   0.313   1.992  1.5386  1.8324 -1.2698
  138Eth    Hco 3587   0.349   0.164   1.916  0.0392 -1.3975  3.0572
  138Eth     Ch 3588   0.490   0.316   1.838 -0.0393 -0.1966 -0.0485
  138Eth    Hcc 3589   0.549   0.238   1.790 -2.3679 -2.6430  0.9075
  138Eth    Hcc 3590   0.559   0.389   1.881  0.2196 -1.8442  2.4247
  138Eth    Hcc 3591   0.432   0.367   1.760  0.0837  3.8997  2.3743
  139Eth     Ho 3592   0.987   2.253   7.624  0.7232  0.6635 -2.2541
  139Eth     Oh 3593   0.900   2.228   7.600  0.3068  0.0498 -0.1969
  139Eth     Co 3594   0.848   2.315   7.502 -0.3057  0.4015  0.6590
  139Eth    Hco 3595   0.884   2.280   7.406 -2.7612  1.5854 -0.7334
  139Eth    Hco 3596   0.880   2.416   7.526  1.3182 -0.3265  1.6396
  139Eth     Ch 3597   0.696   2.316   7.486  0.1985 -0.6588  0.2057
  139Eth    Hcc 3598   0.643   2.345   7.576 -1.7068 -2.8603 -0.1496
  139Eth    Hcc 3599   0.665   2.214   7.463 -1.8182 -0.1797  0.7547
  139Eth    Hcc 3600   0.663   2.379   7.403 -1.0760 -1.2999  0.2169
  140Eth     Ho 3601   0.714   1.661   5.718 -1.0144 -0.5620  0.7141
  140Eth     Oh 3602   0.689   1.602   5.649  0.2880  0.0035 -0.2527
  140Eth     Co 3603   0.597   1.517   5.718 -0.0185 -0.0257  0.3112
  140Eth    Hco 3604   0.527   1.488   5.640  1.4582 -1.4008 -0.5282
  140Eth    Hco 3605   0.557   1.581   5.797 -0.0781 -0.7319  0.8579
  140Eth     Ch 3606   0.674   1.399   5.781  0.0041  0.2232  0.3711
  140Eth    Hcc 3607   0.712   1.329   5.706 -0.6466 -0.6172  0.8110
  140Eth    Hcc 3608   0.594   1.345   5.832 -0.0479 -0.2866 -0.2390
  140Eth    Hcc 3609   0.751   1.427   5.852  1.0537 -2.7253  0.4776
  141Eth     Ho 3610   1.913   3.308   8.823  1.3313 -0.6986  3.5180
  141Eth     Oh 3611   1.990   3.357   8.801 -0.0474  0.2432  0.4846
  141Eth     Co 3612   1.981   3.476   8.877 -0.0207  1.1326  0.0472
  141Eth    Hco 3613   1.970   3.461   8.985  1.7069 -0.8072 -0.0192
  141Eth    Hco 3614   1.900   3.540   8.842 -0.3422 -1.1307 -3.7142
  141Eth     Ch 3615   2.113   3.531   8.846 -0.1517 -0.5477 -0.2394
  141Eth    Hcc 3616   2.149   3.608   8.914 -0.3599 -0.0094 -0.7338
  141Eth    Hcc 3617   2.120   3.585   8.751  0.7743  0.8443  0.5892
  141Eth    Hcc 3618   2.195   3.460   8.854 -1.2176 -1.7629  0.0848
  142Eth     Ho 3619   2.969   2.462   2.225  0.3638 -0.0224 -0.1826
  142Eth     Oh 3620   2.918   2.534   2.258  0.6305  0.1197 -0.0774
  142Eth     Co 3621   2.955   2.549   2.395 -0.3536  0.6654  0.0110
  142Eth    Hco 3622   3.064   2.553   2.404 -0.6517  1.5306  4.0181
  142Eth    Hco 3623   2.935   2.451   2.438 -1.4212  0.5006 -0.8368
  142Eth     Ch 3624   2.904   2.688   2.442 -0.9025 -0.8410  0.7478
  142Eth    Hcc 3625   2.938   2.778   2.391  0.8111 -1.2537  1.1193
  142Eth    Hcc 3626   2.933   2.706   2.546 -0.3793 -1.0242  0.6344
  142Eth    Hcc 3627   2.797   2.707   2.434 -0.7784  0.7218  2.3046
  143Eth     Ho 3628   2.170   0.149   1.730 -0.0002  1.0010 -0.1511
  143Eth     Oh 3629   2.094   0.104   1.699  0.4707  0.6370 -0.7962
  143Eth     Co 3630   2.027   0.186   1.604  0.6606 -0.2530  0.2640
  143Eth    Hco 3631   2.087   0.230   1.524 -1.9393  1.0015 -1.0483
  143Eth    Hco 3632   1.985   0.270   1.660  2.3489  1.1190 -0.4621
  143Eth     Ch 3633   1.902   0.112   1.537  0.3547  0.0762 -0.1432
  143Eth    Hcc 3634   1.844   0.062   1.615 -1.2888 -0.3987 -1.6119
  143Eth    Hcc 3635   1.956   0.038   1.478 -0.1724  1.2525 -2.1687
  143Eth    Hcc 3636   1.841   0.176   1.474  0.3074 -1.0400 -1.2646
  144Eth     Ho 3637   0.110   2.215   5.812 -2.4044  1.9972 -0.0896
  144Eth     Oh 3638   0.111   2.198   5.905  0.4046  0.4656 -0.3593
  144Eth     Co 3639   0.252   2.205   5.934 -0.5989 -0.2162 -0.3641
  144Eth    Hco 3640   0.296   2.300   5.904 -0.8218 -0.1070 -0.3464
  144Eth    Hco 3641   0.288   2.116   5.882 -2.3201 -0.0473 -1.8844
  144Eth     Ch 3642   0.276   2.179   6.083 -0.5253 -0.1135 -0.5693
  144Eth    Hcc 3643   0.273   2.271   6.142  2.5039  1.0511 -2.0828
  144Eth    Hcc 3644   0.382   2.151   6.080  0.8107  4.3467  0.4820
  144Eth    Hcc 3645   0.217   2.096   6.121 -0.1673 -0.4162 -0.6668
  145Eth     Ho 3646   0.476   3.341   8.126 -3.1082 -1.7453  0.6227
  145Eth     Oh 3647   0.476   3.407   8.192  0.3000 -0.4650 -0.5575
  145Eth     Co 3648   0.540   3.365   8.310  0.1705 -0.0688 -0.0590
  145Eth    Hco 3649   0.640   3.342   8.275 -1.3515 -2.1603 -3.3224
  145Eth    Hco 3650   0.494   3.269   8.335  0.8176  0.1539  2.0759
  145Eth     Ch 3651   0.533   3.450   8.430 -0.2423 -0.1477  0.4136
  145Eth    Hcc 3652   0.596   3.420   8.513  1.0299  0.0015 -0.4742
  145Eth    Hcc 3653   0.430   3.458   8.466  0.1567  0.4051  1.4522
  145Eth    Hcc 3654   0.558   3.554   8.408 -0.4062 -0.3301 -0.6716
  146Eth     Ho 3655   1.545   1.302   4.538 -0.6605  0.0032  0.5414
  146Eth     Oh 3656   1.520   1.215   4.563 -0.0046 -0.3380  0.0372
  146Eth     Co 3657   1.515   1.202   4.706 -1.0072  0.1402  0.8625
  146Eth    Hco 3658   1.464   1.287   4.752 -1.6821 -0.2555  0.8481
  146Eth    Hco 3659   1.618   1.195   4.743  0.3332 -1.0607 -2.8530
  146Eth     Ch 3660   1.436   1.080   4.750 -0.5707  0.1733  0.2493
  146Eth    Hcc 3661   1.442   1.064   4.858 -0.9985 -0.0834  0.2347
  146Eth    Hcc 3662   1.464   0.991   4.694 -0.0706 -0.5358  1.6081
  146Eth    Hcc 3663   1.339   1.121   4.719 -1.1303  0.2488  2.0506
  147Eth     Ho 3664   1.036   0.389   4.638 -0.9617 -1.0965 -1.9522
  147Eth     Oh 3665   0.949   0.423   4.650 -0.2286  0.1877  0.1114
  147Eth     Co 3666   0.855   0.333   4.586  0.0502 -0.1510  0.2028
  147Eth    Hco 3667   0.848   0.231   4.624 -1.2088 -1.1683 -2.6545
  147Eth    Hco 3668   0.895   0.315   4.486  1.4188 -1.4808  0.9708
  147Eth     Ch 3669   0.715   0.401   4.579 -0.1509  0.1094 -0.0505
  147Eth    Hcc 3670   0.677   0.432   4.676  1.8636  2.5154  0.0275
  147Eth    Hcc 3671   0.649   0.334   4.523 -1.4564  1.3455 -0.0353
  147Eth    Hcc 3672   0.717   0.492   4.518 -1.7396  0.8690  0.9934
  148Eth     Ho 3673   1.293   3.352   5.888  1.7690  2.7223 -1.3116
  148Eth     Oh 3674   1.359   3.334   5.953 -0.5776 -0.4804  0.3218
  148Eth     Co 3675   1.332   3.439   6.045  0.0793 -0.1221 -0.2081
  148Eth    Hco 3676   1.392   3.410   6.131 -2.2618 -1.9810  0.8703
  148Eth    Hco 3677   1.230   3.428   6.082 -0.0718 -0.8466 -0.8257
  148Eth     Ch 3678   1.375   3.584   5.999 -1.1693  0.1813  0.8215
  148Eth    Hcc 3679   1.291   3.646   5.967  0.7740  1.2069 -2.5849
  148Eth    Hcc 3680   1.442   3.576   5.913 -2.7815 -0.9673 -0.3665
  148Eth    Hcc 3681   1.421   3.633   6.085 -2.0714 -1.4993  2.2903
  149Eth     Ho 3682   0.232   2.103   3.851  1.6245 -0.9481 -1.2712
  149Eth     Oh 3683   0.298   2.145   3.903  0.0539  0.0290 -0.0309
  149Eth     Co 3684   0.420   2.133   3.833  0.9542 -0.3865  0.1843
  149Eth    Hco 3685   0.437   2.035   3.790  0.4285 -1.0075  1.3418
  149Eth    Hco 3686   0.490   2.151   3.915 -1.9812 -0.4379  2.8095
  149Eth     Ch 3687   0.417   2.226   3.709  0.2527  0.4677 -0.6352
  149Eth    Hcc 3688   0.384   2.321   3.750 -0.4714 -0.1118  0.1316
  149Eth    Hcc 3689   0.343   2.193   3.636 -0.8796 -0.9819  1.1348
  149Eth    Hcc 3690   0.519   2.234   3.670  0.9806 -2.0409  0.6263
  150Eth     Ho 3691   2.735   0.990   5.922 -1.6791 -0.2981  0.0355
  150Eth     Oh 3692   2.744   1.039   5.843 -0.1959 -0.8680 -0.1541
  150Eth     Co 3693   2.642   0.997   5.757  0.2029  0.5630  0.1616
  150Eth    Hco 3694   2.545   1.015   5.804  0.4363 -0.7585  1.1613
  150Eth    Hco 3695   2.640   0.889   5.748 -0.4182  0.5580  0.3637
  150Eth     Ch 3696   2.670   1.049   5.612  0.4006  0.1936 -0.1375
  150Eth    Hcc 3697   2.579   1.033   5.555  0.0150  0.9356  0.2685
  150Eth    Hcc 3698   2.747   0.993   5.559  1.3098 -0.5054  1.8536
  150Eth    Hcc 3699   2.688   1.156   5.617 -0.3151  0.3204 -0.2306
  151Eth     Ho 3700   2.006   0.686   5.815  1.3562  1.1938  2.4434
  151Eth     Oh 3701   2.055   0.607   5.831 -0.2351 -0.4536 -0.4392
  151Eth     Co 3702   2.004   0.561   5.959 -0.9151 -0.2139 -0.2262
  151Eth    Hco 3703   1.898   0.539   5.948 -0.8906 -1.3154  1.5739
  151Eth    Hco 3704   2.019   0.640   6.031  1.8028  0.1950 -1.1866
  151Eth     Ch 3705   2.087   0.441   6.017 -0.2758  0.2750  0.1301
  151Eth    Hcc 3706   2.090   0.346   5.963  0.2332  0.4044 -0.0744
  151Eth    Hcc 3707   2.046   0.405   6.111 -1.2415  0.1060 -0.3454
  151Eth    Hcc 3708   2.190   0.475   6.031  0.3798 -0.9734 -1.4549
  152Sol     OW 3709   0.703   2.883   5.559 -0.0414 -0.8356  0.3841
  152Sol     HW 3710   0.784   2.931   5.576  0.5848 -2.1711  1.2601
  152Sol     HW 3711   0.648   2.901   5.635 -0.8768  0.7051 -0.5808
  152Sol     MW 3712   0.706   2.889   5.567  0.0028 -0.0130  0.6139
  153Sol     OW 3713   2.385   1.669   2.331 -0.1205 -0.8960 -0.4598
  153Sol     HW 3714   2.418   1.639   2.247 -1.6094 -1.6452 -0.7931
  153Sol     HW 3715   2.380   1.765   2.322  0.2251 -0.9326 -1.0326
  153Sol     MW 3716   2.388   1.675   2.323  0.0029  0.4352  0.2365
  154Sol     OW 3717   1.589   2.642   4.320 -0.0641  0.3423  0.1278
  154Sol     HW 3718   1.639   2.562   4.305 -2.3662 -0.8803 -1.2177
  154Sol     HW 3719   1.622   2.703   4.254  2.8446  1.1114  2.1927
  154Sol     MW 3720   1.597   2.641   4.313  0.3578 -0.3691 -0.0265
  155Sol     OW 3721   0.796   0.576   4.088 -0.1425 -0.1319  0.2438
  155Sol     HW 3722   0.758   0.491   4.066  2.1078 -1.3466  0.8900
  155Sol     HW 3723   0.809   0.619   4.003 -1.0154 -0.5611 -0.1075
  155Sol     MW 3724   0.794   0.572   4.078 -0.3686 -0.0194 -0.4066
  156Sol     OW 3725   1.709   0.741   3.372 -0.1789  0.0616  0.4568
  156Sol     HW 3726   1.652   0.680   3.325  0.8961 -0.7498  0.1918
  156Sol     HW 3727   1.741   0.691   3.447  1.1743  0.0947 -0.0819
  156Sol     MW 3728   1.707   0.731   3.374  0.2999 -0.1665 -0.3426
  157Sol     OW 3729   0.382   0.427   2.587 -0.0727  0.0657 -0.1167
  157Sol     HW 3730   0.345   0.472   2.511  0.1902 -0.0896 -0.3375
  157Sol     HW 3731   0.308   0.381   2.627 -0.4904  1.2544  0.5100
  157Sol     MW 3732   0.372   0.427   2.584 -0.0428  0.2220 -0.9460
  158Sol     OW 3733   1.330   0.639   8.189  0.6749 -0.2113 -0.0768
  158Sol     HW 3734   1.362   0.635   8.099 -1.9500  0.7816 -1.1213
  158Sol     HW 3735   1.353   0.727   8.219  0.6813 -0.1938 -0.1335
  158Sol     MW 3736   1.335   0.646   8.184 -0.8313 -0.2392 -0.0826
  159Sol     OW 3737   0.778   1.109   4.503 -0.3469  0.0022  0.4244
  159Sol     HW 3738   0.778   1.013   4.502  0.0171  0.0128 -1.3008
  159Sol     HW 3739   0.814   1.134   4.418  0.5204  1.6784  1.2691
  159Sol     MW 3740   0.781   1.103   4.496 -0.6626 -0.6333  0.7749
  160Sol     OW 3741   1.894   2.627   5.553  0.5284 -0.2197 -0.6223
  160Sol     HW 3742   1.861   2.597   5.637 -0.4875  0.7913 -0.6506
  160Sol     HW 3743   1.972   2.573   5.537  0.2606 -0.9729  0.5682
  160Sol     MW 3744   1.898   2.619   5.559  0.6726  0.2371 -0.0369
  161Sol     OW 3745   1.056   0.139   7.719  0.1348  0.2623 -0.2762
  161Sol     HW 3746   0.983   0.139   7.657  1.6899 -0.5485 -2.1184
  161Sol     HW 3747   1.106   0.218   7.699  1.8519 -1.1166 -1.5234
  161Sol     MW 3748   1.054   0.146   7.712 -0.1888  0.1304 -0.0098
  162Sol     OW 3749   2.850   1.532   7.871  0.4528 -0.3514 -0.2872
  162Sol     HW 3750   2.802   1.451   7.850  0.8191 -0.6083 -0.1335
  162Sol     HW 3751   2.921   1.535   7.807 -0.9263  1.0501 -1.7778
  162Sol     MW 3752   2.852   1.525   7.863  0.4275  0.5942 -0.0364
  163Sol     OW 3753   1.035   1.067   2.717 -0.3462 -0.4043  0.3458
  163Sol     HW 3754   0.944   1.044   2.736 -0.0354 -1.7070  0.3434
  163Sol     HW 3755   1.085   1.026   2.787  0.1072  1.8126  1.3567
  163Sol     MW 3756   1.031   1.061   2.725  0.2303 -0.0655 -0.5707
  164Sol     OW 3757   2.952   0.161   1.631  0.0213 -0.0204 -0.0069
  164Sol     HW 3758   2.867   0.171   1.588  0.5354  1.4560 -0.6911
  164Sol     HW 3759   2.970   0.247   1.670  0.3550 -0.8465  1.7200
  164Sol     MW 3760   2.946   0.169   1.631 -0.5608  0.1108 -0.7926
  165Sol     OW 3761   2.549   2.489   5.869  0.2451  0.3755  0.4890
  165Sol     HW 3762   2.576   2.425   5.935  0.9877 -0.3317 -0.4788
  165Sol     HW 3763   2.627   2.501   5.815 -0.8849 -0.3603 -1.3182
  165Sol     MW 3764   2.559   2.485   5.870  0.1952  0.5773  0.4660
  166Sol     OW 3765   1.047   2.305   9.461 -0.4390  0.4712 -0.2522
  166Sol     HW 3766   1.020   2.396   9.448 -0.4624  0.3407 -1.1003
  166Sol     HW 3767   0.995   2.254   9.399 -1.3457 -0.2870  1.0945
  166Sol     MW 3768   1.040   2.308   9.455  0.5356  0.3386 -0.2838
  167Sol     OW 3769   1.422   0.995   5.993  0.2754  0.2464  0.0816
  167Sol     HW 3770   1.502   1.041   5.968 -0.4775  0.9564 -1.0739
  167Sol     HW 3771   1.409   0.930   5.924 -0.1631  0.1542  0.2496
  167Sol     MW 3772   1.428   0.993   5.985  0.3050  0.1011 -0.2055
  168Sol     OW 3773   1.749   2.645   2.133 -0.1548  0.0425  0.1728
  168Sol     HW 3774   1.730   2.671   2.043  0.9841 -0.1175 -0.1223
  168Sol     HW 3775   1.802   2.566   2.125  1.5068  1.0422  0.9274
  168Sol     MW 3776   1.752   2.640   2.124 -0.6484 -0.5655  0.3525
  169Sol     OW 3777   1.431   2.865   4.910  0.3386 -0.0709  0.3632
  169Sol     HW 3778   1.397   2.894   4.994  0.0131  0.1632  0.1527
  169Sol     HW 3779   1.372   2.904   4.845  0.7949  0.0368  0.0115
  169Sol     MW 3780   1.422   2.871   4.912 -0.0110  0.0680  0.0458
  170Sol     OW 3781   1.996   0.013   8.312 -0.3380  0.6403  0.9920
  170Sol     HW 3782   2.019  -0.077   8.332  1.7042  0.1559 -3.1417
  170Sol     HW 3783   2.078   0.062   8.322 -0.3416  1.1793 -1.3861
  170Sol     MW 3784   2.005   0.010   8.315  0.9328 -0.1963 -0.0610
  171Sol     OW 3785   3.266   1.715   5.975  0.2605 -0.3496  0.0235
  171Sol     HW 3786   3.204   1.742   6.043 -0.4218  0.3309 -0.8483
  171Sol     HW 3787   3.329   1.787   5.969 -0.6222  0.3521 -1.1756
  171Sol     MW 3788   3.266   1.724   5.980  0.3506  0.1583 -0.4416
  172Sol     OW 3789   1.255   0.035   7.190 -0.2978  0.0617  0.8008
  172Sol     HW 3790   1.325  -0.020   7.155 -1.6801 -1.2871  0.0698
  172Sol     HW 3791   1.300   0.106   7.236  1.5314 -0.5703  0.0234
  172Sol     MW 3792   1.265   0.037   7.191  0.3572 -0.3958 -0.4763
  173Sol     OW 3793   0.326   3.240   1.963 -0.6299  0.3026 -0.1317
  173Sol     HW 3794   0.375   3.302   2.017  0.9748 -1.6180  0.6533
  173Sol     HW 3795   0.312   3.287   1.880  0.8084  1.5974  0.3331
  173Sol     MW 3796   0.329   3.250   1.960  0.1359  0.2679  0.5608
  174Sol     OW 3797   2.000   2.464   8.966  0.3014  0.5924  0.4284
  174Sol     HW 3798   2.025   2.378   8.999 -1.6077 -0.3686 -0.5039
  174Sol     HW 3799   2.031   2.464   8.875  0.3547  0.9226  0.4464
  174Sol     MW 3800   2.005   2.456   8.961  0.3802 -0.4864  0.5348
  175Sol     OW 3801   1.966   1.673   5.426  0.2638 -0.3394  0.0060
  175Sol     HW 3802   1.998   1.757   5.459  0.4097 -0.7929  1.0490
  175Sol     HW 3803   2.040   1.612   5.440  0.2782 -0.5687 -1.0430
  175Sol     MW 3804   1.976   1.675   5.430  0.1559  0.1902 -0.0191
  176Sol     OW 3805   0.950   0.079   4.446  0.4174  0.4721  0.2825
  176Sol     HW 3806   0.859   0.107   4.437  0.4960  0.6089 -0.1106
  176Sol     HW 3807   0.996   0.125   4.376  0.7655  0.2956  0.3937
  176Sol     MW 3808   0.946   0.086   4.439  0.2567  0.3913  0.4032
  177Sol     OW 3809   1.814   1.366   4.718 -0.5068 -0.3322 -0.8106
  177Sol     HW 3810   1.800   1.358   4.813 -0.3150  1.8183 -0.5804
  177Sol     HW 3811   1.810   1.276   4.686  1.4189 -1.3161  1.5204
  177Sol     MW 3812   1.813   1.357   4.724  0.0008  0.0958  0.7334
  178Sol     OW 3813   2.830   0.314   4.108 -0.2001 -0.3065  0.6038
  178Sol     HW 3814   2.737   0.314   4.087  0.0050 -0.0606 -0.3378
  178Sol     HW 3815   2.872   0.276   4.031  0.4439 -0.7893  1.1866
  178Sol     MW 3816   2.825   0.311   4.099  0.2257  0.0511 -0.4932
  179Sol     OW 3817   0.170   1.097   3.284 -0.2702 -0.1916 -0.1379
  179Sol     HW 3818   0.090   1.106   3.231  0.3235  0.8984 -0.8672
  179Sol     HW 3819   0.205   1.185   3.290  1.5581 -0.8400 -0.8893
  179Sol     MW 3820   0.166   1.105   3.279 -0.1045  0.3531  0.4368
  180Sol     OW 3821   0.487   1.454   3.917 -0.2558  0.4615  0.3194
  180Sol     HW 3822   0.398   1.449   3.882 -0.0147  1.6457 -0.4771
  180Sol     HW 3823   0.475   1.467   4.011 -0.9609  2.7508 -0.0628
  180Sol     MW 3824   0.478   1.455   3.922 -0.1422  0.8694 -0.5633
  181Sol     OW 3825   0.949   3.163   6.454 -0.1567  0.8367  0.6094
  181Sol     HW 3826   0.985   3.114   6.379 -4.0171  0.2680 -0.9950
  181Sol     HW 3827   0.994   3.248   6.451  0.4278  0.4814 -1.8196
  181Sol     MW 3828   0.957   3.166   6.447  0.3021  0.7413  1.0625
  182Sol     OW 3829   3.106   1.774   9.161 -0.7681  0.2767  0.2778
  182Sol     HW 3830   3.032   1.744   9.109  0.0658 -0.6985 -0.3547
  182Sol     HW 3831   3.138   1.852   9.115 -0.2547 -0.3734 -0.4680
  182Sol     MW 3832   3.102   1.779   9.152  0.5376 -0.2680  0.0448
  183Sol     OW 3833   0.041   2.029   6.298  0.0481 -0.2812  0.1762
  183Sol     HW 3834   0.073   1.962   6.238 -0.6655 -0.7338  0.2977
  183Sol     HW 3835   0.021   2.104   6.242 -1.1469 -0.8962 -0.2217
  183Sol     MW 3836   0.042   2.030   6.288  0.1036  0.0339 -0.6890
  184Sol     OW 3837   2.707   0.035   3.023  0.7663 -0.1553 -0.3486
  184Sol     HW 3838   2.706   0.117   3.073  0.1464  0.7536 -1.8013
  184Sol     HW 3839   2.761   0.054   2.946 -1.6933 -0.1772 -2.1491
  184Sol     MW 3840   2.712   0.044   3.020 -0.1362 -0.4679 -0.3941
  185Sol     OW 3841   0.020   2.606   9.343  0.8989 -0.0902 -0.4465
  185Sol     HW 3842  -0.004   2.514   9.341  1.1986 -0.1599 -1.1858
  185Sol     HW 3843  -0.027   2.645   9.268  1.7881  0.0908 -0.9240
  185Sol     MW 3844   0.013   2.602   9.336 -0.7063 -0.0205 -0.0461
  186Sol     OW 3845   2.290   1.014   8.085 -0.5063  0.0857 -0.9448
  186Sol     HW 3846   2.341   1.088   8.117 -2.8867  0.6590  1.6794
  186Sol     HW 3847   2.312   0.942   8.145 -0.4065 -0.5434 -1.7257
  186Sol     MW 3848   2.296   1.014   8.093  0.0365  0.0538 -0.0253
  187Sol     OW 3849   2.911   0.726   6.525 -0.5638 -0.3629  0.1382
  187Sol     HW 3850   2.908   0.632   6.507 -2.1143 -0.2060 -0.5714
  187Sol     HW 3851   2.820   0.749   6.546 -0.2143  0.9828  0.2245
  187Sol     MW 3852   2.902   0.720   6.525 -0.1203 -0.0230 -0.3009
  188Sol     OW 3853   0.416   2.285   4.845 -0.6421 -0.1374 -0.3522
  188Sol     HW 3854   0.383   2.198   4.826  0.7897 -0.7773 -0.0214
  188Sol     HW 3855   0.359   2.345   4.797 -0.2074 -1.3999 -2.4787
  188Sol     MW 3856   0.408   2.283   4.839  0.0024 -0.7557  0.2691
  189Sol     OW 3857   0.408   0.865   6.492 -0.1060  0.2072 -0.1727
  189Sol     HW 3858   0.326   0.823   6.467  0.0115 -0.2973  0.2735
  189Sol     HW 3859   0.399   0.956   6.463 -0.2086 -0.2167 -1.5100
  189Sol     MW 3860   0.400   0.869   6.487 -0.4102 -0.3283  0.5072
  190Sol     OW 3861   3.169   1.117   2.873 -0.1324 -0.2901  0.3150
  190Sol     HW 3862   3.116   1.124   2.794 -0.3672 -0.2140  0.4807
  190Sol     HW 3863   3.248   1.168   2.854 -0.3929  0.1095  0.3044
  190Sol     MW 3864   3.172   1.122   2.864  0.9095 -0.4452 -0.6586
  191Sol     OW 3865   2.854   0.422   7.355 -0.2104 -0.1305  0.0759
  191Sol     HW 3866   2.806   0.388   7.279 -0.1047  0.2985 -0.1878
  191Sol     HW 3867   2.834   0.516   7.355  2.2492  0.4464 -1.2611
  191Sol     MW 3868   2.848   0.427   7.348 -0.3049  0.0883  0.7821
  192Sol     OW 3869   0.792   3.398   2.236  0.4543  0.2885 -0.6345
  192Sol     HW 3870   0.727   3.358   2.294  2.5957 -3.3423 -0.6060
  192Sol     HW 3871   0.843   3.456   2.293  0.9984 -1.4124  0.6435
  192Sol     MW 3872   0.791   3.400   2.247 -0.2467 -0.2798 -0.4366
  193Sol     OW 3873   1.508   2.346   5.613  0.3242 -0.1479  0.1637
  193Sol     HW 3874   1.517   2.409   5.684 -2.0122  1.5240 -0.9737
  193Sol     HW 3875   1.505   2.399   5.533  1.0194 -1.8795 -1.0627
  193Sol     MW 3876   1.509   2.356   5.612 -0.7899 -0.0337  0.2261
  194Sol     OW 3877   1.874   0.085   8.533 -0.3394 -0.2753 -0.9108
  194Sol     HW 3878   1.925   0.065   8.611 -1.1158 -1.2261 -0.6337
  194Sol     HW 3879   1.925   0.050   8.461 -0.0782 -0.2484 -0.7364
  194Sol     MW 3880   1.883   0.080   8.534  0.2386 -0.2252 -0.6480
  195Sol     OW 3881   2.676   1.295   4.826  0.2268 -0.7412  0.3814
  195Sol     HW 3882   2.652   1.232   4.758 -0.9330 -0.1223  0.2135
  195Sol     HW 3883   2.646   1.255   4.908 -0.0934 -0.6232  0.3230
  195Sol     MW 3884   2.671   1.285   4.827  0.6021 -0.4268 -0.1777
  196Sol     OW 3885   0.161   3.381   6.977 -0.5601 -0.6957  0.0324
  196Sol     HW 3886   0.166   3.455   7.037 -2.9423 -2.4036  2.4603
  196Sol     HW 3887   0.125   3.419   6.896  1.0697  1.3094  0.2033
  196Sol     MW 3888   0.158   3.391   6.975  0.0091 -0.5029  0.0563
  197Sol     OW 3889   1.143   1.271   4.306 -0.2930  0.6303  0.3292
  197Sol     HW 3890   1.192   1.202   4.350  0.9439  1.5593  0.4374
  197Sol     HW 3891   1.203   1.306   4.240 -1.2582  0.9291 -0.4054
  197Sol     MW 3892   1.153   1.268   4.304 -0.0885  0.1337 -0.0350
  198Sol     OW 3893   0.362   0.715   6.951  0.0966 -0.1595 -0.0440
  198Sol     HW 3894   0.412   0.734   7.030  1.7679  1.2347 -1.4045
  198Sol     HW 3895   0.297   0.785   6.946  0.2220 -0.0455 -0.0847
  198Sol     MW 3896   0.360   0.723   6.957 -0.3567 -0.1086 -0.1133
  199Sol     OW 3897   1.934   2.733   9.473 -0.5881  0.4514 -0.0622
  199Sol     HW 3898   1.996   2.804   9.457  0.9187 -0.8000 -0.0148
  199Sol     HW 3899   1.936   2.681   9.393  0.6704 -1.2037  0.9789
  199Sol     MW 3900   1.940   2.735   9.465  0.0807  0.4669  0.3806
  200Sol     OW 3901   1.381   3.123   3.385 -0.4239 -0.1367  0.3969
  200Sol     HW 3902   1.289   3.145   3.403 -0.2830 -0.7209  1.9359
  200Sol     HW 3903   1.422   3.122   3.472  0.8997 -0.4769 -0.2307
  200Sol     MW 3904   1.376   3.125   3.395 -0.0231 -0.4349 -0.2007
  201Sol     OW 3905   2.129   0.517   8.304  0.2434 -0.2616  0.1246
  201Sol     HW 3906   2.037   0.506   8.324  0.3763 -0.5656  0.5756
  201Sol     HW 3907   2.174   0.450   8.355  0.5447 -1.4759 -1.6786
  201Sol     MW 3908   2.125   0.510   8.310 -0.4714 -0.2582 -0.3778
  202Sol     OW 3909   2.760   1.350   3.824 -0.0664  0.6939  0.0091
  202Sol     HW 3910   2.811   1.428   3.802 -0.1325  0.1019 -2.4543
  202Sol     HW 3911   2.719   1.325   3.741  0.0472 -2.0226  0.7330
  202Sol     MW 3912   2.761   1.355   3.814  0.3787 -0.0662  0.2038
  203Sol     OW 3913   1.078   3.320   2.456  0.1054  0.1398  0.6294
  203Sol     HW 3914   1.030   3.401   2.442  0.9965  0.3546 -1.4266
  203Sol     HW 3915   1.104   3.323   2.548  0.4161  2.3436  0.5053
  203Sol     MW 3916   1.076   3.327   2.463  0.3779 -0.8148  0.0985
  204Sol     OW 3917   3.246   0.768   3.899  0.0345 -0.2510  0.3630
  204Sol     HW 3918   3.272   0.715   3.824  0.7151 -1.8428  1.6906
  204Sol     HW 3919   3.328   0.784   3.946 -0.4709  0.2033  1.0906
  204Sol     MW 3920   3.256   0.764   3.897  0.1495 -0.6556  0.5901
  205Sol     OW 3921   0.699   0.978   3.838  0.0040 -0.5296  0.1884
  205Sol     HW 3922   0.698   1.073   3.844  1.1386 -0.6104  1.9128
  205Sol     HW 3923   0.696   0.948   3.928  0.8459 -2.1113 -0.2924
  205Sol     MW 3924   0.699   0.984   3.846 -0.2323  0.5244  0.4279
  206Sol     OW 3925   0.282   2.872   1.725 -0.0754 -0.2210 -0.3454
  206Sol     HW 3926   0.224   2.799   1.704 -0.9223  1.0041 -2.3726
  206Sol     HW 3927   0.365   2.850   1.684 -0.4754  0.1753 -1.3721
  206Sol     MW 3928   0.285   2.864   1.720  0.6075  0.5550 -0.3336
  207Sol     OW 3929   0.461   3.355   7.201  0.1980 -0.8257  0.1508
  207Sol     HW 3930   0.433   3.289   7.265 -0.1401 -2.1421 -1.3522
  207Sol     HW 3931   0.381   3.405   7.182  0.4271 -0.0340  1.1883
  207Sol     MW 3932   0.451   3.353   7.205  0.8292  0.2070  0.3577
  208Sol     OW 3933   3.127   1.984   5.264  0.2868  0.0336 -1.1382
  208Sol     HW 3934   3.166   1.969   5.178 -1.2660  0.6421 -1.9803
  208Sol     HW 3935   3.065   2.055   5.249 -0.0907  0.0480  0.4643
  208Sol     MW 3936   3.125   1.989   5.255 -0.0716  0.1504 -0.1198
  209Sol     OW 3937   3.002   3.100   4.232  0.7182  0.5333  0.0466
  209Sol     HW 3938   2.936   3.130   4.170 -1.1812 -0.7537  1.3569
  209Sol     HW 3939   3.007   3.170   4.297 -0.2758  0.1179  0.5899
  209Sol     MW 3940   2.996   3.109   4.232  0.0012 -0.3719 -0.1250
  210Sol     OW 3941   0.055   0.525   9.689 -0.0124 -0.3191  0.2148
  210Sol     HW 3942   0.151   0.528   9.696 -0.0081 -1.3211  0.6628
  210Sol     HW 3943   0.038   0.514   9.596  0.2358  2.3894 -0.1718
  210Sol     MW 3944   0.062   0.524   9.681  0.0031  0.0223 -0.1433
  211Sol     OW 3945   1.075   1.466   2.072  0.1697 -0.0175  0.5324
  211Sol     HW 3946   1.139   1.535   2.089  0.9190 -0.8231  1.0531
  211Sol     HW 3947   1.042   1.484   1.984  2.7370 -0.8313 -0.6461
  211Sol     MW 3948   1.078   1.473   2.065 -0.0408  0.1142 -0.1290
  212Sol     OW 3949   0.988   1.999   3.236  0.4907 -0.6440  0.4777
  212Sol     HW 3950   1.001   1.979   3.329  0.3435 -1.8058  0.2534
  212Sol     HW 3951   1.041   2.078   3.221  0.5729 -0.4894  1.5251
  212Sol     MW 3952   0.994   2.005   3.243  0.0262 -0.3565  0.0961
  213Sol     OW 3953   2.477   2.135   8.288 -0.4820 -0.3324  0.3795
  213Sol     HW 3954   2.551   2.075   8.280 -0.4356 -0.0510 -1.5041
  213Sol     HW 3955   2.409   2.084   8.332  0.6775 -0.7143  1.7779
  213Sol     MW 3956   2.478   2.125   8.291 -0.4185  0.1297 -1.0511
  214Sol     OW 3957   3.297   2.223   5.344 -0.4865 -0.4204 -0.1746
  214Sol     HW 3958   3.232   2.179   5.290 -0.6072  0.0999 -0.4652
  214Sol     HW 3959   3.256   2.231   5.430 -0.3153 -1.2028 -0.0189
  214Sol     MW 3960   3.288   2.220   5.347 -0.0161 -0.3365  0.2274
  215Sol     OW 3961   0.704   0.384   2.119  0.4107  0.1942  0.1938
  215Sol     HW 3962   0.675   0.468   2.082  3.0265  0.6401 -0.9235
  215Sol     HW 3963   0.630   0.324   2.103 -0.4476  1.6105 -1.3415
  215Sol     MW 3964   0.694   0.386   2.114 -0.4925  0.4810 -0.3546
  216Sol     OW 3965   1.707   1.516   1.527 -0.2438 -0.2661 -0.0536
  216Sol     HW 3966   1.712   1.596   1.474 -0.8474 -0.1961 -0.0082
  216Sol     HW 3967   1.798   1.487   1.534  0.0471  0.7374  0.4272
  216Sol     MW 3968   1.716   1.521   1.523  0.5282  0.0033  0.1023
  217Sol     OW 3969   1.525   2.036   4.400 -0.0917 -0.0396 -0.7298
  217Sol     HW 3970   1.431   2.021   4.415 -0.2778 -0.1460 -1.8979
  217Sol     HW 3971   1.566   1.952   4.419 -0.2800 -0.0972 -0.5725
  217Sol     MW 3972   1.520   2.027   4.403  0.3537 -0.2423 -0.0335
  218Sol     OW 3973   0.217   0.115   6.371 -0.1309 -0.3245 -0.0394
  218Sol     HW 3974   0.274   0.074   6.436  0.2011 -0.5166 -0.4535
  218Sol     HW 3975   0.242   0.075   6.288  0.4898  1.0403 -0.5119
  218Sol     MW 3976   0.224   0.107   6.370  0.2478 -0.5832 -0.4892
  219Sol     OW 3977   2.123   0.139   7.815  0.5526 -0.1157 -0.2410
  219Sol     HW 3978   2.182   0.119   7.742 -0.2145 -0.4894 -0.7609
  219Sol     HW 3979   2.083   0.055   7.837 -1.2425  0.4669 -1.1700
  219Sol     MW 3980   2.125   0.130   7.810 -0.3487 -0.5107  0.7555
  220Sol     OW 3981   1.085   3.000   5.708  0.3442  0.0561 -0.2565
  220Sol     HW 3982   1.100   3.030   5.618 -1.7153 -1.1333 -1.0362
  220Sol     HW 3983   0.993   3.020   5.724 -0.1781 -2.7588  0.4026
  220Sol     MW 3984   1.078   3.005   5.701 -0.1006  0.1802  0.1732
  221Sol     OW 3985   1.411   2.747   8.385 -0.4118 -0.2726  0.1626
  221Sol     HW 3986   1.464   2.812   8.430  0.7004 -1.8471  1.1914
  221Sol     HW 3987   1.350   2.798   8.332 -0.3769  1.6206  1.8667
  221Sol     MW 3988   1.410   2.757   8.385 -0.0371  0.2209  0.1049
  222Sol     OW 3989   2.527   0.227   2.832 -0.1279 -0.1894 -0.1249
  222Sol     HW 3990   2.511   0.154   2.892  0.2761 -1.5193 -1.6174
  222Sol     HW 3991   2.622   0.241   2.835  0.1551 -1.5823 -1.9521
  222Sol     MW 3992   2.534   0.222   2.838  0.2305 -1.0170 -0.1643
  223Sol     OW 3993   0.311   0.499   9.777 -0.1519  0.2845  0.4538
  223Sol     HW 3994   0.307   0.595   9.777 -0.3041  0.2801  0.9049
  223Sol     HW 3995   0.374   0.478   9.708  1.5850  0.7966  1.8305
  223Sol     MW 3996   0.317   0.506   9.771  0.3135  0.2542 -0.2153
  224Sol     OW 3997   2.462   3.340   5.720  0.0915  0.2130 -0.3783
  224Sol     HW 3998   2.511   3.326   5.802 -0.0708 -0.3310 -0.3684
  224Sol     HW 3999   2.395   3.271   5.721  0.0903  0.2088 -0.9687
  224Sol     MW 4000   2.461   3.332   5.728  0.0427  0.5607  0.1599
  225Sol     OW 4001   1.496   0.611   9.991 -0.0865 -0.3873 -0.1392
  225Sol     HW 4002   1.529   0.550   9.925 -1.6600 -0.3439 -0.9939
  225Sol     HW 4003   1.484   0.558  10.069 -2.4922 -1.4697 -1.1822
  225Sol     MW 4004   1.497   0.601   9.992  0.1101 -0.6246  0.2763
  226Sol     OW 4005   3.208   2.395   8.956 -1.2426  0.0195  0.1801
  226Sol     HW 4006   3.124   2.409   8.913 -1.2404  0.5316  0.3411
  226Sol     HW 4007   3.253   2.479   8.948 -1.3687  0.2169  1.4581
  226Sol     MW 4008   3.204   2.404   8.951 -0.7788  0.0453  0.5777
  227Sol     OW 4009   1.099   1.688   6.310  0.4478  0.6039  0.0108
  227Sol     HW 4010   1.069   1.773   6.342  0.3548  0.1078  1.2637
  227Sol     HW 4011   1.021   1.632   6.313  0.2222  0.7576 -1.9080
  227Sol     MW 4012   1.089   1.690   6.313 -0.1396 -0.4855 -0.0913
  228Sol     OW 4013   2.346   2.171   1.939 -0.0900  0.5141  0.3645
  228Sol     HW 4014   2.315   2.164   2.029  1.2572 -0.9771  0.7295
  228Sol     HW 4015   2.439   2.148   1.943  0.0888  0.8259 -1.3468
  228Sol     MW 4016   2.351   2.168   1.947  1.1358  0.4811  0.1105
  229Sol     OW 4017   2.200   1.984   9.683  0.1858 -0.1360 -0.1760
  229Sol     HW 4018   2.241   1.914   9.734  1.6840  0.6237 -0.3378
  229Sol     HW 4019   2.201   1.953   9.593 -2.3974 -1.4480  0.1798
  229Sol     MW 4020   2.203   1.975   9.680 -0.2491 -0.8016 -0.1265
  230Sol     OW 4021   0.221   1.685   2.679  0.4508 -0.0709  0.1228
  230Sol     HW 4022   0.131   1.716   2.683  1.1366  2.1346 -0.4295
  230Sol     HW 4023   0.263   1.721   2.758  0.7926 -1.2662  0.4953
  230Sol     MW 4024   0.217   1.691   2.686 -0.1259  0.0360  0.1312
  231Sol     OW 4025   2.575   0.678   7.213 -0.6960 -0.0284 -0.1109
  231Sol     HW 4026   2.517   0.602   7.208  0.8479 -1.2807  0.6548
  231Sol     HW 4027   2.554   0.729   7.135 -1.4224 -1.4651 -0.8758
  231Sol     MW 4028   2.568   0.676   7.206  0.3132  0.1375 -0.3653
  232Sol     OW 4029   2.252   0.552   5.094  0.3877  0.3405  0.7963
  232Sol     HW 4030   2.326   0.610   5.074 -0.5946  1.3586  0.0076
  232Sol     HW 4031   2.201   0.600   5.158 -0.1118  0.0790  0.5950
  232Sol     MW 4032   2.254   0.562   5.098  0.0981 -0.7781 -0.4115
  233Sol     OW 4033   1.071   0.525   2.458  0.2239  0.4896 -0.6608
  233Sol     HW 4034   1.007   0.593   2.479  1.3082  2.1443 -2.4955
  233Sol     HW 4035   1.135   0.529   2.529 -0.6127  0.2088  0.1207
  233Sol     MW 4036   1.071   0.531   2.466 -0.1367 -0.2328 -0.0498
  234Sol     OW 4037   0.790   0.538   2.828 -0.3647  0.5077  0.0677
  234Sol     HW 4038   0.716   0.477   2.826 -1.7220  2.1018  0.6482
  234Sol     HW 4039   0.860   0.490   2.873 -1.6884 -0.3244  1.2700
  234Sol     MW 4040   0.790   0.528   2.832 -0.2219  0.0708  0.2490
  235Sol     OW 4041   0.625   0.314   3.730  0.3832 -0.0468 -0.3772
  235Sol     HW 4042   0.676   0.329   3.650 -0.1984  1.5348 -0.4545
  235Sol     HW 4043   0.629   0.219   3.743  2.2072 -0.0842 -1.1315
  235Sol     MW 4044   0.630   0.306   3.724  0.0505 -0.2755  0.3885
  236Sol     OW 4045   1.043   0.098   7.022 -0.3361 -0.1447  0.5348
  236Sol     HW 4046   1.109   0.064   7.083 -2.2343 -2.1970  1.4903
  236Sol     HW 4047   1.089   0.167   6.973  2.1802 -0.7692  1.9465
  236Sol     MW 4048   1.053   0.102   7.023 -0.7006  0.0073  0.0530
  237Sol     OW 4049   0.769   2.732   4.595  0.7960 -0.5224 -0.1445
  237Sol     HW 4050   0.688   2.739   4.544  0.8810 -0.6232 -0.2937
  237Sol     HW 4051   0.839   2.744   4.531  0.8837  2.4975  0.4488
  237Sol     MW 4052   0.768   2.733   4.585  1.0857  0.0100 -0.1099
  238Sol     OW 4053   1.349   1.101   6.774 -0.1989 -0.4263  0.5250
  238Sol     HW 4054   1.350   1.010   6.804  0.9615 -0.0459  1.6310
  238Sol     HW 4055   1.441   1.126   6.768 -0.4682  0.2426 -1.1452
  238Sol     MW 4056   1.357   1.095   6.776  0.0773 -0.1622 -0.8744
  239Sol     OW 4057   1.456   2.514   4.990 -0.4440 -0.3496 -0.4934
  239Sol     HW 4058   1.443   2.435   5.042 -0.2085  0.4419  0.7834
  239Sol     HW 4059   1.531   2.557   5.031 -1.9575  1.6734  0.2147
  239Sol     MW 4060   1.462   2.511   4.998  0.0349 -0.0935  0.0571
  240Sol     OW 4061   1.930   0.273   9.539  0.0079 -0.4019 -0.3723
  240Sol     HW 4062   1.890   0.189   9.516 -0.8435  0.2450 -1.3059
  240Sol     HW 4063   2.007   0.280   9.482 -0.1238 -0.3946 -0.5517
  240Sol     MW 4064   1.934   0.266   9.532  0.1394  0.0127  0.1193
  241Sol     OW 4065   2.411   0.682   6.912 -0.5711 -0.0672 -0.2281
  241Sol     HW 4066   2.318   0.677   6.933 -0.1656 -1.9572  1.3106
  241Sol     HW 4067   2.441   0.763   6.952 -1.1637 -0.4397  0.9826
  241Sol     MW 4068   2.406   0.689   6.917  0.1019  0.6906 -0.3135
  242Sol     OW 4069   1.115   0.715   5.160  0.4600  0.2368  0.0893
  242Sol     HW 4070   1.180   0.778   5.130  2.1884 -2.0745 -1.2185
  242Sol     HW 4071   1.162   0.662   5.224 -0.4951 -0.7039  0.0198
  242Sol     MW 4072   1.125   0.716   5.163  0.0400  0.7975 -0.3886
  243Sol     OW 4073   1.495   1.309   3.698 -0.1773  0.6241  0.4078
  243Sol     HW 4074   1.535   1.318   3.784  1.5530  1.0156 -0.4250
  243Sol     HW 4075   1.550   1.361   3.640 -1.6641  0.8401 -0.8369
  243Sol     MW 4076   1.504   1.314   3.700  0.8023  0.6032  0.2532
  244Sol     OW 4077   0.525   0.771   6.746 -0.2935 -0.1139  0.5525
  244Sol     HW 4078   0.478   0.811   6.672 -0.6207 -0.0239  0.8082
  244Sol     HW 4079   0.460   0.765   6.815 -0.0216 -0.3262  0.7918
  244Sol     MW 4080   0.515   0.774   6.745  0.3327  0.7364 -0.2028
  245Sol     OW 4081   2.898   1.544   9.290 -0.0075  0.1899  0.1168
  245Sol     HW 4082   2.870   1.599   9.218  0.1491  0.7981  0.5173
  245Sol     HW 4083   2.990   1.568   9.304  0.1676 -0.4286  0.0558
  245Sol     MW 4084   2.904   1.551   9.285 -0.5764 -0.1331 -0.1649
  246Sol     OW 4085   2.504   2.495   9.224 -0.0543  0.1097  0.3686
  246Sol     HW 4086   2.467   2.446   9.297  1.7579  0.6823  1.7129
  246Sol     HW 4087   2.439   2.564   9.206 -0.0580  0.5559  2.0791
  246Sol     MW 4088   2.495   2.497   9.229  0.2662  0.3316 -0.2031
  247Sol     OW 4089   1.778   2.602   5.802 -0.1051 -0.0702  0.2473
  247Sol     HW 4090   1.831   2.620   5.880  0.7960 -0.6099 -0.2318
  247Sol     HW 4091   1.718   2.676   5.796  0.7913  0.6950  0.6270
  247Sol     MW 4092   1.777   2.610   5.809  0.3910  0.0851  0.3160
  248Sol     OW 4093   1.333   3.337   9.254 -0.1898 -0.4258 -0.1826
  248Sol     HW 4094   1.374   3.264   9.208 -1.8091 -0.5569 -1.4941
  248Sol     HW 4095   1.318   3.304   9.342 -2.6428 -2.4387 -1.2720
  248Sol     MW 4096   1.335   3.328   9.257  0.1804  0.1094 -0.0688
  249Sol     OW 4097   1.155   1.796   8.910  0.4254  0.2299 -0.2124
  249Sol     HW 4098   1.098   1.768   8.838  0.9939  0.4829 -0.7717
  249Sol     HW 4099   1.153   1.892   8.906  1.0013  0.2405 -0.3293
  249Sol     MW 4100   1.150   1.802   8.903 -0.0332 -0.0384 -0.6341
  250Sol     OW 4101   3.040   0.155   3.427  0.0108 -0.2199 -0.0251
  250Sol     HW 4102   2.978   0.227   3.437 -0.8859 -0.7788 -1.3298
  250Sol     HW 4103   2.984   0.077   3.421  0.9106 -0.8805  0.1729
  250Sol     MW 4104   3.029   0.154   3.427 -0.9575 -0.2685  0.1719
  251Sol     OW 4105   2.423   0.082   5.984 -0.4660 -0.4955  0.0446
  251Sol     HW 4106   2.376   0.111   5.906 -0.2997  0.0701  0.1512
  251Sol     HW 4107   2.449   0.163   6.028  0.3477 -0.8055  0.1447
  251Sol     MW 4108   2.421   0.092   5.981  0.0144  0.0634  0.2241
  252Sol     OW 4109   1.050   1.017   3.196 -0.4190  0.2497 -0.2889
  252Sol     HW 4110   1.027   1.009   3.288 -0.0264  0.8683 -0.1306
  252Sol     HW 4111   0.967   1.015   3.149 -0.5411 -1.3249 -0.0168
  252Sol     MW 4112   1.041   1.017   3.200 -0.1123 -0.3787  0.3201
  253Sol     OW 4113   0.772   0.704   1.884  0.1493  0.4046  0.0181
  253Sol     HW 4114   0.746   0.794   1.866  0.9039  0.7707  0.7335
  253Sol     HW 4115   0.868   0.706   1.882  0.1629 -0.8251 -2.0982
  253Sol     MW 4116   0.778   0.712   1.882  0.1507 -0.2062 -0.3042
  254Sol     OW 4117   2.481   1.830   7.289  0.5208 -0.3707  0.9557
  254Sol     HW 4118   2.463   1.879   7.370  0.0951 -1.2962  1.4272
  254Sol     HW 4119   2.565   1.788   7.305  1.2849  0.8380  0.2350
  254Sol     MW 4120   2.487   1.831   7.298  0.3758 -0.3955 -0.0434
  255Sol     OW 4121   3.241   2.314   1.849  0.0731  0.8669 -0.2479
  255Sol     HW 4122   3.196   2.386   1.893 -0.8297  0.2507 -0.1559
  255Sol     HW 4123   3.178   2.243   1.849  0.5974  0.4010 -1.2642
  255Sol     MW 4124   3.232   2.314   1.853 -0.6855  0.1929 -1.0144
  256Sol     OW 4125   2.217   3.277   8.651 -0.6503 -0.5440  0.2490
  256Sol     HW 4126   2.266   3.202   8.685 -0.5753 -0.0631  1.2203
  256Sol     HW 4127   2.149   3.292   8.716 -0.9013 -0.0134 -0.1401
  256Sol     MW 4128   2.215   3.272   8.660 -0.0269  0.0727  0.0723
  257Sol     OW 4129   0.221   0.356   9.045  0.6290 -0.8770  0.1543
  257Sol     HW 4130   0.130   0.366   9.074  1.0576 -0.4998  1.3533
  257Sol     HW 4131   0.215   0.356   8.949 -0.6265 -0.7862  0.2258
  257Sol     MW 4132   0.212   0.357   9.039 -0.3473  0.5861 -0.3795
  258Sol     OW 4133   0.994   1.725   4.041 -0.0257 -0.2094 -0.0101
  258Sol     HW 4134   0.989   1.811   4.000 -0.2658 -0.7441 -1.1412
  258Sol     HW 4135   1.063   1.679   3.994 -0.3721 -0.8749  0.1173
  258Sol     MW 4136   0.999   1.728   4.033  0.4616 -0.0142 -0.1683
  259Sol     OW 4137   2.837   3.443   3.716 -0.4040 -0.0303  0.4667
  259Sol     HW 4138   2.748   3.410   3.728  0.2815 -1.2186  2.5625
  259Sol     HW 4139   2.866   3.404   3.634 -1.6375 -0.0557  0.0364
  259Sol     MW 4140   2.832   3.436   3.710 -0.2460 -0.3784 -0.3077
  260Sol     OW 4141   2.187   1.938   9.390  0.3400 -0.1630  0.9427
  260Sol     HW 4142   2.275   1.962   9.360 -1.1678  2.0528 -1.8981
  260Sol     HW 4143   2.190   1.843   9.398  2.7163 -0.2061 -0.0411
  260Sol     MW 4144   2.195   1.932   9.388 -0.2887 -0.1281  0.4547
  261Sol     OW 4145   1.981   0.237   4.225 -0.3753  0.2854  0.1824
  261Sol     HW 4146   2.060   0.189   4.249 -0.4942  0.1356  0.2688
  261Sol     HW 4147   1.993   0.324   4.265  1.0963  1.2529 -2.2266
  261Sol     MW 4148   1.989   0.241   4.231 -0.5830 -0.1965 -0.0602
  262Sol     OW 4149   2.445   2.941   3.324 -0.1516 -0.0659 -0.5234
  262Sol     HW 4150   2.426   3.034   3.307  2.4964  0.4049 -1.1163
  262Sol     HW 4151   2.399   2.895   3.255  0.9921  1.0613 -2.0850
  262Sol     MW 4152   2.439   2.946   3.316 -0.4236 -0.3679 -0.0745
  263Sol     OW 4153   1.899   0.394   3.638  0.0082 -0.4961  0.2112
  263Sol     HW 4154   1.824   0.454   3.632  0.9084  0.5147 -1.0168
  263Sol     HW 4155   1.937   0.413   3.724 -1.5649 -1.5349  1.1585
  263Sol     MW 4156   1.896   0.401   3.646  0.4485  0.1112  0.1299
  264Sol     OW 4157   3.231   2.783   2.246  0.1139  0.2539 -0.8071
  264Sol     HW 4158   3.141   2.767   2.218 -0.2244 -0.0480  0.3929
  264Sol     HW 4159   3.222   2.813   2.337  1.1193  1.8197 -1.2129
  264Sol     MW 4160   3.222   2.785   2.252 -0.0269  0.0955  0.2711
  265Sol     OW 4161   0.457   0.883   8.089 -0.1055 -0.0235  0.2672
  265Sol     HW 4162   0.384   0.838   8.046  0.3166  0.2966 -0.8078
  265Sol     HW 4163   0.529   0.877   8.026  0.5995  0.2621  1.0320
  265Sol     MW 4164   0.457   0.878   8.080  0.7473 -0.3388 -0.5315
  266Sol     OW 4165   0.736   1.918   3.151 -0.2285 -0.2307  0.9112
  266Sol     HW 4166   0.828   1.936   3.135 -1.0500  3.7655  0.2088
  266Sol     HW 4167   0.693   1.932   3.067 -1.6249 -1.0363  1.4670
  266Sol     MW 4168   0.740   1.921   3.142 -0.2128 -0.1110 -0.3306
  267Sol     OW 4169   1.115   2.949   9.844 -0.0056  0.2471  0.3288
  267Sol     HW 4170   1.156   3.029   9.811  0.3718  0.0824  0.4062
  267Sol     HW 4171   1.184   2.883   9.842 -0.6318 -0.3925 -0.8984
  267Sol     MW 4172   1.125   2.950   9.841 -0.7070 -0.3948 -0.1117
  268Sol     OW 4173   3.253   2.477   7.338  0.1769 -0.3622 -0.2928
  268Sol     HW 4174   3.316   2.470   7.267 -0.1046  0.1402 -0.5884
  268Sol     HW 4175   3.305   2.465   7.418  0.8198  1.0637 -0.4798
  268Sol     MW 4176   3.263   2.475   7.339 -0.0762 -0.0365  0.0667
  269Sol     OW 4177   0.279   0.233   5.083 -0.8655  0.3133  0.2873
  269Sol     HW 4178   0.263   0.207   5.173  1.9480  0.0984  0.7630
  269Sol     HW 4179   0.353   0.180   5.055 -2.4256 -0.4803 -2.5703
  269Sol     MW 4180   0.284   0.226   5.088 -0.0944  0.4361  0.3441
  270Sol     OW 4181   1.287   1.795   4.040  0.8679  0.0128  0.4089
  270Sol     HW 4182   1.290   1.860   3.970 -0.0494 -1.3835 -0.9613
  270Sol     HW 4183   1.374   1.757   4.043  1.4458  1.3689  1.3031
  270Sol     MW 4184   1.295   1.798   4.034 -0.4193 -0.4553  0.0054
  271Sol     OW 4185   2.820   2.816   9.926 -0.9082 -0.2336  0.0727
  271Sol     HW 4186   2.842   2.780  10.012 -0.6819 -0.3873 -0.0486
  271Sol     HW 4187   2.863   2.901   9.923 -0.3172 -0.5429 -0.1759
  271Sol     MW 4188   2.826   2.820   9.933 -0.3226  0.3880  0.0610
  272Sol     OW 4189   1.470   1.911   6.722 -0.2358  0.1635  0.1421
  272Sol     HW 4190   1.401   1.845   6.725  0.9803 -1.1491 -0.1157
  272Sol     HW 4191   1.551   1.861   6.715  0.7343  1.6828  0.1662
  272Sol     MW 4192   1.471   1.901   6.722  0.5149  0.1943 -0.2123
  273Sol     OW 4193   0.109   3.161   4.257 -0.1411 -0.5771  0.1967
  273Sol     HW 4194   0.163   3.148   4.180  0.1030 -0.1371  0.2916
  273Sol     HW 4195   0.128   3.250   4.286 -2.8946  0.5810 -1.3029
  273Sol     MW 4196   0.115   3.168   4.253  0.1037  0.1650 -0.1153
  274Sol     OW 4197   0.639   0.722   9.139 -0.7134 -0.1346  0.1781
  274Sol     HW 4198   0.562   0.686   9.095  0.2335 -0.4822 -1.2222
  274Sol     HW 4199   0.607   0.803   9.179 -2.0065 -0.7086  0.3309
  274Sol     MW 4200   0.629   0.726   9.139 -0.0198 -0.1803 -0.8987
  275Sol     OW 4201   3.194   0.545   6.869  0.4959 -0.2748  0.7513
  275Sol     HW 4202   3.214   0.606   6.941 -1.4456 -0.2331  1.2846
  275Sol     HW 4203   3.109   0.510   6.891  1.3019 -2.7110  0.0810
  275Sol     MW 4204   3.189   0.548   6.878 -0.0824  0.0296  0.5212
  276Sol     OW 4205   2.505   3.448   4.990  0.5725 -0.7360  0.6017
  276Sol     HW 4206   2.462   3.418   4.911 -0.7583 -1.0232  1.4204
  276Sol     HW 4207   2.543   3.533   4.966  0.6746 -1.0832 -0.4947
  276Sol     MW 4208   2.505   3.453   4.981  0.2125  0.0073  0.2293
  277Sol     OW 4209   0.215   1.121   3.701 -0.0439 -0.4550 -0.0378
  277Sol     HW 4210   0.173   1.124   3.787 -2.1134 -1.9845 -0.9516
  277Sol     HW 4211   0.149   1.081   3.644  2.4891 -2.4470 -1.6658
  277Sol     MW 4212   0.205   1.118   3.703  0.1156  0.4479 -0.3660
  278Sol     OW 4213   1.185   2.143   6.964 -0.2311  0.4260  0.4483
  278Sol     HW 4214   1.210   2.123   7.055 -1.1827  0.3110  0.6897
  278Sol     HW 4215   1.143   2.229   6.970 -2.7698 -0.7831  0.5572
  278Sol     MW 4216   1.184   2.149   6.973  0.1728  0.0779 -0.1766
  279Sol     OW 4217   2.858   1.642   6.824 -0.1677 -0.2176  0.1267
  279Sol     HW 4218   2.940   1.616   6.865 -0.9435 -0.3001  1.6714
  279Sol     HW 4219   2.855   1.737   6.834  0.0752 -0.1389 -0.5601
  279Sol     MW 4220   2.865   1.648   6.829  0.3696  0.5527 -0.4328
  280Sol     OW 4221   1.262   1.103   7.301 -0.6018  0.8782  0.0828
  280Sol     HW 4222   1.218   1.085   7.384 -0.6436  0.3498 -0.0471
  280Sol     HW 4223   1.198   1.153   7.250 -1.4834 -0.8120 -0.5116
  280Sol     MW 4224   1.252   1.106   7.303 -0.7340 -0.3736  0.2587
  281Sol     OW 4225   2.900   0.755   5.417 -0.3000  0.3122 -0.2817
  281Sol     HW 4226   2.983   0.766   5.463 -1.5099  0.1870  1.9863
  281Sol     HW 4227   2.887   0.660   5.413  0.3949  0.2604 -2.0505
  281Sol     MW 4228   2.906   0.747   5.421 -0.0400 -0.1748 -0.1531
  282Sol     OW 4229   0.109   0.946   9.758  0.3155 -0.1388  0.2822
  282Sol     HW 4230   0.190   0.896   9.769  0.7208  0.1901 -1.1157
  282Sol     HW 4231   0.132   1.035   9.784 -0.0388 -0.3765  1.4410
  282Sol     MW 4232   0.118   0.949   9.761 -0.9893  0.0497 -0.5123
  283Sol     OW 4233   2.476   1.252   3.292 -0.4941  0.2647 -0.1009
  283Sol     HW 4234   2.388   1.260   3.328  0.3946  0.2699  2.2040
  283Sol     HW 4235   2.502   1.342   3.272 -1.0470  0.2530 -0.8732
  283Sol     MW 4236   2.470   1.261   3.294 -0.3017 -0.4238  0.1736
  284Sol     OW 4237   2.335   3.187   6.980 -0.3536 -0.5312  0.1285
  284Sol     HW 4238   2.396   3.161   6.911  0.9529  1.4507  0.4780
  284Sol     HW 4239   2.273   3.115   6.986  0.3842 -1.3982 -2.0958
  284Sol     MW 4240   2.335   3.178   6.974  0.1733  0.2180 -0.3266
  285Sol     OW 4241   0.698   3.057   6.381  0.1233  0.4133 -0.4105
  285Sol     HW 4242   0.777   3.097   6.418 -0.1846  1.3320 -0.7436
  285Sol     HW 4243   0.628   3.084   6.441  0.4319 -2.5555  1.3876
  285Sol     MW 4244   0.699   3.063   6.390 -0.0523  0.0390  0.4977
  286Sol     OW 4245   0.429   1.032   2.959 -0.1961 -0.0327 -0.1372
  286Sol     HW 4246   0.368   1.105   2.949  0.1875  0.1346 -1.4505
  286Sol     HW 4247   0.442   1.023   3.053 -0.3334  1.5313  0.0389
  286Sol     MW 4248   0.425   1.038   2.966 -0.3702 -0.0268  0.2877
  287Sol     OW 4249   2.177   0.703   7.023  0.2659 -0.2713 -0.1034
  287Sol     HW 4250   2.108   0.656   7.070 -0.2475  2.7112  2.2515
  287Sol     HW 4251   2.130   0.756   6.958  0.6276 -0.9451 -0.9186
  287Sol     MW 4252   2.167   0.703   7.021 -0.0223  0.1635 -0.0112
  288Sol     OW 4253   0.340   2.875   3.427  0.1113  0.2026  0.3400
  288Sol     HW 4254   0.253   2.890   3.389 -0.3209  0.8988  1.5601
  288Sol     HW 4255   0.348   2.780   3.431 -0.9790  0.1245  1.0261
  288Sol     MW 4256   0.333   2.868   3.424  0.0336  0.3846 -1.0225
  289Sol     OW 4257   0.708   1.177   8.892 -0.0945 -0.3755  0.0769
  289Sol     HW 4258   0.707   1.099   8.948 -0.6563  0.0400  0.6502
  289Sol     HW 4259   0.791   1.220   8.913 -0.9440  0.5325  1.6475
  289Sol     MW 4260   0.715   1.174   8.899 -0.6510  0.4171  0.3295
  290Sol     OW 4261   1.527   1.555   9.783 -0.2144 -0.8719 -0.3037
  290Sol     HW 4262   1.541   1.464   9.756  1.3830 -0.6325 -0.3770
  290Sol     HW 4263   1.612   1.597   9.767 -0.1583  0.0124  2.1378
  290Sol     MW 4264   1.536   1.550   9.779 -0.3709  0.0835 -0.0672
  291Sol     OW 4265   0.018   2.199   1.620 -0.2327  0.5933 -0.0814
  291Sol     HW 4266  -0.027   2.252   1.686 -1.9897  0.0043 -0.7762
  291Sol     HW 4267  -0.051   2.147   1.580  1.0682 -0.2612 -1.2592
  291Sol     MW 4268   0.008   2.199   1.622  0.1995 -0.2202  0.4233
  292Sol     OW 4269   0.376   2.563   3.127 -0.5431 -0.4370 -0.3375
  292Sol     HW 4270   0.337   2.519   3.203 -0.2516  1.2273  0.7835
  292Sol     HW 4271   0.306   2.618   3.092 -0.5521 -0.8901 -1.0541
  292Sol     MW 4272   0.366   2.564   3.130 -0.2220 -0.0597 -0.2572
  293Sol     OW 4273   1.871   1.383   6.779  0.0038  0.1257 -1.0352
  293Sol     HW 4274   1.943   1.424   6.825  0.1972 -1.8020  0.4342
  293Sol     HW 4275   1.792   1.413   6.824 -0.1645  2.2667 -2.6680
  293Sol     MW 4276   1.870   1.389   6.787  0.1101 -0.9196  0.1211
  294Sol     OW 4277   0.563   0.382   2.814 -0.0897 -0.2850 -0.2817
  294Sol     HW 4278   0.554   0.290   2.836  1.4304 -1.0242 -2.5400
  294Sol     HW 4279   0.501   0.396   2.742  0.2604  0.2354 -0.4871
  294Sol     MW 4280   0.557   0.375   2.809  0.7127  0.0453 -0.0009
  295Sol     OW 4281   1.365   1.795   7.844 -0.2844  0.2664  0.4783
  295Sol     HW 4282   1.404   1.745   7.772 -0.6064  0.0080  0.4790
  295Sol     HW 4283   1.328   1.728   7.902 -1.6447  0.5359 -0.0439
  295Sol     MW 4284   1.365   1.784   7.843  0.3831  0.1984  0.1600
  296Sol     OW 4285   1.352   1.630   1.819  0.5197  0.7191  0.1348
  296Sol     HW 4286   1.443   1.634   1.789  0.1912 -0.1595 -0.9982
  296Sol     HW 4287   1.321   1.544   1.790 -1.2938  1.8144 -1.2345
  296Sol     MW 4288   1.358   1.623   1.814 -0.5214  0.3323 -0.3964
  297Sol     OW 4289   1.454   2.405   7.457  0.7051  0.1570  0.1339
  297Sol     HW 4290   1.463   2.463   7.532  2.9338  0.3962 -0.2760
  297Sol     HW 4291   1.403   2.330   7.490  0.4307  0.9221  1.4665
  297Sol     MW 4292   1.450   2.403   7.467 -0.4132 -0.4154  0.0122
  298Sol     OW 4293   1.961   1.260   7.439 -0.2509 -0.1403 -0.0191
  298Sol     HW 4294   1.927   1.338   7.484 -0.8130  0.1591 -0.9381
  298Sol     HW 4295   2.055   1.275   7.431 -0.5259  1.0598 -1.3311
  298Sol     MW 4296   1.966   1.269   7.442  0.0890  0.1237 -0.0169
  299Sol     OW 4297   2.587   0.143   8.404  0.2566  0.9321 -0.0371
  299Sol     HW 4298   2.553   0.054   8.409 -0.8436  1.3746  0.5641
  299Sol     HW 4299   2.640   0.153   8.483  0.7418  0.6680 -0.3282
  299Sol     MW 4300   2.588   0.136   8.412  0.0543 -0.0585  0.3925
  300Sol     OW 4301   0.489   0.398   9.591  0.0734 -0.1920  0.0400
  300Sol     HW 4302   0.408   0.349   9.576 -0.7144  1.0378  0.1699
  300Sol     HW 4303   0.489   0.466   9.524  1.1104 -0.3087 -0.0888
  300Sol     MW 4304   0.481   0.400   9.584  0.0529  0.0335  0.7088
  301Sol     OW 4305   0.818   0.020   5.588 -0.1453  0.1801  0.0207
  301Sol     HW 4306   0.823  -0.071   5.557 -1.8721  0.0154  0.1693
  301Sol     HW 4307   0.810   0.073   5.509 -1.1331  0.0323  0.0137
  301Sol     MW 4308   0.818   0.016   5.578 -0.1213 -0.1433 -0.1681
  302Sol     OW 4309   2.062   2.322   2.921  0.3802  0.1315 -0.0820
  302Sol     HW 4310   2.013   2.303   2.841 -0.0989  0.9995 -0.0073
  302Sol     HW 4311   2.034   2.255   2.983 -0.4625  0.4274 -0.1429
  302Sol     MW 4312   2.055   2.314   2.919 -0.3374 -0.0094 -0.2686
  303Sol     OW 4313   1.837   0.439   8.114  0.4276 -0.3205 -0.4442
  303Sol     HW 4314   1.876   0.489   8.043 -0.5349 -0.7939 -1.3323
  303Sol     HW 4315   1.871   0.350   8.104  1.3618 -0.0812  0.5276
  303Sol     MW 4316   1.843   0.435   8.107 -0.1739 -0.5961  0.1866
  304Sol     OW 4317   2.589   2.698   8.451 -0.5671  0.0119 -0.1140
  304Sol     HW 4318   2.571   2.734   8.364  0.4715 -1.4834 -0.9648
  304Sol     HW 4319   2.512   2.646   8.472 -0.7821  0.3072 -0.1559
  304Sol     MW 4320   2.581   2.697   8.446  0.1961  0.3427  0.1803
  305Sol     OW 4321   3.153   1.181   5.112 -0.0596 -0.1793  0.0915
  305Sol     HW 4322   3.099   1.141   5.043  1.4217  1.9139 -2.3522
  305Sol     HW 4323   3.100   1.254   5.144 -0.4221 -0.6755  0.6242
  305Sol     MW 4324   3.143   1.184   5.109 -0.5076  0.2661  0.5926
  306Sol     OW 4325   2.153   0.751   4.469 -0.1784  0.1305  0.3903
  306Sol     HW 4326   2.164   0.735   4.563  1.6476  0.0840  0.1972
  306Sol     HW 4327   2.243   0.757   4.435 -0.8114  0.2660 -1.3321
  306Sol     MW 4328   2.162   0.750   4.474 -0.4600 -0.3160  0.0998
  307Sol     OW 4329   0.420   1.743   8.839  0.5511  0.1836  0.2164
  307Sol     HW 4330   0.472   1.748   8.919  0.7005 -0.9586  0.1989
  307Sol     HW 4331   0.425   1.651   8.813  2.4032  0.9460 -2.3430
  307Sol     MW 4332   0.425   1.735   8.844  0.3857  0.2218 -0.4524
  308Sol     OW 4333   1.709   2.677   1.854  0.1742  0.0371 -0.2546
  308Sol     HW 4334   1.709   2.772   1.844 -1.3342  0.2272  1.2756
  308Sol     HW 4335   1.625   2.648   1.817  1.4123 -0.9244 -2.4035
  308Sol     MW 4336   1.701   2.683   1.850  0.1474 -0.0368  0.0442
  309Sol     OW 4337   1.470   2.728   8.828  0.1779  0.1627 -0.6588
  309Sol     HW 4338   1.490   2.821   8.830  2.5745 -0.3155 -0.3618
  309Sol     HW 4339   1.391   2.719   8.883 -1.0144  2.1841 -1.9805
  309Sol     MW 4340   1.465   2.735   8.834  0.2114 -0.0570 -0.5392
  310Sol     OW 4341   0.027   2.863   7.183  0.4905 -0.1760 -0.1415
  310Sol     HW 4342   0.042   2.958   7.180 -0.8988  0.1725  2.5480
  310Sol     HW 4343   0.039   2.840   7.275  0.8747 -2.6440 -0.7747
  310Sol     MW 4344   0.030   2.870   7.191 -0.2852 -0.2234  0.2897
  311Sol     OW 4345   0.066   1.243   4.969  0.0716  0.4081  0.2499
  311Sol     HW 4346  -0.016   1.241   5.019  0.4793  1.1959  0.9624
  311Sol     HW 4347   0.048   1.301   4.896 -0.7135 -1.2049 -0.8716
  311Sol     MW 4348   0.057   1.248   4.967 -0.2905  0.7412  0.0933
  312Sol     OW 4349   0.607   1.101   7.553  0.5212 -0.4767 -0.3165
  312Sol     HW 4350   0.655   1.137   7.629 -3.0004  0.2944  1.6459
  312Sol     HW 4351   0.642   1.149   7.478  1.4886  1.3970  1.2808
  312Sol     MW 4352   0.615   1.109   7.553 -0.2252  0.1743  0.5306
  313Sol     OW 4353   3.147   3.350   4.931 -0.3436  0.1708 -0.1843
  313Sol     HW 4354   3.144   3.275   4.991  0.1095  0.7389  0.5596
  313Sol     HW 4355   3.218   3.404   4.965 -1.5198  1.5834  0.0616
  313Sol     MW 4356   3.153   3.348   4.940  0.0790  0.2598  0.0195
  314Sol     OW 4357   1.819   0.756   8.530 -0.3608  0.9297 -0.0147
  314Sol     HW 4358   1.770   0.743   8.611  0.5730  0.3643  0.4715
  314Sol     HW 4359   1.764   0.716   8.462 -0.5515  0.2624  0.5313
  314Sol     MW 4360   1.809   0.751   8.531 -0.0489 -0.2462 -0.0148
  315Sol     OW 4361   1.746   1.082   4.387 -0.1055  0.0575  0.6595
  315Sol     HW 4362   1.652   1.084   4.406  0.0475 -1.6683  1.7466
  315Sol     HW 4363   1.776   1.000   4.426  1.8240  0.5099  0.1652
  315Sol     MW 4364   1.740   1.075   4.393  0.3612 -0.3595  0.5204
  316Sol     OW 4365   2.452   2.605   7.053  0.3793 -0.0873  0.6093
  316Sol     HW 4366   2.367   2.608   7.098  0.0034  0.2193 -0.1055
  316Sol     HW 4367   2.463   2.692   7.015  0.2431 -0.6063 -0.6769
  316Sol     MW 4368   2.445   2.613   7.053 -0.0405 -0.1534  0.2968
  317Sol     OW 4369   0.296   2.051   4.800  0.0516 -0.5040  0.3668
  317Sol     HW 4370   0.314   2.039   4.707  0.2517 -1.8698  0.5750
  317Sol     HW 4371   0.292   1.963   4.836 -0.5913 -0.0096  1.5549
  317Sol     MW 4372   0.297   2.042   4.795  0.0356  0.2422  0.1693
  318Sol     OW 4373   0.014   0.084   8.520 -0.1771  0.4940 -0.0853
  318Sol     HW 4374   0.032   0.112   8.610  0.2420 -0.2884  0.0775
  318Sol     HW 4375   0.057  -0.001   8.512 -1.5677 -0.1754 -0.5304
  318Sol     MW 4376   0.019   0.079   8.527 -0.5909  0.1573 -0.0087
  319Sol     OW 4377   0.513   0.154   3.488  0.0269  0.3150 -0.2218
  319Sol     HW 4378   0.599   0.110   3.493 -0.3421 -0.3866  0.0435
  319Sol     HW 4379   0.534   0.245   3.468  0.8398  0.1527 -0.1392
  319Sol     MW 4380   0.523   0.158   3.486 -0.2020 -0.3307 -0.0692
  320Sol     OW 4381   3.005   1.055   5.761 -0.2113 -0.0391 -0.0575
  320Sol     HW 4382   3.005   1.151   5.761 -0.6179 -0.0380 -0.4836
  320Sol     HW 4383   2.914   1.031   5.775 -0.0026 -0.3694  0.7570
  320Sol     MW 4384   2.997   1.061   5.762  0.1208  0.1578 -0.0548
  321Sol     OW 4385   0.684   0.142   9.210 -0.2571 -0.1861 -0.3083
  321Sol     HW 4386   0.771   0.150   9.171  0.1788 -1.0389  0.4726
  321Sol     HW 4387   0.629   0.201   9.158  1.0193  1.2341 -0.0748
  321Sol     MW 4388   0.687   0.148   9.202 -0.0842  0.1667  0.3107
  322Sol     OW 4389   3.164   2.578   7.748  0.0811  0.1669  0.0772
  322Sol     HW 4390   3.129   2.646   7.805 -1.7758 -0.3015 -0.4563
  322Sol     HW 4391   3.184   2.505   7.807 -1.2693 -0.0966  0.2399
  322Sol     MW 4392   3.163   2.578   7.758  0.6115  0.1349  0.5901
  323Sol     OW 4393   2.420   3.398   4.367 -0.2162  0.4070  0.0307
  323Sol     HW 4394   2.500   3.345   4.364 -0.7296 -0.3437 -0.9563
  323Sol     HW 4395   2.441   3.472   4.423  0.8002 -0.4024  0.7203
  323Sol     MW 4396   2.429   3.400   4.372 -0.1744  0.1409 -0.0419
  324Sol     OW 4397   1.634   3.381   5.578  0.2652  0.2933  0.2583
  324Sol     HW 4398   1.655   3.398   5.670 -0.7105 -0.5911  0.6644
  324Sol     HW 4399   1.642   3.285   5.570  0.7810  0.4100 -0.6964
  324Sol     MW 4400   1.637   3.374   5.586  0.0094  0.1285  0.8530
  325Sol     OW 4401   2.301   2.227   6.243  0.0928 -0.0802 -0.3347
  325Sol     HW 4402   2.371   2.162   6.246  0.5551  0.3816 -1.0270
  325Sol     HW 4403   2.224   2.181   6.277  0.6703 -0.6594  0.2206
  325Sol     MW 4404   2.300   2.217   6.246  0.4405  0.1616 -0.0618
  326Sol     OW 4405   2.223   3.442   7.311  0.3238  0.1876  0.2465
  326Sol     HW 4406   2.138   3.484   7.297  0.9186  1.4705  0.4063
  326Sol     HW 4407   2.265   3.443   7.225 -0.3426 -1.6798 -0.1390
  326Sol     MW 4408   2.220   3.446   7.302  0.1231 -0.5638 -0.0746
  327Sol     OW 4409   2.544   0.627   6.088 -0.1638  0.3864  0.1392
  327Sol     HW 4410   2.507   0.651   6.004 -0.5635 -0.5147  0.0512
  327Sol     HW 4411   2.478   0.655   6.152 -0.5764 -0.3604  0.0444
  327Sol     MW 4412   2.535   0.632   6.087 -0.1382 -0.2236 -0.0438
  328Sol     OW 4413   0.582   1.317   4.356  0.2550 -0.2844 -0.1083
  328Sol     HW 4414   0.668   1.291   4.324 -0.2951 -0.2112 -1.7036
  328Sol     HW 4415   0.593   1.325   4.451  1.8404 -0.8609 -0.2263
  328Sol     MW 4416   0.590   1.315   4.362  0.1577 -0.4152 -0.5179
  329Sol     OW 4417   2.707   3.309   6.211 -0.0003  0.1101  0.5317
  329Sol     HW 4418   2.626   3.258   6.213 -0.0366 -0.1502 -3.0879
  329Sol     HW 4419   2.762   3.270   6.278 -2.1697 -0.9464  1.7498
  329Sol     MW 4420   2.704   3.301   6.217  0.1342  0.3003  0.1185
  330Sol     OW 4421   2.791   0.144   4.748  0.3792 -0.2530  0.0773
  330Sol     HW 4422   2.767   0.057   4.715  2.2994 -0.3574 -1.1256
  330Sol     HW 4423   2.785   0.201   4.672  0.6473  0.3698  0.5230
  330Sol     MW 4424   2.788   0.141   4.738 -0.4446 -0.1060  0.3765
  331Sol     OW 4425   0.645   2.039   6.827 -0.3625 -0.2794  0.5304
  331Sol     HW 4426   0.724   2.077   6.789 -0.8107 -0.0991 -0.2485
  331Sol     HW 4427   0.675   1.960   6.872  0.4815  0.6442  1.6165
  331Sol     MW 4428   0.655   2.035   6.827  0.2237  0.2652  0.1317
  332Sol     OW 4429   2.513   0.148   2.572  0.6483 -0.1886  0.0007
  332Sol     HW 4430   2.487   0.224   2.521  1.8113 -1.5491 -2.6974
  332Sol     HW 4431   2.502   0.175   2.663 -1.5356  2.2527 -0.9568
  332Sol     MW 4432   2.510   0.157   2.576 -0.4481  0.4342  0.0482
  333Sol     OW 4433   3.293   0.946   6.637  0.3836  0.5652  0.1937
  333Sol     HW 4434   3.336   0.896   6.568 -0.5860 -0.2339  0.1627
  333Sol     HW 4435   3.298   1.037   6.608 -0.2964  0.2023 -1.0773
  333Sol     MW 4436   3.297   0.949   6.629  0.2653 -0.3999 -0.4501
  334Sol     OW 4437   0.515   0.348   5.231  0.2425  0.6952 -0.2150
  334Sol     HW 4438   0.479   0.269   5.191  2.1667 -0.5058  0.3714
  334Sol     HW 4439   0.488   0.343   5.323  0.9833  0.3325 -0.0130
  334Sol     MW 4440   0.509   0.340   5.236 -0.8519 -0.2484 -0.4687
  335Sol     OW 4441   2.969   1.601   4.223  0.0879 -0.4064 -0.9514
  335Sol     HW 4442   2.977   1.565   4.311  0.0284  0.7888 -0.4501
  335Sol     HW 4443   2.994   1.529   4.165  0.5005 -1.0742  0.0526
  335Sol     MW 4444   2.972   1.591   4.226 -0.2663  0.0144  0.5367
  336Sol     OW 4445   0.251   1.359   6.425  0.2716  0.5884 -0.5934
  336Sol     HW 4446   0.262   1.379   6.518 -0.1464  1.6450 -0.7623
  336Sol     HW 4447   0.306   1.422   6.380  1.1058 -0.4413 -1.0450
  336Sol     MW 4448   0.256   1.366   6.430  0.0739  0.0783 -0.5765
  337Sol     OW 4449   0.469   0.923   4.448 -0.5485  0.1440  0.3068
  337Sol     HW 4450   0.507   0.940   4.534  2.2742 -1.2957 -0.6150
  337Sol     HW 4451   0.475   0.828   4.438 -1.1008  0.2808 -1.3807
  337Sol     MW 4452   0.473   0.916   4.455  0.8214  0.1515  0.4701
  338Sol     OW 4453   1.097   0.988   5.932  0.4785 -0.2773  1.1102
  338Sol     HW 4454   1.073   0.895   5.932  0.1832 -0.2321 -1.3637
  338Sol     HW 4455   1.169   0.994   5.994  0.6010 -2.2040  1.1917
  338Sol     MW 4456   1.101   0.980   5.937  0.0978 -0.1491  0.3570
  339Sol     OW 4457   0.657   0.469   2.394  0.3515  0.3497  0.2117
  339Sol     HW 4458   0.589   0.535   2.406 -0.6421 -0.9035  1.5841
  339Sol     HW 4459   0.643   0.436   2.305  0.7620  1.8609 -0.4285
  339Sol     MW 4460   0.650   0.472   2.387  0.4030  0.0293 -0.4259
  340Sol     OW 4461   1.552   2.636   2.341 -0.1015 -0.4327  0.9744
  340Sol     HW 4462   1.545   2.540   2.344  0.8903 -0.5463  0.0099
  340Sol     HW 4463   1.633   2.652   2.294 -0.7252  0.9045  0.3362
  340Sol     MW 4464   1.559   2.629   2.337  0.5971  0.5071 -0.5038
  341Sol     OW 4465   2.151   2.056   2.521 -0.0127 -0.7129  0.0524
  341Sol     HW 4466   2.100   1.979   2.496 -1.4453 -0.2322  1.3469
  341Sol     HW 4467   2.207   2.025   2.592 -1.5861 -0.2789  1.5258
  341Sol     MW 4468   2.151   2.046   2.525 -0.3168  0.3463 -0.4544
  342Sol     OW 4469   2.751   3.144   8.555  0.4416 -0.4760 -0.1332
  342Sol     HW 4470   2.692   3.073   8.579 -0.6549  0.4136 -0.1447
  342Sol     HW 4471   2.821   3.102   8.504  0.0706 -1.6068  0.2891
  342Sol     MW 4472   2.752   3.134   8.552 -0.0015 -0.1327  0.1461
  343Sol     OW 4473   1.971   1.659   5.166  0.9396  0.2824  0.3530
  343Sol     HW 4474   1.963   1.660   5.261 -1.6436 -2.2638  0.2345
  343Sol     HW 4475   2.004   1.571   5.146  4.6450  1.8709 -0.9575
  343Sol     MW 4476   1.973   1.651   5.172  0.5974  0.3116 -0.1301
  344Sol     OW 4477   0.181   2.637   7.043 -0.5318 -0.0810  0.4979
  344Sol     HW 4478   0.174   2.678   7.130 -1.0744  0.1472  0.3463
  344Sol     HW 4479   0.127   2.692   6.986 -0.6499 -0.5732  0.1360
  344Sol     MW 4480   0.175   2.646   7.046 -0.0127 -0.1281  0.0796
  345Sol     OW 4481   0.619   0.587   5.333  0.1982  0.7158  0.0088
  345Sol     HW 4482   0.575   0.518   5.283 -0.9040  1.2891  0.1653
  345Sol     HW 4483   0.703   0.549   5.357  0.2584  0.0090 -1.2703
  345Sol     MW 4484   0.622   0.577   5.331 -0.2373 -0.2914 -0.0240
  346Sol     OW 4485   1.341   0.965   4.178  0.3893  0.0715  0.0304
  346Sol     HW 4486   1.386   0.880   4.181  0.1856 -0.0553 -0.3830
  346Sol     HW 4487   1.406   1.028   4.208  0.6963 -0.1724 -0.1158
  346Sol     MW 4488   1.351   0.963   4.181  0.4841 -0.1505 -0.8914
  347Sol     OW 4489   2.055   2.166   5.859 -0.2530  0.0605 -0.3010
  347Sol     HW 4490   1.994   2.105   5.816  1.5014 -1.3316 -0.8634
  347Sol     HW 4491   2.086   2.223   5.788 -0.5785  0.5225 -0.0813
  347Sol     MW 4492   2.052   2.166   5.849 -0.3612  0.4428 -0.1142
  348Sol     OW 4493   2.781   0.431   8.384  0.0330  0.3375 -0.5428
  348Sol     HW 4494   2.813   0.344   8.358  0.5186 -0.0940  1.4756
  348Sol     HW 4495   2.689   0.432   8.356  0.5955  0.0038 -2.5203
  348Sol     MW 4496   2.775   0.423   8.379 -0.2257  0.0466  0.8136
  349Sol     OW 4497   2.800   2.949   2.270  0.4262  0.2220 -0.4761
  349Sol     HW 4498   2.846   3.018   2.318 -2.2100  2.7695 -1.4790
  349Sol     HW 4499   2.747   2.906   2.337 -0.1663  1.1373 -0.3369
  349Sol     MW 4500   2.799   2.952   2.281  0.4998  0.4310  0.4412
  350Sol     OW 4501   1.459   0.843   5.765 -0.3311 -0.1934  0.1829
  350Sol     HW 4502   1.445   0.788   5.689 -3.3558  0.3406  0.2900
  350Sol     HW 4503   1.417   0.926   5.743  3.0481  1.6746  0.5085
  350Sol     MW 4504   1.454   0.846   5.757  0.1665 -0.2561  0.4648
  351Sol     OW 4505   3.269   0.744   7.061 -0.3934  0.2885 -0.3481
  351Sol     HW 4506   3.325   0.790   7.000 -0.2268  0.2484 -0.2250
  351Sol     HW 4507   3.324   0.728   7.138 -0.8807  1.2191  0.2122
  351Sol     MW 4508   3.279   0.747   7.063 -0.2516 -0.0793  0.0837
  352Sol     OW 4509   2.909   2.154   5.145 -0.4528  0.0449  0.1184
  352Sol     HW 4510   2.878   2.065   5.128 -0.2507  0.1347 -0.7900
  352Sol     HW 4511   2.843   2.210   5.105 -0.2802  0.2842  0.1671
  352Sol     MW 4512   2.901   2.151   5.140  0.0703  0.0793 -0.3023
  353Sol     OW 4513   0.434   2.646   6.843 -0.0677 -0.0257  0.0613
  353Sol     HW 4514   0.370   2.671   6.910  0.3510  0.7497  0.1780
  353Sol     HW 4515   0.406   2.559   6.814 -1.2224  0.3432  0.0575
  353Sol     MW 4516   0.426   2.640   6.846  0.2260 -0.2420 -0.0168
  354Sol     OW 4517   0.123   2.686   3.055  0.0529  0.1980  0.2329
  354Sol     HW 4518   0.135   2.759   2.993 -0.8145  0.3016  0.1808
  354Sol     HW 4519   0.042   2.644   3.027 -0.1496  0.0204  1.0714
  354Sol     MW 4520   0.117   2.689   3.047  0.4739  0.1240 -0.1668
  355Sol     OW 4521   3.025   1.691   6.520  0.8281 -0.0789  0.3196
  355Sol     HW 4522   3.092   1.754   6.496  0.2087 -0.2973 -2.1744
  355Sol     HW 4523   3.048   1.612   6.471  0.0158 -0.8863  1.2107
  355Sol     MW 4524   3.033   1.689   6.513  0.8380  0.2839 -0.0762
  356Sol     OW 4525   2.550   1.708   9.307 -0.1480  0.4435 -0.0232
  356Sol     HW 4526   2.519   1.798   9.297 -0.4746  0.3764  0.3678
  356Sol     HW 4527   2.538   1.668   9.221  0.9589  1.0671 -0.4826
  356Sol     MW 4528   2.546   1.712   9.299 -0.0987  0.2128  0.0101
  357Sol     OW 4529   1.123   2.614   3.902 -0.2805  0.3143  0.1166
  357Sol     HW 4530   1.155   2.540   3.849 -0.4057  0.5449 -0.2847
  357Sol     HW 4531   1.184   2.619   3.976 -0.0005  0.0990 -0.0983
  357Sol     MW 4532   1.131   2.608   3.904  0.0033 -0.0134  0.1806
  358Sol     OW 4533   3.191   3.112   8.670 -0.0465  0.3378 -0.0425
  358Sol     HW 4534   3.155   3.191   8.629 -0.0458  0.4107  0.0983
  358Sol     HW 4535   3.273   3.141   8.709  1.0555 -0.2171 -1.9040
  358Sol     MW 4536   3.195   3.122   8.670  0.4771 -0.5767 -0.0388
  359Sol     OW 4537   2.232   1.385   1.779  0.2540 -0.1836  0.0747
  359Sol     HW 4538   2.209   1.313   1.720  0.9040  0.3158 -0.7861
  359Sol     HW 4539   2.170   1.376   1.852 -0.2264 -1.1024 -0.4325
  359Sol     MW 4540   2.224   1.377   1.780 -0.6799 -0.1236  0.3704
  360Sol     OW 4541   0.912   1.826   3.706  0.1729 -0.0014  0.2199
  360Sol     HW 4542   0.908   1.734   3.735 -0.6463  0.1589  0.6373
  360Sol     HW 4543   0.917   1.876   3.787 -0.6965  0.3857  0.0338
  360Sol     MW 4544   0.912   1.822   3.716 -0.1813 -0.5150 -0.1600
  361Sol     OW 4545   1.961   2.997   4.746  0.0787  0.5068  0.1244
  361Sol     HW 4546   1.878   2.948   4.746  0.4768 -0.1711  0.1796
  361Sol     HW 4547   1.935   3.087   4.766 -0.5709  0.1693  0.8247
  361Sol     MW 4548   1.951   3.000   4.748 -0.7596  0.2877 -0.2513
  362Sol     OW 4549   0.324   0.319   3.136  0.0256  0.7051 -0.6611
  362Sol     HW 4550   0.339   0.365   3.219  0.6630  1.5778 -1.2411
  362Sol     HW 4551   0.259   0.252   3.156 -0.5453  1.5444  0.3270
  362Sol     MW 4552   0.320   0.317   3.145  0.2511  0.4424  0.3712
  363Sol     OW 4553   1.932   1.502   6.429  0.1819 -0.0344 -0.1966
  363Sol     HW 4554   1.899   1.523   6.342 -0.9584  0.7671  0.4135
  363Sol     HW 4555   2.027   1.493   6.417 -0.0670 -0.8223 -1.6776
  363Sol     MW 4556   1.938   1.503   6.420 -0.5614  0.2416  0.3889
  364Sol     OW 4557   1.568   0.098   7.653  0.2285  0.4985 -0.3477
  364Sol     HW 4558   1.629   0.135   7.717 -1.3824  1.0952  0.8506
  364Sol     HW 4559   1.586   0.004   7.655  2.3397  0.8515 -1.3125
  364Sol     MW 4560   1.575   0.093   7.659 -0.5471 -0.3863 -0.4382
  365Sol     OW 4561   2.830   1.273   9.213 -0.4512 -0.0149 -0.2725
  365Sol     HW 4562   2.854   1.354   9.257 -0.0542  0.5488 -1.4969
  365Sol     HW 4563   2.914   1.232   9.192 -0.5538  0.8138 -2.4653
  365Sol     MW 4564   2.840   1.277   9.215 -0.0184 -0.1951  0.0749
  366Sol     OW 4565   0.402   0.694   3.537  0.2863  0.3056  0.1489
  366Sol     HW 4566   0.417   0.777   3.582  2.4901  0.6778 -1.2010
  366Sol     HW 4567   0.411   0.715   3.444  1.8110 -1.5986 -0.1748
  366Sol     MW 4568   0.404   0.704   3.533 -0.6282 -0.6048  0.7014
  367Sol     OW 4569   0.549   2.518   8.434  0.4325 -0.2294  0.1212
  367Sol     HW 4570   0.572   2.426   8.429  1.6356  0.0334  0.7375
  367Sol     HW 4571   0.560   2.541   8.526  0.3710  0.5883 -0.0737
  367Sol     MW 4572   0.552   2.512   8.442  0.4700 -0.0672 -0.5189
  368Sol     OW 4573   0.381   3.108   5.802  0.2972  0.1029  0.1827
  368Sol     HW 4574   0.383   3.118   5.897  1.5955  3.1534 -0.1076
  368Sol     HW 4575   0.441   3.035   5.785 -0.3190 -0.7919  1.7132
  368Sol     MW 4576   0.387   3.102   5.809  0.2828  0.1708  0.2183
  369Sol     OW 4577   0.656   2.722   1.367  0.3273  0.2240  0.1470
  369Sol     HW 4578   0.635   2.728   1.274 -2.6691 -0.0309  0.7549
  369Sol     HW 4579   0.630   2.634   1.393 -0.5907  0.8952  1.6083
  369Sol     MW 4580   0.652   2.715   1.361  0.0989 -0.1011 -0.3985
  370Sol     OW 4581   1.585   0.390   7.960 -0.5523 -0.3583  0.5315
  370Sol     HW 4582   1.501   0.363   7.998  0.0586 -0.6407  1.7193
  370Sol     HW 4583   1.643   0.397   8.036  0.6983 -0.9325 -0.3767
  370Sol     MW 4584   1.582   0.388   7.971  0.2102  0.5567  0.0060
  371Sol     OW 4585   1.389   0.347   2.791  0.5874 -0.4162  0.2454
  371Sol     HW 4586   1.319   0.281   2.788 -0.2426  0.4829 -3.2578
  371Sol     HW 4587   1.343   0.431   2.786  1.8384  0.2262 -0.8376
  371Sol     MW 4588   1.379   0.348   2.790 -0.4829 -0.1219 -0.6674
  372Sol     OW 4589   1.478   0.679   7.949 -0.8115 -1.0552 -0.6780
  372Sol     HW 4590   1.428   0.752   7.913 -1.1556 -1.1561 -0.4093
  372Sol     HW 4591   1.512   0.632   7.872 -0.5350 -0.5784 -0.8482
  372Sol     MW 4592   1.477   0.681   7.939  1.1071  0.0145  0.2643
  373Sol     OW 4593   2.774   2.338   4.727  0.4391  0.0348 -0.7175
  373Sol     HW 4594   2.760   2.315   4.819 -1.8725 -2.4181 -1.6034
  373Sol     HW 4595   2.867   2.321   4.711  0.7134 -0.1145  1.0119
  373Sol     MW 4596   2.781   2.334   4.734 -0.5431 -0.3423 -0.0058
  374Sol     OW 4597   1.308   2.880   7.512 -0.8298 -0.0914  0.2505
  374Sol     HW 4598   1.242   2.927   7.562 -2.0196  0.4738 -1.7680
  374Sol     HW 4599   1.370   2.947   7.484  0.0045 -0.4515  1.2271
  374Sol     MW 4600   1.308   2.890   7.514  0.3020  0.3177  0.2717
  375Sol     OW 4601   2.582   1.644   9.774  0.4559 -0.1388  0.2516
  375Sol     HW 4602   2.662   1.618   9.820  0.5144 -1.4142 -0.5355
  375Sol     HW 4603   2.599   1.621   9.682 -0.6732 -0.0979  0.0295
  375Sol     MW 4604   2.591   1.639   9.770  0.2998  0.0198 -0.6678
  376Sol     OW 4605   2.374   1.097   7.701 -0.3083  0.4575  0.4325
  376Sol     HW 4606   2.411   1.022   7.749  1.2166 -0.2954 -1.8306
  376Sol     HW 4607   2.386   1.171   7.760  2.7219 -0.2127  0.7463
  376Sol     MW 4608   2.378   1.097   7.711  0.6601 -0.2107 -0.0956
  377Sol     OW 4609   0.332   2.283   4.256  0.1927  0.0218  0.4288
  377Sol     HW 4610   0.379   2.205   4.284  1.5335  1.2671  1.7378
  377Sol     HW 4611   0.289   2.314   4.336 -1.1039  0.1254 -0.2853
  377Sol     MW 4612   0.332   2.279   4.266  0.2127 -0.5132 -0.3047
  378Sol     OW 4613   0.770   0.655   3.455  0.3549  0.4421  0.4277
  378Sol     HW 4614   0.742   0.732   3.503  0.1965  0.7992 -0.2260
  378Sol     HW 4615   0.846   0.623   3.503 -1.4032 -0.7796  2.4485
  378Sol     MW 4616   0.774   0.659   3.463  0.8718 -0.0831 -0.4824
  379Sol     OW 4617   0.331   3.192   7.363 -0.4609  0.1717  0.7217
  379Sol     HW 4618   0.244   3.202   7.323  0.3868  0.4400 -1.1011
  379Sol     HW 4619   0.317   3.132   7.436 -2.1467  0.0330  0.2985
  379Sol     MW 4620   0.322   3.187   7.366 -0.1247  0.0749 -0.6749
  380Sol     OW 4621   1.592   1.805   8.630  0.1589 -0.5874 -0.3316
  380Sol     HW 4622   1.538   1.778   8.703  1.1996 -2.8692 -0.3529
  380Sol     HW 4623   1.657   1.735   8.621  0.5601  0.0502 -2.8879
  380Sol     MW 4624   1.593   1.796   8.635 -0.1320  0.8470 -0.3203
  381Sol     OW 4625   2.742   2.206   9.076 -0.1375  0.2565  0.0695
  381Sol     HW 4626   2.756   2.111   9.076 -1.6837 -0.0060 -1.6764
  381Sol     HW 4627   2.767   2.234   9.164  1.7486 -1.5527  0.1443
  381Sol     MW 4628   2.745   2.200   9.084 -0.0800  0.3123  0.4930
  382Sol     OW 4629   0.611   3.034   8.433  0.0169  0.2853  0.0250
  382Sol     HW 4630   0.678   3.102   8.429 -1.0920  1.3363 -1.1059
  382Sol     HW 4631   0.599   3.017   8.527  0.6052  1.3268  0.2939
  382Sol     MW 4632   0.616   3.039   8.441 -0.5940 -0.3024 -0.6733
  383Sol     OW 4633   3.327   2.161   4.639  0.1655 -0.2581 -0.5048
  383Sol     HW 4634   3.412   2.123   4.660 -0.3828 -0.9892  0.4597
  383Sol     HW 4635   3.334   2.252   4.669  0.6804 -0.2534 -0.6306
  383Sol     MW 4636   3.335   2.166   4.644  0.3209 -0.9298  0.4796
  384Sol     OW 4637   1.907   3.053   2.479 -0.3433 -0.6186 -0.3912
  384Sol     HW 4638   1.819   3.026   2.504 -0.7466  0.7975 -0.2677
  384Sol     HW 4639   1.908   3.148   2.490  0.7500 -0.4472 -1.7795
  384Sol     MW 4640   1.899   3.059   2.482  0.3820  0.2466 -0.2898
  385Sol     OW 4641   0.717   1.709   1.956 -0.0461  0.1036 -0.4043
  385Sol     HW 4642   0.742   1.680   2.044 -2.0656  0.1685  0.2032
  385Sol     HW 4643   0.781   1.667   1.899 -0.0099 -1.6827  0.9033
  385Sol     MW 4644   0.725   1.703   1.959 -0.4396 -0.0077 -0.1172
  386Sol     OW 4645   2.562   2.355   6.107  0.3203  0.5968 -0.2857
  386Sol     HW 4646   2.640   2.405   6.132  1.1273 -1.1617  0.7797
  386Sol     HW 4647   2.511   2.348   6.188 -0.2573  0.5387 -0.6541
  386Sol     MW 4648   2.565   2.359   6.116 -0.2870 -0.2513  0.2799
  387Sol     OW 4649   0.223   0.265   9.941  0.3128  0.0132 -0.4850
  387Sol     HW 4650   0.236   0.353   9.906 -0.2956 -0.3874 -1.7345
  387Sol     HW 4651   0.196   0.212   9.866  0.3313 -1.1687  0.3172
  387Sol     MW 4652   0.222   0.268   9.932  0.2741 -0.4152 -0.8565
  388Sol     OW 4653   2.336   0.419   2.769 -0.2019 -0.1386  0.2743
  388Sol     HW 4654   2.410   0.457   2.721 -0.4272 -0.3383 -0.2430
  388Sol     HW 4655   2.374   0.348   2.820  0.1312  0.4211  0.8134
  388Sol     MW 4656   2.346   0.416   2.769  0.3606 -0.0530  0.3658
  389Sol     OW 4657   2.906   3.442   5.931  0.0125  0.2088 -0.3534
  389Sol     HW 4658   2.888   3.532   5.906  0.1035 -0.0474 -1.3379
  389Sol     HW 4659   2.820   3.402   5.944 -0.0667 -0.0858 -1.7677
  389Sol     MW 4660   2.897   3.446   5.930 -0.5884 -0.6215  0.6205
  390Sol     OW 4661   0.836   1.277   6.313  0.4200  0.4290  0.0011
  390Sol     HW 4662   0.753   1.250   6.274 -1.1758  2.5314  1.8166
  390Sol     HW 4663   0.856   1.360   6.270  1.0938  0.3898  0.2365
  390Sol     MW 4664   0.831   1.282   6.306  0.0406  0.3471 -0.3842
  391Sol     OW 4665   2.846   0.728   3.531  0.2930  0.9685  0.5942
  391Sol     HW 4666   2.799   0.658   3.485  0.2846  1.9475 -0.9291
  391Sol     HW 4667   2.796   0.807   3.513  1.2279  1.6361  0.8888
  391Sol     MW 4668   2.838   0.728   3.525 -0.2593 -0.5284  0.4757
  392Sol     OW 4669   1.526   0.306   8.897  0.0461  0.4154 -0.8715
  392Sol     HW 4670   1.456   0.304   8.962  1.4086  0.6438  0.6192
  392Sol     HW 4671   1.506   0.382   8.843  1.2202  2.8135  1.9306
  392Sol     MW 4672   1.518   0.312   8.898  0.1317 -0.3909 -0.0800
  393Sol     OW 4673   1.922   0.013   7.023 -0.0156  0.0053 -0.2504
  393Sol     HW 4674   1.889   0.009   6.933 -0.0766 -2.3820 -0.1475
  393Sol     HW 4675   2.015  -0.009   7.016 -0.4262 -2.0544  0.4576
  393Sol     MW 4676   1.927   0.011   7.014  0.0376 -0.1005 -0.2094
  394Sol     OW 4677   3.207   2.686   8.175  0.2169  0.1575 -0.4782
  394Sol     HW 4678   3.121   2.645   8.165  0.3868 -0.0708 -1.0056
  394Sol     HW 4679   3.262   2.617   8.212  0.7678 -0.4124 -2.3394
  394Sol     MW 4680   3.204   2.676   8.178 -0.1680  0.8854 -0.4190
  395Sol     OW 4681   1.316   2.746   6.820 -0.1530 -0.2941  0.4604
  395Sol     HW 4682   1.247   2.796   6.863  0.9010  2.1323 -0.5342
  395Sol     HW 4683   1.394   2.764   6.873  0.6027  0.6047 -0.9145
  395Sol     MW 4684   1.317   2.752   6.829 -0.6820 -0.1516  0.4184
  396Sol     OW 4685   2.097   1.398   6.023 -0.4392  0.3276 -0.0240
  396Sol     HW 4686   2.173   1.388   6.080 -1.2915  0.2375  1.1196
  396Sol     HW 4687   2.077   1.309   5.994 -0.5554  0.2581  0.2696
  396Sol     MW 4688   2.102   1.389   6.025  0.2647  0.3049  0.0423
  397Sol     OW 4689   3.182   0.157   7.902 -0.0819 -0.5489  0.3912
  397Sol     HW 4690   3.167   0.107   7.982 -0.7567 -0.7667  0.1357
  397Sol     HW 4691   3.108   0.218   7.897  1.1843  1.1145  1.1684
  397Sol     MW 4692   3.174   0.158   7.909  0.2535  0.0631 -0.2215
  398Sol     OW 4693   0.602   1.739   7.588 -0.3617  1.0964  0.0857
  398Sol     HW 4694   0.682   1.744   7.535 -1.2657  0.5008 -1.3587
  398Sol     HW 4695   0.556   1.821   7.569 -1.3579  0.2736 -1.1846
  398Sol     MW 4696   0.605   1.747   7.581  0.3584  0.1930 -0.0614
  399Sol     OW 4697   1.189   0.419   9.488  0.0580  0.3579 -0.1929
  399Sol     HW 4698   1.272   0.388   9.524 -0.0139 -0.2582 -0.5400
  399Sol     HW 4699   1.156   0.481   9.552  1.2310  1.2965 -0.4892
  399Sol     MW 4700   1.194   0.422   9.497 -0.5159  0.1095  0.4806
  400Sol     OW 4701   2.628   1.263   9.021  0.4967 -0.1114 -0.0309
  400Sol     HW 4702   2.692   1.284   9.088 -0.2950 -0.4595  0.8529
  400Sol     HW 4703   2.629   1.167   9.016  0.0306 -0.1195  0.0052
  400Sol     MW 4704   2.634   1.256   9.026 -0.0761 -0.5279 -0.0837
  401Sol     OW 4705   0.482   1.552   4.761  0.0296 -0.4943  0.6534
  401Sol     HW 4706   0.517   1.486   4.821  0.1651  0.0219  1.1509
  401Sol     HW 4707   0.556   1.574   4.704  1.1418  1.9853  2.9179
  401Sol     MW 4708   0.492   1.548   4.762 -0.2392  0.0559  0.0274
  402Sol     OW 4709   2.766   1.812   2.615  0.1745 -1.0076  0.2425
  402Sol     HW 4710   2.708   1.863   2.672 -1.3433 -2.3349 -0.0692
  402Sol     HW 4711   2.748   1.845   2.527  0.6578 -0.7174  0.2486
  402Sol     MW 4712   2.759   1.820   2.613  0.1691  0.6842  0.3625
  403Sol     OW 4713   2.253   0.114   8.197 -0.2625  0.1873 -0.1709
  403Sol     HW 4714   2.268   0.156   8.112 -0.8672  2.0842  0.6211
  403Sol     HW 4715   2.285   0.178   8.261  0.9952 -1.5825  1.0244
  403Sol     MW 4716   2.257   0.124   8.196  0.5724  0.3272  0.1470
  404Sol     OW 4717   2.270   3.090   1.907 -0.7922  0.0225  0.8718
  404Sol     HW 4718   2.335   3.021   1.914 -1.0127 -0.3411 -0.5441
  404Sol     HW 4719   2.242   3.106   1.998  0.1290 -0.8951  1.3255
  404Sol     MW 4720   2.273   3.085   1.916  0.0980 -0.1570  0.2231
  405Sol     OW 4721   0.287   1.113   4.931  0.3125 -0.2046 -0.6303
  405Sol     HW 4722   0.310   1.071   5.013  1.1893  0.6926 -0.3966
  405Sol     HW 4723   0.212   1.169   4.952  1.5594  1.2815 -0.0436
  405Sol     MW 4724   0.283   1.115   4.940 -0.6528  0.5532 -0.3132
  406Sol     OW 4725   0.715   2.826   8.292  1.1907 -1.1759 -0.1481
  406Sol     HW 4726   0.656   2.895   8.322 -1.4353 -1.5483 -4.0187
  406Sol     HW 4727   0.711   2.758   8.360  1.0224  0.9047  1.9728
  406Sol     MW 4728   0.709   2.826   8.301  0.5085 -0.6762 -0.2056
  407Sol     OW 4729   3.327   0.063   2.277  0.2042  0.0118 -0.8364
  407Sol     HW 4730   3.392  -0.008   2.283 -1.7888 -1.8048 -0.0947
  407Sol     HW 4731   3.279   0.059   2.359 -0.8098  1.3822 -1.3421
  407Sol     MW 4732   3.328   0.056   2.285 -1.1138 -0.5940  0.3788
  408Sol     OW 4733   1.598   3.262   5.869 -0.2402 -0.0008  0.2155
  408Sol     HW 4734   1.512   3.286   5.903 -0.6875  0.1036 -0.9706
  408Sol     HW 4735   1.657   3.272   5.944 -1.1597  0.4831  0.8861
  408Sol     MW 4736   1.596   3.265   5.879  0.1359 -0.0654  0.1666
  409Sol     OW 4737   0.125   0.608   2.117  0.0892 -0.5564 -0.7470
  409Sol     HW 4738   0.133   0.704   2.121 -0.8140 -0.5367  1.6453
  409Sol     HW 4739   0.036   0.592   2.087 -0.9937 -0.5637  2.2368
  409Sol     MW 4740   0.118   0.616   2.115 -0.4672  0.5362 -0.1079
  410Sol     OW 4741   2.066   0.674   3.911 -1.0559  0.7471 -0.0759
  410Sol     HW 4742   2.105   0.687   3.998  1.2554 -0.6411 -0.8559
  410Sol     HW 4743   2.016   0.593   3.919 -1.2617  0.8864  0.0740
  410Sol     MW 4744   2.065   0.668   3.920 -0.7245 -0.2213 -0.2113
  411Sol     OW 4745   0.985   1.585   8.295  0.1301  0.5344  0.3699
  411Sol     HW 4746   0.906   1.532   8.284  0.5239 -0.1499  0.7533
  411Sol     HW 4747   1.052   1.538   8.245  0.6162  0.3636  1.1757
  411Sol     MW 4748   0.984   1.576   8.290 -0.3226  0.1253  0.4348
  412Sol     OW 4749   1.462   0.390   3.543  0.8853 -0.4863  0.3792
  412Sol     HW 4750   1.401   0.420   3.476  0.3339  0.4702  1.2893
  412Sol     HW 4751   1.535   0.352   3.494  0.6761  0.5623 -0.7703
  412Sol     MW 4752   1.463   0.389   3.532  0.0380  0.0716 -0.1855
  413Sol     OW 4753   0.908   1.535   1.840 -0.1449  0.4748  0.1997
  413Sol     HW 4754   0.875   1.454   1.801  1.1316 -0.5665  1.2238
  413Sol     HW 4755   0.966   1.571   1.773 -1.3867  1.0189 -0.6098
  413Sol     MW 4756   0.910   1.531   1.830  0.3531 -0.3590  0.0306
  414Sol     OW 4757   0.925   1.100   9.695  0.0671 -0.2662 -0.1362
  414Sol     HW 4758   0.847   1.126   9.647 -0.0319 -0.7503 -0.2443
  414Sol     HW 4759   0.939   1.170   9.759  0.2982  0.4644 -0.9861
  414Sol     MW 4760   0.919   1.108   9.697 -0.6018  0.4325  0.3647
  415Sol     OW 4761   0.351   0.383   8.599  0.1671  0.1913 -0.4778
  415Sol     HW 4762   0.368   0.475   8.620 -2.8264  0.7247 -0.2173
  415Sol     HW 4763   0.317   0.384   8.510 -0.3768 -0.5979 -0.2885
  415Sol     MW 4764   0.349   0.391   8.593 -0.8062  0.1372 -0.1722
  416Sol     OW 4765   0.615   3.249   6.712  0.0159 -0.7418 -0.1377
  416Sol     HW 4766   0.681   3.311   6.680  0.1204 -1.5724 -1.5878
  416Sol     HW 4767   0.664   3.185   6.763 -0.3726  1.5676  3.2504
  416Sol     MW 4768   0.625   3.249   6.714 -0.1596  0.3604  0.0817
  417Sol     OW 4769   0.091   0.865   6.868  0.2876  0.6030 -0.0613
  417Sol     HW 4770   0.041   0.883   6.789  1.3828  0.4413 -0.7985
  417Sol     HW 4771   0.112   0.951   6.904 -0.0660  0.6784 -0.0327
  417Sol     MW 4772   0.088   0.874   6.864 -0.1097 -0.3502  0.0650
  418Sol     OW 4773   2.712   2.064   7.634  0.7829  0.3263  0.2420
  418Sol     HW 4774   2.749   2.148   7.662  2.0809 -0.6246  1.4874
  418Sol     HW 4775   2.628   2.058   7.680  0.2848  1.3129 -0.5216
  418Sol     MW 4776   2.708   2.071   7.641 -0.3529 -0.2952  0.0597
  419Sol     OW 4777   2.133   2.274   7.510  0.1777  0.1905  0.6657
  419Sol     HW 4778   2.223   2.301   7.528  0.0589  1.1770 -0.1648
  419Sol     HW 4779   2.104   2.231   7.590  2.1924 -2.3055  0.0988
  419Sol     MW 4780   2.139   2.273   7.518 -0.0232  0.1237 -0.1394
  420Sol     OW 4781   2.336   0.631   8.165 -0.4178  0.1542 -0.1078
  420Sol     HW 4782   2.358   0.712   8.211 -1.4282  1.0081 -1.1178
  420Sol     HW 4783   2.269   0.590   8.219 -0.4559  0.3744  0.0132
  420Sol     MW 4784   2.332   0.634   8.174  0.4804  0.1337 -0.1512
  421Sol     OW 4785   1.544   0.026   8.864 -0.2530 -0.1234 -0.1965
  421Sol     HW 4786   1.569   0.019   8.772  2.0055  2.7385  0.1424
  421Sol     HW 4787   1.529   0.120   8.878  1.7755 -0.1994  2.9187
  421Sol     MW 4788   1.545   0.034   8.857 -0.4251  0.2021  0.0119
  422Sol     OW 4789   3.274   0.235   5.790 -0.3346 -0.6749  0.2819
  422Sol     HW 4790   3.334   0.309   5.793 -2.6573  1.2391  1.4290
  422Sol     HW 4791   3.273   0.202   5.880  0.5864 -2.0567 -0.1965
  422Sol     MW 4792   3.279   0.239   5.798 -0.0895  0.6702 -0.1485
  423Sol     OW 4793   0.146   0.350   8.784 -0.6623  0.2471 -0.0059
  423Sol     HW 4794   0.203   0.360   8.708 -0.5766  0.2140  0.0540
  423Sol     HW 4795   0.085   0.424   8.778 -1.3524 -0.3838 -0.7016
  423Sol     MW 4796   0.145   0.358   8.777  0.3432 -0.4787  0.7381
  424Sol     OW 4797   3.129   3.415   2.493 -0.3992  0.2046  0.7160
  424Sol     HW 4798   3.161   3.348   2.433  1.2099  2.9192 -1.5978
  424Sol     HW 4799   3.044   3.442   2.456  1.2387  2.8886 -1.3309
  424Sol     MW 4800   3.124   3.412   2.484  0.5264  0.3186 -0.0790
  425Sol     OW 4801   0.858   2.596   6.396  0.2458 -0.4266  0.1557
  425Sol     HW 4802   0.828   2.584   6.306 -0.0661  1.7969 -0.0594
  425Sol     HW 4803   0.916   2.671   6.393  0.5489 -0.5641  1.7557
  425Sol     MW 4804   0.860   2.601   6.388  0.5437 -0.1121 -0.2424
  426Sol     OW 4805   3.149   2.665   1.875 -0.1999 -0.4603 -0.4921
  426Sol     HW 4806   3.177   2.630   1.960 -2.4051 -0.9418  0.0626
  426Sol     HW 4807   3.126   2.756   1.893 -0.5844 -0.5376 -0.5927
  426Sol     MW 4808   3.150   2.670   1.885  1.0532  0.6288  0.0601
  427Sol     OW 4809   2.315   3.375   6.179  0.1849  0.7063  0.6012
  427Sol     HW 4810   2.337   3.430   6.104 -2.1169  2.2740  1.0069
  427Sol     HW 4811   2.284   3.293   6.141  0.8925  0.7662 -0.1007
  427Sol     MW 4812   2.314   3.373   6.169 -0.1070  0.4422  0.6417
  428Sol     OW 4813   2.658   3.167   8.256 -0.2680 -0.0139 -0.4368
  428Sol     HW 4814   2.702   3.248   8.284 -1.0788  0.1799  0.3009
  428Sol     HW 4815   2.728   3.114   8.218  0.4009  0.7447 -0.2875
  428Sol     MW 4816   2.668   3.170   8.255 -0.0135  0.3488 -0.0483
  429Sol     OW 4817   1.798   2.436   6.248  0.3375  0.4146 -0.2334
  429Sol     HW 4818   1.865   2.491   6.289 -0.3470  0.1889  1.2346
  429Sol     HW 4819   1.718   2.488   6.253 -0.8276 -1.4896  3.1961
  429Sol     MW 4820   1.797   2.445   6.252  0.5739  0.3494 -0.5079
  430Sol     OW 4821   0.481   0.848   6.076  0.3341 -0.4057  0.2365
  430Sol     HW 4822   0.539   0.871   6.004  0.2205  0.7447  0.5108
  430Sol     HW 4823   0.399   0.894   6.057 -0.7776 -2.6004 -0.5538
  430Sol     MW 4824   0.479   0.854   6.068 -0.3296  0.3452 -0.3563
  431Sol     OW 4825   1.031   1.816   9.538 -0.4495  0.1360  0.0082
  431Sol     HW 4826   1.041   1.727   9.505 -0.8188 -0.7941  2.2930
  431Sol     HW 4827   1.063   1.872   9.467  0.5146 -1.8341 -1.1530
  431Sol     MW 4828   1.035   1.813   9.529 -0.4866 -0.2326 -0.5761
  432Sol     OW 4829   1.255   3.333   4.271  0.1769  0.2155 -0.6116
  432Sol     HW 4830   1.224   3.251   4.310  0.5559 -0.3876 -1.5706
  432Sol     HW 4831   1.178   3.371   4.230 -0.1982  0.7930  0.6088
  432Sol     MW 4832   1.245   3.329   4.271  0.4948 -0.5030 -0.2562
  433Sol     OW 4833   3.205   1.458   2.532  0.1835 -0.1646 -0.2633
  433Sol     HW 4834   3.203   1.490   2.622  1.6242  2.3668 -1.0573
  433Sol     HW 4835   3.245   1.371   2.537  0.8351  0.2270  1.4616
  433Sol     MW 4836   3.209   1.453   2.540 -0.0777  0.8635 -0.5186
  434Sol     OW 4837   2.239   0.939   5.941 -0.0126  0.4270  0.4923
  434Sol     HW 4838   2.191   1.022   5.949  1.3997  1.1054  2.5228
  434Sol     HW 4839   2.292   0.935   6.021  1.8841 -1.1968 -0.8102
  434Sol     MW 4840   2.240   0.946   5.949 -0.7800  0.2036 -0.2393
  435Sol     OW 4841   3.268   2.673   8.893  0.1047 -0.0390  0.5711
  435Sol     HW 4842   3.244   2.721   8.814  0.1885 -0.7812  0.1000
  435Sol     HW 4843   3.364   2.678   8.896  0.0618  0.7020  1.0808
  435Sol     MW 4844   3.275   2.678   8.887 -0.4855 -0.0335  0.3150
  436Sol     OW 4845   1.404   1.150   6.288  0.3883  0.2911 -0.5505
  436Sol     HW 4846   1.398   1.196   6.371  1.6720 -0.8545  0.1858
  436Sol     HW 4847   1.493   1.165   6.258  0.8517 -1.7496 -0.2638
  436Sol     MW 4848   1.411   1.155   6.292 -0.0568 -0.2124 -0.3986
  437Sol     OW 4849   3.262   0.207   7.080 -0.2863  0.6128  0.2675
  437Sol     HW 4850   3.256   0.226   6.987 -0.4225  1.0947  0.3759
  437Sol     HW 4851   3.356   0.213   7.100 -0.0766 -1.0006 -0.1568
  437Sol     MW 4852   3.270   0.209   7.074 -0.8110  0.0830  0.5863
  438Sol     OW 4853   0.701   1.716   6.119 -0.4012 -0.1548  0.2581
  438Sol     HW 4854   0.742   1.714   6.033  0.0214 -0.0987  0.4585
  438Sol     HW 4855   0.641   1.791   6.116  1.2527  1.2290  0.7562
  438Sol     MW 4856   0.699   1.723   6.111 -0.1000 -0.3660 -0.0226
  439Sol     OW 4857   0.184   2.238   2.745  0.0428 -0.4372  0.4600
  439Sol     HW 4858   0.123   2.198   2.806  0.1182 -0.7073  0.3560
  439Sol     HW 4859   0.169   2.194   2.661 -0.6429  0.5111  0.0788
  439Sol     MW 4860   0.177   2.231   2.743 -0.1623 -0.3045  0.4332
  440Sol     OW 4861   2.779   1.701   4.496 -0.7180 -0.7236 -0.1980
  440Sol     HW 4862   2.857   1.646   4.508 -0.7344 -0.9811 -1.2134
  440Sol     HW 4863   2.813   1.780   4.452 -1.0899 -1.0233 -1.0359
  440Sol     MW 4864   2.789   1.703   4.493  0.2918  0.2153  0.0991
  441Sol     OW 4865   2.343   0.359   5.416  0.4263 -0.2088  0.4082
  441Sol     HW 4866   2.310   0.337   5.329 -0.8435  0.4791  0.6889
  441Sol     HW 4867   2.264   0.366   5.470  1.0350  1.4907  1.1121
  441Sol     MW 4868   2.333   0.358   5.413 -0.5367  0.2757  0.9307
  442Sol     OW 4869   3.288   0.333   1.673  0.5636  0.1435  0.0510
  442Sol     HW 4870   3.239   0.293   1.600  0.8147  0.5372 -0.3391
  442Sol     HW 4871   3.353   0.268   1.697  0.2385 -0.1390  0.1662
  442Sol     MW 4872   3.289   0.324   1.668  0.1700 -0.3104  0.2923
  443Sol     OW 4873   1.489   3.030   5.694  1.3166 -0.2900  0.7061
  443Sol     HW 4874   1.523   3.093   5.757 -1.3286  2.4426 -0.4854
  443Sol     HW 4875   1.420   2.984   5.741  0.8517  0.1831  0.4852
  443Sol     MW 4876   1.486   3.031   5.704  0.1401  0.2897 -0.5154
  444Sol     OW 4877   2.291   2.996   8.404  0.0144 -0.0602  0.1365
  444Sol     HW 4878   2.239   2.928   8.362 -2.0571  1.0533  0.8188
  444Sol     HW 4879   2.292   2.971   8.497 -0.0359  0.4046  0.2620
  444Sol     MW 4880   2.287   2.987   8.409 -0.4904  0.1770  0.7753
  445Sol     OW 4881   0.241   0.111   8.250  0.5437  0.3460  0.0535
  445Sol     HW 4882   0.248   0.197   8.291  0.3929 -0.0190  0.8597
  445Sol     HW 4883   0.330   0.091   8.221  0.2731  1.4826 -1.6195
  445Sol     MW 4884   0.249   0.117   8.251  0.0954 -0.3129 -0.1431
  446Sol     OW 4885   0.965   0.108   2.380  0.0322 -0.3498 -0.4897
  446Sol     HW 4886   0.932   0.180   2.434  2.6358 -0.5297  1.3726
  446Sol     HW 4887   1.004   0.152   2.304  0.2318  0.1091 -0.1219
  446Sol     MW 4888   0.965   0.119   2.378  0.0646  0.0849  0.0177
  447Sol     OW 4889   2.774   1.594   2.225 -0.0473  0.2892  0.2232
  447Sol     HW 4890   2.764   1.684   2.255  1.5069  0.0174  1.6321
  447Sol     HW 4891   2.825   1.551   2.293 -1.2240 -1.8158 -0.1735
  447Sol     MW 4892   2.778   1.598   2.233 -0.2262 -0.2994  0.7157
  448Sol     OW 4893   3.150   0.751   4.733  0.0878  0.0215  0.4553
  448Sol     HW 4894   3.064   0.764   4.693 -0.1251 -0.2832  0.8044
  448Sol     HW 4895   3.174   0.837   4.766  0.5844  0.4204 -0.9523
  448Sol     MW 4896   3.144   0.760   4.733 -0.1257  0.2126 -0.5156
  449Sol     OW 4897   3.156   0.382   8.861 -0.5715  0.1330 -0.6321
  449Sol     HW 4898   3.193   0.437   8.791  1.3315  0.5386  0.6337
  449Sol     HW 4899   3.148   0.295   8.821  1.0058  0.2309 -1.2224
  449Sol     MW 4900   3.159   0.379   8.851  0.4580  0.4652  0.0598
  450Sol     OW 4901   0.147   1.094   7.215  0.6209  0.3163  0.2186
  450Sol     HW 4902   0.062   1.051   7.209  0.7487  0.2258 -0.9045
  450Sol     HW 4903   0.176   1.105   7.125  2.2693 -0.5698  0.6225
  450Sol     MW 4904   0.142   1.091   7.207  0.7427 -0.3923  0.4810
  451Sol     OW 4905   0.216   1.419   2.608 -0.2540 -0.1281 -0.0304
  451Sol     HW 4906   0.230   1.512   2.629 -1.6632 -0.0885  0.8449
  451Sol     HW 4907   0.178   1.421   2.520  0.1469  0.0996 -0.2001
  451Sol     MW 4908   0.214   1.428   2.602  0.2398  0.2815 -0.0151
  452Sol     OW 4909   1.114   2.702   5.293 -0.1866  0.1948  0.2344
  452Sol     HW 4910   1.199   2.717   5.251 -0.9581  1.3612 -0.9574
  452Sol     HW 4911   1.103   2.607   5.293 -0.0474  0.1414 -2.0114
  452Sol     MW 4912   1.121   2.695   5.289  0.1812  0.5345 -0.4457
  453Sol     OW 4913   2.360   1.940   3.497 -0.5188  0.1776 -0.0091
  453Sol     HW 4914   2.452   1.943   3.525 -0.6106  1.0535  0.2029
  453Sol     HW 4915   2.349   2.018   3.444 -1.6091  0.9856  1.4037
  453Sol     MW 4916   2.368   1.947   3.495  0.2884 -0.4014  0.4917
  454Sol     OW 4917   0.380   0.033   3.688  0.4247  0.5205 -0.3318
  454Sol     HW 4918   0.337  -0.044   3.651 -1.3046  0.5181  1.6105
  454Sol     HW 4919   0.431   0.069   3.615 -1.2785 -0.6365 -2.1463
  454Sol     MW 4920   0.381   0.029   3.678  0.2786  0.6304 -0.2328
  455Sol     OW 4921   1.969   2.070   9.280 -0.2144 -0.0593 -0.1859
  455Sol     HW 4922   2.021   2.017   9.341 -0.4364  0.7256  0.6982
  455Sol     HW 4923   1.892   2.016   9.260  1.5514 -1.7802 -2.5429
  455Sol     MW 4924   1.966   2.060   9.284 -0.0798 -0.2385 -0.0182
  456Sol     OW 4925   1.382   2.648   2.587  0.2381  0.2540 -0.2058
  456Sol     HW 4926   1.439   2.651   2.510 -0.7503  0.7779 -0.9372
  456Sol     HW 4927   1.298   2.616   2.553  0.0633 -0.3694  0.8266
  456Sol     MW 4928   1.379   2.646   2.577 -0.4119 -0.1196  0.1611
  457Sol     OW 4929   3.236   0.609   7.785 -0.0726  0.1851  0.2370
  457Sol     HW 4930   3.266   0.518   7.778 -0.5574  0.1254 -1.2323
  457Sol     HW 4931   3.140   0.603   7.784 -0.1070  0.7024  0.2502
  457Sol     MW 4932   3.230   0.600   7.784 -0.0849  0.2721  0.0073
  458Sol     OW 4933   0.077   2.986   2.608 -0.8110 -0.6233  0.0700
  458Sol     HW 4934   0.079   3.072   2.649 -2.4750 -1.2492  1.5098
  458Sol     HW 4935   0.156   2.984   2.553  0.5157  0.8959  1.8518
  458Sol     MW 4936   0.084   2.994   2.607 -0.3606 -0.6653  0.1481
  459Sol     OW 4937   3.151   1.068   5.448 -0.4126  0.1305 -0.2713
  459Sol     HW 4938   3.233   1.086   5.403 -0.3834 -0.6469 -0.5354
  459Sol     HW 4939   3.153   0.974   5.465 -1.6389 -0.0482 -1.0418
  459Sol     MW 4940   3.159   1.061   5.446  0.5466 -0.3024  0.0404
  460Sol     OW 4941   0.108   0.723   9.433  0.2633 -0.2573  0.1694
  460Sol     HW 4942   0.059   0.792   9.478 -0.3034 -0.6867  0.2059
  460Sol     HW 4943   0.197   0.730   9.469  0.0841  0.1215  0.5433
  460Sol     MW 4944   0.112   0.730   9.440  0.0597 -0.4567 -0.6814
  461Sol     OW 4945   2.283   3.079   5.272  0.2175 -0.5607  0.1347
  461Sol     HW 4946   2.351   3.119   5.216  0.6079 -0.5280  0.6269
  461Sol     HW 4947   2.220   3.149   5.286  0.1871 -0.5274 -0.1523
  461Sol     MW 4948   2.284   3.089   5.268 -0.5374 -0.6274 -0.4529
  462Sol     OW 4949   2.377   0.132   7.711  0.1384 -0.3106  0.1653
  462Sol     HW 4950   2.445   0.080   7.753  0.5235 -0.0031 -0.0717
  462Sol     HW 4951   2.418   0.165   7.631 -0.2838 -0.1189  0.0275
  462Sol     MW 4952   2.387   0.131   7.708  0.1450  0.1942  0.1599
  463Sol     OW 4953   1.453   1.429   7.841 -0.6536 -0.4021  0.2334
  463Sol     HW 4954   1.452   1.343   7.883 -1.4537 -0.1166  0.8097
  463Sol     HW 4955   1.466   1.411   7.748  0.9046 -1.0569  0.5687
  463Sol     MW 4956   1.454   1.420   7.837  0.1779  0.6503 -0.3928
  464Sol     OW 4957   1.890   1.066   3.924  0.5489 -0.5422 -0.5791
  464Sol     HW 4958   1.944   1.105   3.855 -0.0090 -1.4446 -1.5591
  464Sol     HW 4959   1.870   0.978   3.891  0.6962 -1.1856  0.9768
  464Sol     MW 4960   1.893   1.061   3.915 -0.3126 -0.3725 -0.4159
  465Sol     OW 4961   2.998   2.115   2.039 -0.7889  0.1080 -0.1483
  465Sol     HW 4962   2.999   2.037   2.095 -2.0075 -0.1096 -0.4276
  465Sol     HW 4963   3.040   2.087   1.958  0.7491  0.3515  0.5449
  465Sol     MW 4964   3.002   2.105   2.037 -0.0150  0.4943 -0.0056
  466Sol     OW 4965   0.499   0.835   7.145  0.8998  0.3142  0.6217
  466Sol     HW 4966   0.585   0.812   7.109  0.5743  0.5278 -0.3006
  466Sol     HW 4967   0.503   0.930   7.156  1.3103  0.1528  1.9911
  466Sol     MW 4968   0.507   0.841   7.143  0.4025  0.3258 -0.5929
  467Sol     OW 4969   0.860   3.333   4.833  0.0233  0.2278 -0.0368
  467Sol     HW 4970   0.902   3.248   4.843 -0.4207 -0.0504 -0.5208
  467Sol     HW 4971   0.815   3.348   4.917 -0.1468 -0.1484 -0.0633
  467Sol     MW 4972   0.860   3.327   4.842  0.1720  0.1158  0.5667
  468Sol     OW 4973   0.647   1.541   7.311 -0.4780 -0.0337 -0.1357
  468Sol     HW 4974   0.732   1.517   7.349 -0.7260 -1.4255 -0.4347
  468Sol     HW 4975   0.664   1.550   7.217  0.0000  2.8010  0.1725
  468Sol     MW 4976   0.656   1.540   7.306 -0.7514  0.4279  0.5071
  469Sol     OW 4977   1.482   0.951   9.276  0.3462 -0.3417  0.4177
  469Sol     HW 4978   1.447   0.863   9.265  0.0465 -0.1902  0.1605
  469Sol     HW 4979   1.523   0.950   9.362 -0.9333 -0.2974  1.0359
  469Sol     MW 4980   1.483   0.943   9.282 -0.1647  0.0023  0.0112
  470Sol     OW 4981   0.391   2.390   7.770  0.5635  0.0543 -0.1732
  470Sol     HW 4982   0.452   2.345   7.828 -1.1103 -0.9443  0.8648
  470Sol     HW 4983   0.369   2.471   7.816  0.7921  0.2070 -0.3382
  470Sol     MW 4984   0.394   2.393   7.779  0.3890 -0.0438 -0.0039
  471Sol     OW 4985   0.815   3.048   1.897 -0.2201 -0.3993 -0.7520
  471Sol     HW 4986   0.730   3.010   1.921  0.6122 -2.2072 -0.6123
  471Sol     HW 4987   0.840   3.002   1.816  0.6905  0.0154 -0.7108
  471Sol     MW 4988   0.810   3.040   1.892 -0.5264 -0.1155  0.0213
  472Sol     OW 4989   0.120   1.304   4.164  0.0164 -1.0602 -0.0498
  472Sol     HW 4990   0.043   1.313   4.221  0.2441  0.1810  0.0689
  472Sol     HW 4991   0.171   1.233   4.203 -0.6190 -1.2798  0.3875
  472Sol     MW 4992   0.117   1.299   4.173  0.4768 -0.4335  0.5897
  473Sol     OW 4993   1.145   2.168   4.255 -0.5558 -0.3250 -0.4009
  473Sol     HW 4994   1.109   2.168   4.344 -1.3567 -1.7590 -0.7005
  473Sol     HW 4995   1.169   2.076   4.239  0.8292  0.1631 -1.1757
  473Sol     MW 4996   1.144   2.159   4.262  0.7527 -0.1316  0.0813
  474Sol     OW 4997   0.420   1.129   6.407 -0.3103 -0.7654 -0.1205
  474Sol     HW 4998   0.467   1.150   6.326 -2.6071  0.0789 -1.3009
  474Sol     HW 4999   0.339   1.179   6.401 -0.6853 -0.9838  2.5695
  474Sol     MW 5000   0.417   1.135   6.399 -0.1927 -0.0000 -0.5505
  475Sol     OW 5001   2.526   2.859   5.360 -0.2066 -0.3453  0.1144
  475Sol     HW 5002   2.499   2.933   5.306 -3.3074 -0.9085  0.7965
  475Sol     HW 5003   2.444   2.824   5.395  1.2298 -3.8444  0.1532
  475Sol     MW 5004   2.516   2.862   5.359 -0.0324 -0.4657 -0.0490
  476Sol     OW 5005   0.540   2.378   2.591 -0.0924 -0.2526 -0.0672
  476Sol     HW 5006   0.453   2.416   2.600  0.3307  0.6006  0.5287
  476Sol     HW 5007   0.551   2.323   2.669  0.1364  0.1203  0.1643
  476Sol     MW 5008   0.533   2.376   2.599  0.1202 -0.1255 -0.3749
  477Sol     OW 5009   0.647   2.058   2.516  0.7327 -0.2839  0.0440
  477Sol     HW 5010   0.558   2.083   2.492  1.3274  0.1415 -1.7637
  477Sol     HW 5011   0.699   2.138   2.505  1.3534 -0.5477  1.0078
  477Sol     MW 5012   0.644   2.067   2.513 -0.2075  0.3080  0.1691
  478Sol     OW 5013   1.158   0.168   2.737 -0.3427  0.1573  0.5115
  478Sol     HW 5014   1.072   0.189   2.774 -1.1723  1.6495 -2.0891
  478Sol     HW 5015   1.157   0.073   2.726 -2.4809  0.3484 -1.3097
  478Sol     MW 5016   1.150   0.162   2.739 -0.3282  0.2479 -0.0089
  479Sol     OW 5017   1.218   0.538   5.940  0.0873  0.0150 -0.0693
  479Sol     HW 5018   1.244   0.537   5.847  2.7567 -0.2838  0.6476
  479Sol     HW 5019   1.163   0.461   5.950  1.3432 -1.0303 -0.9929
  479Sol     MW 5020   1.216   0.531   5.932  0.1479  0.0837 -0.0960
  480Sol     OW 5021   2.248   2.653   4.812  0.1828  0.2640  0.2644
  480Sol     HW 5022   2.343   2.647   4.814  0.2465  1.0743  0.0035
  480Sol     HW 5023   2.217   2.574   4.857  0.9682 -0.1809  0.0302
  480Sol     MW 5024   2.254   2.645   4.816 -0.5898  0.1017  0.5756
  481Sol     OW 5025   0.227   0.705   2.828 -0.2617 -0.0129  0.2913
  481Sol     HW 5026   0.243   0.612   2.841  0.0654 -0.2360 -1.5708
  481Sol     HW 5027   0.188   0.735   2.910  0.1692 -1.6602  1.1062
  481Sol     MW 5028   0.225   0.700   2.836  0.1946 -0.1327 -0.2285
  482Sol     OW 5029   2.487   2.715   2.942  0.1127 -0.0750 -0.3697
  482Sol     HW 5030   2.416   2.733   3.003  0.2760  1.1503 -0.5253
  482Sol     HW 5031   2.542   2.794   2.946  0.2270 -0.0690 -1.9544
  482Sol     MW 5032   2.486   2.724   2.948  0.4082  0.4063 -0.3910
  483Sol     OW 5033   2.688   1.651   4.191 -0.0102 -0.0539 -0.1605
  483Sol     HW 5034   2.704   1.740   4.222  0.1424  0.1467 -0.7971
  483Sol     HW 5035   2.773   1.608   4.195 -0.2412 -0.4227  0.9194
  483Sol     MW 5036   2.697   1.655   4.194  0.0101 -0.2049  0.1170
  484Sol     OW 5037   3.183   2.701   9.144 -0.7084  0.4276  0.3840
  484Sol     HW 5038   3.095   2.672   9.166 -0.6063 -1.1603 -1.1915
  484Sol     HW 5039   3.192   2.681   9.051  1.9706 -1.1280  0.9436
  484Sol     MW 5040   3.176   2.697   9.138 -0.6854  0.1841 -0.4629
  485Sol     OW 5041   1.467   2.345   7.890  0.5412  0.5522  0.2579
  485Sol     HW 5042   1.522   2.291   7.833 -1.3301 -1.6004  0.4028
  485Sol     HW 5043   1.521   2.360   7.967  0.4456 -2.8870  1.0930
  485Sol     MW 5044   1.477   2.342   7.892 -0.0500  0.4133 -0.3309
  486Sol     OW 5045   2.306   2.792   6.608 -0.4509  0.2801 -0.1217
  486Sol     HW 5046   2.391   2.828   6.631  0.2663  0.2299 -2.5841
  486Sol     HW 5047   2.248   2.868   6.604 -0.1665  0.5053 -0.0011
  486Sol     MW 5048   2.308   2.802   6.610  0.6214  0.4031 -0.2868
  487Sol     OW 5049   3.283   1.105   5.734 -0.2126  0.2936  0.5008
  487Sol     HW 5050   3.257   1.060   5.653 -1.2042 -1.1664  1.6134
  487Sol     HW 5051   3.201   1.133   5.773  0.0367 -1.8697  2.6333
  487Sol     MW 5052   3.274   1.104   5.730  0.3591 -0.2440  0.2882
  488Sol     OW 5053   1.326   2.672   5.981  0.3520  0.7161  0.4166
  488Sol     HW 5054   1.402   2.626   6.016 -0.4044 -0.6651  0.2794
  488Sol     HW 5055   1.256   2.656   6.044 -0.4564 -0.0280 -0.6541
  488Sol     MW 5056   1.326   2.667   5.990  0.1248 -0.7550 -0.4360
  489Sol     OW 5057   1.163   1.291   2.616 -0.1469 -0.2859  0.6296
  489Sol     HW 5058   1.244   1.253   2.583 -1.4104 -1.0689 -1.7164
  489Sol     HW 5059   1.108   1.216   2.638 -1.5304  0.1602 -1.1702
  489Sol     MW 5060   1.165   1.281   2.615 -0.0945  0.0025  0.0159
  490Sol     OW 5061   1.086   0.266   2.183  0.0830  0.2753  0.5460
  490Sol     HW 5062   1.089   0.239   2.091  1.4088  1.4884  0.2176
  490Sol     HW 5063   1.025   0.340   2.184 -0.9281 -0.5520  0.8724
  490Sol     MW 5064   1.081   0.270   2.175  0.3074 -0.3230  0.1516
  491Sol     OW 5065   1.235   1.531   7.952 -0.8256 -0.6167  0.0500
  491Sol     HW 5066   1.171   1.534   7.881  0.4690 -0.8466 -1.1536
  491Sol     HW 5067   1.314   1.496   7.911  0.8684  2.1085  0.8550
  491Sol     MW 5068   1.236   1.528   7.942 -0.5104 -0.1541  0.3534
  492Sol     OW 5069   3.125   1.015   7.811  0.1211 -0.6878 -0.0466
  492Sol     HW 5070   3.029   1.018   7.804  0.1927  0.5562 -0.6686
  492Sol     HW 5071   3.155   1.018   7.720  0.8142  2.6366  0.2275
  492Sol     MW 5072   3.119   1.016   7.802 -0.2137  0.0586  0.0984
  493Sol     OW 5073   0.120   3.314   9.204 -0.0470  0.0961 -0.5277
  493Sol     HW 5074   0.113   3.238   9.261  1.2511 -0.4281 -1.0475
  493Sol     HW 5075   0.097   3.388   9.260  0.2788 -0.5061  0.4160
  493Sol     MW 5076   0.117   3.314   9.214 -0.0441 -0.1475  0.5097
  494Sol     OW 5077   1.333   0.337   5.223  0.3593 -0.6578  0.6923
  494Sol     HW 5078   1.264   0.347   5.158 -0.7860 -1.4092  1.7851
  494Sol     HW 5079   1.412   0.370   5.179 -0.8074  0.8842 -0.3106
  494Sol     MW 5080   1.334   0.341   5.213 -0.4901 -0.4893 -0.6206
  495Sol     OW 5081   1.529   1.412   7.549  0.2022  0.3310  0.1306
  495Sol     HW 5082   1.620   1.434   7.567  0.0105  1.4166 -0.2221
  495Sol     HW 5083   1.534   1.343   7.482  0.7520  0.5891 -0.0971
  495Sol     MW 5084   1.537   1.408   7.544 -0.1484 -0.4023 -0.6493
  496Sol     OW 5085   2.002   2.449   4.507  0.1875 -0.2777 -0.1272
  496Sol     HW 5086   1.955   2.447   4.591 -1.4008  1.6372 -0.9376
  496Sol     HW 5087   2.059   2.526   4.513  0.2745 -0.2942 -0.7043
  496Sol     MW 5088   2.003   2.456   4.515  0.1895 -0.4196 -0.1242
  497Sol     OW 5089   1.415   0.670   1.372 -0.3577  0.0889  0.0130
  497Sol     HW 5090   1.336   0.643   1.324 -0.1764 -2.3438  1.0423
  497Sol     HW 5091   1.385   0.741   1.428 -1.3697  0.5344 -1.0539
  497Sol     MW 5092   1.405   0.674   1.373 -0.0736 -0.2555  0.4014
  498Sol     OW 5093   0.860   2.039   1.792 -0.6404 -0.1157  0.5177
  498Sol     HW 5094   0.881   1.976   1.723 -1.7083  1.1689 -1.0488
  498Sol     HW 5095   0.942   2.085   1.809 -0.9930  1.6199 -2.1176
  498Sol     MW 5096   0.869   2.037   1.787 -0.4337 -0.5842  0.2198
  499Sol     OW 5097   0.103   3.239   6.527  0.5787 -0.1361 -0.7867
  499Sol     HW 5098   0.060   3.214   6.609 -0.7191 -3.4714 -2.3872
  499Sol     HW 5099   0.052   3.313   6.495 -0.0183  0.0395  0.5294
  499Sol     MW 5100   0.095   3.243   6.532 -0.6359  0.2171 -0.0029
  500Sol     OW 5101   2.056   3.213   8.416 -0.0619  0.2959  0.3926
  500Sol     HW 5102   2.116   3.218   8.490  0.6789  0.9810 -0.2409
  500Sol     HW 5103   2.104   3.163   8.349 -1.2572 -1.5210  0.8568
  500Sol     MW 5104   2.066   3.209   8.417 -0.1256  0.3400 -0.1909
  501Sol     OW 5105   0.425   1.979   4.123  0.0942 -0.0780 -0.3710
  501Sol     HW 5106   0.371   2.015   4.053  0.1829  0.1239 -0.3348
  501Sol     HW 5107   0.508   1.957   4.079  0.0623 -0.1791 -0.3801
  501Sol     MW 5108   0.428   1.980   4.112  0.6217  0.2212 -0.1369
  502Sol     OW 5109   1.312   3.149   1.856  0.2211  0.5834 -0.1352
  502Sol     HW 5110   1.239   3.210   1.855  0.5633  0.9804 -1.1491
  502Sol     HW 5111   1.272   3.063   1.847 -0.0169  0.9171 -2.4760
  502Sol     MW 5112   1.302   3.147   1.855 -0.2800 -0.5181  0.0875
  503Sol     OW 5113   0.863   0.341   2.533 -0.0198  0.4139  0.2777
  503Sol     HW 5114   0.941   0.396   2.536  0.1808  0.0970  1.1164
  503Sol     HW 5115   0.803   0.388   2.475  1.7967 -0.6968 -2.5910
  503Sol     MW 5116   0.865   0.350   2.528 -0.7862 -0.2355 -1.1284
  504Sol     OW 5117   1.024   2.373   5.006  0.1880  0.5190 -0.2110
  504Sol     HW 5118   1.046   2.372   4.913 -1.5300 -1.5947 -0.6334
  504Sol     HW 5119   0.985   2.460   5.020  3.0401  1.9494 -0.7816
  504Sol     MW 5120   1.022   2.381   4.999  0.4101 -0.1253 -0.2432
  505Sol     OW 5121   1.246   3.060   5.020  0.0698  0.0097  0.7311
  505Sol     HW 5122   1.224   3.055   5.113  0.2537 -1.6031  0.7095
  505Sol     HW 5123   1.161   3.066   4.976 -0.0487  0.0944  0.9726
  505Sol     MW 5124   1.236   3.060   5.025 -0.4031  0.5680 -0.1056
  506Sol     OW 5125   1.107   2.038   8.815 -0.1518  0.4066 -0.8072
  506Sol     HW 5126   1.118   1.988   8.734 -1.4512 -0.4752 -0.4541
  506Sol     HW 5127   1.031   2.095   8.799  0.6798  1.5329 -0.8362
  506Sol     MW 5128   1.101   2.039   8.807  0.0937  0.4430 -0.1465
  507Sol     OW 5129   1.074   0.566   4.933  0.2510  0.1923  0.1610
  507Sol     HW 5130   1.084   0.603   5.021 -0.6436  1.7038 -0.3519
  507Sol     HW 5131   0.982   0.543   4.927  0.9123 -2.8248  0.7004
  507Sol     MW 5132   1.067   0.568   4.940  0.1144  0.1734 -0.2716
  508Sol     OW 5133   0.199   1.861   2.454 -0.0264  0.1680 -0.3429
  508Sol     HW 5134   0.289   1.851   2.423  0.9836  2.6697  1.5821
  508Sol     HW 5135   0.194   1.804   2.532 -2.1127 -4.9368 -3.9214
  508Sol     MW 5136   0.207   1.855   2.459  0.4594  0.1095 -0.1369
  509Sol     OW 5137   1.966   2.044   8.863  0.2841 -0.3749 -0.1429
  509Sol     HW 5138   1.880   2.031   8.823  0.3690 -1.0136 -0.1124
  509Sol     HW 5139   1.959   2.001   8.948  1.1332 -1.7237 -0.7577
  509Sol     MW 5140   1.958   2.039   8.867 -0.0248 -0.2263  0.1978
  510Sol     OW 5141   0.380   0.817   9.477  0.0645  0.6397  0.2518
  510Sol     HW 5142   0.443   0.753   9.444 -0.0334  0.7658 -0.1801
  510Sol     HW 5143   0.427   0.900   9.475 -0.5820  0.9795 -1.4441
  510Sol     MW 5144   0.390   0.819   9.474  0.0823  0.3658  0.2247
  511Sol     OW 5145   1.218   0.364   4.627 -0.0591  0.8733 -0.0795
  511Sol     HW 5146   1.277   0.430   4.661 -0.9128  1.0313  1.1270
  511Sol     HW 5147   1.228   0.289   4.686 -0.8804  0.8133 -0.0027
  511Sol     MW 5148   1.224   0.363   4.635  0.0945 -0.0953 -0.6904
  512Sol     OW 5149   0.032   1.948   8.315  0.3393 -0.4084 -0.0402
  512Sol     HW 5150   0.090   1.873   8.320 -2.4864 -2.7098 -0.2294
  512Sol     HW 5151   0.040   1.979   8.225  2.4158  0.2996  0.3726
  512Sol     MW 5152   0.038   1.944   8.307  0.1721 -0.0332  0.2530
  513Sol     OW 5153   0.591   2.963   8.699  0.1563  0.2287  0.5064
  513Sol     HW 5154   0.505   2.922   8.694  0.0707  0.4695  0.0015
  513Sol     HW 5155   0.587   3.015   8.780 -0.0880  0.0462  0.6129
  513Sol     MW 5156   0.583   2.964   8.706 -0.3188 -0.8357 -0.4788
  514Sol     OW 5157   3.051   2.948   2.837 -0.6207  0.1509  0.0252
  514Sol     HW 5158   2.995   2.948   2.759  0.1810 -1.8122 -0.5894
  514Sol     HW 5159   3.000   2.900   2.903 -0.8125  0.7974  0.3545
  514Sol     MW 5160   3.041   2.943   2.836  0.2547 -0.2167 -0.3709
  515Sol     OW 5161   1.650   2.729   3.181  0.3686  0.1767  0.2769
  515Sol     HW 5162   1.722   2.680   3.220 -0.3547  0.1137  1.5653
  515Sol     HW 5163   1.676   2.820   3.190  0.8011  0.1119 -0.2933
  515Sol     MW 5164   1.659   2.732   3.186 -0.1911  0.0264 -0.2395
  516Sol     OW 5165   2.582   0.153   6.919  0.2205 -0.0641  0.0204
  516Sol     HW 5166   2.486   0.157   6.918  0.0892 -2.3434 -0.1410
  516Sol     HW 5167   2.607   0.160   6.827  0.2102  0.7358  0.0816
  516Sol     MW 5168   2.576   0.154   6.911  0.0091  0.0257  0.3624
  517Sol     OW 5169   1.701   2.064   8.824  0.3499  0.1628 -0.0071
  517Sol     HW 5170   1.660   2.046   8.909  2.9765 -0.5771  1.1669
  517Sol     HW 5171   1.673   1.993   8.767  0.3184 -0.5456  0.8868
  517Sol     MW 5172   1.695   2.056   8.827 -0.2033 -0.0112 -0.1666
  518Sol     OW 5173   2.964   0.557   4.143 -0.6794  0.8019 -0.1955
  518Sol     HW 5174   2.937   0.480   4.094 -0.2356  0.0955  0.6453
  518Sol     HW 5175   3.048   0.581   4.105 -0.6909  0.7046 -0.2834
  518Sol     MW 5176   2.969   0.552   4.135 -0.1183 -0.0676 -0.1990
  519Sol     OW 5177   1.675   2.740   3.529 -0.0756  0.4543 -0.2124
  519Sol     HW 5178   1.694   2.762   3.620 -0.8891  0.3256 -0.0097
  519Sol     HW 5179   1.586   2.705   3.531 -0.7086  1.9594 -1.2947
  519Sol     MW 5180   1.669   2.738   3.537 -0.3838  0.0221 -0.7940
  520Sol     OW 5181   1.935   1.673   3.425  0.3199  0.7048  0.0378
  520Sol     HW 5182   1.876   1.653   3.498  1.2383 -0.3492  0.5060
  520Sol     HW 5183   2.022   1.647   3.457  1.0993  2.6110 -0.4930
  520Sol     MW 5184   1.938   1.669   3.434  0.1264  0.2962  0.4394
  521Sol     OW 5185   1.191   2.649   4.584  0.4230 -0.2137 -0.2290
  521Sol     HW 5186   1.113   2.626   4.635 -0.3888 -1.0386 -1.8018
  521Sol     HW 5187   1.263   2.609   4.632 -0.1906 -0.0996  0.8240
  521Sol     MW 5188   1.190   2.644   4.593  0.3938 -0.0195  0.6878
  522Sol     OW 5189   0.313   1.487   5.903  0.0487 -0.0277  0.1955
  522Sol     HW 5190   0.315   1.392   5.905  0.1014 -0.0189  0.8112
  522Sol     HW 5191   0.275   1.509   5.818 -1.8026 -0.6126  0.8645
  522Sol     MW 5192   0.310   1.481   5.896 -0.5803  0.1630  0.1206
  523Sol     OW 5193   1.558   2.037   3.701  0.3339 -0.4713  0.4877
  523Sol     HW 5194   1.517   2.105   3.754 -0.7503  0.7133 -1.7956
  523Sol     HW 5195   1.648   2.067   3.690 -0.0458  0.4225 -0.2184
  523Sol     MW 5196   1.562   2.046   3.705  0.1908  0.1818 -0.0144
  524Sol     OW 5197   2.621   2.047   4.571 -0.3488 -0.0910 -1.0165
  524Sol     HW 5198   2.576   2.026   4.490  0.1914  1.3987 -1.7175
  524Sol     HW 5199   2.551   2.061   4.634 -0.7566 -2.0325 -0.9908
  524Sol     MW 5200   2.611   2.046   4.570 -0.8705  0.3977 -0.0178
  525Sol     OW 5201   0.413   2.704   2.448 -0.3958  0.0888 -0.0041
  525Sol     HW 5202   0.501   2.687   2.414  0.1764  0.0633  1.4719
  525Sol     HW 5203   0.362   2.629   2.419 -0.3994  0.9578 -2.4217
  525Sol     MW 5204   0.416   2.696   2.442  0.8360 -0.4245 -0.5405
  526Sol     OW 5205   0.319   0.456   6.324  0.3920 -0.0540  0.3101
  526Sol     HW 5206   0.226   0.451   6.349  0.1757 -0.0474 -0.4750
  526Sol     HW 5207   0.320   0.513   6.247  1.1413  0.5640  0.7759
  526Sol     MW 5208   0.310   0.460   6.319 -0.0064 -0.0860  0.2316
  527Sol     OW 5209   1.876   0.744   4.833  0.1488 -0.2072  0.3752
  527Sol     HW 5210   1.783   0.758   4.846 -0.3569 -1.1117 -2.0377
  527Sol     HW 5211   1.883   0.655   4.799  1.8661 -0.0524  0.2435
  527Sol     MW 5212   1.869   0.737   4.831  0.1244  0.3381 -0.2717
  528Sol     OW 5213   0.061   3.164   7.165  0.0248 -0.0800  0.8593
  528Sol     HW 5214   0.091   3.246   7.123  1.2795 -1.3494 -0.8109
  528Sol     HW 5215  -0.009   3.192   7.223  0.1493  2.1522  0.0216
  528Sol     MW 5216   0.058   3.174   7.166 -0.2543  0.8192  0.3183
  529Sol     OW 5217   0.433   0.570   8.176  0.4041  0.2478 -0.4756
  529Sol     HW 5218   0.472   0.506   8.116 -0.6424 -0.5151 -0.3448
  529Sol     HW 5219   0.348   0.590   8.138 -0.2911 -0.2835  0.7932
  529Sol     MW 5220   0.429   0.566   8.167  0.0683  0.4888  0.1072
  530Sol     OW 5221   1.530   2.099   9.065 -0.0093  0.6484 -0.0841
  530Sol     HW 5222   1.456   2.101   9.004 -0.7641 -1.8945  0.7019
  530Sol     HW 5223   1.505   2.160   9.134 -0.0946  1.9367 -1.2309
  530Sol     MW 5224   1.521   2.105   9.065  0.3325  0.0924  0.2687
  531Sol     OW 5225   0.527   1.491   6.098 -0.3580 -0.2034  0.1520
  531Sol     HW 5226   0.479   1.492   6.015 -1.8483  0.6533  0.9924
  531Sol     HW 5227   0.587   1.565   6.093 -1.0568  0.3735  0.1647
  531Sol     MW 5228   0.528   1.498   6.090 -0.1677  0.4535 -0.4346
  532Sol     OW 5229   2.664   2.835   5.611 -0.4573  0.8870  0.1317
  532Sol     HW 5230   2.610   2.859   5.536  0.1344  1.1156 -0.2184
  532Sol     HW 5231   2.725   2.908   5.621  0.0860  0.4177  0.2521
  532Sol     MW 5232   2.665   2.844   5.605  0.2850 -0.9158 -0.1572
  533Sol     OW 5233   2.444   1.180   7.453  0.2137  0.6973  0.3049
  533Sol     HW 5234   2.517   1.230   7.489 -0.0262  0.4433  1.1590
  533Sol     HW 5235   2.401   1.142   7.529 -0.9235  0.9888 -0.1788
  533Sol     MW 5236   2.447   1.181   7.463 -0.5995 -0.4020  0.0077
  534Sol     OW 5237   2.021   2.169   7.777 -0.9367 -0.2961 -0.0283
  534Sol     HW 5238   2.083   2.095   7.784 -0.6100  0.0574  0.9400
  534Sol     HW 5239   1.946   2.141   7.829 -0.0774  0.7782  1.8375
  534Sol     MW 5240   2.020   2.160   7.783 -0.1081  0.5591  0.2982
  535Sol     OW 5241   2.149   0.551   2.897  0.0916  0.2615  0.4581
  535Sol     HW 5242   2.185   0.566   2.984 -0.4198  0.8616  0.5755
  535Sol     HW 5243   2.219   0.507   2.849  0.4985  0.2345  1.0713
  535Sol     MW 5244   2.159   0.549   2.900 -0.2480  0.0600 -0.2673
  536Sol     OW 5245   1.467   3.103   7.450 -0.2040 -0.0631 -0.0866
  536Sol     HW 5246   1.479   3.093   7.356  0.8443 -2.3967  0.2672
  536Sol     HW 5247   1.549   3.140   7.482  0.8696 -2.7530  0.3860
  536Sol     MW 5248   1.475   3.106   7.445 -0.0974 -0.4192 -0.0684
  537Sol     OW 5249   0.412   0.739   3.268  0.0391  0.1214  0.1555
  537Sol     HW 5250   0.351   0.666   3.252 -0.3728  0.3351  0.7402
  537Sol     HW 5251   0.476   0.733   3.197 -0.3465 -0.4447 -0.1451
  537Sol     MW 5252   0.412   0.732   3.260  0.0984 -0.0261  0.0212
  538Sol     OW 5253   3.299   2.370   7.911  0.1464  0.0542 -0.4676
  538Sol     HW 5254   3.325   2.298   7.854 -1.3233 -1.6867  0.9970
  538Sol     HW 5255   3.374   2.382   7.969 -0.0932 -1.1728  0.1096
  538Sol     MW 5256   3.308   2.365   7.911 -0.1996 -0.0944 -0.6938
  539Sol     OW 5257   2.186   3.145   8.163  0.0527  0.1935 -0.3000
  539Sol     HW 5258   2.241   3.223   8.175 -0.3184  0.4588 -0.2840
  539Sol     HW 5259   2.224   3.080   8.222  0.0390  0.5413  0.1037
  539Sol     MW 5260   2.194   3.146   8.170 -0.6533 -0.1663  0.3968
  540Sol     OW 5261   2.442   1.923   4.941  0.2482  0.2396  0.6404
  540Sol     HW 5262   2.425   1.996   4.880 -0.7835 -0.5651 -0.0567
  540Sol     HW 5263   2.357   1.903   4.979  0.1785 -1.7714 -0.5129
  540Sol     MW 5264   2.433   1.928   4.939 -0.1417  0.7442 -0.0367
  541Sol     OW 5265   0.906   1.859   2.237  0.2461  0.0686  0.1941
  541Sol     HW 5266   0.862   1.775   2.243 -2.7902  1.5418 -0.3443
  541Sol     HW 5267   0.835   1.924   2.239  2.4166  2.5717 -0.3401
  541Sol     MW 5268   0.896   1.858   2.238 -0.2462  0.0958  0.6960
  542Sol     OW 5269   2.061   1.563   2.605  0.0296  0.1470 -0.3470
  542Sol     HW 5270   2.023   1.534   2.523  0.4107 -0.6481 -0.2435
  542Sol     HW 5271   2.154   1.578   2.585  0.0541  0.2823 -0.1423
  542Sol     MW 5272   2.066   1.562   2.596 -0.0694 -0.1275  0.2508
  543Sol     OW 5273   2.012   0.300   6.424  0.0661 -0.2265 -0.1030
  543Sol     HW 5274   2.063   0.234   6.376 -0.5960 -2.2664  1.9090
  543Sol     HW 5275   2.073   0.334   6.490 -0.2634 -0.5174  0.3576
  543Sol     MW 5276   2.022   0.297   6.426 -0.1606 -0.8241  0.3249
  544Sol     OW 5277   1.166   2.429   5.237  0.3605 -0.3562 -0.2732
  544Sol     HW 5278   1.112   2.396   5.165  0.0060  0.6742 -0.4868
  544Sol     HW 5279   1.151   2.367   5.308 -0.8832 -0.2517 -0.4227
  544Sol     MW 5280   1.160   2.420   5.237  0.0348  0.0542  0.2799
  545Sol     OW 5281   1.918   2.412   2.109 -0.4790 -0.5178 -0.1262
  545Sol     HW 5282   1.964   2.454   2.037 -0.6620  1.6962  0.9760
  545Sol     HW 5283   1.970   2.434   2.187 -1.8152 -0.4176  0.7704
  545Sol     MW 5284   1.927   2.418   2.110 -0.0922 -0.6163 -0.1316
  546Sol     OW 5285   1.844   0.271   2.404  0.0480 -0.2360  0.4770
  546Sol     HW 5286   1.772   0.332   2.394  0.5957  0.2701 -0.4984
  546Sol     HW 5287   1.843   0.246   2.496 -1.2685 -0.1116  0.4976
  546Sol     MW 5288   1.838   0.274   2.411  0.2501  0.3889 -0.2365
  547Sol     OW 5289   0.989   2.964   5.412  0.9412 -0.0592  0.6294
  547Sol     HW 5290   1.071   2.964   5.362  1.1921 -0.7489  1.0267
  547Sol     HW 5291   0.941   2.889   5.379  0.9212 -0.2642  1.1129
  547Sol     MW 5292   0.992   2.957   5.405 -0.3188 -0.0572  0.5124
  548Sol     OW 5293   0.871   2.745   3.638 -0.7926 -0.2457 -0.1196
  548Sol     HW 5294   0.875   2.716   3.729 -0.7835 -0.0539 -0.0572
  548Sol     HW 5295   0.777   2.758   3.621 -0.7940 -0.2769 -0.1359
  548Sol     MW 5296   0.863   2.744   3.645  0.0074 -0.0659 -0.2509
  549Sol     OW 5297   1.029   0.570   6.618 -0.2356  0.5455  0.5874
  549Sol     HW 5298   1.108   0.556   6.566 -0.6713 -2.3531  0.6512
  549Sol     HW 5299   0.961   0.587   6.553 -0.6166 -2.2812  0.1909
  549Sol     MW 5300   1.030   0.570   6.607 -0.0851 -0.0849 -0.4527
  550Sol     OW 5301   0.716   0.890   7.938  0.4533 -0.0549  0.9449
  550Sol     HW 5302   0.754   0.958   7.993  1.0330 -1.2927  2.1012
  550Sol     HW 5303   0.792   0.841   7.905  0.0048 -0.6717  0.8279
  550Sol     MW 5304   0.726   0.891   7.940  0.4962  0.4009 -0.0488
  551Sol     OW 5305   2.038   0.777   6.589 -0.4375 -0.9583 -0.9441
  551Sol     HW 5306   1.949   0.813   6.589 -0.1371 -0.2055  0.1607
  551Sol     HW 5307   2.028   0.688   6.622 -0.8348 -1.0197 -1.2276
  551Sol     MW 5308   2.029   0.772   6.592 -0.2936  0.0763 -0.6231
  552Sol     OW 5309   0.992   2.902   5.987 -0.7183 -0.0567  0.3361
  552Sol     HW 5310   0.999   2.830   6.050 -0.3510  0.1278  0.5099
  552Sol     HW 5311   0.993   2.859   5.901 -0.3886 -0.2548  0.4367
  552Sol     MW 5312   0.993   2.892   5.985 -0.3124  0.3125 -0.1044
  553Sol     OW 5313   0.180   1.684   9.893 -0.1829  0.0708 -0.0632
  553Sol     HW 5314   0.164   1.647   9.980 -0.3506  1.7477  0.6346
  553Sol     HW 5315   0.226   1.766   9.910  0.8571 -0.1630 -1.6186
  553Sol     MW 5316   0.183   1.688   9.902 -0.0459 -0.0856 -0.8155
  554Sol     OW 5317   1.490   1.525   6.576  0.6407  0.0937 -0.6572
  554Sol     HW 5318   1.499   1.578   6.497  2.1374  0.6212 -0.1609
  554Sol     HW 5319   1.570   1.474   6.580  1.1986  1.0573  1.1997
  554Sol     MW 5320   1.498   1.525   6.569 -0.0023  0.2345  0.4320
  555Sol     OW 5321   3.314   3.067   4.499 -0.4614 -0.7032 -0.5808
  555Sol     HW 5322   3.357   3.089   4.416  1.4585  0.0097  0.5584
  555Sol     HW 5323   3.335   3.141   4.557 -3.4821 -0.2059 -0.0249
  555Sol     MW 5324   3.320   3.076   4.496  0.0924  0.0188  0.1258
  556Sol     OW 5325   0.078   2.675   1.701  0.6254 -0.1025  0.7657
  556Sol     HW 5326  -0.015   2.694   1.713  0.3810 -0.6511 -0.2033
  556Sol     HW 5327   0.101   2.622   1.777  0.2536  0.3987  1.2354
  556Sol     MW 5328   0.071   2.672   1.709 -0.4706 -0.3476 -0.4548
  557Sol     OW 5329   3.091   1.162   9.181 -0.4143 -0.0589  0.3515
  557Sol     HW 5330   3.117   1.086   9.129 -0.3582  1.1739 -1.4714
  557Sol     HW 5331   3.171   1.213   9.189 -0.5265 -0.0245  1.2952
  557Sol     MW 5332   3.101   1.160   9.177 -0.3068  0.0969 -0.5470
  558Sol     OW 5333   2.989   0.114   4.939 -0.3700  0.2811  0.2014
  558Sol     HW 5334   2.934   0.129   4.862 -2.5515 -0.4371  1.5812
  558Sol     HW 5335   3.035   0.032   4.920  0.2727  0.8963 -0.9640
  558Sol     MW 5336   2.988   0.108   4.930 -0.0582  0.2939  0.0120
  559Sol     OW 5337   1.816   2.299   9.303  0.4378  0.1216  0.2177
  559Sol     HW 5338   1.854   2.214   9.279 -0.5798  0.2930 -2.0861
  559Sol     HW 5339   1.722   2.283   9.307  0.1177  1.4477 -1.6010
  559Sol     MW 5340   1.811   2.290   9.301  0.0542  0.0313 -0.3553
  560Sol     OW 5341   3.176   2.184   7.083  0.1565 -0.0212  0.1860
  560Sol     HW 5342   3.244   2.130   7.123  0.0546 -1.0109 -0.9572
  560Sol     HW 5343   3.215   2.271   7.077  1.0467 -0.4103  0.2194
  560Sol     MW 5344   3.186   2.187   7.086  0.4133  0.1782  0.4144
  561Sol     OW 5345   2.835   0.937   4.782 -0.0125  0.5177 -0.2843
  561Sol     HW 5346   2.852   0.963   4.872 -0.5989  1.7147 -0.5090
  561Sol     HW 5347   2.785   1.010   4.745  0.9869  0.4399 -1.8287
  561Sol     MW 5348   2.832   0.946   4.787  0.0292 -0.2042 -0.0034
  562Sol     OW 5349   3.029   3.448   6.193  0.1369  0.0120 -0.7525
  562Sol     HW 5350   2.979   3.463   6.113  0.4734  0.8570 -0.8098
  562Sol     HW 5351   2.964   3.431   6.260 -0.1783  0.1357 -1.0284
  562Sol     MW 5352   3.019   3.447   6.192  0.1051 -0.5890 -0.1163
  563Sol     OW 5353   2.972   2.454   5.667 -0.6305 -0.2613 -0.2714
  563Sol     HW 5354   2.954   2.395   5.740 -0.8148  0.7575  0.5049
  563Sol     HW 5355   2.913   2.423   5.597  0.4926 -2.0688 -0.4553
  563Sol     MW 5356   2.965   2.446   5.667  0.3615 -0.4243 -0.4405
  564Sol     OW 5357   0.054   3.433   5.049 -0.2707 -0.6216  0.1080
  564Sol     HW 5358   0.126   3.440   4.987 -1.1381 -0.7988 -0.9357
  564Sol     HW 5359   0.093   3.395   5.127  0.9916  0.3049 -0.0583
  564Sol     MW 5360   0.064   3.430   5.050  0.2609  0.1015  0.0349
  565Sol     OW 5361   1.787   3.283   3.564 -0.4557 -0.7076  0.3002
  565Sol     HW 5362   1.840   3.299   3.486 -0.4076 -0.1177  0.4487
  565Sol     HW 5363   1.762   3.191   3.558  0.2937 -0.8979  0.0491
  565Sol     MW 5364   1.789   3.276   3.556 -0.3213  0.6669 -0.1124
  566Sol     OW 5365   3.294   3.171   5.338 -0.3296  0.1915  0.0872
  566Sol     HW 5366   3.285   3.207   5.426  0.2985  0.6086 -0.0127
  566Sol     HW 5367   3.378   3.125   5.339 -1.2976 -1.6250  0.3241
  566Sol     MW 5368   3.301   3.170   5.346  0.6759 -0.2311 -0.9476
  567Sol     OW 5369   2.027   0.481   4.351  0.1244 -0.6180  0.4954
  567Sol     HW 5370   2.068   0.566   4.333  0.7704 -1.3044 -1.4701
  567Sol     HW 5371   2.025   0.474   4.446  0.3944  1.4418  0.6641
  567Sol     MW 5372   2.031   0.488   4.358  0.4024 -0.8506 -0.1755
  568Sol     OW 5373   0.884   1.197   4.274  0.2150  0.0062 -0.3772
  568Sol     HW 5374   0.895   1.146   4.194  1.7275  1.1037 -0.8899
  568Sol     HW 5375   0.973   1.220   4.300 -0.3923  1.7331  0.2480
  568Sol     MW 5376   0.893   1.195   4.269 -0.5013  0.0395 -0.0962
  569Sol     OW 5377   1.833   1.288   9.122  0.6250  0.1938 -0.0746
  569Sol     HW 5378   1.808   1.298   9.214  1.3545  0.8622  0.0516
  569Sol     HW 5379   1.916   1.241   9.124  0.0892 -0.8082 -0.4500
  569Sol     MW 5380   1.838   1.284   9.130  0.2477  0.7318  0.1569
  570Sol     OW 5381   1.795   2.566   7.660 -0.1464  0.4337  0.5256
  570Sol     HW 5382   1.886   2.584   7.637  0.4234 -0.9073  1.6710
  570Sol     HW 5383   1.792   2.571   7.755 -1.7711  2.6492  0.4067
  570Sol     MW 5384   1.803   2.568   7.666  0.3308  0.5019  0.1160
  571Sol     OW 5385   0.070   2.419   5.668  0.3423  1.0137 -0.3142
  571Sol     HW 5386   0.059   2.482   5.597 -1.8405  0.8170 -0.1820
  571Sol     HW 5387  -0.008   2.365   5.665  1.3121 -0.5033  0.7742
  571Sol     MW 5388   0.062   2.420   5.661 -0.3372  0.2205  0.8819
  572Sol     OW 5389   2.657   0.204   5.667 -0.2707  0.3066 -0.0841
  572Sol     HW 5390   2.719   0.194   5.594  0.0574  1.1155  0.0766
  572Sol     HW 5391   2.619   0.117   5.678 -0.6091  0.2572 -1.4749
  572Sol     MW 5392   2.659   0.195   5.661 -0.4841 -0.7600 -0.4236
  573Sol     OW 5393   3.219   2.560   2.977 -0.7103  0.3816  0.5211
  573Sol     HW 5394   3.150   2.616   3.013 -1.5689  0.6672 -1.5205
  573Sol     HW 5395   3.173   2.498   2.921  0.6523  0.3244 -0.5573
  573Sol     MW 5396   3.208   2.559   2.975 -0.1678  0.2016  0.2628
  574Sol     OW 5397   0.646   2.279   2.225 -0.7307 -0.0751 -0.1702
  574Sol     HW 5398   0.654   2.184   2.225  0.1145 -0.0120  0.9946
  574Sol     HW 5399   0.707   2.309   2.158 -0.3309 -0.2988  0.0967
  574Sol     MW 5400   0.652   2.273   2.219 -0.5977 -0.2575  0.1896
  575Sol     OW 5401   3.226   1.389   4.775  0.4764 -0.3577 -0.8272
  575Sol     HW 5402   3.284   1.463   4.761  0.4755 -0.3668 -0.8777
  575Sol     HW 5403   3.139   1.421   4.752  0.4932 -0.4095 -0.9627
  575Sol     MW 5404   3.223   1.398   4.772  0.6033 -0.0652  0.1321
  576Sol     OW 5405   1.544   3.308   2.802  0.4678  0.4664 -0.6940
  576Sol     HW 5406   1.466   3.326   2.855  1.1606  1.6765 -0.0694
  576Sol     HW 5407   1.510   3.297   2.713 -0.5866 -0.5646 -0.1770
  576Sol     MW 5408   1.534   3.309   2.798  1.1107  0.2717  0.9128
  577Sol     OW 5409   1.002   2.748   1.778  0.1460 -0.3671 -0.6434
  577Sol     HW 5410   0.973   2.758   1.688 -0.5951 -1.7472 -0.5739
  577Sol     HW 5411   1.025   2.655   1.786 -0.8363 -0.5011  0.8785
  577Sol     MW 5412   1.001   2.741   1.771 -0.2256 -0.6651 -0.0015
  578Sol     OW 5413   3.196   0.569   6.213  0.1832  1.0332  0.3820
  578Sol     HW 5414   3.130   0.629   6.179  0.4523  1.3048  0.3408
  578Sol     HW 5415   3.158   0.482   6.202  0.2836  1.1165 -0.6451
  578Sol     MW 5416   3.187   0.567   6.209 -0.2431 -0.1615 -0.0062
  579Sol     OW 5417   0.799   2.357   7.018 -0.4581  0.0995 -0.8240
  579Sol     HW 5418   0.860   2.400   7.078  1.2221 -2.6971 -0.4376
  579Sol     HW 5419   0.738   2.426   6.993  1.1119  2.2727  1.0742
  579Sol     MW 5420   0.799   2.367   7.022  0.8538 -0.3243 -0.0804
  580Sol     OW 5421   1.921   3.163   5.991  0.1753  0.0268  1.4017
  580Sol     HW 5422   1.865   3.227   6.035 -1.0874  0.1894 -0.4285
  580Sol     HW 5423   1.869   3.082   5.989 -0.3870  0.4311 -1.1246
  580Sol     MW 5424   1.912   3.161   5.995 -0.8584  0.2652  0.0482
  581Sol     OW 5425   1.202   2.268   2.552 -0.5909 -0.0911 -0.6345
  581Sol     HW 5426   1.164   2.293   2.636 -0.6207 -0.5496 -0.5074
  581Sol     HW 5427   1.195   2.346   2.497 -2.7244 -0.5088 -0.9812
  581Sol     MW 5428   1.198   2.277   2.555  0.1012 -0.0395 -0.2477
  582Sol     OW 5429   2.509   2.284   7.856 -0.2306 -0.0395  0.0860
  582Sol     HW 5430   2.515   2.288   7.761 -0.8683  0.9090  0.0772
  582Sol     HW 5431   2.598   2.301   7.887  0.0128 -0.5462 -0.3480
  582Sol     MW 5432   2.518   2.286   7.851  0.5578 -0.1650 -0.5124
  583Sol     OW 5433   2.079   2.527   8.710  0.0579 -0.1690 -0.2460
  583Sol     HW 5434   2.044   2.615   8.702 -0.5429 -0.5272 -1.5805
  583Sol     HW 5435   2.039   2.477   8.639 -0.6208 -1.8537  1.2635
  583Sol     MW 5436   2.073   2.530   8.703 -0.0036 -0.6054  0.1311
  584Sol     OW 5437   1.439   2.144   6.550 -0.2631 -0.3194  0.2128
  584Sol     HW 5438   1.519   2.194   6.565  0.3153 -0.9612 -0.6366
  584Sol     HW 5439   1.452   2.063   6.600 -0.8491  0.0318  0.9393
  584Sol     MW 5440   1.448   2.141   6.556 -0.3873  0.2973  0.3987
  585Sol     OW 5441   0.027   3.011   9.582 -0.7146  0.3628 -0.0284
  585Sol     HW 5442  -0.047   3.068   9.602 -1.0822  0.0060 -0.3766
  585Sol     HW 5443   0.069   2.997   9.667 -1.2674  0.2551  0.2296
  585Sol     MW 5444   0.024   3.015   9.591  0.4344 -0.3020 -0.1969
  586Sol     OW 5445   0.693   1.990   3.634  0.1876  0.1069  0.0789
  586Sol     HW 5446   0.657   1.962   3.550 -0.6770  0.1588  0.4311
  586Sol     HW 5447   0.757   1.923   3.656  0.4881  0.1403 -0.6625
  586Sol     MW 5448   0.696   1.982   3.628  0.5020 -0.4940 -0.2732
  587Sol     OW 5449   0.998   2.000   7.505  0.1824  0.2854 -0.1356
  587Sol     HW 5450   1.039   1.950   7.576 -1.0267 -0.1711  0.2462
  587Sol     HW 5451   0.964   2.079   7.548 -1.3765 -0.4376 -0.0358
  587Sol     MW 5452   0.999   2.003   7.515  0.1889  0.0266 -0.2508
  588Sol     OW 5453   1.833   3.056   8.529  0.0504 -0.3316  0.7593
  588Sol     HW 5454   1.910   3.081   8.478 -0.3446 -0.0855  0.2695
  588Sol     HW 5455   1.852   3.085   8.618  0.8773 -1.0399  0.8120
  588Sol     MW 5456   1.841   3.061   8.532  0.3257  0.2645  0.8031
  589Sol     OW 5457   0.494   1.511   6.633 -0.2975 -0.1699 -0.2301
  589Sol     HW 5458   0.498   1.520   6.538 -0.2052  0.7937 -0.1419
  589Sol     HW 5459   0.545   1.432   6.652  1.8347  1.0050 -0.7812
  589Sol     MW 5460   0.499   1.505   6.626  0.0757  0.2708  0.1875
  590Sol     OW 5461   0.149   1.623   3.334 -0.1985 -0.0253  0.1951
  590Sol     HW 5462   0.074   1.667   3.293 -1.0490  0.2080  1.9693
  590Sol     HW 5463   0.207   1.695   3.360 -0.7493 -0.0469  1.4865
  590Sol     MW 5464   0.148   1.633   3.332 -0.8769 -0.0815  0.0658
  591Sol     OW 5465   2.270   3.051   7.860  0.1218 -0.0216 -0.1829
  591Sol     HW 5466   2.256   3.077   7.951  1.2038  0.2516 -0.0874
  591Sol     HW 5467   2.185   3.067   7.817 -0.4516 -0.3454  0.8119
  591Sol     MW 5468   2.261   3.055   7.864 -0.2649  0.1703 -0.2355
  592Sol     OW 5469   2.009   1.895   4.061  0.7731 -0.4498  0.0210
  592Sol     HW 5470   2.043   1.823   4.114  0.3945 -0.2489  0.5455
  592Sol     HW 5471   1.987   1.855   3.977  0.7208 -0.9097  0.2543
  592Sol     MW 5472   2.010   1.885   4.058 -0.0645 -0.1755 -0.9727
  593Sol     OW 5473   2.574   1.209   2.866 -0.2424  0.2216 -0.0833
  593Sol     HW 5474   2.558   1.303   2.863  0.1266  0.3049  0.4708
  593Sol     HW 5475   2.582   1.183   2.774 -0.0876  0.7719 -0.2267
  593Sol     MW 5476   2.573   1.215   2.857  0.3083 -0.1314 -0.1251
  594Sol     OW 5477   2.725   1.358   5.427 -0.4290  0.4073  0.3196
  594Sol     HW 5478   2.805   1.313   5.455  0.4584  0.1009 -2.5019
  594Sol     HW 5479   2.680   1.382   5.508  1.7378 -0.8444  1.9218
  594Sol     MW 5480   2.728   1.356   5.437 -0.7146 -0.4001 -0.6054
  595Sol     OW 5481   3.034   0.373   6.129 -0.4300  0.6768  0.0521
  595Sol     HW 5482   3.046   0.386   6.035 -0.7287 -2.6953 -0.4957
  595Sol     HW 5483   2.939   0.370   6.141 -0.3781  0.2253  0.3371
  595Sol     MW 5484   3.027   0.374   6.121  0.1495  0.5477  0.2597
  596Sol     OW 5485   1.801   1.872   3.265 -0.2721  0.0081  0.0621
  596Sol     HW 5486   1.851   1.831   3.195  0.6322 -0.3581  0.9116
  596Sol     HW 5487   1.852   1.855   3.344 -0.1829  2.2063  0.5265
  596Sol     MW 5488   1.810   1.867   3.266 -0.1168  0.0800 -0.7616
  597Sol     OW 5489   0.822   0.172   5.354  0.1809  0.5189  0.0379
  597Sol     HW 5490   0.734   0.188   5.320 -0.2202 -0.5151  0.5929
  597Sol     HW 5491   0.873   0.144   5.277  0.0143  1.0647 -0.2695
  597Sol     MW 5492   0.819   0.171   5.344  0.1052 -0.0033 -0.3002
  598Sol     OW 5493   1.371   2.151   7.531 -0.1301 -0.2532 -0.2891
  598Sol     HW 5494   1.439   2.160   7.598 -1.8137  0.8202  1.3167
  598Sol     HW 5495   1.307   2.092   7.571 -0.8453 -0.1116 -1.2326
  598Sol     MW 5496   1.372   2.146   7.541  0.2844  0.2193 -0.2007
  599Sol     OW 5497   1.452   3.219   3.144 -0.0109 -0.3040  0.3571
  599Sol     HW 5498   1.451   3.147   3.082  1.5304 -1.4061  1.5697
  599Sol     HW 5499   1.412   3.183   3.224 -0.3203  0.5503  0.6026
  599Sol     MW 5500   1.448   3.209   3.146 -0.5150  0.3386  0.0639
  600Sol     OW 5501   0.934   1.829   6.715  0.4574 -0.4327 -0.4404
  600Sol     HW 5502   0.984   1.747   6.718  1.6157  0.2057 -1.4985
  600Sol     HW 5503   0.999   1.897   6.736  0.2485  0.4970 -2.7180
  600Sol     MW 5504   0.945   1.828   6.717  0.3690  0.5589 -0.4099
  601Sol     OW 5505   3.111   2.023   9.056 -0.6155 -0.1645 -0.4756
  601Sol     HW 5506   3.035   1.995   9.006 -1.0387 -1.5374  0.8770
  601Sol     HW 5507   3.076   2.047   9.142  0.2086  1.2614 -0.5244
  601Sol     MW 5508   3.101   2.023   9.060  0.2505  0.1640  0.4396
  602Sol     OW 5509   1.207   1.472   9.146  0.2140  0.8835  0.1340
  602Sol     HW 5510   1.253   1.448   9.227 -0.2684 -0.2272  0.0888
  602Sol     HW 5511   1.244   1.557   9.122  3.7602 -0.9208 -1.0682
  602Sol     MW 5512   1.214   1.478   9.151  0.1517  0.1360 -0.3845
  603Sol     OW 5513   0.742   0.936   1.732 -0.5245  0.0014 -0.7507
  603Sol     HW 5514   0.796   0.897   1.663 -0.8727  1.6254 -1.9724
  603Sol     HW 5515   0.658   0.890   1.725  0.1730 -1.4109  0.0953
  603Sol     MW 5516   0.739   0.928   1.725 -0.1806 -0.2838 -0.0572
  604Sol     OW 5517   1.272   2.649   5.525 -0.0479  0.2136  0.0347
  604Sol     HW 5518   1.206   2.671   5.459 -0.7811  0.0794  0.7275
  604Sol     HW 5519   1.343   2.609   5.474 -0.5540  0.2139 -0.6878
  604Sol     MW 5520   1.273   2.648   5.514 -0.0489 -0.2496  0.4105
  605Sol     OW 5521   2.299   0.379   4.804  0.2246 -0.0187 -0.1289
  605Sol     HW 5522   2.356   0.450   4.833 -2.2946  1.2356  1.9807
  605Sol     HW 5523   2.252   0.415   4.728  1.2721 -0.5921 -1.0589
  605Sol     MW 5524   2.299   0.389   4.800 -0.3183  0.4067  0.0749
  606Sol     OW 5525   1.444   1.688   3.178 -0.0519  0.6244  0.3897
  606Sol     HW 5526   1.362   1.728   3.209 -1.6000 -1.6402 -0.5984
  606Sol     HW 5527   1.432   1.679   3.083  0.4047 -1.7476  0.5334
  606Sol     MW 5528   1.435   1.691   3.172  0.2514 -0.4815  0.1770
  607Sol     OW 5529   3.205   2.196   2.435 -0.0478 -0.0739  0.2586
  607Sol     HW 5530   3.186   2.105   2.458  0.0395  0.8145  4.0457
  607Sol     HW 5531   3.300   2.202   2.435 -0.0185 -0.2972 -1.4266
  607Sol     MW 5532   3.212   2.189   2.437 -0.8405 -0.5003 -0.1109
  608Sol     OW 5533   3.100   2.679   5.268  0.5215  1.3018 -0.2224
  608Sol     HW 5534   3.187   2.660   5.303 -0.5614 -0.9939  1.3984
  608Sol     HW 5535   3.048   2.701   5.345 -1.2932 -1.3461 -0.6327
  608Sol     MW 5536   3.103   2.679   5.278  0.2042 -0.4801 -0.0312
  609Sol     OW 5537   1.198   0.707   9.101  0.2262 -0.0044 -0.2431
  609Sol     HW 5538   1.142   0.658   9.161  0.3162  0.0084 -0.1483
  609Sol     HW 5539   1.141   0.775   9.064  0.5036  0.8422  0.8507
  609Sol     MW 5540   1.188   0.709   9.103 -0.1941 -0.2777 -0.5091
  610Sol     OW 5541   1.006   3.088   3.130 -0.3594  0.0217  0.1964
  610Sol     HW 5542   0.919   3.072   3.094 -0.4256 -0.1957  0.4476
  610Sol     HW 5543   0.997   3.072   3.224 -0.1733  0.5137  0.3011
  610Sol     MW 5544   0.998   3.085   3.135  0.1248  0.5170 -0.3882
  611Sol     OW 5545   1.557   0.410   5.129  0.1918 -0.0305  0.2217
  611Sol     HW 5546   1.612   0.408   5.207  0.0393 -0.6858  0.3099
  611Sol     HW 5547   1.550   0.503   5.108  1.4041  0.0556  0.1526
  611Sol     MW 5548   1.561   0.418   5.134 -0.4880 -0.7383  0.0528
  612Sol     OW 5549   0.243   0.546   4.285 -0.3469  0.0779  0.5071
  612Sol     HW 5550   0.184   0.482   4.324  0.2188 -1.2152 -0.7274
  612Sol     HW 5551   0.187   0.622   4.266 -1.3942 -0.7344  0.3071
  612Sol     MW 5552   0.232   0.547   4.287  0.3289 -0.5012  0.0967
  613Sol     OW 5553   0.394   2.380   1.744 -0.2401  0.0319  0.1425
  613Sol     HW 5554   0.316   2.412   1.790 -0.2914  0.5897 -0.3310
  613Sol     HW 5555   0.373   2.289   1.722 -1.5884  0.8041 -1.8249
  613Sol     MW 5556   0.385   2.375   1.747  0.0949  0.3060  0.0440
  614Sol     OW 5557   1.471   2.506   5.378  0.2735  0.2435  0.2804
  614Sol     HW 5558   1.455   2.469   5.291 -0.0638 -0.9151  0.8284
  614Sol     HW 5559   1.544   2.566   5.365  0.9780 -0.7744 -0.5813
  614Sol     MW 5560   1.476   2.508   5.369 -0.2073  0.5638  0.1551
  615Sol     OW 5561   1.591   1.158   2.694 -0.3118  0.0947 -0.3101
  615Sol     HW 5562   1.518   1.181   2.637 -0.8584 -0.4043  0.1905
  615Sol     HW 5563   1.641   1.093   2.643 -1.2386 -0.9494  0.0825
  615Sol     MW 5564   1.589   1.154   2.684 -0.7392 -0.1078 -0.3920
  616Sol     OW 5565   1.678   2.970   3.958  0.0764 -0.3763 -0.0281
  616Sol     HW 5566   1.590   2.958   3.921  0.1375  1.2552 -0.7390
  616Sol     HW 5567   1.685   3.064   3.971  1.1938 -0.6492  1.3689
  616Sol     MW 5568   1.670   2.977   3.956 -0.5168  0.4027  0.1449
  617Sol     OW 5569   2.094   3.218   7.212 -0.2647 -0.1764  0.4207
  617Sol     HW 5570   2.129   3.294   7.259  0.0422  0.2667 -0.5123
  617Sol     HW 5571   2.153   3.146   7.234 -0.3490 -0.0686  1.0165
  617Sol     MW 5572   2.102   3.218   7.218  0.4761 -0.4462  0.0625
  618Sol     OW 5573   1.735   0.193   7.835 -0.0294 -0.2935 -0.1612
  618Sol     HW 5574   1.796   0.266   7.826 -0.6001  0.0587 -1.2791
  618Sol     HW 5575   1.665   0.228   7.890 -1.1633  0.5808 -2.1181
  618Sol     MW 5576   1.734   0.203   7.839 -0.2006 -0.4265  0.0252
  619Sol     OW 5577   3.235   1.747   4.532  0.1135  0.4012  0.0266
  619Sol     HW 5578   3.177   1.789   4.596 -0.9911 -0.3908 -0.4498
  619Sol     HW 5579   3.193   1.762   4.448  2.3108  2.7157 -0.7167
  619Sol     MW 5580   3.226   1.752   4.530 -0.0006 -0.6266 -0.8090
  620Sol     OW 5581   3.313   1.202   2.478 -0.4617 -0.1607 -0.1975
  620Sol     HW 5582   3.282   1.151   2.404 -1.1588 -0.3630  0.2287
  620Sol     HW 5583   3.340   1.138   2.544 -1.4640  0.0091  0.3899
  620Sol     MW 5584   3.313   1.192   2.478  0.3843  0.3445  0.7337
  621Sol     OW 5585   2.999   3.106   6.628 -0.4119  0.2824 -0.0510
  621Sol     HW 5586   3.081   3.144   6.659  0.4585  0.3351 -2.2692
  621Sol     HW 5587   2.941   3.108   6.704  0.8921  2.3629  0.9473
  621Sol     MW 5588   3.001   3.110   6.637 -0.1153  0.4318  0.3213
  622Sol     OW 5589   1.507   2.621   3.774  0.2169  0.6662  0.0728
  622Sol     HW 5590   1.496   2.545   3.718  0.2263  0.9194 -0.2741
  622Sol     HW 5591   1.551   2.588   3.852  2.5555  0.7789 -1.1446
  622Sol     MW 5592   1.510   2.611   3.776  0.7622  0.0252  0.1012
  623Sol     OW 5593   3.007   1.051   8.272 -0.5133 -0.2939  0.1906
  623Sol     HW 5594   3.044   1.070   8.185 -0.6906 -1.0180 -0.0455
  623Sol     HW 5595   3.046   1.117   8.329 -0.2264  0.0541 -0.3966
  623Sol     MW 5596   3.014   1.059   8.269 -0.5656 -0.1757 -0.1637
  624Sol     OW 5597   3.248   3.207   6.767  0.1037 -0.5460 -0.0111
  624Sol     HW 5598   3.287   3.284   6.808 -3.0805  0.3843  1.4322
  624Sol     HW 5599   3.250   3.140   6.836 -0.7562 -0.5068  0.0586
  624Sol     MW 5600   3.252   3.208   6.777  0.2216  0.0607 -0.3681
  625Sol     OW 5601   2.104   1.315   2.388 -0.0030  0.0023  0.0292
  625Sol     HW 5602   2.144   1.245   2.336  0.1426  0.0506  0.0766
  625Sol     HW 5603   2.147   1.309   2.473  0.1834  0.3038 -0.0431
  625Sol     MW 5604   2.112   1.308   2.391 -0.6056 -0.2370  0.3479
  626Sol     OW 5605   0.836   0.505   5.481 -0.5162 -0.1867  0.3833
  626Sol     HW 5606   0.925   0.471   5.471 -0.2001  0.8999 -0.4952
  626Sol     HW 5607   0.848   0.594   5.512 -1.3010  0.0271  0.0706
  626Sol     MW 5608   0.845   0.510   5.483 -0.0787  0.3500  0.4586
  627Sol     OW 5609   1.216   0.943   6.179  0.3008 -0.0177  0.8303
  627Sol     HW 5610   1.292   0.997   6.156 -0.2667 -0.0111 -1.1026
  627Sol     HW 5611   1.195   0.969   6.269  1.1511  1.6781  0.5703
  627Sol     MW 5612   1.221   0.950   6.185  0.0389  0.0674  0.3305
  628Sol     OW 5613   3.219   3.191   2.359 -0.2020  0.2976  0.3955
  628Sol     HW 5614   3.189   3.104   2.383 -0.6760  0.4708  0.4426
  628Sol     HW 5615   3.288   3.177   2.295 -0.8316 -0.0837 -0.1958
  628Sol     MW 5616   3.222   3.182   2.356 -0.6022 -0.3723  0.1032
  629Sol     OW 5617   3.236   1.576   6.694 -0.0993  0.1430 -0.8066
  629Sol     HW 5618   3.154   1.613   6.661 -1.4506 -1.6713  0.4505
  629Sol     HW 5619   3.213   1.539   6.779  1.8740 -1.0418 -0.7611
  629Sol     MW 5620   3.227   1.576   6.699 -0.0256 -0.2183 -0.6529
  630Sol     OW 5621   2.015   3.043   7.734 -0.6916 -0.0425 -0.2941
  630Sol     HW 5622   2.012   3.023   7.640  0.7671 -0.2998 -0.3065
  630Sol     HW 5623   1.949   2.986   7.773 -1.6879  0.4490 -1.2229
  630Sol     MW 5624   2.009   3.037   7.729 -0.1721  0.3155  0.8434
  631Sol     OW 5625   1.774   0.476   2.989  0.9988  0.4341  0.3775
  631Sol     HW 5626   1.845   0.426   2.947 -0.5166  0.5044 -2.3853
  631Sol     HW 5627   1.781   0.563   2.950 -0.3211  0.5660  0.4344
  631Sol     MW 5628   1.781   0.479   2.982  0.3297 -0.6183 -0.0408
  632Sol     OW 5629   1.850   0.202   4.645 -0.4049 -0.0925  0.0919
  632Sol     HW 5630   1.772   0.176   4.694  0.4383 -0.4821  1.2539
  632Sol     HW 5631   1.904   0.123   4.643 -0.5124 -0.1537 -1.6775
  632Sol     MW 5632   1.848   0.192   4.649  0.2504  0.3390  0.5907
  633Sol     OW 5633   3.038   2.875   5.713 -0.6679  0.1147 -0.2886
  633Sol     HW 5634   3.031   2.970   5.706  2.9489  0.3413 -1.9246
  633Sol     HW 5635   3.018   2.857   5.805 -0.4563  2.5578  0.2790
  633Sol     MW 5636   3.035   2.882   5.721 -0.1268  0.2911  0.4087
  634Sol     OW 5637   1.683   0.720   5.849 -0.0520  0.4923  0.0524
  634Sol     HW 5638   1.687   0.722   5.945 -0.3116 -2.1767  0.1474
  634Sol     HW 5639   1.615   0.783   5.827 -0.6610  0.4379  1.6785
  634Sol     MW 5640   1.677   0.726   5.856  0.0746 -0.1879 -0.6517
  635Sol     OW 5641   1.641   3.184   5.069 -0.8590  0.2274  0.0911
  635Sol     HW 5642   1.622   3.224   5.154 -0.2948  0.7115 -0.0074
  635Sol     HW 5643   1.566   3.207   5.015  0.1943  2.5579 -0.4436
  635Sol     MW 5644   1.633   3.189   5.072  0.2640  0.0803 -0.5057
  636Sol     OW 5645   0.820   1.968   4.241  0.7522  0.2187  0.4593
  636Sol     HW 5646   0.796   2.046   4.191  0.0670 -0.1503  0.2104
  636Sol     HW 5647   0.777   1.895   4.196  1.1842 -0.2767  0.8329
  636Sol     MW 5648   0.814   1.968   4.233  0.2026 -0.4783  0.2106
  637Sol     OW 5649   3.212   3.047   1.997  0.2372 -1.0008  0.0864
  637Sol     HW 5650   3.303   3.039   1.970  0.2780 -3.5914  0.8502
  637Sol     HW 5651   3.211   3.014   2.087 -1.2850 -0.0245  0.4546
  637Sol     MW 5652   3.220   3.044   2.003 -0.7959  0.0325 -0.4224
  638Sol     OW 5653   2.756   1.910   9.088 -0.2611 -0.1505 -0.1776
  638Sol     HW 5654   2.672   1.864   9.078 -0.9572  0.7796  1.2055
  638Sol     HW 5655   2.819   1.857   9.040 -1.0594 -2.4833  1.2872
  638Sol     MW 5656   2.754   1.901   9.083 -0.0762  0.1041 -0.2633
  639Sol     OW 5657   2.076   2.079   6.318 -0.4258  0.0577 -0.5623
  639Sol     HW 5658   2.061   2.078   6.413 -1.5007 -0.2069 -0.7301
  639Sol     HW 5659   1.990   2.101   6.281  0.3261  1.6179 -1.4092
  639Sol     MW 5660   2.067   2.081   6.323  0.5649  0.2122  0.2005
  640Sol     OW 5661   0.685   1.082   9.251  0.6310 -0.2648 -0.5417
  640Sol     HW 5662   0.665   1.171   9.277  1.3456 -0.3652  0.3963
  640Sol     HW 5663   0.603   1.034   9.263  0.7856 -0.1681  0.9201
  640Sol     MW 5664   0.676   1.085   9.254 -0.3674  0.0027 -0.8480
  641Sol     OW 5665   0.648   1.289   6.666  0.2391 -0.1392 -0.4732
  641Sol     HW 5666   0.636   1.198   6.635 -0.7713 -0.1715 -0.0130
  641Sol     HW 5667   0.648   1.282   6.761 -1.5904  0.5442 -0.4094
  641Sol     MW 5668   0.647   1.280   6.671  0.4121  0.4370  0.0405
  642Sol     OW 5669   2.893   1.124   3.359  0.5410  0.4430  0.5451
  642Sol     HW 5670   2.848   1.120   3.275  0.4309  0.3544  0.6075
  642Sol     HW 5671   2.847   1.060   3.414  1.1205 -0.0782  0.4304
  642Sol     MW 5672   2.885   1.118   3.356  0.5248  0.0050  0.3853
  643Sol     OW 5673   3.163   1.348   5.934  0.4001 -0.6875  0.7420
  643Sol     HW 5674   3.121   1.405   5.869 -0.1109 -1.9389 -0.0302
  643Sol     HW 5675   3.242   1.396   5.959 -0.2785  0.6027  0.4790
  643Sol     MW 5676   3.166   1.358   5.930  0.8797 -0.4008 -0.3820
  644Sol     OW 5677   2.395   0.988   1.816  0.1539  0.1830  0.5408
  644Sol     HW 5678   2.374   1.047   1.888 -1.1281  1.5409 -0.9159
  644Sol     HW 5679   2.459   1.036   1.764  0.8517 -0.6690  0.6097
  644Sol     MW 5680   2.399   0.998   1.818  0.2079  0.2601  0.0471
  645Sol     OW 5681   1.677   1.314   5.657  0.5521  0.0898 -0.2297
  645Sol     HW 5682   1.589   1.285   5.632 -0.2053  1.7683  0.4028
  645Sol     HW 5683   1.704   1.373   5.587  1.0514 -0.1741 -0.2605
  645Sol     MW 5684   1.671   1.317   5.649  1.0307  0.1568  0.2953
  646Sol     OW 5685   1.810   1.382   4.433 -0.3808 -0.3139  0.8496
  646Sol     HW 5686   1.826   1.396   4.527  1.4824  0.5779  0.4328
  646Sol     HW 5687   1.791   1.288   4.426 -2.6342 -0.0096  2.3725
  646Sol     MW 5688   1.810   1.375   4.441 -0.2805 -0.2985  0.0375
  647Sol     OW 5689   1.273   0.156   4.785 -0.7208 -0.2569  0.6379
  647Sol     HW 5690   1.206   0.110   4.734 -0.5104 -0.6567  0.7195
  647Sol     HW 5691   1.287   0.101   4.862  0.8268 -0.9990 -0.1499
  647Sol     MW 5692   1.268   0.147   4.787 -0.1767 -0.2633 -0.3927
  648Sol     OW 5693   1.384   0.187   3.722  0.0121 -0.3771 -0.0375
  648Sol     HW 5694   1.385   0.240   3.642 -2.7961 -0.4397 -0.1626
  648Sol     HW 5695   1.422   0.104   3.696 -0.1133 -0.1098 -1.1149
  648Sol     MW 5696   1.387   0.185   3.713  0.2652 -0.4066  0.5927
  649Sol     OW 5697   1.436   0.297   6.813 -0.1963  0.3367 -0.0086
  649Sol     HW 5698   1.502   0.333   6.873 -0.1895  0.2660  0.0266
  649Sol     HW 5699   1.444   0.351   6.734 -0.1528  0.3816  0.0261
  649Sol     MW 5700   1.443   0.305   6.811 -0.3113 -0.2713 -0.1105
  650Sol     OW 5701   1.841   3.084   5.427  0.4146 -0.0995  0.4412
  650Sol     HW 5702   1.863   3.079   5.334 -0.9216  1.9603 -0.0231
  650Sol     HW 5703   1.915   3.130   5.467  1.9585 -2.7734  0.8027
  650Sol     MW 5704   1.850   3.088   5.423 -0.1577 -0.4222 -0.1964
  651Sol     OW 5705   0.755   0.014   3.583 -0.4174 -0.0696  0.2869
  651Sol     HW 5706   0.801   0.098   3.572 -2.7854  1.0988 -1.2948
  651Sol     HW 5707   0.806  -0.048   3.532 -1.2909  1.5162 -2.6859
  651Sol     MW 5708   0.763   0.016   3.577 -0.3181  0.0518 -0.6054
  652Sol     OW 5709   2.677   2.690   5.180 -0.0271 -0.2300  0.2908
  652Sol     HW 5710   2.739   2.656   5.245  0.2957  2.8230  1.6971
  652Sol     HW 5711   2.620   2.748   5.231 -1.6339 -0.0674 -1.6652
  652Sol     MW 5712   2.678   2.692   5.191  0.3012  0.1011 -0.2082
  653Sol     OW 5713   2.874   0.795   4.098  0.5104 -0.2194  0.3145
  653Sol     HW 5714   2.898   0.702   4.094  0.0771 -0.3051 -0.5071
  653Sol     HW 5715   2.911   0.832   4.018 -0.7134 -0.0284 -0.1726
  653Sol     MW 5716   2.879   0.790   4.090 -0.2040 -0.5602 -0.1159
  654Sol     OW 5717   1.698   0.082   2.017  0.6427 -0.0680  0.2844
  654Sol     HW 5718   1.644   0.039   1.951  1.5545  0.4089 -0.7929
  654Sol     HW 5719   1.741   0.011   2.064  0.6535 -0.3884 -0.2112
  654Sol     MW 5720   1.697   0.072   2.015  0.4117 -0.0391 -0.4249
  655Sol     OW 5721   2.466   2.699   6.198  0.4479 -0.1559  0.4883
  655Sol     HW 5722   2.454   2.664   6.110  0.4250  1.5031 -0.1932
  655Sol     HW 5723   2.504   2.627   6.248  1.9274 -0.6191 -1.2686
  655Sol     MW 5724   2.468   2.689   6.195  0.3352  0.0727  0.8658
  656Sol     OW 5725   2.183   1.864   5.055  0.4677 -0.4150  0.5399
  656Sol     HW 5726   2.114   1.807   5.088 -0.6765 -1.5184 -3.4486
  656Sol     HW 5727   2.136   1.940   5.019  1.4997 -0.0503 -0.0601
  656Sol     MW 5728   2.172   1.866   5.055  0.1600  0.6451 -0.4517
  657Sol     OW 5729   1.920   2.198   8.330  0.3152  0.3846 -0.6666
  657Sol     HW 5730   1.954   2.162   8.248 -1.5431  0.5029 -1.5139
  657Sol     HW 5731   1.839   2.151   8.345 -0.8744  2.4206 -0.4570
  657Sol     MW 5732   1.916   2.191   8.324 -0.0749  0.2589  0.0848
  658Sol     OW 5733   0.544   1.417   7.820  0.3388 -0.3513  0.3368
  658Sol     HW 5734   0.510   1.461   7.742 -1.1310  2.2265  2.3311
  658Sol     HW 5735   0.466   1.402   7.875  1.6070 -0.0747  2.2603
  658Sol     MW 5736   0.534   1.419   7.818  0.6521  0.1236  0.0663
  659Sol     OW 5737   1.700   3.141   2.103  0.5359 -0.2285 -0.2841
  659Sol     HW 5738   1.721   3.062   2.153  1.0971  0.6983  0.9763
  659Sol     HW 5739   1.604   3.147   2.106  0.6163  0.2675  1.3885
  659Sol     MW 5740   1.693   3.134   2.108 -0.5434  0.4852  0.1135
  660Sol     OW 5741   0.326   0.901   7.714  0.0186 -0.1358 -0.0866
  660Sol     HW 5742   0.323   0.994   7.692  0.1675 -0.1392 -0.1176
  660Sol     HW 5743   0.415   0.873   7.692 -0.4921 -0.6460 -1.5983
  660Sol     MW 5744   0.334   0.906   7.710  0.7650 -0.1651 -0.4437
  661Sol     OW 5745   0.767   1.611   7.914  0.2919  0.3038  0.0163
  661Sol     HW 5746   0.692   1.561   7.882  0.5563  0.4107 -0.7628
  661Sol     HW 5747   0.755   1.699   7.880 -2.3454  1.9623  4.7167
  661Sol     MW 5748   0.760   1.614   7.908 -0.6852 -0.7998  0.1288
  662Sol     OW 5749   0.178   2.313   8.099  0.0293  0.3740  0.0713
  662Sol     HW 5750   0.262   2.355   8.113  0.0080  0.3968  0.1321
  662Sol     HW 5751   0.127   2.334   8.177 -0.3481  1.1213 -0.3705
  662Sol     MW 5752   0.181   2.318   8.107 -0.4415  0.5729 -0.6949
  663Sol     OW 5753   0.160   0.332   8.026  0.2181 -0.4282  0.3819
  663Sol     HW 5754   0.100   0.321   7.953 -0.1794 -1.2489  0.8218
  663Sol     HW 5755   0.188   0.424   8.021  1.3506 -0.8663 -1.6668
  663Sol     MW 5756   0.157   0.339   8.019  0.2648 -0.3537 -0.2468
  664Sol     OW 5757   2.667   1.628   6.188  0.2561  0.0743  0.1952
  664Sol     HW 5758   2.720   1.650   6.265  0.5110  0.4309 -0.0739
  664Sol     HW 5759   2.582   1.670   6.204  0.2226 -0.0759  0.4036
  664Sol     MW 5760   2.664   1.634   6.196  0.0346  0.4599 -0.1255
  665Sol     OW 5761   2.877   3.026   8.122  0.0871  0.0596  0.1778
  665Sol     HW 5762   2.850   2.940   8.090 -2.6123  1.1147 -0.4986
  665Sol     HW 5763   2.934   3.061   8.054 -1.4086  0.1070 -1.0895
  665Sol     MW 5764   2.880   3.022   8.113  0.1912 -0.0293 -0.7121
  666Sol     OW 5765   0.083   1.708   5.272 -0.7081 -0.6480  0.7390
  666Sol     HW 5766   0.095   1.723   5.178 -1.0813 -1.4939  0.5481
  666Sol     HW 5767   0.080   1.795   5.310 -1.2068 -0.2808 -0.1194
  666Sol     MW 5768   0.084   1.717   5.267  0.5069 -0.3745  0.5362
  667Sol     OW 5769   0.780   2.235   3.237 -0.2651  0.3983  0.0498
  667Sol     HW 5770   0.749   2.145   3.240  0.4611  0.1769  1.1080
  667Sol     HW 5771   0.712   2.285   3.283  0.0015  0.1878  0.6786
  667Sol     MW 5772   0.771   2.232   3.242  0.3521 -0.1406 -0.3545
  668Sol     OW 5773   2.728   2.485   3.906  0.5451 -0.2107 -0.7950
  668Sol     HW 5774   2.819   2.504   3.883  0.5322 -0.7879 -1.3328
  668Sol     HW 5775   2.698   2.423   3.839  0.3022 -1.3845  0.3609
  668Sol     MW 5776   2.733   2.481   3.898  0.2207  0.4626 -0.5398
  669Sol     OW 5777   0.844   3.260   7.015  0.6337  0.2818 -0.2342
  669Sol     HW 5778   0.818   3.181   6.968 -0.5726 -0.4592  1.6735
  669Sol     HW 5779   0.915   3.232   7.073  0.8216  0.7952 -0.2091
  669Sol     MW 5780   0.848   3.251   7.016 -0.4815 -0.2909 -0.3764
  670Sol     OW 5781   0.911   0.914   4.152 -0.0138  0.5976  0.3716
  670Sol     HW 5782   0.941   0.888   4.065  0.2223  1.8534  0.0553
  670Sol     HW 5783   0.816   0.916   4.145  0.0088  0.7917  0.1032
  670Sol     MW 5784   0.905   0.912   4.144 -0.1674 -0.2181  0.0528
  671Sol     OW 5785   1.042   0.673   8.733 -0.2738  0.0700  0.7730
  671Sol     HW 5786   1.030   0.656   8.639  0.0221 -0.8505  0.8977
  671Sol     HW 5787   0.958   0.647   8.772  0.0094 -0.6662  0.9030
  671Sol     MW 5788   1.033   0.669   8.728  0.4469 -0.5662  0.4351
  672Sol     OW 5789   2.905   0.518   4.902 -0.4381 -0.4772 -0.3352
  672Sol     HW 5790   2.896   0.463   4.980  1.2892  1.0030  0.9557
  672Sol     HW 5791   2.981   0.482   4.856 -1.7374 -1.6392 -1.6063
  672Sol     MW 5792   2.911   0.510   4.905 -0.1250 -0.2438  0.4171
  673Sol     OW 5793   0.877   2.982   9.466  0.9618  0.3385 -0.2530
  673Sol     HW 5794   0.942   3.052   9.456 -0.0446  1.1618 -1.1963
  673Sol     HW 5795   0.854   2.984   9.559  2.0729  0.2191  0.0394
  673Sol     MW 5796   0.881   2.989   9.473 -0.9195 -0.1138  0.1714
  674Sol     OW 5797   2.070   2.702   2.207  0.1311  0.5420  0.0185
  674Sol     HW 5798   2.128   2.695   2.132 -0.7819 -1.7920 -0.5236
  674Sol     HW 5799   2.094   2.628   2.263 -1.1357  0.5530  0.6034
  674Sol     MW 5800   2.077   2.695   2.205 -0.3039 -0.1781 -0.1557
  675Sol     OW 5801   2.369   0.627   6.603 -0.0406  0.2001 -0.0095
  675Sol     HW 5802   2.447   0.586   6.639  0.2502  1.3357  0.6829
  675Sol     HW 5803   2.328   0.670   6.678 -0.5857  0.7706 -0.6302
  675Sol     MW 5804   2.372   0.627   6.613  0.0536  0.3013 -0.0535
  676Sol     OW 5805   0.653   0.632   8.335  0.0407  0.0882 -0.2108
  676Sol     HW 5806   0.576   0.608   8.284  2.3786 -0.4091 -3.6812
  676Sol     HW 5807   0.663   0.726   8.319 -0.3088  0.3173  0.9085
  676Sol     MW 5808   0.647   0.638   8.329 -0.6336  0.3838  0.3448
  677Sol     OW 5809   1.071   2.916   6.944 -0.0134 -0.2236 -0.0428
  677Sol     HW 5810   1.003   2.872   6.995  0.2637 -1.3420 -0.6358
  677Sol     HW 5811   1.039   2.914   6.854  0.2937  0.2323 -0.1660
  677Sol     MW 5812   1.062   2.912   6.941 -0.1266  0.1750  0.0442
  678Sol     OW 5813   0.270   1.195   5.658  0.0682 -0.3569  0.7932
  678Sol     HW 5814   0.298   1.195   5.750 -1.9156 -3.6280  1.5066
  678Sol     HW 5815   0.176   1.212   5.662  0.0598 -0.0275 -0.6610
  678Sol     MW 5816   0.264   1.196   5.667 -0.2734  0.6829  0.6894
  679Sol     OW 5817   0.523   0.461   7.111  0.1713  0.0974 -0.2578
  679Sol     HW 5818   0.561   0.489   7.028 -0.2162 -0.2347 -0.5528
  679Sol     HW 5819   0.543   0.367   7.116  2.3040  0.5981  1.1754
  679Sol     MW 5820   0.528   0.455   7.104 -0.3679  0.1581 -0.2765
  680Sol     OW 5821   2.946   3.019   8.401 -0.5966 -0.1678  0.1501
  680Sol     HW 5822   3.033   2.982   8.415 -0.1811  0.4917 -0.6505
  680Sol     HW 5823   2.933   3.014   8.307 -1.8375 -1.1540  0.3656
  680Sol     MW 5824   2.953   3.015   8.394 -0.1351  0.6331 -0.4876
  681Sol     OW 5825   2.349   2.219   4.133 -0.5904 -0.0670  0.1450
  681Sol     HW 5826   2.428   2.254   4.173  0.2550 -2.2127  0.4442
  681Sol     HW 5827   2.283   2.221   4.202 -0.4322  0.5348  0.2751
  681Sol     MW 5828   2.350   2.222   4.142  0.0051  0.2637 -0.3782
  682Sol     OW 5829   3.198   0.617   2.012 -0.2047 -0.1182  0.4332
  682Sol     HW 5830   3.168   0.569   1.935 -1.1190 -0.1123  0.7772
  682Sol     HW 5831   3.192   0.709   1.986  0.8195 -0.1546  0.0379
  682Sol     MW 5832   3.195   0.621   2.002  0.1760 -0.0508  0.0058
  683Sol     OW 5833   0.166   0.781   6.446 -0.3668 -0.0818  0.1007
  683Sol     HW 5834   0.151   0.708   6.506 -0.2171  0.5314  0.8929
  683Sol     HW 5835   0.131   0.751   6.363  1.1173 -1.6652  0.0248
  683Sol     MW 5836   0.162   0.772   6.444 -0.2510 -0.4176  0.2394
  684Sol     OW 5837   0.277   0.855   5.787 -0.0875 -0.0799 -1.3215
  684Sol     HW 5838   0.340   0.784   5.786 -0.6587 -0.5876 -1.2657
  684Sol     HW 5839   0.273   0.886   5.697  2.9101  2.3218 -0.6985
  684Sol     MW 5840   0.282   0.852   5.779 -0.3212 -0.1021  0.6023
  685Sol     OW 5841   0.044   0.120   4.696  0.3225 -0.3560  0.6551
  685Sol     HW 5842   0.036   0.205   4.740  0.7154 -1.3583  2.7160
  685Sol     HW 5843   0.127   0.125   4.649 -0.6562  1.1569 -1.0073
  685Sol     MW 5844   0.050   0.129   4.696 -0.3659 -0.6367 -0.1761
  686Sol     OW 5845   0.151   0.425   5.729 -0.4938  0.7843 -0.1732
  686Sol     HW 5846   0.233   0.376   5.732 -0.0932  1.4808  0.4373
  686Sol     HW 5847   0.152   0.470   5.645 -1.2746 -0.9297 -1.1394
  686Sol     MW 5848   0.158   0.425   5.722  0.2124 -0.1748  0.4118
  687Sol     OW 5849   2.768   2.492   8.486  0.2481  0.3085  0.0660
  687Sol     HW 5850   2.707   2.566   8.480  0.6137  0.7746  1.8278
  687Sol     HW 5851   2.712   2.415   8.481 -0.3881  0.7178  0.7497
  687Sol     MW 5852   2.757   2.492   8.485  0.0958  0.0423  0.2005
  688Sol     OW 5853   0.938   2.226   2.728  0.3656  0.2032  0.2132
  688Sol     HW 5854   0.881   2.225   2.805  0.4250  0.2201  0.2580
  688Sol     HW 5855   1.017   2.179   2.757  1.6399  2.8019  1.1335
  688Sol     MW 5856   0.940   2.221   2.738  0.3833  0.0931  0.0199
  689Sol     OW 5857   0.027   0.511   2.621 -0.3847  0.3993 -0.4032
  689Sol     HW 5858   0.018   0.442   2.555 -0.4562  0.4490 -0.4457
  689Sol     HW 5859   0.066   0.584   2.573  1.2159 -0.1536  0.0037
  689Sol     MW 5860   0.030   0.511   2.611  0.4029 -0.1736  0.0059
  690Sol     OW 5861   1.640   0.836   9.930  0.5517  0.1579 -0.9281
  690Sol     HW 5862   1.606   0.753   9.961 -1.8368  1.7314  0.8523
  690Sol     HW 5863   1.733   0.820   9.913  1.0368 -1.8837  3.1233
  690Sol     MW 5864   1.645   0.827   9.931 -0.1114 -0.3565  0.4011
  691Sol     OW 5865   0.181   3.124   1.661  0.6231 -0.5720 -0.3913
  691Sol     HW 5866   0.088   3.123   1.638  1.0542  1.5148 -2.3721
  691Sol     HW 5867   0.203   3.032   1.676 -1.1281 -1.3670 -2.5091
  691Sol     MW 5868   0.175   3.115   1.661 -0.5940  0.5219 -0.1312
  692Sol     OW 5869   2.710   2.630   7.591 -0.0588 -0.1338  0.0787
  692Sol     HW 5870   2.679   2.638   7.681 -0.4136 -1.7083  0.1098
  692Sol     HW 5871   2.800   2.597   7.599  0.0330  0.0714 -0.1220
  692Sol     MW 5872   2.715   2.627   7.600  0.3210  0.0198 -0.6301
  693Sol     OW 5873   0.403   1.997   9.218  0.2174 -0.2870  0.5126
  693Sol     HW 5874   0.469   1.942   9.176 -1.8480 -0.7260 -2.2991
  693Sol     HW 5875   0.434   2.087   9.202 -0.4837 -0.4497 -1.9857
  693Sol     MW 5876   0.412   2.000   9.213 -0.0335  0.3443 -0.1517
  694Sol     OW 5877   0.913   0.382   8.705  0.4883 -0.5176 -0.0464
  694Sol     HW 5878   0.857   0.434   8.648 -0.2998 -0.1566  1.0421
  694Sol     HW 5879   0.890   0.291   8.685 -0.0062 -0.3860 -0.0632
  694Sol     MW 5880   0.906   0.378   8.698 -0.9258  0.2587 -0.1768
  695Sol     OW 5881   2.012   1.622   9.280 -0.5260 -0.3200 -0.4555
  695Sol     HW 5882   1.956   1.603   9.354 -0.5875 -0.2898 -0.4943
  695Sol     HW 5883   2.101   1.612   9.314 -0.5260  1.3368  0.0529
  695Sol     MW 5884   2.015   1.619   9.289 -0.0972  0.2711 -0.4346
  696Sol     OW 5885   2.399   1.763   6.266  0.6641  0.4653 -0.3821
  696Sol     HW 5886   2.419   1.734   6.355  0.7240  1.2849 -0.1301
  696Sol     HW 5887   2.303   1.770   6.264  0.7432  1.7484  0.0250
  696Sol     MW 5888   2.392   1.761   6.273  0.0789 -0.0151 -0.3578
  697Sol     OW 5889   1.546   2.320   9.300 -0.4580 -0.1498 -0.5351
  697Sol     HW 5890   1.530   2.402   9.254  0.8161  0.9926  1.0238
  697Sol     HW 5891   1.569   2.346   9.389  1.3799 -2.1429 -0.3948
  697Sol     MW 5892   1.546   2.329   9.304  0.0099  0.8001  0.0718
  698Sol     OW 5893   3.290   0.826   7.930  0.1314 -0.3034  0.7272
  698Sol     HW 5894   3.274   0.737   7.898  1.1828 -0.5541  0.8840
  698Sol     HW 5895   3.237   0.882   7.873  0.9638 -0.8620 -0.5989
  698Sol     MW 5896   3.284   0.823   7.922 -0.0053 -0.0656 -0.2860
  699Sol     OW 5897   1.863   0.679   9.613 -0.0961 -0.0218  0.4425
  699Sol     HW 5898   1.873   0.719   9.699  0.3841 -0.4531  0.5915
  699Sol     HW 5899   1.880   0.586   9.627 -1.0610 -0.2589  0.0694
  699Sol     MW 5900   1.866   0.674   9.622  0.4695 -0.2366  0.0175
  700Sol     OW 5901   2.186   3.180   2.161  0.6934 -0.2632 -0.2816
  700Sol     HW 5902   2.132   3.105   2.187  2.1082 -1.6577 -1.2880
  700Sol     HW 5903   2.134   3.256   2.185  0.8486 -1.4884  4.2853
  700Sol     MW 5904   2.176   3.180   2.165  0.0723  0.2181 -0.2713
  701Sol     OW 5905   0.847   1.560   6.279 -0.0136  0.2675  0.1875
  701Sol     HW 5906   0.831   1.595   6.367 -0.5880  2.3747 -0.7055
  701Sol     HW 5907   0.799   1.620   6.221  0.4170 -1.0462 -1.5663
  701Sol     MW 5908   0.841   1.569   6.282 -0.5635 -0.0789 -0.1482
  702Sol     OW 5909   0.649   2.340   6.607  0.3222  0.5343 -0.7655
  702Sol     HW 5910   0.572   2.282   6.607  0.4124  0.4105  0.6352
  702Sol     HW 5911   0.704   2.308   6.679  0.7362  1.8982 -0.4570
  702Sol     MW 5912   0.647   2.332   6.613  0.2077 -0.2976  0.3930
  703Sol     OW 5913   2.185   0.191   4.580 -0.1782  0.1772 -0.5548
  703Sol     HW 5914   2.116   0.256   4.589 -1.8970 -1.6465 -0.0564
  703Sol     HW 5915   2.211   0.172   4.670 -0.1969 -0.3306 -0.6537
  703Sol     MW 5916   2.181   0.195   4.589 -0.5473  0.2788 -0.0507
  704Sol     OW 5917   1.244   1.122   3.044  0.3059 -0.4475  0.6977
  704Sol     HW 5918   1.169   1.075   3.078  0.4463 -0.7563  0.5791
  704Sol     HW 5919   1.287   1.061   2.985 -0.5780  0.4782 -0.9187
  704Sol     MW 5920   1.241   1.113   3.042 -0.2711  0.3355  0.4945
  705Sol     OW 5921   3.022   1.159   4.465  0.0229 -0.3214  0.3143
  705Sol     HW 5922   3.009   1.083   4.409 -0.0032 -0.9773  1.1905
  705Sol     HW 5923   3.098   1.136   4.519  0.1717  0.3739  0.4025
  705Sol     MW 5924   3.028   1.150   4.465 -0.3398  0.2502  0.1077
  706Sol     OW 5925   0.962   0.137   5.118  0.2164 -0.6298  0.1043
  706Sol     HW 5926   0.882   0.174   5.083  0.9579  0.3720 -0.5475
  706Sol     HW 5927   1.032   0.194   5.086  1.1752 -1.3677  0.8254
  706Sol     MW 5928   0.961   0.145   5.112  0.1799  0.1295  0.1957
  707Sol     OW 5929   0.423   0.163   9.009 -0.2591 -0.0034 -0.3234
  707Sol     HW 5930   0.397   0.073   9.029 -0.0859  0.2750  1.2007
  707Sol     HW 5931   0.346   0.216   9.031 -0.0936  0.3041 -0.4782
  707Sol     MW 5932   0.413   0.160   9.013 -0.2072  0.8028 -0.2426
  708Sol     OW 5933   2.658   0.188   1.641 -0.4269  0.2440  0.0553
  708Sol     HW 5934   2.620   0.176   1.728 -0.3609 -2.2045 -0.2031
  708Sol     HW 5935   2.583   0.186   1.582 -0.3764  0.7904 -0.0241
  708Sol     MW 5936   2.648   0.187   1.644 -0.1288 -0.1813 -0.0500
  709Sol     OW 5937   0.318   3.087   6.096  0.0291 -0.1248  0.3029
  709Sol     HW 5938   0.406   3.049   6.095  0.0791  0.0134 -0.2346
  709Sol     HW 5939   0.324   3.158   6.160  0.6089  0.6325 -0.5959
  709Sol     MW 5940   0.327   3.090   6.102 -0.4537 -0.3062 -0.0844
  710Sol     OW 5941   1.647   1.692   9.241  0.2198  0.3941  0.1315
  710Sol     HW 5942   1.715   1.668   9.304 -0.6237 -4.8740 -0.7647
  710Sol     HW 5943   1.566   1.688   9.291  0.0892  2.4543  0.1447
  710Sol     MW 5944   1.646   1.690   9.251 -0.0815  0.2982 -0.4042
  711Sol     OW 5945   1.304   2.844   3.537  0.0868  0.2481 -0.0011
  711Sol     HW 5946   1.346   2.929   3.526  0.0047  0.5445  1.8345
  711Sol     HW 5947   1.232   2.860   3.599  0.7236 -1.3366  1.2068
  711Sol     MW 5948   1.302   2.853   3.542  0.2502 -0.2769 -0.0530
  712Sol     OW 5949   0.237   1.467   5.389 -0.0702  0.6172  0.4648
  712Sol     HW 5950   0.174   1.398   5.368 -0.1698  0.7003  0.4865
  712Sol     HW 5951   0.190   1.548   5.369 -0.0295  0.6857  0.6431
  712Sol     MW 5952   0.227   1.468   5.385  0.0971  0.0947 -0.2893
  713Sol     OW 5953   1.369   0.866   1.616  0.7106 -0.1966 -0.0234
  713Sol     HW 5954   1.328   0.851   1.702 -1.0472 -3.2832 -1.3185
  713Sol     HW 5955   1.302   0.913   1.566  0.7322 -0.6602 -0.4903
  713Sol     MW 5956   1.359   0.869   1.620  0.3348  0.2399  0.4855
  714Sol     OW 5957   1.466   1.239   9.271 -0.0666  0.5179 -0.0686
  714Sol     HW 5958   1.402   1.239   9.343  0.0206  0.9726  0.0119
  714Sol     HW 5959   1.502   1.150   9.271  0.4437  0.7139  0.9200
  714Sol     MW 5960   1.463   1.231   9.278 -0.0316 -0.2279  0.1327
  715Sol     OW 5961   0.601   3.214   3.120 -0.0357 -0.0754 -0.4549
  715Sol     HW 5962   0.660   3.257   3.181 -1.2734  0.3865  0.4407
  715Sol     HW 5963   0.654   3.146   3.079  1.1757  0.4890  0.1507
  715Sol     MW 5964   0.611   3.212   3.122  0.3829  0.1388 -0.1840
  716Sol     OW 5965   0.975   1.071   9.225  0.0339 -0.2461  0.6237
  716Sol     HW 5966   1.010   1.017   9.154 -0.0413  3.1628 -2.1896
  716Sol     HW 5967   0.880   1.062   9.218  0.0265  0.0962  0.2834
  716Sol     MW 5968   0.970   1.066   9.218 -0.4175 -0.7928 -0.4503
  717Sol     OW 5969   1.717   2.223   2.071 -0.1215 -0.6297 -0.1958
  717Sol     HW 5970   1.783   2.293   2.069 -1.6381  0.9092  1.2302
  717Sol     HW 5971   1.635   2.268   2.054 -1.2719 -1.8674  1.8578
  717Sol     MW 5972   1.716   2.234   2.069 -0.3132 -0.0726  0.0093
  718Sol     OW 5973   1.520   1.719   2.541  0.4036 -0.2544 -0.2432
  718Sol     HW 5974   1.579   1.794   2.549  1.2176 -0.9593  0.5849
  718Sol     HW 5975   1.562   1.650   2.593 -0.5997 -1.1160 -0.5494
  718Sol     MW 5976   1.529   1.719   2.547 -0.5291 -0.2855 -0.1063
  719Sol     OW 5977   1.243   0.379   6.225 -0.8492 -0.1813  0.5781
  719Sol     HW 5978   1.324   0.387   6.174 -0.5678  0.3432  1.1028
  719Sol     HW 5979   1.181   0.340   6.164  0.0541 -1.4390  0.4523
  719Sol     MW 5980   1.245   0.376   6.215  0.1870  0.1214  0.0060
  720Sol     OW 5981   2.996   2.223   3.938 -0.4666 -0.3298 -0.1443
  720Sol     HW 5982   2.982   2.290   3.871  0.4054 -0.8018 -0.7959
  720Sol     HW 5983   3.059   2.262   3.999  0.3401 -0.7043 -0.7353
  720Sol     MW 5984   3.000   2.232   3.938 -0.2146 -0.2859  0.4603
  721Sol     OW 5985   1.912   0.759   3.165 -0.1865 -0.3543 -0.3407
  721Sol     HW 5986   1.858   0.715   3.230 -0.1765 -0.7964 -0.6325
  721Sol     HW 5987   1.872   0.738   3.081  0.9354 -1.4330 -0.6355
  721Sol     MW 5988   1.904   0.753   3.163  0.4659 -0.2821 -0.0399
  722Sol     OW 5989   1.355   2.570   2.120 -0.2981  0.3026 -0.4038
  722Sol     HW 5990   1.373   2.638   2.055  0.3603  0.0764 -0.4627
  722Sol     HW 5991   1.395   2.602   2.200 -0.9986  0.5199 -0.1340
  722Sol     MW 5992   1.360   2.579   2.121  0.2479 -0.7411  0.1446
  723Sol     OW 5993   2.587   2.214   7.285 -0.0241  0.2547  0.4517
  723Sol     HW 5994   2.496   2.204   7.256  0.0116  0.8424  0.1275
  723Sol     HW 5995   2.619   2.290   7.237  0.9245 -0.4932 -0.1210
  723Sol     MW 5996   2.581   2.220   7.278  0.4939 -0.0458 -0.6629
  724Sol     OW 5997   2.932   0.338   6.402 -0.1617 -0.2918 -0.1466
  724Sol     HW 5998   2.954   0.343   6.495 -1.9876  1.6142  0.2370
  724Sol     HW 5999   2.913   0.246   6.386  2.5729 -1.0654  0.7579
  724Sol     MW 6000   2.932   0.330   6.409 -0.7085 -0.5731  0.0347
  725Sol     OW 6001   1.277   3.257   4.603 -0.3514 -0.3104 -0.1598
  725Sol     HW 6002   1.318   3.283   4.520 -1.1959  0.6268 -0.2855
  725Sol     HW 6003   1.208   3.321   4.617 -1.0621 -1.2358  0.6222
  725Sol     MW 6004   1.275   3.265   4.597  0.5276  0.1101  0.4156
  726Sol     OW 6005   3.271   1.074   3.107  0.4781  0.0080  0.1834
  726Sol     HW 6006   3.203   1.024   3.153 -0.3699  1.8010  0.9366
  726Sol     HW 6007   3.237   1.086   3.019  0.6264 -0.6187  0.0380
  726Sol     MW 6008   3.262   1.070   3.104  0.0090 -0.1237 -0.0404
  727Sol     OW 6009   2.748   0.850   6.278  0.0813  0.3783 -0.0254
  727Sol     HW 6010   2.809   0.904   6.226  2.0373  0.8932  2.6913
  727Sol     HW 6011   2.794   0.767   6.289 -1.5508 -0.7437 -1.4599
  727Sol     MW 6012   2.758   0.847   6.274 -0.5027 -0.4121  0.4155
  728Sol     OW 6013   3.079   1.447   5.244 -0.1350  0.1909 -0.3494
  728Sol     HW 6014   3.116   1.519   5.295 -0.2235 -0.8245  1.1954
  728Sol     HW 6015   2.990   1.474   5.224 -0.4332  0.1866  0.9206
  728Sol     MW 6016   3.074   1.456   5.247 -0.4897  0.2098 -0.4280
  729Sol     OW 6017   2.397   2.480   5.407  0.1336 -0.3107  0.1752
  729Sol     HW 6018   2.456   2.405   5.403 -0.8552 -1.1070  0.4775
  729Sol     HW 6019   2.357   2.485   5.321 -1.3623 -1.4044  0.7972
  729Sol     MW 6020   2.399   2.474   5.399 -0.0921  0.0140  0.3186
  730Sol     OW 6021   2.596   0.313   8.031  0.1630  0.3810 -0.7598
  730Sol     HW 6022   2.593   0.376   8.104  0.8154  1.3060 -1.5155
  730Sol     HW 6023   2.504   0.290   8.016  0.0562 -0.2987  0.7466
  730Sol     MW 6024   2.588   0.317   8.037  0.9598  0.1604  0.2803
  731Sol     OW 6025   1.187   1.899   8.600 -0.1694 -0.1220 -0.3206
  731Sol     HW 6026   1.279   1.911   8.576  0.8643 -1.8905  2.4266
  731Sol     HW 6027   1.169   1.807   8.579 -0.9892 -0.0549  0.0826
  731Sol     MW 6028   1.194   1.892   8.596 -0.0471 -0.1482  0.0512
  732Sol     OW 6029   2.243   1.560   7.436 -0.2729 -0.0717  0.2342
  732Sol     HW 6030   2.296   1.598   7.506 -1.9551  1.5858  0.6478
  732Sol     HW 6031   2.235   1.631   7.372 -1.3752 -0.5365 -0.1585
  732Sol     MW 6032   2.247   1.570   7.436 -0.2678 -0.3421 -0.0480
  733Sol     OW 6033   1.618   2.876   8.541 -0.8642  0.1426  0.1572
  733Sol     HW 6034   1.682   2.946   8.524  0.5898 -1.1302  0.2236
  733Sol     HW 6035   1.575   2.902   8.622  0.6875  0.2682  0.9738
  733Sol     MW 6036   1.620   2.885   8.546 -0.0173  0.4930 -0.3634
  734Sol     OW 6037   2.845   1.280   1.936  0.2464 -0.3248  0.1607
  734Sol     HW 6038   2.894   1.198   1.932  0.1166 -0.3738 -0.5177
  734Sol     HW 6039   2.908   1.345   1.968  1.1345 -0.1068 -1.9532
  734Sol     MW 6040   2.855   1.278   1.939  0.4087 -0.1333  0.1058
  735Sol     OW 6041   1.582   3.274   6.367 -0.4039  0.7267 -0.3197
  735Sol     HW 6042   1.643   3.263   6.440 -0.7094 -2.5539 -0.4771
  735Sol     HW 6043   1.524   3.345   6.394  1.2996  1.5538  1.3116
  735Sol     MW 6044   1.583   3.280   6.376 -0.3954  0.1797 -0.2903
  736Sol     OW 6045   1.934   0.031   5.332 -0.2213 -0.2346 -0.7340
  736Sol     HW 6046   1.923   0.060   5.423 -0.8081 -2.8001  0.0698
  736Sol     HW 6047   1.846   0.037   5.294 -0.4229 -1.2015 -0.4538
  736Sol     MW 6048   1.925   0.034   5.337  0.1588 -0.3755  0.0668
  737Sol     OW 6049   0.967   3.185   4.155 -0.2344 -0.2696  0.5665
  737Sol     HW 6050   1.042   3.141   4.116 -0.3594 -0.3078  0.3709
  737Sol     HW 6051   0.986   3.278   4.146 -0.9076 -0.2568 -0.8437
  737Sol     MW 6052   0.975   3.189   4.151  0.1281  0.1583  0.0008
  738Sol     OW 6053   2.734   0.385   9.055 -0.2785  0.0944  0.5097
  738Sol     HW 6054   2.704   0.296   9.037 -2.8253  0.9503  0.3029
  738Sol     HW 6055   2.793   0.406   8.983 -2.0985 -0.3318 -1.1431
  738Sol     MW 6056   2.736   0.379   9.047 -0.3247 -0.3586  0.1896
  739Sol     OW 6057   1.337   0.087   8.306 -0.1310 -0.4245  0.1192
  739Sol     HW 6058   1.359   0.056   8.218 -1.2046  1.9229 -1.0041
  739Sol     HW 6059   1.420   0.118   8.342 -0.2603  1.8099 -1.4052
  739Sol     MW 6060   1.347   0.087   8.301 -0.5053 -0.1292 -0.7226
  740Sol     OW 6061   1.889   0.791   5.705  0.5742  0.1005  0.0442
  740Sol     HW 6062   1.807   0.764   5.747  0.6696  1.5353  1.1830
  740Sol     HW 6063   1.884   0.887   5.704  1.9125  0.1619 -0.5464
  740Sol     MW 6064   1.881   0.797   5.709 -0.6043  0.2881  0.4410
  741Sol     OW 6065   0.929   0.181   6.385  0.2438  0.2245 -0.5504
  741Sol     HW 6066   0.966   0.234   6.314  2.0195 -0.7907 -0.4053
  741Sol     HW 6067   0.964   0.219   6.465 -1.5096  1.1702 -0.2169
  741Sol     MW 6068   0.935   0.189   6.385 -0.3278  0.2621  0.3250
  742Sol     OW 6069   2.343   0.740   6.317 -0.5092 -0.5114  0.5373
  742Sol     HW 6070   2.357   0.706   6.406 -3.4503 -1.3151  0.7483
  742Sol     HW 6071   2.263   0.791   6.324  0.8042  1.8824 -1.0556
  742Sol     MW 6072   2.337   0.742   6.326  0.3306  0.2093  0.5701
  743Sol     OW 6073   2.509   0.182   8.855 -0.3628 -0.3169  0.5197
  743Sol     HW 6074   2.571   0.141   8.916 -1.1414 -1.9268  0.2603
  743Sol     HW 6075   2.468   0.108   8.809 -1.9432  0.7529  0.1672
  743Sol     MW 6076   2.511   0.172   8.856  0.4980 -0.4408 -0.4356
  744Sol     OW 6077   1.233   0.041   1.747 -0.4565  0.2216 -0.1563
  744Sol     HW 6078   1.169   0.109   1.729  0.2481  0.7584 -0.6682
  744Sol     HW 6079   1.188  -0.019   1.806 -1.1715  0.9827  0.0852
  744Sol     MW 6080   1.223   0.041   1.750 -0.0130 -0.3943 -0.4823
  745Sol     OW 6081   2.813   1.792   7.700  0.1300  0.3566 -0.2095
  745Sol     HW 6082   2.829   1.814   7.792  0.0998 -2.0097  0.3790
  745Sol     HW 6083   2.780   1.874   7.662 -0.4099  1.2128  2.0070
  745Sol     MW 6084   2.811   1.802   7.704 -0.0518 -0.0066 -0.0772
  746Sol     OW 6085   0.994   3.188   7.620  0.1487 -0.0387 -0.4545
  746Sol     HW 6086   1.086   3.214   7.624  0.4651 -1.1328 -0.3439
  746Sol     HW 6087   0.957   3.238   7.547  1.2951 -0.9887 -1.7109
  746Sol     MW 6088   0.999   3.195   7.614 -0.1965 -0.5479  0.9589
  747Sol     OW 6089   1.751   1.723   2.196 -0.1987  0.3059  0.1132
  747Sol     HW 6090   1.737   1.803   2.146  3.5957  0.0721 -1.4716
  747Sol     HW 6091   1.824   1.679   2.152 -0.7917 -3.0025  2.2088
  747Sol     MW 6092   1.756   1.726   2.188  0.4058  0.1442  0.7518
  748Sol     OW 6093   2.677   0.529   3.415 -0.4237 -0.0156 -0.0994
  748Sol     HW 6094   2.662   0.533   3.320  0.1676  0.8701 -0.1583
  748Sol     HW 6095   2.589   0.523   3.452 -0.8600  2.7521 -0.5761
  748Sol     MW 6096   2.667   0.529   3.410  0.0020 -0.2951 -0.1301
  749Sol     OW 6097   1.076   3.350   5.108  0.5212  0.1606 -0.0395
  749Sol     HW 6098   1.017   3.425   5.114  1.3686  0.8170  0.2091
  749Sol     HW 6099   1.030   3.288   5.052 -0.8925  0.1890  1.0487
  749Sol     MW 6100   1.067   3.351   5.104  0.4626  0.3831 -0.2659
  750Sol     OW 6101   1.186   1.217   5.306 -0.0366  0.3702  0.3973
  750Sol     HW 6102   1.138   1.144   5.344  0.7929 -0.2291  0.3125
  750Sol     HW 6103   1.119   1.283   5.288 -0.7082 -0.1251  1.0378
  750Sol     MW 6104   1.176   1.217   5.308  0.3180 -0.5350 -0.1683
  751Sol     OW 6105   0.349   1.206   5.941  0.0852 -0.0493  0.0035
  751Sol     HW 6106   0.283   1.160   5.993 -0.2315  0.9660  0.5396
  751Sol     HW 6107   0.409   1.138   5.912 -1.3141 -1.0247 -0.6645
  751Sol     MW 6108   0.349   1.196   5.943 -0.0611  0.1169  0.3812
  752Sol     OW 6109   2.215   1.250   3.386 -0.2867  0.0436  0.3496
  752Sol     HW 6110   2.137   1.237   3.439 -0.4323  0.2740  0.1947
  752Sol     HW 6111   2.195   1.328   3.333 -1.2766 -1.8062 -2.1089
  752Sol     MW 6112   2.206   1.256   3.386  0.0568  0.0119 -0.1141
  753Sol     OW 6113   0.978   2.846   4.929  0.2248 -0.1528  0.1060
  753Sol     HW 6114   1.035   2.769   4.931  1.0448  0.4301 -0.6783
  753Sol     HW 6115   0.915   2.827   4.860 -0.0898 -0.4737  0.4753
  753Sol     MW 6116   0.977   2.837   4.923  0.5665  0.2167 -0.4492
  754Sol     OW 6117   2.032   1.556   7.592  0.8464  0.3918 -0.3161
  754Sol     HW 6118   2.047   1.636   7.641  0.9582  0.5043 -0.5331
  754Sol     HW 6119   2.106   1.551   7.531  0.6880  0.2739 -0.4996
  754Sol     MW 6120   2.040   1.562   7.591 -0.0651 -0.0201  0.2796
  755Sol     OW 6121   0.223   2.517   3.401 -0.6490 -0.0744 -0.4513
  755Sol     HW 6122   0.297   2.524   3.462  0.1174 -0.5168 -1.3236
  755Sol     HW 6123   0.173   2.442   3.434 -0.7039  0.2183  0.1360
  755Sol     MW 6124   0.225   2.511   3.410 -0.3113  0.0096  0.0873
  756Sol     OW 6125   0.482   0.177   7.800  0.3390  0.5829  0.2581
  756Sol     HW 6126   0.544   0.106   7.786 -1.4217 -0.4912 -2.6130
  756Sol     HW 6127   0.413   0.139   7.854  0.2452  0.5828  0.1406
  756Sol     MW 6128   0.481   0.168   7.803 -0.0880 -0.1835 -0.4505
  757Sol     OW 6129   3.027   2.150   3.312 -0.6052 -0.3448  0.2948
  757Sol     HW 6130   3.098   2.086   3.302 -0.1593  0.0778  0.7630
  757Sol     HW 6131   3.070   2.235   3.305 -1.1334 -0.0909  0.1354
  757Sol     MW 6132   3.037   2.152   3.310  0.5586 -0.1214 -0.1913
  758Sol     OW 6133   1.760   3.233   6.601 -0.1200  0.2068  0.1634
  758Sol     HW 6134   1.814   3.160   6.572  0.7190  0.9467 -0.1423
  758Sol     HW 6135   1.676   3.192   6.625  0.6662 -0.9818  0.9427
  758Sol     MW 6136   1.757   3.223   6.601 -0.0835 -0.5460  0.3424
  759Sol     OW 6137   0.280   0.315   3.646 -0.0223 -0.1125 -0.1134
  759Sol     HW 6138   0.258   0.381   3.713  1.0519 -0.2032  0.3448
  759Sol     HW 6139   0.289   0.234   3.695 -1.4700 -0.6424 -0.7000
  759Sol     MW 6140   0.279   0.314   3.656 -0.5890 -0.3256  0.2527
  760Sol     OW 6141   0.059   3.267   6.023 -0.0709  0.1236 -0.4609
  760Sol     HW 6142   0.030   3.264   6.114 -0.2407 -0.7972 -0.5348
  760Sol     HW 6143   0.127   3.200   6.018  1.8039  2.0023 -0.3823
  760Sol     MW 6144   0.062   3.260   6.031  0.2929  0.4450  0.3047
  761Sol     OW 6145   2.343   1.690   3.005  0.3968  0.0830  0.0960
  761Sol     HW 6146   2.258   1.654   3.030  0.2949  0.5225  0.3809
  761Sol     HW 6147   2.363   1.754   3.073 -0.6216  2.4284 -1.7231
  761Sol     MW 6148   2.337   1.693   3.013  0.7172 -0.2733  0.1754
  762Sol     OW 6149   0.816   3.302   3.315  0.3404  0.3523 -0.5276
  762Sol     HW 6150   0.878   3.229   3.306 -0.3035 -0.2154 -0.4040
  762Sol     HW 6151   0.854   3.372   3.263  0.4344 -0.4241 -1.5158
  762Sol     MW 6152   0.825   3.301   3.310  0.0485  0.0889 -0.0452
  763Sol     OW 6153   2.946   1.958   3.888  0.2176 -0.3057  0.4606
  763Sol     HW 6154   2.953   2.052   3.905  1.4315 -0.3806  0.4672
  763Sol     HW 6155   2.860   1.933   3.923 -1.2809  1.2955 -1.9921
  763Sol     MW 6156   2.939   1.964   3.893  0.1960  0.2198  0.6197
  764Sol     OW 6157   0.031   1.061   3.520 -0.0062 -0.4113  0.4335
  764Sol     HW 6158  -0.047   1.111   3.497  0.2394 -0.5919 -0.8542
  764Sol     HW 6159   0.089   1.072   3.445  0.1563 -2.4134  0.2347
  764Sol     MW 6160   0.029   1.066   3.511 -0.0282  0.1676 -0.0997
  765Sol     OW 6161   1.575   3.172   9.229 -0.0508 -0.1891 -0.3556
  765Sol     HW 6162   1.605   3.238   9.167 -0.9808 -0.2278 -0.8573
  765Sol     HW 6163   1.568   3.091   9.178 -0.0916 -0.3953 -0.0305
  765Sol     MW 6164   1.577   3.170   9.219  0.1274 -0.1895  0.6174
  766Sol     OW 6165   0.605   2.991   5.293 -0.2260 -0.5097  0.0920
  766Sol     HW 6166   0.595   2.967   5.385 -3.0824  0.9573  0.2249
  766Sol     HW 6167   0.603   2.908   5.246  0.0003 -1.1833  1.2584
  766Sol     MW 6168   0.604   2.982   5.297 -0.4387 -0.8407  0.1000
  767Sol     OW 6169   1.685   1.412   3.508  0.9634  0.3357 -0.2621
  767Sol     HW 6170   1.745   1.337   3.503 -0.8418 -1.1957  0.0904
  767Sol     HW 6171   1.625   1.399   3.434 -1.3266 -0.3836  1.6468
  767Sol     MW 6172   1.685   1.404   3.501 -0.0829  0.3233  0.4370
  768Sol     OW 6173   2.914   2.791   8.801 -0.7736  0.0755 -0.0489
  768Sol     HW 6174   2.985   2.772   8.740 -1.4128 -0.3944 -0.6571
  768Sol     HW 6175   2.928   2.731   8.874  0.4733  1.2058  0.6727
  768Sol     MW 6176   2.922   2.784   8.802  0.5324 -0.0469 -0.6469
  769Sol     OW 6177   0.881   0.674   7.889  0.4339  0.3614 -0.5085
  769Sol     HW 6178   0.858   0.618   7.815  0.5061  0.1456 -0.3665
  769Sol     HW 6179   0.828   0.642   7.961 -0.0700  0.9446 -0.6140
  769Sol     MW 6180   0.874   0.666   7.889  0.0762 -0.0612 -0.0913
  770Sol     OW 6181   2.242   0.353   6.561 -0.7624  0.8900  0.6087
  770Sol     HW 6182   2.272   0.442   6.541  0.3801  0.5387  0.7294
  770Sol     HW 6183   2.310   0.296   6.526 -0.9881  0.1001  1.4334
  770Sol     MW 6184   2.251   0.356   6.556 -0.4787 -0.7073 -0.7058
  771Sol     OW 6185   1.023   1.516   2.504 -0.1533  0.1264 -1.0125
  771Sol     HW 6186   1.098   1.575   2.508 -0.6912  0.8953 -1.9282
  771Sol     HW 6187   1.055   1.433   2.540  0.9598  0.6210 -0.8485
  771Sol     MW 6188   1.033   1.514   2.508  0.2635  0.3023 -0.0111
  772Sol     OW 6189   1.741   1.163   9.596 -0.3073  0.6253  0.3319
  772Sol     HW 6190   1.834   1.166   9.575 -0.6856  1.1330 -1.3256
  772Sol     HW 6191   1.710   1.080   9.560 -0.2901 -0.0661  1.8494
  772Sol     MW 6192   1.746   1.156   9.591  0.0612 -0.0270  0.3543
  773Sol     OW 6193   2.666   1.753   4.913 -0.0110 -0.1341  0.9625
  773Sol     HW 6194   2.591   1.812   4.923 -0.4658 -0.9704  2.5829
  773Sol     HW 6195   2.633   1.681   4.859  0.3208  0.6672 -0.3415
  773Sol     MW 6196   2.657   1.752   4.909  0.0936  0.6010 -0.3209
  774Sol     OW 6197   2.832   1.804   2.887  0.5240  0.4516 -0.2115
  774Sol     HW 6198   2.909   1.756   2.919  0.0955  0.5957  1.0706
  774Sol     HW 6199   2.842   1.804   2.792  2.6338  1.3470 -0.0230
  774Sol     MW 6200   2.840   1.800   2.881 -0.6134  0.4092  0.0006
  775Sol     OW 6201   3.302   0.037   6.462 -0.3495  0.2333  0.2116
  775Sol     HW 6202   3.260   0.120   6.485 -1.5318 -0.1146 -0.6420
  775Sol     HW 6203   3.391   0.062   6.435 -1.0869  1.3704 -1.2543
  775Sol     MW 6204   3.306   0.047   6.462 -0.5307 -0.1241 -0.4111
  776Sol     OW 6205   1.881   0.359   8.548  0.0925  0.0416 -0.2839
  776Sol     HW 6206   1.882   0.269   8.514 -1.4118 -0.0756 -0.1005
  776Sol     HW 6207   1.796   0.394   8.519  1.1737  1.8311 -1.3876
  776Sol     MW 6208   1.873   0.354   8.542 -0.2162  0.2211 -0.0315
  777Sol     OW 6209   0.055   1.014   8.830 -0.4965 -0.1420  0.1116
  777Sol     HW 6210   0.020   0.948   8.769  0.2726 -1.5222  1.1310
  777Sol     HW 6211   0.138   0.977   8.859 -1.1768  0.1548  2.5343
  777Sol     MW 6212   0.059   1.005   8.827 -0.4040 -0.5741  0.8119
  778Sol     OW 6213   0.984   0.766   6.841  0.3634  0.1686 -0.2540
  778Sol     HW 6214   0.971   0.843   6.787  0.2573 -0.3266 -0.9415
  778Sol     HW 6215   0.992   0.694   6.779 -0.6629 -0.5346  0.4171
  778Sol     MW 6216   0.984   0.766   6.831 -0.1606  0.5591  0.4571
  779Sol     OW 6217   0.376   1.425   9.503  0.1388 -0.4865 -0.7262
  779Sol     HW 6218   0.342   1.340   9.532  0.6719 -0.7581 -0.8854
  779Sol     HW 6219   0.311   1.489   9.533 -0.6336 -1.0172 -1.2569
  779Sol     MW 6220   0.367   1.423   9.509 -0.7795  0.6934 -0.0283
  780Sol     OW 6221   0.208   0.762   8.806 -0.4874 -0.2742  0.3805
  780Sol     HW 6222   0.127   0.718   8.830 -0.0626 -0.6246  1.2187
  780Sol     HW 6223   0.219   0.745   8.713 -0.0426 -2.4325  0.8082
  780Sol     MW 6224   0.202   0.757   8.800 -0.1883  0.2476  0.2852
  781Sol     OW 6225   2.632   1.957   3.482  0.1999  0.0166 -0.1149
  781Sol     HW 6226   2.670   1.981   3.567  0.2870 -0.1387 -0.1086
  781Sol     HW 6227   2.668   2.021   3.421 -0.9914  1.0057  0.2093
  781Sol     MW 6228   2.639   1.965   3.484 -0.4007 -0.1715 -0.0605
  782Sol     OW 6229   2.948   0.593   8.619 -0.1951  0.1401 -0.0729
  782Sol     HW 6230   2.905   0.574   8.535 -1.2904 -0.3287  0.5938
  782Sol     HW 6231   2.897   0.545   8.684 -0.0394  1.4383  1.0178
  782Sol     MW 6232   2.940   0.587   8.617  0.9800 -0.5043  0.4680
  783Sol     OW 6233   0.634   3.387   2.545 -0.3115 -0.2018 -0.1951
  783Sol     HW 6234   0.698   3.368   2.613 -0.1753  2.3203  0.4094
  783Sol     HW 6235   0.607   3.478   2.560 -3.9570 -1.1380 -0.5165
  783Sol     MW 6236   0.637   3.393   2.552 -0.3095 -0.0397 -0.0032
  784Sol     OW 6237   2.536   2.991   4.993  0.1940  0.0907  0.4427
  784Sol     HW 6238   2.443   2.995   4.972  0.2090  0.0795  0.3742
  784Sol     HW 6239   2.555   3.074   5.037  0.1477  0.0851  0.4732
  784Sol     MW 6240   2.530   2.999   4.995 -0.0143  0.1320  0.1668
  785Sol     OW 6241   2.451   1.463   8.754 -0.0062  0.4310 -0.1150
  785Sol     HW 6242   2.395   1.504   8.689 -1.5613 -0.6630  0.5186
  785Sol     HW 6243   2.410   1.378   8.772  0.2034  0.8440  2.5252
  785Sol     MW 6244   2.443   1.459   8.750 -0.0577 -0.1290 -0.0246
  786Sol     OW 6245   1.573   1.074   7.535 -0.3616  0.1497  0.1946
  786Sol     HW 6246   1.539   1.135   7.470 -0.9191 -0.3114  0.0450
  786Sol     HW 6247   1.660   1.051   7.504 -0.0951  0.9716  0.3247
  786Sol     MW 6248   1.577   1.077   7.526  0.4111 -0.1595 -0.3056
  787Sol     OW 6249   1.660   0.459   5.829  0.3469 -0.2033  0.0427
  787Sol     HW 6250   1.734   0.402   5.851  0.5080 -0.2511 -0.6241
  787Sol     HW 6251   1.697   0.548   5.830  0.4820 -0.2489 -0.5617
  787Sol     MW 6252   1.670   0.462   5.831  0.5231  0.1799  0.4025
  788Sol     OW 6253   0.734   0.610   7.627  1.2695 -0.2741  0.0785
  788Sol     HW 6254   0.666   0.543   7.622  2.8534 -1.9864  0.9590
  788Sol     HW 6255   0.686   0.692   7.643 -0.6670 -1.2274 -0.7521
  788Sol     MW 6256   0.723   0.612   7.628  0.4449  0.0766  0.6830
  789Sol     OW 6257   2.870   1.913   4.272  0.2726  0.1680  0.0350
  789Sol     HW 6258   2.963   1.891   4.272  0.1387 -0.6192 -2.7013
  789Sol     HW 6259   2.847   1.921   4.179 -2.1441  1.4273  0.6940
  789Sol     MW 6260   2.876   1.911   4.263  0.1600 -0.2233 -0.1280
  790Sol     OW 6261   2.255   0.996   8.794 -0.1018  0.1873  0.2711
  790Sol     HW 6262   2.330   0.937   8.795  0.5659  1.0224  0.4235
  790Sol     HW 6263   2.284   1.072   8.845 -0.5789  1.0801 -0.7624
  790Sol     MW 6264   2.264   0.998   8.798 -0.2139  0.1348  0.4324
  791Sol     OW 6265   1.367   3.177   5.481 -0.3074 -0.0434 -0.4952
  791Sol     HW 6266   1.416   3.146   5.557  1.2835 -0.7255 -1.7711
  791Sol     HW 6267   1.353   3.270   5.497  1.8476  0.2730 -0.3257
  791Sol     MW 6268   1.370   3.182   5.489 -0.9413  0.0657  0.9744
  792Sol     OW 6269   0.738   1.210   7.795 -0.6062 -0.3367 -0.3917
  792Sol     HW 6270   0.677   1.284   7.801  0.5417  0.6684 -0.8995
  792Sol     HW 6271   0.746   1.179   7.885 -0.3473  0.7743 -0.0215
  792Sol     MW 6272   0.733   1.214   7.804  0.2367  0.5166  0.1404
  793Sol     OW 6273   1.285   2.361   9.600 -0.1189 -0.7917  0.0051
  793Sol     HW 6274   1.198   2.335   9.569 -0.8680  0.7253  0.8178
  793Sol     HW 6275   1.298   2.448   9.564  0.4439 -0.4233  1.0868
  793Sol     MW 6276   1.278   2.366   9.594 -0.3878  0.3877  0.8411
  794Sol     OW 6277   1.461   0.452   6.576 -1.1977  0.1523 -0.5163
  794Sol     HW 6278   1.506   0.531   6.605 -1.7395  0.2276  0.1377
  794Sol     HW 6279   1.390   0.484   6.519 -1.6773  0.1714  0.0850
  794Sol     MW 6280   1.458   0.462   6.573  0.8102 -0.6654  0.5784
  795Sol     OW 6281   0.906   3.208   5.513 -0.0632 -0.2070 -0.3768
  795Sol     HW 6282   0.984   3.259   5.489  0.6967 -0.5476  1.2868
  795Sol     HW 6283   0.926   3.119   5.481 -0.9168  0.2716 -2.2954
  795Sol     MW 6284   0.915   3.204   5.508 -0.8206  0.2570  0.1216
  796Sol     OW 6285   0.559   2.884   5.775  0.0940  0.6935 -0.4096
  796Sol     HW 6286   0.620   2.869   5.847  0.2843  0.5030 -0.6079
  796Sol     HW 6287   0.517   2.799   5.761 -0.1877  0.8150 -0.2981
  796Sol     MW 6288   0.561   2.875   5.780  0.5956 -0.3931 -0.4987
  797Sol     OW 6289   0.402   1.770   4.945 -0.5483 -0.2857  0.5056
  797Sol     HW 6290   0.452   1.738   5.020 -0.6971  1.6477  1.4598
  797Sol     HW 6291   0.431   1.715   4.871  1.5047 -0.5031  1.4412
  797Sol     MW 6292   0.409   1.762   4.945 -0.8015 -0.4101 -0.6042
  798Sol     OW 6293   0.825   0.537   5.814  0.1216 -0.5040 -0.1815
  798Sol     HW 6294   0.750   0.572   5.862  0.5793  0.3251 -0.0570
  798Sol     HW 6295   0.787   0.477   5.750 -0.5817 -0.6944  0.4165
  798Sol     MW 6296   0.815   0.535   5.813 -0.3616  0.1830  0.3622
  799Sol     OW 6297   0.696   1.237   9.576  0.0746 -0.3389  0.3571
  799Sol     HW 6298   0.729   1.314   9.623  0.4429 -0.3752  0.1584
  799Sol     HW 6299   0.667   1.272   9.492  1.0093 -0.5458 -0.0568
  799Sol     MW 6300   0.696   1.247   9.573 -0.5986 -0.3838 -0.5361
  800Sol     OW 6301   3.038   1.908   2.211 -0.2003  0.1432  0.0063
  800Sol     HW 6302   3.081   1.836   2.165  0.6260 -0.0996  1.1390
  800Sol     HW 6303   3.105   1.943   2.270 -0.7634  1.4741 -0.1193
  800Sol     MW 6304   3.048   1.904   2.212  0.1455 -0.4046  0.2902
  801Sol     OW 6305   1.956   1.788   8.182 -0.3253 -0.2129  0.3622
  801Sol     HW 6306   1.886   1.793   8.246 -0.5156 -1.7027  0.2715
  801Sol     HW 6307   1.984   1.697   8.183  0.2656 -0.0598 -1.0305
  801Sol     MW 6308   1.953   1.780   8.188 -0.9067  0.2070 -0.1298
  802Sol     OW 6309   2.917   1.544   7.180  0.1329  1.0338 -0.1094
  802Sol     HW 6310   2.959   1.463   7.210  1.9052  2.0531  0.2073
  802Sol     HW 6311   2.940   1.550   7.087 -2.5205 -0.3493 -0.9327
  802Sol     MW 6312   2.923   1.537   7.174 -0.2099 -0.1437 -0.0582
  803Sol     OW 6313   1.111   1.123   9.484 -0.6800 -0.0579  0.1553
  803Sol     HW 6314   1.061   1.093   9.408  0.7834 -0.0061 -0.8536
  803Sol     HW 6315   1.052   1.110   9.558 -1.7688 -1.0425 -0.8598
  803Sol     MW 6316   1.101   1.119   9.484  0.1171 -0.3156 -0.1095
  804Sol     OW 6317   2.084   2.294   5.230  0.1616  0.1217  1.0649
  804Sol     HW 6318   2.106   2.250   5.312  1.3821  3.1450  2.4667
  804Sol     HW 6319   2.160   2.280   5.174 -0.6398 -1.8845  0.4389
  804Sol     MW 6320   2.092   2.289   5.233 -0.2721 -0.1945 -0.3203
  805Sol     OW 6321   1.143   1.728   7.594 -0.4057 -0.2513  0.1506
  805Sol     HW 6322   1.179   1.713   7.506  0.4967 -0.2694  0.5235
  805Sol     HW 6323   1.048   1.733   7.580 -0.1913  0.8302 -0.9743
  805Sol     MW 6324   1.137   1.727   7.584 -0.0201 -0.1776  0.0095
  806Sol     OW 6325   1.354   1.968   2.210  0.2816 -0.1432  0.5515
  806Sol     HW 6326   1.271   1.965   2.163 -0.1076  0.0080  1.2333
  806Sol     HW 6327   1.367   1.878   2.241  0.9180 -0.4183 -0.5069
  806Sol     MW 6328   1.348   1.960   2.209 -0.3696  0.3197 -0.1918
  807Sol     OW 6329   0.440   1.394   2.031  0.0989  0.1543  0.0805
  807Sol     HW 6330   0.416   1.394   2.124 -1.6776  0.6227 -0.3628
  807Sol     HW 6331   0.535   1.407   2.031  0.2321 -0.6661  1.8519
  807Sol     MW 6332   0.447   1.395   2.039  0.4872 -0.0586  0.8558
  808Sol     OW 6333   2.656   3.251   4.368  0.1229 -0.0565 -0.2395
  808Sol     HW 6334   2.684   3.166   4.402  1.0831  0.5116  0.4195
  808Sol     HW 6335   2.685   3.252   4.277 -1.0435 -0.9494 -0.6264
  808Sol     MW 6336   2.661   3.244   4.363 -0.0803  0.6360  0.0055
  809Sol     OW 6337   3.170   3.248   7.293  0.3454 -0.8372 -0.4267
  809Sol     HW 6338   3.186   3.263   7.386  0.8199  0.7573 -0.7502
  809Sol     HW 6339   3.109   3.174   7.291  0.0616 -0.6735  1.1505
  809Sol     MW 6340   3.166   3.242   7.301  0.1327  0.0336  0.0815
  810Sol     OW 6341   0.319   2.373   6.851  0.4549 -0.1988 -0.0401
  810Sol     HW 6342   0.344   2.284   6.829  0.0087 -0.1443 -0.7975
  810Sol     HW 6343   0.357   2.389   6.937  1.2682 -0.8181 -0.2826
  810Sol     MW 6344   0.325   2.367   6.857  0.5062  0.5231 -0.8671
  811Sol     OW 6345   2.250   1.216   5.186  0.0469 -0.0327  0.0247
  811Sol     HW 6346   2.278   1.214   5.277 -1.8823  0.5364  0.6580
  811Sol     HW 6347   2.183   1.284   5.183  2.5804  2.5081 -2.5769
  811Sol     MW 6348   2.247   1.222   5.194  0.2194  0.4497  0.2503
  812Sol     OW 6349   0.412   2.624   3.575 -0.7484 -0.1959  0.2353
  812Sol     HW 6350   0.374   2.633   3.663 -1.9019 -1.8635 -0.0435
  812Sol     HW 6351   0.501   2.592   3.590 -0.5747  0.5588  0.8250
  812Sol     MW 6352   0.416   2.622   3.584 -0.4956 -0.3636  0.4061
  813Sol     OW 6353   1.815   1.607   9.747 -0.9481  0.3168 -0.0814
  813Sol     HW 6354   1.845   1.682   9.799 -1.9419  0.8325 -0.2294
  813Sol     HW 6355   1.848   1.531   9.793 -0.6624  0.8193  0.5541
  813Sol     MW 6356   1.821   1.607   9.755  1.0726  0.7984 -0.4299
  814Sol     OW 6357   1.845   2.537   8.168  0.2075  0.0513  0.4210
  814Sol     HW 6358   1.909   2.500   8.228 -0.4251 -0.9364  0.5007
  814Sol     HW 6359   1.799   2.603   8.219  0.1261 -0.3223  0.8331
  814Sol     MW 6360   1.846   2.539   8.178 -0.5613  0.3023 -0.3394
  815Sol     OW 6361   2.049   1.325   1.981  0.0439 -0.0676  0.8097
  815Sol     HW 6362   1.986   1.383   2.025 -0.6661 -0.2303  0.0134
  815Sol     HW 6363   2.011   1.237   1.992  0.3876 -0.2216  0.7626
  815Sol     MW 6364   2.040   1.322   1.986 -0.0468 -0.5049  0.4851
  816Sol     OW 6365   0.775   0.874   8.948  0.0809 -0.2719  0.1521
  816Sol     HW 6366   0.778   0.808   8.879  0.9357 -0.6433  0.5415
  816Sol     HW 6367   0.735   0.830   9.023  0.9265 -0.4373  0.5068
  816Sol     MW 6368   0.771   0.864   8.949  0.0093 -0.0192  0.4548
  817Sol     OW 6369   3.086   2.868   3.387  0.3075  0.4234  0.5712
  817Sol     HW 6370   3.001   2.886   3.348  0.2102 -1.0969  0.0594
  817Sol     HW 6371   3.103   2.944   3.443 -2.3287 -0.2136  2.3110
  817Sol     MW 6372   3.080   2.877   3.388 -0.2181  0.1587 -0.2419
  818Sol     OW 6373   0.518   0.575   3.745  0.7985  0.2408 -0.2763
  818Sol     HW 6374   0.495   0.616   3.662 -1.4744  1.3450  0.8489
  818Sol     HW 6375   0.495   0.483   3.734  3.3596 -0.2401 -1.8804
  818Sol     MW 6376   0.513   0.570   3.737 -0.6038 -0.4083  0.7091
  819Sol     OW 6377   0.806   1.467   4.775 -0.0388 -0.4565 -0.1152
  819Sol     HW 6378   0.755   1.390   4.751 -0.0792 -0.4096 -0.1804
  819Sol     HW 6379   0.775   1.536   4.716 -0.8974 -0.0638  0.7851
  819Sol     MW 6380   0.799   1.466   4.768  0.2296  0.1046 -0.0026
  820Sol     OW 6381   0.693   1.237   3.852 -0.1361  0.2733 -0.4997
  820Sol     HW 6382   0.611   1.283   3.870 -0.7632 -0.2944 -1.8037
  820Sol     HW 6383   0.761   1.293   3.888 -0.8911  2.1238 -1.8596
  820Sol     MW 6384   0.692   1.246   3.857  0.0968  0.5186  0.5225
  821Sol     OW 6385   1.670   1.497   1.987 -0.2686  0.5049 -0.0129
  821Sol     HW 6386   1.732   1.544   2.042 -3.2112  2.5402  1.6647
  821Sol     HW 6387   1.657   1.553   1.911  0.4274 -0.2506 -0.7063
  821Sol     MW 6388   1.675   1.506   1.985  0.1741 -0.1448  0.4080
  822Sol     OW 6389   2.233   0.602   3.476 -0.1869 -0.0355  0.5229
  822Sol     HW 6390   2.203   0.664   3.542 -1.6109  0.6534 -0.7549
  822Sol     HW 6391   2.154   0.561   3.443  0.5100 -0.3804 -0.7608
  822Sol     MW 6392   2.223   0.603   3.479  0.1453 -0.2569  0.2646
  823Sol     OW 6393   2.423   3.035   9.620 -0.2181 -0.1649  0.1747
  823Sol     HW 6394   2.342   3.085   9.632 -0.0847  0.9062 -2.9636
  823Sol     HW 6395   2.446   3.005   9.708 -1.7337  3.0907  1.7525
  823Sol     MW 6396   2.418   3.037   9.629 -0.5487 -0.1657  0.0724
  824Sol     OW 6397   2.929   0.469   6.914 -0.6204 -0.0603  0.1251
  824Sol     HW 6398   2.871   0.413   6.965 -1.9520  0.5145 -0.7300
  824Sol     HW 6399   2.876   0.546   6.893  0.1029  0.0055 -1.5486
  824Sol     MW 6400   2.919   0.471   6.916  0.1637  0.3720 -0.0282
  825Sol     OW 6401   3.091   0.082   2.143 -0.2296  0.4714 -0.7012
  825Sol     HW 6402   3.075   0.009   2.083 -0.6923  2.0635 -2.5572
  825Sol     HW 6403   3.182   0.071   2.171 -0.7732 -1.7004  0.2975
  825Sol     MW 6404   3.098   0.074   2.140 -0.2975 -0.2472  0.6652
  826Sol     OW 6405   0.942   0.116   9.357  0.0748 -0.8654 -0.1466
  826Sol     HW 6406   0.897   0.032   9.363 -0.1156 -0.7569 -0.0557
  826Sol     HW 6407   0.879   0.180   9.392 -0.4723 -0.4386 -1.8593
  826Sol     MW 6408   0.932   0.114   9.361  0.8152  0.0294 -0.3132
  827Sol     OW 6409   1.589   1.487   8.739  0.7119 -0.1041 -0.2214
  827Sol     HW 6410   1.595   1.404   8.786  0.4415  0.8595  1.5592
  827Sol     HW 6411   1.678   1.523   8.741  0.6058  0.1508 -0.0489
  827Sol     MW 6412   1.597   1.483   8.743  0.0398  0.3289 -0.2496
  828Sol     OW 6413   1.649   2.671   2.888 -0.0975 -0.2760 -0.1831
  828Sol     HW 6414   1.696   2.658   2.970 -1.1226  0.1353  0.4636
  828Sol     HW 6415   1.557   2.671   2.912 -0.3412  1.8855 -1.0517
  828Sol     MW 6416   1.645   2.670   2.897 -0.4401  0.9459  0.2773
  829Sol     OW 6417   0.414   1.600   3.580 -0.0771  0.2583 -0.5715
  829Sol     HW 6418   0.492   1.627   3.629 -0.0469 -2.4382  0.9429
  829Sol     HW 6419   0.449   1.553   3.504 -0.2006  1.4375 -1.3731
  829Sol     MW 6420   0.424   1.598   3.577 -0.5153 -0.6209 -0.2071
  830Sol     OW 6421   3.091   0.058   9.525 -0.0174  0.8543  0.0016
  830Sol     HW 6422   3.002   0.074   9.557 -0.5361 -3.6575  1.1636
  830Sol     HW 6423   3.087   0.078   9.431 -2.3208  0.4143 -0.0153
  830Sol     MW 6424   3.083   0.061   9.519 -0.1761  0.1153 -0.4082
  831Sol     OW 6425   2.784   1.906   5.132 -0.2302 -0.3040  0.4391
  831Sol     HW 6426   2.748   1.874   5.049  0.5073 -0.8078  0.3074
  831Sol     HW 6427   2.707   1.924   5.186 -0.7144 -0.1028 -0.3053
  831Sol     MW 6428   2.774   1.905   5.129  0.0804  0.2071 -0.5577
  832Sol     OW 6429   0.614   0.201   7.144  0.2191  0.3893  0.1322
  832Sol     HW 6430   0.582   0.195   7.054  0.4450  3.0388 -0.1633
  832Sol     HW 6431   0.640   0.112   7.166 -0.1186 -0.3550 -2.3228
  832Sol     MW 6432   0.613   0.193   7.138  0.1221  0.0969 -0.7273
  833Sol     OW 6433   2.673   2.458   8.939 -0.0568  0.0964  0.3131
  833Sol     HW 6434   2.689   2.375   8.985  0.7307  1.2382  2.1408
  833Sol     HW 6435   2.606   2.502   8.992 -0.0673  0.8755 -0.3407
  833Sol     MW 6436   2.668   2.454   8.948 -0.7733 -0.0710 -0.1479
  834Sol     OW 6437   0.903   0.110   8.643 -0.0099 -0.0735  0.4474
  834Sol     HW 6438   0.959   0.040   8.608 -0.8228 -0.1243 -0.7969
  834Sol     HW 6439   0.885   0.166   8.567  0.3608  1.2984  1.3705
  834Sol     MW 6440   0.906   0.109   8.633  0.6131  0.3073 -0.1338
  835Sol     OW 6441   1.013   1.537   7.776  0.3370 -0.1579  0.2141
  835Sol     HW 6442   1.045   1.623   7.751  1.0292 -0.2957  0.5963
  835Sol     HW 6443   0.932   1.554   7.824 -1.9201  0.0097 -3.5151
  835Sol     MW 6444   1.008   1.546   7.778 -0.8373 -0.3272  0.5609
  836Sol     OW 6445   2.971   2.631   6.313 -0.1261 -0.1059  0.4610
  836Sol     HW 6446   2.960   2.719   6.347  0.0512 -0.2826  0.9814
  836Sol     HW 6447   3.062   2.628   6.283 -0.9926  0.8624 -2.4073
  836Sol     MW 6448   2.978   2.638   6.313  0.1953  0.5879  0.6445
  837Sol     OW 6449   1.081   2.443   8.737  0.4313  0.1770  0.1684
  837Sol     HW 6450   1.075   2.374   8.670  0.0459 -0.6016  0.9881
  837Sol     HW 6451   1.142   2.507   8.700  0.5494 -0.4503 -0.7476
  837Sol     MW 6452   1.086   2.442   8.727 -0.2352  0.1894 -0.2474
  838Sol     OW 6453   1.526   1.669   3.986 -0.1949  0.3883  0.0803
  838Sol     HW 6454   1.606   1.693   4.033  0.0883  0.6687 -0.5409
  838Sol     HW 6455   1.535   1.712   3.900 -0.7369 -0.0687 -0.2048
  838Sol     MW 6456   1.534   1.675   3.982  0.0119 -0.5601 -0.0150
  839Sol     OW 6457   1.236   1.689   2.512 -0.3873  0.7417  0.4174
  839Sol     HW 6458   1.194   1.773   2.492  0.3500  1.1606  0.6195
  839Sol     HW 6459   1.321   1.712   2.548  0.4269 -0.1272 -0.9061
  839Sol     MW 6460   1.240   1.698   2.513  0.2041  0.3872 -0.3127
  840Sol     OW 6461   0.511   0.578   9.381 -0.1537 -0.1497  0.3878
  840Sol     HW 6462   0.490   0.521   9.307  0.0529 -0.5045  0.6050
  840Sol     HW 6463   0.606   0.585   9.379 -0.2278  0.9003 -0.1712
  840Sol     MW 6464   0.518   0.574   9.374  0.1549 -0.5081 -0.2823
  841Sol     OW 6465   2.945   2.509   7.622 -0.1162  0.0296  0.2287
  841Sol     HW 6466   3.030   2.537   7.656 -0.6061  0.3687  1.1828
  841Sol     HW 6467   2.959   2.500   7.528  1.3153 -1.1623  0.5499
  841Sol     MW 6468   2.954   2.511   7.616  0.0664 -0.3053 -0.6126
  842Sol     OW 6469   0.932   1.141   1.506 -0.5537 -0.2541 -0.0505
  842Sol     HW 6470   0.927   1.195   1.585  1.3733  0.5593 -0.4730
  842Sol     HW 6471   0.841   1.113   1.491 -1.1770  0.8225  1.5824
  842Sol     MW 6472   0.923   1.143   1.512 -0.2532  0.3307  0.2677
  843Sol     OW 6473   2.946   2.870   3.712  0.5546  0.3373 -0.1465
  843Sol     HW 6474   3.009   2.799   3.697  1.5034  0.6622  2.0182
  843Sol     HW 6475   2.989   2.948   3.678  1.3655  0.5665  1.3756
  843Sol     MW 6476   2.955   2.870   3.708 -0.3304  0.2193 -0.1039
  844Sol     OW 6477   2.407   2.659   8.940 -0.2156 -0.2921 -0.3626
  844Sol     HW 6478   2.326   2.709   8.950 -0.5639 -0.6489 -1.4057
  844Sol     HW 6479   2.383   2.583   8.886  0.9491 -0.0606 -1.2300
  844Sol     MW 6480   2.398   2.656   8.936 -0.1519  0.1036 -0.0537
  845Sol     OW 6481   0.166   2.579   5.880 -0.4518  0.2945  0.3122
  845Sol     HW 6482   0.115   2.619   5.950  0.9312 -1.4993  2.3742
  845Sol     HW 6483   0.101   2.553   5.815 -1.9213  0.2616  1.7736
  845Sol     MW 6484   0.155   2.580   5.880  0.3497  0.2758  0.5343
  846Sol     OW 6485   2.075   0.942   7.607  0.3392  0.2954 -0.1514
  846Sol     HW 6486   2.122   1.025   7.601  0.9002 -0.1676 -2.5619
  846Sol     HW 6487   2.137   0.877   7.576  0.4490 -1.3016  3.1813
  846Sol     MW 6488   2.085   0.944   7.604  0.3161 -0.0898  0.3855
  847Sol     OW 6489   0.818   0.497   4.881 -0.2053  0.7973 -0.0813
  847Sol     HW 6490   0.848   0.483   4.792 -0.2069  1.4874 -0.1937
  847Sol     HW 6491   0.759   0.572   4.876  1.4917  2.2396  0.8210
  847Sol     MW 6492   0.816   0.503   4.873  0.3249  0.3861 -0.1359
  848Sol     OW 6493   0.548   1.226   5.136  0.1202  0.3315  0.2694
  848Sol     HW 6494   0.535   1.304   5.190  0.1972 -0.4431  1.4226
  848Sol     HW 6495   0.636   1.196   5.159 -0.3141 -0.6958  0.6340
  848Sol     MW 6496   0.555   1.230   5.143  0.4298 -0.3338 -0.1486
  849Sol     OW 6497   2.994   2.828   7.812 -0.0031 -0.0551 -0.0085
  849Sol     HW 6498   2.915   2.801   7.859 -0.5317  0.0706 -0.8184
  849Sol     HW 6499   3.003   2.921   7.832  1.1491 -0.5350  1.8170
  849Sol     MW 6500   2.988   2.834   7.818  0.3478 -0.2782 -0.6345
  850Sol     OW 6501   0.224   3.095   2.987 -0.0733  0.1089  0.6183
  850Sol     HW 6502   0.134   3.068   2.971 -0.4100  2.6224 -2.1095
  850Sol     HW 6503   0.217   3.171   3.044  0.3111  0.1849  0.5661
  850Sol     MW 6504   0.216   3.099   2.990  0.5074  0.1622 -0.1603
  851Sol     OW 6505   0.265   0.374   8.340  0.8042 -0.2418 -0.4130
  851Sol     HW 6506   0.174   0.400   8.331  0.7031  0.2011  1.6512
  851Sol     HW 6507   0.316   0.449   8.310  0.4811  0.9093  1.7676
  851Sol     MW 6508   0.262   0.383   8.337  1.2352  0.1827  0.1714
  852Sol     OW 6509   0.357   2.840   2.970  0.5689 -0.7887 -1.2022
  852Sol     HW 6510   0.316   2.926   2.977 -1.3081 -1.6007 -1.9201
  852Sol     HW 6511   0.382   2.833   2.878  0.6216 -1.0529 -1.1669
  852Sol     MW 6512   0.356   2.847   2.962 -0.0980 -0.1610 -0.0197
  853Sol     OW 6513   1.493   0.792   6.166 -0.2218  0.0832 -0.1005
  853Sol     HW 6514   1.476   0.876   6.123  0.0026  1.3071  2.1275
  853Sol     HW 6515   1.406   0.758   6.187 -0.2572  0.5807  0.5475
  853Sol     MW 6516   1.483   0.796   6.164 -0.4121  0.6781  0.2835
  854Sol     OW 6517   2.893   2.104   6.237 -0.5066 -0.1928  0.1802
  854Sol     HW 6518   2.949   2.139   6.307  0.3319 -2.0667  0.4931
  854Sol     HW 6519   2.825   2.055   6.283 -0.3195 -0.8978 -0.2812
  854Sol     MW 6520   2.892   2.103   6.247  0.1839 -0.4890  0.7431
  855Sol     OW 6521   1.976   1.667   8.494 -0.3471 -0.2185 -0.4279
  855Sol     HW 6522   2.069   1.686   8.494 -0.2052 -0.8814 -0.0282
  855Sol     HW 6523   1.963   1.613   8.416 -0.4671  0.2044 -0.7018
  855Sol     MW 6524   1.983   1.663   8.487 -0.1020  0.2295  0.1651
  856Sol     OW 6525   1.910   1.071   8.152 -0.2181 -0.0272 -0.1221
  856Sol     HW 6526   1.947   1.011   8.217 -1.1011  1.7316  2.0852
  856Sol     HW 6527   1.819   1.083   8.179 -0.6539  0.6171 -1.7857
  856Sol     MW 6528   1.905   1.067   8.160 -0.3702  0.0418 -0.0235
  857Sol     OW 6529   3.001   2.888   6.382 -0.5268  0.1683 -0.4201
  857Sol     HW 6530   3.088   2.911   6.415 -1.0308  0.6507  0.5839
  857Sol     HW 6531   2.991   2.939   6.302  0.3118 -0.2746 -0.8179
  857Sol     MW 6532   3.008   2.894   6.378 -0.0030  0.5128  0.6425
  858Sol     OW 6533   2.958   1.528   2.030 -0.3415  0.9691 -0.3342
  858Sol     HW 6534   3.008   1.609   2.020 -0.5816  1.2083  0.3306
  858Sol     HW 6535   2.887   1.551   2.090 -0.6292  0.3626 -0.4369
  858Sol     MW 6536   2.956   1.537   2.035  0.7563  0.9018  0.6675
  859Sol     OW 6537   3.251   3.023   6.967 -0.4218 -0.0458  0.1432
  859Sol     HW 6538   3.161   3.037   6.998 -0.4100 -0.1074  0.2052
  859Sol     HW 6539   3.306   3.057   7.037 -0.3968  0.0188  0.0920
  859Sol     MW 6540   3.248   3.027   6.976 -0.5819 -0.1186 -0.5794
  860Sol     OW 6541   1.555   2.967   9.065  0.1274  0.2630  0.0807
  860Sol     HW 6542   1.610   2.891   9.077  0.4305  0.4637 -0.0331
  860Sol     HW 6543   1.472   2.944   9.106  0.4539  0.1428  0.6726
  860Sol     MW 6544   1.552   2.958   9.069  0.1277 -0.9271  0.0726
  861Sol     OW 6545   1.065   3.412   4.671 -0.3576 -0.0548 -0.1594
  861Sol     HW 6546   0.997   3.395   4.737  0.0271 -3.2416 -0.5000
  861Sol     HW 6547   1.019   3.457   4.600 -1.7326 -0.4849  0.4340
  861Sol     MW 6548   1.055   3.414   4.671  0.5477  0.2434  0.0501
  862Sol     OW 6549   2.513   1.001   3.949  0.5226  0.1934  0.3365
  862Sol     HW 6550   2.532   1.087   3.985 -0.6028  0.3398  0.6008
  862Sol     HW 6551   2.589   0.980   3.894  2.1100  0.0944  2.5301
  862Sol     MW 6552   2.521   1.007   3.947  0.4431  0.4165 -0.5704
  863Sol     OW 6553   0.232   2.355   9.222 -0.0607  0.8238 -0.2299
  863Sol     HW 6554   0.164   2.334   9.286  0.5217  0.2336  0.2098
  863Sol     HW 6555   0.228   2.450   9.212  0.5373  1.0477  1.4869
  863Sol     MW 6556   0.226   2.361   9.227 -0.2620 -0.3559  0.8602
  864Sol     OW 6557   2.059   2.941   4.512  0.0241 -0.1471 -0.1228
  864Sol     HW 6558   2.072   2.848   4.532  1.0173 -0.1208 -0.5727
  864Sol     HW 6559   2.002   2.973   4.581  1.1972 -0.6705  1.1251
  864Sol     MW 6560   2.055   2.935   4.520 -0.0019  0.6601  0.0026
  865Sol     OW 6561   3.148   0.881   1.970 -0.5847  0.2462 -0.3307
  865Sol     HW 6562   3.188   0.966   1.949  1.0189  0.2868  2.5494
  865Sol     HW 6563   3.055   0.901   1.981 -0.2338  1.6346  0.2696
  865Sol     MW 6564   3.144   0.891   1.969 -0.1384  0.5884 -0.1371
  866Sol     OW 6565   0.917   2.744   1.451 -0.2560  1.1935 -0.4245
  866Sol     HW 6566   0.827   2.727   1.423  0.1729 -3.8349  0.7370
  866Sol     HW 6567   0.970   2.721   1.375  0.2016  0.9501 -0.0328
  866Sol     MW 6568   0.914   2.740   1.442 -0.3710 -0.0296  0.6471
  867Sol     OW 6569   2.357   1.521   3.611  0.5785  0.5842  0.4418
  867Sol     HW 6570   2.262   1.519   3.626  0.7039 -0.8078  1.2012
  867Sol     HW 6571   2.384   1.429   3.622  1.8020  0.7337 -1.1484
  867Sol     MW 6572   2.351   1.512   3.613 -0.1111 -0.0301  0.4562
  868Sol     OW 6573   1.045   0.461   2.950 -0.3525 -0.1420  0.1669
  868Sol     HW 6574   1.049   0.537   3.008 -1.4791 -1.2206  1.6887
  868Sol     HW 6575   0.993   0.397   2.998  0.4789 -1.8399 -1.1522
  868Sol     MW 6576   1.040   0.462   2.959  0.0249 -0.0332 -0.4182
  869Sol     OW 6577   1.231   1.235   2.039 -0.7467  0.6365 -0.1789
  869Sol     HW 6578   1.184   1.170   2.091 -0.4724 -0.1897 -0.9640
  869Sol     HW 6579   1.178   1.315   2.048 -1.9360 -0.1015 -0.4816
  869Sol     MW 6580   1.222   1.237   2.045 -0.2658  0.5808  0.1707
  870Sol     OW 6581   0.576   1.595   5.114  0.0069 -0.0342  0.2619
  870Sol     HW 6582   0.582   1.672   5.172 -0.7426  0.2487 -0.0373
  870Sol     HW 6583   0.666   1.582   5.084  0.0411  1.1116 -0.1822
  870Sol     MW 6584   0.585   1.601   5.117 -0.2003  0.3910 -0.1797
  871Sol     OW 6585   2.355   0.864   8.304 -0.4279  0.1720 -0.2288
  871Sol     HW 6586   2.300   0.906   8.370  0.5401 -1.0024  1.3529
  871Sol     HW 6587   2.442   0.862   8.343 -0.2055 -2.1841 -0.7814
  871Sol     MW 6588   2.357   0.868   8.314 -0.0402  0.0787  0.0831
  872Sol     OW 6589   0.028   2.034   4.378 -0.0913 -0.7082 -0.4829
  872Sol     HW 6590  -0.058   1.992   4.389 -0.3804 -0.1701 -0.6436
  872Sol     HW 6591   0.023   2.112   4.434  0.8989 -1.5540  0.8110
  872Sol     MW 6592   0.019   2.037   4.384  0.1176  0.2797  0.0076
  873Sol     OW 6593   2.080   2.222   9.080  0.1764  0.1483 -0.3732
  873Sol     HW 6594   2.047   2.155   9.141  0.5026 -0.4635 -0.8627
  873Sol     HW 6595   2.056   2.189   8.993 -0.1853  0.9643 -0.5873
  873Sol     MW 6596   2.075   2.213   9.078 -0.3069  0.5850  0.0826
  874Sol     OW 6597   1.757   1.281   1.787  0.4707 -0.6409  0.1069
  874Sol     HW 6598   1.791   1.205   1.834 -0.5541 -1.3994 -0.3344
  874Sol     HW 6599   1.696   1.322   1.849  1.9895  0.5850  0.8162
  874Sol     MW 6600   1.754   1.278   1.797  0.3842  0.0309 -0.0181
  875Sol     OW 6601   1.660   2.042   3.106 -0.3536 -0.1250 -0.4334
  875Sol     HW 6602   1.699   1.990   3.036  0.0291  1.0293 -1.0869
  875Sol     HW 6603   1.695   2.004   3.187  0.2956 -0.5819 -0.9305
  875Sol     MW 6604   1.667   2.034   3.107  0.3478  0.1199  0.5720
  876Sol     OW 6605   2.529   0.458   8.254 -0.4993 -0.3213  0.1175
  876Sol     HW 6606   2.481   0.398   8.311 -1.2069  0.2512  0.1324
  876Sol     HW 6607   2.463   0.520   8.223 -0.0078 -0.2542 -0.8414
  876Sol     MW 6608   2.519   0.458   8.256 -0.3370 -0.1355  0.2956
  877Sol     OW 6609   1.016   1.553   9.450  1.2086  0.4303  0.1830
  877Sol     HW 6610   1.087   1.492   9.428 -0.5670 -0.8220 -2.2068
  877Sol     HW 6611   0.938   1.516   9.409 -0.6756  2.3112  1.9323
  877Sol     MW 6612   1.016   1.544   9.444 -0.4640  0.4963 -0.0970
  878Sol     OW 6613   1.846   1.065   6.388  0.1434  0.2391  0.3970
  878Sol     HW 6614   1.910   1.102   6.449 -0.5300 -0.2502  1.4274
  878Sol     HW 6615   1.808   0.991   6.435 -1.6687  0.9446  0.0971
  878Sol     MW 6616   1.848   1.062   6.398  0.4851  0.2102 -0.2061
  879Sol     OW 6617   1.559   0.243   6.419  0.0990 -0.3820  0.2626
  879Sol     HW 6618   1.502   0.166   6.419 -0.6066  0.1274  0.1937
  879Sol     HW 6619   1.508   0.310   6.465  1.2885 -0.3697  1.5732
  879Sol     MW 6620   1.549   0.242   6.423 -0.0092  0.7790  0.4484
  880Sol     OW 6621   2.478   0.221   9.601 -0.8465 -0.1790 -0.0937
  880Sol     HW 6622   2.393   0.188   9.627 -1.8703  1.6467 -0.9796
  880Sol     HW 6623   2.458   0.299   9.548  1.3755  0.6454  0.2183
  880Sol     MW 6624   2.469   0.225   9.598 -0.2156 -0.1539  0.3342
  881Sol     OW 6625   0.917   1.842   7.102  0.0502 -0.0596 -0.6963
  881Sol     HW 6626   0.880   1.930   7.112  0.7407  0.2413 -0.8198
  881Sol     HW 6627   0.986   1.837   7.168  0.2859 -0.3649 -0.9670
  881Sol     MW 6628   0.920   1.850   7.109  0.1100  0.1103 -0.0033
  882Sol     OW 6629   2.133   2.300   9.459  0.0323 -0.2808  0.2241
  882Sol     HW 6630   2.069   2.333   9.522 -0.9390  0.7891 -1.2758
  882Sol     HW 6631   2.082   2.245   9.399  0.9559 -1.3557  0.4054
  882Sol     MW 6632   2.122   2.298   9.459  0.1687  0.6694  0.1627
  883Sol     OW 6633   3.042   0.049   8.121 -0.6700  0.3257  0.1020
  883Sol     HW 6634   2.975  -0.015   8.146  0.0323 -0.2165  0.6266
  883Sol     HW 6635   2.999   0.134   8.132 -1.0395  0.0147  1.1729
  883Sol     MW 6636   3.032   0.051   8.124 -0.0005  0.2431  0.2187
  884Sol     OW 6637   0.969   1.274   1.740  0.3498  0.7250 -0.2237
  884Sol     HW 6638   0.917   1.224   1.802  0.5178  0.1655 -0.5319
  884Sol     HW 6639   1.047   1.221   1.726  0.2792  0.8128 -0.9638
  884Sol     MW 6640   0.971   1.265   1.744 -0.0314  0.8158 -0.3790
  885Sol     OW 6641   1.087   3.229   5.885  0.0503 -0.1199  0.2809
  885Sol     HW 6642   1.093   3.141   5.847 -0.3610 -0.7361  1.6134
  885Sol     HW 6643   1.117   3.287   5.815  1.7744 -1.4364 -0.1058
  885Sol     MW 6644   1.090   3.226   5.875  0.1989  0.0127 -0.0992
  886Sol     OW 6645   2.665   2.658   6.580  0.0990 -0.0441 -0.0295
  886Sol     HW 6646   2.756   2.688   6.578 -0.5930  2.0849 -3.6350
  886Sol     HW 6647   2.617   2.732   6.619 -0.3063 -0.4402  0.2248
  886Sol     MW 6648   2.669   2.668   6.583 -0.4597 -0.3294 -0.0697
  887Sol     OW 6649   1.697   1.349   5.950 -0.3159  0.4280  0.4940
  887Sol     HW 6650   1.663   1.352   5.860 -3.1113  1.6505  1.5233
  887Sol     HW 6651   1.700   1.440   5.978  1.4100  0.1262  1.3463
  887Sol     MW 6652   1.694   1.357   5.944  0.3505  0.0532  0.6017
  888Sol     OW 6653   2.065   3.197   2.902 -0.1495 -0.4026  0.1252
  888Sol     HW 6654   1.985   3.173   2.854  0.7936 -1.9885 -0.7009
  888Sol     HW 6655   2.106   3.264   2.848  0.6009 -1.7504 -1.0276
  888Sol     MW 6656   2.061   3.201   2.893 -0.2802  0.3235 -0.5041
  889Sol     OW 6657   1.443   0.008   4.101 -0.0141 -0.2533 -0.1835
  889Sol     HW 6658   1.534  -0.001   4.129  0.5255  2.3584 -0.9407
  889Sol     HW 6659   1.393  -0.038   4.168  1.6739  0.8131  1.8864
  889Sol     MW 6660   1.447   0.003   4.110 -0.0776 -0.3708  0.5005
  890Sol     OW 6661   2.828   1.341   4.516  0.0141 -0.0716 -0.4183
  890Sol     HW 6662   2.776   1.366   4.440 -0.6515  2.0670  0.7055
  890Sol     HW 6663   2.894   1.281   4.481 -0.9176  0.0800 -2.4951
  890Sol     MW 6664   2.829   1.338   4.506 -0.0233  0.1664 -0.3616
  891Sol     OW 6665   0.592   0.433   6.238 -0.3332 -0.0878 -0.3271
  891Sol     HW 6666   0.501   0.447   6.265 -0.1191  0.2719  0.2218
  891Sol     HW 6667   0.608   0.340   6.258 -0.7003 -0.2507 -0.7907
  891Sol     MW 6668   0.585   0.426   6.242 -0.1444 -0.0876  0.2127
  892Sol     OW 6669   1.409   0.713   2.265  0.2254 -0.4366 -0.6422
  892Sol     HW 6670   1.444   0.701   2.353  0.8104  2.3935 -0.4210
  892Sol     HW 6671   1.462   0.655   2.210  1.9462  0.0499  0.4364
  892Sol     MW 6672   1.417   0.707   2.268  0.4388  0.0915 -0.0776
  893Sol     OW 6673   2.802   1.579   7.515 -0.1030 -0.5635 -0.2893
  893Sol     HW 6674   2.807   1.645   7.584  0.6010  0.0039 -0.8723
  893Sol     HW 6675   2.803   1.629   7.434  0.7171 -1.3098 -0.7412
  893Sol     MW 6676   2.802   1.589   7.514 -0.3753 -0.2369  0.9839
  894Sol     OW 6677   2.593   3.036   8.026 -0.3131 -0.5047  0.4531
  894Sol     HW 6678   2.576   3.092   7.950  1.0183 -0.5021  0.1290
  894Sol     HW 6679   2.587   3.094   8.101 -1.1912 -0.4106  0.3117
  894Sol     MW 6680   2.591   3.046   8.026 -0.4564  0.0229  0.3153
  895Sol     OW 6681   0.528   2.184   7.957 -0.6140  0.7323 -0.3770
  895Sol     HW 6682   0.617   2.218   7.946 -1.1310  2.1680 -0.2850
  895Sol     HW 6683   0.527   2.144   8.043  0.0579  0.3782 -0.5365
  895Sol     MW 6684   0.535   2.184   7.963 -0.4042  0.5236 -0.0568
  896Sol     OW 6685   0.054   2.302   3.455 -0.3007 -0.2890  0.1977
  896Sol     HW 6686   0.028   2.279   3.544  1.0408 -1.8449  0.2003
  896Sol     HW 6687   0.073   2.218   3.413 -2.7948  0.2353 -2.1812
  896Sol     MW 6688   0.053   2.292   3.459  0.2114  0.2278  0.1995
  897Sol     OW 6689   2.500   2.014   7.799 -0.2479  0.5437  0.3180
  897Sol     HW 6690   2.498   2.103   7.834 -2.4717  0.6435  0.0054
  897Sol     HW 6691   2.534   1.960   7.871  0.9640  1.6123  0.5536
  897Sol     MW 6692   2.503   2.017   7.809  0.0790 -0.0797  0.1992
  898Sol     OW 6693   1.220   1.997   7.686  0.1612 -0.2839 -0.0617
  898Sol     HW 6694   1.219   2.009   7.781 -1.5951 -0.5498 -0.0252
  898Sol     HW 6695   1.229   1.902   7.674 -0.3249 -0.3239 -0.1377
  898Sol     MW 6696   1.221   1.989   7.693  0.3745  0.8123 -0.6416
  899Sol     OW 6697   0.238   0.517   5.493 -0.2651  0.3193  0.2323
  899Sol     HW 6698   0.310   0.580   5.500 -1.0162  0.9873  2.1818
  899Sol     HW 6699   0.198   0.535   5.408  1.1870  0.6756 -0.3866
  899Sol     MW 6700   0.241   0.524   5.486 -0.0232 -0.2934  0.2712
  900Sol     OW 6701   1.187   0.361   8.481 -0.0111  0.6386  0.0174
  900Sol     HW 6702   1.122   0.418   8.523  0.8960  1.9928 -0.3875
  900Sol     HW 6703   1.215   0.301   8.551 -1.1387  0.5299  0.3913
  900Sol     MW 6704   1.184   0.361   8.491  0.0581  0.1533 -0.2558
  901Sol     OW 6705   2.061   1.000   4.464  0.0620  0.7926  0.5490
  901Sol     HW 6706   2.085   0.907   4.468  0.8292  1.0236  1.9139
  901Sol     HW 6707   2.036   1.015   4.373 -0.9718 -0.9683  0.5276
  901Sol     MW 6708   2.061   0.993   4.456  0.0167  0.0492  0.3371
  902Sol     OW 6709   2.868   1.176   7.034 -0.1587  0.1358  0.1413
  902Sol     HW 6710   2.878   1.198   7.127 -2.4239 -0.6424  0.5982
  902Sol     HW 6711   2.777   1.197   7.014  0.2516  0.1057 -1.8719
  902Sol     MW 6712   2.861   1.180   7.040 -0.2067  0.1239 -0.1796
  903Sol     OW 6713   1.793   1.653   4.377  0.5414 -0.2167 -0.3687
  903Sol     HW 6714   1.812   1.710   4.452 -2.2606 -0.2278  0.4026
  903Sol     HW 6715   1.801   1.564   4.411 -0.3825 -0.2221 -0.1339
  903Sol     MW 6716   1.795   1.650   4.387  0.1300  0.4088 -1.3529
  904Sol     OW 6717   2.063   2.609   1.821 -0.1099  0.2986 -0.1166
  904Sol     HW 6718   2.080   2.702   1.834  1.2972 -0.1604  1.6320
  904Sol     HW 6719   2.148   2.567   1.838 -1.0314 -1.3983  0.4146
  904Sol     MW 6720   2.072   2.614   1.824  0.0154 -0.3644 -0.0628
  905Sol     OW 6721   2.252   3.238   6.528  0.1605  0.0549  0.8314
  905Sol     HW 6722   2.263   3.188   6.448  0.8699 -0.2276  1.0972
  905Sol     HW 6723   2.209   3.319   6.501 -0.9250 -0.6631  0.3889
  905Sol     MW 6724   2.249   3.241   6.519  0.1412 -0.1859  0.1456
  906Sol     OW 6725   3.012   3.263   4.711 -0.1780  0.0956  0.2135
  906Sol     HW 6726   3.031   3.280   4.804  1.1687  0.4411 -0.1105
  906Sol     HW 6727   2.920   3.285   4.700 -0.3803 -0.0646  1.5007
  906Sol     MW 6728   3.006   3.266   4.719 -0.7248 -0.0478 -0.5346
  907Sol     OW 6729   2.120   0.716   5.267  0.0423 -0.7584 -0.0230
  907Sol     HW 6730   2.037   0.761   5.281  0.4030 -0.2631  0.5391
  907Sol     HW 6731   2.156   0.706   5.355  0.5497 -1.0327 -0.2617
  907Sol     MW 6732   2.116   0.719   5.276 -0.3037  0.2071 -0.4680
  908Sol     OW 6733   2.410   1.426   9.852  0.4917 -0.3632 -0.9332
  908Sol     HW 6734   2.459   1.508   9.848  0.4575 -0.1155  2.5638
  908Sol     HW 6735   2.474   1.358   9.830  1.1858  0.3553 -1.1356
  908Sol     MW 6736   2.420   1.427   9.850 -0.1787 -0.3728  0.3069
  909Sol     OW 6737   2.637   3.068   2.081 -0.5941  0.0855 -0.0024
  909Sol     HW 6738   2.694   3.036   2.151 -0.1516  0.0111 -0.3997
  909Sol     HW 6739   2.591   3.143   2.120 -0.9856 -0.4838  0.6447
  909Sol     MW 6740   2.638   3.072   2.091 -0.5354  0.0052 -0.5597
  910Sol     OW 6741   1.607   0.261   7.107  0.5051 -0.1676 -0.1743
  910Sol     HW 6742   1.605   0.187   7.046 -2.0413 -1.6351  1.6347
  910Sol     HW 6743   1.701   0.277   7.121  1.1012 -2.0619 -1.7347
  910Sol     MW 6744   1.615   0.255   7.103 -0.1499  0.0373 -0.6603
  911Sol     OW 6745   1.061   0.649   1.914 -0.0474  0.0471  0.9844
  911Sol     HW 6746   1.066   0.615   2.003 -0.4459 -0.9940  0.6293
  911Sol     HW 6747   1.084   0.574   1.859  1.2984  0.9768  0.2526
  911Sol     MW 6748   1.063   0.639   1.917  0.6746 -0.1652 -0.5998
  912Sol     OW 6749   0.200   0.761   4.002 -0.9775  0.3756  0.0205
  912Sol     HW 6750   0.185   0.807   4.085 -1.3207  0.6747 -0.2056
  912Sol     HW 6751   0.288   0.787   3.976 -1.7907  2.2486 -0.9519
  912Sol     MW 6752   0.206   0.768   4.007  0.2812  0.4140 -0.2949
  913Sol     OW 6753   1.044   1.681   8.555  0.2874  0.4213 -0.2661
  913Sol     HW 6754   1.019   1.622   8.626  0.5733  2.1656  1.3470
  913Sol     HW 6755   1.038   1.628   8.476 -1.0192 -1.2963  0.9480
  913Sol     MW 6756   1.041   1.671   8.555  0.4645  0.5967  0.2836
  914Sol     OW 6757   1.837   1.006   3.297 -0.0399  0.6524 -0.1388
  914Sol     HW 6758   1.793   0.927   3.328 -1.6792  1.6102  0.0543
  914Sol     HW 6759   1.916   0.975   3.253 -0.1289 -1.0142  0.8456
  914Sol     MW 6760   1.840   0.996   3.296 -0.5921  0.1033  0.0839
  915Sol     OW 6761   0.703   1.161   8.314  0.5252  0.1766 -0.1143
  915Sol     HW 6762   0.754   1.198   8.387 -1.2285 -0.4207  1.4419
  915Sol     HW 6763   0.612   1.173   8.339 -0.1364  0.7907 -2.6630
  915Sol     MW 6764   0.700   1.165   8.323  0.3585 -0.0798  0.1799
  916Sol     OW 6765   1.068   0.455   4.096 -0.1940  0.4557  0.0368
  916Sol     HW 6766   1.107   0.535   4.061 -0.6871 -0.9419 -3.8915
  916Sol     HW 6767   0.974   0.471   4.093 -0.4039 -1.0232 -2.8759
  916Sol     MW 6768   1.063   0.464   4.093  0.1171  0.1237 -0.4802
  917Sol     OW 6769   0.304   2.270   5.589  0.7912  0.3092 -0.1334
  917Sol     HW 6770   0.227   2.319   5.617  0.6072  0.3214 -0.6671
  917Sol     HW 6771   0.332   2.312   5.508 -0.5709 -1.7132 -1.7071
  917Sol     MW 6772   0.300   2.278   5.584  0.7628  0.3919 -0.7247
  918Sol     OW 6773   2.934   3.301   3.491  0.0344 -0.7353  0.2698
  918Sol     HW 6774   2.947   3.329   3.401 -1.2354  1.5412  0.7669
  918Sol     HW 6775   2.869   3.231   3.485  2.0151 -2.5343 -0.8169
  918Sol     MW 6776   2.930   3.297   3.483 -0.2131 -0.2339 -0.2358
  919Sol     OW 6777   0.047   2.641   3.683 -0.1927 -0.2930 -0.3860
  919Sol     HW 6778   0.056   2.562   3.736  0.5007 -1.2737 -1.9236
  919Sol     HW 6779   0.063   2.612   3.593  1.3292  1.8235 -0.8554
  919Sol     MW 6780   0.049   2.632   3.680 -0.3303 -0.2807 -0.5045
  920Sol     OW 6781   2.031   2.686   8.446  0.2287  0.3354  0.2566
  920Sol     HW 6782   1.943   2.710   8.416  0.8975  1.8664 -0.5043
  920Sol     HW 6783   2.040   2.594   8.422 -1.0677  0.2307  0.1084
  920Sol     MW 6784   2.024   2.680   8.442 -0.1677 -0.3517  0.2892
  921Sol     OW 6785   0.805   1.333   3.533  0.3206  0.5264 -0.4576
  921Sol     HW 6786   0.789   1.340   3.438  0.9341  2.3735 -0.4553
  921Sol     HW 6787   0.881   1.276   3.540  1.3652  1.7682 -1.2183
  921Sol     MW 6788   0.811   1.329   3.525  0.2740 -0.3707  0.3646
  922Sol     OW 6789   1.636   1.523   8.455  0.1139 -0.1242  0.0090
  922Sol     HW 6790   1.595   1.511   8.540 -1.0507  0.7206 -0.4194
  922Sol     HW 6791   1.570   1.568   8.402  1.8285  1.9091 -0.4834
  922Sol     MW 6792   1.626   1.526   8.457  0.2309 -0.1359 -0.0904
  923Sol     OW 6793   1.095   3.390   6.382 -0.7102 -0.2936 -0.1927
  923Sol     HW 6794   1.024   3.454   6.383  0.3111  0.8556 -0.6203
  923Sol     HW 6795   1.090   3.350   6.295  0.3706  1.1722 -0.9554
  923Sol     MW 6796   1.088   3.392   6.374  0.0268 -0.3929  0.1449
  924Sol     OW 6797   2.533   1.710   5.743  0.1012  0.0662 -0.6984
  924Sol     HW 6798   2.565   1.626   5.711 -0.9276 -0.1426 -1.1934
  924Sol     HW 6799   2.585   1.727   5.822 -3.0081 -3.4847  2.3439
  924Sol     MW 6800   2.541   1.704   5.747  0.0448  0.4094  0.0026
  925Sol     OW 6801   1.306   0.832   7.145  0.0322  0.0138  0.0170
  925Sol     HW 6802   1.316   0.892   7.219  1.0749 -1.1947  0.8698
  925Sol     HW 6803   1.299   0.745   7.184  0.5103 -0.6419 -1.2982
  925Sol     MW 6804   1.306   0.830   7.155  0.3320 -0.0695 -0.6309
  926Sol     OW 6805   2.400   2.192   8.685 -0.1016  0.1970  0.5657
  926Sol     HW 6806   2.318   2.156   8.652 -0.2870  0.5755  0.6190
  926Sol     HW 6807   2.407   2.156   8.774  0.0104 -0.1909  0.4015
  926Sol     MW 6808   2.393   2.185   8.690 -0.4374 -0.1947 -0.0607
  927Sol     OW 6809   0.420   2.851   7.637 -0.8345  0.2863 -0.4835
  927Sol     HW 6810   0.501   2.848   7.688 -0.4896  3.1061 -0.7616
  927Sol     HW 6811   0.354   2.812   7.693  0.1286  0.7219  0.9816
  927Sol     MW 6812   0.421   2.848   7.647  1.1212  0.4674 -0.0346
  928Sol     OW 6813   0.259   0.099   7.935  0.4296 -0.1585  0.1292
  928Sol     HW 6814   0.230   0.181   7.974  0.0417  0.0487 -0.5849
  928Sol     HW 6815   0.251   0.035   8.005 -2.0803 -0.1726 -0.1396
  928Sol     MW 6816   0.256   0.101   7.945  0.1392  0.3573 -0.6028
  929Sol     OW 6817   1.952   0.562   7.112 -0.3603  0.8631 -0.2110
  929Sol     HW 6818   1.889   0.601   7.052  0.6129  0.2572 -1.6576
  929Sol     HW 6819   1.941   0.467   7.100 -0.0906  0.7374  0.4919
  929Sol     MW 6820   1.945   0.557   7.105 -0.3830  0.7644  0.1167
  930Sol     OW 6821   2.186   2.807   8.263  0.1588 -0.4522 -0.1702
  930Sol     HW 6822   2.117   2.781   8.324  0.2710 -0.7045 -0.1498
  930Sol     HW 6823   2.144   2.805   8.177  0.3248 -1.2859 -0.2336
  930Sol     MW 6824   2.176   2.804   8.261 -0.0926 -0.0582 -0.0222
  931Sol     OW 6825   2.789   1.771   7.296 -0.2708 -0.8836  0.3474
  931Sol     HW 6826   2.838   1.717   7.234  1.8346  0.9664  0.3264
  931Sol     HW 6827   2.829   1.858   7.289 -2.6985  0.3751  1.3353
  931Sol     MW 6828   2.797   1.774   7.290  0.3594 -0.5052 -0.6104
  932Sol     OW 6829   2.064   0.012   6.513  0.6010  0.4524 -0.9189
  932Sol     HW 6830   1.993  -0.042   6.481  1.0329 -0.3520 -0.5350
  932Sol     HW 6831   2.095   0.060   6.436 -0.5361  1.0319 -1.0282
  932Sol     MW 6832   2.061   0.012   6.504 -0.6706  0.4916 -0.0479
  933Sol     OW 6833   0.834   2.902   9.058  0.2550  0.6841 -0.0893
  933Sol     HW 6834   0.839   2.895   8.962  0.6858 -0.0528 -0.0163
  933Sol     HW 6835   0.853   2.994   9.076  2.4152  0.3809 -0.5827
  933Sol     MW 6836   0.837   2.909   9.051 -0.1816  0.1623 -0.2073
  934Sol     OW 6837   0.196   3.065   8.641  0.2509  0.0394  0.2251
  934Sol     HW 6838   0.245   2.985   8.661  0.3744  0.2944  0.9247
  934Sol     HW 6839   0.235   3.132   8.697  0.8555  0.8345 -1.1066
  934Sol     MW 6840   0.204   3.064   8.647  0.0412  0.0093  0.5456
  935Sol     OW 6841   2.393   1.939   7.521 -0.1267 -0.0656  0.2753
  935Sol     HW 6842   2.412   1.975   7.607  0.2646 -0.9397  0.5628
  935Sol     HW 6843   2.302   1.963   7.504 -0.1390  0.2943  0.8371
  935Sol     MW 6844   2.387   1.945   7.527 -0.5248 -0.6693  0.6641
  936Sol     OW 6845   0.042   2.067   8.069  0.5919 -0.5268  0.3310
  936Sol     HW 6846   0.087   2.151   8.077 -1.2884  0.6383 -0.9112
  936Sol     HW 6847   0.110   2.006   8.040  1.6828  0.8769 -0.1180
  936Sol     MW 6848   0.052   2.069   8.067  0.4445 -0.3653 -0.2744
  937Sol     OW 6849   2.374   3.302   3.572 -0.4676  0.1402  0.4962
  937Sol     HW 6850   2.290   3.348   3.577 -0.2598  0.3889  1.8535
  937Sol     HW 6851   2.350   3.210   3.564 -0.8740  0.3338 -0.6182
  937Sol     MW 6852   2.364   3.298   3.572 -0.4441 -0.5060  0.5783
  938Sol     OW 6853   0.261   1.436   3.765  0.2384 -0.1982 -0.1601
  938Sol     HW 6854   0.249   1.346   3.736 -0.5970 -0.4053  0.8071
  938Sol     HW 6855   0.306   1.479   3.692 -0.3354 -1.1171 -1.0669
  938Sol     MW 6856   0.264   1.432   3.756 -0.5157 -0.0299  0.5854
  939Sol     OW 6857   0.957   3.046   3.691  0.3623  0.2456  0.1532
  939Sol     HW 6858   1.027   3.038   3.756  1.4459  0.3601 -0.9817
  939Sol     HW 6859   0.900   2.970   3.707  0.3971  0.4916  1.4843
  939Sol     MW 6860   0.958   3.038   3.698 -0.0593 -0.4111 -0.1665
  940Sol     OW 6861   1.457   2.902   3.829  0.5972 -0.3589  0.1331
  940Sol     HW 6862   1.366   2.932   3.836  1.0651  0.6442  3.0938
  940Sol     HW 6863   1.451   2.809   3.810 -0.9585  0.6973 -5.1397
  940Sol     MW 6864   1.448   2.897   3.828  0.0034 -0.2848 -0.0510
  941Sol     OW 6865   2.593   0.322   5.287  0.0521  0.2587  0.0143
  941Sol     HW 6866   2.518   0.303   5.343  0.0984 -0.0770 -0.0346
  941Sol     HW 6867   2.571   0.281   5.203  1.3910 -2.0280  0.7525
  941Sol     MW 6868   2.584   0.317   5.285  0.4786  0.3080  0.2757
  942Sol     OW 6869   1.971   2.317   3.272  0.0894 -0.3772  0.3414
  942Sol     HW 6870   1.914   2.246   3.300 -0.3924 -0.4477 -0.8080
  942Sol     HW 6871   2.051   2.306   3.324 -0.6255 -0.7558  1.3673
  942Sol     MW 6872   1.973   2.310   3.279 -0.2530  0.2021 -0.2229
  943Sol     OW 6873   0.046   2.092   7.731 -0.2017 -0.1900  0.6434
  943Sol     HW 6874   0.054   2.132   7.644  0.5962 -0.4979  0.5687
  943Sol     HW 6875   0.136   2.072   7.756 -0.5360 -1.3259  0.9707
  943Sol     MW 6876   0.055   2.094   7.725 -0.3499  0.7569 -0.0265
  944Sol     OW 6877   0.885   2.870   2.361 -0.1511 -0.1203 -0.0368
  944Sol     HW 6878   0.810   2.813   2.346 -0.7969  0.2944  1.4828
  944Sol     HW 6879   0.911   2.900   2.274 -1.5349 -0.5396 -0.6037
  944Sol     MW 6880   0.881   2.867   2.352 -0.1452  0.3484  0.4910
  945Sol     OW 6881   3.208   0.286   6.529  0.2746  0.2165 -0.2385
  945Sol     HW 6882   3.280   0.340   6.496 -0.5363  1.5431  0.1461
  945Sol     HW 6883   3.144   0.286   6.458  0.1309  0.0313 -0.1066
  945Sol     MW 6884   3.209   0.291   6.520  0.6558  0.5549  0.0767
  946Sol     OW 6885   2.553   2.256   5.448  0.1838 -0.1423 -0.3669
  946Sol     HW 6886   2.646   2.243   5.466  0.2494 -1.2146 -1.4218
  946Sol     HW 6887   2.508   2.218   5.523  0.5395 -1.9438 -1.0320
  946Sol     MW 6888   2.557   2.251   5.456 -0.4953 -0.1934 -0.2047
  947Sol     OW 6889   3.042   0.096   7.596  0.2881  0.3872 -0.4563
  947Sol     HW 6890   3.038   0.188   7.569  1.4026 -0.4306 -3.7004
  947Sol     HW 6891   3.131   0.069   7.574 -0.1856 -1.6090 -0.0086
  947Sol     MW 6892   3.050   0.102   7.591 -0.2638 -0.1529 -0.1979
  948Sol     OW 6893   0.583   0.253   8.654  0.6220  0.0116 -0.2766
  948Sol     HW 6894   0.493   0.264   8.626  0.3517  2.1630  1.3224
  948Sol     HW 6895   0.630   0.328   8.617  1.0055  0.8483  1.8303
  948Sol     MW 6896   0.579   0.260   8.648 -0.3882  0.3254 -0.8605
  949Sol     OW 6897   1.705   2.518   3.982  0.2536  0.1615 -0.4756
  949Sol     HW 6898   1.777   2.492   3.924 -0.4776  1.1817 -1.8701
  949Sol     HW 6899   1.728   2.605   4.013 -0.3617  0.4949 -0.9276
  949Sol     MW 6900   1.713   2.523   3.979 -0.0735  0.1139 -0.4090
  950Sol     OW 6901   2.679   0.588   6.840  0.2239  0.0243  0.1802
  950Sol     HW 6902   2.590   0.604   6.870  0.3037 -1.4855  1.2512
  950Sol     HW 6903   2.668   0.545   6.755 -0.0542  0.3420  0.0536
  950Sol     MW 6904   2.670   0.586   6.835  0.0743 -0.2634 -0.2272
  951Sol     OW 6905   0.834   0.666   3.193  0.0906 -0.6035  0.5723
  951Sol     HW 6906   0.752   0.678   3.145  0.2827 -3.5139 -0.5534
  951Sol     HW 6907   0.807   0.662   3.285 -0.6749  1.4110  0.4649
  951Sol     MW 6908   0.824   0.667   3.197  0.0259 -0.1267 -0.0437
  952Sol     OW 6909   3.009   0.042   5.619 -0.5857 -0.1184  0.1625
  952Sol     HW 6910   3.079  -0.023   5.616 -1.3464 -0.8748 -1.3720
  952Sol     HW 6911   2.929  -0.009   5.629 -1.0222  0.7011  0.9474
  952Sol     MW 6912   3.008   0.032   5.620 -0.2104 -0.2686  0.0823
  953Sol     OW 6913   3.017   2.214   2.635 -0.3384  0.0755  0.3300
  953Sol     HW 6914   3.070   2.222   2.556 -0.2137  1.6851  0.5541
  953Sol     HW 6915   2.927   2.227   2.606 -0.5201 -1.4665  0.1382
  953Sol     MW 6916   3.014   2.216   2.626 -0.1944 -0.1593 -0.1051
  954Sol     OW 6917   2.311   1.305   4.085 -0.1964  0.1120 -0.4968
  954Sol     HW 6918   2.245   1.283   4.151 -0.9322  1.1680 -0.8739
  954Sol     HW 6919   2.328   1.398   4.098  0.5068  0.0608 -1.0463
  954Sol     MW 6920   2.307   1.311   4.092  0.0802 -0.0552  0.4381
  955Sol     OW 6921   0.562   1.026   5.869 -0.1179 -0.3000 -0.0456
  955Sol     HW 6922   0.595   0.961   5.807  0.5697  1.5344 -1.6985
  955Sol     HW 6923   0.641   1.070   5.901 -0.6609  0.8960 -0.3202
  955Sol     MW 6924   0.572   1.024   5.866  0.2465 -0.2368  0.0937
  956Sol     OW 6925   3.177   2.835   4.820 -0.1892  0.5319 -0.7797
  956Sol     HW 6926   3.269   2.836   4.793 -0.0025  0.8151 -0.1391
  956Sol     HW 6927   3.134   2.895   4.759  0.0305  0.3196 -1.1464
  956Sol     MW 6928   3.181   2.840   4.812  0.6612 -0.5219  0.0020
  957Sol     OW 6929   0.481   2.267   9.230 -0.7184  0.0090  0.7557
  957Sol     HW 6930   0.537   2.319   9.173 -2.2562 -0.5052 -1.3082
  957Sol     HW 6931   0.392   2.298   9.211 -1.3987 -1.3728  1.5943
  957Sol     MW 6932   0.478   2.274   9.223 -0.3172  0.2132  0.1537
  958Sol     OW 6933   1.644   2.697   5.101  0.3680 -0.2403 -0.3947
  958Sol     HW 6934   1.725   2.681   5.054  0.9895 -0.4610  0.7521
  958Sol     HW 6935   1.669   2.698   5.193 -0.8409  0.1987 -0.0635
  958Sol     MW 6936   1.653   2.696   5.105  0.5156 -0.2718 -0.3412
  959Sol     OW 6937   2.968   2.238   5.849 -0.0909  0.7162 -0.0805
  959Sol     HW 6938   3.015   2.157   5.830  0.3028  1.2526 -1.3919
  959Sol     HW 6939   2.970   2.244   5.945 -1.5789 -1.6826  0.1660
  959Sol     MW 6940   2.972   2.231   5.856  0.0659  0.2908 -0.0225
  960Sol     OW 6941   2.466   1.861   2.806  0.1716  0.0419  0.2658
  960Sol     HW 6942   2.496   1.931   2.865 -1.2469  1.5286 -0.7220
  960Sol     HW 6943   2.430   1.795   2.865  0.8992  0.4355  1.1884
  960Sol     MW 6944   2.466   1.862   2.817  0.0086 -0.0638 -0.0102
  961Sol     OW 6945   1.947   2.975   7.469 -0.4569  0.7035 -0.0255
  961Sol     HW 6946   1.989   2.907   7.416 -0.6985  0.3150  0.2761
  961Sol     HW 6947   1.930   3.046   7.408  2.2593  1.5925  0.2042
  961Sol     MW 6948   1.949   2.975   7.459 -0.0966  0.0835  0.1065
  962Sol     OW 6949   3.294   0.627   8.236  0.6062 -0.2052  0.4251
  962Sol     HW 6950   3.222   0.688   8.254  0.7055  0.0691 -0.1124
  962Sol     HW 6951   3.351   0.634   8.312  1.4413  1.5562 -0.3527
  962Sol     MW 6952   3.293   0.633   8.244  0.1949 -0.5908 -0.5755
  963Sol     OW 6953   0.430   2.433   8.101  0.5985  0.0535  0.2344
  963Sol     HW 6954   0.478   2.358   8.066  0.5285  0.9696 -1.8703
  963Sol     HW 6955   0.498   2.493   8.131  0.7027  0.1656 -0.2270
  963Sol     MW 6956   0.440   2.431   8.101  0.0708 -0.2367 -0.0949
  964Sol     OW 6957   3.084   2.353   2.857 -0.4007  0.2100  0.0274
  964Sol     HW 6958   3.001   2.342   2.902  0.1123  0.1838  0.9856
  964Sol     HW 6959   3.067   2.323   2.768 -1.9403  2.0975 -0.3389
  964Sol     MW 6960   3.075   2.349   2.853 -0.5256 -0.2166 -0.2707
  965Sol     OW 6961   2.154   2.692   4.548 -0.0709  0.2918  0.0305
  965Sol     HW 6962   2.208   2.652   4.480  0.9937  0.2200  0.8916
  965Sol     HW 6963   2.196   2.666   4.630 -0.4923  1.5561  0.6612
  965Sol     MW 6964   2.163   2.686   4.549  0.4364  0.4087  0.8005
  966Sol     OW 6965   2.335   2.200   8.048 -0.0683 -0.2322  0.3156
  966Sol     HW 6966   2.360   2.228   8.136 -1.9014 -0.6929  0.9928
  966Sol     HW 6967   2.400   2.242   7.991  1.0531  0.1840  1.8539
  966Sol     MW 6968   2.343   2.207   8.051 -0.1348 -0.5901 -0.0297
  967Sol     OW 6969   1.281   0.681   9.457 -0.4560  0.2869  0.1075
  967Sol     HW 6970   1.235   0.604   9.424 -0.3109  0.5544 -0.7480
  967Sol     HW 6971   1.360   0.646   9.499 -0.4584 -0.0382 -0.1609
  967Sol     MW 6972   1.284   0.671   9.458 -0.7800 -0.3191 -0.4352
  968Sol     OW 6973   2.089   3.163   9.605  0.4158  0.6783  0.0198
  968Sol     HW 6974   2.144   3.226   9.653 -1.2219  1.3019  1.1683
  968Sol     HW 6975   2.042   3.116   9.674  2.0790 -2.3122 -0.7966
  968Sol     MW 6976   2.090   3.165   9.616 -0.4513  0.1427 -0.2359
  969Sol     OW 6977   1.861   2.817   8.844 -0.4167  0.3665 -0.0444
  969Sol     HW 6978   1.809   2.737   8.847  0.3356 -0.1542 -0.6819
  969Sol     HW 6979   1.893   2.829   8.933  1.2650 -1.2457 -0.4098
  969Sol     MW 6980   1.859   2.811   8.852 -0.2460  0.5429 -0.1959
  970Sol     OW 6981   1.041   0.901   9.009  0.1635 -1.1447 -0.5138
  970Sol     HW 6982   0.956   0.882   8.970  0.1427 -0.5656 -0.7476
  970Sol     HW 6983   1.091   0.944   8.940  0.0528  0.0771  0.1459
  970Sol     MW 6984   1.038   0.903   9.000 -0.4413  0.0100 -0.0178
  971Sol     OW 6985   2.763   1.851   2.325 -0.4917 -0.0980  0.2412
  971Sol     HW 6986   2.839   1.887   2.280 -0.0967 -0.5175  0.5746
  971Sol     HW 6987   2.706   1.927   2.339 -0.2094  0.1906 -0.1431
  971Sol     MW 6988   2.765   1.861   2.322  0.4491  0.8813  0.0894
  972Sol     OW 6989   1.436   1.575   5.999  0.5548  0.1876  0.0523
  972Sol     HW 6990   1.399   1.569   6.086  0.8918  1.7406  0.3273
  972Sol     HW 6991   1.393   1.506   5.949  0.5412 -0.8668  1.4994
  972Sol     MW 6992   1.429   1.569   6.002  0.6139 -0.6240 -0.7387
  973Sol     OW 6993   1.413   0.086   5.639 -0.2735 -0.0620  0.1700
  973Sol     HW 6994   1.451   0.174   5.630 -0.9340  0.0620 -1.6464
  973Sol     HW 6995   1.483   0.027   5.611 -0.7781  0.0629 -1.3949
  973Sol     MW 6996   1.423   0.089   5.636 -0.0877 -0.0274  0.2310
  974Sol     OW 6997   2.860   0.321   3.143  0.4069 -0.2894  0.0360
  974Sol     HW 6998   2.780   0.369   3.165  1.0269  0.1341  1.4147
  974Sol     HW 6999   2.930   0.371   3.185  1.4246 -0.5872 -1.2591
  974Sol     MW 7000   2.859   0.330   3.148  0.1886  0.3262 -0.4140
  975Sol     OW 7001   2.686   2.728   1.828 -0.1089  0.0568  0.2928
  975Sol     HW 7002   2.745   2.658   1.855  1.0525 -0.8609 -4.2040
  975Sol     HW 7003   2.736   2.808   1.841  0.9712 -0.4765 -0.5210
  975Sol     MW 7004   2.696   2.729   1.832 -0.3902 -0.2090  0.4378
  976Sol     OW 7005   0.112   0.612   3.293  0.2274  0.3016 -0.0066
  976Sol     HW 7006   0.031   0.575   3.256  0.4170 -0.0256 -0.0959
  976Sol     HW 7007   0.082   0.676   3.357 -0.1123  1.3951 -1.2407
  976Sol     MW 7008   0.102   0.615   3.295  0.4622 -0.5023  1.1336
  977Sol     OW 7009   1.049   2.221   3.977  0.0333 -0.3898  0.1165
  977Sol     HW 7010   1.065   2.215   4.071 -0.9872  1.1223  0.3923
  977Sol     HW 7011   1.042   2.314   3.959 -0.4735 -0.6909 -1.3502
  977Sol     MW 7012   1.050   2.228   3.984  0.0610  0.1729  0.3574
  978Sol     OW 7013   2.458   0.794   8.863  0.3733  0.0341  0.1087
  978Sol     HW 7014   2.454   0.739   8.785  0.1563  1.7024 -1.0751
  978Sol     HW 7015   2.482   0.733   8.934 -0.3448 -1.6585 -1.0710
  978Sol     MW 7016   2.460   0.783   8.863 -0.3066 -0.1968  0.0714
  979Sol     OW 7017   0.404   2.648   5.761  0.4933  0.1320  0.4316
  979Sol     HW 7018   0.316   2.621   5.788 -0.1445  3.0384  1.4486
  979Sol     HW 7019   0.401   2.650   5.665 -0.1592 -0.9253  0.4211
  979Sol     MW 7020   0.396   2.646   5.755  0.3506 -0.4727  0.1093
  980Sol     OW 7021   3.015   2.186   6.505  0.0030  0.2422  0.1455
  980Sol     HW 7022   2.980   2.181   6.593  0.4515 -1.2552  0.2602
  980Sol     HW 7023   3.095   2.239   6.514  1.0530 -1.4339  0.9923
  980Sol     MW 7024   3.019   2.191   6.513  0.2729  0.3392 -0.9328
  981Sol     OW 7025   0.530   1.205   3.567  0.5179  0.6908 -0.1957
  981Sol     HW 7026   0.607   1.216   3.622  0.3911  1.4350 -0.1716
  981Sol     HW 7027   0.513   1.110   3.569  1.7686  0.4471 -0.6670
  981Sol     MW 7028   0.535   1.197   3.572 -0.2262 -0.3604  0.3049
  982Sol     OW 7029   2.428   2.273   9.388  0.2764  0.0143  0.2761
  982Sol     HW 7030   2.340   2.265   9.426  0.0889  2.5721  0.4991
  982Sol     HW 7031   2.419   2.235   9.300 -1.4929  1.5963 -0.2827
  982Sol     MW 7032   2.419   2.269   9.383 -0.5081 -0.4723  0.1669
  983Sol     OW 7033   1.739   0.622   3.616  0.2123 -0.1011 -0.5407
  983Sol     HW 7034   1.661   0.617   3.671 -0.4146 -0.4279 -1.4404
  983Sol     HW 7035   1.790   0.695   3.651 -0.9763  0.7419 -0.5768
  983Sol     MW 7036   1.737   0.628   3.624  0.2615 -0.4517  0.7772
  984Sol     OW 7037   0.130   1.755   9.140 -0.4343  0.2182  0.9061
  984Sol     HW 7038   0.208   1.709   9.169 -0.8662 -2.4088 -1.8263
  984Sol     HW 7039   0.163   1.832   9.092  0.6029 -1.7577 -1.6652
  984Sol     MW 7040   0.140   1.758   9.138 -0.7880  0.3617  0.4397
  985Sol     OW 7041   1.242   1.316   8.888 -0.3689  0.3272  0.2825
  985Sol     HW 7042   1.265   1.378   8.819 -0.2181  0.1426  0.1664
  985Sol     HW 7043   1.230   1.370   8.966 -3.0287  0.8479 -0.4388
  985Sol     MW 7044   1.243   1.326   8.889 -0.0879 -0.1838 -0.1534
  986Sol     OW 7045   1.359   1.334   6.475  0.5060 -0.1483  0.2633
  986Sol     HW 7046   1.420   1.401   6.507  0.4332  0.3572 -0.6470
  986Sol     HW 7047   1.284   1.341   6.533  1.1573 -0.5412  1.1812
  986Sol     MW 7048   1.358   1.340   6.483 -0.2629 -0.0918 -0.1298
  987Sol     OW 7049   0.200   2.060   3.352 -0.3679 -0.3253 -0.1303
  987Sol     HW 7050   0.230   1.973   3.380  1.0088  1.2050  3.4661
  987Sol     HW 7051   0.275   2.097   3.306 -0.1350 -0.1705  0.3713
  987Sol     MW 7052   0.209   2.056   3.351 -0.5539 -0.4928 -0.3093
  988Sol     OW 7053   1.300   0.641   8.847 -0.2650 -0.1850 -0.0602
  988Sol     HW 7054   1.275   0.650   8.939  0.7876 -0.2523  0.2364
  988Sol     HW 7055   1.223   0.671   8.799 -0.6830  0.2233  0.8419
  988Sol     MW 7056   1.291   0.645   8.851  0.2428  0.4321  0.7893
  989Sol     OW 7057   1.427   2.839   2.049  0.0635 -0.1506  0.9107
  989Sol     HW 7058   1.409   2.898   2.122 -0.8537  0.4147  0.2179
  989Sol     HW 7059   1.468   2.894   1.983  0.2258 -0.5226  0.6988
  989Sol     MW 7060   1.429   2.849   2.050  0.7428  0.5688  0.1073
  990Sol     OW 7061   0.444   2.433   2.136 -0.4557 -0.6334 -0.9099
  990Sol     HW 7062   0.502   2.510   2.135 -0.0276 -0.9535 -0.7307
  990Sol     HW 7063   0.498   2.363   2.172 -1.3291 -0.6315  0.4393
  990Sol     MW 7064   0.454   2.434   2.139 -0.3567 -0.5400 -0.0287
  991Sol     OW 7065   1.957   0.341   2.865  0.1256  0.4604  0.1223
  991Sol     HW 7066   2.019   0.279   2.904  0.5996  1.0877  0.3698
  991Sol     HW 7067   2.008   0.420   2.850 -0.6467  1.0263  0.4329
  991Sol     MW 7068   1.967   0.343   2.867  0.1743 -0.2738 -0.1063
  992Sol     OW 7069   2.679   1.287   7.532  0.1810  0.3264  0.4943
  992Sol     HW 7070   2.689   1.379   7.509  1.8609  0.0095 -0.1522
  992Sol     HW 7071   2.667   1.287   7.627  0.1796  1.2182  0.4955
  992Sol     MW 7072   2.679   1.295   7.538 -0.4090  0.2831 -0.5892
  993Sol     OW 7073   0.945   1.346   9.168  0.0293 -0.4361 -0.4206
  993Sol     HW 7074   1.029   1.391   9.175  0.1990 -0.8201  0.0568
  993Sol     HW 7075   0.965   1.254   9.189 -0.9678 -0.0562  2.3919
  993Sol     MW 7076   0.954   1.342   9.171 -0.0573  0.7272 -0.1764
  994Sol     OW 7077   1.486   2.118   6.879 -0.3222  0.4649  0.1460
  994Sol     HW 7078   1.477   2.028   6.849  0.6800  0.0080  1.1688
  994Sol     HW 7079   1.427   2.168   6.823  0.4565 -0.5536 -1.6228
  994Sol     MW 7080   1.480   2.114   6.871  0.4443 -0.3920 -0.3431
  995Sol     OW 7081   0.058   0.076   8.779  0.1631 -0.0282  0.3166
  995Sol     HW 7082   0.092   0.166   8.781  0.6496 -0.2225  0.9012
  995Sol     HW 7083   0.030   0.059   8.869  0.3866 -0.5848  0.2815
  995Sol     MW 7084   0.059   0.083   8.787 -0.2806 -0.3690  0.1278
  996Sol     OW 7085   2.252   2.258   6.953 -0.3231 -0.8559  0.1707
  996Sol     HW 7086   2.301   2.266   6.871 -1.3157  0.9326 -0.2757
  996Sol     HW 7087   2.272   2.338   7.001 -0.3161 -1.5690  1.3703
  996Sol     MW 7088   2.258   2.266   6.950  0.3504  0.5865 -0.2324
  997Sol     OW 7089   1.868   1.894   6.949  0.3306  0.1316 -0.1981
  997Sol     HW 7090   1.862   1.951   7.026  1.3455  1.0937 -0.8191
  997Sol     HW 7091   1.932   1.827   6.973  1.1344  0.8142 -0.4489
  997Sol     MW 7092   1.873   1.893   6.958 -0.5310 -0.3667 -0.5442
  998Sol     OW 7093   1.509   3.081   3.625 -0.6505  0.2843 -0.5020
  998Sol     HW 7094   1.498   3.009   3.687 -1.6735  0.6710 -0.2213
  998Sol     HW 7095   1.583   3.055   3.571  0.3284 -0.0059  0.9460
  998Sol     MW 7096   1.515   3.072   3.626 -0.0597 -0.1486  0.7563
  999Sol     OW 7097   0.977   1.508   4.466 -0.0961 -0.3285  0.2422
  999Sol     HW 7098   1.001   1.437   4.526  1.3978  0.2881  0.4052
  999Sol     HW 7099   0.904   1.552   4.508 -0.8601 -1.6095  0.2668
  999Sol     MW 7100   0.973   1.506   4.475 -0.6652 -0.2133  0.2976
 1000Sol     OW 7101   0.919   2.036   8.445 -0.7352  0.3146 -0.1790
 1000Sol     HW 7102   0.915   1.981   8.367  1.8024  0.5166 -0.5006
 1000Sol     HW 7103   0.951   1.977   8.514 -2.4018  0.2817  0.5707
 1000Sol     MW 7104   0.922   2.026   8.444 -0.6558 -0.4921  0.2200
 1001Sol     OW 7105   0.836   3.061   5.756 -0.1231 -0.6818  0.1338
 1001Sol     HW 7106   0.807   3.093   5.841  1.7838  0.6664  0.3194
 1001Sol     HW 7107   0.834   3.138   5.699  1.2397 -0.9610 -0.3194
 1001Sol     MW 7108   0.833   3.071   5.758 -0.0394 -0.1408 -0.2785
 1002Sol     OW 7109   2.747   2.151   3.306  0.3657  0.1520  0.4365
 1002Sol     HW 7110   2.840   2.132   3.320  0.3054 -1.6420 -1.4177
 1002Sol     HW 7111   2.742   2.175   3.213 -0.9015  1.1389  0.7488
 1002Sol     MW 7112   2.755   2.152   3.299  0.1000  0.2972  0.2162
 1003Sol     OW 7113   0.723   0.079   4.128  0.4708  0.1201  0.1373
 1003Sol     HW 7114   0.812   0.046   4.115  0.1253 -0.2580 -1.4047
 1003Sol     HW 7115   0.717   0.155   4.071 -0.1439  0.2515  0.3722
 1003Sol     MW 7116   0.730   0.083   4.122  0.0611  0.0346  0.1605
 1004Sol     OW 7117   0.401   0.206   6.880  0.2578 -0.3958  0.0673
 1004Sol     HW 7118   0.486   0.224   6.839  0.2222 -1.5449 -0.5250
 1004Sol     HW 7119   0.389   0.112   6.869 -0.6157 -0.4034  1.0789
 1004Sol     MW 7120   0.408   0.199   6.875 -0.2251 -0.2280 -0.0525
 1005Sol     OW 7121   0.446   2.544   5.257 -0.1941 -0.6326  0.2053
 1005Sol     HW 7122   0.356   2.524   5.230 -0.8790  0.1395  1.8240
 1005Sol     HW 7123   0.488   2.458   5.267 -1.0481 -1.0286  0.4008
 1005Sol     MW 7124   0.442   2.534   5.255  0.2228 -0.3007  0.1730
 1006Sol     OW 7125   2.786   0.417   1.638  0.4447 -0.2546  0.0160
 1006Sol     HW 7126   2.831   0.424   1.722 -0.6858 -1.0003  0.6933
 1006Sol     HW 7127   2.745   0.331   1.639 -0.5869  0.2050 -0.7890
 1006Sol     MW 7128   2.786   0.410   1.645  0.2994  0.2030  0.0283
 1007Sol     OW 7129   2.801   2.993   1.867  0.1475 -0.5400  0.3938
 1007Sol     HW 7130   2.768   3.033   1.948  1.0313 -0.7639  0.8792
 1007Sol     HW 7131   2.747   3.030   1.798  0.9461  1.5281  0.8344
 1007Sol     MW 7132   2.794   3.000   1.868  0.2316  0.1477  0.3715
 1008Sol     OW 7133   0.658   2.504   9.060  0.6543  0.2708  1.0187
 1008Sol     HW 7134   0.697   2.423   9.026  0.8020 -0.1275  2.0810
 1008Sol     HW 7135   0.731   2.564   9.068  0.7095  0.1918  1.1174
 1008Sol     MW 7136   0.668   2.502   9.058 -0.0808 -0.5027  0.4887
 1009Sol     OW 7137   0.313   3.427   6.145  0.2992  0.7845 -0.0801
 1009Sol     HW 7138   0.237   3.383   6.107 -0.3749  0.1336  1.9845
 1009Sol     HW 7139   0.340   3.372   6.218  3.1425  0.7090 -1.1018
 1009Sol     MW 7140   0.309   3.418   6.148 -0.1336 -0.5786  0.1992
 1010Sol     OW 7141   1.125   0.212   4.264  0.0294  0.2131 -0.4891
 1010Sol     HW 7142   1.100   0.303   4.248 -2.4799 -0.4425 -0.5721
 1010Sol     HW 7143   1.189   0.217   4.335 -1.6678  1.9170  0.9701
 1010Sol     MW 7144   1.128   0.220   4.269  0.0675  0.6232  0.0174
 1011Sol     OW 7145   2.237   0.143   4.938 -0.3519 -0.3512 -0.0864
 1011Sol     HW 7146   2.249   0.056   4.900  0.6216 -0.2382 -0.0440
 1011Sol     HW 7147   2.274   0.203   4.874  0.3195 -0.0809  0.5454
 1011Sol     MW 7148   2.241   0.141   4.929  0.0598 -0.4752 -0.1476
 1012Sol     OW 7149   2.551   2.725   4.865  0.0257  0.1740 -0.3143
 1012Sol     HW 7150   2.618   2.779   4.823  0.5108  0.4403  0.7680
 1012Sol     HW 7151   2.559   2.745   4.958 -0.6226 -0.8439 -0.0235
 1012Sol     MW 7152   2.558   2.731   4.870  0.3439  0.1191 -0.1632
 1013Sol     OW 7153   1.903   1.969   2.149  0.1890  0.2828  0.6067
 1013Sol     HW 7154   1.870   2.045   2.197 -0.0915  0.8455 -0.4587
 1013Sol     HW 7155   1.967   1.929   2.208  0.4068  1.3934  1.1289
 1013Sol     MW 7156   1.906   1.972   2.159 -0.3230 -0.3758  0.4443
 1014Sol     OW 7157   2.195   1.475   3.233  0.0782  0.1302  0.0947
 1014Sol     HW 7158   2.215   1.557   3.276 -1.7705 -0.4148  2.1396
 1014Sol     HW 7159   2.101   1.481   3.214  0.4225 -0.5484 -1.8778
 1014Sol     MW 7160   2.188   1.482   3.236  0.0783  0.2680  0.0258
 1015Sol     OW 7161   0.851   3.217   8.349 -0.2084  0.1171  0.0123
 1015Sol     HW 7162   0.863   3.280   8.278 -2.0258 -0.1857 -0.5972
 1015Sol     HW 7163   0.911   3.246   8.417  0.3206  1.4249 -0.9872
 1015Sol     MW 7164   0.857   3.225   8.348 -0.4359 -0.0490 -0.1603
 1016Sol     OW 7165   2.366   0.293   8.400 -0.2083 -0.0179 -0.4295
 1016Sol     HW 7166   2.353   0.330   8.487  0.4223  1.7463 -1.0672
 1016Sol     HW 7167   2.438   0.230   8.411 -1.4696 -1.2938  0.7131
 1016Sol     MW 7168   2.371   0.290   8.409 -0.3371 -0.4297  0.1316
 1017Sol     OW 7169   2.347   0.713   9.998 -0.4583 -0.5431  0.6835
 1017Sol     HW 7170   2.375   0.800  10.026  1.0269 -0.9904  0.6480
 1017Sol     HW 7171   2.324   0.724   9.906  2.8957 -0.8366 -0.2498
 1017Sol     MW 7172   2.348   0.722   9.992 -0.2649  0.0885  0.2683
 1018Sol     OW 7173   2.247   1.394   6.711  0.1702 -0.1877 -0.4352
 1018Sol     HW 7174   2.327   1.445   6.726  2.2135 -2.9704 -1.5437
 1018Sol     HW 7175   2.214   1.425   6.627 -0.5447  1.7477  0.5437
 1018Sol     MW 7176   2.251   1.401   6.705 -0.2096 -0.0015  0.3185
 1019Sol     OW 7177   1.865   0.230   5.842 -0.3950 -0.0028 -0.0095
 1019Sol     HW 7178   1.844   0.220   5.749 -2.2677 -0.6501  0.4688
 1019Sol     HW 7179   1.949   0.186   5.852 -0.6114 -0.7216 -1.2275
 1019Sol     MW 7180   1.871   0.225   5.834  0.4861 -0.5301 -0.5252
 1020Sol     OW 7181   3.274   2.479   6.291 -0.3917  0.1224 -0.3906
 1020Sol     HW 7182   3.277   2.402   6.235  2.1059 -0.6259  0.7238
 1020Sol     HW 7183   3.245   2.447   6.376 -3.7056  1.1788 -1.0420
 1020Sol     MW 7184   3.272   2.470   6.293 -0.3870  0.6424 -0.1215
 1021Sol     OW 7185   1.663   0.932   9.513  0.2844 -0.1477  0.1639
 1021Sol     HW 7186   1.708   0.848   9.521  1.6757  0.6797  1.0833
 1021Sol     HW 7187   1.576   0.915   9.550 -0.0143 -1.5978 -1.1319
 1021Sol     MW 7188   1.659   0.923   9.517  0.5947  0.3386 -0.8051
 1022Sol     OW 7189   1.873   0.844   1.575  0.4572 -0.3948  0.0530
 1022Sol     HW 7190   1.819   0.923   1.588  0.5295  0.0523 -2.2699
 1022Sol     HW 7191   1.811   0.779   1.542  0.6577 -0.9439  0.7550
 1022Sol     MW 7192   1.862   0.845   1.573  0.3177  0.0846  0.8864
 1023Sol     OW 7193   1.562   1.560   8.055 -0.2401 -0.4064 -0.1299
 1023Sol     HW 7194   1.610   1.486   8.094 -0.0391  0.3668  1.1352
 1023Sol     HW 7195   1.504   1.520   7.991 -1.0843 -1.8077  1.4696
 1023Sol     MW 7196   1.561   1.550   8.053  0.1232  0.1629  0.0523
 1024Sol     OW 7197   1.773   0.711   6.949  0.2777  0.4647 -0.1021
 1024Sol     HW 7198   1.693   0.718   6.897 -0.1554  0.4686  0.5622
 1024Sol     HW 7199   1.786   0.799   6.985  0.8870  0.6058 -0.6522
 1024Sol     MW 7200   1.767   0.719   6.947 -0.4243 -0.2448 -0.5503
 1025Sol     OW 7201   1.190   3.418   5.735 -0.6701 -0.2254  0.0104
 1025Sol     HW 7202   1.124   3.484   5.757 -1.1848 -0.3332 -1.1740
 1025Sol     HW 7203   1.268   3.469   5.712 -1.0144 -0.0347 -0.7324
 1025Sol     MW 7204   1.191   3.429   5.735 -0.2133  0.2564 -0.0834
 1026Sol     OW 7205   0.230   3.054   7.563  0.5072  0.2717 -0.0817
 1026Sol     HW 7206   0.282   2.991   7.612 -1.0609 -1.1639 -0.2008
 1026Sol     HW 7207   0.180   3.101   7.630 -0.8748 -0.9896 -0.2044
 1026Sol     MW 7208   0.230   3.052   7.573 -0.0803  0.3845  0.1074
 1027Sol     OW 7209   0.397   1.568   6.323  0.4488 -0.2169  0.2449
 1027Sol     HW 7210   0.376   1.658   6.301 -0.5887 -0.2393  1.1116
 1027Sol     HW 7211   0.446   1.535   6.247 -2.3120 -0.0310 -1.6622
 1027Sol     MW 7212   0.400   1.573   6.314  0.0200 -0.0117  0.2787
 1028Sol     OW 7213   0.998   2.902   8.541  0.2298  0.3150 -0.6577
 1028Sol     HW 7214   0.985   2.963   8.469  2.1862  0.4714 -0.9052
 1028Sol     HW 7215   1.091   2.909   8.562  0.2335 -1.6915  0.1182
 1028Sol     MW 7216   1.005   2.908   8.537 -0.4640 -0.0975 -0.0183
 1029Sol     OW 7217   0.901   0.687   2.584 -0.1815  0.0675 -0.3024
 1029Sol     HW 7218   0.823   0.736   2.558  0.2080  1.2373  0.6876
 1029Sol     HW 7219   0.892   0.676   2.678  0.4199 -0.5831 -0.3148
 1029Sol     MW 7220   0.894   0.690   2.590  0.3037 -0.2191  0.2133
 1030Sol     OW 7221   2.330   1.244   8.860  0.7854  0.3727 -0.5006
 1030Sol     HW 7222   2.278   1.322   8.881  0.5230  0.4695 -1.4840
 1030Sol     HW 7223   2.397   1.240   8.928  0.5153  1.1990 -0.1877
 1030Sol     MW 7224   2.331   1.250   8.868  0.2796 -0.4752  0.0249
 1031Sol     OW 7225   0.990   0.142   5.781  0.5600  0.0322 -0.6283
 1031Sol     HW 7226   0.925   0.152   5.851  0.6136  1.6920 -0.7893
 1031Sol     HW 7227   0.941   0.104   5.708 -0.4736  2.0526 -1.0321
 1031Sol     MW 7228   0.980   0.140   5.780 -0.1424  0.2363  0.0400
 1032Sol     OW 7229   1.539   0.151   8.481 -0.0578 -0.3096  0.3741
 1032Sol     HW 7230   1.597   0.177   8.409 -0.8977 -0.2335 -0.2831
 1032Sol     HW 7231   1.593   0.096   8.537  0.7666  0.0949 -0.0192
 1032Sol     MW 7232   1.549   0.148   8.480  0.0126 -0.0207 -0.3870
 1033Sol     OW 7233   1.255   0.822   3.295  0.0715  0.7362 -0.2724
 1033Sol     HW 7234   1.335   0.834   3.244  0.7161  1.7613  0.9417
 1033Sol     HW 7235   1.200   0.897   3.273 -0.0784  0.6314 -0.2555
 1033Sol     MW 7236   1.257   0.830   3.289  0.0308 -0.5126  0.6205
 1034Sol     OW 7237   1.315   0.862   7.812  0.2242 -0.3490 -0.2907
 1034Sol     HW 7238   1.219   0.869   7.812  0.0868 -2.0115 -0.5229
 1034Sol     HW 7239   1.346   0.951   7.795 -1.2435  0.5668  1.7215
 1034Sol     MW 7240   1.309   0.871   7.810  0.1052 -0.0472  0.2263
 1035Sol     OW 7241   1.353   2.196   3.844 -0.1679 -0.0250 -0.0255
 1035Sol     HW 7242   1.276   2.226   3.892 -0.3293  0.1604 -0.3969
 1035Sol     HW 7243   1.423   2.198   3.909 -0.8948 -2.1941  0.8765
 1035Sol     MW 7244   1.352   2.199   3.854  0.2603  0.0702 -0.3898
 1036Sol     OW 7245   0.048   3.150   7.733  0.0145 -0.5031 -0.5262
 1036Sol     HW 7246   0.030   3.242   7.754  3.6857  0.3347 -0.6544
 1036Sol     HW 7247   0.034   3.104   7.815  0.8813  0.6325  0.2806
 1036Sol     MW 7248   0.045   3.154   7.742  0.7704  0.2933  0.5726
 1037Sol     OW 7249   3.255   0.223   4.174 -0.7345  0.0667  0.2185
 1037Sol     HW 7250   3.203   0.156   4.129 -1.2379  0.0509  0.8258
 1037Sol     HW 7251   3.268   0.291   4.108  0.2500 -0.8666 -0.5785
 1037Sol     MW 7252   3.252   0.223   4.164  0.4372 -0.8751 -0.5597
 1038Sol     OW 7253   1.120   2.080   6.686 -0.4212  0.6115  0.0943
 1038Sol     HW 7254   1.174   2.090   6.764 -0.6105  1.5337  0.1039
 1038Sol     HW 7255   1.056   2.151   6.691 -0.7742  0.3520 -0.6264
 1038Sol     MW 7256   1.119   2.087   6.693  0.3725  0.0408 -0.1180
 1039Sol     OW 7257   2.263   0.432   8.621  0.5558 -0.2940 -0.2140
 1039Sol     HW 7258   2.325   0.505   8.618 -1.1463  1.2414  1.0666
 1039Sol     HW 7259   2.177   0.472   8.616 -0.5026 -1.9956  2.6156
 1039Sol     MW 7260   2.261   0.442   8.621  0.6191  0.5661 -0.3013
 1040Sol     OW 7261   2.771   0.530   5.715  0.5578 -0.2504 -0.3141
 1040Sol     HW 7262   2.696   0.579   5.681  0.5207 -0.6080 -0.7478
 1040Sol     HW 7263   2.793   0.469   5.646  0.8900 -0.5422  0.0474
 1040Sol     MW 7264   2.766   0.529   5.706  0.4993 -0.3067 -0.3071
 1041Sol     OW 7265   0.163   0.922   9.247  0.0990 -0.1771  0.1526
 1041Sol     HW 7266   0.090   0.937   9.187 -0.4340  0.3959  0.9299
 1041Sol     HW 7267   0.140   0.842   9.294  0.1336 -0.1849  0.1558
 1041Sol     MW 7268   0.154   0.917   9.246  0.2169 -0.4791 -0.4683
 1042Sol     OW 7269   1.517   2.991   8.790 -0.4077  0.1569 -0.6818
 1042Sol     HW 7270   1.539   2.983   8.882  1.2666  0.2669 -1.0650
 1042Sol     HW 7271   1.455   3.064   8.787 -2.4460 -1.4538  0.6384
 1042Sol     MW 7272   1.513   2.997   8.798  0.2237 -0.1886  0.2784
 1043Sol     OW 7273   1.716   3.242   3.999 -0.5232  0.5677 -0.2836
 1043Sol     HW 7274   1.764   3.273   4.076 -0.4147 -0.1820 -0.0524
 1043Sol     HW 7275   1.757   3.288   3.926  1.1095 -0.6766 -0.1815
 1043Sol     MW 7276   1.724   3.249   3.999 -0.2017 -0.1037 -0.4572
 1044Sol     OW 7277   1.107   2.280   5.467  0.4561  0.5051  0.2574
 1044Sol     HW 7278   1.059   2.198   5.461  0.8265  0.3436 -0.4477
 1044Sol     HW 7279   1.167   2.267   5.541 -0.6244  0.7349  1.1875
 1044Sol     MW 7280   1.109   2.271   5.473 -0.1924  0.8673 -0.2955
 1045Sol     OW 7281   2.669   3.353   5.395 -0.0097  0.6467 -0.2460
 1045Sol     HW 7282   2.748   3.305   5.370  0.3700  1.4128 -0.5407
 1045Sol     HW 7283   2.689   3.444   5.375 -0.7707  0.9160  0.1882
 1045Sol     MW 7284   2.678   3.357   5.391 -0.1100 -0.1170  0.0714
 1046Sol     OW 7285   0.772   2.238   8.998  0.1545 -0.0185 -0.2227
 1046Sol     HW 7286   0.826   2.214   9.073  1.2904 -0.5616 -1.2055
 1046Sol     HW 7287   0.705   2.170   8.995 -0.1824  0.2657  0.5692
 1046Sol     MW 7288   0.770   2.230   9.005 -0.3926  0.3709 -0.6332
 1047Sol     OW 7289   2.430   2.816   4.525 -0.0874 -0.7479 -0.0460
 1047Sol     HW 7290   2.343   2.792   4.556 -1.4355  1.6477 -1.8311
 1047Sol     HW 7291   2.416   2.850   4.437  2.9817 -2.4972 -1.3148
 1047Sol     MW 7292   2.421   2.817   4.520  0.2234  0.1087  0.2481
 1048Sol     OW 7293   2.707   1.957   6.084 -0.5241 -0.4769 -0.0695
 1048Sol     HW 7294   2.781   2.017   6.098 -0.6019  0.2211 -2.4445
 1048Sol     HW 7295   2.739   1.894   6.020 -0.5986 -2.7797  2.0583
 1048Sol     MW 7296   2.717   1.957   6.080  0.3507  0.4391 -0.0024
 1049Sol     OW 7297   1.315   1.650   9.631 -0.1320  0.2546 -0.2482
 1049Sol     HW 7298   1.399   1.635   9.675 -1.1829 -2.0191  1.0677
 1049Sol     HW 7299   1.258   1.686   9.700 -0.4622  1.0865 -0.9432
 1049Sol     MW 7300   1.317   1.652   9.641  0.4749  0.5330 -0.2919
 1050Sol     OW 7301   1.151   0.263   9.260  0.5983  0.2752 -0.1361
 1050Sol     HW 7302   1.182   0.297   9.344  2.1778 -1.9571  0.2254
 1050Sol     HW 7303   1.072   0.214   9.281  2.0083 -1.8450  0.3747
 1050Sol     MW 7304   1.147   0.262   9.269  0.4347 -0.4401 -0.0223
 1051Sol     OW 7305   3.124   1.213   3.457 -0.0027  0.1792  0.3921
 1051Sol     HW 7306   3.041   1.205   3.410 -0.3002  0.1228  0.9186
 1051Sol     HW 7307   3.105   1.273   3.529 -0.0330 -1.1461  1.5063
 1051Sol     MW 7308   3.115   1.218   3.459  0.0911 -0.5201  0.2096
 1052Sol     OW 7309   3.243   0.943   9.072  0.4829 -0.3512 -0.2257
 1052Sol     HW 7310   3.211   0.852   9.074 -2.3524  0.5595 -1.8762
 1052Sol     HW 7311   3.252   0.963   8.979  2.2806  0.6845  0.1621
 1052Sol     MW 7312   3.241   0.936   9.064  0.1182 -0.5723  0.7102
 1053Sol     OW 7313   3.123   3.429   8.627  0.5950 -0.1185 -0.0703
 1053Sol     HW 7314   3.205   3.471   8.600 -0.0652 -0.4603 -2.7193
 1053Sol     HW 7315   3.092   3.384   8.548 -1.2446 -1.4722  1.3871
 1053Sol     MW 7316   3.128   3.428   8.617  0.2978  0.4819  0.0418
 1054Sol     OW 7317   0.812   0.820   6.065 -0.2376 -0.0194 -0.4170
 1054Sol     HW 7318   0.748   0.749   6.072 -0.0458 -0.1237  0.3556
 1054Sol     HW 7319   0.891   0.778   6.032  0.2617 -0.4162  1.2394
 1054Sol     MW 7320   0.813   0.810   6.063 -0.2561  0.3721  0.5206
 1055Sol     OW 7321   2.117   2.762   3.915 -0.0625  0.1916 -0.1833
 1055Sol     HW 7322   2.159   2.711   3.985 -0.4818 -0.4445 -0.3875
 1055Sol     HW 7323   2.190   2.805   3.870  0.2644  0.0924  0.2422
 1055Sol     MW 7324   2.128   2.761   3.917 -0.1771  0.0238  0.3903
 1056Sol     OW 7325   1.589   2.952   5.417 -0.4006  0.3477  0.0078
 1056Sol     HW 7326   1.557   2.973   5.505  0.0499  1.7917 -0.1595
 1056Sol     HW 7327   1.669   3.003   5.408  1.4350 -2.4624  0.0257
 1056Sol     MW 7328   1.593   2.958   5.424 -0.2021 -0.3908  0.0386
 1057Sol     OW 7329   2.295   3.353   1.905 -0.3128 -0.0651  0.0338
 1057Sol     HW 7330   2.308   3.259   1.903 -0.8969 -0.1295 -1.2570
 1057Sol     HW 7331   2.379   3.391   1.880 -0.5844 -0.2976 -1.2659
 1057Sol     MW 7332   2.303   3.348   1.902  0.0241 -0.3803  0.0066
 1058Sol     OW 7333   3.073   1.378   4.080  0.5395  0.4470 -0.4688
 1058Sol     HW 7334   3.089   1.446   4.014  0.3029  1.5108  0.5442
 1058Sol     HW 7335   3.074   1.296   4.031  0.8474  1.1796 -1.7161
 1058Sol     MW 7336   3.075   1.377   4.069  0.0001  0.0501 -0.5228
 1059Sol     OW 7337   1.390   2.824   3.193 -0.3572  0.2285 -0.4688
 1059Sol     HW 7338   1.475   2.779   3.193 -0.1795  0.5597 -0.7529
 1059Sol     HW 7339   1.363   2.823   3.285 -0.0779  0.0641 -0.3840
 1059Sol     MW 7340   1.396   2.820   3.201  0.3016 -0.6116  0.1857
 1060Sol     OW 7341   2.431   0.781   2.638  0.0409 -0.0674 -0.0322
 1060Sol     HW 7342   2.412   0.797   2.731  0.3567  0.4080 -0.0481
 1060Sol     HW 7343   2.345   0.778   2.596 -0.1297 -0.9277  0.3830
 1060Sol     MW 7344   2.422   0.782   2.643 -0.7314  0.1768  0.4277
 1061Sol     OW 7345   2.586   3.277   2.834 -0.1552  0.1007 -0.2241
 1061Sol     HW 7346   2.513   3.339   2.843 -0.8300 -0.3037 -2.5545
 1061Sol     HW 7347   2.660   3.320   2.875 -1.0527  1.7097 -0.2690
 1061Sol     MW 7348   2.586   3.286   2.839  0.5010  0.0593  0.0588
 1062Sol     OW 7349   2.101   2.966   5.784  0.3577  0.1288 -0.3792
 1062Sol     HW 7350   2.082   2.927   5.698  0.1270  1.6455 -1.0393
 1062Sol     HW 7351   2.036   2.929   5.843  2.2489 -3.0853 -0.2179
 1062Sol     MW 7352   2.094   2.960   5.781 -0.0019 -0.0450  0.2887
 1063Sol     OW 7353   2.392   2.612   9.529  0.3135  0.0277  0.0444
 1063Sol     HW 7354   2.446   2.690   9.518 -0.2712  0.6260  1.2631
 1063Sol     HW 7355   2.431   2.565   9.603  0.8864 -1.0306 -0.9273
 1063Sol     MW 7356   2.400   2.615   9.535  0.1223  0.7978 -0.4395
 1064Sol     OW 7357   1.839   1.063   5.724 -0.4855  0.2608 -0.2025
 1064Sol     HW 7358   1.779   1.060   5.799 -0.2214  0.1444  0.0054
 1064Sol     HW 7359   1.790   1.108   5.656 -0.7008  0.4361  0.0677
 1064Sol     MW 7360   1.829   1.066   5.725 -0.5075 -0.6576  0.4355
 1065Sol     OW 7361   1.293   3.439   4.980  0.5872 -0.4305  0.4072
 1065Sol     HW 7362   1.345   3.365   4.947 -1.0342 -1.2652 -0.3239
 1065Sol     HW 7363   1.211   3.399   5.009  0.4740  0.8330  1.8796
 1065Sol     MW 7364   1.291   3.429   4.980  0.6452  0.3087  0.3574
 1066Sol     OW 7365   1.886   2.552   9.276 -1.1656  0.4350 -0.6221
 1066Sol     HW 7366   1.919   2.529   9.190  0.5829  0.3464  0.0487
 1066Sol     HW 7367   1.853   2.469   9.312 -0.3727  0.1469 -0.5545
 1066Sol     MW 7368   1.886   2.542   9.272 -0.0257 -0.7447  0.1402
 1067Sol     OW 7369   2.818   0.068   6.386 -0.3851  0.0906 -0.0829
 1067Sol     HW 7370   2.816   0.042   6.478  0.6799 -1.6419 -0.5263
 1067Sol     HW 7371   2.727   0.064   6.357 -0.5563 -0.6795  0.5531
 1067Sol     MW 7372   2.810   0.065   6.391  0.0748  0.2715 -0.4249
 1068Sol     OW 7373   1.055   1.553   6.801  0.3423 -0.3166 -0.2985
 1068Sol     HW 7374   1.046   1.519   6.890  1.0194 -0.2777 -0.2115
 1068Sol     HW 7375   1.070   1.475   6.747  0.1585 -0.3195 -0.3449
 1068Sol     MW 7376   1.056   1.543   6.804 -0.2243 -0.3441 -0.0132
 1069Sol     OW 7377   1.246   2.504   6.723  0.0196  0.0189  0.3412
 1069Sol     HW 7378   1.252   2.579   6.782  0.1501 -0.5549  1.0732
 1069Sol     HW 7379   1.336   2.488   6.695 -0.1371  0.7442 -0.6008
 1069Sol     MW 7380   1.255   2.509   6.726  0.2231  0.1658 -0.0486
 1070Sol     OW 7381   2.609   1.235   6.965 -0.0054 -0.0574 -0.0111
 1070Sol     HW 7382   2.623   1.226   6.871 -1.2029 -0.1852 -0.1752
 1070Sol     HW 7383   2.592   1.329   6.978 -1.9524 -0.3660 -0.2116
 1070Sol     MW 7384   2.609   1.243   6.958  0.6990 -0.1433 -0.1555
 1071Sol     OW 7385   0.865   1.811   5.113  0.0424  0.9008 -0.2646
 1071Sol     HW 7386   0.851   1.720   5.087  1.1050  0.0956  1.8528
 1071Sol     HW 7387   0.848   1.862   5.034 -0.8414 -1.1179 -1.3952
 1071Sol     MW 7388   0.862   1.807   5.104  0.3304 -0.1856 -0.6379
 1072Sol     OW 7389   0.558   1.962   3.366 -0.1619 -0.1918  0.2980
 1072Sol     HW 7390   0.525   2.044   3.328 -0.0900  0.6253  1.9844
 1072Sol     HW 7391   0.614   1.926   3.298 -0.7528  0.8033 -0.7462
 1072Sol     MW 7392   0.560   1.966   3.356  0.1068 -0.6827 -0.4118
 1073Sol     OW 7393   1.005   1.252   7.722 -0.0031  0.0548  0.9621
 1073Sol     HW 7394   1.021   1.344   7.745 -1.1216  0.0914  1.6367
 1073Sol     HW 7395   0.910   1.242   7.729  0.0761 -1.0511  0.5000
 1073Sol     MW 7396   0.998   1.259   7.725 -0.7579 -0.0703  0.2232
 1074Sol     OW 7397   1.964   1.185   6.605  0.0184  0.0606 -0.1950
 1074Sol     HW 7398   1.906   1.243   6.655 -1.2863 -1.9421  0.6862
 1074Sol     HW 7399   2.048   1.190   6.651  0.1860  1.9764 -0.6960
 1074Sol     MW 7400   1.967   1.190   6.614 -0.2122  0.2501  0.2510
 1075Sol     OW 7401   0.285   1.836   5.729 -0.6303 -0.0632  0.1820
 1075Sol     HW 7402   0.255   1.748   5.705 -1.4938  0.2171  0.2256
 1075Sol     HW 7403   0.380   1.828   5.735 -0.6158 -0.7562 -0.7994
 1075Sol     MW 7404   0.291   1.827   5.727  1.3024 -0.0364 -0.1645
 1076Sol     OW 7405   2.313   1.949   3.765  0.1596 -0.0378 -0.4917
 1076Sol     HW 7406   2.305   1.857   3.791  3.6205 -0.7209 -1.5317
 1076Sol     HW 7407   2.328   1.945   3.670  2.2695  1.4592 -0.2458
 1076Sol     MW 7408   2.313   1.940   3.759 -0.1303 -0.0327 -0.8796
 1077Sol     OW 7409   2.996   1.303   5.495  0.5066  0.1179  0.1395
 1077Sol     HW 7410   3.054   1.228   5.486 -0.0358 -0.2962  0.0983
 1077Sol     HW 7411   3.025   1.364   5.427  0.9537 -0.0493  0.1821
 1077Sol     MW 7412   3.003   1.302   5.488  0.6030 -0.3153 -0.1248
 1078Sol     OW 7413   1.977   2.359   4.118 -0.8488 -0.9107  0.1995
 1078Sol     HW 7414   1.960   2.399   4.033  0.6585  0.3239  0.4661
 1078Sol     HW 7415   2.009   2.271   4.098 -1.4674 -0.9940 -0.4560
 1078Sol     MW 7416   1.978   2.355   4.109  0.1961  0.4233  0.8746
 1079Sol     OW 7417   1.703   2.323   8.073  0.5819  0.1338 -0.5164
 1079Sol     HW 7418   1.628   2.318   8.133 -0.3156 -0.8450 -1.7006
 1079Sol     HW 7419   1.748   2.404   8.098  0.4611 -0.4567  1.7353
 1079Sol     MW 7420   1.700   2.330   8.081 -0.0048  0.5322 -0.7945
 1080Sol     OW 7421   2.023   1.756   3.076 -0.3081 -0.0643 -0.0225
 1080Sol     HW 7422   2.015   1.763   2.981 -0.2818  1.3495  0.0763
 1080Sol     HW 7423   2.087   1.823   3.101  1.0022 -1.5572  0.8173
 1080Sol     MW 7424   2.028   1.762   3.070  0.3460 -0.1518  0.4680
 1081Sol     OW 7425   0.810   1.031   3.062 -0.7230  0.5699 -0.1693
 1081Sol     HW 7426   0.749   1.009   3.133  0.1354  1.3537  0.8314
 1081Sol     HW 7427   0.763   1.097   3.010 -1.7546 -0.7431 -0.9235
 1081Sol     MW 7428   0.800   1.035   3.064  0.0802 -0.2577 -0.4420
 1082Sol     OW 7429   0.700   2.186   5.519  0.3114 -0.6680 -0.3617
 1082Sol     HW 7430   0.717   2.280   5.524 -0.5474 -0.4488 -1.4595
 1082Sol     HW 7431   0.644   2.169   5.594 -1.1677  0.0742 -1.2750
 1082Sol     MW 7432   0.696   2.193   5.526 -0.4725  0.6418 -0.2101
 1083Sol     OW 7433   2.484   2.041   8.938  0.1411 -0.0302  0.5839
 1083Sol     HW 7434   2.484   2.110   9.005 -0.1188 -0.5829  1.1541
 1083Sol     HW 7435   2.575   2.037   8.908  0.5312 -0.6567  1.8170
 1083Sol     MW 7436   2.493   2.047   8.942  0.5618 -0.1916  0.2661
 1084Sol     OW 7437   1.206   1.513   9.909  0.0528  0.3967 -0.2347
 1084Sol     HW 7438   1.297   1.538   9.925  0.2058 -0.5773  0.4165
 1084Sol     HW 7439   1.165   1.594   9.880  1.0768  0.8978 -0.3282
 1084Sol     MW 7440   1.211   1.523   9.908  0.2056 -0.4702 -0.3338
 1085Sol     OW 7441   1.863   0.293   6.827  0.0555 -0.0324 -0.0635
 1085Sol     HW 7442   1.805   0.275   6.754 -1.0325 -1.3116  1.0760
 1085Sol     HW 7443   1.945   0.248   6.806 -0.3921 -0.7264 -0.3040
 1085Sol     MW 7444   1.865   0.288   6.819  0.1167  0.1128  0.0835
 1086Sol     OW 7445   0.003   1.255   6.630 -0.2291 -0.5875  0.0629
 1086Sol     HW 7446   0.090   1.295   6.627  0.6253 -2.4148 -0.0966
 1086Sol     HW 7447  -0.057   1.327   6.609  1.2847  0.5373 -0.5103
 1086Sol     MW 7448   0.005   1.265   6.627 -0.2658 -0.0554 -0.1770
 1087Sol     OW 7449   2.445   3.421   8.711 -0.9160  0.4411  0.0494
 1087Sol     HW 7450   2.359   3.380   8.710 -1.1339  0.8028 -3.0838
 1087Sol     HW 7451   2.486   3.394   8.628  1.3838  1.4745  0.7880
 1087Sol     MW 7452   2.441   3.415   8.703  0.1740  0.2833  0.3293
 1088Sol     OW 7453   3.084   1.750   9.575 -0.4341 -0.2459  0.0316
 1088Sol     HW 7454   3.123   1.710   9.497 -1.0213 -0.3895 -0.1909
 1088Sol     HW 7455   3.008   1.695   9.595 -0.2807 -0.2154  0.7116
 1088Sol     MW 7456   3.081   1.741   9.570  0.5008 -1.0726 -0.6397
 1089Sol     OW 7457   0.343   3.344   9.704  0.1662 -0.4110 -0.3373
 1089Sol     HW 7458   0.439   3.341   9.703  0.2051  0.6039 -1.9314
 1089Sol     HW 7459   0.317   3.252   9.710  1.2253 -0.6121  1.5243
 1089Sol     MW 7460   0.349   3.335   9.704 -0.2136  0.1039 -0.3653
 1090Sol     OW 7461   1.654   3.403   8.631 -0.0259  0.3466  0.5267
 1090Sol     HW 7462   1.641   3.333   8.567  2.5963  0.7051 -0.4382
 1090Sol     HW 7463   1.738   3.442   8.608 -0.0378  1.8822  2.8967
 1090Sol     MW 7464   1.660   3.400   8.623  0.4316 -0.1979  0.1894
 1091Sol     OW 7465   2.337   2.464   3.142  0.4309  0.0322 -0.1116
 1091Sol     HW 7466   2.412   2.515   3.171  0.8220 -0.6894  0.1480
 1091Sol     HW 7467   2.265   2.495   3.196  0.3621  1.2442 -0.8535
 1091Sol     MW 7468   2.337   2.472   3.149  0.1049 -0.2109 -0.1062
 1092Sol     OW 7469   3.088   3.088   3.563 -0.5920  0.3777  0.0351
 1092Sol     HW 7470   3.132   3.115   3.644  1.7757 -0.1469 -1.0398
 1092Sol     HW 7471   3.044   3.167   3.531 -0.6831  0.8390  1.2803
 1092Sol     MW 7472   3.088   3.097   3.568 -0.1999  0.8308 -0.3660
 1093Sol     OW 7473   0.971   1.278   5.900  0.9306 -0.2235  0.2464
 1093Sol     HW 7474   0.986   1.365   5.936  0.4398  0.3152 -0.8220
 1093Sol     HW 7475   1.052   1.230   5.916  1.0387  0.2857  1.2391
 1093Sol     MW 7476   0.980   1.282   5.904  0.1824 -0.2502  0.1459
 1094Sol     OW 7477   0.808   1.247   8.545  0.0556  0.3253 -0.2975
 1094Sol     HW 7478   0.745   1.315   8.567 -1.1471 -0.0951 -2.4093
 1094Sol     HW 7479   0.760   1.165   8.556  0.0417  0.0251 -2.5031
 1094Sol     MW 7480   0.798   1.246   8.548  0.3009  0.1095  0.6031
 1095Sol     OW 7481   2.712   0.958   3.470 -0.2529  0.6537 -0.2728
 1095Sol     HW 7482   2.670   0.957   3.556 -2.0493  3.7847 -1.0766
 1095Sol     HW 7483   2.644   0.928   3.410  1.0623 -1.7340 -0.6402
 1095Sol     MW 7484   2.702   0.955   3.472 -0.1991  0.2006 -0.2826
 1096Sol     OW 7485   2.457   0.086   2.160 -0.4924 -0.0368 -0.6840
 1096Sol     HW 7486   2.370   0.126   2.169 -0.7126 -0.8411  0.9678
 1096Sol     HW 7487   2.442  -0.007   2.173  0.4250 -0.3496 -1.8210
 1096Sol     MW 7488   2.448   0.082   2.162 -0.0045 -0.1366  0.3168
 1097Sol     OW 7489   1.559   2.360   2.388  0.3386 -0.0392  0.1547
 1097Sol     HW 7490   1.503   2.283   2.398  1.4081 -0.6711  1.3983
 1097Sol     HW 7491   1.622   2.353   2.459  1.4786  1.1203 -0.7231
 1097Sol     MW 7492   1.560   2.353   2.395 -0.2441  0.3363  0.1153
 1098Sol     OW 7493   0.099   1.387   2.020  0.1825  0.0075  0.2055
 1098Sol     HW 7494   0.181   1.340   2.006  0.9156  0.9414  1.2992
 1098Sol     HW 7495   0.066   1.352   2.103  0.0292  0.4263  0.3212
 1098Sol     MW 7496   0.103   1.379   2.026  0.0185 -0.5137  0.2178
 1099Sol     OW 7497   2.454   2.098   9.634 -0.1845 -0.3942 -0.4233
 1099Sol     HW 7498   2.360   2.082   9.646 -0.1764 -0.4376 -0.4184
 1099Sol     HW 7499   2.458   2.175   9.576 -0.2245 -0.8744 -1.0759
 1099Sol     MW 7500   2.446   2.104   9.630  0.2718 -0.2472 -0.6344
 1100Sol     OW 7501   0.829   3.215   9.885 -0.0552 -0.2664 -0.1518
 1100Sol     HW 7502   0.905   3.273   9.888 -0.4160  0.1878  0.2700
 1100Sol     HW 7503   0.756   3.272   9.861 -0.3979 -0.5571  0.1949
 1100Sol     MW 7504   0.829   3.225   9.883  0.0389 -0.2629 -0.4889
 1101Sol     OW 7505   3.097   0.439   2.356  0.2697 -0.0629 -0.2834
 1101Sol     HW 7506   3.113   0.524   2.315 -0.3011  0.6297  0.9072
 1101Sol     HW 7507   3.031   0.398   2.300 -0.0011  0.5865 -0.4403
 1101Sol     MW 7508   3.092   0.443   2.347 -0.7850 -0.3227  0.1505
 1102Sol     OW 7509   2.704   1.055   6.468 -0.3297  0.1618  0.4466
 1102Sol     HW 7510   2.686   1.140   6.428  2.0287  0.8704  0.7991
 1102Sol     HW 7511   2.711   0.995   6.394  2.3621  1.1547 -0.2045
 1102Sol     MW 7512   2.703   1.057   6.458  0.3539  0.1170  0.0134
 1103Sol     OW 7513   2.417   0.753   4.367  0.6872 -0.8049 -0.0961
 1103Sol     HW 7514   2.487   0.698   4.403  0.8093 -1.3408 -1.1198
 1103Sol     HW 7515   2.457   0.794   4.290 -0.5027 -2.0933 -1.4222
 1103Sol     MW 7516   2.427   0.752   4.363 -0.0725 -0.1469  0.2569
 1104Sol     OW 7517   2.457   0.387   4.454 -0.2763 -0.2822  0.1145
 1104Sol     HW 7518   2.407   0.387   4.372  4.0321 -2.1439 -2.7229
 1104Sol     HW 7519   2.506   0.469   4.452 -1.1681  0.2841  1.4919
 1104Sol     MW 7520   2.457   0.394   4.446  0.3840 -0.1427  0.1483
 1105Sol     OW 7521   2.624   1.271   3.557  0.2275  0.0936  0.1015
 1105Sol     HW 7522   2.633   1.230   3.471  0.0104 -1.0766  0.6246
 1105Sol     HW 7523   2.533   1.255   3.582  0.0790  1.1055  0.2159
 1105Sol     MW 7524   2.617   1.266   3.551 -0.6466 -0.2909  0.5042
 1106Sol     OW 7525   1.747   2.860   7.669 -0.2462  0.0640  0.1051
 1106Sol     HW 7526   1.756   2.765   7.661  2.5974  0.2404  0.5768
 1106Sol     HW 7527   1.802   2.896   7.599 -1.5224  1.3627 -0.2475
 1106Sol     MW 7528   1.753   2.855   7.662 -0.1390  0.1004 -0.2670
 1107Sol     OW 7529   0.102   1.475   2.348  0.3642  0.3650 -0.4296
 1107Sol     HW 7530   0.073   1.545   2.290 -2.1671 -0.7418 -0.5965
 1107Sol     HW 7531   0.020   1.436   2.380  1.7264 -0.9777  1.5086
 1107Sol     MW 7532   0.092   1.478   2.346 -0.5023  0.4297  0.4641
 1108Sol     OW 7533   1.996   0.127   3.012 -0.4748  0.4891 -0.2696
 1108Sol     HW 7534   1.920   0.092   2.966 -1.6041  0.5917  1.4584
 1108Sol     HW 7535   1.960   0.165   3.093  1.5801 -0.8069  1.3034
 1108Sol     MW 7536   1.986   0.127   3.015 -0.2074  0.0966 -0.0507
 1109Sol     OW 7537   0.650   2.594   8.134 -0.0374  0.2545 -0.0310
 1109Sol     HW 7538   0.706   2.520   8.157 -3.2771 -1.3670  3.2030
 1109Sol     HW 7539   0.672   2.661   8.199  0.0382  0.6055 -0.4209
 1109Sol     MW 7540   0.657   2.594   8.142  0.3797  0.0674  0.2403
 1110Sol     OW 7541   2.034   0.557   8.622 -0.4588 -0.8230  0.2888
 1110Sol     HW 7542   1.983   0.628   8.585  0.9172  0.0981  0.1234
 1110Sol     HW 7543   1.980   0.479   8.609 -1.4343 -0.0063 -0.6434
 1110Sol     MW 7544   2.025   0.556   8.618  0.1329  0.1712 -0.3062
 1111Sol     OW 7545   1.587   0.840   8.173 -0.1885 -0.1617  0.1483
 1111Sol     HW 7546   1.532   0.794   8.110  2.2035 -0.2072 -1.9962
 1111Sol     HW 7547   1.631   0.770   8.222 -0.7215 -0.1345  0.6643
 1111Sol     MW 7548   1.586   0.829   8.172 -0.4822  0.3648 -0.0977
 1112Sol     OW 7549   1.701   1.805   4.150  0.0974 -0.5477  0.5693
 1112Sol     HW 7550   1.726   1.746   4.221 -0.7269 -0.1059  1.2302
 1112Sol     HW 7551   1.780   1.857   4.133  0.3432 -0.7631  1.0464
 1112Sol     MW 7552   1.711   1.805   4.154  1.2524  0.4486  0.0917
 1113Sol     OW 7553   0.023   0.596   5.925  0.0250 -0.2325 -0.0714
 1113Sol     HW 7554   0.113   0.565   5.921  0.1924  0.3992 -2.3096
 1113Sol     HW 7555   0.015   0.655   5.849 -2.6122 -1.2577 -0.6494
 1113Sol     MW 7556   0.030   0.599   5.918 -0.0761  0.3161 -0.4025
 1114Sol     OW 7557   2.557   0.345   4.044  0.0717  0.3613 -0.4787
 1114Sol     HW 7558   2.466   0.343   4.073 -0.2229 -1.9305 -1.4365
 1114Sol     HW 7559   2.570   0.433   4.010 -1.9815  0.5032 -0.9338
 1114Sol     MW 7560   2.550   0.353   4.044 -0.1089 -0.4643  0.2556
 1115Sol     OW 7561   2.662   3.214   7.466 -0.3146 -0.4191 -0.4669
 1115Sol     HW 7562   2.660   3.152   7.539 -1.6699  1.4990  1.1899
 1115Sol     HW 7563   2.571   3.224   7.440  0.2527 -1.9703 -3.2718
 1115Sol     MW 7564   2.654   3.209   7.470  0.2485 -0.5532  0.1096
 1116Sol     OW 7565   2.481   1.466   9.119 -0.4679 -0.2698  0.2862
 1116Sol     HW 7566   2.402   1.474   9.065 -1.4039 -1.7329  1.3923
 1116Sol     HW 7567   2.531   1.396   9.078 -0.3159 -0.1504  0.2691
 1116Sol     MW 7568   2.478   1.461   9.110  0.5503 -0.2267  0.2871
 1117Sol     OW 7569   0.433   0.655   8.964  0.1913  0.0173 -0.3455
 1117Sol     HW 7570   0.346   0.670   8.928  0.3771  0.4364 -0.6217
 1117Sol     HW 7571   0.470   0.585   8.910 -0.0601 -0.3184 -0.0838
 1117Sol     MW 7572   0.429   0.650   8.956 -0.2195 -0.3100  0.2445
 1118Sol     OW 7573   2.547   0.932   9.267  0.4676  0.2071  0.0860
 1118Sol     HW 7574   2.530   0.838   9.269  0.2632  0.2013 -1.4638
 1118Sol     HW 7575   2.599   0.946   9.188  0.8108  1.3481  0.5000
 1118Sol     MW 7576   2.550   0.925   9.260  0.0942  0.3704 -0.3029
 1119Sol     OW 7577   0.418   2.854   4.060 -0.1008  0.0723 -0.2089
 1119Sol     HW 7578   0.360   2.852   3.983 -0.0657  2.3895 -0.3137
 1119Sol     HW 7579   0.505   2.840   4.024 -0.2116 -0.0277 -0.4441
 1119Sol     MW 7580   0.420   2.853   4.050 -0.3333  0.1908 -0.0885
 1120Sol     OW 7581   1.967   1.253   7.786 -0.0499  0.1131  0.6151
 1120Sol     HW 7582   2.010   1.173   7.817  1.4278  0.0883 -1.3933
 1120Sol     HW 7583   2.038   1.312   7.763 -1.1336  1.6613  1.1365
 1120Sol     MW 7584   1.977   1.251   7.787 -0.2122 -0.1743  0.5826
 1121Sol     OW 7585   3.096   2.026   9.542 -0.0296 -0.1792  0.0273
 1121Sol     HW 7586   3.181   2.070   9.541 -0.7305  1.1850  0.6586
 1121Sol     HW 7587   3.118   1.934   9.559  1.3785  0.0273 -0.5927
 1121Sol     MW 7588   3.106   2.021   9.544 -0.1041  0.0557  0.1862
 1122Sol     OW 7589   0.020   0.778   2.409 -0.2952 -0.4165 -0.4386
 1122Sol     HW 7590  -0.051   0.747   2.353  0.0379 -0.8202 -0.6367
 1122Sol     HW 7591   0.094   0.720   2.389  0.0203 -0.1456 -0.0643
 1122Sol     MW 7592   0.020   0.770   2.402 -0.1681  0.5487  0.3536
 1123Sol     OW 7593   0.503   3.137   3.961 -0.3959  0.3562  0.4580
 1123Sol     HW 7594   0.433   3.146   3.896 -0.3108  1.2713  0.4930
 1123Sol     HW 7595   0.499   3.045   3.987 -1.3279  0.3049  0.1657
 1123Sol     MW 7596   0.496   3.129   3.957  0.3440  0.5622 -0.5192
 1124Sol     OW 7597   0.624   2.873   3.391  0.0639  0.7963  0.0437
 1124Sol     HW 7598   0.529   2.879   3.402  0.1679  2.1028  0.3958
 1124Sol     HW 7599   0.638   2.869   3.296 -0.3057  1.5867 -0.0472
 1124Sol     MW 7600   0.617   2.874   3.383 -0.3076 -0.2139  0.2679
 1125Sol     OW 7601   1.201   0.437   7.889 -0.2231 -0.2167  0.0667
 1125Sol     HW 7602   1.137   0.482   7.943 -2.5221 -0.2191 -2.5355
 1125Sol     HW 7603   1.255   0.388   7.951 -0.0942  3.0349  2.6238
 1125Sol     MW 7604   1.200   0.436   7.900  0.2488  0.1557  0.1940
 1126Sol     OW 7605   0.330   1.916   6.629 -0.2438 -0.2077  0.6000
 1126Sol     HW 7606   0.404   1.887   6.577  0.5666 -1.0663  2.1906
 1126Sol     HW 7607   0.253   1.880   6.585  0.3020  0.3624 -0.8329
 1126Sol     MW 7608   0.329   1.910   6.620  0.2037  0.0429 -0.2734
 1127Sol     OW 7609   1.092   2.535   2.210 -0.1678  0.1507  0.1963
 1127Sol     HW 7610   1.036   2.597   2.162  1.5231  0.2272 -1.7659
 1127Sol     HW 7611   1.179   2.550   2.175  0.8507 -1.0021  2.1498
 1127Sol     MW 7612   1.094   2.542   2.202  0.4934 -0.6987  0.1765
 1128Sol     OW 7613   2.165   1.748   7.796 -0.0719  0.0440  0.1911
 1128Sol     HW 7614   2.077   1.730   7.827  0.1340  0.2291  0.8966
 1128Sol     HW 7615   2.182   1.838   7.826  1.1983 -0.7807  2.0307
 1128Sol     MW 7616   2.159   1.755   7.802 -0.2031 -0.1406 -0.3357
 1129Sol     OW 7617   0.756   2.416   2.428  0.5156 -0.5093  0.4429
 1129Sol     HW 7618   0.697   2.405   2.502 -1.3373  0.4375 -0.8750
 1129Sol     HW 7619   0.716   2.366   2.357 -0.4171  2.6496 -1.3698
 1129Sol     MW 7620   0.747   2.410   2.428 -0.0335 -0.0975  0.3869
 1130Sol     OW 7621   1.776   1.836   8.377  0.0662 -0.3836 -0.3518
 1130Sol     HW 7622   1.708   1.788   8.330  1.0253 -0.5276 -1.6107
 1130Sol     HW 7623   1.793   1.782   8.454 -2.6953  0.7086  1.0911
 1130Sol     MW 7624   1.771   1.827   8.380 -0.3303  0.2963  0.3102
 1131Sol     OW 7625   2.495   2.013   3.993 -0.4632  0.5519 -0.0645
 1131Sol     HW 7626   2.448   2.087   4.032 -0.1164  0.9236 -0.3509
 1131Sol     HW 7627   2.440   1.986   3.919  0.3292  1.7101 -1.0948
 1131Sol     MW 7628   2.486   2.017   3.990  0.2205  0.2231  0.1266
 1132Sol     OW 7629   0.183   2.116   7.440 -0.0096 -0.0544 -0.1452
 1132Sol     HW 7630   0.163   2.195   7.491 -0.4180  0.0312 -0.4315
 1132Sol     HW 7631   0.270   2.132   7.404 -0.7375  0.9433 -1.4934
 1132Sol     MW 7632   0.189   2.124   7.442  0.3008 -0.0844 -0.1858
 1133Sol     OW 7633   1.084   0.825   7.626 -0.0006  0.3556 -0.1134
 1133Sol     HW 7634   1.152   0.758   7.628  1.7025  2.0611  0.3964
 1133Sol     HW 7635   1.021   0.793   7.561  2.1138 -0.4785 -1.8426
 1133Sol     MW 7636   1.084   0.816   7.620 -0.5891 -0.1945 -0.2735
 1134Sol     OW 7637   3.171   2.273   5.607  0.3604 -0.3391 -0.1633
 1134Sol     HW 7638   3.097   2.333   5.615  0.4604 -0.1990 -0.2782
 1134Sol     HW 7639   3.147   2.198   5.660  0.4379  0.0024  0.3572
 1134Sol     MW 7640   3.162   2.272   5.612 -0.1838  0.9355 -0.5895
 1135Sol     OW 7641   2.716   0.086   8.989 -0.5804 -0.7029 -0.1667
 1135Sol     HW 7642   2.759   0.050   8.912 -0.6509 -0.3875 -0.3567
 1135Sol     HW 7643   2.751   0.036   9.063  3.0875  2.0659  0.1458
 1135Sol     MW 7644   2.723   0.078   8.989 -0.1006  0.4959  0.3166
 1136Sol     OW 7645   1.284   2.625   8.627  0.2857  0.3034 -0.3198
 1136Sol     HW 7646   1.322   2.635   8.540 -0.5404  2.7871 -0.4215
 1136Sol     HW 7647   1.359   2.623   8.687  0.8652 -1.5946 -1.0637
 1136Sol     MW 7648   1.294   2.625   8.625 -1.1494 -0.0809  0.0875
 1137Sol     OW 7649   3.057   2.303   2.214  0.4657 -0.0071 -0.0844
 1137Sol     HW 7650   3.099   2.253   2.285  1.7464  0.5343 -0.4546
 1137Sol     HW 7651   3.025   2.236   2.154  0.4913 -0.4335  0.3650
 1137Sol     MW 7652   3.058   2.292   2.215 -1.1410  0.2566 -0.2126
 1138Sol     OW 7653   2.243   0.941   5.642 -0.1550  0.6197  0.4439
 1138Sol     HW 7654   2.234   0.922   5.735 -0.8703 -1.5448 -0.0371
 1138Sol     HW 7655   2.251   0.855   5.601  1.9359  1.6095 -1.3199
 1138Sol     MW 7656   2.243   0.931   5.647 -0.1531  0.3410 -0.1436
 1139Sol     OW 7657   0.250   1.049   1.987 -0.2591  0.2109 -0.1345
 1139Sol     HW 7658   0.311   1.082   2.053  0.2684  2.5752 -1.7627
 1139Sol     HW 7659   0.283   1.084   1.904 -1.9897 -1.1683 -1.4520
 1139Sol     MW 7660   0.259   1.055   1.986 -0.3061  0.6292  0.0510
 1140Sol     OW 7661   2.289   1.013   7.025  0.6444 -0.4032 -0.5241
 1140Sol     HW 7662   2.299   0.969   7.110  1.6494 -0.1835 -0.5311
 1140Sol     HW 7663   2.225   0.959   6.978  2.2347 -2.1769 -0.7216
 1140Sol     MW 7664   2.284   1.004   7.028 -0.2772 -0.0403 -0.6768
 1141Sol     OW 7665   2.193   1.581   9.959 -0.2044 -0.6542 -0.1863
 1141Sol     HW 7666   2.272   1.530   9.944 -0.3438 -0.4185 -1.7754
 1141Sol     HW 7667   2.121   1.523   9.933 -0.5398 -0.7615  0.9640
 1141Sol     MW 7668   2.194   1.571   9.955 -0.2679  0.3017  0.6364
 1142Sol     OW 7669   2.925   2.226   6.768 -0.0360 -0.4091 -0.4749
 1142Sol     HW 7670   2.977   2.169   6.826  0.1653  0.5827  0.3339
 1142Sol     HW 7671   2.968   2.312   6.775 -1.9954  0.5237  0.5026
 1142Sol     MW 7672   2.934   2.229   6.774  0.1942  0.1136 -0.1102
 1143Sol     OW 7673   2.770   0.898   2.365 -0.2797 -0.0788 -0.1482
 1143Sol     HW 7674   2.749   0.971   2.424  0.6111 -0.0646  0.1531
 1143Sol     HW 7675   2.794   0.826   2.424 -0.1730 -0.3101 -0.4719
 1143Sol     MW 7676   2.770   0.898   2.376 -0.1030 -0.0597  0.1918
 1144Sol     OW 7677   2.990   0.028   6.815  0.1657 -0.3052 -0.3681
 1144Sol     HW 7678   2.910  -0.011   6.849  0.0267 -0.4077 -0.8099
 1144Sol     HW 7679   3.059  -0.033   6.842  0.2726  0.4994  1.2214
 1144Sol     MW 7680   2.989   0.019   6.820 -0.5403 -0.2316  0.5213
 1145Sol     OW 7681   2.424   2.165   5.667 -0.0600 -0.0415  0.1041
 1145Sol     HW 7682   2.461   2.080   5.645 -0.9154 -0.7068  1.1884
 1145Sol     HW 7683   2.444   2.177   5.760  1.2692  1.5698 -0.3704
 1145Sol     MW 7684   2.429   2.159   5.674 -0.1170 -0.2411 -0.0745
 1146Sol     OW 7685   0.075   1.250   5.353  0.0889 -0.0948  0.3820
 1146Sol     HW 7686   0.015   1.277   5.283  0.9066  0.1346 -0.2358
 1146Sol     HW 7687   0.153   1.220   5.308  1.0193  1.0193  1.2315
 1146Sol     MW 7688   0.076   1.250   5.343  0.6493 -0.0853  0.4076
 1147Sol     OW 7689   1.319   0.884   5.066  0.2919 -0.3485 -0.0521
 1147Sol     HW 7690   1.315   0.976   5.040 -1.7016 -0.5718 -0.6016
 1147Sol     HW 7691   1.308   0.836   4.984 -0.2884 -1.0741  0.4530
 1147Sol     MW 7692   1.318   0.888   5.056  0.4556  0.2845 -0.6352
 1148Sol     OW 7693   3.260   0.145   5.246  0.0301  0.6202  0.2778
 1148Sol     HW 7694   3.328   0.098   5.197 -0.2810  1.5185 -1.0320
 1148Sol     HW 7695   3.294   0.149   5.335  0.2173 -1.7909  0.3379
 1148Sol     MW 7696   3.269   0.141   5.249 -0.3680 -0.2012 -0.5221
 1149Sol     OW 7697   2.202   0.187   2.171  0.3081 -0.7728 -0.1837
 1149Sol     HW 7698   2.150   0.221   2.098  1.0334 -1.6134 -1.1097
 1149Sol     HW 7699   2.144   0.123   2.213 -0.0382 -0.4424 -0.1585
 1149Sol     MW 7700   2.192   0.184   2.168  0.8327 -0.0585 -0.6788
 1150Sol     OW 7701   2.448   1.963   9.276  0.2117  0.1258  0.2140
 1150Sol     HW 7702   2.459   1.962   9.181 -0.6114 -0.6807  0.1231
 1150Sol     HW 7703   2.533   1.992   9.310  0.4162  0.7148 -0.7753
 1150Sol     MW 7704   2.456   1.966   9.271  0.8364 -0.5478 -0.6930
 1151Sol     OW 7705   1.339   2.613   3.028  0.8351  0.2271  0.1840
 1151Sol     HW 7706   1.372   2.544   3.087 -2.2202 -1.0835  0.4655
 1151Sol     HW 7707   1.330   2.690   3.083 -0.5303 -0.5792  1.1411
 1151Sol     MW 7708   1.341   2.613   3.038  0.6367 -0.4004  0.0160
 1152Sol     OW 7709   0.641   0.836   5.684 -0.1457 -0.4141 -0.4697
 1152Sol     HW 7710   0.656   0.911   5.626 -1.1989 -0.5787 -0.9752
 1152Sol     HW 7711   0.725   0.792   5.689  0.4632  0.7626 -0.2352
 1152Sol     MW 7712   0.650   0.839   5.679  0.1328 -0.6594  0.3538
 1153Sol     OW 7713   1.773   0.729   6.138 -0.9193 -0.5502  0.3781
 1153Sol     HW 7714   1.803   0.687   6.218  0.3497 -0.1086  0.1572
 1153Sol     HW 7715   1.684   0.757   6.156 -0.2637  0.5450  2.0273
 1153Sol     MW 7716   1.768   0.728   6.147  0.4143 -0.3767 -0.2325
 1154Sol     OW 7717   0.807   1.115   1.932  0.1046  0.1162  0.7318
 1154Sol     HW 7718   0.865   1.070   1.993  2.6090  0.7242 -1.1039
 1154Sol     HW 7719   0.794   1.053   1.860  0.7133  1.0120 -0.1592
 1154Sol     MW 7720   0.811   1.105   1.931 -0.1412 -0.0227  0.2689
 1155Sol     OW 7721   2.292   2.923   5.493 -0.3048 -0.3587 -0.3958
 1155Sol     HW 7722   2.287   2.982   5.417 -0.5249  0.5436  0.3119
 1155Sol     HW 7723   2.201   2.912   5.521 -0.0684  1.0006  1.0021
 1155Sol     MW 7724   2.284   2.928   5.489  0.7050  0.5991  0.3876
 1156Sol     OW 7725   1.375   1.001   2.829  0.1499  0.4138  0.1652
 1156Sol     HW 7726   1.433   1.065   2.788  1.3305 -0.7616 -0.0352
 1156Sol     HW 7727   1.356   0.937   2.761 -0.9689  0.4901  0.3844
 1156Sol     MW 7728   1.378   1.001   2.819 -0.3204  0.6541  0.1773
 1157Sol     OW 7729   1.364   2.339   3.390 -0.1009  0.0755 -0.1239
 1157Sol     HW 7730   1.414   2.369   3.314  1.0748  0.1500  0.6565
 1157Sol     HW 7731   1.339   2.250   3.368 -0.6317  0.4255 -1.0051
 1157Sol     MW 7732   1.366   2.334   3.381 -0.0155 -0.5550 -0.8257
 1158Sol     OW 7733   0.559   3.442   8.796  1.0562  0.2003  0.0706
 1158Sol     HW 7734   0.577   3.525   8.752  0.0185  0.3431 -0.1058
 1158Sol     HW 7735   0.553   3.465   8.889 -1.5754  0.7700 -0.1863
 1158Sol     MW 7736   0.560   3.452   8.800  0.0860 -0.1275  0.4116
 1159Sol     OW 7737   0.461   1.341   5.435  0.9772 -0.7298 -0.5666
 1159Sol     HW 7738   0.430   1.319   5.523  0.6035  0.0285 -0.5113
 1159Sol     HW 7739   0.391   1.393   5.397  1.5138 -0.3268 -1.0072
 1159Sol     MW 7740   0.452   1.343   5.440  0.1771 -0.3798  0.6095
 1160Sol     OW 7741   2.599   2.893   6.359 -0.3999  0.2991  0.1472
 1160Sol     HW 7742   2.543   2.827   6.320  0.0786  0.0521 -0.1255
 1160Sol     HW 7743   2.686   2.877   6.321 -0.4758  1.6639 -0.6507
 1160Sol     MW 7744   2.602   2.886   6.352  0.4746 -0.3400 -0.7498
 1161Sol     OW 7745   2.538   1.173   5.319 -0.2828 -0.4011  0.1023
 1161Sol     HW 7746   2.623   1.216   5.324 -0.3163 -0.1681 -1.0454
 1161Sol     HW 7747   2.493   1.196   5.400  0.3164  0.4070  0.2064
 1161Sol     MW 7748   2.542   1.179   5.326 -0.2804 -0.4690  0.3224
 1162Sol     OW 7749   2.914   2.558   8.213  0.2820  0.2233  0.1170
 1162Sol     HW 7750   2.971   2.485   8.187  2.6864  1.7641  0.8832
 1162Sol     HW 7751   2.876   2.530   8.296  0.6971 -0.4179  0.0943
 1162Sol     MW 7752   2.916   2.549   8.218  0.0564  0.5537 -0.4519
 1163Sol     OW 7753   0.039   1.725   2.249 -0.4072  0.4737  0.1751
 1163Sol     HW 7754   0.092   1.766   2.317  1.4119 -0.8444 -0.4005
 1163Sol     HW 7755   0.095   1.725   2.171 -1.5790 -0.1516 -0.6871
 1163Sol     MW 7756   0.048   1.728   2.248  0.5596 -0.0509 -0.2932
 1164Sol     OW 7757   2.734   1.728   6.440  0.5746  0.0859  0.0642
 1164Sol     HW 7758   2.824   1.723   6.471  0.5602  0.4310  0.1537
 1164Sol     HW 7759   2.717   1.821   6.428 -0.1976  0.1189  1.2937
 1164Sol     MW 7760   2.740   1.736   6.442  0.3637 -0.1377  0.0843
 1165Sol     OW 7761   0.056   3.259   9.975  0.1989 -0.1848 -0.2489
 1165Sol     HW 7762   0.078   3.335  10.028 -1.3278 -0.6265  1.0661
 1165Sol     HW 7763  -0.039   3.261   9.967 -0.0181 -2.7832  1.1125
 1165Sol     MW 7764   0.050   3.266   9.979 -0.4852  0.8011  0.4643
 1166Sol     OW 7765   0.515   3.380   2.920  0.2442  0.3036  0.2936
 1166Sol     HW 7766   0.521   3.340   3.007  0.5841 -1.3863 -0.5005
 1166Sol     HW 7767   0.457   3.322   2.871  0.8801  0.6802 -0.9212
 1166Sol     MW 7768   0.510   3.371   2.924  0.7379  0.1938  0.0285
 1167Sol     OW 7769   3.050   3.051   8.915  0.6221 -0.1983 -0.0831
 1167Sol     HW 7770   3.089   3.100   8.843 -0.0992  0.4469 -0.0415
 1167Sol     HW 7771   3.010   2.974   8.874 -0.2047  0.4144 -0.4271
 1167Sol     MW 7772   3.050   3.048   8.905  0.0331 -0.5283 -0.3864
 1168Sol     OW 7773   1.751   1.115   2.119 -0.8301 -0.6034 -0.0208
 1168Sol     HW 7774   1.752   1.156   2.206 -1.2808 -2.6875  1.0002
 1168Sol     HW 7775   1.667   1.141   2.081 -1.3806 -1.0590  0.8666
 1168Sol     MW 7776   1.744   1.121   2.124 -0.5651 -0.0577  0.3335
 1169Sol     OW 7777   2.525   2.421   4.668  0.2157  0.6633 -0.2734
 1169Sol     HW 7778   2.615   2.388   4.666  0.3201  0.9525 -0.5048
 1169Sol     HW 7779   2.532   2.510   4.631 -0.3238  0.2821 -1.3144
 1169Sol     MW 7780   2.534   2.426   4.664 -0.0130  0.6952  0.5245
 1170Sol     OW 7781   1.337   1.217   3.297  0.1166  0.1229 -0.9258
 1170Sol     HW 7782   1.253   1.238   3.337  0.2409 -0.2769 -0.4558
 1170Sol     HW 7783   1.315   1.168   3.218 -0.0681 -0.5296 -0.4711
 1170Sol     MW 7784   1.328   1.215   3.294  0.5239 -0.2415  0.2492
 1171Sol     OW 7785   2.632   3.386   5.957  0.1940  0.3979  0.1396
 1171Sol     HW 7786   2.558   3.446   5.958 -1.7708 -1.9644  0.7144
 1171Sol     HW 7787   2.639   3.354   6.047 -0.1684 -1.8321 -0.5876
 1171Sol     MW 7788   2.626   3.389   5.965 -0.3398  0.2720 -0.4425
 1172Sol     OW 7789   0.888   0.214   2.770 -0.0134  0.2472 -0.1554
 1172Sol     HW 7790   0.878   0.248   2.681  0.5046 -1.4947 -0.8952
 1172Sol     HW 7791   0.848   0.128   2.767 -1.6656  0.9354  1.8084
 1172Sol     MW 7792   0.884   0.209   2.761 -0.0459 -0.5981  0.0942
 1173Sol     OW 7793   2.951   0.324   5.614  0.4278  0.1497 -0.2612
 1173Sol     HW 7794   2.957   0.229   5.619  2.0691  0.2342 -0.2867
 1173Sol     HW 7795   2.957   0.354   5.704  2.0856  0.3161 -0.4064
 1173Sol     MW 7796   2.952   0.318   5.622  0.1823 -0.0994  0.1530
 1174Sol     OW 7797   1.242   2.452   2.804  0.5286 -0.5056 -0.0971
 1174Sol     HW 7798   1.292   2.471   2.884 -1.0460  0.7629  0.6074
 1174Sol     HW 7799   1.238   2.536   2.758 -4.1593  0.4297  1.7078
 1174Sol     MW 7800   1.246   2.461   2.807  0.3097  0.6555 -0.1167
 1175Sol     OW 7801   2.892   3.436   2.340 -0.0277  0.6139  0.4126
 1175Sol     HW 7802   2.828   3.505   2.323 -0.3141  0.8651  2.4410
 1175Sol     HW 7803   2.953   3.442   2.266 -1.5817  1.2298 -0.8502
 1175Sol     MW 7804   2.892   3.443   2.331 -0.5197 -0.0007 -0.0909
 1176Sol     OW 7805   2.111   3.037   8.892 -0.3347 -0.6570  0.3153
 1176Sol     HW 7806   2.196   3.065   8.927 -0.2611 -1.1805  0.5640
 1176Sol     HW 7807   2.133   2.978   8.820 -0.4890 -0.4712  0.1153
 1176Sol     MW 7808   2.121   3.034   8.889 -0.5208  0.6105 -0.6871
 1177Sol     OW 7809   1.859   1.223   3.454 -1.2718  0.4071  0.2699
 1177Sol     HW 7810   1.927   1.194   3.514  0.2762  1.2963 -1.0066
 1177Sol     HW 7811   1.841   1.147   3.399 -2.2569 -0.2231  1.4600
 1177Sol     MW 7812   1.863   1.214   3.454 -0.0416  0.6856 -0.1173
 1178Sol     OW 7813   2.195   3.445   7.023 -0.5906 -0.3970 -0.4056
 1178Sol     HW 7814   2.246   3.368   6.996 -0.0008 -0.0450 -0.3034
 1178Sol     HW 7815   2.238   3.519   6.979  0.3066  0.1689  1.3850
 1178Sol     MW 7816   2.203   3.445   7.016 -0.2381 -0.1007 -0.0433
 1179Sol     OW 7817   2.816   0.818   8.232  0.9433  0.4556  0.5682
 1179Sol     HW 7818   2.866   0.891   8.269  1.4491  0.2113  0.3702
 1179Sol     HW 7819   2.880   0.747   8.224  0.6530  0.2598 -0.0398
 1179Sol     MW 7820   2.826   0.819   8.235  0.2487  0.1160  0.1511
 1180Sol     OW 7821   2.336   1.922   8.142 -0.5185 -0.2289  0.0104
 1180Sol     HW 7822   2.257   1.965   8.110 -1.1612 -1.4675 -0.1127
 1180Sol     HW 7823   2.408   1.977   8.111 -1.3860  1.6369  1.2803
 1180Sol     MW 7824   2.336   1.931   8.136 -0.5932  0.0671  0.3860
 1181Sol     OW 7825   0.768   1.455   8.207 -0.3800 -0.5184 -0.0314
 1181Sol     HW 7826   0.771   1.485   8.116  0.0547  1.7149  0.6783
 1181Sol     HW 7827   0.695   1.393   8.210 -0.3705 -0.6513 -1.8973
 1181Sol     MW 7828   0.762   1.452   8.200  0.3711 -0.1336  0.4223
 1182Sol     OW 7829   2.472   0.879   7.862  0.3167  0.2162 -0.3614
 1182Sol     HW 7830   2.545   0.837   7.907  0.3867 -0.3245 -0.9849
 1182Sol     HW 7831   2.420   0.918   7.932  0.7177 -0.1660  0.1498
 1182Sol     MW 7832   2.474   0.879   7.872 -0.5455 -0.4176 -0.3538
 1183Sol     OW 7833   2.305   2.697   7.432  0.3191 -0.4410  0.1106
 1183Sol     HW 7834   2.334   2.726   7.518  1.2519 -0.1903 -0.2802
 1183Sol     HW 7835   2.351   2.615   7.417 -1.0158 -1.2665  0.4924
 1183Sol     MW 7836   2.312   2.693   7.438  0.1548  0.0343  0.4577
 1184Sol     OW 7837   2.127   2.363   6.063 -0.1961 -0.1022  0.2580
 1184Sol     HW 7838   2.076   2.292   6.025  0.7199 -1.4805  1.5258
 1184Sol     HW 7839   2.152   2.330   6.150  2.2156  0.8151 -0.0579
 1184Sol     MW 7840   2.125   2.353   6.068 -0.0504  0.7112  0.3157
 1185Sol     OW 7841   2.763   0.155   5.416  0.0812  0.2542 -0.1689
 1185Sol     HW 7842   2.704   0.204   5.360  1.0510  0.6642 -0.8488
 1185Sol     HW 7843   2.833   0.126   5.357 -0.2852 -1.6263  0.2915
 1185Sol     MW 7844   2.764   0.156   5.406  0.2125  0.2879  0.7413
 1186Sol     OW 7845   2.578   3.323   3.354  0.6225 -0.3185 -0.2297
 1186Sol     HW 7846   2.491   3.296   3.325  0.8496 -0.9103 -0.3634
 1186Sol     HW 7847   2.636   3.302   3.281  1.2207 -1.9606  0.6926
 1186Sol     MW 7848   2.575   3.319   3.345  0.6484  0.4027  0.4032
 1187Sol     OW 7849   0.193   2.482   8.633  0.2999 -0.5784 -0.4539
 1187Sol     HW 7850   0.211   2.542   8.706  0.0666 -1.2748  0.1873
 1187Sol     HW 7851   0.098   2.487   8.621  0.3923 -0.1511 -0.9811
 1187Sol     MW 7852   0.186   2.488   8.639  0.0434 -1.0136 -0.0580
 1188Sol     OW 7853   2.899   1.629   9.005 -0.4499 -0.9305 -0.1800
 1188Sol     HW 7854   2.976   1.619   8.949  0.2614 -0.4193  0.6929
 1188Sol     HW 7855   2.825   1.637   8.943  0.3547 -0.0683 -1.0512
 1188Sol     MW 7856   2.899   1.629   8.994  0.5416  0.6483  0.4149
 1189Sol     OW 7857   1.081   3.310   1.875  0.6581  0.1940 -0.8859
 1189Sol     HW 7858   1.041   3.284   1.958  0.5867  1.4075 -0.5374
 1189Sol     HW 7859   1.008   3.341   1.821  0.7528 -0.2510 -1.2768
 1189Sol     MW 7860   1.071   3.310   1.877 -0.5085 -0.4874  0.1751
 1190Sol     OW 7861   1.817   2.113   7.945  0.3385 -0.5223 -0.0219
 1190Sol     HW 7862   1.773   2.188   7.986  2.0702 -0.4896  1.8274
 1190Sol     HW 7863   1.751   2.044   7.945 -0.2669  0.0482  1.1477
 1190Sol     MW 7864   1.807   2.114   7.948  0.1179 -0.4253 -0.1332
 1191Sol     OW 7865   0.608   2.247   2.855  0.2160 -0.1510 -0.4887
 1191Sol     HW 7866   0.548   2.249   2.929  0.7866 -0.6021 -0.0160
 1191Sol     HW 7867   0.687   2.292   2.886  0.3638 -0.1140 -0.9053
 1191Sol     MW 7868   0.610   2.251   2.864 -0.1678  0.2281  0.2900
 1192Sol     OW 7869   2.248   2.422   6.430  0.2851 -0.1924  0.4876
 1192Sol     HW 7870   2.223   2.385   6.515  1.3836 -0.1369  0.8413
 1192Sol     HW 7871   2.280   2.347   6.379  2.2475  0.1844  1.1090
 1192Sol     MW 7872   2.249   2.412   6.433  0.0912  0.1524  0.0132
 1193Sol     OW 7873   1.695   1.026   3.045  0.2196 -0.2560 -0.5429
 1193Sol     HW 7874   1.662   1.115   3.057 -0.8781 -0.5741 -1.0355
 1193Sol     HW 7875   1.768   1.018   3.106 -0.3200  0.6467  0.2368
 1193Sol     MW 7876   1.698   1.033   3.051 -0.1305 -0.2359 -0.3435
 1194Sol     OW 7877   0.825   3.208   9.108 -0.4454 -0.4486  0.5630
 1194Sol     HW 7878   0.785   3.267   9.172 -0.5115  0.7070 -0.5168
 1194Sol     HW 7879   0.768   3.213   9.031  1.8884  1.5085 -1.1322
 1194Sol     MW 7880   0.817   3.214   9.107 -0.1083  0.2597  0.1099
 1195Sol     OW 7881   0.913   2.640   8.487  0.1680  0.2425  0.2007
 1195Sol     HW 7882   0.949   2.728   8.500  2.0565 -0.7639  2.2185
 1195Sol     HW 7883   0.868   2.621   8.570  0.1870 -0.8672 -0.0484
 1195Sol     MW 7884   0.912   2.646   8.496 -0.2604 -0.2056  0.1400
 1196Sol     OW 7885   1.856   0.391   8.952 -0.1926 -0.2659  0.4535
 1196Sol     HW 7886   1.779   0.412   8.901  0.9279  1.0077 -0.7539
 1196Sol     HW 7887   1.830   0.315   9.005 -1.7198 -0.9058 -1.1608
 1196Sol     MW 7888   1.847   0.386   8.953 -0.0883 -0.1302  0.1365
 1197Sol     OW 7889   1.127   0.557   7.493  0.5916 -0.6263  0.0919
 1197Sol     HW 7890   1.155   0.475   7.533 -0.1789 -0.6576  0.5777
 1197Sol     HW 7891   1.183   0.566   7.416  1.2847 -1.1598  0.5208
 1197Sol     MW 7892   1.134   0.550   7.490  0.1999 -0.4758 -0.1232
 1198Sol     OW 7893   0.648   1.804   2.635 -0.3055 -0.0012  0.2388
 1198Sol     HW 7894   0.736   1.766   2.637 -0.7619 -1.0768  0.3465
 1198Sol     HW 7895   0.660   1.889   2.594  0.9528  0.3131  1.2167
 1198Sol     MW 7896   0.657   1.808   2.632  0.2317  0.0545  0.6329
 1199Sol     OW 7897   2.799   1.568   9.931 -0.0102  0.1664 -0.0315
 1199Sol     HW 7898   2.888   1.577   9.898 -0.0556 -1.1643 -0.5153
 1199Sol     HW 7899   2.807   1.509  10.006 -0.6325 -0.8913 -0.7743
 1199Sol     MW 7900   2.808   1.564   9.935  0.4194  0.4335 -0.1945
 1200Sol     OW 7901   1.315   2.193   9.382 -0.5292  0.4117 -0.3291
 1200Sol     HW 7902   1.399   2.224   9.348 -0.8917  1.6675 -0.1248
 1200Sol     HW 7903   1.310   2.231   9.470 -0.9245 -0.3704 -0.0162
 1200Sol     MW 7904   1.322   2.200   9.387 -0.1994  0.2631 -0.1526
 1201Sol     OW 7905   2.917   0.395   1.880 -0.2367 -0.0594  0.0718
 1201Sol     HW 7906   2.852   0.436   1.937  0.9596  1.7016  0.2080
 1201Sol     HW 7907   2.968   0.340   1.939 -0.6986 -0.3535  0.2066
 1201Sol     MW 7908   2.915   0.394   1.890 -0.0668  0.1870  0.2024
 1202Sol     OW 7909   2.337   3.038   3.589 -0.0857  0.0470  0.0439
 1202Sol     HW 7910   2.329   2.966   3.651 -3.7508  0.0373 -0.3261
 1202Sol     HW 7911   2.370   2.997   3.509 -1.0399 -1.0395  0.1955
 1202Sol     MW 7912   2.339   3.028   3.587 -0.5113  0.1733 -0.2740
 1203Sol     OW 7913   2.216   2.172   2.212  0.2868  0.7543 -0.3865
 1203Sol     HW 7914   2.244   2.219   2.291  1.9206  0.1850 -0.6169
 1203Sol     HW 7915   2.122   2.189   2.207  0.5849  2.7804  0.3641
 1203Sol     MW 7916   2.210   2.178   2.219 -0.4395  0.0643 -0.1305
 1204Sol     OW 7917   1.346   0.743   9.808 -0.5734 -0.9027  0.3390
 1204Sol     HW 7918   1.340   0.829   9.850  1.7269 -0.1881 -0.7638
 1204Sol     HW 7919   1.410   0.695   9.860  0.2151 -0.9795 -0.6963
 1204Sol     MW 7920   1.351   0.746   9.816 -0.1679  0.5762  0.1057
 1205Sol     OW 7921   3.070   0.138   3.046 -0.5785 -0.5321  0.1103
 1205Sol     HW 7922   2.988   0.180   3.070 -0.1323 -0.4369  1.5265
 1205Sol     HW 7923   3.132   0.211   3.035 -0.7601 -0.5793 -1.2980
 1205Sol     MW 7924   3.068   0.149   3.048 -0.5710  0.0073 -0.1827
 1206Sol     OW 7925   2.620   0.607   4.478 -0.0567 -0.5242 -0.5500
 1206Sol     HW 7926   2.712   0.593   4.455  0.2403 -0.8328  0.8001
 1206Sol     HW 7927   2.619   0.610   4.574 -1.5663 -1.3262 -0.5227
 1206Sol     MW 7928   2.628   0.606   4.485  0.5888 -0.2772 -0.1536
 1207Sol     OW 7929   1.243   3.017   5.303 -0.4528 -0.2652  0.1340
 1207Sol     HW 7930   1.298   3.062   5.366 -2.5291  1.1299  1.0165
 1207Sol     HW 7931   1.298   2.947   5.269  1.5175  0.4731  1.6816
 1207Sol     MW 7932   1.253   3.015   5.306  0.3057 -0.2965  0.0768
 1208Sol     OW 7933   2.267   1.128   2.187 -0.3320 -0.0864 -0.1417
 1208Sol     HW 7934   2.292   1.178   2.109  1.1381  0.3210  0.5662
 1208Sol     HW 7935   2.344   1.073   2.205 -0.0263  0.9999  1.9698
 1208Sol     MW 7936   2.276   1.127   2.182  0.1130 -0.2569 -0.5744
 1209Sol     OW 7937   1.580   2.241   4.248  0.2602 -0.6238 -0.3385
 1209Sol     HW 7938   1.650   2.297   4.282 -0.9480  0.5564  0.2928
 1209Sol     HW 7939   1.579   2.166   4.307  0.0995  0.0119  0.4746
 1209Sol     MW 7940   1.586   2.240   4.257  0.1134  0.2813  0.2841
 1210Sol     OW 7941   2.262   0.791   9.087 -0.7322  0.2238 -0.1719
 1210Sol     HW 7942   2.240   0.758   9.000  1.0898 -1.8064  0.0947
 1210Sol     HW 7943   2.221   0.729   9.147  1.1765 -0.6116  0.3387
 1210Sol     MW 7944   2.257   0.782   9.084  0.6443  0.6076  0.1374
 1211Sol     OW 7945   0.807   2.026   4.910  0.2989  0.5667 -0.1473
 1211Sol     HW 7946   0.747   2.099   4.902 -2.1728 -1.4912 -1.0641
 1211Sol     HW 7947   0.801   1.980   4.826  1.5655 -0.8755  0.5070
 1211Sol     MW 7948   0.801   2.028   4.901 -0.7663  0.2856 -0.6884
 1212Sol     OW 7949   1.805   1.238   2.368 -0.5271  0.7783 -0.7076
 1212Sol     HW 7950   1.787   1.158   2.418  0.2102  0.8555 -0.3064
 1212Sol     HW 7951   1.901   1.244   2.368 -0.5461  1.0991 -1.6307
 1212Sol     MW 7952   1.812   1.231   2.372  0.1269  0.2210 -0.9625
 1213Sol     OW 7953   1.043   1.517   6.021  0.9528  0.3586  0.3218
 1213Sol     HW 7954   1.090   1.482   6.096 -1.6210 -0.4009  1.6072
 1213Sol     HW 7955   1.047   1.612   6.032  1.3188  0.2714  0.9492
 1213Sol     MW 7956   1.048   1.522   6.028 -0.3757 -0.2264  0.6822
 1214Sol     OW 7957   1.749   3.327   6.100  0.4183 -0.1166 -0.0964
 1214Sol     HW 7958   1.748   3.422   6.091  2.6442  0.1431  1.8078
 1214Sol     HW 7959   1.691   3.308   6.173 -2.6927 -0.5725 -2.5831
 1214Sol     MW 7960   1.744   3.334   6.106 -0.1474  0.1791  0.4620
 1215Sol     OW 7961   3.167   3.280   9.283 -0.0030  0.2787 -0.1864
 1215Sol     HW 7962   3.219   3.284   9.363  0.0226 -0.1002 -0.1840
 1215Sol     HW 7963   3.166   3.188   9.259  0.6013  0.4786 -1.0344
 1215Sol     MW 7964   3.171   3.272   9.288 -0.0783 -0.0795  0.0643
 1216Sol     OW 7965   1.630   2.390   9.531  0.2260  0.1228  0.4783
 1216Sol     HW 7966   1.719   2.356   9.540 -0.0880 -0.7127  0.4638
 1216Sol     HW 7967   1.593   2.384   9.619 -0.3523 -1.0565  0.1624
 1216Sol     MW 7968   1.635   2.387   9.540 -0.2341  0.2425  0.0491
 1217Sol     OW 7969   1.488   2.254   3.025  0.1366 -0.5078  0.4942
 1217Sol     HW 7970   1.400   2.222   3.045 -0.1354 -1.0628 -1.5017
 1217Sol     HW 7971   1.544   2.178   3.037  0.5055  0.0437  2.5760
 1217Sol     MW 7972   1.485   2.245   3.028 -0.4117  0.5397  0.3634
 1218Sol     OW 7973   2.843   0.263   5.876 -0.1193 -0.3923  0.2732
 1218Sol     HW 7974   2.780   0.246   5.807 -0.0054  0.0010  0.0678
 1218Sol     HW 7975   2.808   0.339   5.923  0.4637  0.1660 -0.1765
 1218Sol     MW 7976   2.834   0.269   5.874  0.4289 -0.2254  0.0316
 1219Sol     OW 7977   1.464   0.473   6.042  0.0730  0.5851 -0.2074
 1219Sol     HW 7978   1.378   0.509   6.022  1.0147  3.0309 -0.0863
 1219Sol     HW 7979   1.518   0.496   5.966  0.6696 -0.8133 -0.2308
 1219Sol     MW 7980   1.461   0.478   6.033 -0.4865  0.4880 -0.6213
 1220Sol     OW 7981   0.644   1.470   8.629  0.6607 -0.2651  0.4979
 1220Sol     HW 7982   0.557   1.478   8.667 -0.3679 -1.6449 -1.4630
 1220Sol     HW 7983   0.649   1.540   8.564  0.0187 -1.7514 -1.1854
 1220Sol     MW 7984   0.637   1.477   8.627 -0.7939 -0.3063  0.4010
 1221Sol     OW 7985   0.068   3.432   5.784  0.5054  0.1607  0.1924
 1221Sol     HW 7986   0.061   3.363   5.850 -2.3693  0.6291  0.4403
 1221Sol     HW 7987   0.027   3.509   5.825  2.2078  1.5563 -0.6861
 1221Sol     MW 7988   0.063   3.433   5.793 -0.7030 -0.0068 -0.4911
 1222Sol     OW 7989   3.134   1.956   8.037  0.2217  0.1403 -0.6457
 1222Sol     HW 7990   3.200   2.025   8.041  1.0949 -0.7119 -0.3764
 1222Sol     HW 7991   3.058   1.998   7.996  0.6571  1.3316 -0.2500
 1222Sol     MW 7992   3.133   1.966   8.034  0.7048 -0.3207 -0.5070
 1223Sol     OW 7993   2.573   1.946   5.619  0.2310 -0.1571  0.5478
 1223Sol     HW 7994   2.560   1.923   5.527  0.2496  0.6595  0.3360
 1223Sol     HW 7995   2.579   1.862   5.664 -2.0197 -0.5902  0.1253
 1223Sol     MW 7996   2.572   1.937   5.615  0.4360 -0.7957  0.3141
 1224Sol     OW 7997   2.935   2.544   5.059  0.2710  0.0232 -0.0919
 1224Sol     HW 7998   2.977   2.590   5.132 -1.1050  1.1049  0.0395
 1224Sol     HW 7999   2.992   2.469   5.042 -0.4171 -1.3622  3.3686
 1224Sol     MW 8000   2.944   2.542   5.064  1.0976 -0.0182 -0.0926
 1225Sol     OW 8001   0.629   0.926   4.097 -0.0171 -0.3352  0.0019
 1225Sol     HW 8002   0.569   0.996   4.124 -0.2636 -0.7605  0.5583
 1225Sol     HW 8003   0.635   0.869   4.173 -0.9583 -1.7003 -0.9192
 1225Sol     MW 8004   0.624   0.927   4.106  0.3047  0.4393 -0.1769
 1226Sol     OW 8005   0.510   0.196   2.460  0.3573 -0.3281 -0.2454
 1226Sol     HW 8006   0.430   0.185   2.513  0.1033  0.6328 -0.4184
 1226Sol     HW 8007   0.534   0.287   2.472  0.4730 -0.1804 -1.5483
 1226Sol     MW 8008   0.505   0.203   2.466  0.3457 -0.3242  0.4490
 1227Sol     OW 8009   2.332   3.400   4.734 -0.3038 -0.0657 -0.1874
 1227Sol     HW 8010   2.273   3.330   4.706  0.7826 -1.4312  0.8566
 1227Sol     HW 8011   2.398   3.405   4.666  0.6210 -1.2958  0.6019
 1227Sol     MW 8012   2.332   3.394   4.726  0.5626 -0.5283 -0.3045
 1228Sol     OW 8013   2.262   3.054   6.314 -0.3465 -0.0699 -0.2125
 1228Sol     HW 8014   2.253   2.958   6.313 -2.1159  0.0426  1.2462
 1228Sol     HW 8015   2.209   3.084   6.240 -1.0101 -0.1421  0.2320
 1228Sol     MW 8016   2.256   3.048   6.307  0.6229  0.3261  0.9415
 1229Sol     OW 8017   0.848   0.293   3.059 -0.4908  0.0932 -0.2439
 1229Sol     HW 8018   0.840   0.271   2.966 -1.7768 -2.0449  0.3429
 1229Sol     HW 8019   0.761   0.325   3.083  0.3228  2.3952 -0.1579
 1229Sol     MW 8020   0.840   0.294   3.053  0.3131 -0.5156  0.2292
 1230Sol     OW 8021   2.964   2.694   9.551  0.0230  0.7136  0.4914
 1230Sol     HW 8022   2.902   2.648   9.608 -0.5849  0.4631 -0.3607
 1230Sol     HW 8023   3.040   2.711   9.607  0.1488 -1.0926  0.8902
 1230Sol     MW 8024   2.965   2.691   9.561  0.6397  0.3545 -0.0314
 1231Sol     OW 8025   1.610   0.535   7.708 -0.2233  0.3329  0.0584
 1231Sol     HW 8026   1.597   0.481   7.786 -0.5180 -0.5411 -0.5855
 1231Sol     HW 8027   1.689   0.586   7.727  1.0669 -1.5647  0.0143
 1231Sol     MW 8028   1.616   0.535   7.717  0.0861 -0.1055 -0.2844
 1232Sol     OW 8029   1.235   0.357   7.639  0.1812  0.1311  0.1172
 1232Sol     HW 8030   1.326   0.388   7.633 -0.5718  2.7649  1.2186
 1232Sol     HW 8031   1.212   0.370   7.731 -1.2709 -0.6556 -0.1265
 1232Sol     MW 8032   1.241   0.361   7.647 -0.7787  0.0769  0.0327
 1233Sol     OW 8033   1.276   1.303   8.503 -0.1562 -0.1814  0.0241
 1233Sol     HW 8034   1.272   1.346   8.418 -1.2480 -1.6317 -0.6671
 1233Sol     HW 8035   1.298   1.374   8.564  0.6275  0.8584 -1.4495
 1233Sol     MW 8036   1.277   1.313   8.501 -0.1936  0.4105 -0.3747
 1234Sol     OW 8037   2.344   0.031   5.540 -0.1222  0.3626 -0.0748
 1234Sol     HW 8038   2.396   0.029   5.460 -1.2413  0.9464 -0.8308
 1234Sol     HW 8039   2.393  -0.023   5.602  0.1574 -1.0548 -1.5109
 1234Sol     MW 8040   2.353   0.026   5.538 -0.8752 -0.3691  0.2581
 1235Sol     OW 8041   1.946   2.854   9.134  0.0563  0.1562 -0.3933
 1235Sol     HW 8042   1.987   2.891   9.213  0.3252  0.3256 -0.6110
 1235Sol     HW 8043   2.013   2.798   9.096  0.4884  1.3205 -1.3710
 1235Sol     MW 8044   1.955   2.852   9.138 -0.0087 -0.0744  0.0559
 1236Sol     OW 8045   1.448   3.099   7.178  0.4883 -0.1669 -0.5158
 1236Sol     HW 8046   1.468   3.192   7.168 -0.0910 -0.0906 -0.9742
 1236Sol     HW 8047   1.404   3.075   7.096 -0.6863 -0.4944  0.2001
 1236Sol     MW 8048   1.446   3.105   7.169 -0.4925  0.1179  0.3337
 1237Sol     OW 8049   2.472   0.639   8.628 -0.3121 -0.2247  0.1796
 1237Sol     HW 8050   2.476   0.687   8.546 -1.7953  0.5880  0.5690
 1237Sol     HW 8051   2.555   0.590   8.631  1.5844  2.8195  0.0911
 1237Sol     MW 8052   2.480   0.639   8.621 -0.0698  0.8118 -0.1683
 1238Sol     OW 8053   2.293   1.290   8.403  0.1586 -0.2746 -0.0962
 1238Sol     HW 8054   2.243   1.293   8.322 -0.7213 -0.4813  0.4296
 1238Sol     HW 8055   2.271   1.205   8.442 -0.8718  0.5796  1.2487
 1238Sol     MW 8056   2.286   1.283   8.399 -0.2117 -0.6112  0.4374
 1239Sol     OW 8057   2.038   1.185   3.729 -0.3441 -0.2455 -0.2256
 1239Sol     HW 8058   2.108   1.184   3.793 -1.0128 -1.5430  0.5041
 1239Sol     HW 8059   2.048   1.103   3.680 -1.6559 -0.6963  0.2381
 1239Sol     MW 8060   2.045   1.178   3.730 -1.0347  0.3895 -0.1209
 1240Sol     OW 8061   1.593   0.294   4.440 -0.1219  0.3316 -0.1219
 1240Sol     HW 8062   1.639   0.364   4.392  0.7167  1.1881  1.8456
 1240Sol     HW 8063   1.646   0.281   4.519 -0.5524 -2.2006 -0.2070
 1240Sol     MW 8064   1.602   0.299   4.443 -0.1857  0.6461 -0.0517
 1241Sol     OW 8065   2.152   1.663   4.208 -0.8192  0.2490  0.2674
 1241Sol     HW 8066   2.158   1.639   4.301 -1.9234  0.7151  0.4703
 1241Sol     HW 8067   2.113   1.586   4.166 -0.0050 -0.0902  0.1338
 1241Sol     MW 8068   2.149   1.654   4.213 -0.1807 -0.1528 -0.4060
 1242Sol     OW 8069   2.841   2.153   4.452  0.3780  0.1187 -0.1177
 1242Sol     HW 8070   2.764   2.142   4.508  0.6117 -0.4390  0.1076
 1242Sol     HW 8071   2.857   2.065   4.417  0.3132  0.4425 -0.9567
 1242Sol     MW 8072   2.836   2.144   4.454 -0.0402  0.0247 -0.4152
 1243Sol     OW 8073   1.244   0.538   5.673 -0.0570  0.4819 -0.1150
 1243Sol     HW 8074   1.223   0.624   5.639  0.3142  0.5757 -0.1141
 1243Sol     HW 8075   1.174   0.481   5.642 -0.2328  0.7599 -0.2202
 1243Sol     MW 8076   1.236   0.540   5.668  0.2733  0.1048  0.6638
 1244Sol     OW 8077   0.990   1.413   7.066  0.0929  0.3248  0.0113
 1244Sol     HW 8078   1.058   1.459   7.116  0.3036 -0.1536  0.1679
 1244Sol     HW 8079   1.036   1.338   7.028  0.0851  1.0097 -1.4065
 1244Sol     MW 8080   1.000   1.410   7.067  0.2502  0.0944 -0.1569
 1245Sol     OW 8081   2.271   2.694   2.000 -0.5131 -0.3229 -0.1242
 1245Sol     HW 8082   2.300   2.609   1.965  1.4589  0.8450 -1.3971
 1245Sol     HW 8083   2.349   2.749   1.998 -2.0197  1.8745 -0.3164
 1245Sol     MW 8084   2.280   2.691   1.996  0.1491  0.2523  1.1067
 1246Sol     OW 8085   0.371   0.729   1.963 -0.4297  0.1290 -0.0711
 1246Sol     HW 8086   0.326   0.813   1.949 -2.2962 -0.8482 -0.0628
 1246Sol     HW 8087   0.304   0.672   2.000  0.7125 -1.5002 -0.4700
 1246Sol     MW 8088   0.361   0.732   1.965 -0.4006 -0.3068  0.4810
 1247Sol     OW 8089   1.943   0.833   9.413 -0.3151  0.0621 -0.1630
 1247Sol     HW 8090   1.861   0.837   9.363 -2.1777 -0.1814  2.7473
 1247Sol     HW 8091   1.921   0.783   9.492  3.1442 -1.5940 -0.1781
 1247Sol     MW 8092   1.934   0.829   9.416 -0.0338  0.7320  0.5943
 1248Sol     OW 8093   0.718   2.854   5.975  0.7142 -0.5544 -0.0781
 1248Sol     HW 8094   0.685   2.930   6.024 -0.3540 -1.0123 -0.0686
 1248Sol     HW 8095   0.813   2.857   5.988  0.8347  1.5738 -1.2308
 1248Sol     MW 8096   0.724   2.862   5.981 -0.1322 -0.2368 -0.0948
 1249Sol     OW 8097   1.901   2.218   2.716 -0.1211 -0.4104  0.4982
 1249Sol     HW 8098   1.956   2.143   2.692  0.4127 -0.0239  0.5195
 1249Sol     HW 8099   1.813   2.192   2.689  0.3624 -0.2690 -1.2725
 1249Sol     MW 8100   1.898   2.209   2.711  0.1366  0.1270 -0.0114
 1250Sol     OW 8101   0.279   0.086   5.643  0.3722 -0.0965 -0.4835
 1250Sol     HW 8102   0.209   0.052   5.700 -0.6210 -0.0968 -1.6945
 1250Sol     HW 8103   0.305   0.169   5.683  0.4054 -0.6002  0.5522
 1250Sol     MW 8104   0.275   0.090   5.652  0.6558  0.6534  0.6414
 1251Sol     OW 8105   0.876   1.687   7.513  0.1093  0.4434  0.0441
 1251Sol     HW 8106   0.838   1.725   7.435 -0.2446  0.6845  0.3312
 1251Sol     HW 8107   0.882   1.593   7.495 -1.9326  0.1903  0.5314
 1251Sol     MW 8108   0.873   1.682   7.505  0.3279  0.3266  0.1608
 1252Sol     OW 8109   1.891   0.774   4.189  0.1210  0.2777  0.1915
 1252Sol     HW 8110   1.880   0.864   4.160 -0.1514 -0.0825 -0.8535
 1252Sol     HW 8111   1.984   0.756   4.178 -0.1172 -0.1358 -1.3500
 1252Sol     MW 8112   1.898   0.780   4.185  0.1239  0.1004 -0.7201
 1253Sol     OW 8113   1.916   2.528   7.355  0.3419  0.1287  0.2760
 1253Sol     HW 8114   1.931   2.553   7.446 -0.6855  3.1090 -0.2881
 1253Sol     HW 8115   1.837   2.577   7.330  1.3415  0.3724 -2.5625
 1253Sol     MW 8116   1.910   2.535   7.361  0.4488 -0.5812 -0.2854
 1254Sol     OW 8117   0.233   2.030   9.427  0.4266 -0.7327 -0.1595
 1254Sol     HW 8118   0.280   2.017   9.344 -0.8707 -2.1333 -0.6903
 1254Sol     HW 8119   0.295   2.003   9.494  1.8119  1.2529 -0.5910
 1254Sol     MW 8120   0.243   2.026   9.425 -0.2190  0.2071  0.5456
 1255Sol     OW 8121   1.038   2.259   2.155 -0.9182 -0.0514 -0.5310
 1255Sol     HW 8122   1.070   2.343   2.187 -0.6965  0.2083 -1.4129
 1255Sol     HW 8123   1.020   2.208   2.234 -0.5650  0.6405 -0.0004
 1255Sol     MW 8124   1.039   2.262   2.165  0.0997 -0.1243  0.5147
 1256Sol     OW 8125   0.378   1.638   1.906  0.1534  0.0835 -0.4767
 1256Sol     HW 8126   0.377   1.550   1.943 -0.9612  0.2575 -0.0758
 1256Sol     HW 8127   0.470   1.665   1.912  0.1448 -0.1988  1.4548
 1256Sol     MW 8128   0.386   1.633   1.910  0.6229 -0.4123 -0.2989
 1257Sol     OW 8129   2.193   0.507   7.666  0.0503 -0.0572  0.3076
 1257Sol     HW 8130   2.244   0.499   7.746 -1.1020 -0.3454  1.0249
 1257Sol     HW 8131   2.235   0.578   7.618  2.8269 -2.1117 -0.4210
 1257Sol     MW 8132   2.201   0.512   7.669  0.2358 -0.1014 -0.1672
 1258Sol     OW 8133   0.673   3.156   3.558  0.2109 -0.4642 -0.3274
 1258Sol     HW 8134   0.714   3.188   3.478  0.0570  1.3871  0.3089
 1258Sol     HW 8135   0.643   3.235   3.603 -1.2384 -1.5919  0.7324
 1258Sol     MW 8136   0.674   3.166   3.555 -0.4535 -0.1327  0.0771
 1259Sol     OW 8137   0.238   1.396   6.692 -0.1432 -0.1843  0.2950
 1259Sol     HW 8138   0.318   1.365   6.736 -0.5116 -1.3343  0.1630
 1259Sol     HW 8139   0.204   1.464   6.750 -0.5414 -1.5799  1.7467
 1259Sol     MW 8140   0.242   1.399   6.701  0.1592 -0.1929 -0.4867
 1260Sol     OW 8141   1.604   1.124   7.111  0.4678 -0.2203  0.8801
 1260Sol     HW 8142   1.569   1.179   7.041  1.4273 -1.4508 -0.5913
 1260Sol     HW 8143   1.662   1.062   7.067  0.6388 -1.4016  2.6959
 1260Sol     MW 8144   1.606   1.123   7.101  0.3982  0.2362  0.0597
 1261Sol     OW 8145   2.987   0.948   2.208 -0.2181  0.5857  0.2565
 1261Sol     HW 8146   2.929   0.948   2.132  0.4594 -2.1616 -0.3051
 1261Sol     HW 8147   2.931   0.928   2.282 -0.3256 -0.1659 -0.0205
 1261Sol     MW 8148   2.977   0.946   2.208  0.3666  0.0404  0.1008
 1262Sol     OW 8149   1.399   0.700   3.522 -0.3249  0.1776 -0.2299
 1262Sol     HW 8150   1.494   0.699   3.532 -0.2571 -1.4045 -0.8812
 1262Sol     HW 8151   1.383   0.765   3.453  0.1956  1.2228  0.6272
 1262Sol     MW 8152   1.406   0.706   3.516 -0.2586  0.2818  0.3782
 1263Sol     OW 8153   1.739   2.780   4.142  0.0848 -0.0146  0.2712
 1263Sol     HW 8154   1.821   2.782   4.191  1.5421 -0.3305 -2.0688
 1263Sol     HW 8155   1.753   2.840   4.069 -1.1522 -1.3311 -1.0874
 1263Sol     MW 8156   1.747   2.786   4.140  0.0170 -0.6634  0.3206
 1264Sol     OW 8157   2.696   2.039   8.768  0.0471  0.0570 -0.3926
 1264Sol     HW 8158   2.655   1.981   8.704  1.4374 -2.4836  0.9421
 1264Sol     HW 8159   2.686   2.127   8.730 -1.7962 -1.0420 -2.6283
 1264Sol     MW 8160   2.691   2.042   8.759 -0.5755 -0.4859 -0.7374
 1265Sol     OW 8161   2.514   2.557   8.101 -0.3664  0.1401  0.3885
 1265Sol     HW 8162   2.453   2.496   8.143  0.4230 -0.2684  0.9541
 1265Sol     HW 8163   2.475   2.643   8.115 -0.7196 -0.0999  0.9044
 1265Sol     MW 8164   2.505   2.559   8.106  0.0724 -0.1358  0.0060
 1266Sol     OW 8165   1.944   1.364   1.613 -0.2271 -0.6094 -0.7965
 1266Sol     HW 8166   1.870   1.334   1.666  0.4275  0.0849  0.5279
 1266Sol     HW 8167   2.018   1.312   1.644  0.2894  0.2396 -0.5934
 1266Sol     MW 8168   1.944   1.357   1.621  0.6001 -0.4415 -0.7678
 1267Sol     OW 8169   1.282   2.176   8.974 -0.1499  0.6671  0.1840
 1267Sol     HW 8170   1.231   2.237   9.028  0.0910  0.5052  0.6041
 1267Sol     HW 8171   1.218   2.135   8.917 -0.4753  0.5528  0.6281
 1267Sol     MW 8172   1.272   2.178   8.974  0.4467 -0.8139  0.1515
 1268Sol     OW 8173   0.357   0.403   7.490  0.4555  0.0581  0.0259
 1268Sol     HW 8174   0.329   0.393   7.399  1.4698  0.6021 -0.3508
 1268Sol     HW 8175   0.337   0.494   7.512  0.7550  0.0909  0.1645
 1268Sol     MW 8176   0.353   0.410   7.484  0.4716  0.3232  0.3478
 1269Sol     OW 8177   2.162   1.275   7.067  0.4803  0.2484  0.3536
 1269Sol     HW 8178   2.220   1.205   7.036  1.7679  1.5546 -0.1922
 1269Sol     HW 8179   2.187   1.289   7.158  1.1081  0.8941  0.0835
 1269Sol     MW 8180   2.169   1.270   7.072  0.0564  0.3187 -0.0853
 1270Sol     OW 8181   0.346   2.253   8.743  0.0344  0.2680 -0.0083
 1270Sol     HW 8182   0.406   2.324   8.721  0.3827  0.4686  1.5218
 1270Sol     HW 8183   0.263   2.297   8.762  0.3617  0.3155  1.3499
 1270Sol     MW 8184   0.344   2.263   8.743 -0.0890 -0.5208 -0.9899
 1271Sol     OW 8185   2.481   2.894   1.952 -0.4027  0.2542 -0.1327
 1271Sol     HW 8186   2.540   2.953   1.997 -1.1544  0.5434  0.4722
 1271Sol     HW 8187   2.537   2.849   1.888  0.5443  0.2578  0.6748
 1271Sol     MW 8188   2.491   2.895   1.950  0.2062 -0.1885 -0.1551
 1272Sol     OW 8189   1.209   1.515   7.193  0.0694 -0.4552  0.2882
 1272Sol     HW 8190   1.205   1.490   7.285 -0.4077 -0.4619  0.2685
 1272Sol     HW 8191   1.257   1.597   7.192  1.5082 -1.2742  0.3779
 1272Sol     MW 8192   1.213   1.520   7.201  0.0381 -0.1354 -0.2592
 1273Sol     OW 8193   1.542   1.763   3.721 -0.0539 -0.2806  0.2417
 1273Sol     HW 8194   1.504   1.763   3.633 -2.3382 -1.6112  1.1813
 1273Sol     HW 8195   1.546   1.856   3.744  0.3783  0.0686 -1.1950
 1273Sol     MW 8196   1.539   1.772   3.715  0.3755  0.0915  0.5972
 1274Sol     OW 8197   1.108   1.779   5.265 -0.3319 -0.0308  0.1980
 1274Sol     HW 8198   1.094   1.803   5.357 -1.4303 -1.5988  0.4582
 1274Sol     HW 8199   1.021   1.780   5.226  0.1803  1.1267 -0.9863
 1274Sol     MW 8200   1.099   1.781   5.270  0.2635  0.4015  0.0713
 1275Sol     OW 8201   2.879   3.187   6.386 -0.1775  0.3426  0.3895
 1275Sol     HW 8202   2.933   3.129   6.332 -0.2996  0.3905  0.2137
 1275Sol     HW 8203   2.914   3.177   6.474 -0.9266 -0.8687  0.5548
 1275Sol     MW 8204   2.887   3.181   6.389  0.2358  0.0786  0.2708
 1276Sol     OW 8205   1.724   1.748   5.725  0.2972 -0.9398  0.0462
 1276Sol     HW 8206   1.785   1.675   5.713 -0.0329 -1.0893 -0.7257
 1276Sol     HW 8207   1.640   1.714   5.694 -0.2575 -0.8327  1.3809
 1276Sol     MW 8208   1.722   1.738   5.721  0.0813 -0.1051 -1.0424
 1277Sol     OW 8209   2.424   3.092   4.669 -0.3977 -0.0749 -0.6765
 1277Sol     HW 8210   2.385   3.076   4.754 -0.8234  0.5318 -0.7500
 1277Sol     HW 8211   2.455   3.006   4.639  0.9062 -0.0835  0.6394
 1277Sol     MW 8212   2.424   3.083   4.674 -0.4057 -0.2622  0.2620
 1278Sol     OW 8213   0.897   2.646   9.138  0.0114  0.1815  0.1651
 1278Sol     HW 8214   0.972   2.595   9.106 -0.8362 -0.0581 -1.5043
 1278Sol     HW 8215   0.916   2.736   9.111 -1.6788 -0.3402 -2.9301
 1278Sol     MW 8216   0.906   2.650   9.133 -0.1196  0.5373  0.3144
 1279Sol     OW 8217   0.785   0.688   3.794  1.1612  0.1634 -0.8014
 1279Sol     HW 8218   0.697   0.654   3.777  1.3282 -1.5900  1.6120
 1279Sol     HW 8219   0.775   0.783   3.791 -1.7326  0.1287  3.4679
 1279Sol     MW 8220   0.776   0.694   3.792  0.2334  0.1492  0.5062
 1280Sol     OW 8221   2.330   1.787   9.817 -0.2515 -0.2469 -0.2788
 1280Sol     HW 8222   2.259   1.726   9.836 -0.2737  0.3413  1.6240
 1280Sol     HW 8223   2.410   1.738   9.837  0.0254 -1.3575 -3.6464
 1280Sol     MW 8224   2.331   1.777   9.820  0.3134  1.0304  0.1139
 1281Sol     OW 8225   1.727   1.889   1.783  0.0824 -0.3896  0.1524
 1281Sol     HW 8226   1.674   1.941   1.843 -0.9946 -1.2676 -0.0318
 1281Sol     HW 8227   1.809   1.874   1.831 -0.2417  0.0736  0.8588
 1281Sol     MW 8228   1.730   1.892   1.793 -0.3439 -0.9987  0.6823
 1282Sol     OW 8229   2.963   0.630   7.822  0.0308  0.0958  0.3927
 1282Sol     HW 8230   2.913   0.655   7.744  0.5803  1.4504  0.4480
 1282Sol     HW 8231   2.907   0.569   7.869 -0.6679 -0.0483 -0.6317
 1282Sol     MW 8232   2.954   0.627   7.819 -0.1158 -0.1956 -0.1498
 1283Sol     OW 8233   1.457   0.864   3.049 -0.2455 -0.0189 -0.1244
 1283Sol     HW 8234   1.414   0.894   2.968  0.1080  2.7703  0.6981
 1283Sol     HW 8235   1.527   0.926   3.064 -0.1425 -0.6587  2.2302
 1283Sol     MW 8236   1.459   0.872   3.043  0.2499 -0.1101 -0.0259
 1284Sol     OW 8237   1.140   1.247   9.852  0.6218  0.4036 -0.1556
 1284Sol     HW 8238   1.146   1.322   9.912  1.0710 -0.1030  0.4362
 1284Sol     HW 8239   1.196   1.272   9.778  1.1675  0.4519  0.2671
 1284Sol     MW 8240   1.146   1.256   9.851 -0.1714 -0.4185  0.0438
 1285Sol     OW 8241   3.199   2.889   8.368 -0.0976 -0.3358 -0.2125
 1285Sol     HW 8242   3.198   2.823   8.299 -2.6399 -0.5266 -0.0627
 1285Sol     HW 8243   3.244   2.964   8.329 -1.6347 -0.3814 -2.1867
 1285Sol     MW 8244   3.203   2.890   8.358  0.0596 -0.0624 -0.1920
 1286Sol     OW 8245   1.156   0.794   2.239 -0.2544 -0.5222  0.1727
 1286Sol     HW 8246   1.119   0.706   2.243 -0.4983 -0.3702  2.0501
 1286Sol     HW 8247   1.251   0.781   2.246 -0.3567 -0.6032  1.6611
 1286Sol     MW 8248   1.161   0.785   2.240 -0.2849  0.1400 -0.3245
 1287Sol     OW 8249   0.701   2.965   2.721  0.7242 -0.3438 -0.1042
 1287Sol     HW 8250   0.760   2.889   2.714  2.8029  1.0824  1.4382
 1287Sol     HW 8251   0.748   3.036   2.679  0.0671  0.8112  1.0727
 1287Sol     MW 8252   0.710   2.964   2.717 -0.2007 -0.3228  0.3786
 1288Sol     OW 8253   1.393   3.012   2.975 -0.4226 -0.0489 -0.0048
 1288Sol     HW 8254   1.356   2.958   2.905  0.1989  0.9693 -1.1580
 1288Sol     HW 8255   1.379   2.962   3.055 -1.6213 -1.0005 -0.7988
 1288Sol     MW 8256   1.389   3.003   2.976 -0.2827  0.1575  0.5324
 1289Sol     OW 8257   1.026   0.560   2.188  0.3364  0.2497  0.2335
 1289Sol     HW 8258   1.058   0.527   2.272 -1.2109  0.1217  0.7864
 1289Sol     HW 8259   0.937   0.591   2.206 -0.3647 -0.6269 -1.5410
 1289Sol     MW 8260   1.021   0.560   2.197 -0.2047  0.0858  0.0580
 1290Sol     OW 8261   0.693   1.049   3.328 -0.3021  0.3521  0.8359
 1290Sol     HW 8262   0.598   1.036   3.324  0.0647 -2.9497  1.1947
 1290Sol     HW 8263   0.716   1.033   3.419  0.8418 -1.2995  0.2968
 1290Sol     MW 8264   0.687   1.046   3.336  0.1357  0.3916  0.5419
 1291Sol     OW 8265   2.624   1.677   3.688  0.2164 -0.1504 -0.0553
 1291Sol     HW 8266   2.572   1.724   3.753  0.5262 -0.8161  0.6838
 1291Sol     HW 8267   2.559   1.641   3.627 -0.1707 -0.5980  0.6111
 1291Sol     MW 8268   2.613   1.678   3.688  0.2014 -0.0889  0.2418
 1292Sol     OW 8269   0.026   1.437   6.322 -0.6275  0.6968 -0.1318
 1292Sol     HW 8270   0.059   1.424   6.233  1.2822  0.9174  0.4983
 1292Sol     HW 8271   0.086   1.386   6.377 -1.4022  1.0681  1.0713
 1292Sol     MW 8272   0.035   1.432   6.319  0.5504  0.3162 -0.1862
 1293Sol     OW 8273   0.037   0.635   3.707  0.7347  0.1976 -0.2969
 1293Sol     HW 8274   0.054   0.700   3.639  0.8596  0.2995 -0.1688
 1293Sol     HW 8275   0.123   0.610   3.740  0.6442  0.7352  0.3687
 1293Sol     MW 8276   0.046   0.639   3.704  0.3799 -0.4663 -0.1276
 1294Sol     OW 8277   2.166   1.953   2.770 -0.3542  0.3970 -0.5479
 1294Sol     HW 8278   2.252   1.951   2.811 -0.9967 -0.2141  0.7791
 1294Sol     HW 8279   2.142   1.861   2.758 -0.8679  0.5629 -0.8279
 1294Sol     MW 8280   2.171   1.945   2.772  0.4388 -0.1998 -0.5242
 1295Sol     OW 8281   1.236   0.815   2.664 -0.1414 -0.6193  0.2482
 1295Sol     HW 8282   1.197   0.862   2.590 -0.0173  0.4109  0.8453
 1295Sol     HW 8283   1.176   0.831   2.737  0.7632 -0.0537  0.8599
 1295Sol     MW 8284   1.227   0.820   2.664  0.2807  0.1008  0.2561
 1296Sol     OW 8285   2.600   1.298   6.396 -0.2437  0.3964 -0.8742
 1296Sol     HW 8286   2.635   1.376   6.438  0.4943 -0.1298 -0.4913
 1296Sol     HW 8287   2.506   1.315   6.387 -0.4039  0.5680  0.8947
 1296Sol     MW 8288   2.594   1.306   6.399  0.2306 -0.0401  0.1490
 1297Sol     OW 8289   3.233   1.678   3.240 -0.0940 -0.2038 -0.1849
 1297Sol     HW 8290   3.200   1.589   3.227 -1.0569  0.0929  0.1324
 1297Sol     HW 8291   3.174   1.715   3.306  1.5480  0.0057  1.2001
 1297Sol     MW 8292   3.225   1.673   3.245  0.0493 -0.2740  0.3589
 1298Sol     OW 8293   2.554   2.697   3.890  0.5312  0.7314  0.0189
 1298Sol     HW 8294   2.612   2.621   3.891 -1.5575 -1.1098 -4.9345
 1298Sol     HW 8295   2.611   2.771   3.867  1.8601  0.0383  1.0021
 1298Sol     MW 8296   2.564   2.697   3.888  0.2983  0.3336 -0.0458
 1299Sol     OW 8297   2.107   2.608   4.185  0.2274  0.6292 -0.1992
 1299Sol     HW 8298   2.062   2.691   4.198  1.1126  0.9141  1.1911
 1299Sol     HW 8299   2.038   2.545   4.165 -0.3175  1.9903 -2.8087
 1299Sol     MW 8300   2.097   2.610   4.184  0.0626  0.3248  0.2912
 1300Sol     OW 8301   2.714   2.402   8.033  0.1625  0.2096 -0.7235
 1300Sol     HW 8302   2.661   2.468   8.078 -1.5933 -1.3199 -0.4981
 1300Sol     HW 8303   2.770   2.365   8.101 -0.6478 -0.2808 -0.3176
 1300Sol     MW 8304   2.715   2.405   8.043 -0.0292  0.3408  0.1456
 1301Sol     OW 8305   1.789   0.738   7.725  0.2132  0.0148 -0.1327
 1301Sol     HW 8306   1.782   0.793   7.803  0.7780 -0.9208  0.5896
 1301Sol     HW 8307   1.780   0.799   7.652 -2.7655  0.5794  0.6508
 1301Sol     MW 8308   1.788   0.749   7.726  0.3851  0.2431 -0.7050
 1302Sol     OW 8309   2.669   0.835   6.621  0.1692  0.4518  0.3273
 1302Sol     HW 8310   2.675   0.908   6.560  1.5443  0.9908  1.1007
 1302Sol     HW 8311   2.594   0.857   6.677  1.6342  2.1458  1.6749
 1302Sol     MW 8312   2.662   0.844   6.621 -0.3052 -0.1424  0.4671
 1303Sol     OW 8313   1.741   2.168   5.609  0.3701  0.3155  0.1135
 1303Sol     HW 8314   1.777   2.188   5.522 -1.2522  1.5108 -0.3127
 1303Sol     HW 8315   1.659   2.217   5.612 -0.3552 -0.9743  1.7330
 1303Sol     MW 8316   1.737   2.174   5.602  0.0045  0.4091  0.1481
 1304Sol     OW 8317   0.363   0.325   4.737  0.8051 -0.0640 -0.9460
 1304Sol     HW 8318   0.398   0.411   4.713  0.3942 -0.3649 -2.6283
 1304Sol     HW 8319   0.285   0.345   4.789  1.4236  0.5826 -0.2575
 1304Sol     MW 8320   0.359   0.335   4.740  0.0094 -0.6769 -0.7044
 1305Sol     OW 8321   1.701   1.368   8.234  0.4502 -0.3107  0.4920
 1305Sol     HW 8322   1.686   1.273   8.235 -0.6586 -0.1619 -0.7903
 1305Sol     HW 8323   1.663   1.399   8.316  0.6296 -0.9438  0.8161
 1305Sol     MW 8324   1.697   1.362   8.241  0.1392 -0.5590 -0.6108
 1306Sol     OW 8325   2.811   0.831   6.893  0.2777  0.6171  0.2757
 1306Sol     HW 8326   2.756   0.754   6.878  0.0804  0.7809  0.1568
 1306Sol     HW 8327   2.826   0.867   6.806  1.7129 -0.2021  0.1661
 1306Sol     MW 8328   2.807   0.827   6.884  0.3134  1.0523 -0.0177
 1307Sol     OW 8329   0.172   2.519   2.135 -0.1677 -0.3396  0.2792
 1307Sol     HW 8330   0.187   2.611   2.112  0.4417 -0.9976 -2.1590
 1307Sol     HW 8331   0.260   2.480   2.137 -0.4572 -0.9848  0.7130
 1307Sol     MW 8332   0.181   2.523   2.133  0.1586  0.6166  0.2242
 1308Sol     OW 8333   3.067   2.722   3.139  0.5249 -0.3190  0.6936
 1308Sol     HW 8334   2.998   2.685   3.194  0.6245 -0.8691  0.4528
 1308Sol     HW 8335   3.110   2.787   3.194  0.9011 -1.1701  1.4058
 1308Sol     MW 8336   3.064   2.725   3.149  0.1163  0.5444  0.3461
 1309Sol     OW 8337   3.015   0.985   6.635  0.0791 -0.0277  0.0371
 1309Sol     HW 8338   2.973   0.906   6.600  0.8005  0.0993 -1.1268
 1309Sol     HW 8339   3.109   0.967   6.628  0.2627 -0.4624  2.9610
 1309Sol     MW 8340   3.019   0.976   6.631 -0.0077  0.6473  0.0159
 1310Sol     OW 8341   3.158   1.658   5.394 -0.1132 -0.3713  0.0701
 1310Sol     HW 8342   3.237   1.667   5.341 -0.4676  0.0513 -0.3994
 1310Sol     HW 8343   3.185   1.684   5.482  0.1234  0.3534 -0.2132
 1310Sol     MW 8344   3.168   1.661   5.397 -0.0967 -0.1873 -0.1212
 1311Sol     OW 8345   1.288   1.584   5.151  0.0063  0.0005 -0.0126
 1311Sol     HW 8346   1.219   1.644   5.182 -0.7151 -1.4904  1.3165
 1311Sol     HW 8347   1.358   1.642   5.121 -0.6024  1.5274  1.4366
 1311Sol     MW 8348   1.288   1.595   5.151  0.2524 -0.3606 -0.0277
 1312Sol     OW 8349   2.524   2.121   5.931  0.5467  0.4520 -0.1531
 1312Sol     HW 8350   2.507   2.191   5.994 -0.9230  0.1571 -0.2131
 1312Sol     HW 8351   2.594   2.070   5.970  0.5965  1.0802  0.5970
 1312Sol     MW 8352   2.529   2.123   5.940  0.2777  0.3332  0.3078
 1313Sol     OW 8353   0.590   0.721   3.071 -0.0835  0.5054 -0.2199
 1313Sol     HW 8354   0.602   0.627   3.057 -0.9053  0.3717 -0.0737
 1313Sol     HW 8355   0.573   0.756   2.984 -1.6646  0.2211 -0.0366
 1313Sol     MW 8356   0.590   0.716   3.062  0.3029 -0.4753  0.3054
 1314Sol     OW 8357   2.718   1.093   9.423 -0.6385 -0.2066  0.4293
 1314Sol     HW 8358   2.658   1.044   9.367  0.8970 -0.4545 -1.0532
 1314Sol     HW 8359   2.755   1.160   9.366  0.9726 -0.4711  1.1287
 1314Sol     MW 8360   2.716   1.094   9.413 -0.4585  0.1134  0.0140
 1315Sol     OW 8361   3.185   1.499   2.806 -0.2181 -0.0824  0.4536
 1315Sol     HW 8362   3.091   1.479   2.802 -0.0508 -0.5838 -1.8287
 1315Sol     HW 8363   3.228   1.414   2.809  0.2144  0.1066 -0.3316
 1315Sol     MW 8364   3.180   1.490   2.806  0.5123 -0.2566 -0.0555
 1316Sol     OW 8365   2.309   0.262   7.980 -0.2723  0.3677  0.2121
 1316Sol     HW 8366   2.317   0.357   7.974  1.0080  0.3244  1.0554
 1316Sol     HW 8367   2.266   0.237   7.898  1.0434  1.4899 -0.8667
 1316Sol     MW 8368   2.306   0.268   7.972 -0.6249  0.1995  0.6243
 1317Sol     OW 8369   0.737   2.534   4.810  0.1283  0.4411 -0.0463
 1317Sol     HW 8370   0.708   2.618   4.774  0.0210  0.1313 -0.6955
 1317Sol     HW 8371   0.748   2.550   4.904  1.2646  1.4850 -0.3580
 1317Sol     MW 8372   0.735   2.543   4.815 -0.0212  0.0231 -0.4743
 1318Sol     OW 8373   3.002   1.052   2.655  0.1451  0.4117 -0.2995
 1318Sol     HW 8374   3.043   0.975   2.614  1.7113  0.5150  1.0046
 1318Sol     HW 8375   2.953   1.016   2.729  0.5751  0.6041  0.0879
 1318Sol     MW 8376   3.002   1.042   2.658 -0.2294  0.7408  0.3290
 1319Sol     OW 8377   1.054   0.237   8.269 -0.3516  0.7671  0.1433
 1319Sol     HW 8378   1.053   0.311   8.209  0.9550  0.7872  0.1416
 1319Sol     HW 8379   1.138   0.244   8.314  0.5625 -1.7565 -1.1420
 1319Sol     MW 8380   1.061   0.245   8.268 -0.2606 -0.7952  0.1789
 1320Sol     OW 8381   1.525   0.513   2.110 -0.2657  0.1081 -0.0823
 1320Sol     HW 8382   1.456   0.449   2.128  1.4719 -1.5492  0.7865
 1320Sol     HW 8383   1.577   0.473   2.040 -1.6100  2.4709 -2.5427
 1320Sol     MW 8384   1.523   0.504   2.105  0.3833 -0.2091  0.3862
 1321Sol     OW 8385   1.754   1.876   2.436  0.3247  0.7458 -0.1594
 1321Sol     HW 8386   1.735   1.842   2.348  0.0891  1.2398 -0.3027
 1321Sol     HW 8387   1.751   1.971   2.425 -1.8707  0.8178  0.8657
 1321Sol     MW 8388   1.752   1.882   2.427 -0.6711 -0.1093 -0.2971
 1322Sol     OW 8389   2.574   3.407   7.813  0.1368  0.5731  0.3711
 1322Sol     HW 8390   2.538   3.328   7.772  1.3613 -0.1845  0.7395
 1322Sol     HW 8391   2.634   3.443   7.748  0.6238  0.4374  0.7413
 1322Sol     MW 8392   2.576   3.403   7.803  0.0206 -0.3832  0.5587
 1323Sol     OW 8393   1.684   2.981   7.240  0.5130  1.1102  0.1267
 1323Sol     HW 8394   1.612   3.001   7.180 -0.4996  0.7754  1.2221
 1323Sol     HW 8395   1.729   3.065   7.251 -0.9863  1.8281  1.0877
 1323Sol     MW 8396   1.681   2.991   7.236 -0.6598 -0.0060  0.2116
 1324Sol     OW 8397   2.934   0.301   7.874  0.2108  0.1394  0.5484
 1324Sol     HW 8398   2.844   0.268   7.876  0.8314 -1.5632  2.1976
 1324Sol     HW 8399   2.946   0.335   7.785 -1.8570 -0.1554  0.1403
 1324Sol     MW 8400   2.927   0.301   7.866  0.3500  0.1557 -0.0139
 1325Sol     OW 8401   0.703   2.846   3.966  0.2047  0.1268  0.3960
 1325Sol     HW 8402   0.684   2.879   3.878 -0.5808 -1.0586  0.1055
 1325Sol     HW 8403   0.762   2.772   3.951  0.5708  0.3169  0.9107
 1325Sol     MW 8404   0.707   2.842   3.957  0.2035  0.4992 -0.3455
 1326Sol     OW 8405   2.086   1.909   5.532 -0.1046  0.3831 -0.0144
 1326Sol     HW 8406   2.032   1.969   5.584  0.1183 -0.1048  0.7858
 1326Sol     HW 8407   2.152   1.877   5.593 -1.0151 -1.6989 -0.0875
 1326Sol     MW 8408   2.087   1.912   5.542 -0.3409  0.0336 -0.0894
 1327Sol     OW 8409   3.276   2.755   9.580 -0.3473 -0.4232  0.0488
 1327Sol     HW 8410   3.307   2.842   9.556  1.6619 -0.8201  1.0498
 1327Sol     HW 8411   3.294   2.701   9.502 -2.2229  0.1661 -0.8216
 1327Sol     MW 8412   3.281   2.758   9.571  0.0076  0.0802 -0.3752
 1328Sol     OW 8413   3.116   0.365   4.516  0.1118 -0.0941  0.5425
 1328Sol     HW 8414   3.063   0.433   4.474  0.3262  0.2396  0.8063
 1328Sol     HW 8415   3.064   0.285   4.509  0.3270 -0.1315 -0.7315
 1328Sol     MW 8416   3.107   0.364   4.512 -0.6498 -0.4150  0.4163
 1329Sol     OW 8417   0.736   3.051   6.868  0.3467  0.5053 -0.3598
 1329Sol     HW 8418   0.650   3.038   6.907  0.4275  0.3498 -0.2347
 1329Sol     HW 8419   0.795   2.996   6.920 -0.0575 -2.1982 -2.6762
 1329Sol     MW 8420   0.734   3.045   6.876 -0.1583 -0.2761 -0.0872
 1330Sol     OW 8421   0.546   1.793   6.509 -0.5777 -0.0242  0.3010
 1330Sol     HW 8422   0.626   1.804   6.458 -0.1739  2.3162  1.3890
 1330Sol     HW 8423   0.565   1.722   6.570 -0.2740 -1.2676 -1.2052
 1330Sol     MW 8424   0.554   1.788   6.510  0.2776 -0.9386  0.5537
 1331Sol     OW 8425   0.708   1.095   7.100  0.0903  0.3168 -0.9786
 1331Sol     HW 8426   0.618   1.076   7.128  1.0776 -1.9399  0.7572
 1331Sol     HW 8427   0.722   1.038   7.024  1.4023 -2.4539  1.2641
 1331Sol     MW 8428   0.701   1.088   7.096  0.9449  0.3081 -0.3977
 1332Sol     OW 8429   0.480   0.814   2.815 -0.2197  0.5889  0.0857
 1332Sol     HW 8430   0.456   0.898   2.853 -0.5069  1.0572 -1.1085
 1332Sol     HW 8431   0.401   0.760   2.821 -0.0489  0.4182  0.8075
 1332Sol     MW 8432   0.471   0.816   2.819  0.1296  0.0842  0.7416
 1333Sol     OW 8433   0.451   3.242   5.043 -0.3217  0.1973  0.2356
 1333Sol     HW 8434   0.389   3.278   4.980 -0.9250  0.4590  0.9735
 1333Sol     HW 8435   0.412   3.160   5.072  1.7674 -1.9165 -2.5933
 1333Sol     MW 8436   0.442   3.238   5.040 -0.2788 -0.0452 -0.0587
 1334Sol     OW 8437   2.567   2.919   6.654  0.3750 -0.2445 -0.4686
 1334Sol     HW 8438   2.561   3.004   6.699  0.1301 -1.0144  0.9954
 1334Sol     HW 8439   2.598   2.940   6.566  3.1207  1.1273  0.7565
 1334Sol     MW 8440   2.569   2.929   6.650  0.3983  0.3805 -0.0664
 1335Sol     OW 8441   0.800   2.576   5.096 -0.2088  0.3328  0.4159
 1335Sol     HW 8442   0.801   2.507   5.162  0.1372  0.0892  0.1565
 1335Sol     HW 8443   0.791   2.657   5.146 -0.1864  0.1304  0.7464
 1335Sol     MW 8444   0.799   2.577   5.106 -0.4221 -0.0299  0.1088
 1336Sol     OW 8445   2.050   1.722   1.887 -0.8019 -0.2190 -0.6063
 1336Sol     HW 8446   2.052   1.688   1.798 -1.1166 -0.0316 -0.6868
 1336Sol     HW 8447   2.100   1.804   1.883 -0.2816 -0.5270 -0.4725
 1336Sol     MW 8448   2.055   1.727   1.879 -0.3979 -0.2765  0.3132
 1337Sol     OW 8449   2.591   2.370   4.293  0.2242 -0.2414 -0.0829
 1337Sol     HW 8450   2.672   2.325   4.317  0.0869  1.0633  3.0544
 1337Sol     HW 8451   2.583   2.440   4.357 -2.4855  0.7438 -1.4415
 1337Sol     MW 8452   2.597   2.372   4.301 -0.3606  0.1745 -0.0134
 1338Sol     OW 8453   2.898   2.515   1.842  0.6563  0.0062 -0.0636
 1338Sol     HW 8454   2.968   2.579   1.850 -0.1299  1.1052 -1.6849
 1338Sol     HW 8455   2.926   2.458   1.770  0.2416  0.0098 -0.2310
 1338Sol     MW 8456   2.906   2.515   1.836 -0.6268  0.5389  0.0435
 1339Sol     OW 8457   0.022   2.139   9.533  0.0623 -0.5365 -0.0787
 1339Sol     HW 8458   0.053   2.135   9.623 -0.9045 -0.4330  0.2586
 1339Sol     HW 8459   0.095   2.106   9.481  0.3999 -1.1610  0.7891
 1339Sol     MW 8460   0.031   2.136   9.536  0.6253 -0.2755  0.3277
 1340Sol     OW 8461   2.422   2.144   4.761 -0.1780  0.6027  0.4156
 1340Sol     HW 8462   2.342   2.154   4.710 -0.8821  0.3901  1.4517
 1340Sol     HW 8463   2.451   2.233   4.779 -0.5305  0.6866  0.5708
 1340Sol     MW 8464   2.417   2.153   4.758  0.4609  0.6624  0.5950
 1341Sol     OW 8465   0.361   2.824   8.678 -0.3807  0.1328  0.2453
 1341Sol     HW 8466   0.360   2.767   8.601 -0.1765  0.8709 -0.3061
 1341Sol     HW 8467   0.297   2.784   8.738  0.9474 -1.6129  0.5595
 1341Sol     MW 8468   0.355   2.815   8.677 -0.4085 -0.1741 -0.3929
 1342Sol     OW 8469   1.020   0.723   4.582  0.0854 -0.1454  0.1160
 1342Sol     HW 8470   1.033   0.629   4.595  0.1535 -0.3695 -1.5505
 1342Sol     HW 8471   1.046   0.739   4.492  1.9780  1.8357  0.9659
 1342Sol     MW 8472   1.023   0.716   4.575  0.1537  0.1151  0.0153
 1343Sol     OW 8473   3.119   2.660   4.070  0.8082  0.2356  0.4321
 1343Sol     HW 8474   3.089   2.569   4.075  0.8046  0.1146 -1.3028
 1343Sol     HW 8475   3.207   2.658   4.107  1.0048 -0.5944 -0.0645
 1343Sol     MW 8476   3.124   2.652   4.074  0.3398  0.2143 -0.0307
 1344Sol     OW 8477   2.965   3.383   3.222 -0.4460 -0.4152 -0.0215
 1344Sol     HW 8478   2.953   3.316   3.155  0.0425 -0.9099  0.3820
 1344Sol     HW 8479   3.015   3.452   3.178  0.0552 -0.8338 -0.1052
 1344Sol     MW 8480   2.969   3.383   3.212  0.7368  0.4060  0.1259
 1345Sol     OW 8481   0.978   0.386   5.996 -0.0059 -0.2104 -0.1411
 1345Sol     HW 8482   0.918   0.423   5.931 -0.8602  0.1899  0.8610
 1345Sol     HW 8483   0.938   0.408   6.080  0.7052 -1.3687  0.5087
 1345Sol     MW 8484   0.969   0.391   5.998 -0.2142  0.1029 -0.1569
 1346Sol     OW 8485   2.856   1.725   5.654  0.4721  0.1704 -0.5434
 1346Sol     HW 8486   2.881   1.816   5.665  1.8605 -0.1978 -0.5909
 1346Sol     HW 8487   2.847   1.713   5.560 -2.0732  0.8650 -0.4136
 1346Sol     MW 8488   2.857   1.732   5.647 -0.0100 -0.3004  0.5086
 1347Sol     OW 8489   2.690   2.108   6.668 -0.3256 -0.0271  0.3985
 1347Sol     HW 8490   2.716   2.025   6.709  1.1064  1.5041  2.6767
 1347Sol     HW 8491   2.746   2.174   6.709 -1.0452  2.0266 -1.7891
 1347Sol     MW 8492   2.697   2.106   6.675  0.0753 -0.7721 -0.4929
 1348Sol     OW 8493   2.529   0.537   4.938 -0.3703 -0.7113 -0.0728
 1348Sol     HW 8494   2.560   0.550   5.027 -1.3295  1.5414 -0.0440
 1348Sol     HW 8495   2.596   0.576   4.883 -0.1074 -1.5037 -0.3249
 1348Sol     MW 8496   2.537   0.541   4.941  0.2353  0.5163  0.7842
 1349Sol     OW 8497   0.623   1.066   8.655 -0.1141  0.2448 -0.5914
 1349Sol     HW 8498   0.679   1.095   8.727  0.7372  0.3626 -1.2820
 1349Sol     HW 8499   0.534   1.086   8.683  0.2597  0.8597  0.1619
 1349Sol     MW 8500   0.620   1.071   8.664  0.3491 -0.2496 -0.6611
 1350Sol     OW 8501   0.321   1.163   7.675 -0.2538 -0.5139  0.3966
 1350Sol     HW 8502   0.244   1.200   7.632 -0.7735  0.8955  2.4841
 1350Sol     HW 8503   0.395   1.189   7.619 -1.2161 -1.7118 -1.5175
 1350Sol     MW 8504   0.321   1.169   7.666 -0.4798  0.4339  0.7639
 1351Sol     OW 8505   0.889   1.511   4.198 -0.5148 -0.0589  0.0233
 1351Sol     HW 8506   0.937   1.492   4.278 -1.3314  0.5120  0.6575
 1351Sol     HW 8507   0.913   1.601   4.176 -0.9655  0.0839  0.1096
 1351Sol     MW 8508   0.895   1.517   4.203 -0.6808 -0.3163  0.0776
 1352Sol     OW 8509   2.546   3.128   6.814  0.0230 -0.4792 -0.1198
 1352Sol     HW 8510   2.637   3.102   6.827 -0.3191 -0.8718  1.6369
 1352Sol     HW 8511   2.551   3.214   6.772  1.1795 -0.8307 -0.7236
 1352Sol     MW 8512   2.555   3.133   6.811 -0.3155  0.4338  0.2038
 1353Sol     OW 8513   1.028   2.722   5.750  0.3237  0.4478 -0.4426
 1353Sol     HW 8514   1.079   2.779   5.692  0.0987  0.1028 -0.9806
 1353Sol     HW 8515   1.085   2.647   5.766  0.4608  0.6279 -0.0534
 1353Sol     MW 8516   1.038   2.721   5.746  0.0955 -0.1550 -1.0499
 1354Sol     OW 8517   2.076   2.459   2.326 -0.3814  0.3287  0.4024
 1354Sol     HW 8518   2.157   2.411   2.342 -0.5775 -0.5593 -1.1069
 1354Sol     HW 8519   2.017   2.430   2.396 -0.1568 -0.8635  0.1140
 1354Sol     MW 8520   2.078   2.452   2.333 -0.4433 -0.2895  0.0878
 1355Sol     OW 8521   0.978   1.965   3.912 -0.2593 -0.4110  0.4980
 1355Sol     HW 8522   1.058   1.958   3.860 -1.3381 -2.5405 -0.9358
 1355Sol     HW 8523   0.977   2.056   3.942  0.9044  0.6294 -2.4094
 1355Sol     MW 8524   0.985   1.972   3.910 -0.2930 -0.3606 -0.0656
 1356Sol     OW 8525   3.118   3.149   5.130 -0.1130 -0.2245  0.3101
 1356Sol     HW 8526   3.130   3.056   5.114 -0.1160 -0.4568  1.5913
 1356Sol     HW 8527   3.186   3.172   5.193  0.8703  0.9878 -1.1574
 1356Sol     MW 8528   3.125   3.143   5.134  0.7282 -0.1473 -0.2251
 1357Sol     OW 8529   0.617   3.390   5.798  0.6356 -0.0426 -0.1353
 1357Sol     HW 8530   0.690   3.429   5.750 -0.3626  1.2392 -0.6437
 1357Sol     HW 8531   0.548   3.378   5.732 -0.7956  1.8568  0.9583
 1357Sol     MW 8532   0.617   3.392   5.787  0.1608 -0.1716 -0.2413
 1358Sol     OW 8533   1.590   1.518   4.879 -0.2961  0.5221 -0.2169
 1358Sol     HW 8534   1.578   1.444   4.939  1.4432  0.0008 -0.4786
 1358Sol     HW 8535   1.638   1.583   4.931 -0.3188  0.7817 -0.5177
 1358Sol     MW 8536   1.593   1.518   4.889 -0.5067  0.1358 -0.2913
 1359Sol     OW 8537   2.028   1.819   2.378 -0.0688  0.1916  0.1576
 1359Sol     HW 8538   1.934   1.832   2.393  0.1205  1.0292  0.6431
 1359Sol     HW 8539   2.034   1.730   2.343 -1.0195  0.0317  0.3716
 1359Sol     MW 8540   2.020   1.812   2.376  0.0530  0.1895  0.1671
 1360Sol     OW 8541   3.095   0.441   9.354  0.3319 -0.5748 -0.0816
 1360Sol     HW 8542   3.086   0.535   9.336 -0.6874 -0.6850 -0.1972
 1360Sol     HW 8543   3.020   0.421   9.410  0.5694 -1.3199 -0.0347
 1360Sol     MW 8544   3.087   0.448   9.357  0.4339 -0.5535 -0.9045
 1361Sol     OW 8545   1.551   0.543   3.267 -0.1126 -0.0488 -0.3597
 1361Sol     HW 8546   1.595   0.475   3.318  1.4377  1.7529  0.8323
 1361Sol     HW 8547   1.571   0.523   3.176  0.6295 -0.9813  0.0023
 1361Sol     MW 8548   1.557   0.535   3.264  0.2661  0.6791  0.3029
 1362Sol     OW 8549   2.584   0.130   3.484  0.0933  0.0088  0.2445
 1362Sol     HW 8550   2.667   0.173   3.505 -0.6159  0.7857  1.4755
 1362Sol     HW 8551   2.605   0.036   3.484  0.7966  0.1605  1.2995
 1362Sol     MW 8552   2.594   0.125   3.486  0.2391  0.4612 -0.0229
 1363Sol     OW 8553   0.714   0.442   9.109 -0.3046 -0.6014 -0.4292
 1363Sol     HW 8554   0.732   0.536   9.119 -1.3394 -0.4110 -0.2820
 1363Sol     HW 8555   0.635   0.427   9.160 -0.2245 -1.5356 -0.5636
 1363Sol     MW 8556   0.709   0.449   9.114  0.1752 -0.5303  0.1869
 1364Sol     OW 8557   0.018   1.508   7.177  0.2689  0.1837  0.4513
 1364Sol     HW 8558   0.108   1.480   7.189  0.5634  0.5404 -0.8428
 1364Sol     HW 8559   0.012   1.533   7.084 -1.5862 -1.4246  0.0870
 1364Sol     MW 8560   0.025   1.508   7.169  0.3317  0.5582 -0.2294
 1365Sol     OW 8561   2.633   0.480   3.146  0.5748  0.1238  0.0134
 1365Sol     HW 8562   2.577   0.417   3.191  2.0271  0.2441  2.0622
 1365Sol     HW 8563   2.577   0.557   3.134 -0.6692 -0.9115 -0.9071
 1365Sol     MW 8564   2.623   0.482   3.149 -0.0640  0.0882  0.8424
 1366Sol     OW 8565   1.842   1.520   2.437 -0.5677  0.1549 -0.2097
 1366Sol     HW 8566   1.823   1.581   2.366  0.4249  1.1410  0.3598
 1366Sol     HW 8567   1.830   1.433   2.398 -4.6557  0.6837 -0.2903
 1366Sol     MW 8568   1.840   1.517   2.428  0.1894 -0.2934  0.1480
 1367Sol     OW 8569   0.419   2.856   2.707  0.8462 -0.0177 -0.2508
 1367Sol     HW 8570   0.512   2.874   2.710  0.6410  1.2854 -1.5369
 1367Sol     HW 8571   0.410   2.780   2.650  0.9010  1.4387 -2.2263
 1367Sol     MW 8572   0.426   2.851   2.702  0.1434  0.1808  0.6606
 1368Sol     OW 8573   1.872   2.527   4.784  0.1283  0.2470 -0.5141
 1368Sol     HW 8574   1.792   2.568   4.753 -0.1612  0.6903  0.7806
 1368Sol     HW 8575   1.901   2.582   4.857  1.0516 -0.4781 -0.3202
 1368Sol     MW 8576   1.867   2.535   4.788 -0.1645 -0.6321 -0.3874
 1369Sol     OW 8577   2.014   2.969   2.239 -0.2828 -0.0994  0.3185
 1369Sol     HW 8578   1.991   2.973   2.332 -1.5990  0.3839 -0.0087
 1369Sol     HW 8579   2.031   2.877   2.222 -0.2055 -0.2141  1.0054
 1369Sol     MW 8580   2.013   2.961   2.246 -0.7199  0.0148 -0.0583
 1370Sol     OW 8581   1.168   1.480   5.675  0.0690 -0.3065  0.6078
 1370Sol     HW 8582   1.090   1.520   5.637  0.7747  1.3200  0.8165
 1370Sol     HW 8583   1.158   1.494   5.769  1.6368  1.9476  0.5076
 1370Sol     MW 8584   1.160   1.485   5.680  0.0215  0.3169  0.1850
 1371Sol     OW 8585   0.005   0.878   8.543  0.1061 -0.5356 -0.2006
 1371Sol     HW 8586   0.051   0.909   8.464 -0.4859 -0.5975 -0.5683
 1371Sol     HW 8587  -0.085   0.865   8.515 -0.0823 -0.6670  0.4635
 1371Sol     MW 8588   0.001   0.880   8.533 -0.1551  0.8047  0.2726
 1372Sol     OW 8589   0.532   1.744   9.502  0.0032 -0.4539  0.0948
 1372Sol     HW 8590   0.611   1.793   9.522 -0.0227 -1.2605  2.2928
 1372Sol     HW 8591   0.461   1.796   9.539 -0.6334  0.7027 -2.6149
 1372Sol     MW 8592   0.533   1.753   9.507  0.0285 -0.3379  0.1478
 1373Sol     OW 8593   2.938   0.569   4.420  0.1719  0.5313 -0.1027
 1373Sol     HW 8594   2.942   0.566   4.324 -0.4006  0.3636 -0.1277
 1373Sol     HW 8595   2.964   0.658   4.442 -0.6560  0.8754 -0.4798
 1373Sol     MW 8596   2.941   0.577   4.413 -0.1053 -0.4001 -0.9696
 1374Sol     OW 8597   0.176   3.327   2.328 -0.4169  0.7234  0.1212
 1374Sol     HW 8598   0.176   3.235   2.302 -2.5305  1.0902 -1.2223
 1374Sol     HW 8599   0.181   3.325   2.424 -1.2566 -0.8074  0.1458
 1374Sol     MW 8600   0.177   3.319   2.334 -0.0556 -0.2575  0.8770
 1375Sol     OW 8601   2.955   2.768   5.474  0.0794 -0.0228  0.1879
 1375Sol     HW 8602   2.928   2.839   5.416 -1.7473 -1.0370 -0.2202
 1375Sol     HW 8603   2.985   2.813   5.554 -0.5927  1.2198 -0.2466
 1375Sol     MW 8604   2.956   2.779   5.476  0.4050 -0.3932 -0.1144
 1376Sol     OW 8605   0.031   2.011   7.218 -0.7764  0.3618 -0.1172
 1376Sol     HW 8606  -0.012   1.940   7.266  0.4078 -0.3805 -0.1272
 1376Sol     HW 8607   0.072   2.065   7.286 -1.6736  1.0460 -0.1101
 1376Sol     MW 8608   0.031   2.010   7.228 -0.6267 -0.2623 -0.6989
 1377Sol     OW 8609   0.148   3.046   2.272 -0.1501  0.5570 -0.4804
 1377Sol     HW 8610   0.138   2.967   2.218  2.1805  0.1471 -0.3397
 1377Sol     HW 8611   0.225   3.029   2.325 -0.7341  2.1813  0.9119
 1377Sol     MW 8612   0.154   3.037   2.272 -0.0360  0.1362  0.2044
 1378Sol     OW 8613   0.264   2.469   4.678 -0.1987 -0.2002  0.5534
 1378Sol     HW 8614   0.175   2.480   4.712  0.0005 -2.5078  1.9329
 1378Sol     HW 8615   0.257   2.491   4.585 -2.5416 -1.7404  0.3224
 1378Sol     MW 8616   0.255   2.472   4.672  0.8658 -0.2905  0.0937
 1379Sol     OW 8617   1.732   1.627   7.814 -0.0860 -0.7606  0.3006
 1379Sol     HW 8618   1.668   1.590   7.875  2.5574 -1.8976  2.4907
 1379Sol     HW 8619   1.750   1.556   7.752  1.0422 -1.3986  1.3310
 1379Sol     MW 8620   1.728   1.617   7.814  0.0614  0.2666 -0.1898
 1380Sol     OW 8621   0.950   2.710   2.043 -0.4799 -0.0183  0.1138
 1380Sol     HW 8622   0.963   2.800   2.073 -2.5680  0.8061 -1.3670
 1380Sol     HW 8623   0.972   2.712   1.950  2.8407 -1.8415  0.7905
 1380Sol     MW 8624   0.953   2.718   2.037  0.4524  0.1637  0.4505
 1381Sol     OW 8625   1.698   2.957   1.911 -0.6590  0.6256  0.6723
 1381Sol     HW 8626   1.688   3.029   1.973  0.3009  1.6252 -0.3047
 1381Sol     HW 8627   1.753   2.993   1.841 -1.4055 -0.5909 -0.5762
 1381Sol     MW 8628   1.702   2.966   1.910  0.0808  0.1238 -0.4164
 1382Sol     OW 8629   0.258   0.456   6.842 -0.4822 -0.2894  0.1176
 1382Sol     HW 8630   0.295   0.534   6.884  0.7309 -0.4467 -0.6435
 1382Sol     HW 8631   0.300   0.382   6.886 -0.5815 -0.4971 -0.1345
 1382Sol     MW 8632   0.265   0.456   6.850  0.0471 -0.1230  0.2919
 1383Sol     OW 8633   0.683   1.649   4.297  0.6257 -0.1886  0.0791
 1383Sol     HW 8634   0.612   1.632   4.236  0.4172 -2.0406  0.8173
 1383Sol     HW 8635   0.749   1.583   4.276  1.9027  1.1542 -0.2244
 1383Sol     MW 8636   0.683   1.642   4.290 -0.1519 -0.1606 -0.0440
 1384Sol     OW 8637   2.972   0.752   7.122  0.3160  0.1913  0.1092
 1384Sol     HW 8638   2.951   0.801   7.042 -1.2986 -1.4881 -0.5267
 1384Sol     HW 8639   3.066   0.734   7.114  0.3562  0.8065 -0.9894
 1384Sol     MW 8640   2.979   0.755   7.114  0.4758 -0.6748  0.0571
 1385Sol     OW 8641   2.071   1.489   3.687  0.0962 -0.3922  0.9172
 1385Sol     HW 8642   2.033   1.551   3.749 -0.4736  1.6913 -1.4325
 1385Sol     HW 8643   2.008   1.416   3.684 -0.3411 -0.0612  2.0383
 1385Sol     MW 8644   2.062   1.488   3.692  0.3449 -0.5335 -0.3938
 1386Sol     OW 8645   0.958   1.579   5.505 -0.1267  0.1912  0.2168
 1386Sol     HW 8646   0.867   1.563   5.531 -0.2633  0.1998 -0.2528
 1386Sol     HW 8647   0.965   1.674   5.497  0.0752  0.2262  0.7982
 1386Sol     MW 8648   0.951   1.586   5.507  0.5274  0.1826 -0.3334
 1387Sol     OW 8649   0.694   1.633   4.583 -0.0402  0.0516  0.3097
 1387Sol     HW 8650   0.694   1.649   4.489 -2.0772 -0.9820  0.1058
 1387Sol     HW 8651   0.717   1.718   4.622  1.2188  0.3832 -1.1019
 1387Sol     MW 8652   0.696   1.642   4.578 -0.2276  0.0915 -0.3426
 1388Sol     OW 8653   1.821   0.870   7.962  0.1455 -0.3915  0.2548
 1388Sol     HW 8654   1.885   0.937   7.985  1.1150 -1.3507  0.3896
 1388Sol     HW 8655   1.760   0.868   8.036 -1.1244  1.7999 -0.6922
 1388Sol     MW 8656   1.821   0.876   7.971 -0.3168 -0.2549  0.4358
 1389Sol     OW 8657   3.021   3.287   8.413  0.4959  0.3112  0.4658
 1389Sol     HW 8658   3.018   3.191   8.415 -0.0486  0.3443  1.3532
 1389Sol     HW 8659   2.932   3.313   8.388  0.2862  0.6201  1.5238
 1389Sol     MW 8660   3.013   3.281   8.411 -0.2725 -0.6132 -0.4285
 1390Sol     OW 8661   0.348   3.026   3.681  0.2154  0.2023 -0.4020
 1390Sol     HW 8662   0.361   2.965   3.608 -2.0490 -3.2318  1.9025
 1390Sol     HW 8663   0.259   3.059   3.668 -0.1813 -0.3907  0.7034
 1390Sol     MW 8664   0.341   3.023   3.673 -0.3493  0.4024  0.2670
 1391Sol     OW 8665   1.874   2.365   2.477 -0.2273 -0.0929  0.3699
 1391Sol     HW 8666   1.891   2.314   2.557 -0.6507  0.9721  1.1448
 1391Sol     HW 8667   1.830   2.444   2.508 -1.7918 -0.3715 -1.0819
 1391Sol     MW 8668   1.872   2.367   2.487  0.4792  0.1804 -0.3282
 1392Sol     OW 8669   1.040   0.883   3.905 -0.2290  0.5357  0.1813
 1392Sol     HW 8670   1.074   0.911   3.820 -1.9383 -1.4077 -1.1877
 1392Sol     HW 8671   1.100   0.814   3.932 -1.0130 -0.4595 -0.5740
 1392Sol     MW 8672   1.049   0.879   3.900 -0.3312  0.2877 -0.6677
 1393Sol     OW 8673   1.876   2.994   6.493 -0.4151  0.2210 -0.9353
 1393Sol     HW 8674   1.851   2.964   6.406  0.1125 -2.6830 -0.1287
 1393Sol     HW 8675   1.862   2.918   6.550  1.0572  1.4841  1.1848
 1393Sol     MW 8676   1.872   2.985   6.490  0.3138 -0.5447  0.7042
 1394Sol     OW 8677   0.082   1.621   1.759 -0.0569 -0.0380 -0.1334
 1394Sol     HW 8678   0.072   1.548   1.819  2.4202 -0.6672 -0.4177
 1394Sol     HW 8679   0.072   1.583   1.672  1.9536 -0.2210 -0.3136
 1394Sol     MW 8680   0.080   1.611   1.756  0.5358  0.2433 -0.2434
 1395Sol     OW 8681   1.357   0.285   8.045  0.2681  0.1936  0.2398
 1395Sol     HW 8682   1.371   0.301   8.138 -1.0909  2.3105  0.1234
 1395Sol     HW 8683   1.335   0.192   8.039  1.8377 -0.3167  1.8199
 1395Sol     MW 8684   1.356   0.278   8.053 -0.4276 -0.9479 -0.0783
 1396Sol     OW 8685   0.137   2.392   3.838 -0.2567 -0.3879 -0.4322
 1396Sol     HW 8686   0.113   2.376   3.930  0.4054 -1.2096 -0.3981
 1396Sol     HW 8687   0.122   2.309   3.794  0.5738 -0.3434 -0.8170
 1396Sol     MW 8688   0.134   2.383   3.843  0.1749 -0.1522  0.3260
 1397Sol     OW 8689   2.214   1.203   4.832 -0.3910 -0.0929  0.5058
 1397Sol     HW 8690   2.220   1.298   4.839  0.1817  0.0927 -1.9446
 1397Sol     HW 8691   2.237   1.171   4.919  2.2887  1.9195  0.6189
 1397Sol     MW 8692   2.217   1.209   4.841 -0.2103  0.3045  0.1079
 1398Sol     OW 8693   0.031   2.998   3.379  0.0431  0.1108  0.4663
 1398Sol     HW 8694   0.066   3.015   3.292  0.5562  0.6423  0.7733
 1398Sol     HW 8695  -0.012   2.913   3.372 -1.1304  0.7785 -0.6659
 1398Sol     MW 8696   0.030   2.992   3.371  0.0011  0.2996  0.4357
 1399Sol     OW 8697   2.273   1.135   4.574  0.5527 -0.3712  0.0990
 1399Sol     HW 8698   2.190   1.096   4.545  0.9860 -0.4748 -1.0283
 1399Sol     HW 8699   2.255   1.165   4.663 -0.7255 -0.3066 -0.1667
 1399Sol     MW 8700   2.264   1.134   4.580 -0.4165  0.4108 -0.3065
 1400Sol     OW 8701   1.785   0.216   6.570  0.2512  0.5842 -0.1758
 1400Sol     HW 8702   1.865   0.249   6.528  0.0869  0.3193 -0.6985
 1400Sol     HW 8703   1.716   0.233   6.507  0.0428 -0.0410 -0.1181
 1400Sol     MW 8704   1.786   0.220   6.560  0.8757 -0.0900  0.1682
 1401Sol     OW 8705   1.458   1.600   9.056  0.0331  0.0267 -0.2327
 1401Sol     HW 8706   1.526   1.622   9.120  0.5441  0.7578 -1.0032
 1401Sol     HW 8707   1.473   1.508   9.035 -0.2456 -0.2670  0.8193
 1401Sol     MW 8708   1.465   1.594   9.060  0.1179 -0.2787 -0.0593
 1402Sol     OW 8709   1.989   0.120   7.344 -0.6375 -0.0922  0.1079
 1402Sol     HW 8710   1.901   0.103   7.376 -1.3530  1.0761 -1.2050
 1402Sol     HW 8711   2.007   0.210   7.369 -0.0133 -0.1595 -0.0795
 1402Sol     MW 8712   1.983   0.126   7.349  0.0150 -0.4108  0.1601
 1403Sol     OW 8713   1.198   3.368   8.969 -0.5161  0.0723 -0.7632
 1403Sol     HW 8714   1.163   3.447   8.928 -1.4063  0.2210  0.2424
 1403Sol     HW 8715   1.240   3.400   9.049 -0.4682 -0.4199 -0.5935
 1403Sol     MW 8716   1.199   3.378   8.972 -0.0378  0.3002 -0.7342
 1404Sol     OW 8717   0.199   2.245   5.241 -0.4819  0.2920 -0.2629
 1404Sol     HW 8718   0.254   2.167   5.232  0.3205  0.7844  0.2628
 1404Sol     HW 8719   0.127   2.218   5.298 -0.7563 -0.3488 -0.9228
 1404Sol     MW 8720   0.198   2.236   5.245  0.0272 -0.1581  0.5338
 1405Sol     OW 8721   3.247   0.695   2.839  0.6815  0.4021 -0.0330
 1405Sol     HW 8722   3.294   0.637   2.779 -1.4881 -1.3703 -0.1058
 1405Sol     HW 8723   3.297   0.690   2.920  0.1566 -2.2331  0.1939
 1405Sol     MW 8724   3.256   0.689   2.841 -0.0218  0.1387  0.4142
 1406Sol     OW 8725   1.914   3.287   7.627 -0.2402  0.0794 -0.7437
 1406Sol     HW 8726   1.959   3.213   7.667  0.0129  0.6231  0.0083
 1406Sol     HW 8727   1.889   3.257   7.540 -0.6032 -1.0605 -0.2514
 1406Sol     MW 8728   1.916   3.278   7.623  0.4251  0.0562 -0.1645
 1407Sol     OW 8729   0.320   2.641   8.469 -0.6336 -0.0564 -0.1444
 1407Sol     HW 8730   0.402   2.597   8.445 -0.2303  0.1498  0.8601
 1407Sol     HW 8731   0.273   2.576   8.521 -1.0229 -0.0905 -0.5279
 1407Sol     MW 8732   0.323   2.631   8.471  0.1275 -0.1711  0.2755
 1408Sol     OW 8733   3.171   0.442   3.592 -0.3016  0.0589 -0.1484
 1408Sol     HW 8734   3.241   0.505   3.610 -1.3068  0.8760  0.9374
 1408Sol     HW 8735   3.204   0.392   3.517  1.7617 -0.0523  0.7940
 1408Sol     MW 8736   3.181   0.443   3.587 -0.1537 -0.3299 -0.1853
 1409Sol     OW 8737   1.253   1.813   9.160  0.0750  0.0060 -0.1311
 1409Sol     HW 8738   1.327   1.864   9.128 -1.4981  1.1209 -2.0721
 1409Sol     HW 8739   1.204   1.788   9.081 -0.0485 -3.1954  0.8855
 1409Sol     MW 8740   1.255   1.815   9.150 -0.1068 -0.2246  0.4643
 1410Sol     OW 8741   1.208   0.984   9.916  0.7480  0.5664 -0.3713
 1410Sol     HW 8742   1.186   1.077   9.916 -0.4335  0.2934 -0.4861
 1410Sol     HW 8743   1.127   0.940   9.891  0.1247 -0.7952  3.7002
 1410Sol     MW 8744   1.199   0.988   9.914  0.3265 -0.0069 -0.6072
 1411Sol     OW 8745   2.676   1.730   3.286  0.6851 -0.4893  0.1391
 1411Sol     HW 8746   2.713   1.658   3.337  1.1664 -0.1554  0.2605
 1411Sol     HW 8747   2.630   1.784   3.350  1.8705  0.3030  0.3252
 1411Sol     MW 8748   2.675   1.728   3.296  0.9849  0.2742 -0.3161
 1412Sol     OW 8749   2.656   1.900   8.001  1.4343 -0.3386 -0.3187
 1412Sol     HW 8750   2.704   1.867   8.077 -0.4106 -0.3709  0.8734
 1412Sol     HW 8751   2.609   1.823   7.967 -0.8651  0.4576  0.9280
 1412Sol     MW 8752   2.656   1.890   8.005 -0.1618  0.2718  0.4212
 1413Sol     OW 8753   1.663   0.339   5.370 -0.3487  0.5098 -0.4037
 1413Sol     HW 8754   1.647   0.248   5.344  1.0068 -0.1311  0.9212
 1413Sol     HW 8755   1.602   0.353   5.442  0.5906  0.0947  0.4897
 1413Sol     MW 8756   1.656   0.332   5.374  0.3278  0.5833  0.7297
 1414Sol     OW 8757   0.606   1.330   9.343  0.1606 -0.4211 -0.2989
 1414Sol     HW 8758   0.656   1.410   9.324 -1.2682  0.2836 -1.1702
 1414Sol     HW 8759   0.524   1.362   9.380 -0.0468 -1.5380  0.2241
 1414Sol     MW 8760   0.603   1.340   9.345 -0.2742 -0.7234 -0.2943
 1415Sol     OW 8761   2.193   0.766   3.677 -0.4705  0.0732  0.2877
 1415Sol     HW 8762   2.283   0.776   3.707 -0.2898  1.3942 -0.6264
 1415Sol     HW 8763   2.148   0.723   3.749  1.3016 -2.3083  0.0497
 1415Sol     MW 8764   2.197   0.763   3.686  0.2915 -0.4950  0.0523
 1416Sol     OW 8765   2.405   1.614   6.775  0.1827  0.5710  0.6411
 1416Sol     HW 8766   2.372   1.698   6.809  0.6701  1.0884 -0.1370
 1416Sol     HW 8767   2.481   1.594   6.830  0.8666  1.3186 -0.0119
 1416Sol     MW 8768   2.409   1.620   6.783  0.3778 -0.1244 -0.7117
 1417Sol     OW 8769   2.890   0.977   1.963  0.0408 -0.1107 -0.0308
 1417Sol     HW 8770   2.801   1.013   1.968 -0.1574 -0.6442  0.3039
 1417Sol     HW 8771   2.880   0.897   1.911  0.4438  0.1849 -0.5789
 1417Sol     MW 8772   2.881   0.973   1.958 -0.7136  0.1383  0.1125
 1418Sol     OW 8773   1.548   2.150   7.143  0.7705  0.7709  0.1494
 1418Sol     HW 8774   1.601   2.076   7.169  0.3217 -0.1590 -1.5527
 1418Sol     HW 8775   1.531   2.137   7.050 -2.6137  0.8990  0.6816
 1418Sol     MW 8776   1.551   2.143   7.137 -0.2558 -0.5158 -0.3746
 1419Sol     OW 8777   0.063   1.286   2.814 -0.0794  0.0496 -0.2704
 1419Sol     HW 8778   0.113   1.318   2.738  1.3863  0.6318  0.9159
 1419Sol     HW 8779   0.125   1.292   2.887 -1.1465 -1.5118  0.7737
 1419Sol     MW 8780   0.073   1.289   2.813  0.2061 -0.0738 -1.0663
 1420Sol     OW 8781   0.340   0.916   2.337 -0.0502  0.2262 -0.4426
 1420Sol     HW 8782   0.311   0.955   2.419  1.0895  0.9184 -0.3658
 1420Sol     HW 8783   0.401   0.980   2.300  1.0882 -1.0490 -0.7911
 1420Sol     MW 8784   0.343   0.925   2.341  1.0998 -0.4110 -0.2004
 1421Sol     OW 8785   1.246   2.244   5.701 -0.2305  0.0102 -0.2271
 1421Sol     HW 8786   1.226   2.332   5.733 -0.0197 -0.7183  1.9873
 1421Sol     HW 8787   1.340   2.246   5.681 -0.4630  0.6092 -1.2913
 1421Sol     MW 8788   1.253   2.252   5.702  0.2159  0.5259  0.1685
 1422Sol     OW 8789   0.133   2.787   2.119  0.1903  0.3535 -0.0268
 1422Sol     HW 8790   0.050   2.791   2.166  0.4351  1.6031  0.3295
 1422Sol     HW 8791   0.117   2.837   2.038 -0.0377 -1.2298 -0.9874
 1422Sol     MW 8792   0.124   2.792   2.116  0.0942  0.4176  0.3215
 1423Sol     OW 8793   1.165   1.086   7.562  0.0299 -0.2968 -0.2477
 1423Sol     HW 8794   1.136   0.996   7.576  0.7731 -0.4444  0.3666
 1423Sol     HW 8795   1.098   1.139   7.606 -0.0584 -0.5789 -0.0363
 1423Sol     MW 8796   1.156   1.083   7.567 -0.1559  0.2605 -0.1652
 1424Sol     OW 8797   0.456   2.052   4.377  0.5305  0.7355  0.3515
 1424Sol     HW 8798   0.404   2.014   4.447  0.4299 -0.4410 -0.3486
 1424Sol     HW 8799   0.447   1.991   4.304  0.5906  1.9740 -0.7088
 1424Sol     MW 8800   0.451   2.043   4.377  0.0698 -0.0441  0.1895
 1425Sol     OW 8801   2.539   2.641   2.626  0.1265  0.0130  0.0580
 1425Sol     HW 8802   2.594   2.707   2.583  0.1508  1.3018  1.9858
 1425Sol     HW 8803   2.489   2.690   2.691 -1.2870 -1.5954  0.2206
 1425Sol     MW 8804   2.540   2.652   2.628  0.8842 -0.4286  0.3270
 1426Sol     OW 8805   1.002   1.096   3.528 -0.0286  0.1935  0.4117
 1426Sol     HW 8806   1.064   1.051   3.585 -0.9299 -0.0289  1.2311
 1426Sol     HW 8807   1.055   1.162   3.482  0.6050  0.7311  1.8914
 1426Sol     MW 8808   1.012   1.098   3.529 -0.2142  0.2696 -0.5668
 1427Sol     OW 8809   1.107   2.243   4.761  0.2643  0.5793 -0.1134
 1427Sol     HW 8810   1.197   2.275   4.761  0.9201 -1.1931 -1.0369
 1427Sol     HW 8811   1.114   2.150   4.781 -1.1819 -0.0110 -2.1231
 1427Sol     MW 8812   1.116   2.238   4.763  0.0818 -0.0560 -0.3169
 1428Sol     OW 8813   0.973   2.988   8.288  0.6618 -0.8099  0.0254
 1428Sol     HW 8814   0.935   3.076   8.286 -1.0667 -1.5579 -1.5380
 1428Sol     HW 8815   0.898   2.929   8.278  2.1425 -2.3585 -2.4785
 1428Sol     MW 8816   0.963   2.991   8.287  0.0613 -0.0068  0.0514
 1429Sol     OW 8817   1.157   2.123   2.830  0.3849 -0.2993 -0.1499
 1429Sol     HW 8818   1.194   2.168   2.905 -0.1404  0.0512 -0.0931
 1429Sol     HW 8819   1.136   2.035   2.862 -0.3043  0.0079  0.2597
 1429Sol     MW 8820   1.158   2.119   2.839  0.0501 -0.7917 -0.4173
 1430Sol     OW 8821   2.039   2.051   8.151 -0.3944 -0.2267  0.3097
 1430Sol     HW 8822   1.991   2.068   8.069 -1.7820 -2.0717  0.7080
 1430Sol     HW 8823   2.023   1.959   8.170  1.5388 -0.3197  1.6482
 1430Sol     MW 8824   2.033   2.045   8.145  0.3496  0.3073 -0.4828
 1431Sol     OW 8825   2.443   2.733   5.768  0.2128 -0.2522  0.7518
 1431Sol     HW 8826   2.500   2.789   5.716  1.6500 -0.1008  2.4321
 1431Sol     HW 8827   2.502   2.679   5.820 -1.1691 -2.0594  0.5197
 1431Sol     MW 8828   2.453   2.733   5.768 -0.6028 -0.0961 -0.0462
 1432Sol     OW 8829   2.694   1.176   4.282 -0.1122 -0.2841  0.1248
 1432Sol     HW 8830   2.622   1.136   4.330 -0.2428  1.2530  1.2395
 1432Sol     HW 8831   2.652   1.222   4.210 -0.2998  0.9378  0.9985
 1432Sol     MW 8832   2.684   1.176   4.280 -0.1756  0.3209 -0.5148
 1433Sol     OW 8833   0.219   0.957   6.020  0.9116 -0.3750 -0.0947
 1433Sol     HW 8834   0.143   0.913   6.059  0.1973  1.2974  0.4444
 1433Sol     HW 8835   0.228   0.917   5.933 -0.0289 -1.2153  0.1788
 1433Sol     MW 8836   0.213   0.949   6.016 -0.0699  0.7481 -0.9219
 1434Sol     OW 8837   0.390   0.644   8.575 -0.8119  0.3817 -0.1672
 1434Sol     HW 8838   0.476   0.672   8.607 -1.6959  1.6620  1.0802
 1434Sol     HW 8839   0.364   0.712   8.514 -0.7328 -0.2676 -0.9424
 1434Sol     MW 8840   0.396   0.652   8.572 -0.3532  0.3876  0.2582
 1435Sol     OW 8841   1.175   2.903   8.901 -0.0351 -0.3967  0.5639
 1435Sol     HW 8842   1.160   2.979   8.958  1.7543  0.3592  0.0403
 1435Sol     HW 8843   1.188   2.940   8.814  0.2257 -1.3480  0.1901
 1435Sol     MW 8844   1.175   2.913   8.898 -0.1885  0.3843 -0.5931
 1436Sol     OW 8845   0.082   2.858   4.675 -0.6222  0.3139 -0.4126
 1436Sol     HW 8846   0.082   2.940   4.626 -0.5289  1.0203  0.7548
 1436Sol     HW 8847   0.174   2.834   4.681 -0.5430  0.8114  0.3789
 1436Sol     MW 8848   0.090   2.863   4.671 -0.0748  0.4852  0.5996
 1437Sol     OW 8849   2.636   1.073   2.019  0.1367 -0.4067  0.2191
 1437Sol     HW 8850   2.659   1.161   2.049  0.9910 -0.3723 -0.5398
 1437Sol     HW 8851   2.594   1.033   2.095  0.7485  0.2717  0.9209
 1437Sol     MW 8852   2.634   1.078   2.029  0.1176 -1.1116 -0.4999
 1438Sol     OW 8853   1.398   1.628   8.361  0.6885 -0.0684 -0.1110
 1438Sol     HW 8854   1.414   1.703   8.304  0.9555 -0.8609 -1.0867
 1438Sol     HW 8855   1.343   1.569   8.309 -0.9021  0.1916  1.2571
 1438Sol     MW 8856   1.395   1.630   8.351 -0.0399 -0.2427  0.2032
 1439Sol     OW 8857   1.406   2.238   9.831  0.4289  0.4062 -0.4497
 1439Sol     HW 8858   1.348   2.265   9.760  0.7432 -0.1730 -0.9269
 1439Sol     HW 8859   1.374   2.152   9.857 -0.4159  1.0995  0.9090
 1439Sol     MW 8860   1.398   2.233   9.827 -0.1124  0.6230  0.3214
 1440Sol     OW 8861   0.419   2.661   9.474  0.1930  0.1845 -0.4960
 1440Sol     HW 8862   0.363   2.632   9.545  0.3896 -1.1333 -0.8632
 1440Sol     HW 8863   0.505   2.625   9.495  0.6982  1.3995 -0.4198
 1440Sol     MW 8864   0.422   2.655   9.482  0.0714  0.2927  0.7525
 1441Sol     OW 8865   2.119   0.852   2.838 -0.0491 -0.6337  0.1969
 1441Sol     HW 8866   2.103   0.899   2.757 -2.0560  0.1635  1.0134
 1441Sol     HW 8867   2.078   0.766   2.826 -3.2645  0.6388  1.4988
 1441Sol     MW 8868   2.114   0.848   2.830 -0.1279  0.4323  0.0350
 1442Sol     OW 8869   3.087   1.726   2.985  0.8373 -0.2482 -0.2141
 1442Sol     HW 8870   3.128   1.743   3.070 -0.4536  0.0945  0.3553
 1442Sol     HW 8871   3.103   1.633   2.969  1.5182 -0.2019  0.1623
 1442Sol     MW 8872   3.092   1.720   2.991  0.2439 -0.0900 -0.0703
 1443Sol     OW 8873   3.277   2.084   3.964 -0.0253  0.0287 -0.0061
 1443Sol     HW 8874   3.313   2.118   4.046  2.0489 -0.6500 -0.6059
 1443Sol     HW 8875   3.260   1.992   3.982  2.7057 -0.7181 -1.0202
 1443Sol     MW 8876   3.279   2.079   3.973 -0.0480 -0.7378  0.2425
 1444Sol     OW 8877   0.782   3.216   6.004 -0.7394 -0.1064  0.4767
 1444Sol     HW 8878   0.863   3.248   6.043  0.4735  0.4663 -2.3339
 1444Sol     HW 8879   0.747   3.292   5.956  0.6339 -2.0741 -3.8827
 1444Sol     MW 8880   0.786   3.226   6.003  0.0511  0.1402 -0.0419
 1445Sol     OW 8881   2.450   1.452   5.381 -0.8462  0.3672 -0.6499
 1445Sol     HW 8882   2.495   1.536   5.367  0.0886 -0.2477 -1.4179
 1445Sol     HW 8883   2.462   1.405   5.299 -0.1845 -1.0584  0.2391
 1445Sol     MW 8884   2.455   1.455   5.373 -0.4296 -0.0476  0.2663
 1446Sol     OW 8885   2.513   0.365   6.055 -0.0772  0.1247  0.2240
 1446Sol     HW 8886   2.503   0.375   5.960 -1.3528 -0.3627  0.2954
 1446Sol     HW 8887   2.527   0.455   6.086 -3.6277  0.8723 -0.0257
 1446Sol     MW 8888   2.513   0.374   6.049  0.4081  0.5077 -0.6060
 1447Sol     OW 8889   2.412   1.333   7.918 -0.4985 -0.0659  0.4236
 1447Sol     HW 8890   2.334   1.388   7.922 -0.9027 -0.6288  0.2885
 1447Sol     HW 8891   2.418   1.292   8.005 -1.1348 -1.0849  0.0001
 1447Sol     MW 8892   2.406   1.334   7.926  0.0389 -1.0856  0.1818
 1448Sol     OW 8893   0.198   1.223   8.954 -0.5765 -0.0464  0.2910
 1448Sol     HW 8894   0.157   1.309   8.949  2.1527  1.2441 -0.7685
 1448Sol     HW 8895   0.134   1.163   8.916 -0.8559  2.1630 -2.8637
 1448Sol     MW 8896   0.189   1.225   8.950 -0.0464  0.0072 -0.0239
 1449Sol     OW 8897   1.860   2.962   3.207  0.7456  0.1592  0.0726
 1449Sol     HW 8898   1.900   2.903   3.143  1.9561  2.1471 -1.0664
 1449Sol     HW 8899   1.791   3.007   3.158  0.1230 -0.0106  0.8022
 1449Sol     MW 8900   1.858   2.961   3.196  0.1239 -0.0614  0.0943
 1450Sol     OW 8901   3.279   0.325   3.043 -0.1888 -0.1308  0.5377
 1450Sol     HW 8902   3.345   0.261   3.068 -0.8206 -1.1929 -0.4936
 1450Sol     HW 8903   3.324   0.385   2.984 -0.0860 -0.7166  0.0193
 1450Sol     MW 8904   3.289   0.325   3.040 -0.3960  0.3986  0.1039
 1451Sol     OW 8905   0.814   2.653   2.830 -0.6274 -0.5258  0.0064
 1451Sol     HW 8906   0.822   2.683   2.920 -0.7291 -1.1354  0.2200
 1451Sol     HW 8907   0.720   2.641   2.816 -0.8086  1.7263 -0.8959
 1451Sol     MW 8908   0.807   2.655   2.837 -0.3289 -0.8700 -0.5601
 1452Sol     OW 8909   2.345   2.122   7.177 -0.4853  0.4678  0.4231
 1452Sol     HW 8910   2.324   2.143   7.086  2.6119  0.7839 -0.2917
 1452Sol     HW 8911   2.307   2.036   7.192 -0.0014 -0.1108 -1.5728
 1452Sol     MW 8912   2.340   2.116   7.170  0.0291  0.0812  0.3652
 1453Sol     OW 8913   3.244   1.585   3.608 -0.0364  0.1784  0.2118
 1453Sol     HW 8914   3.196   1.640   3.548  0.2324 -1.6748 -1.7596
 1453Sol     HW 8915   3.314   1.641   3.643  0.7016  0.8942 -2.3154
 1453Sol     MW 8916   3.246   1.595   3.606 -0.4660 -0.1771 -0.7258
 1454Sol     OW 8917   2.557   0.872   7.021  0.3065 -0.3479  0.2125
 1454Sol     HW 8918   2.647   0.862   6.989  0.2507 -1.5812  0.4346
 1454Sol     HW 8919   2.558   0.954   7.071  1.0724  0.1312 -0.5767
 1454Sol     MW 8920   2.565   0.879   7.023  0.0050 -0.2204 -0.1873
 1455Sol     OW 8921   2.386   0.004   2.919  0.4403 -0.1299  0.5254
 1455Sol     HW 8922   2.315  -0.017   2.858  0.8923 -0.8846  0.2535
 1455Sol     HW 8923   2.342   0.014   3.004 -0.1639  0.7422  0.1245
 1455Sol     MW 8924   2.376   0.003   2.921  0.1869 -0.1909  0.0822
 1456Sol     OW 8925   0.154   3.299   2.619  0.1631 -0.3129  0.2222
 1456Sol     HW 8926   0.219   3.289   2.688  0.0203  1.0290  0.5562
 1456Sol     HW 8927   0.097   3.369   2.649 -0.3216 -0.1919 -0.9340
 1456Sol     MW 8928   0.155   3.304   2.628  0.0739 -0.2159  0.0688
 1457Sol     OW 8929   1.352   3.261   9.530 -0.4869  0.3222 -0.1987
 1457Sol     HW 8930   1.447   3.255   9.532 -0.3682  0.8744 -2.7942
 1457Sol     HW 8931   1.325   3.244   9.620  2.0192 -0.5370  0.4279
 1457Sol     MW 8932   1.358   3.259   9.538  0.1384  0.5094  0.2928
 1458Sol     OW 8933   2.888   0.369   8.810  0.7332  0.4636  0.2604
 1458Sol     HW 8934   2.979   0.385   8.833  0.4174  0.1013  1.8044
 1458Sol     HW 8935   2.878   0.274   8.816  0.0771  0.5617  0.8351
 1458Sol     MW 8936   2.895   0.362   8.813  0.1140  0.1302 -0.7045
 1459Sol     OW 8937   0.177   0.895   2.596 -0.3614 -0.0852 -0.2901
 1459Sol     HW 8938   0.198   0.827   2.661  0.4565  0.0408 -0.4107
 1459Sol     HW 8939   0.122   0.850   2.531 -0.3790 -0.4594 -0.0177
 1459Sol     MW 8940   0.174   0.885   2.596 -1.1587 -1.1332  0.4157
 1460Sol     OW 8941   0.545   2.506   8.744 -0.5005 -0.1859  0.3128
 1460Sol     HW 8942   0.513   2.518   8.834  0.1128  1.8204  0.3005
 1460Sol     HW 8943   0.637   2.535   8.748 -1.4793  3.5310 -1.7048
 1460Sol     MW 8944   0.551   2.510   8.753 -0.5658 -0.3257 -0.1926
 1461Sol     OW 8945   1.577   2.811   6.118  0.1031 -0.5184 -0.0520
 1461Sol     HW 8946   1.580   2.718   6.141  1.8734 -0.5066 -0.1715
 1461Sol     HW 8947   1.522   2.851   6.185 -0.4688 -1.6101  0.1400
 1461Sol     MW 8948   1.572   2.806   6.126 -0.1150 -0.3735 -0.2331
 1462Sol     OW 8949   2.519   0.128   1.903 -0.6352 -0.2170  0.0361
 1462Sol     HW 8950   2.474   0.208   1.876  2.1947  0.8628 -1.7221
 1462Sol     HW 8951   2.502   0.121   1.997 -0.9525  2.4577  0.2109
 1462Sol     MW 8952   2.513   0.135   1.909  0.7033  0.4438  0.3024
 1463Sol     OW 8953   2.084   2.968   9.391 -0.3087  0.3404  0.3168
 1463Sol     HW 8954   2.117   3.024   9.461 -0.4754 -0.9525  1.4674
 1463Sol     HW 8955   2.160   2.954   9.334  0.1295  0.4722  0.8632
 1463Sol     MW 8956   2.094   2.972   9.392 -0.0108 -0.6725 -0.4657
 1464Sol     OW 8957   1.988   0.931   8.387 -0.6921 -0.3454 -0.2575
 1464Sol     HW 8958   1.936   1.005   8.420 -0.2952 -0.0753 -0.2350
 1464Sol     HW 8959   1.950   0.854   8.429  0.4455  0.0946  1.6303
 1464Sol     MW 8960   1.980   0.931   8.394 -0.4447  0.4498 -0.8451
 1465Sol     OW 8961   2.730   3.243   4.110 -0.4277 -0.4466 -0.3801
 1465Sol     HW 8962   2.771   3.324   4.079 -0.9071 -0.4306 -0.9767
 1465Sol     HW 8963   2.655   3.231   4.053  0.4541 -2.0955 -1.2410
 1465Sol     MW 8964   2.727   3.249   4.102 -0.0143 -0.4322 -0.3564
 1466Sol     OW 8965   2.073   1.308   4.307  0.4063 -0.1047  0.0558
 1466Sol     HW 8966   1.990   1.352   4.326 -0.4378 -1.8716  0.5806
 1466Sol     HW 8967   2.136   1.350   4.366 -0.1767  1.0220 -0.1090
 1466Sol     MW 8968   2.071   1.315   4.314  0.1817  0.3881 -0.3879
 1467Sol     OW 8969   0.306   3.219   6.325 -0.4107  0.2816 -0.2090
 1467Sol     HW 8970   0.389   3.195   6.368 -0.7201  1.7216  1.2227
 1467Sol     HW 8971   0.240   3.208   6.393 -1.0326  1.6897 -0.5810
 1467Sol     MW 8972   0.308   3.216   6.335 -0.2512 -0.5809 -0.0514
 1468Sol     OW 8973   1.904   2.701   5.002 -0.5260  0.4398 -0.0007
 1468Sol     HW 8974   1.958   2.780   4.999  0.3300 -0.0726  1.5485
 1468Sol     HW 8975   1.963   2.632   5.029 -1.1453 -0.8833 -1.8789
 1468Sol     MW 8976   1.914   2.702   5.004  0.6439  0.1385 -0.2785
 1469Sol     OW 8977   2.780   3.368   6.973  0.4524 -0.2087 -0.2120
 1469Sol     HW 8978   2.828   3.391   7.053  0.1687  1.0612 -0.3951
 1469Sol     HW 8979   2.699   3.419   6.979 -0.6173 -1.8735 -0.1958
 1469Sol     MW 8980   2.777   3.374   6.981  0.2731 -0.0855  0.0852
 1470Sol     OW 8981   2.642   3.091   8.874 -0.2435  0.8878 -0.3099
 1470Sol     HW 8982   2.610   3.142   8.799  2.3563 -0.5649 -2.4973
 1470Sol     HW 8983   2.619   3.001   8.853  0.5417  0.4712  0.6046
 1470Sol     MW 8984   2.637   3.088   8.865 -0.2333  0.2779 -0.2019
 1471Sol     OW 8985   1.031   2.803   6.369 -0.2942  0.5768 -0.1588
 1471Sol     HW 8986   1.045   2.884   6.320  0.9386 -0.9640 -2.4847
 1471Sol     HW 8987   1.104   2.799   6.431  0.4594  0.5666 -1.0330
 1471Sol     MW 8988   1.039   2.810   6.370 -0.3012 -0.3860 -0.2449
 1472Sol     OW 8989   2.011   0.417   4.628 -0.1427 -0.4176  0.0153
 1472Sol     HW 8990   2.010   0.449   4.718 -2.3257 -1.6411  0.4431
 1472Sol     HW 8991   1.941   0.352   4.624  0.4189 -0.9333 -2.3718
 1472Sol     MW 8992   2.005   0.414   4.636 -0.0094  1.0771 -0.1213
 1473Sol     OW 8993   2.886   0.969   9.601 -0.9174  0.1268 -0.0042
 1473Sol     HW 8994   2.964   1.011   9.567  0.0000 -1.4814  0.0466
 1473Sol     HW 8995   2.813   1.016   9.561  0.1014  0.2821 -1.7130
 1473Sol     MW 8996   2.887   0.977   9.595 -0.4854  0.3482 -0.4901
 1474Sol     OW 8997   0.022   1.525   4.393 -0.1781  0.3271 -0.3912
 1474Sol     HW 8998  -0.027   1.583   4.452 -1.2625 -0.1859 -0.7624
 1474Sol     HW 8999  -0.025   1.441   4.398 -1.8948  0.9819 -3.9557
 1474Sol     MW 9000   0.013   1.522   4.399 -0.5110 -0.5389 -0.3773
 1475Sol     OW 9001   1.050   1.081   5.683  0.6365 -0.1243 -0.5616
 1475Sol     HW 9002   1.029   1.173   5.699  0.6253 -0.1855 -0.2210
 1475Sol     HW 9003   1.047   1.040   5.769  4.0070  0.2278 -0.2071
 1475Sol     MW 9004   1.048   1.085   5.692  0.1098 -0.3270 -0.2159
 1476Sol     OW 9005   0.610   0.426   3.127 -0.4586  0.3459  0.3180
 1476Sol     HW 9006   0.600   0.428   3.222  0.8170 -1.0607  0.4928
 1476Sol     HW 9007   0.525   0.395   3.094 -0.6885  0.2083  1.0334
 1476Sol     MW 9008   0.601   0.424   3.132 -0.2501 -0.0455  0.3046
 1477Sol     OW 9009   3.179   3.394   7.036 -0.7853  0.2532 -0.8014
 1477Sol     HW 9010   3.181   3.348   7.121 -0.7810  3.3648  0.9380
 1477Sol     HW 9011   3.226   3.475   7.052 -2.4077  1.7274 -3.3123
 1477Sol     MW 9012   3.183   3.397   7.045 -0.1468  0.0441  0.4028
 1478Sol     OW 9013   0.795   1.882   4.682 -0.4650 -0.5683 -0.4724
 1478Sol     HW 9014   0.884   1.855   4.659 -0.3460 -1.0305  0.4880
 1478Sol     HW 9015   0.769   1.943   4.614  1.3673  1.1834  0.3569
 1478Sol     MW 9016   0.800   1.885   4.674  0.0517 -0.2018  0.0927
 1479Sol     OW 9017   1.609   0.694   4.846  0.6620 -0.4077 -0.0579
 1479Sol     HW 9018   1.630   0.600   4.849 -2.9601 -1.3832 -1.9179
 1479Sol     HW 9019   1.542   0.705   4.913  0.4720  0.6796 -0.4263
 1479Sol     MW 9020   1.605   0.686   4.852 -0.1699  0.2186  0.1342
 1480Sol     OW 9021   2.179   2.973   2.849 -0.2913 -0.3090  0.0099
 1480Sol     HW 9022   2.145   3.060   2.873  1.6354  0.7543 -0.9737
 1480Sol     HW 9023   2.167   2.969   2.754  1.3851 -0.3068 -0.2166
 1480Sol     MW 9024   2.175   2.981   2.842 -0.1765 -0.0389 -0.1301
 1481Sol     OW 9025   1.294   1.254   1.550  1.1346 -0.1050 -0.0822
 1481Sol     HW 9026   1.268   1.213   1.632  1.3686 -2.5665 -1.2079
 1481Sol     HW 9027   1.387   1.273   1.562  2.0523 -3.7428 -1.0615
 1481Sol     MW 9028   1.300   1.252   1.559 -0.0700  0.7370  0.3893
 1482Sol     OW 9029   0.353   2.971   2.434 -0.1015 -0.4630 -0.1551
 1482Sol     HW 9030   0.388   2.883   2.438 -0.6609 -0.7021 -0.4336
 1482Sol     HW 9031   0.394   3.017   2.508  0.4144 -0.8673 -0.1887
 1482Sol     MW 9032   0.360   2.968   2.441 -0.2307 -0.1250 -0.5366
 1483Sol     OW 9033   0.735   3.247   3.841  0.3057 -0.4413 -0.1391
 1483Sol     HW 9034   0.759   3.174   3.784 -0.5321 -1.3230  0.6028
 1483Sol     HW 9035   0.674   3.208   3.905 -0.7114  1.0591 -0.1647
 1483Sol     MW 9036   0.732   3.237   3.842 -0.2572 -0.2022  0.0182
 1484Sol     OW 9037   1.317   1.342   4.092  0.0122 -0.0913  0.0800
 1484Sol     HW 9038   1.265   1.271   4.053  1.4499 -1.0097 -0.2312
 1484Sol     HW 9039   1.311   1.413   4.028  0.0260 -0.5741 -0.4676
 1484Sol     MW 9040   1.312   1.342   4.083  0.3148  0.3396  0.8271
 1485Sol     OW 9041   1.700   1.767   6.773  0.2860  0.3075  0.1086
 1485Sol     HW 9042   1.760   1.767   6.698  0.1359  1.1743 -0.0162
 1485Sol     HW 9043   1.745   1.817   6.840 -0.0893  0.5491  0.1830
 1485Sol     MW 9044   1.709   1.772   6.772  0.3910  0.1678  0.0102
 1486Sol     OW 9045   0.810   2.976   4.211 -0.4005  0.1337  0.3795
 1486Sol     HW 9046   0.854   3.051   4.171  0.7378 -0.9219 -0.4221
 1486Sol     HW 9047   0.778   2.926   4.136 -3.2869  1.0370  0.9573
 1486Sol     MW 9048   0.811   2.978   4.200  0.2525  0.0884  0.4323
 1487Sol     OW 9049   2.554   2.019   6.988 -0.4035 -0.5616  0.4959
 1487Sol     HW 9050   2.597   2.104   6.976  0.4545 -0.9086  1.0708
 1487Sol     HW 9051   2.533   2.016   7.081  0.2144 -1.2793  0.6174
 1487Sol     MW 9052   2.556   2.027   6.995  1.0237 -0.4734 -0.3570
 1488Sol     OW 9053   1.118   3.217   3.498  0.3217  0.1993  0.0363
 1488Sol     HW 9054   1.054   3.166   3.549 -1.9015  1.3860 -1.5209
 1488Sol     HW 9055   1.158   3.275   3.563 -1.0748  0.3315  0.8081
 1488Sol     MW 9056   1.116   3.218   3.509  0.0250  0.4340  0.5071
 1489Sol     OW 9057   1.991   2.609   6.947 -0.6210  0.2152  0.0130
 1489Sol     HW 9058   1.977   2.690   6.996  0.0142  2.6630 -3.6107
 1489Sol     HW 9059   1.921   2.550   6.975 -2.6951  2.9865  0.7884
 1489Sol     MW 9060   1.984   2.611   6.954  0.1734  0.4625  0.6469
 1490Sol     OW 9061   2.442   1.245   8.157 -0.1325  0.3431 -0.2386
 1490Sol     HW 9062   2.530   1.209   8.168  0.5165  1.8173 -0.3884
 1490Sol     HW 9063   2.427   1.295   8.238 -0.3671  1.0440 -0.7112
 1490Sol     MW 9064   2.448   1.247   8.166 -0.6403 -0.1027  0.3923
 1491Sol     OW 9065   2.198   1.213   9.304 -0.6281 -0.1428  0.0884
 1491Sol     HW 9066   2.255   1.284   9.333 -1.2166  0.0147  0.8761
 1491Sol     HW 9067   2.256   1.153   9.257 -0.1070  0.7981 -0.4811
 1491Sol     MW 9068   2.208   1.214   9.303 -0.6588  0.4566  0.2588
 1492Sol     OW 9069   2.887   2.218   8.168 -0.3013  0.3772 -0.0826
 1492Sol     HW 9070   2.972   2.261   8.161 -1.1915  2.2071  0.1772
 1492Sol     HW 9071   2.889   2.149   8.101  1.0462  0.9712 -0.6607
 1492Sol     MW 9072   2.895   2.216   8.162 -0.0518 -0.3402 -0.5389
 1493Sol     OW 9073   1.055   1.179   8.603  0.1814  0.4880 -0.4882
 1493Sol     HW 9074   0.988   1.247   8.596  0.0255  0.3362 -0.4668
 1493Sol     HW 9075   1.132   1.217   8.560 -0.0946  0.4283 -1.0414
 1493Sol     MW 9076   1.056   1.189   8.599 -0.1576  0.3791 -0.0259
 1494Sol     OW 9077   2.212   0.147   9.602  0.1620 -0.0996 -0.1151
 1494Sol     HW 9078   2.178   0.145   9.513  0.4853  1.8539 -0.3126
 1494Sol     HW 9079   2.170   0.223   9.642  1.0875 -0.1364  0.9599
 1494Sol     MW 9080   2.205   0.154   9.598  0.5625 -0.5019  0.7577
 1495Sol     OW 9081   2.833   1.612   8.139 -0.0618 -0.5990 -0.2660
 1495Sol     HW 9082   2.829   1.598   8.044  2.1571  1.0344 -0.6543
 1495Sol     HW 9083   2.870   1.531   8.173 -0.2774 -0.9654 -0.8976
 1495Sol     MW 9084   2.836   1.604   8.133  0.1679  0.1599  0.5076
 1496Sol     OW 9085   0.750   1.892   9.522 -0.3022  0.2256 -0.3890
 1496Sol     HW 9086   0.737   1.964   9.584 -1.2327 -0.6459  0.4635
 1496Sol     HW 9087   0.842   1.867   9.534 -0.4272  0.1692  0.5482
 1496Sol     MW 9088   0.757   1.896   9.529  0.4533 -0.4418 -0.0470
 1497Sol     OW 9089   1.230   2.626   7.392 -0.0550  0.3273  0.6063
 1497Sol     HW 9090   1.302   2.570   7.420  0.9637  0.0419 -2.4228
 1497Sol     HW 9091   1.250   2.712   7.430  1.8660  0.2346 -0.1584
 1497Sol     MW 9092   1.238   2.629   7.398  0.3548  0.4517  0.2241
 1498Sol     OW 9093   1.327   2.595   7.847 -0.1406  0.6850  0.7112
 1498Sol     HW 9094   1.345   2.502   7.863  1.4401  1.0913  1.4504
 1498Sol     HW 9095   1.373   2.615   7.765 -0.0914  0.9126  0.7922
 1498Sol     MW 9096   1.333   2.589   7.841 -0.0051  0.1076 -0.0362
 1499Sol     OW 9097   1.266   1.956   4.508  0.1058 -0.5510  0.2578
 1499Sol     HW 9098   1.239   1.932   4.419  1.4234 -1.0022 -0.0199
 1499Sol     HW 9099   1.192   2.007   4.542 -0.3098 -0.1805 -1.1758
 1499Sol     MW 9100   1.257   1.959   4.503  0.0671  0.1681  0.1513
 1500Sol     OW 9101   0.113   1.584   6.924 -0.5779 -0.0698 -0.2695
 1500Sol     HW 9102   0.194   1.632   6.908 -1.1998  0.6082 -1.4283
 1500Sol     HW 9103   0.049   1.623   6.864 -1.6289 -0.9480  0.2536
 1500Sol     MW 9104   0.115   1.592   6.918  0.3004  0.1897  0.4566
 1501Sol     OW 9105   2.235   0.163   4.320  0.2972 -0.0634 -0.1450
 1501Sol     HW 9106   2.278   0.078   4.317  0.9567  0.2442  0.4117
 1501Sol     HW 9107   2.229   0.184   4.413  2.3068  1.5643 -0.3479
 1501Sol     MW 9108   2.238   0.158   4.328  0.0401 -0.0929 -0.7145
 1502Sol     OW 9109   2.732   2.336   3.664 -0.0716  0.6489 -0.4561
 1502Sol     HW 9110   2.795   2.399   3.629  1.0085  1.9681  3.5769
 1502Sol     HW 9111   2.779   2.253   3.666 -0.1759  0.5342 -2.1012
 1502Sol     MW 9112   2.742   2.334   3.661 -0.2950 -0.1173 -0.1148
 1503Sol     OW 9113   1.957   1.728   8.904 -0.6812 -0.2907  0.1013
 1503Sol     HW 9114   1.972   1.640   8.936  0.2264 -0.0492  0.3330
 1503Sol     HW 9115   1.968   1.784   8.981 -0.7456  0.0788 -0.1567
 1503Sol     MW 9116   1.959   1.726   8.914 -0.1118  0.4516 -0.6568
 1504Sol     OW 9117   3.207   1.030   7.123  0.2786  0.0953 -0.0832
 1504Sol     HW 9118   3.141   0.992   7.181  0.6914  0.2811  0.5187
 1504Sol     HW 9119   3.173   1.017   7.035 -0.7238  0.5081  0.2410
 1504Sol     MW 9120   3.198   1.025   7.120  0.5211 -0.4674 -0.1736
 1505Sol     OW 9121   2.118   0.641   7.322  0.0168 -0.3800  0.8355
 1505Sol     HW 9122   2.050   0.596   7.272 -0.6334 -0.2212  1.5702
 1505Sol     HW 9123   2.195   0.584   7.314 -0.2105 -0.5927  0.0588
 1505Sol     MW 9124   2.119   0.632   7.316 -0.3088 -0.1799 -0.1680
 1506Sol     OW 9125   1.580   3.341   4.543  0.0635 -0.2377  0.0594
 1506Sol     HW 9126   1.592   3.260   4.592 -0.6278 -0.6339 -0.4264
 1506Sol     HW 9127   1.658   3.348   4.489 -0.7634 -1.5970 -1.3500
 1506Sol     MW 9128   1.588   3.334   4.543 -0.2654  0.3297  0.2181
 1507Sol     OW 9129   0.448   3.263   5.348 -0.6406 -0.3248  0.1984
 1507Sol     HW 9130   0.497   3.189   5.311  0.2162  0.0989  0.4717
 1507Sol     HW 9131   0.476   3.266   5.439  1.8978  2.4002 -0.5860
 1507Sol     MW 9132   0.455   3.256   5.353 -0.0027 -0.3693  0.2351
 1508Sol     OW 9133   1.798   2.140   2.347  0.5616  0.4257  0.1628
 1508Sol     HW 9134   1.844   2.213   2.388  1.4983  0.3019 -0.6597
 1508Sol     HW 9135   1.759   2.177   2.268 -0.4705  0.4477  0.6753
 1508Sol     MW 9136   1.799   2.150   2.344 -0.2714  0.2110 -0.4127
 1509Sol     OW 9137   0.031   3.415   7.788  0.2487  0.3457  0.2494
 1509Sol     HW 9138  -0.020   3.484   7.830 -0.0579  0.5910 -0.5140
 1509Sol     HW 9139   0.122   3.440   7.803  0.1370  1.0143 -0.1756
 1509Sol     MW 9140   0.034   3.423   7.793  0.0557  0.4841 -0.0925
 1510Sol     OW 9141   2.830   1.381   3.154 -0.5604  0.0904 -0.6053
 1510Sol     HW 9142   2.738   1.407   3.142 -0.6946  0.0106  0.1977
 1510Sol     HW 9143   2.847   1.320   3.082 -1.0076  0.4360 -1.0119
 1510Sol     MW 9144   2.823   1.378   3.147  0.2354  0.2209  0.0410
 1511Sol     OW 9145   0.356   2.497   1.491  0.1254 -0.8697  0.1184
 1511Sol     HW 9146   0.351   2.464   1.580 -0.4406 -1.7949 -0.2520
 1511Sol     HW 9147   0.267   2.492   1.458  0.2514 -0.1057 -0.3514
 1511Sol     MW 9148   0.348   2.494   1.496 -0.3819  0.3518  0.1552
 1512Sol     OW 9149   1.638   1.793   4.591  0.0887 -0.2078  0.4728
 1512Sol     HW 9150   1.626   1.708   4.550 -0.0390  0.8829 -1.8505
 1512Sol     HW 9151   1.565   1.802   4.651 -0.3319 -1.4176  0.1491
 1512Sol     MW 9152   1.631   1.787   4.592 -0.0422 -0.2907 -0.0011
 1513Sol     OW 9153   2.020   2.886   5.531  0.1985  0.7984  0.0150
 1513Sol     HW 9154   1.979   2.800   5.540  0.6840  0.7645  2.1150
 1513Sol     HW 9155   1.953   2.940   5.488 -0.8747 -0.1051  0.5295
 1513Sol     MW 9156   2.010   2.883   5.528 -0.7274 -0.2825  0.0581
 1514Sol     OW 9157   0.103   1.039   8.345 -0.4354  0.4494  0.1020
 1514Sol     HW 9158   0.142   1.031   8.259 -0.3134  0.5797  0.1449
 1514Sol     HW 9159   0.072   1.130   8.350  1.1213  0.9667  0.8489
 1514Sol     MW 9160   0.104   1.047   8.338 -0.5851  0.0447 -0.0311
 1515Sol     OW 9161   2.776   0.512   5.990 -0.2076 -1.3090 -0.4660
 1515Sol     HW 9162   2.779   0.548   5.901  1.0493  1.4225  0.6107
 1515Sol     HW 9163   2.705   0.560   6.033  1.2746 -0.2663  0.9006
 1515Sol     MW 9164   2.770   0.520   5.986 -0.4923 -0.2266 -0.1558
 1516Sol     OW 9165   2.906   0.810   3.102  0.2582  0.3173 -0.4667
 1516Sol     HW 9166   2.962   0.846   3.171 -1.1447 -0.7125  1.2844
 1516Sol     HW 9167   2.818   0.839   3.126 -0.1098  1.0120 -2.5620
 1516Sol     MW 9168   2.903   0.816   3.111 -0.4842 -0.3716  0.0243
 1517Sol     OW 9169   0.301   1.882   8.630  0.2494 -0.0825 -0.2603
 1517Sol     HW 9170   0.345   1.852   8.709 -1.8257 -0.5905  0.7388
 1517Sol     HW 9171   0.339   1.968   8.613  2.8092 -1.2121 -0.4194
 1517Sol     MW 9172   0.308   1.887   8.635 -0.0739  0.8855 -0.1086
 1518Sol     OW 9173   0.348   3.229   2.791 -0.0465  0.2379 -0.7111
 1518Sol     HW 9174   0.401   3.180   2.729 -0.7902  2.4196 -3.1485
 1518Sol     HW 9175   0.306   3.162   2.845  5.9249 -1.6319  2.1699
 1518Sol     MW 9176   0.349   3.219   2.791  0.0979  0.0786 -0.7324
 1519Sol     OW 9177   2.263   1.785   5.717 -0.3892 -0.1172  0.0014
 1519Sol     HW 9178   2.354   1.757   5.706 -0.4355 -0.1173 -0.4112
 1519Sol     HW 9179   2.265   1.852   5.785  0.2094  1.3706 -1.4380
 1519Sol     MW 9180   2.271   1.788   5.722  0.5260  0.3175  0.6231
 1520Sol     OW 9181   1.257   0.587   5.356 -0.1142  0.3672  0.0999
 1520Sol     HW 9182   1.250   0.496   5.329 -0.4273  0.7248 -1.0621
 1520Sol     HW 9183   1.343   0.594   5.397  0.1105 -0.3345 -0.2586
 1520Sol     MW 9184   1.264   0.580   5.357 -0.2674  0.3849 -0.5293
 1521Sol     OW 9185   2.022   0.067   2.575 -0.1991 -0.7552  0.7074
 1521Sol     HW 9186   1.979   0.135   2.628  0.0686  1.7078 -2.1096
 1521Sol     HW 9187   1.958  -0.003   2.569 -2.6533  1.5104 -0.7178
 1521Sol     MW 9188   2.012   0.067   2.579  0.8396 -0.3840 -0.2827
 1522Sol     OW 9189   2.230   1.369   2.789  0.0344  0.2354  0.2266
 1522Sol     HW 9190   2.206   1.417   2.710  0.1891 -0.4835 -0.2531
 1522Sol     HW 9191   2.149   1.365   2.840 -0.0855  0.6216  0.0742
 1522Sol     MW 9192   2.221   1.373   2.787 -0.2114 -0.0545 -0.4368
 1523Sol     OW 9193   0.358   1.637   9.254  0.7377  0.3895 -0.3488
 1523Sol     HW 9194   0.366   1.545   9.228 -0.0402  0.8883 -2.4546
 1523Sol     HW 9195   0.407   1.643   9.336  1.4616 -1.7346 -0.5955
 1523Sol     MW 9196   0.363   1.629   9.259 -0.0396  0.1580  0.0817
 1524Sol     OW 9197   0.899   1.385   2.280  0.1200  0.0368 -0.1636
 1524Sol     HW 9198   0.958   1.403   2.207 -0.7123  1.1392 -0.5935
 1524Sol     HW 9199   0.944   1.422   2.356  0.0127  0.8381 -0.4821
 1524Sol     MW 9200   0.908   1.390   2.280 -0.8554  0.6343 -0.2755
 1525Sol     OW 9201   2.073   2.844   8.677  0.0994 -0.1991  0.6039
 1525Sol     HW 9202   1.995   2.845   8.732 -1.3216 -0.0376 -1.3969
 1525Sol     HW 9203   2.046   2.801   8.596  2.2825 -0.8237  0.1529
 1525Sol     MW 9204   2.064   2.840   8.675 -0.5051  0.0598 -0.1933
 1526Sol     OW 9205   3.010   1.008  10.058  0.0426  0.4743 -0.4181
 1526Sol     HW 9206   3.075   0.961  10.005 -1.1407 -0.4229 -1.0966
 1526Sol     HW 9207   2.975   0.941  10.117 -0.3904  0.9218 -0.1684
 1526Sol     MW 9208   3.013   0.998  10.058 -0.2982  0.1221 -0.1374
 1527Sol     OW 9209   2.551   2.024   5.295 -0.1784  0.2241  0.2619
 1527Sol     HW 9210   2.460   1.997   5.288 -0.0283 -0.0490 -0.6480
 1527Sol     HW 9211   2.548   2.111   5.335 -0.7485 -0.4362  1.6806
 1527Sol     MW 9212   2.543   2.029   5.298  0.6520  0.0889  0.3624
 1528Sol     OW 9213   1.265   0.577   7.263 -0.4130  0.0132  0.4214
 1528Sol     HW 9214   1.198   0.550   7.200 -0.1663 -0.4072  0.3314
 1528Sol     HW 9215   1.347   0.547   7.224 -0.3137 -0.7812  1.2226
 1528Sol     MW 9216   1.266   0.572   7.254 -0.1666 -0.4216 -0.2746
 1529Sol     OW 9217   2.683   1.300   7.836  0.3284  0.2014 -0.3815
 1529Sol     HW 9218   2.711   1.217   7.876  0.9993  0.0797 -1.0981
 1529Sol     HW 9219   2.593   1.312   7.868  1.1719  0.6151  1.9770
 1529Sol     MW 9220   2.677   1.293   7.843 -0.0750  0.7125 -0.1448
 1530Sol     OW 9221   3.321   1.329   9.235  0.0937 -0.6061 -0.4900
 1530Sol     HW 9222   3.315   1.413   9.281 -0.0779 -0.0048 -1.5844
 1530Sol     HW 9223   3.388   1.280   9.283 -0.6362 -0.3034  0.8651
 1530Sol     MW 9224   3.327   1.332   9.244 -0.4187 -0.0270 -0.4957
 1531Sol     OW 9225   0.717   1.576   9.359  0.8303 -0.5094 -0.4190
 1531Sol     HW 9226   0.649   1.621   9.409 -1.4868 -2.3789 -1.7828
 1531Sol     HW 9227   0.757   1.644   9.306 -2.8455 -0.0037 -2.7188
 1531Sol     MW 9228   0.715   1.586   9.359  0.2053  0.2963 -0.2730
 1532Sol     OW 9229   2.165   3.391   3.086 -0.5133  0.0054  0.4006
 1532Sol     HW 9230   2.091   3.442   3.054 -0.2480 -1.1919 -2.2787
 1532Sol     HW 9231   2.152   3.304   3.048  1.9893 -0.3562  0.3109
 1532Sol     MW 9232   2.157   3.388   3.080  0.6834 -0.5602 -0.6891
 1533Sol     OW 9233   0.532   1.284   4.870  0.0021 -0.0271 -0.5506
 1533Sol     HW 9234   0.441   1.254   4.867 -0.1769  0.2149  1.4281
 1533Sol     HW 9235   0.566   1.249   4.953  1.7054 -0.1016 -1.2626
 1533Sol     MW 9236   0.527   1.278   4.877 -0.2314 -0.1846 -0.0789
 1534Sol     OW 9237   0.889   0.813   5.273 -0.0742 -0.2749  0.1466
 1534Sol     HW 9238   0.815   0.804   5.213  0.5615  0.0209 -0.6894
 1534Sol     HW 9239   0.961   0.770   5.228  0.8625  1.5049 -0.1188
 1534Sol     MW 9240   0.889   0.809   5.264 -0.1783  0.0390 -0.0620
 1535Sol     OW 9241   3.199   1.017   7.541 -0.6099 -0.7061  0.2628
 1535Sol     HW 9242   3.280   0.973   7.515 -0.2750  0.4434 -0.6612
 1535Sol     HW 9243   3.134   0.988   7.478 -0.8592 -1.3921  0.8251
 1535Sol     MW 9244   3.200   1.011   7.533 -0.0097 -0.0765  0.3727
 1536Sol     OW 9245   3.071   1.283   8.429  0.2494 -0.0461 -0.5413
 1536Sol     HW 9246   3.153   1.296   8.383 -0.1743  1.4693 -0.9063
 1536Sol     HW 9247   3.095   1.281   8.522  0.4336  3.1072 -0.4543
 1536Sol     MW 9248   3.080   1.284   8.433 -0.4897  0.3244  0.0452
 1537Sol     OW 9249   1.354   3.155   8.139  0.2703  0.1159 -0.0251
 1537Sol     HW 9250   1.272   3.197   8.114 -0.1884 -0.1964  0.9050
 1537Sol     HW 9251   1.360   3.168   8.234  1.3912  0.2991 -0.1174
 1537Sol     MW 9252   1.347   3.160   8.145 -0.3131  0.0547  0.1083
 1538Sol     OW 9253   1.558   1.322   5.088 -0.1837  0.6376 -0.3467
 1538Sol     HW 9254   1.489   1.257   5.076 -1.7724  2.1379  0.5406
 1538Sol     HW 9255   1.563   1.334   5.182  2.5518 -0.7619 -0.2670
 1538Sol     MW 9256   1.552   1.317   5.095 -0.1111 -0.0631  0.0069
 1539Sol     OW 9257   1.859   1.307   5.303 -0.1263 -0.0452 -0.2832
 1539Sol     HW 9258   1.914   1.303   5.382  0.3443  1.1126 -0.5325
 1539Sol     HW 9259   1.906   1.366   5.244 -1.3588  0.5280 -0.7236
 1539Sol     MW 9260   1.868   1.312   5.305 -0.1036 -0.7316 -0.8937
 1540Sol     OW 9261   2.677   1.093   4.629 -0.6330 -0.0827  0.0904
 1540Sol     HW 9262   2.741   1.152   4.588 -1.7272  1.1345  0.1146
 1540Sol     HW 9263   2.609   1.081   4.563 -1.7844  0.8924  1.0747
 1540Sol     MW 9264   2.677   1.097   4.619 -0.4216 -0.1673 -0.2463
 1541Sol     OW 9265   2.317   0.372   8.937  0.3824  0.2729 -0.2122
 1541Sol     HW 9266   2.367   0.298   8.903 -0.3251 -0.4456  0.2922
 1541Sol     HW 9267   2.280   0.413   8.859  1.9393  0.9599 -0.6116
 1541Sol     MW 9268   2.318   0.369   8.927 -0.3935 -0.1056 -0.3068
 1542Sol     OW 9269   1.323   1.949   2.688  0.3893 -0.3790  0.5431
 1542Sol     HW 9270   1.376   1.996   2.623  1.5409 -1.3897  0.7435
 1542Sol     HW 9271   1.273   2.018   2.731  0.2759  0.4028 -0.8136
 1542Sol     MW 9272   1.324   1.960   2.686 -0.4427 -0.1410 -0.2088
 1543Sol     OW 9273   0.549   0.057   5.261  0.7023  0.2387  0.0152
 1543Sol     HW 9274   0.620   0.027   5.203  0.3479 -1.6829  0.5164
 1543Sol     HW 9275   0.507  -0.024   5.289  1.2597  1.0775  3.4783
 1543Sol     MW 9276   0.552   0.047   5.258  0.0103  0.3718 -0.3534
 1544Sol     OW 9277   2.192   2.521   7.136 -0.3543  0.0616 -0.0099
 1544Sol     HW 9278   2.172   2.437   7.176 -2.2152  1.2120  1.5546
 1544Sol     HW 9279   2.118   2.538   7.078  0.4414  0.2242 -0.9945
 1544Sol     MW 9280   2.184   2.515   7.134 -0.0618  0.3045 -0.0787
 1545Sol     OW 9281   1.005   3.295   8.578 -0.4228  0.0712  0.1156
 1545Sol     HW 9282   1.012   3.266   8.669 -1.2422 -1.4727 -0.3046
 1545Sol     HW 9283   1.095   3.306   8.549 -0.1155 -1.1241  0.5923
 1545Sol     MW 9284   1.014   3.294   8.584  0.3792  0.1772 -0.0285
 1546Sol     OW 9285   1.328   2.637   9.506 -0.3328 -0.1352  0.0379
 1546Sol     HW 9286   1.390   2.709   9.522 -1.6443  0.6430  1.8886
 1546Sol     HW 9287   1.249   2.681   9.474 -0.6668 -0.9016 -0.1880
 1546Sol     MW 9288   1.327   2.648   9.505 -0.5453 -0.1457  0.0129
 1547Sol     OW 9289   1.674   3.382   3.151  0.0181 -0.4515 -0.4085
 1547Sol     HW 9290   1.592   3.338   3.127 -0.2854  0.3916 -0.9449
 1547Sol     HW 9291   1.706   3.418   3.068  1.6267 -1.9222 -0.4552
 1547Sol     MW 9292   1.670   3.381   3.141 -0.1533  0.3121  0.1692
 1548Sol     OW 9293   0.033   1.530   8.463 -0.5590  0.1976 -0.2351
 1548Sol     HW 9294   0.052   1.544   8.556 -0.5288 -0.9985 -0.0510
 1548Sol     HW 9295   0.075   1.604   8.418  0.1544  0.3172  0.6246
 1548Sol     MW 9296   0.038   1.538   8.467 -0.1290 -0.0860  0.3944
 1549Sol     OW 9297   1.747   1.328   2.831 -0.0813 -0.1080  0.1109
 1549Sol     HW 9298   1.692   1.333   2.909 -0.0416  1.4348  0.0567
 1549Sol     HW 9299   1.693   1.281   2.767 -0.6753 -0.1159  0.6081
 1549Sol     MW 9300   1.737   1.324   2.832 -0.3974  0.5995  0.3926
 1550Sol     OW 9301   2.652   2.481   7.212  0.0365  0.5759 -0.2817
 1550Sol     HW 9302   2.725   2.541   7.194  0.3856  0.1793 -0.1836
 1550Sol     HW 9303   2.583   2.509   7.152  0.1859  1.0970 -0.2193
 1550Sol     MW 9304   2.652   2.489   7.205 -0.0610 -0.2673 -0.1770
 1551Sol     OW 9305   2.221   1.450   8.996 -0.3969  0.0926 -0.4494
 1551Sol     HW 9306   2.126   1.443   9.006 -0.2293  1.1677  2.2685
 1551Sol     HW 9307   2.233   1.511   8.924 -1.7476 -0.8456 -1.5043
 1551Sol     MW 9308   2.213   1.455   8.991 -0.2177 -0.6460 -0.2098
 1552Sol     OW 9309   1.138   1.215   6.982 -0.3283 -0.0452  0.3014
 1552Sol     HW 9310   1.192   1.215   6.903 -1.4263  0.4594 -0.4626
 1552Sol     HW 9311   1.136   1.124   7.010  0.9919 -0.0495  0.3865
 1552Sol     MW 9312   1.142   1.207   6.977 -0.7736 -0.2934 -0.4580
 1553Sol     OW 9313   2.418   0.062   5.275 -0.1384  1.0418  0.1933
 1553Sol     HW 9314   2.457   0.057   5.188 -0.2074  1.0623  0.1610
 1553Sol     HW 9315   2.368   0.144   5.274  2.1193  2.4923  1.1772
 1553Sol     MW 9316   2.417   0.069   5.268  0.3140 -0.4142 -0.2967
 1554Sol     OW 9317   2.932   3.265   5.355 -0.0586 -0.1055  0.1839
 1554Sol     HW 9318   2.952   3.359   5.361 -2.0475  0.3272  0.5113
 1554Sol     HW 9319   2.977   3.236   5.275  0.7525  1.0832  0.1962
 1554Sol     MW 9320   2.937   3.271   5.348 -0.1192  0.5747  0.5399
 1555Sol     OW 9321   1.559   1.303   1.602 -0.4607  0.0068  0.2582
 1555Sol     HW 9322   1.575   1.388   1.562 -0.0097 -0.6285 -0.9001
 1555Sol     HW 9323   1.631   1.291   1.663  0.4028 -0.3084 -0.8201
 1555Sol     MW 9324   1.567   1.310   1.604 -0.1117  0.0313 -0.0883
 1556Sol     OW 9325   0.579   0.465   3.417  0.7360  0.1703 -0.4853
 1556Sol     HW 9326   0.645   0.533   3.433  0.8705  0.3816 -1.9247
 1556Sol     HW 9327   0.495   0.511   3.426  0.7965  0.1547  0.1912
 1556Sol     MW 9328   0.577   0.475   3.420  0.2675  0.7557 -0.4457
 1557Sol     OW 9329   1.769   0.146   6.091 -0.0633  0.2889  0.3646
 1557Sol     HW 9330   1.798   0.171   6.004  1.9612 -1.9538  0.3416
 1557Sol     HW 9331   1.749   0.229   6.135  3.5218  1.7487 -0.6349
 1557Sol     MW 9332   1.770   0.155   6.087  0.3680  0.0155 -0.4346
 1558Sol     OW 9333   1.775   0.991   8.737 -0.5191  0.1746 -0.6367
 1558Sol     HW 9334   1.801   1.042   8.660 -2.1115  3.3316  0.8242
 1558Sol     HW 9335   1.852   0.990   8.793 -0.6699  1.6498 -0.3755
 1558Sol     MW 9336   1.784   0.996   8.735  0.3239 -0.1120 -0.7408
 1559Sol     OW 9337   0.696   1.400   5.297 -0.3814 -0.3735 -0.3416
 1559Sol     HW 9338   0.644   1.464   5.248  0.4591 -0.1672 -0.9746
 1559Sol     HW 9339   0.646   1.385   5.377 -1.1097  0.2861 -0.6649
 1559Sol     MW 9340   0.687   1.405   5.299  0.2913 -0.1858 -0.2512
 1560Sol     OW 9341   1.188   2.910   3.841  0.2270  0.1634  0.4242
 1560Sol     HW 9342   1.185   2.976   3.910 -1.5263  1.6579 -1.0276
 1560Sol     HW 9343   1.165   2.828   3.885  0.3879  0.8550  1.8359
 1560Sol     MW 9344   1.186   2.908   3.851 -0.7162  0.5996 -0.1678
 1561Sol     OW 9345   1.522   2.447   6.664 -0.0859 -0.0179  0.4730
 1561Sol     HW 9346   1.582   2.373   6.672  1.2270  1.0599  0.8587
 1561Sol     HW 9347   1.573   2.522   6.696 -1.4340  1.0213  0.2071
 1561Sol     MW 9348   1.532   2.447   6.668  0.5698 -0.3994 -0.0156
 1562Sol     OW 9349   0.314   0.621   6.089 -0.0034 -0.2881  0.1052
 1562Sol     HW 9350   0.328   0.589   6.000 -2.5532  1.3994 -0.9683
 1562Sol     HW 9351   0.374   0.695   6.098 -0.0663 -0.1823 -0.3533
 1562Sol     MW 9352   0.321   0.624   6.082  1.0996  0.0964 -0.5876
 1563Sol     OW 9353   3.261   0.050   9.040 -0.2587 -0.1318  0.6294
 1563Sol     HW 9354   3.221   0.057   9.127  1.8729  0.9370  1.5866
 1563Sol     HW 9355   3.257  -0.043   9.019 -1.5407 -0.2900  1.5121
 1563Sol     MW 9356   3.257   0.043   9.046  0.4647  0.2676 -0.1023
 1564Sol     OW 9357   2.434   3.265   2.219  0.3863  0.0981  0.0795
 1564Sol     HW 9358   2.359   3.210   2.197  1.2474 -1.1768  0.2695
 1564Sol     HW 9359   2.423   3.287   2.311  1.2704 -1.7460  0.6386
 1564Sol     MW 9360   2.427   3.262   2.225 -0.4394 -0.7928 -0.2294
 1565Sol     OW 9361   1.294   3.349   2.928  0.0804 -0.4300  0.1359
 1565Sol     HW 9362   1.269   3.427   2.977  1.0490 -0.8109  1.2502
 1565Sol     HW 9363   1.313   3.284   2.995  3.3296 -0.3755 -0.6478
 1565Sol     MW 9364   1.293   3.350   2.938 -0.1143 -0.4238  0.2975
 1566Sol     OW 9365   0.075   1.797   9.399 -0.0684  0.5315  0.4848
 1566Sol     HW 9366   0.111   1.883   9.422  1.5092 -0.0909  0.3455
 1566Sol     HW 9367   0.093   1.787   9.306 -0.3410  0.0973  0.4768
 1566Sol     MW 9368   0.080   1.804   9.393 -0.1057 -0.0946 -0.5613
 1567Sol     OW 9369   0.610   2.578   1.716  0.4740  0.4568  0.3453
 1567Sol     HW 9370   0.555   2.511   1.757  1.5058 -0.5626  0.0691
 1567Sol     HW 9371   0.627   2.544   1.628  1.0672  1.0486  0.2331
 1567Sol     MW 9372   0.606   2.569   1.712  0.3112 -0.2038  0.1180
 1568Sol     OW 9373   2.222   2.561   9.296 -0.1189  0.1923 -0.0463
 1568Sol     HW 9374   2.159   2.499   9.333  1.4694 -1.8501 -0.6693
 1568Sol     HW 9375   2.281   2.582   9.369  1.6226 -2.0475 -0.7298
 1568Sol     MW 9376   2.222   2.557   9.306  0.1507 -0.1905  0.6883
 1569Sol     OW 9377   3.161   1.624   8.891 -0.1471 -0.0740  0.2775
 1569Sol     HW 9378   3.195   1.667   8.812 -2.2619 -0.7938 -1.0417
 1569Sol     HW 9379   3.202   1.672   8.963  1.1608  1.1318 -1.2208
 1569Sol     MW 9380   3.168   1.632   8.890  0.0775 -0.5520  0.3179
 1570Sol     OW 9381   2.700   0.660   4.753  0.1042  0.4259 -0.4122
 1570Sol     HW 9382   2.744   0.745   4.757  0.3591  0.2162  2.0078
 1570Sol     HW 9383   2.766   0.597   4.783 -0.9946 -0.2077  0.7633
 1570Sol     MW 9384   2.709   0.662   4.756 -0.2491  0.1627  0.1591
 1571Sol     OW 9385   0.166   2.350   7.604  0.8599 -0.4672 -0.0412
 1571Sol     HW 9386   0.248   2.362   7.651  1.8540  0.0758 -1.8908
 1571Sol     HW 9387   0.134   2.439   7.588  0.5605 -0.6477 -0.4637
 1571Sol     MW 9388   0.170   2.359   7.607 -0.3563 -0.1240 -0.1417
 1572Sol     OW 9389   2.760   2.302   9.886 -0.2101  0.1204  0.3615
 1572Sol     HW 9390   2.801   2.374   9.837 -1.6816  1.8025  1.5308
 1572Sol     HW 9391   2.794   2.223   9.845 -0.0391  1.4781 -2.2475
 1572Sol     MW 9392   2.767   2.301   9.878  0.2776 -0.2649  0.2798
 1573Sol     OW 9393   2.669   0.390   7.569 -0.2787 -0.0855 -0.1162
 1573Sol     HW 9394   2.693   0.475   7.606 -0.0914  0.4681 -1.4673
 1573Sol     HW 9395   2.728   0.380   7.494 -0.3816 -1.3558 -0.0257
 1573Sol     MW 9396   2.677   0.397   7.565 -0.0837 -0.4335  0.4511
 1574Sol     OW 9397   0.961   3.222   8.826 -0.1112  0.0512 -0.0583
 1574Sol     HW 9398   0.919   3.301   8.861  1.5083  0.7495  0.3136
 1574Sol     HW 9399   1.012   3.187   8.900 -0.8018 -1.3472 -0.2221
 1574Sol     MW 9400   0.961   3.226   8.836  0.1870 -0.2605 -0.3365
 1575Sol     OW 9401   1.094   1.666   1.702  0.4431 -0.5046  0.0737
 1575Sol     HW 9402   1.172   1.696   1.749 -0.6401  3.2109 -0.3700
 1575Sol     HW 9403   1.127   1.639   1.616  1.1752  1.8201 -0.4077
 1575Sol     MW 9404   1.104   1.666   1.698 -0.3263 -0.2179  0.2133
 1576Sol     OW 9405   2.913   2.233   7.200 -0.1456 -0.2943 -0.8737
 1576Sol     HW 9406   2.998   2.196   7.174 -0.5069 -0.8917 -1.2387
 1576Sol     HW 9407   2.882   2.174   7.269 -0.8833 -0.8901 -1.7005
 1576Sol     MW 9408   2.918   2.224   7.204 -0.2440  0.1245  0.8329
 1577Sol     OW 9409   3.197   1.293   4.308 -0.0443 -0.5540  0.1331
 1577Sol     HW 9410   3.151   1.322   4.229 -1.8818  2.4775  2.1829
 1577Sol     HW 9411   3.128   1.261   4.366  1.2425 -2.4910  0.6271
 1577Sol     MW 9412   3.187   1.293   4.306 -0.1032  0.4897 -0.0965
 1578Sol     OW 9413   3.250   3.168   8.252 -0.8686  0.3493  0.7469
 1578Sol     HW 9414   3.324   3.205   8.299 -0.4609  0.0091  0.3889
 1578Sol     HW 9415   3.177   3.225   8.272 -0.4766  0.7642  1.0032
 1578Sol     MW 9416   3.250   3.176   8.258 -0.5396 -0.0296  0.1447
 1579Sol     OW 9417   2.678   2.830   3.164 -0.0702  0.3613  0.4065
 1579Sol     HW 9418   2.660   2.741   3.195 -0.2326  0.1764 -0.2262
 1579Sol     HW 9419   2.601   2.881   3.189 -0.1486  0.2376  0.4135
 1579Sol     MW 9420   2.669   2.827   3.169  0.5570 -0.3327  0.4181
 1580Sol     OW 9421   2.926   1.385   2.818 -0.1152 -0.2417 -0.0474
 1580Sol     HW 9422   2.864   1.437   2.869 -0.9701 -1.0123 -0.2911
 1580Sol     HW 9423   2.889   1.297   2.816 -0.8561  0.0822 -3.1954
 1580Sol     MW 9424   2.917   1.382   2.822 -0.2584  0.2248 -0.3201
 1581Sol     OW 9425   3.267   1.086   1.843  0.0566 -0.1223 -0.0341
 1581Sol     HW 9426   3.358   1.098   1.867  0.3543  1.3408 -1.7600
 1581Sol     HW 9427   3.227   1.172   1.856 -0.2339  0.1940 -2.6423
 1581Sol     MW 9428   3.271   1.095   1.846 -0.3134  0.2795  0.0282
 1582Sol     OW 9429   2.153   0.465   5.603  0.0936 -0.2219 -0.2380
 1582Sol     HW 9430   2.129   0.492   5.691  0.0963  1.1499 -0.6452
 1582Sol     HW 9431   2.070   0.457   5.556  0.1476 -0.0322 -0.3676
 1582Sol     MW 9432   2.143   0.467   5.607 -0.1492 -0.3269 -0.5848
 1583Sol     OW 9433   2.635   2.111   2.375 -0.7750 -0.0015 -0.0566
 1583Sol     HW 9434   2.545   2.078   2.369 -1.4095  1.6913 -0.2127
 1583Sol     HW 9435   2.631   2.198   2.336  0.8823  0.2152  0.2242
 1583Sol     MW 9436   2.626   2.116   2.371  0.1228 -0.4800  0.4698
 1584Sol     OW 9437   1.521   2.530   8.259 -0.4230 -0.8174 -0.0279
 1584Sol     HW 9438   1.482   2.589   8.324  1.2460 -0.2678  0.5050
 1584Sol     HW 9439   1.502   2.443   8.292  0.0438 -0.5423  0.9969
 1584Sol     MW 9440   1.515   2.528   8.268  0.2164  0.4591 -0.1013
 1585Sol     OW 9441   3.063   1.600   3.911 -0.2615 -0.2226 -0.2059
 1585Sol     HW 9442   3.142   1.601   3.858 -1.1469 -2.1090 -1.5899
 1585Sol     HW 9443   2.991   1.598   3.848 -1.3831 -0.3517  1.0415
 1585Sol     MW 9444   3.064   1.600   3.901  0.3699  0.1090  0.3433
 1586Sol     OW 9445   2.543   1.509   4.438 -0.0870 -0.3801 -0.0750
 1586Sol     HW 9446   2.596   1.553   4.372 -1.1456  1.6953  0.4127
 1586Sol     HW 9447   2.567   1.551   4.520 -2.5568  0.7381  0.1331
 1586Sol     MW 9448   2.550   1.517   4.439 -0.3666 -0.1108 -0.3249
 1587Sol     OW 9449   0.888   2.263   6.752  0.3884 -0.2775  0.5268
 1587Sol     HW 9450   0.914   2.335   6.694 -1.1844  0.9554  1.3094
 1587Sol     HW 9451   0.898   2.298   6.840  0.3280 -1.2754  0.9340
 1587Sol     MW 9452   0.891   2.272   6.754  0.0045  0.7678  0.4911
 1588Sol     OW 9453   2.177   1.759   6.484 -0.4316 -0.9173  0.1503
 1588Sol     HW 9454   2.193   1.831   6.545 -0.4509 -0.3842 -0.4681
 1588Sol     HW 9455   2.083   1.742   6.492 -0.9138  0.7952 -1.5105
 1588Sol     MW 9456   2.170   1.764   6.490 -0.0700 -0.1653 -0.1012
 1589Sol     OW 9457   2.570   3.335   3.748  0.1782  0.3267 -0.1484
 1589Sol     HW 9458   2.531   3.416   3.781 -0.2985  0.6605 -1.4755
 1589Sol     HW 9459   2.526   3.320   3.664 -0.8469 -2.1197  0.7699
 1589Sol     MW 9460   2.562   3.341   3.743  0.2949 -0.3721 -0.2820
 1590Sol     OW 9461   1.858   3.382   3.806 -0.9093 -0.2552 -0.0680
 1590Sol     HW 9462   1.842   3.331   3.726 -1.2920 -0.4029  0.1047
 1590Sol     HW 9463   1.828   3.470   3.785  0.0411 -0.0161 -0.4755
 1590Sol     MW 9464   1.854   3.385   3.797 -0.1978 -0.3710  0.1587
 1591Sol     OW 9465   2.483   0.894   5.225  0.0614 -0.4922 -0.5292
 1591Sol     HW 9466   2.567   0.900   5.180  1.2075  1.0178  1.6988
 1591Sol     HW 9467   2.482   0.969   5.284 -1.9886 -1.6232  0.9553
 1591Sol     MW 9468   2.490   0.901   5.226 -0.4681 -0.4077 -0.4004
 1592Sol     OW 9469   2.507   2.270   7.548  0.3947 -0.3670  0.2820
 1592Sol     HW 9470   2.498   2.366   7.546 -1.4638 -0.4129  3.1788
 1592Sol     HW 9471   2.536   2.247   7.460  1.4236  2.9168 -0.3049
 1592Sol     MW 9472   2.509   2.277   7.540 -0.1761 -0.6694 -0.6556
 1593Sol     OW 9473   2.302   2.441  10.015  0.0086 -0.5997  0.2864
 1593Sol     HW 9474   2.368   2.400   9.961  0.3635 -0.3723  0.5443
 1593Sol     HW 9475   2.338   2.439  10.104  0.8586  1.9088  0.0364
 1593Sol     MW 9476   2.311   2.437  10.018 -0.1881  0.2110  0.5423
 1594Sol     OW 9477   1.374   1.123   7.731 -0.0179  0.0921  0.5451
 1594Sol     HW 9478   1.442   1.099   7.669 -0.9855  0.7498 -0.7879
 1594Sol     HW 9479   1.293   1.118   7.681 -0.6326  2.3863  1.2572
 1594Sol     MW 9480   1.373   1.121   7.721  0.5232 -0.4341 -0.1010
 1595Sol     OW 9481   2.336   1.164   5.531 -0.2261 -0.0216  0.1233
 1595Sol     HW 9482   2.363   1.226   5.598 -1.0148  0.6697 -0.1859
 1595Sol     HW 9483   2.307   1.086   5.580 -0.9337  0.5334  0.6022
 1595Sol     MW 9484   2.336   1.162   5.541 -0.8018  1.0196 -0.2417
 1596Sol     OW 9485   2.693   0.182   8.662  0.5763 -0.2369 -0.5944
 1596Sol     HW 9486   2.720   0.090   8.659 -1.0200 -0.7040 -1.4705
 1596Sol     HW 9487   2.618   0.183   8.721  1.1357  0.6729  0.1173
 1596Sol     MW 9488   2.689   0.174   8.667  0.2383 -0.3524  0.1075
 1597Sol     OW 9489   1.971   2.509   3.874  0.2889 -0.4384  0.2044
 1597Sol     HW 9490   2.026   2.588   3.878  0.8041 -0.7880  0.0954
 1597Sol     HW 9491   1.991   2.470   3.789  0.8370 -1.2500  0.6961
 1597Sol     MW 9492   1.978   2.512   3.867 -0.5263 -0.2221 -0.0757
 1598Sol     OW 9493   0.232   3.289   8.814  0.2139 -0.1168  0.1029
 1598Sol     HW 9494   0.204   3.375   8.783 -0.1744 -0.4605 -0.5180
 1598Sol     HW 9495   0.295   3.307   8.883  1.7745  0.6555 -1.5043
 1598Sol     MW 9496   0.235   3.298   8.818 -0.0137 -0.7356  0.1522
 1599Sol     OW 9497   1.545   1.132   8.770 -0.8071 -0.0283 -0.0678
 1599Sol     HW 9498   1.616   1.067   8.767  0.4022  1.2494  0.5786
 1599Sol     HW 9499   1.470   1.083   8.805  0.2891 -0.9042  1.1000
 1599Sol     MW 9500   1.545   1.121   8.773  0.3550 -0.0630  0.2796
 1600Sol     OW 9501   2.511   2.239   2.809 -0.6889  0.0588 -1.1939
 1600Sol     HW 9502   2.440   2.226   2.872 -1.3433 -0.5014 -2.0313
 1600Sol     HW 9503   2.485   2.316   2.758  0.0195  0.7352 -0.5403
 1600Sol     MW 9504   2.502   2.245   2.810  0.1953  0.5780  0.7207
 1601Sol     OW 9505   1.170   0.995   2.442  0.4559 -0.3087  0.4421
 1601Sol     HW 9506   1.157   0.928   2.375  0.3957 -0.5627  0.7019
 1601Sol     HW 9507   1.082   1.028   2.461  0.6453  0.8912 -0.7384
 1601Sol     MW 9508   1.161   0.992   2.438  0.3065 -0.2219  0.0331
 1602Sol     OW 9509   0.875   1.723   9.167 -0.2715  0.3902 -0.1739
 1602Sol     HW 9510   0.868   1.660   9.095 -0.8316 -0.6797  0.7992
 1602Sol     HW 9511   0.964   1.713   9.198 -0.0212  0.8694 -0.7287
 1602Sol     MW 9512   0.882   1.716   9.163  0.2852  0.3115  0.1740
 1603Sol     OW 9513   0.677   2.482   3.599  0.0479  0.2803  0.6255
 1603Sol     HW 9514   0.769   2.493   3.575  0.2125 -1.4091  0.4212
 1603Sol     HW 9515   0.677   2.409   3.661 -1.3777 -1.0247 -0.8653
 1603Sol     MW 9516   0.685   2.476   3.603  0.2842 -0.3881  0.8671
 1604Sol     OW 9517   0.385   0.094   9.397 -0.1639 -0.7092 -0.1576
 1604Sol     HW 9518   0.373   0.016   9.451  2.7580  0.6276  2.5850
 1604Sol     HW 9519   0.333   0.162   9.440 -0.0523 -0.3345 -0.6128
 1604Sol     MW 9520   0.379   0.093   9.406 -0.1021  0.3891 -0.1413
 1605Sol     OW 9521   2.655   1.297   9.831 -0.8688  0.7248 -0.1224
 1605Sol     HW 9522   2.727   1.359   9.842 -0.4004  0.4711 -1.7143
 1605Sol     HW 9523   2.696   1.211   9.834 -1.1703  0.5641 -0.6042
 1605Sol     MW 9524   2.665   1.295   9.832 -0.1959 -0.0593  0.3956
 1606Sol     OW 9525   2.756   2.509   6.212 -0.1111 -0.5017  0.1553
 1606Sol     HW 9526   2.829   2.560   6.247 -0.1198 -0.5417  0.2305
 1606Sol     HW 9527   2.689   2.511   6.281 -0.5308  0.2802 -0.2637
 1606Sol     MW 9528   2.756   2.514   6.221 -0.2566  0.1847  0.4910
 1607Sol     OW 9529   1.928   0.777   9.893  0.1357 -0.5764 -0.5013
 1607Sol     HW 9530   2.017   0.788   9.860  0.6977  2.4026  1.8750
 1607Sol     HW 9531   1.936   0.783   9.988 -2.5613 -0.6724 -0.2225
 1607Sol     MW 9532   1.937   0.778   9.899  0.1202 -0.2009 -0.3178
 1608Sol     OW 9533   0.762   1.615   2.211  0.4270  0.4917 -0.8792
 1608Sol     HW 9534   0.678   1.583   2.243  0.1091  1.2049 -0.9941
 1608Sol     HW 9535   0.824   1.545   2.231 -0.0100  0.3801  0.1124
 1608Sol     MW 9536   0.760   1.606   2.216  0.1728  0.6714 -0.0480
 1609Sol     OW 9537   2.033   0.240   1.969  0.3519 -0.6704 -0.6791
 1609Sol     HW 9538   2.027   0.160   1.917 -2.9746 -0.5190 -0.6355
 1609Sol     HW 9539   1.942   0.265   1.986  1.3404  1.4993  1.8214
 1609Sol     MW 9540   2.024   0.235   1.966  0.5776 -0.3569 -0.5668
 1610Sol     OW 9541   2.722   0.926   5.095  0.2534  0.2248  0.1860
 1610Sol     HW 9542   2.758   0.838   5.086  0.2782  0.2654 -0.1396
 1610Sol     HW 9543   2.784   0.971   5.153  1.9627  0.9413 -2.0959
 1610Sol     MW 9544   2.731   0.922   5.099  0.6675  0.8530 -0.5008
 1611Sol     OW 9545   2.909   3.081   7.323 -0.0870  0.1658 -0.4127
 1611Sol     HW 9546   2.855   3.150   7.361 -0.9071  0.9396 -2.9006
 1611Sol     HW 9547   2.864   3.000   7.346 -0.2197  0.5578  0.7693
 1611Sol     MW 9548   2.900   3.080   7.328 -0.0687 -0.6401  0.5565
 1612Sol     OW 9549   2.483   1.734   5.365  0.1474 -0.0485  0.3376
 1612Sol     HW 9550   2.531   1.783   5.298 -0.7622 -1.0351 -1.0637
 1612Sol     HW 9551   2.391   1.748   5.343 -0.1324 -2.8885 -0.4718
 1612Sol     MW 9552   2.479   1.740   5.357 -0.1593  0.5743 -0.3938
 1613Sol     OW 9553   3.181   1.846   4.013 -0.1984  0.2159  0.1543
 1613Sol     HW 9554   3.104   1.893   3.980 -2.6348 -2.0491  2.3504
 1613Sol     HW 9555   3.166   1.755   3.988  2.1425 -0.1749  0.0515
 1613Sol     MW 9556   3.173   1.842   4.008 -0.3434 -0.3961 -0.5324
 1614Sol     OW 9557   3.116   2.038   4.528  0.9203 -0.1268 -0.8484
 1614Sol     HW 9558   3.188   2.089   4.566  0.7069  0.3236 -1.0472
 1614Sol     HW 9559   3.074   1.996   4.604 -0.4925  2.0356 -0.3877
 1614Sol     MW 9560   3.119   2.039   4.538 -0.3927 -0.0524 -0.3823
 1615Sol     OW 9561   2.097   2.862   4.941  0.7546 -0.3709 -0.2569
 1615Sol     HW 9562   2.058   2.926   4.882  1.2004  0.0398 -0.1103
 1615Sol     HW 9563   2.145   2.802   4.884 -1.2567 -1.7394 -0.5758
 1615Sol     MW 9564   2.098   2.862   4.931 -0.1845 -0.9132  0.1899
 1616Sol     OW 9565   1.637   2.392   9.843  0.1791  0.3147  0.5146
 1616Sol     HW 9566   1.702   2.322   9.848 -1.2970 -1.4277 -3.2212
 1616Sol     HW 9567   1.554   2.351   9.866 -0.5594  1.0201 -0.8183
 1616Sol     MW 9568   1.636   2.382   9.845 -0.0296  0.2611  0.1583
 1617Sol     OW 9569   1.046   1.137   6.436  0.0307 -0.0967 -0.0078
 1617Sol     HW 9570   0.969   1.098   6.396 -0.5540  0.5955  0.4350
 1617Sol     HW 9571   1.082   1.195   6.369  1.2711 -1.8744 -0.8956
 1617Sol     MW 9572   1.042   1.139   6.427  0.2965  0.5349  0.7599
 1618Sol     OW 9573   2.807   0.315   3.531 -0.0283  0.4628  0.2238
 1618Sol     HW 9574   2.763   0.386   3.483 -1.2746 -0.0237  0.6072
 1618Sol     HW 9575   2.842   0.358   3.609 -2.4098  0.3649  1.4138
 1618Sol     MW 9576   2.806   0.326   3.534  0.0769  0.0695 -0.6228
 1619Sol     OW 9577   0.009   3.448   4.336  0.0886 -0.0297  0.8530
 1619Sol     HW 9578  -0.019   3.448   4.428  0.1069 -0.6573  0.8597
 1619Sol     HW 9579  -0.028   3.529   4.300 -1.6510 -0.7773  0.8900
 1619Sol     MW 9580   0.003   3.455   4.341 -0.1489  0.1990  0.5733
 1620Sol     OW 9581   0.240   0.497   3.903 -0.6012 -0.1665 -0.0685
 1620Sol     HW 9582   0.224   0.581   3.946  0.0432  1.2540 -2.4826
 1620Sol     HW 9583   0.312   0.458   3.952 -0.7057  0.8395  0.9058
 1620Sol     MW 9584   0.245   0.501   3.911 -0.3561  0.1036  0.0123
 1621Sol     OW 9585   2.234   3.367   2.717 -1.0552  0.7903  0.1122
 1621Sol     HW 9586   2.285   3.346   2.639  1.0573  2.9361  0.8503
 1621Sol     HW 9587   2.159   3.417   2.684  0.6479  3.0392 -0.4340
 1621Sol     MW 9588   2.231   3.370   2.707 -0.4216  0.9025 -0.1857
 1622Sol     OW 9589   1.244   0.115   3.106 -0.4253 -0.4476  0.2128
 1622Sol     HW 9590   1.261   0.103   3.200 -0.9054  0.0242  0.3612
 1622Sol     HW 9591   1.279   0.201   3.086 -0.3614 -0.5311 -0.0328
 1622Sol     MW 9592   1.248   0.121   3.113 -0.1362  0.1267 -0.1614
 1623Sol     OW 9593   0.638   2.459   1.482 -0.1098 -0.3245 -0.6396
 1623Sol     HW 9594   0.543   2.453   1.472 -0.5739  0.1609  2.8727
 1623Sol     HW 9595   0.665   2.373   1.514  0.2482  0.3285  0.8579
 1623Sol     MW 9596   0.632   2.451   1.484 -0.1085 -0.1062 -0.4952
 1624Sol     OW 9597   3.117   2.016   5.744 -0.6170  0.2615  0.2018
 1624Sol     HW 9598   3.025   2.004   5.720 -0.3153 -0.1310 -0.7938
 1624Sol     HW 9599   3.165   1.960   5.682  0.4468  2.2312 -0.7953
 1624Sol     MW 9600   3.113   2.009   5.736 -0.0175 -0.1225  0.4029
 1625Sol     OW 9601   0.953   0.672   8.469  0.7000 -0.2617  0.6007
 1625Sol     HW 9602   0.984   0.702   8.383 -2.2935 -2.9617 -1.5340
 1625Sol     HW 9603   0.925   0.752   8.513 -1.2127  0.8463 -2.4439
 1625Sol     MW 9604   0.954   0.682   8.465 -0.2501 -0.6335 -0.5347
 1626Sol     OW 9605   1.900   0.301   7.105 -0.7637  0.3751 -0.7718
 1626Sol     HW 9606   1.950   0.221   7.122 -2.0069 -0.1288  0.6055
 1626Sol     HW 9607   1.877   0.296   7.013 -0.4556 -0.6427 -0.7965
 1626Sol     MW 9608   1.902   0.293   7.098  0.1195  0.1999 -0.3153
 1627Sol     OW 9609   1.850   3.446   6.751 -0.2871 -0.2857 -0.0454
 1627Sol     HW 9610   1.821   3.362   6.714  1.2034 -0.6164 -0.4700
 1627Sol     HW 9611   1.829   3.511   6.684 -0.7765 -0.4091 -0.0149
 1627Sol     MW 9612   1.845   3.444   6.742 -0.2166 -0.3822  0.0949
 1628Sol     OW 9613   1.907   3.333   5.757  0.9716  0.3657  0.3949
 1628Sol     HW 9614   1.896   3.265   5.823 -1.3444  0.0683 -0.2483
 1628Sol     HW 9615   1.954   3.290   5.686  0.0703 -0.3934  0.2565
 1628Sol     MW 9616   1.910   3.323   5.756  0.1729 -0.2788 -0.0328
 1629Sol     OW 9617   3.174   1.725   7.581  0.2733 -0.1831  0.4558
 1629Sol     HW 9618   3.122   1.651   7.611 -1.9027  0.6915 -0.9894
 1629Sol     HW 9619   3.192   1.776   7.660 -1.1565 -0.4861  0.9967
 1629Sol     MW 9620   3.171   1.723   7.591  1.0114  0.1390  0.1997
 1630Sol     OW 9621   1.978   0.193   8.088 -0.0997  0.0598 -0.0700
 1630Sol     HW 9622   1.970   0.124   8.153 -0.3384 -0.1848 -0.3611
 1630Sol     HW 9623   2.060   0.175   8.042 -0.9162 -0.9154 -1.1802
 1630Sol     MW 9624   1.984   0.186   8.090  0.4587  0.0440  0.0597
 1631Sol     OW 9625   0.555   1.939   5.838  0.2672 -0.2486 -0.3068
 1631Sol     HW 9626   0.548   2.024   5.794  0.1522 -0.0107  0.1701
 1631Sol     HW 9627   0.560   1.960   5.931 -0.5835 -0.7919 -0.1281
 1631Sol     MW 9628   0.554   1.949   5.842 -0.2878 -0.4580 -0.1937
 1632Sol     OW 9629   2.972   1.844   8.222 -0.1017 -0.0636 -0.2066
 1632Sol     HW 9630   3.051   1.866   8.173 -1.1152 -0.9337 -2.3353
 1632Sol     HW 9631   2.950   1.755   8.192 -1.0213 -0.4202  1.4875
 1632Sol     MW 9632   2.977   1.838   8.215 -0.2580  0.2020  0.4914
 1633Sol     OW 9633   0.971   2.968   2.117  0.3778 -0.0909  0.4307
 1633Sol     HW 9634   0.989   3.059   2.143  0.0944  0.2528 -0.5551
 1633Sol     HW 9635   0.907   2.976   2.046  1.3816 -0.9868 -0.5950
 1633Sol     MW 9636   0.967   2.977   2.113  0.5846 -0.1763  0.2012
 1634Sol     OW 9637   1.274   1.072   4.450  0.3230 -0.3151 -0.1615
 1634Sol     HW 9638   1.300   0.981   4.436  1.3389  0.1495 -1.3826
 1634Sol     HW 9639   1.342   1.109   4.506  1.0522  0.2585 -1.4086
 1634Sol     MW 9640   1.282   1.067   4.453 -0.2605 -0.1180 -0.1101
 1635Sol     OW 9641   0.874   2.196   9.261  0.1453  0.0183  0.0729
 1635Sol     HW 9642   0.838   2.107   9.261  1.9684 -0.7398 -0.1492
 1635Sol     HW 9643   0.819   2.244   9.323 -0.7845 -1.2895  0.2881
 1635Sol     MW 9644   0.866   2.192   9.267  0.1821 -0.4369 -0.5500
 1636Sol     OW 9645   2.376   3.237   7.441  0.4279  0.1735 -0.5655
 1636Sol     HW 9646   2.339   3.170   7.385 -0.7560  1.2529 -1.0834
 1636Sol     HW 9647   2.352   3.320   7.400 -0.8321  0.9886  1.7401
 1636Sol     MW 9648   2.371   3.239   7.433 -0.2423  0.4602  0.3136
 1637Sol     OW 9649   0.970   2.866   4.406  0.8425  0.3303  0.2947
 1637Sol     HW 9650   1.031   2.799   4.373 -0.3856 -1.6438  1.8859
 1637Sol     HW 9651   0.940   2.912   4.328  0.1604 -2.3349 -1.0790
 1637Sol     MW 9652   0.973   2.864   4.396 -0.2116 -0.1943  0.0919
 1638Sol     OW 9653   2.698   2.574   2.869 -0.0646  0.7283  0.0906
 1638Sol     HW 9654   2.703   2.615   2.782 -2.0575  3.9434  1.3931
 1638Sol     HW 9655   2.624   2.618   2.911 -1.2842 -3.1717  2.2229
 1638Sol     MW 9656   2.692   2.582   2.865 -0.6598  0.6174  0.6288
 1639Sol     OW 9657   1.459   2.041   8.544  0.8668  0.2820  0.3157
 1639Sol     HW 9658   1.439   2.107   8.610 -0.6008 -0.8838  1.0593
 1639Sol     HW 9659   1.508   1.974   8.590 -0.3108 -0.6193  0.2672
 1639Sol     MW 9660   1.461   2.041   8.554  0.4004  0.6210  0.5825
 1640Sol     OW 9661   3.108   0.710   5.173 -0.0413  0.2893  0.1378
 1640Sol     HW 9662   3.031   0.694   5.119  1.0447 -2.0557 -0.8102
 1640Sol     HW 9663   3.090   0.664   5.255  0.7083 -1.0580 -0.4363
 1640Sol     MW 9664   3.100   0.705   5.176 -0.2527 -0.1529  0.0069
 1641Sol     OW 9665   2.952   0.340   8.141  0.5542  0.1975  0.0207
 1641Sol     HW 9666   2.944   0.329   8.046  0.8653 -0.8033  0.0979
 1641Sol     HW 9667   3.046   0.351   8.156  0.4388  1.0545  0.1507
 1641Sol     MW 9668   2.960   0.340   8.134  0.0787  0.1020 -0.4413
 1642Sol     OW 9669   0.151   3.386   5.304 -0.2369  0.2876 -0.5164
 1642Sol     HW 9670   0.225   3.326   5.313 -0.2802  0.1647 -0.9482
 1642Sol     HW 9671   0.075   3.336   5.335  0.0072  0.7429  0.8304
 1642Sol     MW 9672   0.151   3.376   5.307  0.0756 -0.3497  0.2467
 1643Sol     OW 9673   2.303   1.884   6.867 -0.3958  0.4990  0.2434
 1643Sol     HW 9674   2.282   1.948   6.799  0.1854  0.0558 -0.3646
 1643Sol     HW 9675   2.383   1.917   6.907  0.4699 -0.3381 -0.7389
 1643Sol     MW 9676   2.308   1.893   6.864  0.5812  0.3509  0.8713
 1644Sol     OW 9677   0.230   0.839   7.950 -0.2839 -0.0488  0.8169
 1644Sol     HW 9678   0.251   0.872   7.862 -0.1129  2.0526  1.6130
 1644Sol     HW 9679   0.134   0.842   7.954 -0.3859 -1.7055  0.1495
 1644Sol     MW 9680   0.223   0.842   7.942  0.4475  0.6462  0.6337
 1645Sol     OW 9681   1.153   1.124   3.998 -0.1453  0.4488 -0.3569
 1645Sol     HW 9682   1.093   1.062   3.957  1.8195 -0.2929 -2.2223
 1645Sol     HW 9683   1.203   1.070   4.059  0.9217  0.3566 -1.2968
 1645Sol     MW 9684   1.152   1.113   4.000  0.0752  0.5511 -0.6119
 1646Sol     OW 9685   3.201   2.833   8.652 -0.9619  0.2803  0.1951
 1646Sol     HW 9686   3.207   2.924   8.679  3.1665  0.1485 -0.0656
 1646Sol     HW 9687   3.198   2.836   8.556  0.3273  0.1340  0.1391
 1646Sol     MW 9688   3.201   2.841   8.646  0.1687  0.4386 -0.3207
 1647Sol     OW 9689   0.572   2.821   4.891  0.5339  0.1159  0.2679
 1647Sol     HW 9690   0.621   2.887   4.842 -0.8096  0.6306 -0.4166
 1647Sol     HW 9691   0.500   2.796   4.833 -0.2876 -0.2787  1.4231
 1647Sol     MW 9692   0.570   2.825   4.881  0.2986 -0.3923  0.2980
 1648Sol     OW 9693   0.978   0.048   3.080  0.1132  0.2991 -1.0901
 1648Sol     HW 9694   0.938   0.134   3.065 -0.3614  0.3094  0.2039
 1648Sol     HW 9695   1.072   0.066   3.078  0.0233  0.7950 -1.1396
 1648Sol     MW 9696   0.983   0.058   3.078  0.3365  0.1108  0.1738
 1649Sol     OW 9697   3.259   1.861   7.806 -0.3129  0.1736 -0.2182
 1649Sol     HW 9698   3.221   1.881   7.892  1.5047 -0.3636  0.7480
 1649Sol     HW 9699   3.290   1.946   7.773  1.1490  0.0237  0.7475
 1649Sol     MW 9700   3.258   1.871   7.811 -0.5265  0.0810 -0.2593
 1650Sol     OW 9701   2.010   2.621   5.974  0.5928  0.2450 -1.0943
 1650Sol     HW 9702   2.085   2.631   5.915  0.1371  1.0101 -1.5406
 1650Sol     HW 9703   2.016   2.530   6.004  0.9864 -0.0613 -2.0907
 1650Sol     MW 9704   2.018   2.614   5.972 -0.1752  0.4183 -0.2617
 1651Sol     OW 9705   1.138   2.577   3.314  0.4362 -0.2229  0.4748
 1651Sol     HW 9706   1.102   2.550   3.230 -0.2585  2.6304 -0.1916
 1651Sol     HW 9707   1.169   2.666   3.300 -0.1588  0.5127  3.3501
 1651Sol     MW 9708   1.137   2.583   3.305 -0.1489  0.0529  0.2756
 1652Sol     OW 9709   1.696   0.201   8.271  0.9156 -0.5364  0.1827
 1652Sol     HW 9710   1.738   0.277   8.230  0.8510  0.9218  2.7267
 1652Sol     HW 9711   1.750   0.127   8.244  1.4862  0.5020 -1.6598
 1652Sol     MW 9712   1.705   0.202   8.264 -0.3345 -0.4212 -0.4313
 1653Sol     OW 9713   0.737   2.599   3.197  0.6537  0.1321 -0.2096
 1653Sol     HW 9714   0.782   2.534   3.143  1.1647  0.8097 -0.6089
 1653Sol     HW 9715   0.790   2.605   3.276 -0.0907 -0.8554  0.3704
 1653Sol     MW 9716   0.746   2.594   3.199 -0.1928  0.3765  0.6769
 1654Sol     OW 9717   2.277   3.079   4.943 -0.2284 -0.2012 -0.1222
 1654Sol     HW 9718   2.219   3.147   4.979 -0.5776 -0.3714 -0.3571
 1654Sol     HW 9719   2.227   2.998   4.953  0.1533 -0.4090  0.0776
 1654Sol     MW 9720   2.267   3.078   4.947 -0.0959 -0.4617 -0.1425
 1655Sol     OW 9721   1.174   2.054   6.114 -0.0044 -0.2844 -0.0840
 1655Sol     HW 9722   1.215   2.036   6.029 -0.3254  1.5004 -0.6322
 1655Sol     HW 9723   1.115   2.128   6.098  0.7166  0.7803  1.9081
 1655Sol     MW 9724   1.173   2.059   6.105 -0.1447  0.0144  0.5549
 1656Sol     OW 9725   0.847   0.054   7.945 -0.3868  0.1076  0.3284
 1656Sol     HW 9726   0.799   0.014   7.872  1.8637 -0.6340 -0.8067
 1656Sol     HW 9727   0.900   0.123   7.904  0.6917 -0.1236  1.2940
 1656Sol     MW 9728   0.847   0.057   7.934 -0.3663 -0.8032 -0.0392
 1657Sol     OW 9729   0.412   0.295   5.782 -0.0652 -0.2515 -0.2428
 1657Sol     HW 9730   0.419   0.257   5.869 -0.5600  0.2310  0.0155
 1657Sol     HW 9731   0.499   0.287   5.744 -0.0767 -1.2864 -0.0456
 1657Sol     MW 9732   0.420   0.291   5.786 -0.7645  0.3183  0.4628
 1658Sol     OW 9733   1.841   1.019   7.485 -0.1173 -0.5588  0.2950
 1658Sol     HW 9734   1.876   1.109   7.478  0.5830 -0.9889 -2.4882
 1658Sol     HW 9735   1.910   0.971   7.530  0.7435 -0.2858 -0.6942
 1658Sol     MW 9736   1.851   1.023   7.488  0.0595  0.2836 -0.2587
 1659Sol     OW 9737   2.187   2.302   4.366  0.5178  0.7047 -0.3142
 1659Sol     HW 9738   2.108   2.341   4.404  0.0454  0.6916 -1.2932
 1659Sol     HW 9739   2.249   2.375   4.359  0.6067  0.7093  0.4745
 1659Sol     MW 9740   2.186   2.312   4.369 -0.7578  0.2125 -0.4859
 1660Sol     OW 9741   2.262   1.840   1.584  1.0418 -0.6193 -0.1724
 1660Sol     HW 9742   2.266   1.847   1.680  0.8812  0.5134 -0.2375
 1660Sol     HW 9743   2.235   1.750   1.568  2.8029 -1.3353  0.8038
 1660Sol     MW 9744   2.260   1.833   1.592  0.1576  0.3197  0.5426
 1661Sol     OW 9745   2.328   2.393   8.307  0.0238  0.7414  0.2525
 1661Sol     HW 9746   2.341   2.460   8.375  1.9417 -0.0112  0.6602
 1661Sol     HW 9747   2.314   2.312   8.355  4.0458 -0.3101 -0.1359
 1661Sol     MW 9748   2.328   2.392   8.317 -0.1522 -0.5937  0.2050
 1662Sol     OW 9749   1.256   2.957   8.633  0.2864 -0.0481  0.2810
 1662Sol     HW 9750   1.327   2.904   8.599  0.1222  0.4907 -0.9154
 1662Sol     HW 9751   1.258   3.037   8.581 -2.2448 -0.7013 -0.8964
 1662Sol     MW 9752   1.262   2.960   8.625  0.2617  0.9299  0.0842
 1663Sol     OW 9753   1.688   1.661   6.046 -0.1634  0.5096 -0.3231
 1663Sol     HW 9754   1.689   1.755   6.030 -1.3443  0.3632 -1.3441
 1663Sol     HW 9755   1.597   1.635   6.031  0.2527 -0.8766 -0.5452
 1663Sol     MW 9756   1.680   1.667   6.043 -0.5392  0.3203 -0.3198
 1664Sol     OW 9757   2.988   2.774   2.127 -0.4783  0.0269 -0.3593
 1664Sol     HW 9758   2.948   2.691   2.152  0.4188 -0.6136 -1.0402
 1664Sol     HW 9759   2.926   2.841   2.157 -1.3183 -0.8930 -0.0439
 1664Sol     MW 9760   2.979   2.773   2.132  0.1355  0.7484  0.2035
 1665Sol     OW 9761   1.977   0.622   7.932 -0.6083 -0.1921  0.4023
 1665Sol     HW 9762   1.940   0.588   7.851 -1.2927 -0.2098  0.7250
 1665Sol     HW 9763   1.930   0.704   7.948 -0.1018  0.0850  0.4977
 1665Sol     MW 9764   1.970   0.627   7.926 -0.2750  0.2802  0.6361
 1666Sol     OW 9765   0.002   0.046   2.724  0.1246  0.5057  0.0150
 1666Sol     HW 9766  -0.057   0.008   2.789  0.9644 -0.8464  0.0085
 1666Sol     HW 9767  -0.056   0.077   2.655 -0.6598  0.2151  0.5358
 1666Sol     MW 9768  -0.008   0.045   2.723 -0.6455  0.1604  0.3417
 1667Sol     OW 9769   0.394   0.075   6.592 -0.2453 -0.3631  0.0991
 1667Sol     HW 9770   0.413   0.020   6.668 -0.5978 -0.2529  0.2713
 1667Sol     HW 9771   0.395   0.164   6.627  0.2804 -0.2652 -0.1705
 1667Sol     MW 9772   0.396   0.078   6.602 -0.2303 -0.4291 -1.2648
 1668Sol     OW 9773   0.720   3.359   4.598  0.0476 -0.4471  0.2058
 1668Sol     HW 9774   0.755   3.310   4.523  0.2399  0.7506 -0.4992
 1668Sol     HW 9775   0.769   3.326   4.673  3.3314  1.7529 -0.8697
 1668Sol     MW 9776   0.727   3.351   4.598  0.0225  0.2187  0.3997
 1669Sol     OW 9777   1.984   2.833   8.026  0.6539  0.2586 -0.0972
 1669Sol     HW 9778   1.925   2.881   8.084  0.9340 -1.2860  1.5145
 1669Sol     HW 9779   1.925   2.779   7.972  0.4738  0.3499  0.0086
 1669Sol     MW 9780   1.973   2.832   8.027  0.3806  0.5102 -0.6296
 1670Sol     OW 9781   1.405   2.304   5.176 -0.3036 -0.0303  0.0642
 1670Sol     HW 9782   1.317   2.342   5.176 -0.0959  0.4671 -1.5755
 1670Sol     HW 9783   1.413   2.262   5.262 -1.8982  0.4755  0.4686
 1670Sol     MW 9784   1.398   2.303   5.184 -0.0657 -0.5906 -0.5592
 1671Sol     OW 9785   3.128   0.154   9.258  0.3673  0.6449  0.3835
 1671Sol     HW 9786   3.092   0.237   9.288 -0.4744  0.4853 -0.1704
 1671Sol     HW 9787   3.054   0.108   9.219  1.0238  0.0174 -0.1457
 1671Sol     MW 9788   3.119   0.157   9.257 -0.2064  0.0459 -0.0920
 1672Sol     OW 9789   2.298   2.224   3.015  0.1452 -0.1008 -0.4026
 1672Sol     HW 9790   2.221   2.266   2.977 -0.2855  0.2781  0.8696
 1672Sol     HW 9791   2.336   2.291   3.072  0.9864 -0.5378 -0.4505
 1672Sol     MW 9792   2.294   2.234   3.017 -0.0583  0.2698  0.1824
 1673Sol     OW 9793   0.995   2.502   4.727  0.1250 -0.1293 -0.1366
 1673Sol     HW 9794   0.901   2.513   4.740  0.1216 -1.1904  0.7626
 1673Sol     HW 9795   1.004   2.417   4.685  0.8547 -1.1742  2.0987
 1673Sol     MW 9796   0.988   2.496   4.724 -0.4329  0.0186 -0.8885
 1674Sol     OW 9797   0.224   2.499   4.396  0.1146 -0.2080 -0.4161
 1674Sol     HW 9798   0.155   2.562   4.414  0.7875  0.5151 -0.3866
 1674Sol     HW 9799   0.301   2.551   4.376  0.4500 -1.0065 -1.2717
 1674Sol     MW 9800   0.225   2.509   4.396 -0.0432  0.1270 -0.5394
 1675Sol     OW 9801   1.574   1.932   7.502  0.4475  0.3807  0.3626
 1675Sol     HW 9802   1.533   1.855   7.540 -0.3977  1.3169  1.3609
 1675Sol     HW 9803   1.505   1.998   7.499  1.5099  1.5306  0.7630
 1675Sol     MW 9804   1.564   1.931   7.505 -0.2441 -0.1199  0.1512
 1676Sol     OW 9805   0.192   0.604   8.084 -0.7924 -0.3591 -0.7721
 1676Sol     HW 9806   0.206   0.681   8.029  0.9603  0.3346  0.5770
 1676Sol     HW 9807   0.110   0.621   8.129 -1.0089  0.1631 -1.3579
 1676Sol     MW 9808   0.186   0.612   8.083  0.6214  0.2514  0.0169
 1677Sol     OW 9809   0.011   3.227   8.960  0.3075  0.0113  0.4070
 1677Sol     HW 9810   0.071   3.268   8.899  1.7639  0.1624  1.9178
 1677Sol     HW 9811   0.048   3.245   9.047 -1.8314  0.0031  1.3603
 1677Sol     MW 9812   0.019   3.232   8.962 -0.4222 -0.2748 -0.2680
 1678Sol     OW 9813   1.522   1.253   2.028 -0.3931 -0.3780 -0.2714
 1678Sol     HW 9814   1.429   1.263   2.047 -0.7475 -0.1385 -2.0975
 1678Sol     HW 9815   1.556   1.342   2.027 -0.4700 -0.3572 -1.2085
 1678Sol     MW 9816   1.517   1.262   2.030  0.4464 -0.2265  0.2529
 1679Sol     OW 9817   0.759   2.423   4.031  0.6715 -0.3650  0.4184
 1679Sol     HW 9818   0.664   2.438   4.032  0.4852 -1.4937  0.5038
 1679Sol     HW 9819   0.791   2.474   4.106  0.1402  0.0506  0.3715
 1679Sol     MW 9820   0.753   2.429   4.038  0.0912 -0.0760  0.1082
 1680Sol     OW 9821   1.152   0.332   5.014  0.4487  1.0740 -0.4203
 1680Sol     HW 9822   1.197   0.282   4.946 -2.1342 -0.5819 -0.9758
 1680Sol     HW 9823   1.121   0.411   4.969 -1.5956 -0.1959 -1.3653
 1680Sol     MW 9824   1.153   0.335   5.003  0.2505  0.0733  0.0151
 1681Sol     OW 9825   3.027   0.693   1.450  0.1428  0.2275  0.6978
 1681Sol     HW 9826   3.079   0.765   1.486 -1.2055  1.5700  0.0129
 1681Sol     HW 9827   3.055   0.617   1.500  1.9031  1.1401  1.1529
 1681Sol     MW 9828   3.034   0.693   1.458 -0.6170 -0.2611 -0.0015
 1682Sol     OW 9829   2.108   2.279   7.229  0.2428 -0.0736 -0.0020
 1682Sol     HW 9830   2.073   2.303   7.315  0.1970  0.0570 -0.0570
 1682Sol     HW 9831   2.172   2.211   7.248  0.1330 -0.1441  0.1218
 1682Sol     MW 9832   2.110   2.275   7.239  0.5253  0.1813 -0.9029
 1683Sol     OW 9833   0.304   0.682   7.551  0.5186  0.4610  0.1737
 1683Sol     HW 9834   0.309   0.753   7.615  1.4514  1.4425 -0.9781
 1683Sol     HW 9835   0.378   0.696   7.493 -0.8627  0.1242 -1.6982
 1683Sol     MW 9836   0.311   0.689   7.552 -0.4757 -0.3096 -0.3899
 1684Sol     OW 9837   1.193   1.034   8.832 -0.0040  0.3288 -0.3514
 1684Sol     HW 9838   1.237   1.103   8.881  0.9018  0.3848 -1.2155
 1684Sol     HW 9839   1.187   1.068   8.743 -2.5187  0.6402 -0.1104
 1684Sol     MW 9840   1.196   1.043   8.828  0.5613 -0.3931  0.0815
 1685Sol     OW 9841   2.069   2.613   6.673 -0.2657 -0.0747  0.2381
 1685Sol     HW 9842   2.052   2.591   6.765 -0.4257  0.3809  0.3197
 1685Sol     HW 9843   2.161   2.641   6.672 -0.5989  1.0622  0.4803
 1685Sol     MW 9844   2.076   2.614   6.681 -0.4431 -0.3345  0.5634
 1686Sol     OW 9845   1.850   0.660   2.397 -0.1525 -0.3533 -0.5211
 1686Sol     HW 9846   1.925   0.623   2.352 -0.2067 -1.9578  0.6836
 1686Sol     HW 9847   1.845   0.751   2.365  1.4071 -0.6625 -1.6782
 1686Sol     MW 9848   1.856   0.665   2.390 -0.2256 -0.1703 -0.3876
 1687Sol     OW 9849   0.594   0.465   8.861 -0.1781 -0.3808 -0.4287
 1687Sol     HW 9850   0.628   0.442   8.947 -1.8717  0.3500  0.4514
 1687Sol     HW 9851   0.607   0.386   8.808 -0.9681 -1.5309  1.0693
 1687Sol     MW 9852   0.598   0.456   8.864  0.9606  0.0007 -0.0131
 1688Sol     OW 9853   1.672   2.677   5.395 -0.2553  0.4667  0.0793
 1688Sol     HW 9854   1.650   2.768   5.411 -1.2792  0.5314 -1.6012
 1688Sol     HW 9855   1.742   2.658   5.457 -0.3839  2.2383  0.7909
 1688Sol     MW 9856   1.676   2.683   5.402  0.2452 -0.4578 -0.1918
 1689Sol     OW 9857   1.073   2.809   3.075 -0.6071  0.7487  0.1908
 1689Sol     HW 9858   1.058   2.894   3.115 -2.8008 -0.0264  1.0575
 1689Sol     HW 9859   1.113   2.829   2.990 -0.1913  2.5731  0.8055
 1689Sol     MW 9860   1.076   2.818   3.071 -0.2606  0.2643 -0.0928
 1690Sol     OW 9861   2.187   3.229   4.580  0.4296 -0.1251  0.1639
 1690Sol     HW 9862   2.272   3.186   4.566  0.2875  0.1271 -1.5117
 1690Sol     HW 9863   2.123   3.167   4.545  0.0958  0.6919 -0.6829
 1690Sol     MW 9864   2.189   3.219   4.576 -0.2495 -0.0463 -0.5007
 1691Sol     OW 9865   2.560   1.149   5.025  0.1464  1.1114  0.0606
 1691Sol     HW 9866   2.604   1.064   5.034 -2.4180 -0.7625 -3.6997
 1691Sol     HW 9867   2.510   1.159   5.106  1.6743 -0.1714  1.2165
 1691Sol     MW 9868   2.560   1.142   5.033  0.1190  0.2360 -0.4435
 1692Sol     OW 9869   1.077   1.597   3.381  0.4819 -0.3019 -0.4902
 1692Sol     HW 9870   1.116   1.666   3.328 -3.5052  2.2022 -0.2827
 1692Sol     HW 9871   1.115   1.610   3.468 -0.2306  1.6405 -0.4485
 1692Sol     MW 9872   1.084   1.604   3.384 -0.1071  0.1398  0.0377
 1693Sol     OW 9873   1.184   1.792   3.193 -0.1368 -0.2080 -0.2827
 1693Sol     HW 9874   1.125   1.864   3.212 -0.1504  0.1116 -1.4622
 1693Sol     HW 9875   1.186   1.788   3.097  0.2626 -1.4363 -0.2331
 1693Sol     MW 9876   1.179   1.798   3.186 -0.3013 -0.1063 -0.1790
 1694Sol     OW 9877   1.136   2.899   2.829 -0.1199  0.5409  1.2639
 1694Sol     HW 9878   1.092   2.868   2.750  0.6324  0.9434  0.6836
 1694Sol     HW 9879   1.120   2.994   2.830  3.1364  1.1672 -0.5014
 1694Sol     MW 9880   1.130   2.905   2.822 -0.0676 -0.3675  0.2647
 1695Sol     OW 9881   0.188   2.928   8.171  0.1227  0.2210 -0.1576
 1695Sol     HW 9882   0.234   2.981   8.237  1.1328  2.1624 -2.3421
 1695Sol     HW 9883   0.212   2.838   8.191 -1.6320  0.5153  3.6740
 1695Sol     MW 9884   0.194   2.925   8.179 -0.0131 -0.1086  0.1889
 1696Sol     OW 9885   1.802   2.890   6.247 -0.3363 -0.9586 -0.1232
 1696Sol     HW 9886   1.867   2.896   6.177 -1.0437 -2.5022 -0.9358
 1696Sol     HW 9887   1.718   2.891   6.202 -0.9509  1.9009  0.9850
 1696Sol     MW 9888   1.800   2.890   6.237  0.6542  0.2790  0.0197
 1697Sol     OW 9889   1.030   2.522   3.002  0.0401 -0.6305 -0.7660
 1697Sol     HW 9890   1.050   2.615   3.017 -0.9883 -0.4064 -0.7850
 1697Sol     HW 9891   1.092   2.496   2.934  0.4365  0.0024 -0.6604
 1697Sol     MW 9892   1.038   2.528   2.998  0.4275 -1.1852  0.2677
 1698Sol     OW 9893   1.598   0.407   9.820 -0.0373  0.1853 -0.2175
 1698Sol     HW 9894   1.598   0.312   9.835 -1.1527  0.1914 -0.1270
 1698Sol     HW 9895   1.688   0.427   9.795  0.7596 -0.5426  1.9596
 1698Sol     MW 9896   1.606   0.400   9.819  0.4705  0.4790  0.2311
 1699Sol     OW 9897   2.344   2.582   8.524  0.6179 -0.6342  0.1020
 1699Sol     HW 9898   2.349   2.526   8.602  0.4286  0.1879  0.7193
 1699Sol     HW 9899   2.252   2.609   8.520  0.6113 -0.7301 -0.4507
 1699Sol     MW 9900   2.336   2.580   8.531 -0.3329 -0.6160 -0.3156
 1700Sol     OW 9901   0.126   3.006   9.827  0.4661 -0.2152 -0.4523
 1700Sol     HW 9902   0.215   3.017   9.794  1.2845  0.4783  1.8893
 1700Sol     HW 9903   0.102   3.093   9.861 -1.3659 -0.2228 -1.6703
 1700Sol     MW 9904   0.132   3.015   9.827 -0.4850  0.0849 -0.6336
 1701Sol     OW 9905   1.638   0.694   1.569 -0.2844  0.0331 -0.2821
 1701Sol     HW 9906   1.605   0.778   1.600 -0.2593 -0.4279  1.0171
 1701Sol     HW 9907   1.574   0.665   1.504 -0.8960  0.5168  0.1013
 1701Sol     MW 9908   1.630   0.699   1.566  0.5546 -0.2146 -0.1015
 1702Sol     OW 9909   2.800   1.069   9.862  0.2580 -0.1148 -0.7691
 1702Sol     HW 9910   2.844   1.037   9.783 -0.4287 -2.0243 -0.3892
 1702Sol     HW 9911   2.842   1.022   9.934  1.1268  1.8828  0.0688
 1702Sol     MW 9912   2.808   1.062   9.861  0.2977 -1.0286 -0.6154
 1703Sol     OW 9913   2.752   0.401   9.982  0.0410 -0.5429  0.2076
 1703Sol     HW 9914   2.690   0.440  10.044 -0.9979 -0.1708 -1.0487
 1703Sol     HW 9915   2.838   0.429  10.014 -0.5779  1.1478  0.4714
 1703Sol     MW 9916   2.754   0.407   9.991 -0.0679 -0.2184  0.0467
 1704Sol     OW 9917   0.176   2.139   2.484 -0.1553  0.0766 -0.2039
 1704Sol     HW 9918   0.258   2.170   2.445 -0.0957 -0.5541 -0.6001
 1704Sol     HW 9919   0.173   2.046   2.461  1.1101 -0.9499  3.4122
 1704Sol     MW 9920   0.183   2.133   2.478  0.1265  0.5896 -0.3876
 1705Sol     OW 9921   1.639   2.675   9.833 -0.0141  0.1743 -0.2778
 1705Sol     HW 9922   1.624   2.581   9.841  2.0778 -0.1190  0.5254
 1705Sol     HW 9923   1.651   2.690   9.739 -2.2359 -0.0387 -0.6116
 1705Sol     MW 9924   1.639   2.668   9.825  0.7184 -0.8006 -0.0885
 1706Sol     OW 9925   2.063   0.469   2.618 -0.0967  0.0137  0.2996
 1706Sol     HW 9926   2.062   0.400   2.551  0.7235 -0.3552  0.6641
 1706Sol     HW 9927   2.142   0.451   2.669 -0.8862  0.1191  1.5550
 1706Sol     MW 9928   2.070   0.461   2.616  0.3950 -0.1754 -0.0821
 1707Sol     OW 9929   0.821   1.797   6.468 -0.0584  0.0562  0.1904
 1707Sol     HW 9930   0.849   1.821   6.556 -0.8275 -0.6571  0.6297
 1707Sol     HW 9931   0.846   1.873   6.414  2.0955 -0.2683  0.6723
 1707Sol     MW 9932   0.826   1.806   6.471  0.6246  0.6260  0.2462
 1708Sol     OW 9933   0.630   0.851   5.155 -0.0240 -0.2865  0.7713
 1708Sol     HW 9934   0.596   0.940   5.167 -1.0038 -0.4171 -0.8798
 1708Sol     HW 9935   0.615   0.808   5.239  0.3512  1.0675  1.5532
 1708Sol     MW 9936   0.626   0.855   5.163 -0.0842 -0.3805  0.7248
 1709Sol     OW 9937   2.321   2.991   8.687  0.0368 -0.1278  0.0899
 1709Sol     HW 9938   2.264   2.915   8.672 -1.9508  1.5276 -0.9844
 1709Sol     HW 9939   2.409   2.959   8.668 -0.7834 -2.1302 -0.4724
 1709Sol     MW 9940   2.324   2.981   8.684 -0.3323 -0.4793  0.7573
 1710Sol     OW 9941   1.414   2.127   5.385  0.2283 -0.0114 -0.3307
 1710Sol     HW 9942   1.424   2.032   5.395 -0.8079 -0.1459 -0.5353
 1710Sol     HW 9943   1.469   2.164   5.454 -0.1384 -0.7789  0.3828
 1710Sol     MW 9944   1.420   2.122   5.392  0.5234  0.0604 -0.0818
 1711Sol     OW 9945   1.227   1.446   8.219 -0.0455  0.0286 -0.2259
 1711Sol     HW 9946   1.225   1.350   8.216 -0.4276  0.0163  0.3245
 1711Sol     HW 9947   1.227   1.473   8.127 -1.8696 -0.4730 -0.4007
 1711Sol     MW 9948   1.227   1.440   8.210 -0.0255  0.1286 -0.0588
 1712Sol     OW 9949   2.577   3.015   7.214  0.0424 -0.0288  0.0992
 1712Sol     HW 9950   2.544   2.985   7.129 -0.0721 -0.9876  0.4769
 1712Sol     HW 9951   2.610   2.935   7.256 -0.5681  0.3185  1.2517
 1712Sol     MW 9952   2.577   3.005   7.210 -0.1729  0.3845  0.3690
 1713Sol     OW 9953   1.802   1.043   6.766 -0.0196 -0.4958  0.2930
 1713Sol     HW 9954   1.723   1.094   6.748  0.2138 -0.2150  0.0681
 1713Sol     HW 9955   1.861   1.064   6.694  0.4880 -0.2518  0.7767
 1713Sol     MW 9956   1.800   1.049   6.758  0.0631  1.1763 -0.2996
 1714Sol     OW 9957   2.527   2.842   9.456 -0.1788  0.9287  0.1741
 1714Sol     HW 9958   2.619   2.866   9.448 -0.6454  1.9969 -2.2778
 1714Sol     HW 9959   2.490   2.908   9.516  0.5503  0.7488  0.8238
 1714Sol     MW 9960   2.532   2.850   9.461  0.1656 -0.4873 -0.4026
 1715Sol     OW 9961   2.673   1.892   8.529  0.0507 -0.4059  0.2053
 1715Sol     HW 9962   2.713   1.806   8.515  0.2685 -0.2507 -0.1300
 1715Sol     HW 9963   2.686   1.939   8.446  1.0943  0.4202  0.8212
 1715Sol     MW 9964   2.678   1.889   8.520  0.2918 -0.4432 -0.1233
 1716Sol     OW 9965   2.074   0.065   3.964 -0.3737  0.1182 -0.3216
 1716Sol     HW 9966   2.008   0.025   3.908 -0.6011  1.1356 -0.7889
 1716Sol     HW 9967   2.140   0.098   3.904  1.7885 -2.9991  0.2536
 1716Sol     MW 9968   2.074   0.064   3.954 -0.0224 -0.1997  0.1066
 1717Sol     OW 9969   1.981   3.416   4.578 -0.0779  0.0229  0.3371
 1717Sol     HW 9970   2.069   3.378   4.576  0.0950  0.4325  0.1907
 1717Sol     HW 9971   1.955   3.421   4.486 -0.4290 -0.4914  0.4014
 1717Sol     MW 9972   1.987   3.413   4.569 -0.2251  0.4818 -0.5002
 1718Sol     OW 9973   1.414   1.369   5.798 -0.3890 -0.4842 -0.4833
 1718Sol     HW 9974   1.383   1.302   5.859  0.7579 -1.7679 -1.2574
 1718Sol     HW 9975   1.352   1.363   5.724  0.1373 -1.2230 -0.8758
 1718Sol     MW 9976   1.405   1.362   5.797  0.6285  0.3765 -0.1810
 1719Sol     OW 9977   1.423   1.766   8.831 -0.2934  0.9462 -0.4510
 1719Sol     HW 9978   1.435   1.692   8.890  2.3962  2.1438  0.5706
 1719Sol     HW 9979   1.339   1.804   8.858 -0.7535 -0.5709  0.2904
 1719Sol     MW 9980   1.416   1.763   8.839 -0.2337  0.0504  0.4409
 1720Sol     OW 9981   1.684   0.593   4.103 -0.4584 -0.0321  0.2957
 1720Sol     HW 9982   1.615   0.656   4.123 -0.4351  0.7812 -2.0016
 1720Sol     HW 9983   1.765   0.645   4.108 -0.5790  0.6940 -3.4654
 1720Sol     MW 9984   1.685   0.604   4.105 -0.0406 -0.0149 -0.5869
 1721Sol     OW 9985   2.306   2.391   5.834  0.2575 -0.0790  0.0810
 1721Sol     HW 9986   2.393   2.427   5.848 -0.0359  1.6878 -2.1678
 1721Sol     HW 9987   2.274   2.369   5.921  1.9788  1.6429  1.1885
 1721Sol     MW 9988   2.311   2.393   5.843  0.6690 -0.4637  0.3947
 1722Sol     OW 9989   2.460   0.852   3.424  0.2345  0.0147  0.0127
 1722Sol     HW 9990   2.372   0.862   3.388  0.7837 -0.3822 -1.4727
 1722Sol     HW 9991   2.449   0.794   3.499 -0.5799 -1.0565 -0.9283
 1722Sol     MW 9992   2.451   0.848   3.428  0.7431  0.4443 -0.2920
 1723Sol     OW 9993   1.077   3.262   8.064 -0.6455 -0.0732  0.2610
 1723Sol     HW 9994   1.131   3.310   8.002 -0.5320  1.0836  1.2357
 1723Sol     HW 9995   1.029   3.330   8.111 -0.7120 -0.9393  1.4597
 1723Sol     MW 9996   1.077   3.272   8.063  0.0760  0.2800 -0.7938
 1724Sol     OW 9997   0.487   2.059   5.171 -0.3571 -0.8178  0.5060
 1724Sol     HW 9998   0.528   2.056   5.085  0.5871  2.1985  0.7862
 1724Sol     HW 9999   0.546   2.010   5.228  0.7291 -0.0486  0.0625
 1724Sol     MW10000   0.496   2.055   5.169  0.5441 -0.0534  0.0981
 1725Sol     OW10001   1.793   0.032   9.493  0.0336  0.0218 -0.1864
 1725Sol     HW10002   1.806  -0.063   9.491 -0.9497 -0.1312  0.3210
 1725Sol     HW10003   1.700   0.043   9.474 -0.4062  0.7465  2.1948
 1725Sol     MW10004   1.786   0.025   9.491 -0.8906  0.4471  0.0091
 1726Sol     OW10005   3.135   3.448   4.072  0.2018  0.2994  1.1556
 1726Sol     HW10006   3.185   3.372   4.100  2.4441  1.5131  0.5450
 1726Sol     HW10007   3.163   3.464   3.982 -0.5039  1.6294  1.1541
 1726Sol     MW10008   3.142   3.442   4.067  0.0059 -0.2008 -0.2037
 1727Sol     OW10009   1.128   3.327   2.723 -0.2776 -0.0635  0.1589
 1727Sol     HW10010   1.199   3.319   2.786 -1.6162  0.9533  1.8726
 1727Sol     HW10011   1.052   3.287   2.767 -1.2604  0.7585 -0.7459
 1727Sol     MW10012   1.127   3.323   2.732 -0.0985  0.2487 -0.5104
 1728Sol     OW10013   2.156   2.086   8.650  0.0457  0.1608 -0.0160
 1728Sol     HW10014   2.200   2.001   8.640  1.2691  0.6457  1.1885
 1728Sol     HW10015   2.101   2.076   8.727  0.1597  0.4425  0.1037
 1728Sol     MW10016   2.155   2.077   8.656  0.1248 -0.2452  0.2772
 1729Sol     OW10017   1.091   0.668   3.123 -0.1090  0.1481 -0.1207
 1729Sol     HW10018   1.006   0.688   3.164  0.2033  0.2084  0.5063
 1729Sol     HW10019   1.155   0.710   3.180  0.3693 -0.2277 -0.3815
 1729Sol     MW10020   1.089   0.673   3.132  0.1993 -0.1831 -0.3862
 1730Sol     OW10021   1.452   2.043   5.000  0.2328 -0.8242  0.4097
 1730Sol     HW10022   1.442   1.949   5.013 -2.3280 -0.5633  0.5335
 1730Sol     HW10023   1.394   2.082   5.065  0.8331  0.8451 -0.0306
 1730Sol     MW10024   1.446   2.038   5.007  0.0553 -0.3051  0.2055
 1731Sol     OW10025   0.205   1.752   8.392  0.1636  0.3596 -0.2998
 1731Sol     HW10026   0.241   1.803   8.464  1.8536 -1.1833 -0.0188
 1731Sol     HW10027   0.280   1.729   8.338 -0.2858 -3.0293  0.3628
 1731Sol     MW10028   0.215   1.754   8.394  0.0712  0.9447 -0.4893
 1732Sol     OW10029   3.298   3.001   6.427  0.1005 -0.4910  0.2350
 1732Sol     HW10030   3.351   3.074   6.460 -2.0917  0.8807  0.8423
 1732Sol     HW10031   3.307   3.006   6.332 -2.9406  2.9140  0.0505
 1732Sol     MW10032   3.304   3.008   6.422 -0.1074 -0.4570 -0.1280
 1733Sol     OW10033   1.893   2.277   9.863  0.1112  0.0964  0.2008
 1733Sol     HW10034   1.933   2.200   9.903 -0.7376 -0.0831  0.7239
 1733Sol     HW10035   1.942   2.351   9.899  0.8501 -0.1947 -0.2078
 1733Sol     MW10036   1.901   2.276   9.870  0.5642  0.1407  0.0964
 1734Sol     OW10037   1.006   0.490   8.946 -0.3717 -0.3096 -0.1904
 1734Sol     HW10038   0.969   0.451   8.867 -2.3371  2.0017 -0.4853
 1734Sol     HW10039   1.046   0.572   8.916 -0.9291  0.4826  1.1552
 1734Sol     MW10040   1.006   0.494   8.937  0.1827 -0.0184 -0.0263
 1735Sol     OW10041   1.588   0.128   4.750  0.3587  0.5084 -0.4578
 1735Sol     HW10042   1.569   0.063   4.682 -0.4608  1.5499 -1.2515
 1735Sol     HW10043   1.509   0.130   4.804  0.3689  0.8497 -0.4528
 1735Sol     MW10044   1.579   0.122   4.749 -0.0798  0.5000  0.0077
 1736Sol     OW10045   1.670   2.076   8.397 -0.1808  0.1276  0.0576
 1736Sol     HW10046   1.706   1.988   8.397  0.3840  0.3542  0.5177
 1736Sol     HW10047   1.592   2.071   8.451 -0.5535 -0.2501 -0.5104
 1736Sol     MW10048   1.667   2.068   8.402 -0.0540  0.4901  0.2203
 1737Sol     OW10049   1.135   2.766   7.931 -0.0898 -0.6648  0.2483
 1737Sol     HW10050   1.199   2.695   7.920 -0.2583 -0.8407  0.4036
 1737Sol     HW10051   1.124   2.802   7.843  2.8574  1.6642  0.7184
 1737Sol     MW10052   1.140   2.763   7.922 -0.4523 -0.1367  0.4571
 1738Sol     OW10053   0.080   2.905   4.109  0.0502 -0.0640  0.0532
 1738Sol     HW10054   0.150   2.969   4.099  1.1918 -0.9424  2.0486
 1738Sol     HW10055   0.000   2.952   4.085  1.3967  0.6396 -3.3343
 1738Sol     MW10056   0.079   2.915   4.106 -0.0660 -0.1293 -0.3233
 1739Sol     OW10057   1.499   1.089   9.962  0.7404 -0.1032  0.4728
 1739Sol     HW10058   1.409   1.058   9.963  0.3900  0.9133  0.2681
 1739Sol     HW10059   1.551   1.010   9.944 -0.1253 -0.6223  0.2238
 1739Sol     MW10060   1.496   1.079   9.960 -0.2091  0.2676  0.3165
 1740Sol     OW10061   2.016   1.104   9.483 -0.3103  0.6819 -0.0910
 1740Sol     HW10062   2.080   1.124   9.415 -0.2980  0.5257 -0.1270
 1740Sol     HW10063   1.965   1.032   9.446 -1.4901  1.8046 -0.6940
 1740Sol     MW10064   2.017   1.099   9.473  0.4598  0.2918  0.1153
 1741Sol     OW10065   0.138   2.090   6.968  0.0344 -0.6100 -0.5995
 1741Sol     HW10066   0.230   2.074   6.946 -0.6195 -3.3515 -1.6100
 1741Sol     HW10067   0.125   2.041   7.049  0.6950  3.9214  2.3744
 1741Sol     MW10068   0.145   2.084   6.973  0.3482 -0.2559  0.5425
 1742Sol     OW10069   0.169   1.889   4.157  0.1241 -0.5180  0.5993
 1742Sol     HW10070   0.262   1.912   4.156 -0.2104  1.0422  1.9796
 1742Sol     HW10071   0.135   1.932   4.236 -2.1316  0.3873 -0.8185
 1742Sol     MW10072   0.175   1.895   4.164  0.1197 -0.3427  0.2537
 1743Sol     OW10073   2.980   2.507   8.664 -0.5882 -0.3380  0.7425
 1743Sol     HW10074   2.962   2.417   8.690 -0.6071 -0.5740 -0.0808
 1743Sol     HW10075   2.910   2.530   8.603  0.5312 -0.4502 -0.6039
 1743Sol     MW10076   2.972   2.501   8.661  0.7626  0.0469 -0.2062
 1744Sol     OW10077   0.997   2.187   2.413  0.3351 -0.0887 -0.5837
 1744Sol     HW10078   1.075   2.193   2.468 -0.2479  1.0598  0.1467
 1744Sol     HW10079   0.939   2.255   2.448 -1.0501 -1.0411 -1.0159
 1744Sol     MW10080   0.999   2.194   2.421 -0.8128  0.0309  0.3482
 1745Sol     OW10081   2.258   2.290   2.451 -0.4658  0.3467  0.3292
 1745Sol     HW10082   2.343   2.308   2.492 -0.7682  1.6624  0.4005
 1745Sol     HW10083   2.223   2.215   2.500  0.8586 -0.5180 -0.0100
 1745Sol     MW10084   2.263   2.285   2.459  1.0021 -0.1640 -0.5882
 1746Sol     OW10085   2.687   2.795   3.583  0.6072 -0.2411 -0.2271
 1746Sol     HW10086   2.723   2.708   3.563  0.0525 -0.1709 -1.5664
 1746Sol     HW10087   2.765   2.850   3.596  0.9605 -0.7523 -0.1369
 1746Sol     MW10088   2.698   2.792   3.583 -0.2049  0.5576 -0.4087
 1747Sol     OW10089   1.137   1.952   4.841 -0.0336 -0.1540  0.6205
 1747Sol     HW10090   1.172   1.973   4.928 -0.8749  1.0928  0.6754
 1747Sol     HW10091   1.057   1.903   4.859  0.4941 -1.0779  0.5169
 1747Sol     MW10092   1.133   1.949   4.850  0.4059  0.1125  0.5594
 1748Sol     OW10093   1.191   1.435   7.492  0.1774 -0.1956 -0.3514
 1748Sol     HW10094   1.285   1.437   7.508 -0.0422  1.3468  0.9038
 1748Sol     HW10095   1.156   1.377   7.559  0.0328  0.7946  0.4483
 1748Sol     MW10096   1.196   1.430   7.500  0.6411 -0.1844 -0.2723
 1749Sol     OW10097   0.061   2.695   7.990 -0.5384 -0.0450  0.2446
 1749Sol     HW10098   0.123   2.673   8.059 -0.5430  2.8663  1.2351
 1749Sol     HW10099  -0.025   2.692   8.033 -0.3678  3.8692  0.9644
 1749Sol     MW10100   0.059   2.693   8.000 -0.1761  0.0593 -0.6560
 1750Sol     OW10101   0.940   1.320   8.910 -0.7274 -0.5894  0.1106
 1750Sol     HW10102   0.940   1.332   9.005  0.7248  1.9300 -0.1522
 1750Sol     HW10103   1.016   1.265   8.893 -0.4739 -0.3189  0.3537
 1750Sol     MW10104   0.947   1.316   8.917 -0.4148  0.4413 -0.3558
 1751Sol     OW10105   2.422   0.176   7.413  0.8672 -0.0747  0.5037
 1751Sol     HW10106   2.497   0.141   7.366  0.0797  0.4720 -1.1937
 1751Sol     HW10107   2.352   0.113   7.399  0.0990  0.9970 -0.6628
 1751Sol     MW10108   2.422   0.168   7.408 -1.1451 -0.1471  0.0392
 1752Sol     OW10109   1.438   0.309   9.561  0.4227 -0.4464  0.0442
 1752Sol     HW10110   1.482   0.370   9.501 -0.1604  0.7175  0.7974
 1752Sol     HW10111   1.464   0.338   9.648 -3.2384  1.4010  0.6028
 1752Sol     MW10112   1.445   0.317   9.563  0.3506 -0.3943 -0.4427
 1753Sol     OW10113   2.774   0.146   7.699 -0.3984 -0.3248 -0.3841
 1753Sol     HW10114   2.866   0.160   7.680 -0.1313  0.1877  1.2482
 1753Sol     HW10115   2.729   0.216   7.653  0.1404  0.1977 -0.1143
 1753Sol     MW10116   2.778   0.153   7.693  0.7537  0.0367 -0.1000
 1754Sol     OW10117   1.543   1.796   8.191  0.4393 -0.0722 -0.7314
 1754Sol     HW10118   1.535   1.716   8.139  0.0219 -0.3313 -0.2762
 1754Sol     HW10119   1.581   1.860   8.131 -1.3523  0.0351 -1.7933
 1754Sol     MW10120   1.545   1.795   8.181 -0.2550  0.1368  0.2311
 1755Sol     OW10121   0.591   0.837   7.692 -0.0753  0.1388 -0.1573
 1755Sol     HW10122   0.626   0.858   7.779 -0.1038 -0.1601 -0.0721
 1755Sol     HW10123   0.614   0.913   7.638 -2.4948  1.5614  0.7684
 1755Sol     MW10124   0.596   0.845   7.695 -0.2083  0.9658  0.1612
 1756Sol     OW10125   1.497   1.622   5.655 -0.4831  0.3783 -0.4081
 1756Sol     HW10126   1.441   1.589   5.585 -1.6753  1.0833  0.1916
 1756Sol     HW10127   1.465   1.579   5.734  1.0536 -0.6529 -0.3123
 1756Sol     MW10128   1.489   1.615   5.656 -0.1388 -0.7464  0.2967
 1757Sol     OW10129   0.720   1.592   8.937 -0.4948  0.0569  0.0977
 1757Sol     HW10130   0.671   1.510   8.946 -0.8073  0.2359  0.0635
 1757Sol     HW10131   0.776   1.579   8.860 -2.0424  0.6108 -1.1634
 1757Sol     MW10132   0.720   1.584   8.931 -0.0452 -0.4187  0.0621
 1758Sol     OW10133   2.926   2.864   4.090 -0.6568  0.5572  0.3643
 1758Sol     HW10134   2.977   2.923   4.147 -0.1417 -1.8164  2.4648
 1758Sol     HW10135   2.982   2.788   4.079 -2.1325 -0.3985 -0.6647
 1758Sol     MW10136   2.936   2.863   4.094  0.6198 -0.2170  0.1332
 1759Sol     OW10137   2.012   3.038   9.872  0.2149 -0.2163  0.1412
 1759Sol     HW10138   1.972   2.952   9.866 -1.4741  0.6056 -0.6162
 1759Sol     HW10139   2.015   3.057   9.965  0.1445 -0.8769  0.2787
 1759Sol     MW10140   2.009   3.032   9.880 -0.4660  0.2231 -0.2954
 1760Sol     OW10141   2.313   3.026   7.292 -0.0900 -0.2791 -0.0448
 1760Sol     HW10142   2.279   2.944   7.327 -0.5943 -0.4526 -0.9196
 1760Sol     HW10143   2.407   3.013   7.288 -0.2138 -1.0310 -0.7086
 1760Sol     MW10144   2.318   3.018   7.295 -0.3103  0.7019  0.3509
 1761Sol     OW10145   0.900   0.678   7.413 -0.1101 -0.5497 -0.4907
 1761Sol     HW10146   0.971   0.626   7.452  0.8354  1.0583 -0.0183
 1761Sol     HW10147   0.826   0.665   7.472 -0.0908 -1.9182 -0.7584
 1761Sol     MW10148   0.900   0.672   7.422  0.0996  0.3835 -0.5164
 1762Sol     OW10149   0.357   1.224   1.818  0.1552  0.2272 -0.4485
 1762Sol     HW10150   0.357   1.282   1.742 -0.1131  1.3120  0.3595
 1762Sol     HW10151   0.402   1.273   1.886 -1.3509  0.1004  0.6856
 1762Sol     MW10152   0.361   1.234   1.818  0.1246 -0.2255 -0.0199
 1763Sol     OW10153   2.417   2.806   7.926  0.1852  0.3510  0.2378
 1763Sol     HW10154   2.353   2.876   7.914  0.5778  0.4728 -1.2016
 1763Sol     HW10155   2.452   2.821   8.013 -2.2746 -0.1642  1.3639
 1763Sol     MW10156   2.414   2.814   7.933 -0.0836 -0.3808 -0.5358
 1764Sol     OW10157   1.551   0.143   9.839 -0.7066  0.6193 -0.1079
 1764Sol     HW10158   1.610   0.071   9.863 -2.0163 -1.0533 -1.7979
 1764Sol     HW10159   1.541   0.136   9.744 -2.2154  1.9793 -0.0764
 1764Sol     MW10160   1.555   0.136   9.833 -0.3447  0.2905  0.8010
 1765Sol     OW10161   0.448   0.573   5.812 -0.0148  0.3187  0.0300
 1765Sol     HW10162   0.450   0.591   5.718  0.8717 -0.6233 -0.1420
 1765Sol     HW10163   0.433   0.479   5.818 -0.3425  0.4167  0.8457
 1765Sol     MW10164   0.446   0.566   5.805 -0.0755  0.2832 -0.6261
 1766Sol     OW10165   2.789   1.905   6.880 -0.0095 -0.1309  0.0409
 1766Sol     HW10166   2.723   1.949   6.933  1.5480  1.6979  0.4888
 1766Sol     HW10167   2.868   1.958   6.890  1.2579 -1.7011 -1.3240
 1766Sol     MW10168   2.790   1.913   6.886 -0.3715 -0.2858  0.1722
 1767Sol     OW10169   0.631   2.946   3.726  0.1504 -0.5621 -0.3380
 1767Sol     HW10170   0.538   2.940   3.747  0.3059 -0.7516  0.2972
 1767Sol     HW10171   0.634   3.006   3.651 -0.4304 -0.0852  0.0122
 1767Sol     MW10172   0.623   2.951   3.721 -0.1324 -0.3072  0.2782
 1768Sol     OW10173   2.615   0.245   4.971 -0.0390 -0.0270  0.2705
 1768Sol     HW10174   2.537   0.300   4.965 -0.7845 -1.1011 -0.0736
 1768Sol     HW10175   2.670   0.273   4.898  0.5107  1.6682  1.3280
 1768Sol     MW10176   2.613   0.252   4.964 -0.1763  0.7010  0.2880
 1769Sol     OW10177   0.200   0.449   2.907  0.0500  0.2652 -0.6798
 1769Sol     HW10178   0.174   0.370   2.860 -0.8744  0.3764 -0.3661
 1769Sol     HW10179   0.264   0.418   2.972 -1.1448 -0.4059  0.1879
 1769Sol     MW10180   0.204   0.439   2.909 -0.2736  0.2441 -1.3632
 1770Sol     OW10181   0.275   3.367   1.714  0.5046  0.4851 -0.2244
 1770Sol     HW10182   0.364   3.370   1.680  0.7181  0.4914  0.3220
 1770Sol     HW10183   0.240   3.284   1.682  0.8707  0.2628 -0.0545
 1770Sol     MW10184   0.280   3.360   1.708  0.2158 -1.1428  0.4776
 1771Sol     OW10185   1.305   1.179   5.052 -0.0305 -0.5411  0.0457
 1771Sol     HW10186   1.283   1.260   5.006 -1.7017 -1.5546 -1.0033
 1771Sol     HW10187   1.257   1.184   5.135  0.2263 -0.2449  0.1730
 1771Sol     MW10188   1.299   1.186   5.056 -0.1674  0.1093 -0.3455
 1772Sol     OW10189   0.107   0.101   9.720 -0.0376  0.4088  0.1901
 1772Sol     HW10190   0.155   0.029   9.760 -2.3542 -1.0977  0.3297
 1772Sol     HW10191   0.039   0.123   9.783  0.1576  2.2347 -0.1979
 1772Sol     MW10192   0.105   0.096   9.729 -0.0173  0.2303 -0.2033
 1773Sol     OW10193   1.075   1.851   2.854  0.2915  0.1353 -0.2125
 1773Sol     HW10194   1.150   1.791   2.858  0.4703  0.4237  0.7417
 1773Sol     HW10195   1.020   1.815   2.784  0.8392 -0.6346 -0.2566
 1773Sol     MW10196   1.077   1.842   2.848 -0.0175  0.2369  0.6461
 1774Sol     OW10197   2.216   2.771   6.309  0.1648  0.2485 -0.3702
 1774Sol     HW10198   2.242   2.747   6.398 -0.5245  0.0693 -0.2140
 1774Sol     HW10199   2.278   2.725   6.253 -0.3488 -0.8869 -0.0243
 1774Sol     MW10200   2.224   2.764   6.312 -0.5532 -0.0241  0.1374
 1775Sol     OW10201   2.108   2.343   4.813 -1.0356  0.3333  0.1556
 1775Sol     HW10202   2.014   2.343   4.797 -1.2066 -3.9225  0.5189
 1775Sol     HW10203   2.143   2.275   4.755  1.3755 -0.2419  2.1613
 1775Sol     MW10204   2.103   2.337   4.806 -0.1434  0.4488 -0.4208
 1776Sol     OW10205   3.260   3.290   5.576 -0.3092  0.1413  0.0030
 1776Sol     HW10206   3.201   3.238   5.630  2.9227 -3.7617  0.0717
 1776Sol     HW10207   3.319   3.331   5.639  1.0985 -1.3628 -0.2832
 1776Sol     MW10208   3.260   3.289   5.587 -0.1947 -0.6279  0.7962
 1777Sol     OW10209   2.325   2.438   1.879  0.0848  0.3342 -0.1479
 1777Sol     HW10210   2.335   2.349   1.912  0.1203 -0.2349 -1.6376
 1777Sol     HW10211   2.285   2.427   1.793 -0.9811  1.8289  0.1383
 1777Sol     MW10212   2.322   2.429   1.874 -0.2861  0.2999  0.3169
 1778Sol     OW10213   0.147   2.461   1.870  0.0550 -0.2410 -0.8100
 1778Sol     HW10214   0.070   2.406   1.860 -2.1717  2.6530 -0.3556
 1778Sol     HW10215   0.157   2.473   1.965 -0.5375  1.4701 -0.9367
 1778Sol     MW10216   0.141   2.457   1.878  0.2774  0.5676  0.0581
 1779Sol     OW10217   2.761   0.502   2.867 -0.3966 -0.5739 -0.0459
 1779Sol     HW10218   2.702   0.491   2.941  0.9039  2.4754  1.5048
 1779Sol     HW10219   2.848   0.510   2.906  0.2619  1.5487 -1.8388
 1779Sol     MW10220   2.763   0.502   2.877 -0.3761  0.1800  0.2851
 1780Sol     OW10221   0.808   1.825   8.696  0.3474 -0.2294 -0.4064
 1780Sol     HW10222   0.729   1.783   8.663 -0.3911 -0.3677  1.5105
 1780Sol     HW10223   0.876   1.757   8.689  0.0530 -0.4647 -1.0034
 1780Sol     MW10224   0.807   1.815   8.692 -0.2230  0.6101  0.2870
 1781Sol     OW10225   1.875   3.359   3.328  0.5833  0.0188 -0.3268
 1781Sol     HW10226   1.819   3.372   3.252  1.2395  0.9881 -0.6557
 1781Sol     HW10227   1.944   3.301   3.297  1.1379  0.8336 -0.6131
 1781Sol     MW10228   1.876   3.355   3.318  0.1355  0.0143 -0.3615
 1782Sol     OW10229   2.664   0.521   1.969 -0.4092  0.1645 -0.3070
 1782Sol     HW10230   2.615   0.462   1.913 -1.7603 -0.1030  1.1157
 1782Sol     HW10231   2.647   0.608   1.933  1.2860 -0.2484 -2.1809
 1782Sol     MW10232   2.658   0.524   1.961  0.2470  0.2161  0.5482
 1783Sol     OW10233   2.797   2.525   5.460  0.1376 -0.4419  0.3658
 1783Sol     HW10234   2.849   2.604   5.446  0.4376 -0.8889 -1.0536
 1783Sol     HW10235   2.722   2.555   5.512  0.0638  0.8358 -0.4612
 1783Sol     MW10236   2.795   2.535   5.464 -0.1358  0.4498 -0.3085
 1784Sol     OW10237   2.806   1.081   7.370 -0.0297 -0.4422 -0.5399
 1784Sol     HW10238   2.786   1.163   7.417 -1.2533 -2.1258  1.9745
 1784Sol     HW10239   2.731   1.068   7.312 -0.0126  0.0187 -0.6707
 1784Sol     MW10240   2.797   1.087   7.369 -0.4714 -0.2220  0.1021
 1785Sol     OW10241   0.962   3.258   2.920 -0.2041 -0.2319  0.2319
 1785Sol     HW10242   0.987   3.191   2.984  2.3619  0.4489 -0.0069
 1785Sol     HW10243   0.979   3.341   2.964 -2.3556  0.2706  0.1367
 1785Sol     MW10244   0.966   3.260   2.930  0.4852  0.3550  0.2185
 1786Sol     OW10245   3.029   0.455   3.841 -0.6718  0.2621  0.3898
 1786Sol     HW10246   2.977   0.536   3.835 -0.6945  0.3563  1.6176
 1786Sol     HW10247   3.060   0.439   3.752 -0.0816  2.0127  0.2604
 1786Sol     MW10248   3.027   0.461   3.833 -0.0095 -0.0508  0.3896
 1787Sol     OW10249   1.542   1.230   8.509 -0.1602  0.6035 -0.0640
 1787Sol     HW10250   1.546   1.224   8.604 -1.2220 -1.2435 -0.1195
 1787Sol     HW10251   1.453   1.259   8.490 -1.0094 -2.2557 -0.6062
 1787Sol     MW10252   1.534   1.232   8.515  0.2995  0.0120 -0.3076
 1788Sol     OW10253   2.985   2.459   7.360  0.7246  0.0192 -0.1524
 1788Sol     HW10254   3.080   2.442   7.356  0.6371 -0.1286 -1.9561
 1788Sol     HW10255   2.946   2.385   7.313 -0.1626  1.1406 -1.1680
 1788Sol     MW10256   2.990   2.450   7.356  0.1378 -0.8630  0.0136
 1789Sol     OW10257   3.285   2.051   3.197  0.0518 -0.0553 -0.2159
 1789Sol     HW10258   3.279   2.078   3.105  0.7813  0.6112 -0.0766
 1789Sol     HW10259   3.378   2.056   3.217 -0.1081 -0.1746  0.5713
 1789Sol     MW10260   3.293   2.054   3.190 -0.4976 -0.2774  0.4145
 1790Sol     OW10261   1.752   0.035   2.907  0.3966 -0.4629  0.6378
 1790Sol     HW10262   1.691  -0.024   2.863 -1.2202  0.8616  1.0274
 1790Sol     HW10263   1.700   0.113   2.927  3.2099  2.4751 -2.7076
 1790Sol     MW10264   1.742   0.037   2.905 -0.7878  0.5251 -0.1558
 1791Sol     OW10265   0.864   3.007   1.607 -0.6398 -0.0621  0.4152
 1791Sol     HW10266   0.901   2.948   1.542 -0.3213 -0.5424  1.0291
 1791Sol     HW10267   0.775   3.024   1.576  0.4269  2.0025 -1.6732
 1791Sol     MW10268   0.859   3.003   1.599  0.9491  0.2561 -0.2553
 1792Sol     OW10269   2.472   3.367   6.654 -0.2929  0.1910 -0.8002
 1792Sol     HW10270   2.397   3.308   6.653 -0.3280  0.2224 -0.2255
 1792Sol     HW10271   2.541   3.320   6.608 -0.1448 -0.5327  0.1592
 1792Sol     MW10272   2.471   3.358   6.650 -0.2561 -0.0665 -0.0499
 1793Sol     OW10273   1.103   3.358   5.373  0.5705 -0.2282  0.3292
 1793Sol     HW10274   1.092   3.369   5.278 -0.3271  0.1287  0.4619
 1793Sol     HW10275   1.145   3.439   5.401 -0.3033  0.2090  0.4067
 1793Sol     MW10276   1.105   3.367   5.367 -0.1121  0.7750 -0.1662
 1794Sol     OW10277   0.474   1.530   4.175  0.0308 -0.3856 -0.3650
 1794Sol     HW10278   0.406   1.561   4.235 -1.4599  0.3015 -2.3480
 1794Sol     HW10279   0.524   1.466   4.226 -0.3060  1.1981  2.0257
 1794Sol     MW10280   0.472   1.527   4.185  0.8426  0.3713 -0.9858
 1795Sol     OW10281   1.689   1.545   2.678 -0.2116  0.7598 -0.2221
 1795Sol     HW10282   1.726   1.535   2.591  1.5033  0.6090  0.5018
 1795Sol     HW10283   1.740   1.484   2.733 -0.5007  1.6859  1.0984
 1795Sol     MW10284   1.697   1.538   2.675  0.4016  0.0504  0.3995
 1796Sol     OW10285   1.500   0.054   9.578 -0.8760 -0.2809  0.1289
 1796Sol     HW10286   1.434  -0.001   9.535  0.7159 -0.8774 -1.6504
 1796Sol     HW10287   1.465   0.143   9.571 -0.8997 -0.4245 -2.0117
 1796Sol     MW10288   1.491   0.057   9.573  0.3527 -0.4540 -0.3335
 1797Sol     OW10289   0.601   2.772   7.928 -0.4494 -0.7038  0.0136
 1797Sol     HW10290   0.607   2.705   7.996  1.1807  0.5258  1.1153
 1797Sol     HW10291   0.685   2.818   7.932 -1.1670  0.7733 -1.3765
 1797Sol     MW10292   0.609   2.770   7.935  0.0968  0.4468  0.2939
 1798Sol     OW10293   1.900   0.544   9.185 -0.0689  0.1210  0.6558
 1798Sol     HW10294   1.909   0.487   9.109 -2.1152 -0.3704  0.7608
 1798Sol     HW10295   1.880   0.631   9.149  0.8002  0.2917  0.5775
 1798Sol     MW10296   1.899   0.547   9.175 -0.6328  0.2218 -0.4009
 1799Sol     OW10297   2.749   1.995   8.277  0.3827 -0.2040 -0.2269
 1799Sol     HW10298   2.828   1.943   8.260  0.4042 -0.3689  0.3688
 1799Sol     HW10299   2.778   2.086   8.268  0.6024 -0.2689 -0.1763
 1799Sol     MW10300   2.759   1.999   8.274 -0.0343  0.4791 -0.1320
 1800Sol     OW10301   0.252   1.356   3.274 -0.0942  0.0352 -0.0357
 1800Sol     HW10302   0.187   1.426   3.280 -0.4371 -0.3140  0.3078
 1800Sol     HW10303   0.333   1.396   3.308  0.0011  0.6259 -0.9480
 1800Sol     MW10304   0.254   1.366   3.278  0.2135  0.4316  0.4715
 1801Sol     OW10305   2.119   1.751   7.025 -0.3917 -0.7737  0.0018
 1801Sol     HW10306   2.101   1.681   6.962 -0.1426  0.0894 -1.0399
 1801Sol     HW10307   2.176   1.811   6.978 -0.9416  0.3452  0.7527
 1801Sol     MW10308   2.122   1.750   7.016  0.1955  0.1592  0.2187
 1802Sol     OW10309   1.472   1.722   2.240 -0.5410 -0.3802  0.4344
 1802Sol     HW10310   1.553   1.686   2.204 -0.3881  0.9979 -0.6234
 1802Sol     HW10311   1.468   1.687   2.329  1.0441 -0.7252  0.3842
 1802Sol     MW10312   1.479   1.716   2.245  0.4413  0.2945  0.3587
 1803Sol     OW10313   2.033   1.069   4.178  0.2209 -0.4503 -0.1583
 1803Sol     HW10314   2.051   1.148   4.229  4.3491 -1.1966 -0.2755
 1803Sol     HW10315   1.994   1.101   4.096 -0.6767  1.2086  0.8877
 1803Sol     MW10316   2.031   1.079   4.175 -0.2109  0.1917 -0.3896
 1804Sol     OW10317   3.155   0.264   8.410  0.8432 -0.8537 -0.2660
 1804Sol     HW10318   3.178   0.281   8.319 -0.1973  2.0726 -0.0116
 1804Sol     HW10319   3.232   0.220   8.446  1.6893 -1.0422 -2.2363
 1804Sol     MW10320   3.164   0.261   8.405  1.3880  0.5159 -0.3859
 1805Sol     OW10321   0.737   0.284   5.033 -0.2172 -0.1463  0.4226
 1805Sol     HW10322   0.761   0.359   4.979 -0.7348 -0.0491  0.3278
 1805Sol     HW10323   0.712   0.322   5.117 -0.7830 -0.1916  0.2724
 1805Sol     MW10324   0.737   0.294   5.036 -0.6724 -0.3925  0.0427
 1806Sol     OW10325   0.931   1.039   6.710  0.0113  0.5476 -0.0645
 1806Sol     HW10326   0.961   1.112   6.764  0.4303  1.1038 -1.0214
 1806Sol     HW10327   0.883   1.081   6.638 -0.9300 -0.1991  0.1192
 1806Sol     MW10328   0.930   1.050   6.708 -0.1845 -0.1492 -0.5675
 1807Sol     OW10329   3.100   1.159   3.864 -0.2431  0.1329  0.8839
 1807Sol     HW10330   3.193   1.140   3.852 -0.4764 -0.0224 -0.7495
 1807Sol     HW10331   3.077   1.216   3.791 -1.6213 -0.4826  0.8281
 1807Sol     MW10332   3.106   1.162   3.856  0.1270 -0.1470  0.3507
 1808Sol     OW10333   1.882   0.557   6.723  0.4420  0.3444  0.3212
 1808Sol     HW10334   1.839   0.611   6.790 -0.2980  1.6267 -1.1514
 1808Sol     HW10335   1.870   0.467   6.753 -1.7669  0.7702  0.8441
 1808Sol     MW10336   1.877   0.554   6.732 -0.4345  0.1492  0.3675
 1809Sol     OW10337   0.986   2.508   6.624  0.4772  0.2788  0.5669
 1809Sol     HW10338   1.076   2.539   6.624  0.9520 -1.0061  2.0252
 1809Sol     HW10339   0.947   2.544   6.544  2.5337  0.0610 -0.5527
 1809Sol     MW10340   0.990   2.514   6.617  0.0814  0.3058  0.1601
 1810Sol     OW10341   2.069   3.249   5.022 -0.1808  0.5482  0.5249
 1810Sol     HW10342   2.069   3.329   5.074  0.1679  0.0033  1.3834
 1810Sol     HW10343   2.023   3.272   4.941  0.0339  1.6436  0.7109
 1810Sol     MW10344   2.065   3.258   5.019  0.0410 -0.4999 -0.2798
 1811Sol     OW10345   0.627   0.897   8.317 -0.1271  0.0277 -0.6417
 1811Sol     HW10346   0.563   0.890   8.245  1.2047 -0.3836 -1.8133
 1811Sol     HW10347   0.664   0.985   8.308 -1.2297  0.6335  0.6505
 1811Sol     MW10348   0.625   0.904   8.309  0.8541 -0.9276  0.7886
 1812Sol     OW10349   2.072   2.559   3.047 -0.4623 -0.6606  0.2123
 1812Sol     HW10350   2.036   2.477   3.014 -1.7271 -1.1577  2.7071
 1812Sol     HW10351   2.167   2.543   3.054 -0.4581 -1.2457 -1.0810
 1812Sol     MW10352   2.078   2.550   3.044  0.3787 -0.8681 -0.4452
 1813Sol     OW10353   3.213   2.993   9.137 -0.4796  0.2460 -0.0440
 1813Sol     HW10354   3.175   3.011   9.052 -0.1478  0.5515 -0.1319
 1813Sol     HW10355   3.207   2.898   9.147  0.8266  0.0465 -1.0581
 1813Sol     MW10356   3.209   2.986   9.130  0.4816  0.3830  0.0211
 1814Sol     OW10357   1.709   1.343   9.392  0.3299 -0.4453 -0.5368
 1814Sol     HW10358   1.625   1.320   9.352 -0.8753 -0.2340  1.8094
 1814Sol     HW10359   1.721   1.279   9.462  0.9031  1.0480  0.7696
 1814Sol     MW10360   1.703   1.335   9.394  0.1611  0.1126  0.4774
 1815Sol     OW10361   0.177   2.017   5.561  0.1179 -0.0534 -0.6856
 1815Sol     HW10362   0.241   2.088   5.563  0.3489 -0.1410 -3.5839
 1815Sol     HW10363   0.209   1.954   5.626  0.4068  2.0181  1.2471
 1815Sol     MW10364   0.185   2.017   5.567 -0.0136 -0.1233  0.2015
 1816Sol     OW10365   1.698   2.903   4.758 -0.9832 -0.0522 -0.5777
 1816Sol     HW10366   1.651   2.880   4.839 -1.5130 -1.0669 -1.1712
 1816Sol     HW10367   1.675   2.834   4.696 -1.4447  1.2963 -1.9332
 1816Sol     MW10368   1.691   2.895   4.760 -0.0159 -0.3780  0.0574
 1817Sol     OW10369   1.831   2.279   1.509 -0.1296  0.7305 -0.1515
 1817Sol     HW10370   1.854   2.289   1.417 -1.4613  0.8539 -0.4845
 1817Sol     HW10371   1.851   2.365   1.548  1.4391  0.3558 -0.0779
 1817Sol     MW10372   1.835   2.288   1.504 -0.4950 -0.2737 -0.9773
 1818Sol     OW10373   1.732   0.164   7.447 -0.1179  0.0814 -0.0484
 1818Sol     HW10374   1.671   0.112   7.500  0.0038 -1.5074 -1.4083
 1818Sol     HW10375   1.709   0.255   7.466 -2.5310 -0.4930 -0.0901
 1818Sol     MW10376   1.724   0.167   7.454 -0.3424 -0.6497 -0.0171
 1819Sol     OW10377   1.667   2.661   4.627 -0.2053 -0.3923 -0.2985
 1819Sol     HW10378   1.580   2.627   4.647 -1.6083  3.4907  0.5856
 1819Sol     HW10379   1.672   2.657   4.531 -0.7025 -2.0683 -0.2760
 1819Sol     MW10380   1.659   2.657   4.620 -0.0211 -0.1571  0.1511
 1820Sol     OW10381   2.894   0.176   8.442 -0.6399 -0.0666 -0.0335
 1820Sol     HW10382   2.981   0.215   8.428 -0.6717  0.0474  0.0874
 1820Sol     HW10383   2.890   0.160   8.536 -1.1505  0.8675  0.1055
 1820Sol     MW10384   2.902   0.178   8.449 -0.0342 -0.4975  0.7027
 1821Sol     OW10385   0.748   1.957   9.246  0.0330  0.0027  0.1991
 1821Sol     HW10386   0.738   1.952   9.341  1.2431 -1.2163  0.2795
 1821Sol     HW10387   0.778   1.870   9.220 -2.4042 -0.3469 -1.6013
 1821Sol     MW10388   0.750   1.949   9.252 -0.7132  0.4377  0.1748
 1822Sol     OW10389   2.076   2.772   7.343  0.6941  0.0797 -0.1498
 1822Sol     HW10390   2.026   2.690   7.339  1.5145 -0.3637 -1.8049
 1822Sol     HW10391   2.165   2.745   7.364  0.4011  0.8212  2.2147
 1822Sol     MW10392   2.079   2.762   7.345  0.3300  0.1785  0.7088
 1823Sol     OW10393   1.669   0.815   5.310 -0.3678 -0.7490  0.3195
 1823Sol     HW10394   1.754   0.784   5.341 -0.2805 -0.6499  0.1793
 1823Sol     HW10395   1.680   0.909   5.299 -0.2516 -0.8540 -0.4793
 1823Sol     MW10396   1.677   0.821   5.312 -0.2377 -0.1068 -0.0902
 1824Sol     OW10397   0.391   1.185   2.563  0.4532  0.1392 -0.2985
 1824Sol     HW10398   0.387   1.276   2.592  2.1757  0.3511 -0.6504
 1824Sol     HW10399   0.322   1.141   2.612 -0.0205  1.5266  0.2991
 1824Sol     MW10400   0.385   1.189   2.570  0.5403  0.8263  0.7389
 1825Sol     OW10401   0.786   0.005   6.536 -0.0941 -0.1740  0.3289
 1825Sol     HW10402   0.780   0.047   6.621  0.4119  0.2362  0.1636
 1825Sol     HW10403   0.813   0.076   6.476 -1.9319 -0.0989 -0.4441
 1825Sol     MW10404   0.788   0.015   6.538 -0.1936  0.7488 -0.7286
 1826Sol     OW10405   0.915   0.520   7.181 -0.0135  0.0486  0.1775
 1826Sol     HW10406   0.906   0.561   7.267 -0.8820  1.3427 -0.5141
 1826Sol     HW10407   0.902   0.427   7.198  2.6090 -0.0532  1.8728
 1826Sol     MW10408   0.913   0.515   7.191 -0.0366 -0.0632  0.2070
 1827Sol     OW10409   1.026   0.857   7.980  0.1142 -0.3232 -0.2174
 1827Sol     HW10410   1.042   0.822   8.068 -2.5165  0.2731  0.5221
 1827Sol     HW10411   0.975   0.789   7.936 -0.8871  0.5109 -0.3657
 1827Sol     MW10412   1.023   0.848   7.984 -0.0376 -0.3938 -0.8563
 1828Sol     OW10413   0.218   2.706   8.879  0.3268  0.0787  0.0560
 1828Sol     HW10414   0.203   2.792   8.917 -0.0717 -0.1331  0.3928
 1828Sol     HW10415   0.296   2.673   8.925  1.0940  0.6779 -0.8115
 1828Sol     MW10416   0.224   2.710   8.887 -0.4365 -0.1949 -0.7187
 1829Sol     OW10417   1.979   2.069   6.752 -0.3090 -0.7937  0.4415
 1829Sol     HW10418   1.974   1.976   6.774  1.4310 -0.6927  1.3426
 1829Sol     HW10419   1.970   2.114   6.835 -2.3510 -0.0879 -0.1338
 1829Sol     MW10420   1.978   2.065   6.761 -0.4587 -0.9526  0.0936
 1830Sol     OW10421   0.645   2.564   7.723 -0.1395  0.2581  0.2829
 1830Sol     HW10422   0.634   2.638   7.783 -0.4389  0.0251  0.5181
 1830Sol     HW10423   0.556   2.529   7.713  0.2558 -1.2018  1.6109
 1830Sol     MW10424   0.636   2.567   7.728  0.1574 -0.4988  0.3815
 1831Sol     OW10425   3.289   2.168   2.917 -0.2185 -0.2611 -0.2277
 1831Sol     HW10426   3.226   2.239   2.925  0.1060 -0.2165  2.3065
 1831Sol     HW10427   3.243   2.100   2.867 -0.7775  1.3915 -2.0144
 1831Sol     MW10428   3.279   2.168   2.913 -0.2106 -0.1345 -0.6905
 1832Sol     OW10429   0.837   0.139   2.038 -0.3038 -0.5157 -0.5647
 1832Sol     HW10430   0.783   0.215   2.061 -0.0388 -0.4139 -0.2790
 1832Sol     HW10431   0.814   0.072   2.102 -0.4776 -0.6486 -0.7668
 1832Sol     MW10432   0.830   0.140   2.045 -0.0465 -0.1574 -0.0717
 1833Sol     OW10433   2.437   0.499   7.464  0.0854 -0.1775  0.1397
 1833Sol     HW10434   2.373   0.430   7.449  1.1499 -1.1751  0.1418
 1833Sol     HW10435   2.517   0.453   7.491  0.5681  1.1005  0.9395
 1833Sol     MW10436   2.439   0.489   7.465  0.0841 -0.7461  0.4278
 1834Sol     OW10437   0.156   1.998   3.629 -0.5642 -0.1669  0.2639
 1834Sol     HW10438   0.141   1.909   3.661 -1.7004  0.2790  1.0114
 1834Sol     HW10439   0.222   1.988   3.560  0.9053 -1.3275  1.7934
 1834Sol     MW10440   0.161   1.989   3.626 -0.5671  0.2208 -0.0603
 1835Sol     OW10441   0.394   3.161   3.346  0.2854 -0.0933  0.6426
 1835Sol     HW10442   0.461   3.187   3.282 -0.2719 -0.3270 -0.0434
 1835Sol     HW10443   0.427   3.078   3.382  0.5389 -0.0294  0.5624
 1835Sol     MW10444   0.403   3.156   3.343  0.4249  0.5350 -0.3377
 1836Sol     OW10445   3.133   1.748   6.198  0.2280  0.1950 -0.0671
 1836Sol     HW10446   3.104   1.672   6.248  0.6194  0.8918  1.2459
 1836Sol     HW10447   3.090   1.822   6.240  0.3781  0.7744 -0.9213
 1836Sol     MW10448   3.127   1.748   6.206  0.4659  0.2239  0.2102
 1837Sol     OW10449   1.448   1.344   6.996 -0.0704  0.7602  0.3955
 1837Sol     HW10450   1.355   1.332   7.013 -0.5200  2.1829 -0.9577
 1837Sol     HW10451   1.476   1.412   7.058 -0.2183  1.1815  0.0092
 1837Sol     MW10452   1.442   1.349   7.003  0.5399  0.2779 -0.2086
 1838Sol     OW10453   1.649   2.866   2.499  0.2576 -0.6609  0.5863
 1838Sol     HW10454   1.660   2.894   2.408  3.0115 -0.5156  0.9138
 1838Sol     HW10455   1.614   2.778   2.493  1.5323 -1.1006 -0.6651
 1838Sol     MW10456   1.647   2.861   2.491 -0.3021 -0.4747  0.5280
 1839Sol     OW10457   0.133   1.720   3.725  0.3231  0.2195 -0.4293
 1839Sol     HW10458   0.131   1.731   3.820 -0.0820  1.1579 -0.5461
 1839Sol     HW10459   0.175   1.635   3.712 -0.6735 -0.4541  0.6336
 1839Sol     MW10460   0.137   1.713   3.732  0.6646  0.2943 -0.0113
 1840Sol     OW10461   0.041   2.973   6.157  1.1119 -0.3992 -0.1019
 1840Sol     HW10462   0.035   2.879   6.169  2.9187 -0.7246 -1.5305
 1840Sol     HW10463   0.135   2.992   6.158  0.8516  1.1597 -1.3529
 1840Sol     MW10464   0.049   2.967   6.158  0.0924 -0.4364  0.5513
 1841Sol     OW10465   2.821   1.926   4.729  0.3590  0.8332  0.3028
 1841Sol     HW10466   2.767   1.863   4.776  0.2636 -1.8804 -3.1971
 1841Sol     HW10467   2.760   1.973   4.673  1.0038  0.8669 -0.3867
 1841Sol     MW10468   2.811   1.924   4.728 -0.5171  0.2619  0.2403
 1842Sol     OW10469   0.708   2.175   4.091  0.4646  0.6084 -0.3669
 1842Sol     HW10470   0.741   2.263   4.074  0.4703  0.4165 -1.3464
 1842Sol     HW10471   0.617   2.188   4.119  0.7329  0.9825  0.3592
 1842Sol     MW10472   0.703   2.184   4.092 -0.2211  0.0793 -0.3047
 1843Sol     OW10473   0.777   0.565   9.418  0.1740  0.4434 -0.1447
 1843Sol     HW10474   0.780   0.469   9.419  0.0532  0.4249 -0.9820
 1843Sol     HW10475   0.845   0.590   9.357  2.3065  1.0149  2.3885
 1843Sol     MW10476   0.783   0.558   9.413  0.6652  0.2037 -0.2180
 1844Sol     OW10477   2.945   1.887   8.856  0.0267 -0.7328  0.0213
 1844Sol     HW10478   3.011   1.898   8.787  0.5843 -1.3344  0.4534
 1844Sol     HW10479   2.866   1.929   8.821  0.8287  0.5967 -0.2141
 1844Sol     MW10480   2.944   1.891   8.846 -0.7556  0.4696  0.2956
 1845Sol     OW10481   1.800   0.221   2.671 -0.1557  0.6232  0.3342
 1845Sol     HW10482   1.719   0.175   2.693  0.7899 -0.9338  0.6182
 1845Sol     HW10483   1.838   0.244   2.755  0.1399  0.5535  0.2210
 1845Sol     MW10484   1.796   0.219   2.680 -0.1557  0.1822  0.0218
 1846Sol     OW10485   3.215   2.509   2.084  0.0536  0.3921  0.4610
 1846Sol     HW10486   3.300   2.508   2.128 -0.2807 -1.7012  1.1001
 1846Sol     HW10487   3.165   2.440   2.127 -1.8270  1.2901 -0.2223
 1846Sol     MW10488   3.218   2.503   2.092 -0.1062  0.2934  0.1311
 1847Sol     OW10489   1.008   3.346   6.118  0.3653 -0.0568 -0.1070
 1847Sol     HW10490   0.964   3.427   6.091 -0.8259 -0.6168  0.1232
 1847Sol     HW10491   1.059   3.320   6.042  0.9117  1.0179 -0.1196
 1847Sol     MW10492   1.008   3.351   6.109 -0.6435  0.3187 -0.2613
 1848Sol     OW10493   1.855   3.222   7.336  1.1234  0.2703  0.5281
 1848Sol     HW10494   1.939   3.218   7.290  0.2814 -0.9607 -0.9535
 1848Sol     HW10495   1.812   3.300   7.302 -0.2491 -1.5897 -2.1790
 1848Sol     MW10496   1.859   3.228   7.329 -0.5905 -0.2466  0.4134
 1849Sol     OW10497   2.105   0.851   6.339 -0.1705  0.3105  0.4510
 1849Sol     HW10498   2.083   0.842   6.432 -1.5042  0.0418  0.1218
 1849Sol     HW10499   2.037   0.800   6.294  0.1642  0.8780 -0.6950
 1849Sol     MW10500   2.097   0.846   6.344  0.2957 -0.2805 -0.3708
 1850Sol     OW10501   2.472   1.040   2.515  0.0978  0.4487 -0.5538
 1850Sol     HW10502   2.469   1.007   2.426 -0.9278 -0.4383 -0.2075
 1850Sol     HW10503   2.463   0.962   2.570 -0.4567  1.1024  0.3037
 1850Sol     MW10504   2.471   1.030   2.512  0.1444  0.4555 -0.0129
 1851Sol     OW10505   2.120   0.161   6.733 -0.4059  0.2135 -0.2831
 1851Sol     HW10506   2.158   0.223   6.670  0.2213  1.5512  1.3908
 1851Sol     HW10507   2.080   0.094   6.678  1.4500  0.5507 -2.1216
 1851Sol     MW10508   2.120   0.161   6.722  0.2573  0.1693 -0.0613
 1852Sol     OW10509   2.179   2.607   5.771 -0.0985  0.4595  0.0856
 1852Sol     HW10510   2.211   2.519   5.786 -0.3496 -0.1649 -2.8624
 1852Sol     HW10511   2.257   2.659   5.753  0.0065  0.8039  1.4130
 1852Sol     MW10512   2.189   2.604   5.771  0.7817 -0.3860  0.4022
 1853Sol     OW10513   1.677   3.347   8.204  0.0967  0.3169  0.1317
 1853Sol     HW10514   1.601   3.332   8.149  0.3281  1.6632 -0.5690
 1853Sol     HW10515   1.751   3.313   8.154  0.0474 -0.3474  0.5074
 1853Sol     MW10516   1.677   3.343   8.195 -0.5391  0.5551 -0.0407
 1854Sol     OW10517   1.287   0.421   3.336  0.1380  0.4671 -0.3949
 1854Sol     HW10518   1.318   0.400   3.248  0.7716 -1.3597  0.2377
 1854Sol     HW10519   1.270   0.515   3.334  1.5664  0.7074 -2.0260
 1854Sol     MW10520   1.288   0.428   3.328  0.1012 -0.0681 -0.0336
 1855Sol     OW10521   1.974   1.678   3.861 -0.0608 -0.8340  0.7411
 1855Sol     HW10522   1.944   1.624   3.935  0.2971 -4.1239 -1.3936
 1855Sol     HW10523   1.898   1.683   3.803  0.0511  0.6509  0.7168
 1855Sol     MW10524   1.964   1.673   3.863  0.3005 -0.2943 -0.2072
 1856Sol     OW10525   2.476   1.191   5.967 -0.0755 -0.0798 -1.3739
 1856Sol     HW10526   2.487   1.097   5.984 -0.6025  0.1270  0.2070
 1856Sol     HW10527   2.561   1.229   5.990 -1.3182  0.4386  2.8357
 1856Sol     MW10528   2.485   1.186   5.971  0.2030 -0.0117  0.1547
 1857Sol     OW10529   2.917   1.032   5.245  0.5203  0.0781 -0.5460
 1857Sol     HW10530   2.951   0.961   5.299 -2.3269  0.2179  1.5449
 1857Sol     HW10531   2.966   1.109   5.274 -0.9985  0.1638  2.0034
 1857Sol     MW10532   2.924   1.033   5.253  0.4792  0.5790 -0.0147
 1858Sol     OW10533   0.920   0.006   3.880  0.9100  0.2779 -0.0223
 1858Sol     HW10534   0.855  -0.064   3.872  0.0286  1.1205 -0.4739
 1858Sol     HW10535   0.923   0.046   3.793  1.5218  0.6881  0.1814
 1858Sol     MW10536   0.914   0.004   3.872 -0.2903  0.6729 -0.0836
 1859Sol     OW10537   2.607   0.465   6.612  0.9947 -0.0124  0.1477
 1859Sol     HW10538   2.605   0.477   6.518  0.4573  1.5597  0.3508
 1859Sol     HW10539   2.638   0.375   6.624 -0.1079 -0.6426 -1.5366
 1859Sol     MW10540   2.610   0.458   6.605 -0.4024 -0.0000 -0.0167
 1860Sol     OW10541   2.905   0.699   2.503  0.0709 -0.6242  0.4774
 1860Sol     HW10542   2.941   0.625   2.453 -0.8046  0.3596 -1.6540
 1860Sol     HW10543   2.983   0.744   2.537  0.7101 -0.9497 -0.5251
 1860Sol     MW10544   2.916   0.696   2.501 -0.8996 -0.0242 -0.1715
 1861Sol     OW10545   0.799   0.237   8.390  0.1633 -0.7721 -0.3857
 1861Sol     HW10546   0.885   0.247   8.348 -0.3867  0.8712 -1.1505
 1861Sol     HW10547   0.737   0.245   8.318 -0.7583  1.0378  0.5733
 1861Sol     MW10548   0.801   0.238   8.379 -0.8343 -0.0531  0.4157
 1862Sol     OW10549   1.460   1.861   5.427  0.5878 -0.6265 -0.1303
 1862Sol     HW10550   1.433   1.854   5.518 -0.7735 -1.1420 -0.5608
 1862Sol     HW10551   1.408   1.794   5.381 -0.1233  0.8711 -1.5681
 1862Sol     MW10552   1.453   1.854   5.431  0.1693 -0.0557 -0.4001
 1863Sol     OW10553   3.020   2.276   3.603  0.6352  0.0696  0.2344
 1863Sol     HW10554   3.101   2.244   3.642  0.4728  2.1155  2.3718
 1863Sol     HW10555   3.049   2.327   3.527  1.4734  1.7011  1.6139
 1863Sol     MW10556   3.030   2.278   3.599  0.7159  0.0622 -0.0597
 1864Sol     OW10557   2.499   3.015   2.891 -0.3070 -0.0077  0.0661
 1864Sol     HW10558   2.409   2.982   2.888  0.2870 -1.4931 -1.9551
 1864Sol     HW10559   2.496   3.099   2.844 -0.6492  0.0118  0.1218
 1864Sol     MW10560   2.491   3.020   2.887  0.0656  0.3334 -0.4312
 1865Sol     OW10561   1.194   1.997   5.126  0.3103 -0.2005 -0.3783
 1865Sol     HW10562   1.131   2.056   5.167  0.4918 -0.3128  0.0720
 1865Sol     HW10563   1.174   1.911   5.163  0.1792 -0.3878 -0.8757
 1865Sol     MW10564   1.187   1.994   5.133 -0.1520 -0.3950  0.4047
 1866Sol     OW10565   1.455   2.728   7.213 -0.2987  0.6606 -0.4570
 1866Sol     HW10566   1.429   2.656   7.155  1.6069  1.1950 -2.0595
 1866Sol     HW10567   1.375   2.753   7.258 -1.2297 -1.7119 -0.7069
 1866Sol     MW10568   1.446   2.724   7.212 -0.3545 -0.2508  0.0037
 1867Sol     OW10569   2.326   1.847   8.657  0.3227 -0.0521 -0.0270
 1867Sol     HW10570   2.294   1.814   8.573  1.9047 -0.7194 -0.3789
 1867Sol     HW10571   2.419   1.866   8.642 -0.2266  3.3234  0.5429
 1867Sol     MW10572   2.332   1.846   8.648  0.2029  0.1267 -1.0625
 1868Sol     OW10573   1.393   0.259   7.302 -0.2417 -0.0727 -0.0673
 1868Sol     HW10574   1.357   0.235   7.387 -0.0975 -2.6822 -0.6998
 1868Sol     HW10575   1.484   0.280   7.319  0.1076 -1.7586  0.2814
 1868Sol     MW10576   1.398   0.259   7.311 -0.1844 -0.3397  0.3035
 1869Sol     OW10577   2.450   3.342   4.077 -0.2420  0.5794  0.0834
 1869Sol     HW10578   2.374   3.297   4.041  0.0317 -0.0602  0.3065
 1869Sol     HW10579   2.424   3.366   4.166 -0.3457  0.7621  0.0039
 1869Sol     MW10580   2.441   3.340   4.081  0.2196  0.0079  0.3888
 1870Sol     OW10581   1.872   0.815   3.790  0.0643 -0.4462 -0.1753
 1870Sol     HW10582   1.951   0.775   3.828  0.0852 -0.9857 -0.7827
 1870Sol     HW10583   1.802   0.788   3.849 -0.0934 -2.3253 -1.1986
 1870Sol     MW10584   1.873   0.809   3.799 -0.0151 -0.0998  0.0384
 1871Sol     OW10585   0.522   0.373   8.006 -0.2030 -0.0990  0.4931
 1871Sol     HW10586   0.541   0.301   8.067 -0.1880 -0.2731  0.2850
 1871Sol     HW10587   0.503   0.329   7.923  0.9063  0.1800  0.0837
 1871Sol     MW10588   0.522   0.363   8.004 -0.0521  0.2012  1.0253
 1872Sol     OW10589   1.328   0.937   5.361 -0.0674 -0.6712 -0.5860
 1872Sol     HW10590   1.345   0.969   5.273  0.9825  1.3364  0.3275
 1872Sol     HW10591   1.340   1.013   5.418  1.2384 -2.3656  1.5079
 1872Sol     MW10592   1.330   0.946   5.358 -0.2373 -0.5549 -0.5404
 1873Sol     OW10593   3.008   2.549   3.835  0.1303  0.1169  0.3402
 1873Sol     HW10594   3.054   2.581   3.913 -0.8788  1.1295  0.5386
 1873Sol     HW10595   3.045   2.599   3.763 -0.0841  0.3515  0.3917
 1873Sol     MW10596   3.016   2.556   3.835  0.6519  0.1803 -0.3706
 1874Sol     OW10597   1.767   0.887   9.205  0.3166 -0.1991  0.3052
 1874Sol     HW10598   1.684   0.913   9.165  0.6076  0.1979 -0.0439
 1874Sol     HW10599   1.822   0.860   9.131  0.6247 -0.1174  0.5004
 1874Sol     MW10600   1.765   0.887   9.195  0.0512 -0.2001  0.1906
 1875Sol     OW10601   1.743   2.443   6.988  0.7747  0.1705 -0.5034
 1875Sol     HW10602   1.798   2.366   6.970  2.5481  0.8918  1.5346
 1875Sol     HW10603   1.691   2.417   7.064  0.9393  0.7452 -0.1902
 1875Sol     MW10604   1.744   2.434   6.993 -0.4176  0.8802  0.1329
 1876Sol     OW10605   0.048   1.632   4.770  0.0873  0.2064 -0.0772
 1876Sol     HW10606   0.134   1.633   4.727  0.3232  0.0692  0.3931
 1876Sol     HW10607  -0.012   1.666   4.704  0.6421  1.1293 -0.1155
 1876Sol     MW10608   0.050   1.635   4.760 -0.2754  0.5976  0.2340
 1877Sol     OW10609   2.307   1.373   4.458  0.4273  0.5518  0.5376
 1877Sol     HW10610   2.400   1.392   4.445  0.1142  1.9198  0.1407
 1877Sol     HW10611   2.306   1.292   4.508  1.8098 -0.5118 -1.0849
 1877Sol     MW10612   2.316   1.368   4.461 -0.3527 -0.2020 -0.2278
 1878Sol     OW10613   2.516   2.510   6.373  0.2306  0.4128  0.1375
 1878Sol     HW10614   2.427   2.528   6.401 -0.3113 -0.8276 -0.7504
 1878Sol     HW10615   2.565   2.498   6.454 -0.2769  1.6373  0.6402
 1878Sol     MW10616   2.513   2.511   6.383  0.8982  1.2002 -0.1173
 1879Sol     OW10617   1.638   3.264   7.622  0.2435 -0.4584  0.4908
 1879Sol     HW10618   1.625   3.180   7.666  2.5456 -0.2629  1.6475
 1879Sol     HW10619   1.731   3.284   7.637  0.2464  1.2475 -1.6233
 1879Sol     MW10620   1.645   3.258   7.627  0.1882 -0.4139 -0.0371
 1880Sol     OW10621   1.822   0.959   7.025  0.3787 -0.0126 -0.2473
 1880Sol     HW10622   1.829   0.990   6.934  0.0365 -0.0359 -0.2810
 1880Sol     HW10623   1.900   0.994   7.068 -0.6114  1.9186  0.0135
 1880Sol     MW10624   1.830   0.965   7.020 -0.1478  0.5473 -0.2477
 1881Sol     OW10625   3.185   3.164   3.811 -0.2742 -0.0306 -0.0751
 1881Sol     HW10626   3.169   3.258   3.801  0.6785  0.3090  1.5235
 1881Sol     HW10627   3.191   3.150   3.905  0.0183 -1.6320 -0.3135
 1881Sol     MW10628   3.184   3.171   3.818 -0.1402 -0.2820 -0.3338
 1882Sol     OW10629   0.880   0.757   5.579  0.0574 -0.1304  0.5135
 1882Sol     HW10630   0.972   0.781   5.592  0.6675 -1.6847 -0.8448
 1882Sol     HW10631   0.862   0.777   5.488 -0.7606 -0.4617  0.5966
 1882Sol     MW10632   0.887   0.761   5.572 -0.4671  0.2146 -0.3087
 1883Sol     OW10633   1.098   1.323   6.654  0.1252  0.4943  0.4617
 1883Sol     HW10634   1.021   1.370   6.622 -0.7715 -0.6891  0.8567
 1883Sol     HW10635   1.105   1.247   6.596  0.1996 -0.1160  1.2571
 1883Sol     MW10636   1.092   1.320   6.646  0.2473 -0.0945  0.5506
 1884Sol     OW10637   3.030   3.345   4.356  0.0493 -0.3178 -0.1990
 1884Sol     HW10638   3.084   3.394   4.417 -0.0536 -1.4795  0.8343
 1884Sol     HW10639   2.976   3.411   4.313 -0.7611  0.3650  1.8587
 1884Sol     MW10640   3.030   3.355   4.357 -0.8804 -0.2274  0.2455
 1885Sol     OW10641   1.645   3.168   4.716 -0.2665 -0.3232  0.0197
 1885Sol     HW10642   1.667   3.075   4.718 -0.2034 -0.3100 -0.0623
 1885Sol     HW10643   1.561   3.174   4.761 -1.0761 -0.6342 -1.4464
 1885Sol     MW10644   1.640   3.160   4.721 -0.2785  0.1874 -0.2864
 1886Sol     OW10645   2.001   3.317   4.128 -0.1164  1.1545 -0.1094
 1886Sol     HW10646   2.068   3.249   4.133 -0.8382  0.4836  0.6198
 1886Sol     HW10647   2.040   3.386   4.074  0.4658 -0.0226 -1.2320
 1886Sol     MW10648   2.010   3.317   4.123 -0.0040 -0.0089 -0.6427
 1887Sol     OW10649   1.765   1.927   2.871  0.2335 -0.3301  0.4163
 1887Sol     HW10650   1.725   1.985   2.807  0.1556  1.3545  1.9496
 1887Sol     HW10651   1.824   1.871   2.820 -1.7340 -0.7429 -1.4365
 1887Sol     MW10652   1.767   1.927   2.861 -0.1944 -0.5235 -0.3445
 1888Sol     OW10653   1.934   2.401   9.623  0.7251  0.1562 -0.4865
 1888Sol     HW10654   1.974   2.485   9.644  1.1322  0.0361 -0.7645
 1888Sol     HW10655   1.902   2.367   9.706 -0.8736  1.3228 -0.5993
 1888Sol     MW10656   1.935   2.405   9.632  0.0086 -0.4133  0.1757
 1889Sol     OW10657   0.244   2.749   7.823 -0.0557  0.0540  0.0118
 1889Sol     HW10658   0.257   2.840   7.847 -0.5350 -0.1065  0.8898
 1889Sol     HW10659   0.176   2.717   7.883  0.4889 -1.0231  0.0713
 1889Sol     MW10660   0.239   2.754   7.830  0.1718  0.1121  0.0866
 1890Sol     OW10661   0.534   3.417   6.380  0.4546 -0.4179 -0.6660
 1890Sol     HW10662   0.620   3.392   6.416 -0.5006 -2.1540  0.4906
 1890Sol     HW10663   0.485   3.449   6.456 -0.3270 -0.5866 -1.0957
 1890Sol     MW10664   0.538   3.417   6.390 -0.6459  0.2241  0.2318
 1891Sol     OW10665   0.913   0.944   8.561 -0.8924 -0.6664  0.3464
 1891Sol     HW10666   0.962   1.023   8.582  1.3212 -2.3655  1.7639
 1891Sol     HW10667   0.844   0.940   8.627 -1.6484  0.5777 -0.3428
 1891Sol     MW10668   0.911   0.951   8.568  0.7438  0.9312  0.2655
 1892Sol     OW10669   1.895   2.771   9.918  0.4834 -0.2681  0.1124
 1892Sol     HW10670   1.808   2.744   9.887  0.5489 -1.3127  0.8201
 1892Sol     HW10671   1.949   2.692   9.909  1.3381  0.3520 -0.2373
 1892Sol     MW10672   1.892   2.761   9.914 -0.0373  0.2468  0.0228
 1893Sol     OW10673   1.675   2.648   9.540  0.4542 -0.3291 -0.2490
 1893Sol     HW10674   1.756   2.668   9.493  0.6814 -2.0635 -0.6206
 1893Sol     HW10675   1.655   2.557   9.517  0.2113 -1.0170  2.4844
 1893Sol     MW10676   1.680   2.642   9.533  0.2618  0.6281  0.3079
 1894Sol     OW10677   1.904   3.343   2.064  0.4933 -0.4944 -0.7102
 1894Sol     HW10678   1.952   3.328   1.983  3.6687 -1.9308  1.3289
 1894Sol     HW10679   1.864   3.259   2.085  0.6853 -0.4644 -0.1986
 1894Sol     MW10680   1.905   3.334   2.059 -0.5391 -0.4354 -0.2829
 1895Sol     OW10681   1.422   3.123   2.125  0.0000  0.1399  0.1612
 1895Sol     HW10682   1.351   3.144   2.065 -0.6604 -0.2448  0.7919
 1895Sol     HW10683   1.388   3.145   2.212  0.3146 -0.8997  0.5608
 1895Sol     MW10684   1.413   3.127   2.128  0.0618  0.1908  0.1919
 1896Sol     OW10685   1.807   0.189   9.129  0.7276  0.4073  0.2899
 1896Sol     HW10686   1.718   0.168   9.157  0.0214  0.8121 -1.5326
 1896Sol     HW10687   1.860   0.116   9.160 -0.5271 -0.6492 -0.0018
 1896Sol     MW10688   1.804   0.181   9.134  0.1526 -0.6755 -0.2388
 1897Sol     OW10689   3.148   0.825   2.608 -0.3619 -0.1221  0.0507
 1897Sol     HW10690   3.214   0.821   2.540 -1.2295 -2.3402 -0.6880
 1897Sol     HW10691   3.192   0.793   2.687  0.1588  0.8587  0.1679
 1897Sol     MW10692   3.157   0.822   2.609 -0.0713 -0.0250 -0.3061
 1898Sol     OW10693   1.944   1.498   8.264 -0.0727  0.2276  0.2079
 1898Sol     HW10694   1.854   1.465   8.261 -0.1885  0.3438  1.8380
 1898Sol     HW10695   1.997   1.424   8.234 -0.6933  0.1583 -0.7707
 1898Sol     MW10696   1.941   1.489   8.261  0.1016  0.2996 -0.0299
 1899Sol     OW10697   2.817   0.917   2.829 -0.4274 -0.0227  0.0393
 1899Sol     HW10698   2.813   0.849   2.761  0.3654  0.1838 -0.2167
 1899Sol     HW10699   2.860   0.875   2.903  2.1341  0.8482 -0.9114
 1899Sol     MW10700   2.820   0.907   2.829  0.1279 -0.2153 -0.5147
 1900Sol     OW10701   2.035   1.854   9.125 -0.1360  0.2520  0.0574
 1900Sol     HW10702   2.005   1.776   9.173 -1.2707  1.0056  0.5990
 1900Sol     HW10703   2.107   1.888   9.178 -0.1130 -0.0170  0.2021
 1900Sol     MW10704   2.039   1.850   9.134  0.3223 -0.7427 -0.1038
 1901Sol     OW10705   1.153   1.951   6.418  0.4375 -0.5369 -0.2774
 1901Sol     HW10706   1.136   1.956   6.512  1.5770  0.6906 -0.1077
 1901Sol     HW10707   1.108   2.027   6.381 -0.5567 -1.3787 -0.8280
 1901Sol     MW10708   1.148   1.958   6.423  0.2629 -0.0672  0.3837
 1902Sol     OW10709   3.123   0.711   2.257  0.1872 -0.3003 -0.3082
 1902Sol     HW10710   3.083   0.798   2.248 -0.0677 -0.2800  0.9566
 1902Sol     HW10711   3.117   0.673   2.169 -3.1056 -0.4881 -0.0889
 1902Sol     MW10712   3.118   0.716   2.248 -0.8855  0.8541 -0.1715
 1903Sol     OW10713   0.780   2.230   3.715 -0.5734  0.4567  0.0086
 1903Sol     HW10714   0.774   2.236   3.811 -3.9052  4.2245 -0.3193
 1903Sol     HW10715   0.746   2.143   3.695  0.9291 -0.7021  2.2746
 1903Sol     MW10716   0.776   2.223   3.722  0.6148 -0.4016  0.4461
 1904Sol     OW10717   1.458   0.708   4.227  0.9128  0.3862 -0.5645
 1904Sol     HW10718   1.506   0.710   4.309 -1.1347 -1.6392  0.7313
 1904Sol     HW10719   1.437   0.616   4.213 -0.7488  0.9646 -2.1546
 1904Sol     MW10720   1.460   0.700   4.233  0.4869  0.0887 -0.4758
 1905Sol     OW10721   0.063   0.047   9.413 -0.0791  0.3849 -0.3895
 1905Sol     HW10722  -0.030   0.067   9.412 -0.5069 -1.4528  0.3493
 1905Sol     HW10723   0.091   0.068   9.503  0.1671  0.6699 -0.5301
 1905Sol     MW10724   0.057   0.051   9.421  0.4146 -0.6945 -0.0407
 1906Sol     OW10725   1.047   2.383   6.297  0.2110 -0.8248  0.3943
 1906Sol     HW10726   1.084   2.471   6.308 -1.6085 -0.0379  0.3101
 1906Sol     HW10727   1.100   2.328   6.355  2.3029  0.0420 -0.6451
 1906Sol     MW10728   1.055   2.386   6.303 -0.4595  0.0840 -0.4631
 1907Sol     OW10729   2.045   3.009   3.566  0.8374 -0.1129 -0.2119
 1907Sol     HW10730   2.002   3.002   3.651 -0.1640 -1.7967 -0.8198
 1907Sol     HW10731   2.139   3.002   3.585  0.7397  1.4610  0.9229
 1907Sol     MW10732   2.050   3.008   3.575  0.0097 -0.0782 -0.3596
 1908Sol     OW10733   2.211   1.499   6.450  0.6889 -0.5675  0.6434
 1908Sol     HW10734   2.281   1.478   6.389  0.6633 -2.5449  1.2468
 1908Sol     HW10735   2.215   1.594   6.460 -0.7083  0.0802 -4.0760
 1908Sol     MW10736   2.218   1.506   6.446  0.3427 -0.0774  0.2986
 1909Sol     OW10737   1.079   0.845   9.544  0.1650 -0.6696 -0.3415
 1909Sol     HW10738   1.091   0.926   9.496 -0.9248 -0.7631 -0.8081
 1909Sol     HW10739   1.151   0.789   9.516  0.7215  0.0110 -0.2774
 1909Sol     MW10740   1.086   0.847   9.538 -0.1723 -0.4261 -0.0795
 1910Sol     OW10741   3.257   0.399   7.477 -0.2451  0.3190 -0.0301
 1910Sol     HW10742   3.275   0.492   7.493 -0.5572  0.3522  0.1449
 1910Sol     HW10743   3.197   0.398   7.403 -0.0835  0.2483 -0.1581
 1910Sol     MW10744   3.253   0.408   7.472  0.1404 -0.3255 -0.5833
 1911Sol     OW10745   0.932   3.441   8.208 -0.4089 -0.1211 -0.4240
 1911Sol     HW10746   0.889   3.463   8.125  0.1084 -0.1789 -0.7079
 1911Sol     HW10747   0.955   3.525   8.246 -0.6525 -0.0941 -0.3347
 1911Sol     MW10748   0.930   3.450   8.204 -0.2952 -0.3642 -0.0883
 1912Sol     OW10749   2.482   0.392   5.784 -0.2872  0.2960  0.3148
 1912Sol     HW10750   2.462   0.466   5.727 -1.4233  0.0818  0.4109
 1912Sol     HW10751   2.558   0.350   5.743  0.1123  1.2777  0.0463
 1912Sol     MW10752   2.487   0.395   5.775  0.4374 -0.4656  0.1939
 1913Sol     OW10753   0.161   0.093   3.433  0.1727  0.4039  0.0342
 1913Sol     HW10754   0.186   0.016   3.485 -1.4873 -1.1912 -1.4372
 1913Sol     HW10755   0.237   0.151   3.438  1.5470 -1.4191  1.0149
 1913Sol     MW10756   0.170   0.091   3.438  0.8104  0.2912  0.1759
 1914Sol     OW10757   0.879   2.573   3.426  0.6445  0.2079 -0.0578
 1914Sol     HW10758   0.967   2.564   3.391  0.5991 -1.0754  0.1477
 1914Sol     HW10759   0.888   2.639   3.495  1.1739  1.0598 -0.9345
 1914Sol     MW10760   0.888   2.578   3.429  0.1305  0.1217 -1.1528
 1915Sol     OW10761   2.376   0.707   5.884 -0.2330 -0.8359 -0.3068
 1915Sol     HW10762   2.320   0.782   5.905  0.0446 -1.0545  1.2693
 1915Sol     HW10763   2.316   0.634   5.871 -0.4486 -0.5471 -0.9441
 1915Sol     MW10764   2.366   0.707   5.884  0.0709 -0.0263  0.4527
 1916Sol     OW10765   1.699   1.338   3.113  0.1683 -0.2194  0.5602
 1916Sol     HW10766   1.770   1.401   3.126 -0.2054  0.1486  0.8604
 1916Sol     HW10767   1.627   1.372   3.167 -0.0725 -0.8474  0.6402
 1916Sol     MW10768   1.699   1.347   3.119 -0.1911  0.0158  0.5130
 1917Sol     OW10769   2.805   1.313   5.827 -0.1265  0.1841 -0.1195
 1917Sol     HW10770   2.825   1.375   5.898  1.7300  0.9704 -1.2853
 1917Sol     HW10771   2.796   1.228   5.871 -0.0321  0.8392  1.1779
 1917Sol     MW10772   2.806   1.311   5.838 -0.4143 -0.3310 -0.6089
 1918Sol     OW10773   1.866   2.521   1.643 -0.2708  0.1185  0.4944
 1918Sol     HW10774   1.802   2.566   1.698 -0.5127 -0.1039  0.3909
 1918Sol     HW10775   1.951   2.544   1.682 -0.4161  0.3551  0.6693
 1918Sol     MW10776   1.868   2.527   1.652 -0.2621 -0.0357 -0.2528
 1919Sol     OW10777   1.421   2.108   2.453 -0.1350 -0.8949  0.1302
 1919Sol     HW10778   1.391   2.063   2.374  0.0821  0.2791 -0.6409
 1919Sol     HW10779   1.342   2.153   2.485  0.1084 -0.2083 -0.2299
 1919Sol     MW10780   1.411   2.108   2.449 -0.1183  0.0964  0.8369
 1920Sol     OW10781   3.164   1.714   2.061 -0.0811 -0.0715 -0.0650
 1920Sol     HW10782   3.232   1.703   2.127  0.3564  1.1967 -0.2906
 1920Sol     HW10783   3.210   1.746   1.983 -1.0038  1.4762 -0.0031
 1920Sol     MW10784   3.174   1.716   2.060  0.0613  0.1517  0.7119
 1921Sol     OW10785   0.727   0.287   9.449  0.0967  0.1159  0.2352
 1921Sol     HW10786   0.689   0.245   9.372  0.1563 -0.4948  0.5356
 1921Sol     HW10787   0.654   0.293   9.512  0.9369 -2.9613  1.6084
 1921Sol     MW10788   0.717   0.284   9.448  0.1725  0.0911 -0.2175
 1922Sol     OW10789   0.967   0.464   6.270 -0.4252  0.5131 -0.0012
 1922Sol     HW10790   1.031   0.532   6.249 -1.8839  0.9189 -3.3305
 1922Sol     HW10791   0.897   0.512   6.315 -1.2340  1.1959 -1.9255
 1922Sol     MW10792   0.966   0.475   6.273  0.6136 -0.1338  0.0712
 1923Sol     OW10793   0.274   1.664   4.607  0.4097  0.4504 -0.0111
 1923Sol     HW10794   0.288   1.660   4.513 -0.7118  0.8386 -0.1917
 1923Sol     HW10795   0.339   1.603   4.643  1.9692  1.5291 -0.9085
 1923Sol     MW10796   0.281   1.658   4.602  0.0730  0.3987 -0.4801
 1924Sol     OW10797   2.355   2.142   3.327  0.2175  0.1899  0.3707
 1924Sol     HW10798   2.431   2.173   3.278  1.1875 -0.4101  1.4385
 1924Sol     HW10799   2.312   2.221   3.357  0.8221  0.5408  0.3333
 1924Sol     MW10800   2.358   2.152   3.326 -0.5700 -0.4313 -0.3702
 1925Sol     OW10801   0.049   2.621   5.472 -0.0136 -0.2114  0.0943
 1925Sol     HW10802   0.096   2.589   5.395 -1.9917 -0.4765 -1.0522
 1925Sol     HW10803   0.080   2.710   5.485  1.0434 -0.4991 -0.4252
 1925Sol     MW10804   0.056   2.626   5.466  0.6956 -0.3316 -0.1652
 1926Sol     OW10805   2.676   0.913   3.188  0.3664  0.9471 -0.2556
 1926Sol     HW10806   2.652   0.972   3.116 -0.8264 -0.7511 -1.2814
 1926Sol     HW10807   2.597   0.862   3.205  1.9622 -1.8368 -0.8386
 1926Sol     MW10808   2.667   0.914   3.183 -0.6396  0.3217 -0.1878
 1927Sol     OW10809   2.814   0.704   7.329 -0.0591  0.1195 -0.3830
 1927Sol     HW10810   2.880   0.722   7.263  0.3842  0.7487  0.2173
 1927Sol     HW10811   2.731   0.709   7.282  0.2345  0.8796 -0.8319
 1927Sol     MW10812   2.812   0.706   7.319 -0.3311  0.5395 -0.4807
 1928Sol     OW10813   2.719   2.223   9.535 -0.6354 -0.3116  0.5820
 1928Sol     HW10814   2.715   2.159   9.463  1.1980 -1.1722  1.2285
 1928Sol     HW10815   2.797   2.199   9.585 -0.2628  2.0520  1.2136
 1928Sol     MW10816   2.726   2.215   9.533  0.1645 -0.0233  0.4566
 1929Sol     OW10817   0.143   3.013   1.940  0.0204 -0.0200 -0.6352
 1929Sol     HW10818   0.194   3.091   1.959  0.5823 -0.5943  0.2301
 1929Sol     HW10819   0.194   2.967   1.873  0.6629 -0.6087  0.2509
 1929Sol     MW10820   0.152   3.016   1.935 -0.3212  0.3579 -0.7109
 1930Sol     OW10821   0.085   2.462   1.498 -0.4703 -0.3108  0.0678
 1930Sol     HW10822   0.083   2.522   1.572 -0.5617 -0.0251 -0.1633
 1930Sol     HW10823   0.069   2.375   1.536 -0.9814 -0.1070  0.3223
 1930Sol     MW10824   0.083   2.459   1.508 -0.1903 -0.2429  0.6362
 1931Sol     OW10825   1.956   0.351   7.768  0.3451 -0.3353  0.0259
 1931Sol     HW10826   2.014   0.277   7.782 -0.8154 -1.0925  0.9700
 1931Sol     HW10827   2.005   0.410   7.710  1.0689 -2.0653 -1.1443
 1931Sol     MW10828   1.965   0.350   7.764  0.1337 -0.4873 -0.2222
 1932Sol     OW10829   0.742   2.052   4.481  0.6260  0.8443  0.1871
 1932Sol     HW10830   0.652   2.082   4.465  0.5562  0.4474 -0.1752
 1932Sol     HW10831   0.771   2.017   4.397  0.3331 -1.0597  0.8393
 1932Sol     MW10832   0.736   2.051   4.472 -0.4684 -0.2944  0.3372
 1933Sol     OW10833   1.910   3.275   4.813  0.0438 -0.4770 -0.6569
 1933Sol     HW10834   1.815   3.262   4.815  0.1020 -0.9844 -1.2395
 1933Sol     HW10835   1.929   3.309   4.726  0.2166  1.1047 -0.0164
 1933Sol     MW10836   1.903   3.276   4.806 -0.2692 -0.0894  0.1535
 1934Sol     OW10837   0.140   1.149   6.944  0.3141  0.2540 -0.2230
 1934Sol     HW10838   0.205   1.218   6.953  0.8721 -0.2127 -0.6539
 1934Sol     HW10839   0.060   1.194   6.918  0.4025  0.8564  0.5468
 1934Sol     MW10840   0.138   1.159   6.943 -0.4117 -0.1996 -0.5096
 1935Sol     OW10841   2.680   2.854   4.268  0.4422  0.4997 -0.3893
 1935Sol     HW10842   2.760   2.835   4.218  0.5295 -3.8031  1.1256
 1935Sol     HW10843   2.710   2.906   4.343  1.9324 -1.3375  0.3353
 1935Sol     MW10844   2.690   2.857   4.270  0.4747  0.4454 -0.2807
 1936Sol     OW10845   1.693   0.295   1.677  0.4235  0.0774  0.0721
 1936Sol     HW10846   1.707   0.227   1.742  0.6026  0.8013  0.7992
 1936Sol     HW10847   1.608   0.274   1.638 -1.2178  1.4491  2.7831
 1936Sol     MW10848   1.687   0.287   1.679  0.2664  0.1771 -0.2220
 1937Sol     OW10849   2.194   0.973   3.292  0.4749 -0.3715  0.4008
 1937Sol     HW10850   2.203   1.066   3.313  0.0827  0.1143 -1.5519
 1937Sol     HW10851   2.174   0.971   3.199  3.2736 -2.5805 -0.2096
 1937Sol     MW10852   2.193   0.981   3.286 -0.3541 -0.7943 -0.0239
 1938Sol     OW10853   1.171   2.566   1.660 -0.0523 -0.4019 -0.6522
 1938Sol     HW10854   1.197   2.571   1.568  1.2478 -0.7781 -0.3235
 1938Sol     HW10855   1.154   2.473   1.676 -0.6754 -0.2814 -0.6239
 1938Sol     MW10856   1.172   2.558   1.654 -0.2405  0.1399  0.0878
 1939Sol     OW10857   2.715   1.153   8.068  0.0680  0.2145  0.2973
 1939Sol     HW10858   2.750   1.066   8.048 -1.1797  0.1225 -1.6621
 1939Sol     HW10859   2.792   1.211   8.067  0.5279 -0.3916 -1.3610
 1939Sol     MW10860   2.725   1.151   8.066 -0.5550 -0.4445 -0.1024
 1940Sol     OW10861   1.366   3.270   3.918 -0.3694 -0.2348 -0.1894
 1940Sol     HW10862   1.446   3.247   3.872 -0.3885  0.2381 -0.4677
 1940Sol     HW10863   1.395   3.319   3.994 -0.3478 -0.8475  0.1953
 1940Sol     MW10864   1.375   3.273   3.920  0.6333 -0.2651 -0.0980
 1941Sol     OW10865   0.199   1.183   9.339  0.6590 -0.6332 -0.9028
 1941Sol     HW10866   0.240   1.181   9.426 -1.3509 -0.5864  0.0784
 1941Sol     HW10867   0.174   1.093   9.322 -3.6701  0.0561  0.9633
 1941Sol     MW10868   0.201   1.175   9.345 -0.6035 -0.3484  0.1214
 1942Sol     OW10869   0.974   3.111   4.969 -0.0670  0.6227 -0.2784
 1942Sol     HW10870   0.920   3.106   5.048 -0.1449  0.4146 -0.3458
 1942Sol     HW10871   0.963   3.027   4.926 -0.3450  0.8829 -0.7221
 1942Sol     MW10872   0.968   3.103   4.972  0.5808  0.2213 -0.1197
 1943Sol     OW10873   0.902   0.205   7.510  0.5323 -0.2229  0.3364
 1943Sol     HW10874   0.834   0.270   7.529  1.3681  0.2246  1.8752
 1943Sol     HW10875   0.940   0.233   7.428  0.3015  0.7439  0.5564
 1943Sol     MW10876   0.899   0.213   7.505 -0.2427 -0.8410 -0.1326
 1944Sol     OW10877   2.546   0.640   9.295  0.1963 -0.0980 -0.3088
 1944Sol     HW10878   2.512   0.629   9.206 -0.2977 -0.8334 -0.0364
 1944Sol     HW10879   2.638   0.614   9.289 -0.0964 -1.1403 -0.3956
 1944Sol     MW10880   2.551   0.636   9.287  0.1406  0.3182 -0.0427
 1945Sol     OW10881   2.393   1.685   3.855  0.0303  0.9500  0.1645
 1945Sol     HW10882   2.364   1.613   3.799 -0.4876  1.3228 -0.0469
 1945Sol     HW10883   2.382   1.653   3.944  0.6338  0.4400  0.0609
 1945Sol     MW10884   2.390   1.676   3.858 -0.3069  0.0050  0.9220
 1946Sol     OW10885   2.521   0.629   7.695  0.2478 -0.7212  0.4158
 1946Sol     HW10886   2.455   0.587   7.639  0.0573 -1.1279  0.9393
 1946Sol     HW10887   2.477   0.706   7.730 -0.2463 -1.4477  1.4347
 1946Sol     MW10888   2.511   0.632   7.693  0.0719 -0.3846  0.3176
 1947Sol     OW10889   2.236   1.289   7.331 -0.4895 -0.0588 -0.3116
 1947Sol     HW10890   2.308   1.246   7.377  0.1535  0.8812 -0.4256
 1947Sol     HW10891   2.239   1.380   7.361  0.0894  0.6206 -2.3930
 1947Sol     MW10892   2.242   1.293   7.338 -0.2220  0.4330  0.0440
 1948Sol     OW10893   1.811   1.282   4.992 -0.8092  0.9643 -0.0458
 1948Sol     HW10894   1.822   1.191   4.965 -0.2159  1.3279 -1.0664
 1948Sol     HW10895   1.720   1.287   5.023 -0.7751 -0.0182  0.2231
 1948Sol     MW10896   1.803   1.275   4.992  0.2768 -0.6041  0.1339
 1949Sol     OW10897   1.503   0.369   5.608 -0.3473 -0.0745 -0.0353
 1949Sol     HW10898   1.549   0.383   5.690  1.3387  1.2174 -1.1545
 1949Sol     HW10899   1.424   0.422   5.615 -0.8630 -1.0155  1.2674
 1949Sol     MW10900   1.500   0.375   5.616 -0.2149 -0.1203  0.2709
 1950Sol     OW10901   0.527   2.814   1.617  0.0581 -0.3141  0.7779
 1950Sol     HW10902   0.549   2.729   1.655 -1.2142 -0.7686  0.5326
 1950Sol     HW10903   0.545   2.804   1.524  0.6165 -0.0731  0.8604
 1950Sol     MW10904   0.531   2.806   1.612  0.3776  0.3691  0.2057
 1951Sol     OW10905   2.221   2.357   3.442  0.4671  0.5402 -0.7582
 1951Sol     HW10906   2.297   2.369   3.500 -0.1451 -2.2786  0.6989
 1951Sol     HW10907   2.148   2.392   3.493  0.5359  1.8907 -1.5637
 1951Sol     MW10908   2.222   2.362   3.452  0.1087  0.6788 -0.2130
 1952Sol     OW10909   1.904   3.205   8.086  0.0807  0.0731  0.6988
 1952Sol     HW10910   1.911   3.258   8.007 -0.0255 -2.2321 -0.9017
 1952Sol     HW10911   1.994   3.179   8.105 -0.0188 -0.2355  0.7404
 1952Sol     MW10912   1.913   3.207   8.081  0.3827 -0.0546 -0.6521
 1953Sol     OW10913   2.902   2.532   3.245 -0.2608  0.4379 -0.1797
 1953Sol     HW10914   2.853   2.484   3.178  0.5864  1.0446 -1.2578
 1953Sol     HW10915   2.989   2.492   3.244 -0.0255  0.9439  0.0419
 1953Sol     MW10916   2.906   2.524   3.239  0.2751  0.2425 -0.2453
 1954Sol     OW10917   2.482   0.841   7.416 -0.3348 -0.0715  0.1205
 1954Sol     HW10918   2.424   0.895   7.363  0.4319 -0.4304 -1.0956
 1954Sol     HW10919   2.521   0.779   7.355 -0.1930 -1.1540  1.2761
 1954Sol     MW10920   2.481   0.840   7.406  0.1737  0.1208 -0.0562
 1955Sol     OW10921   2.506   0.569   5.569 -0.1441 -0.3778  0.2269
 1955Sol     HW10922   2.560   0.612   5.504  0.8622 -0.9577  0.6700
 1955Sol     HW10923   2.462   0.499   5.521 -0.9018  0.4068 -0.2410
 1955Sol     MW10924   2.507   0.566   5.559 -0.3842  0.2641 -0.9599
 1956Sol     OW10925   3.105   2.671   3.616 -0.5920  0.9063 -0.0622
 1956Sol     HW10926   3.196   2.657   3.640 -0.5186 -0.3718 -1.0352
 1956Sol     HW10927   3.109   2.729   3.539 -0.6475  1.6262  0.4735
 1956Sol     MW10928   3.113   2.675   3.611  0.2965  0.0202  0.1680
 1957Sol     OW10929   2.464   0.761   3.688  0.2824  0.7243 -0.0327
 1957Sol     HW10930   2.473   0.670   3.661  0.0242  0.9957 -1.0394
 1957Sol     HW10931   2.490   0.761   3.780 -1.2425 -0.6499  0.4252
 1957Sol     MW10932   2.467   0.753   3.694 -0.0478 -0.0775 -0.9979
 1958Sol     OW10933   2.898   0.988   6.105 -0.0660 -0.0177 -0.9000
 1958Sol     HW10934   2.958   1.063   6.113  0.5512 -0.5195 -0.7772
 1958Sol     HW10935   2.956   0.913   6.089 -0.6438 -0.5511 -0.4806
 1958Sol     MW10936   2.909   0.988   6.104  0.5629  0.4238  0.1913
 1959Sol     OW10937   3.101   1.438   3.248  0.7526  0.0322 -0.0765
 1959Sol     HW10938   3.148   1.365   3.287  0.9546  0.2193  0.0272
 1959Sol     HW10939   3.016   1.401   3.224  1.3081 -0.5625 -1.1748
 1959Sol     MW10940   3.097   1.428   3.249 -0.9697 -0.6612 -0.3054
 1960Sol     OW10941   1.882   1.801   6.223 -0.0654 -0.6721  0.0266
 1960Sol     HW10942   1.962   1.851   6.241  0.5564 -1.7450  0.3153
 1960Sol     HW10943   1.911   1.729   6.167 -0.0930 -3.1732  3.0531
 1960Sol     MW10944   1.892   1.799   6.220  0.6277 -0.3253 -0.2281
 1961Sol     OW10945   2.995   0.582   8.285  0.1500  0.4326  0.2223
 1961Sol     HW10946   2.949   0.498   8.277  0.4901  0.1559  1.0038
 1961Sol     HW10947   3.030   0.599   8.198 -0.7633  0.2561 -0.1872
 1961Sol     MW10948   2.994   0.576   8.277  0.0866  0.5980  0.2771
 1962Sol     OW10949   1.666   2.858   5.862  0.0883  0.5777  0.3691
 1962Sol     HW10950   1.612   2.907   5.800  0.0330 -0.1870 -0.1923
 1962Sol     HW10951   1.621   2.868   5.946 -0.6915  0.3029 -0.0148
 1962Sol     MW10952   1.657   2.863   5.864  0.0247 -0.4209 -0.2758
 1963Sol     OW10953   2.639   2.412   1.876  0.0926  0.4012 -0.4289
 1963Sol     HW10954   2.731   2.436   1.868  0.5870 -1.9827 -2.0981
 1963Sol     HW10955   2.593   2.496   1.881  2.4185  1.6102  1.5402
 1963Sol     MW10956   2.643   2.422   1.876  0.0953 -0.1472  0.3752
 1964Sol     OW10957   0.540   1.378   8.979  0.0277 -0.2541  0.0772
 1964Sol     HW10958   0.596   1.305   8.952  0.4300  0.1220 -0.1171
 1964Sol     HW10959   0.484   1.341   9.047 -1.8253 -1.5649 -2.0679
 1964Sol     MW10960   0.540   1.368   8.982 -0.4975  0.2854  0.5045
 1965Sol     OW10961   2.130   1.564   2.284  0.7344 -0.3208  0.1381
 1965Sol     HW10962   2.223   1.588   2.286  0.8552 -0.8028  0.2869
 1965Sol     HW10963   2.125   1.482   2.332 -0.1037  0.7865  1.9767
 1965Sol     MW10964   2.138   1.559   2.288 -0.1367  0.2998 -0.0277
 1966Sol     OW10965   2.485   0.504   2.174 -0.1837  0.5814  0.2003
 1966Sol     HW10966   2.566   0.519   2.124  0.9129  1.3469  2.1330
 1966Sol     HW10967   2.424   0.468   2.110  2.5070 -2.5791 -0.7907
 1966Sol     MW10968   2.487   0.502   2.164 -0.6190 -0.0228  0.2036
 1967Sol     OW10969   3.269   3.415   7.498 -0.2816 -0.3368  0.4839
 1967Sol     HW10970   3.332   3.477   7.462 -0.2316  0.2038  1.4732
 1967Sol     HW10971   3.300   3.398   7.588 -0.2762 -1.8166  0.2251
 1967Sol     MW10972   3.277   3.419   7.503 -0.3245 -0.2699  0.0309
 1968Sol     OW10973   0.269   1.632   4.336 -0.5539 -0.0756 -0.5762
 1968Sol     HW10974   0.272   1.673   4.249 -1.6573  0.1618 -0.5065
 1968Sol     HW10975   0.189   1.580   4.335 -0.8933  0.4269  0.5211
 1968Sol     MW10976   0.262   1.631   4.328 -1.0056 -0.0267  0.0610
 1969Sol     OW10977   2.115   1.039   7.878 -0.7638  0.2220  0.3072
 1969Sol     HW10978   2.177   1.022   7.949 -1.9097  0.3414  1.3533
 1969Sol     HW10979   2.133   0.971   7.813  0.9697  0.7162  0.2439
 1969Sol     MW10980   2.122   1.032   7.878  0.3115 -0.2616  0.6110
 1970Sol     OW10981   3.230   1.981   5.015 -0.2623 -0.0626  0.0285
 1970Sol     HW10982   3.304   1.926   4.990  0.4674  1.2361 -0.7385
 1970Sol     HW10983   3.261   2.071   5.000 -1.2778  0.5780  1.6330
 1970Sol     MW10984   3.239   1.984   5.012  0.1233  0.1979 -0.0796
 1971Sol     OW10985   2.715   0.220   6.127 -0.2465  0.2956  0.0157
 1971Sol     HW10986   2.735   0.190   6.038  0.2351  0.1566  0.1718
 1971Sol     HW10987   2.644   0.283   6.115 -0.7262 -0.3177 -0.3913
 1971Sol     MW10988   2.710   0.223   6.118 -0.0278  0.3944 -0.3162
 1972Sol     OW10989   0.341   1.323   6.954 -0.2444  0.1793  0.5651
 1972Sol     HW10990   0.433   1.297   6.960 -0.6932 -1.6122 -0.0005
 1972Sol     HW10991   0.337   1.407   6.999  1.4646 -0.2365  1.5457
 1972Sol     MW10992   0.349   1.328   6.958  0.4530 -0.2929 -0.0304
 1973Sol     OW10993   0.648   1.889   3.958 -0.2990 -0.3174  0.3271
 1973Sol     HW10994   0.644   1.833   3.880 -2.4204  0.8545 -0.4366
 1973Sol     HW10995   0.727   1.942   3.945 -0.3208 -0.5250 -0.7413
 1973Sol     MW10996   0.655   1.889   3.950 -0.7566 -0.1741  0.0400
 1974Sol     OW10997   2.901   1.453   4.943 -0.1938  0.4828 -0.1595
 1974Sol     HW10998   2.824   1.414   4.901 -0.7865  1.1457  0.3112
 1974Sol     HW10999   2.877   1.463   5.035  1.0157 -0.7281  0.3252
 1974Sol     MW11000   2.892   1.450   4.947 -0.1296  0.0280  0.3127
 1975Sol     OW11001   0.082   1.705   8.721 -0.1501 -0.1448 -0.3460
 1975Sol     HW11002   0.046   1.793   8.731  1.0850  0.2731  0.5259
 1975Sol     HW11003   0.177   1.716   8.732 -0.1608 -1.8820  1.8989
 1975Sol     MW11004   0.087   1.714   8.723  0.3684  0.2689  0.7971
 1976Sol     OW11005   1.768   1.764   1.399  0.2941 -0.4390  0.2524
 1976Sol     HW11006   1.827   1.767   1.324 -0.3609  1.3146 -0.2023
 1976Sol     HW11007   1.780   1.849   1.442 -0.8851 -0.6082  0.9287
 1976Sol     MW11008   1.775   1.772   1.396  0.2101  0.3462  0.0339
 1977Sol     OW11009   1.909   3.407   7.870 -0.1111  0.0957 -0.1501
 1977Sol     HW11010   1.910   3.380   7.778  0.3880  1.4646 -0.5577
 1977Sol     HW11011   1.836   3.469   7.876  2.0952  2.8337 -0.4897
 1977Sol     MW11012   1.902   3.410   7.862  0.3535  0.0774  0.3028
 1978Sol     OW11013   1.774   0.765   2.923  0.1450  0.0758 -0.7084
 1978Sol     HW11014   1.790   0.784   2.831 -0.7795  1.5712 -0.5849
 1978Sol     HW11015   1.764   0.851   2.964  0.8660 -0.5512  0.8471
 1978Sol     MW11016   1.775   0.775   2.919  0.0890 -0.6352 -0.3963
 1979Sol     OW11017   2.268   1.495   9.613  0.3647 -0.2703 -0.1891
 1979Sol     HW11018   2.305   1.450   9.537 -2.3223 -2.6066 -0.1863
 1979Sol     HW11019   2.310   1.454   9.689 -0.1746 -0.9885 -0.2759
 1979Sol     MW11020   2.275   1.488   9.613  0.1875 -0.5557 -0.3621
 1980Sol     OW11021   2.200   1.509   5.537  0.2502 -0.9709 -0.0039
 1980Sol     HW11022   2.200   1.543   5.626  1.2852  1.5845 -0.9347
 1980Sol     HW11023   2.293   1.494   5.517  0.0212 -1.5330 -0.6725
 1980Sol     MW11024   2.209   1.510   5.543 -0.4729  0.4492  0.0396
 1981Sol     OW11025   0.433   0.964   3.642 -0.5335 -0.3311 -0.1669
 1981Sol     HW11026   0.475   0.971   3.727  0.6271 -0.1416 -0.7541
 1981Sol     HW11027   0.367   1.033   3.641  0.9399  1.0920 -0.2687
 1981Sol     MW11028   0.431   0.971   3.649  0.4079  0.5106  0.1132
 1982Sol     OW11029   3.281   0.370   9.104 -0.0184 -0.0555 -0.1995
 1982Sol     HW11030   3.229   0.381   9.024 -2.0998 -0.3361  1.0580
 1982Sol     HW11031   3.241   0.294   9.147  1.3665 -0.1675  0.8876
 1982Sol     MW11032   3.272   0.364   9.100  0.2624 -0.0580  0.1554
 1983Sol     OW11033   1.352   0.314   2.256 -0.3686 -0.2064 -0.1094
 1983Sol     HW11034   1.269   0.279   2.224 -1.3141  0.7028  1.2718
 1983Sol     HW11035   1.345   0.310   2.351 -0.1845  2.9094  0.0851
 1983Sol     MW11036   1.344   0.311   2.262 -0.0789  0.5889  0.4113
 1984Sol     OW11037   2.696   0.518   7.884 -0.2264 -0.5155  0.0599
 1984Sol     HW11038   2.634   0.545   7.818  1.3792 -2.8928 -2.5557
 1984Sol     HW11039   2.654   0.443   7.927 -0.7687  0.2933  0.9621
 1984Sol     MW11040   2.687   0.513   7.882 -0.4152 -0.0102 -0.0838
 1985Sol     OW11041   0.407   2.549   9.000 -0.7906 -0.3233 -0.4039
 1985Sol     HW11042   0.495   2.529   9.030 -1.3323 -3.0460 -0.5069
 1985Sol     HW11043   0.358   2.572   9.080 -0.1705  0.5989 -0.2794
 1985Sol     MW11044   0.410   2.549   9.010  0.1518 -0.1781 -0.2940
 1986Sol     OW11045   0.473   3.255   7.968 -0.6665  0.2072  0.1380
 1986Sol     HW11046   0.380   3.280   7.971 -0.8080 -0.3757  1.0178
 1986Sol     HW11047   0.471   3.160   7.959 -0.1464  0.3267 -1.3214
 1986Sol     MW11048   0.464   3.249   7.968 -0.4700 -0.1961  0.4993
 1987Sol     OW11049   1.376   0.023   2.196  0.1436 -0.1150 -0.0103
 1987Sol     HW11050   1.418   0.105   2.222 -1.6674  1.4877 -2.0190
 1987Sol     HW11051   1.409   0.006   2.107  1.0648 -1.9783  0.6516
 1987Sol     MW11052   1.383   0.029   2.190  0.3129  0.0414 -1.0779
 1988Sol     OW11053   1.152   3.356   3.743  0.1079 -0.1259  0.7125
 1988Sol     HW11054   1.083   3.394   3.798  0.7702  1.0519  0.7532
 1988Sol     HW11055   1.230   3.357   3.799  0.4098 -0.4317  0.2970
 1988Sol     MW11056   1.153   3.359   3.753  0.0370  0.0267  0.8561
 1989Sol     OW11057   2.256   2.805   5.172 -0.4649 -0.1535  0.4231
 1989Sol     HW11058   2.193   2.804   5.100 -0.6129  0.4098  0.5427
 1989Sol     HW11059   2.235   2.884   5.221  2.0241  1.5133 -1.0580
 1989Sol     MW11060   2.249   2.812   5.170  0.1718  0.6300 -0.3563
 1990Sol     OW11061   0.423   2.787   6.604 -0.1894 -0.6997  0.0514
 1990Sol     HW11062   0.512   2.780   6.572  0.1988  1.2643  0.6161
 1990Sol     HW11063   0.419   2.729   6.680  0.1237 -2.0429 -0.9535
 1990Sol     MW11064   0.430   2.781   6.608 -0.2072 -0.5769  0.6098
 1991Sol     OW11065   1.967   1.502   9.055  0.3267 -0.9738  0.1627
 1991Sol     HW11066   1.967   1.555   9.135  1.1227  0.2463 -0.6186
 1991Sol     HW11067   1.909   1.428   9.075 -0.5020 -0.0174  1.4251
 1991Sol     MW11068   1.962   1.500   9.064 -0.5156  0.0860  0.1559
 1992Sol     OW11069   2.618   3.200   6.515 -0.2317 -0.2109  0.9383
 1992Sol     HW11070   2.547   3.183   6.453  0.3970  1.0130 -0.1429
 1992Sol     HW11071   2.696   3.165   6.473  0.1280  0.2106  1.2531
 1992Sol     MW11072   2.619   3.196   6.506  0.3992 -0.0294 -0.1009
 1993Sol     OW11073   2.157   1.870   6.148 -0.8267  0.2011 -0.0553
 1993Sol     HW11074   2.153   1.943   6.210 -1.4970  1.5459 -1.6369
 1993Sol     HW11075   2.211   1.903   6.076 -2.1101 -0.4410 -1.3336
 1993Sol     MW11076   2.161   1.880   6.147  0.2910 -0.7017 -0.2557
 1994Sol     OW11077   2.406   1.944   2.257 -0.2148  0.1504 -0.2101
 1994Sol     HW11078   2.452   1.942   2.173 -1.7910 -2.7829 -1.0877
 1994Sol     HW11079   2.331   2.001   2.242  0.4871  1.0668 -0.2458
 1994Sol     MW11080   2.403   1.949   2.248 -0.1561  0.1020 -0.4103
 1995Sol     OW11081   2.476   2.028   6.243 -1.0875 -0.0127  0.0375
 1995Sol     HW11082   2.433   1.945   6.265  1.4796 -1.3565  0.0900
 1995Sol     HW11083   2.530   2.007   6.167  1.3365  1.0253  1.4376
 1995Sol     MW11084   2.477   2.018   6.238  0.0088  0.0691  0.0480
 1996Sol     OW11085   0.660   0.338   4.028  0.4120 -0.4193 -0.1195
 1996Sol     HW11086   0.580   0.356   4.077 -0.7494 -2.4063 -1.2083
 1996Sol     HW11087   0.639   0.363   3.938  2.0887  1.9597  0.0938
 1996Sol     MW11088   0.651   0.342   4.024  0.4429 -0.3691  0.2273
 1997Sol     OW11089   1.760   1.965   6.491 -0.2798  0.1070  0.1048
 1997Sol     HW11090   1.669   1.968   6.461 -0.0118 -1.2999 -0.8964
 1997Sol     HW11091   1.803   2.036   6.443 -0.9082  0.9459  0.7845
 1997Sol     MW11092   1.756   1.972   6.484  0.0281  0.1684 -0.0602
 1998Sol     OW11093   0.069   0.630   7.269 -0.0030  0.1665  0.0732
 1998Sol     HW11094   0.073   0.672   7.355  1.6693  0.4141 -0.1027
 1998Sol     HW11095  -0.006   0.570   7.274 -0.6998  1.1312  1.2582
 1998Sol     MW11096   0.063   0.628   7.277  0.0276  0.5779  0.0733
 1999Sol     OW11097   1.323   1.929   3.565 -0.3329 -0.9850  0.3457
 1999Sol     HW11098   1.389   1.988   3.602  0.1881 -0.7965 -0.8562
 1999Sol     HW11099   1.369   1.846   3.553 -1.0841 -1.6736  2.0987
 1999Sol     MW11100   1.333   1.927   3.567 -0.3401 -0.2313 -0.4483
 2000Sol     OW11101   1.504   3.023   6.279 -0.1361 -0.0070  0.6666
 2000Sol     HW11102   1.434   3.057   6.224  1.1785 -0.8175 -1.5599
 2000Sol     HW11103   1.543   3.101   6.320 -0.0435  0.7814 -0.8873
 2000Sol     MW11104   1.501   3.034   6.278  0.4602  0.0876  0.3982
 2001Sol     OW11105   1.899   0.750   9.001  0.1496 -0.0497  0.5876
 2001Sol     HW11106   1.937   0.830   8.964  1.2232 -0.1000  1.5633
 2001Sol     HW11107   1.950   0.679   8.964  0.4258 -0.1726  1.2048
 2001Sol     MW11108   1.907   0.751   8.994  0.3097  0.5520  0.1093
 2002Sol     OW11109   0.506   1.433   2.907  0.1507 -0.1395  0.2596
 2002Sol     HW11110   0.495   1.473   2.821 -1.6838  0.2793  0.6637
 2002Sol     HW11111   0.577   1.482   2.948  1.8660 -1.1257 -1.4565
 2002Sol     MW11112   0.511   1.441   2.903 -0.2185 -0.3474  0.0271
 2003Sol     OW11113   1.605   0.581   2.719  0.1911  0.0476  0.2179
 2003Sol     HW11114   1.608   0.507   2.659  1.4930 -1.4208  2.0240
 2003Sol     HW11115   1.692   0.620   2.713  0.2574  0.0276  0.9362
 2003Sol     MW11116   1.613   0.578   2.713 -0.7148 -0.4594  0.1045
 2004Sol     OW11117   0.239   1.940   4.536  0.1416  0.7103 -0.2885
 2004Sol     HW11118   0.166   1.951   4.475  0.2338  0.9240 -0.3640
 2004Sol     HW11119   0.233   1.850   4.566  0.4404  0.4200 -1.0741
 2004Sol     MW11120   0.232   1.933   4.533 -0.6198  0.3303  0.3572
 2005Sol     OW11121   2.782   1.462   6.613  0.6740  0.5835  0.5212
 2005Sol     HW11122   2.852   1.396   6.611 -0.9285 -1.2484  2.2088
 2005Sol     HW11123   2.818   1.534   6.664  1.2639 -0.4511  1.6022
 2005Sol     MW11124   2.792   1.462   6.617 -0.2534 -0.0639 -0.0772
 2006Sol     OW11125   1.605   0.248   3.325  0.2318 -0.6526  0.0851
 2006Sol     HW11126   1.511   0.230   3.325  0.0984 -0.3563 -3.3147
 2006Sol     HW11127   1.646   0.161   3.319  0.0481 -0.6841 -0.9537
 2006Sol     MW11128   1.600   0.238   3.324  0.0568 -0.5583 -0.5731
 2007Sol     OW11129   2.880   2.116   9.710  0.3062  0.6918 -0.2452
 2007Sol     HW11130   2.945   2.088   9.646  0.5948 -1.0005  0.7441
 2007Sol     HW11131   2.817   2.044   9.712  0.5599  0.5017  1.7110
 2007Sol     MW11132   2.880   2.107   9.704  0.4917 -0.1158 -0.4521
 2008Sol     OW11133   2.142   2.666   9.059  0.1530 -0.0026  0.0662
 2008Sol     HW11134   2.161   2.641   9.149  0.8727 -0.1839 -0.1288
 2008Sol     HW11135   2.097   2.591   9.021 -0.2300  0.1092  0.3008
 2008Sol     MW11136   2.140   2.657   9.064 -0.2612 -0.1848 -0.0858
 2009Sol     OW11137   1.472   2.244   8.282  0.1172 -0.4343 -0.4926
 2009Sol     HW11138   1.556   2.218   8.320 -0.1680  0.1181  0.5277
 2009Sol     HW11139   1.422   2.280   8.355 -0.4160  0.7176 -1.3998
 2009Sol     MW11140   1.475   2.245   8.292 -0.1442  0.6194 -0.0687
 2010Sol     OW11141   1.507   3.357   7.141  0.4321 -0.3594 -0.0013
 2010Sol     HW11142   1.532   3.385   7.054  0.8961 -0.8549 -0.0343
 2010Sol     HW11143   1.581   3.381   7.197 -0.0237  0.3026  0.3262
 2010Sol     MW11144   1.516   3.361   7.139 -0.3226  0.5620 -0.1720
 2011Sol     OW11145   0.911   1.721   2.646 -0.4288  0.3575 -0.5707
 2011Sol     HW11146   0.948   1.792   2.593 -2.1506  1.0862 -0.8362
 2011Sol     HW11147   0.943   1.641   2.605  1.9312  0.9604  0.0193
 2011Sol     MW11148   0.917   1.721   2.638  0.2439  0.2094  0.0656
 2012Sol     OW11149   0.639   2.217   1.638  0.6341 -0.2266  0.1009
 2012Sol     HW11150   0.710   2.177   1.689  0.6584  0.1919  0.3900
 2012Sol     HW11151   0.564   2.219   1.697 -0.1177 -2.2022 -0.7189
 2012Sol     MW11152   0.639   2.213   1.648  0.3036  0.6072 -0.0198
 2013Sol     OW11153   3.066   1.515   6.930  0.1086 -0.1374 -0.0153
 2013Sol     HW11154   3.133   1.565   6.977  1.1376  1.1202 -2.6939
 2013Sol     HW11155   3.096   1.424   6.936  0.9952  0.1821  0.5361
 2013Sol     MW11156   3.075   1.511   6.934  0.1815 -0.0796 -0.2891
 2014Sol     OW11157   2.908   0.753   1.794  0.0408  0.5443  0.0577
 2014Sol     HW11158   2.994   0.741   1.754  1.0080  1.5865  1.7776
 2014Sol     HW11159   2.846   0.741   1.722  1.4897 -2.4262 -0.7694
 2014Sol     MW11160   2.910   0.751   1.784 -0.0219  0.3473  0.1444
 2015Sol     OW11161   2.132   1.594   1.656 -0.8830  0.0095 -0.3406
 2015Sol     HW11162   2.066   1.529   1.631 -1.3427 -0.2646  1.5337
 2015Sol     HW11163   2.201   1.542   1.699 -1.3170  0.7502  1.2927
 2015Sol     MW11164   2.132   1.583   1.658 -0.0190  0.1879 -0.3026
 2016Sol     OW11165   3.211   0.859   5.874  0.0631 -0.0809 -0.3679
 2016Sol     HW11166   3.128   0.901   5.852  1.1011  1.4119 -1.5599
 2016Sol     HW11167   3.277   0.928   5.862  1.5066 -1.3059  0.3012
 2016Sol     MW11168   3.210   0.869   5.871  0.0207  0.1264 -0.4062
 2017Sol     OW11169   2.658   1.600   8.835  0.2379  0.1767 -0.1381
 2017Sol     HW11170   2.599   1.525   8.824  1.6425 -0.8196 -1.0022
 2017Sol     HW11171   2.667   1.636   8.748 -1.2304  1.9876  0.4418
 2017Sol     MW11172   2.654   1.596   8.827 -0.3225  0.1141  0.0447
 2018Sol     OW11173   0.276   2.624   9.229  0.3856  0.4051  0.3752
 2018Sol     HW11174   0.347   2.656   9.285 -0.1493  1.2227  0.5946
 2018Sol     HW11175   0.197   2.666   9.264 -0.2297 -0.6074  0.2226
 2018Sol     MW11176   0.275   2.631   9.237  0.5431  0.1467  0.2699
 2019Sol     OW11177   2.381   0.751   2.108  0.3912 -0.0198 -0.1375
 2019Sol     HW11178   2.319   0.732   2.038  2.4497  2.5965 -2.7574
 2019Sol     HW11179   2.402   0.665   2.145 -1.0782 -1.4111 -2.4306
 2019Sol     MW11180   2.378   0.741   2.105 -0.4672  0.5189  0.5588
 2020Sol     OW11181   0.150   2.748   9.917  0.0247 -0.6892 -0.3625
 2020Sol     HW11182   0.182   2.702   9.840  0.5182 -0.3403 -0.3702
 2020Sol     HW11183   0.157   2.841   9.894 -1.7637 -0.6160 -0.6684
 2020Sol     MW11184   0.153   2.753   9.908  0.4261 -0.6773 -0.3722
 2021Sol     OW11185   1.933   3.178   9.137  0.0266  0.5155  0.0188
 2021Sol     HW11186   1.999   3.160   9.071  0.6094 -3.0927  1.4926
 2021Sol     HW11187   1.850   3.168   9.092  0.4277 -0.7482 -0.4408
 2021Sol     MW11188   1.932   3.176   9.127  0.2154 -0.3804  0.7098
 2022Sol     OW11189   1.539   0.098   9.193 -0.3543 -0.1156 -0.4929
 2022Sol     HW11190   1.474   0.138   9.135 -2.0652 -0.6263  1.0346
 2022Sol     HW11191   1.488   0.041   9.250  1.7572 -2.5359 -0.9555
 2022Sol     MW11192   1.528   0.096   9.192 -0.2942 -0.1766  0.5987
 2023Sol     OW11193   1.880   3.176   7.036 -0.6060  0.0224 -0.5415
 2023Sol     HW11194   1.870   3.269   7.018 -2.0359  0.1553  0.8070
 2023Sol     HW11195   1.962   3.169   7.085 -0.4460  0.5474 -0.7359
 2023Sol     MW11196   1.886   3.184   7.039 -0.0732 -0.1851 -0.5048
 2024Sol     OW11197   1.732   1.059   5.227  0.0050 -0.2371  0.3837
 2024Sol     HW11198   1.765   1.146   5.251  1.0659 -1.7139  4.5577
 2024Sol     HW11199   1.777   1.039   5.145  0.3702  2.7480 -0.2280
 2024Sol     MW11200   1.739   1.065   5.222 -0.7785 -0.1352  0.0648
 2025Sol     OW11201   1.538   0.606   9.603  0.1936  0.6295 -0.7703
 2025Sol     HW11202   1.600   0.594   9.531  2.3433  0.0705  1.1027
 2025Sol     HW11203   1.592   0.604   9.682 -2.4138 -1.6986  1.0801
 2025Sol     MW11204   1.548   0.604   9.603 -0.3559  0.3570 -0.6117
 2026Sol     OW11205   1.870   0.585   6.395 -0.0288 -0.3020  0.3994
 2026Sol     HW11206   1.895   0.497   6.367  0.4685  0.0267 -0.2026
 2026Sol     HW11207   1.821   0.572   6.476  0.1196 -1.1243  0.3552
 2026Sol     MW11208   1.867   0.576   6.399 -0.0490  0.3283  0.1728
 2027Sol     OW11209   1.546   2.691   8.025 -0.0085  0.1574 -0.3226
 2027Sol     HW11210   1.485   2.658   7.959  0.1539 -0.4139 -0.1877
 2027Sol     HW11211   1.525   2.642   8.104  1.5083 -1.0202 -0.6137
 2027Sol     MW11212   1.539   2.684   8.026 -0.8392  0.5899  0.0502
 2028Sol     OW11213   0.870   0.257   7.255 -0.0201 -0.1118 -0.2147
 2028Sol     HW11214   0.776   0.257   7.240 -0.0146  0.6112 -0.2797
 2028Sol     HW11215   0.905   0.194   7.192 -0.3876  0.1208 -0.6543
 2028Sol     MW11216   0.865   0.251   7.248 -0.5552 -0.6632  0.7555
 2029Sol     OW11217   1.151   0.139   8.830 -0.3537  0.0488  0.9103
 2029Sol     HW11218   1.222   0.177   8.778 -0.2035  0.2643  1.2690
 2029Sol     HW11219   1.076   0.136   8.771 -0.0646 -0.1173  0.5494
 2029Sol     MW11220   1.151   0.142   8.820 -0.6552  0.6111 -1.0358
 2030Sol     OW11221   2.863   3.042   5.587 -0.0987 -0.3585  0.4141
 2030Sol     HW11222   2.846   3.136   5.586 -0.8619 -0.4973  0.2681
 2030Sol     HW11223   2.896   3.022   5.499 -0.9974 -0.4196  0.0886
 2030Sol     MW11224   2.865   3.048   5.579  0.2810 -0.1108  0.0072
 2031Sol     OW11225   0.300   1.122   5.231  0.2547  0.2056 -0.0284
 2031Sol     HW11226   0.296   1.038   5.277 -2.9079 -1.0329 -2.3883
 2031Sol     HW11227   0.393   1.144   5.229  1.4613 -4.4961 -1.4539
 2031Sol     MW11228   0.308   1.117   5.235  0.5056 -0.7384  0.3071
 2032Sol     OW11229   1.214   3.189   9.758 -0.3440  0.3211  0.2366
 2032Sol     HW11230   1.299   3.183   9.801  1.1082  3.0542 -2.0759
 2032Sol     HW11231   1.173   3.266   9.797 -0.1079  1.2573 -1.2903
 2032Sol     MW11232   1.218   3.196   9.765  0.6751  0.1459 -0.2367
 2033Sol     OW11233   3.060   0.760   8.050 -0.8640 -0.1126 -0.3146
 2033Sol     HW11234   3.145   0.786   8.014 -1.1996  1.3049 -0.1152
 2033Sol     HW11235   3.004   0.748   7.973 -0.8138  0.1265 -0.3869
 2033Sol     MW11236   3.062   0.761   8.040  0.1032  0.1952  0.7612
 2034Sol     OW11237   1.258   0.968   6.527  0.1583 -0.3040 -0.1399
 2034Sol     HW11238   1.181   1.020   6.504 -0.7554 -2.2552 -1.5720
 2034Sol     HW11239   1.279   0.996   6.616 -0.0866  2.7486 -0.9722
 2034Sol     MW11240   1.253   0.975   6.533 -0.0520  0.6591 -1.0638
 2035Sol     OW11241   2.607   3.434   9.505  0.2856  0.2253  0.0204
 2035Sol     HW11242   2.559   3.354   9.483  0.6723 -0.8592  2.8733
 2035Sol     HW11243   2.547   3.485   9.559  0.2686  1.6062 -1.2728
 2035Sol     MW11244   2.598   3.431   9.508 -0.0265 -0.0871 -0.0813
 2036Sol     OW11245   1.786   2.961   8.156 -0.0041 -0.1899 -0.5699
 2036Sol     HW11246   1.813   3.048   8.127 -1.1883  0.6317  0.7010
 2036Sol     HW11247   1.695   2.954   8.129  0.1299 -1.1015 -0.8000
 2036Sol     MW11248   1.780   2.969   8.151  0.5808 -0.0824  0.1185
 2037Sol     OW11249   2.486   1.606   6.479  0.4548 -0.3357  0.2964
 2037Sol     HW11250   2.445   1.613   6.565 -1.2058 -0.6005 -0.4521
 2037Sol     HW11251   2.573   1.644   6.491 -0.3800  1.2061  1.6787
 2037Sol     MW11252   2.490   1.610   6.488  0.2622 -0.7434 -0.6724
 2038Sol     OW11253   2.060   2.525   9.903 -0.0073 -0.6413 -0.6248
 2038Sol     HW11254   2.130   2.497   9.962  1.1024  2.9726 -0.1078
 2038Sol     HW11255   2.104   2.543   9.820 -0.5141  0.4877 -0.6534
 2038Sol     MW11256   2.070   2.524   9.901 -0.4171 -0.0876 -0.0559
 2039Sol     OW11257   0.045   2.396   7.091 -0.8278 -0.0389 -0.1118
 2039Sol     HW11258   0.113   2.463   7.093 -0.5015 -0.3236 -1.2235
 2039Sol     HW11259   0.092   2.314   7.076 -1.4089 -0.2388 -0.8642
 2039Sol     MW11260   0.055   2.395   7.090  0.5611 -0.0361 -0.5458
 2040Sol     OW11261   1.100   1.799   6.088 -0.2480 -0.0335  0.0708
 2040Sol     HW11262   1.099   1.757   6.174 -0.8409 -0.2038 -0.0182
 2040Sol     HW11263   1.143   1.883   6.103  0.0675 -0.2552  0.4401
 2040Sol     MW11264   1.104   1.802   6.097 -0.4574  0.0232 -0.2755
 2041Sol     OW11265   0.603   0.354   7.604  0.2271  0.0465 -0.3343
 2041Sol     HW11266   0.536   0.374   7.538 -0.3597 -0.0406  0.2359
 2041Sol     HW11267   0.560   0.293   7.664  2.1645 -3.5392 -2.4250
 2041Sol     MW11268   0.593   0.350   7.603 -0.6587 -0.0580  0.7320
 2042Sol     OW11269   1.544   1.645   6.323 -0.3741 -0.3046 -0.2079
 2042Sol     HW11270   1.624   1.630   6.273  0.5191  1.0487  0.8087
 2042Sol     HW11271   1.500   1.717   6.277  0.2271  0.6380  0.6827
 2042Sol     MW11272   1.547   1.650   6.314  0.7520  0.0042 -0.2976
 2043Sol     OW11273   1.326   1.057   5.625 -0.1168  0.2612 -0.0031
 2043Sol     HW11274   1.234   1.061   5.648 -0.4678  1.5751 -1.4927
 2043Sol     HW11275   1.350   1.149   5.608  0.8845 -0.2820 -1.6731
 2043Sol     MW11276   1.320   1.066   5.625 -0.1646  0.1403  0.7058
 2044Sol     OW11277   0.398   2.684   5.492 -0.7611 -0.1070  0.1357
 2044Sol     HW11278   0.324   2.744   5.494  0.2351  1.1051  2.4277
 2044Sol     HW11279   0.411   2.664   5.399 -1.2233  3.0387 -0.6397
 2044Sol     MW11280   0.392   2.687   5.484 -0.0939 -0.2862  0.0770
 2045Sol     OW11281   0.182   3.396   4.085  0.4194 -0.6681  0.0251
 2045Sol     HW11282   0.121   3.441   4.143  0.4545 -0.0927 -0.3790
 2045Sol     HW11283   0.257   3.455   4.078 -0.9809  0.8750 -3.2551
 2045Sol     MW11284   0.183   3.405   4.089 -0.2171 -0.3336  0.1202
 2046Sol     OW11285   2.391   1.331   5.740 -0.2352  0.3790  0.0612
 2046Sol     HW11286   2.394   1.274   5.816  1.5615  1.6503  0.9752
 2046Sol     HW11287   2.322   1.395   5.760 -0.7756 -0.1687 -0.0374
 2046Sol     MW11288   2.385   1.332   5.748 -0.1061  0.2739  0.6525
 2047Sol     OW11289   2.168   1.950   1.835  0.3801  0.1505 -0.1591
 2047Sol     HW11290   2.088   2.001   1.826 -0.2772 -0.8136  0.0517
 2047Sol     HW11291   2.235   2.013   1.861 -0.1292  1.0979 -1.1264
 2047Sol     MW11292   2.167   1.960   1.837 -0.8200 -0.0868 -0.6650
 2048Sol     OW11293   1.359   1.698   7.062 -0.1407  0.1012 -0.2138
 2048Sol     HW11294   1.435   1.752   7.040  0.1870 -0.6262 -0.8950
 2048Sol     HW11295   1.313   1.687   6.978 -0.4398 -0.3126  0.0063
 2048Sol     MW11296   1.362   1.702   7.052 -0.2515  0.1595 -0.1476
 2049Sol     OW11297   2.002   0.994   8.888 -0.4904  0.3336 -0.1771
 2049Sol     HW11298   2.025   1.079   8.925 -1.4548  0.2201  0.7013
 2049Sol     HW11299   2.081   0.965   8.842  0.4522  0.8598  1.0939
 2049Sol     MW11300   2.011   0.999   8.887 -0.1544  0.0344  0.0115
 2050Sol     OW11301   2.610   2.615   4.460  0.1830  0.0699  0.4557
 2050Sol     HW11302   2.686   2.633   4.514  0.8501  2.1824 -1.1249
 2050Sol     HW11303   2.558   2.695   4.463 -0.3366 -0.1871 -1.0760
 2050Sol     MW11304   2.612   2.623   4.465  0.1675 -0.4724 -0.5983
 2051Sol     OW11305   2.916   1.309   6.264 -0.6140  0.3544 -0.1092
 2051Sol     HW11306   2.977   1.247   6.223 -0.6422  0.3873 -0.2016
 2051Sol     HW11307   2.843   1.316   6.201 -0.3904  0.8424 -0.3136
 2051Sol     MW11308   2.915   1.304   6.255  0.1086 -0.2811 -0.1318
 2052Sol     OW11309   3.076   2.802   7.114  0.3898  0.1110  0.0388
 2052Sol     HW11310   3.102   2.746   7.041  2.7176  2.1467 -0.7307
 2052Sol     HW11311   3.155   2.811   7.167 -0.5137  0.9988  1.2740
 2052Sol     MW11312   3.086   2.798   7.112 -0.2337  0.4595  0.2889
 2053Sol     OW11313   2.945   0.276   6.699  0.2765  0.0179  0.8871
 2053Sol     HW11314   2.969   0.194   6.743  0.2030  0.0311  0.9536
 2053Sol     HW11315   2.947   0.341   6.769  2.6154  0.5060  0.3797
 2053Sol     MW11316   2.947   0.274   6.710 -0.8568 -0.1447 -0.2378
 2054Sol     OW11317   1.342   3.143   8.431 -0.5847 -0.2230  0.3069
 2054Sol     HW11318   1.300   3.227   8.451 -1.6541 -0.9774  1.3157
 2054Sol     HW11319   1.436   3.161   8.434 -0.8097  1.0441  0.0210
 2054Sol     MW11320   1.346   3.152   8.433  0.1940  0.1791 -0.1024
 2055Sol     OW11321   0.832   1.542   5.043 -0.6380 -0.3210 -0.2686
 2055Sol     HW11322   0.836   1.514   4.952 -0.7180 -1.6977  0.1389
 2055Sol     HW11323   0.876   1.472   5.091 -0.4089  0.4962  0.7287
 2055Sol     MW11324   0.837   1.533   5.039 -0.2194  0.3179 -0.1422
 2056Sol     OW11325   2.864   1.993   5.665  0.0834  0.1446  0.3875
 2056Sol     HW11326   2.771   1.980   5.687  0.2610  0.0943  1.1374
 2056Sol     HW11327   2.863   2.051   5.589 -0.6495 -1.8380 -1.1624
 2056Sol     MW11328   2.856   1.997   5.660 -0.6488 -0.3377 -0.5078
 2057Sol     OW11329   3.171   0.657   9.073  0.1349  0.3970  0.1064
 2057Sol     HW11330   3.207   0.575   9.106 -0.4610  0.3580  0.6732
 2057Sol     HW11331   3.115   0.689   9.144 -2.9004 -0.7548 -1.7135
 2057Sol     MW11332   3.170   0.653   9.082  0.1024 -0.1322 -0.4952
 2058Sol     OW11333   0.651   3.315   9.328  0.2050 -0.1869 -0.1721
 2058Sol     HW11334   0.636   3.404   9.295  1.1938  0.6734  1.6192
 2058Sol     HW11335   0.564   3.283   9.351 -0.2035  0.1443 -1.2189
 2058Sol     MW11336   0.642   3.320   9.327  0.4026 -0.7742 -0.3419
 2059Sol     OW11337   0.350   0.784   9.762  0.6674  0.4542 -0.2459
 2059Sol     HW11338   0.439   0.758   9.789  1.2040  3.6238  1.3071
 2059Sol     HW11339   0.359   0.807   9.670  0.8712 -1.7120 -0.7853
 2059Sol     MW11340   0.359   0.784   9.757  0.0763 -0.1586 -0.6583
 2060Sol     OW11341   3.047   1.597   4.738  0.4226  0.2016  0.2366
 2060Sol     HW11342   3.041   1.691   4.757  0.0803  0.2613 -0.1485
 2060Sol     HW11343   3.019   1.554   4.819 -1.1275  0.4526 -0.1494
 2060Sol     MW11344   3.044   1.602   4.747 -0.3820 -0.1179 -0.3135
 2061Sol     OW11345   2.762   2.847   7.405  0.1728  0.1274  0.4995
 2061Sol     HW11346   2.801   2.791   7.338  1.2634  0.0509  1.1891
 2061Sol     HW11347   2.739   2.787   7.476 -0.1479  0.3270  0.5634
 2061Sol     MW11348   2.763   2.836   7.405 -0.1540 -0.3489 -0.1781
 2062Sol     OW11349   1.523   1.967   5.848  0.1434  0.2382  0.6303
 2062Sol     HW11350   1.602   1.978   5.901  1.5618 -3.1606 -0.6168
 2062Sol     HW11351   1.526   1.876   5.820 -3.7016  0.3341 -0.3629
 2062Sol     MW11352   1.531   1.960   5.851  0.1126  0.3978  0.2622
 2063Sol     OW11353   1.030   1.913   2.496  0.4285 -0.0909  0.4706
 2063Sol     HW11354   0.997   1.998   2.526  0.9306  0.5222 -0.6610
 2063Sol     HW11355   0.984   1.897   2.414  3.2064  1.0243 -1.4038
 2063Sol     MW11356   1.023   1.919   2.491 -0.0829  0.4135  0.3394
 2064Sol     OW11357   0.321   3.062   8.391  0.0972 -0.5043 -0.0738
 2064Sol     HW11358   0.252   3.041   8.454 -0.1733 -1.9349 -0.8132
 2064Sol     HW11359   0.402   3.054   8.441 -0.1196 -1.5687  0.1348
 2064Sol     MW11360   0.322   3.059   8.401  0.0244 -0.4729 -0.3180
 2065Sol     OW11361   0.535   1.759   9.106 -0.1083  0.1063  0.5783
 2065Sol     HW11362   0.597   1.690   9.084  0.3246 -0.3946  3.2212
 2065Sol     HW11363   0.471   1.718   9.164 -1.0883  1.3971  0.4483
 2065Sol     MW11364   0.535   1.749   9.109 -0.3963  0.1081  0.8310
 2066Sol     OW11365   3.291   0.439   3.992  0.2034  0.2655 -0.4946
 2066Sol     HW11366   3.210   0.460   3.944 -0.0879  0.2629 -0.0023
 2066Sol     HW11367   3.360   0.480   3.940 -0.0889  0.0578 -1.0552
 2066Sol     MW11368   3.290   0.444   3.983 -0.3451  0.5026  0.1804
 2067Sol     OW11369   0.422   2.162   7.341  0.0155 -0.4935  0.2336
 2067Sol     HW11370   0.439   2.104   7.267 -2.2518  0.1483 -0.8190
 2067Sol     HW11371   0.425   2.250   7.303  1.2992 -0.0083  1.4050
 2067Sol     MW11372   0.424   2.165   7.331 -0.5714 -0.8995 -0.2590
 2068Sol     OW11373   2.500   2.461   6.796  0.8143 -0.3686 -0.2013
 2068Sol     HW11374   2.568   2.509   6.748  0.1278  0.4767 -0.3658
 2068Sol     HW11375   2.499   2.501   6.883 -0.0480  0.2249 -0.4704
 2068Sol     MW11376   2.506   2.469   6.799 -0.4743  0.4818  0.3922
 2069Sol     OW11377   3.054   0.730   9.599  0.2032 -0.1012  0.7114
 2069Sol     HW11378   2.976   0.785   9.609 -0.4988 -1.1122  0.8922
 2069Sol     HW11379   3.128   0.791   9.604 -0.6232  1.1381 -1.4373
 2069Sol     MW11380   3.054   0.740   9.600 -0.0005 -0.6595  0.4107
 2070Sol     OW11381   0.447   0.795   3.911 -0.0590 -0.1085  0.5988
 2070Sol     HW11382   0.475   0.726   3.851  0.8122  0.9241 -0.1941
 2070Sol     HW11383   0.514   0.796   3.979 -0.2894 -0.3158  0.8304
 2070Sol     MW11384   0.455   0.789   3.912 -0.6652 -0.0064  0.0803
 2071Sol     OW11385   2.847   2.446   4.173 -0.5633 -0.4789 -0.3222
 2071Sol     HW11386   2.764   2.476   4.209 -0.4009 -1.1905  0.6565
 2071Sol     HW11387   2.825   2.416   4.084 -0.9427  1.3709 -0.8615
 2071Sol     MW11388   2.838   2.446   4.168 -0.2260  0.8147 -0.5644
 2072Sol     OW11389   1.047   1.377   4.706  0.6646 -0.3260 -0.3052
 2072Sol     HW11390   1.090   1.392   4.790  1.3848 -0.5988 -0.6272
 2072Sol     HW11391   0.961   1.417   4.716  0.6007 -0.7071  0.7049
 2072Sol     MW11392   1.043   1.382   4.714 -0.4722 -0.3478 -0.9871
 2073Sol     OW11393   0.219   3.085   5.323  0.2223  0.0086  0.0479
 2073Sol     HW11394   0.292   3.140   5.351 -0.7113  0.9966  0.6125
 2073Sol     HW11395   0.251   3.038   5.246  0.9005  1.7009 -0.7218
 2073Sol     MW11396   0.228   3.086   5.318 -0.2289  0.1301  0.0305
 2074Sol     OW11397   1.050   0.836   8.260  0.0535 -0.4288  0.7973
 2074Sol     HW11398   1.005   0.891   8.323 -0.8250 -1.4523  1.0838
 2074Sol     HW11399   1.143   0.850   8.278 -0.1807 -0.1654  1.8482
 2074Sol     MW11400   1.055   0.842   8.268  0.4483  0.7599 -0.1203
 2075Sol     OW11401   2.879   2.962   5.244 -0.1261  0.5381  0.0265
 2075Sol     HW11402   2.830   2.907   5.183 -0.7282  2.0151 -0.8308
 2075Sol     HW11403   2.959   2.985   5.197  1.0166 -1.1417  1.0960
 2075Sol     MW11404   2.882   2.959   5.235 -0.3175  0.1200  0.0335
 2076Sol     OW11405   3.093   1.273   7.527  0.9175  0.5514  0.2086
 2076Sol     HW11406   3.091   1.282   7.432 -0.5948 -0.0604  0.1647
 2076Sol     HW11407   3.149   1.197   7.543 -0.0972 -0.3040 -0.2782
 2076Sol     MW11408   3.098   1.267   7.520 -0.1279 -0.4023  0.6485
 2077Sol     OW11409   0.195   1.562   5.657  0.0236  0.2271  0.3247
 2077Sol     HW11410   0.187   1.509   5.577 -2.9056 -1.0896  1.4395
 2077Sol     HW11411   0.106   1.590   5.676  1.2358  4.0035  0.8853
 2077Sol     MW11412   0.186   1.560   5.651  0.0501  0.2507  0.1040
 2078Sol     OW11413   0.714   0.957   2.202  0.5614  0.2028 -0.3861
 2078Sol     HW11414   0.747   1.027   2.258  0.3935 -1.3680  1.7134
 2078Sol     HW11415   0.735   0.876   2.248 -4.0097 -0.9957 -0.1261
 2078Sol     MW11416   0.719   0.956   2.211  0.1168 -1.2534 -0.0154
 2079Sol     OW11417   1.075   1.124   7.963  1.0385  0.4163  0.8275
 2079Sol     HW11418   1.077   1.143   7.870 -0.5323 -1.0555  0.4562
 2079Sol     HW11419   1.082   1.028   7.969  1.0579  0.4842  2.2007
 2079Sol     MW11420   1.076   1.117   7.955  0.0480 -0.2075 -0.0153
 2080Sol     OW11421   2.358   2.874   3.804  0.7472  0.2158 -0.8127
 2080Sol     HW11422   2.403   2.953   3.833  1.8068 -0.4262 -0.6837
 2080Sol     HW11423   2.421   2.804   3.819 -1.3437 -1.1520  2.3310
 2080Sol     MW11424   2.368   2.875   3.808 -0.2777  0.2073 -0.2590
 2081Sol     OW11425   0.030   0.334   7.783 -0.6064 -0.2314 -0.4195
 2081Sol     HW11426   0.090   0.305   7.714  0.1061 -0.0845  0.1369
 2081Sol     HW11427  -0.028   0.259   7.796  0.3605 -0.9176  0.0408
 2081Sol     MW11428   0.030   0.324   7.778 -0.3943 -0.4208 -0.7345
 2082Sol     OW11429   2.381   1.632   8.078  0.2653  0.3984  0.1379
 2082Sol     HW11430   2.432   1.634   7.997 -1.0987 -1.4861 -0.8073
 2082Sol     HW11431   2.359   1.723   8.095 -1.1243  0.6777 -2.7471
 2082Sol     MW11432   2.383   1.640   8.072  0.3373 -0.4742  0.2586
 2083Sol     OW11433   0.966   0.445   3.331 -0.1863 -0.1116  0.1072
 2083Sol     HW11434   0.934   0.489   3.252 -1.4697  0.6771  1.0484
 2083Sol     HW11435   1.056   0.420   3.309 -1.1255 -1.6276 -2.2895
 2083Sol     MW11436   0.971   0.447   3.322 -0.4786  0.0290  0.3576
 2084Sol     OW11437   2.010   2.494   3.602 -0.0499 -0.5270 -0.3231
 2084Sol     HW11438   1.924   2.463   3.574  0.3034 -1.3643 -0.4716
 2084Sol     HW11439   2.006   2.589   3.586 -0.9677 -0.5438 -0.2623
 2084Sol     MW11440   2.002   2.500   3.598 -0.3050 -0.0201  0.7862
 2085Sol     OW11441   1.954   0.128   5.606 -0.8730 -0.7586  0.2636
 2085Sol     HW11442   1.934   0.049   5.656 -1.3062 -0.3171  0.7984
 2085Sol     HW11443   2.044   0.150   5.631 -0.8995 -0.8407  0.4324
 2085Sol     MW11444   1.960   0.123   5.613  0.4859  0.2185 -0.5873
 2086Sol     OW11445   2.202   1.783   7.274  0.5006 -0.0697  0.0262
 2086Sol     HW11446   2.297   1.790   7.265  0.5280 -0.0560  0.3271
 2086Sol     HW11447   2.171   1.760   7.186  0.8128 -0.4205  0.0101
 2086Sol     MW11448   2.208   1.782   7.265  0.2863 -0.4884  0.8548
 2087Sol     OW11449   2.057   1.239   5.490  0.0024 -0.7100  0.6322
 2087Sol     HW11450   2.106   1.320   5.503 -0.0183 -0.8476  1.5855
 2087Sol     HW11451   2.124   1.172   5.479  0.0202 -0.5112 -0.5373
 2087Sol     MW11452   2.067   1.240   5.490 -0.1906  0.1089  0.3430
 2088Sol     OW11453   1.579   2.158   7.695 -0.6200 -0.7045  0.2115
 2088Sol     HW11454   1.649   2.222   7.685 -1.0000 -0.3001  0.1607
 2088Sol     HW11455   1.623   2.073   7.686  0.1700 -0.5132  1.9197
 2088Sol     MW11456   1.589   2.156   7.694 -0.0821  0.9233  0.3728
 2089Sol     OW11457   0.206   1.622   9.567  0.1562  0.0324 -0.2962
 2089Sol     HW11458   0.204   1.651   9.658  1.3553 -0.9662  0.0686
 2089Sol     HW11459   0.174   1.697   9.517 -0.2851  0.6740  0.9199
 2089Sol     MW11460   0.203   1.631   9.571 -0.5257  0.0318  0.6367
 2090Sol     OW11461   2.873   0.963   4.313 -0.1291  0.0397  0.0890
 2090Sol     HW11462   2.880   0.911   4.233  0.0003  2.4139 -1.4893
 2090Sol     HW11463   2.824   1.040   4.287 -1.2985  0.1894  2.6697
 2090Sol     MW11464   2.870   0.965   4.303 -0.0230 -0.1940  0.2328
 2091Sol     OW11465   2.548   0.781   1.897 -0.8444 -0.0518  0.6491
 2091Sol     HW11466   2.512   0.768   1.985 -1.1060  1.5796  0.8072
 2091Sol     HW11467   2.516   0.867   1.871  2.1589  1.0645  0.4329
 2091Sol     MW11468   2.542   0.788   1.903  0.3901  0.5072  0.3414
 2092Sol     OW11469   1.195   3.089   4.052 -0.6982  0.1509 -0.8782
 2092Sol     HW11470   1.219   3.076   4.143  0.9198 -2.1794 -1.5966
 2092Sol     HW11471   1.267   3.140   4.015  0.1054 -1.4520 -1.5477
 2092Sol     MW11472   1.203   3.093   4.057  0.7487 -0.0198  0.5118
 2093Sol     OW11473   1.542   0.792   4.488 -0.1472  0.2344 -0.0507
 2093Sol     HW11474   1.503   0.741   4.559  0.5910 -0.4871 -0.1630
 2093Sol     HW11475   1.626   0.821   4.522  0.5171 -0.6969 -0.8637
 2093Sol     MW11476   1.546   0.790   4.497  0.1531 -0.4984  0.1253
 2094Sol     OW11477   2.761   3.374   5.639  0.4012  0.1461 -0.6957
 2094Sol     HW11478   2.679   3.348   5.682 -0.0771 -0.4248 -1.9330
 2094Sol     HW11479   2.738   3.381   5.546  1.9277 -0.7061 -1.1502
 2094Sol     MW11480   2.751   3.373   5.634  0.9501 -0.1540  0.2987
 2095Sol     OW11481   1.186   1.112   1.794  0.2829  0.2091  0.2731
 2095Sol     HW11482   1.194   1.021   1.821 -0.8020 -0.0593 -0.3000
 2095Sol     HW11483   1.198   1.162   1.875  0.1946 -0.4569  0.7030
 2095Sol     MW11484   1.188   1.108   1.804  0.6482 -0.1346  0.0453
 2096Sol     OW11485   2.569   2.300   8.477 -0.0822 -0.6674  0.3549
 2096Sol     HW11486   2.536   2.263   8.396 -0.5022  1.2145 -0.3530
 2096Sol     HW11487   2.513   2.262   8.545  0.3867 -2.3860 -0.1974
 2096Sol     MW11488   2.561   2.293   8.476  0.1123  0.2656  0.0744
 2097Sol     OW11489   0.006   0.557   5.005  0.3450  0.1585 -0.1455
 2097Sol     HW11490  -0.061   0.575   4.939  0.0791 -0.8797 -0.1760
 2097Sol     HW11491  -0.042   0.517   5.078  0.7020  0.8703  0.4834
 2097Sol     MW11492  -0.004   0.555   5.006 -0.2245 -0.1683  0.2052
 2098Sol     OW11493   2.041   2.621   7.590 -0.2130 -0.0275  0.0765
 2098Sol     HW11494   2.113   2.611   7.652  1.5807 -1.4227 -2.1483
 2098Sol     HW11495   2.079   2.670   7.517 -1.9297  0.5024 -0.4873
 2098Sol     MW11496   2.051   2.625   7.589  0.1656 -0.1331 -0.5331
 2099Sol     OW11497   1.747   0.997   2.535  0.4883  0.2021 -0.2703
 2099Sol     HW11498   1.714   0.911   2.511  3.2537 -0.8541 -0.3873
 2099Sol     HW11499   1.833   0.981   2.572 -0.3625  2.6054  2.9214
 2099Sol     MW11500   1.751   0.988   2.536  0.0290  0.3003  0.1315
 2100Sol     OW11501   3.115   3.205   9.889 -0.4329  0.0331  0.3698
 2100Sol     HW11502   3.119   3.177   9.797  1.1132 -0.7932  0.6747
 2100Sol     HW11503   3.091   3.126   9.937 -0.0429  0.1773  0.8029
 2100Sol     MW11504   3.113   3.196   9.885 -0.0694 -0.0303  0.2530
 2101Sol     OW11505   3.084   1.262   8.052 -0.0342 -0.6882 -0.0237
 2101Sol     HW11506   3.161   1.317   8.041  0.0807 -0.7090  0.6672
 2101Sol     HW11507   3.069   1.224   7.965  1.0358 -1.0879 -0.0366
 2101Sol     MW11508   3.089   1.264   8.043  1.2260 -0.2246 -0.3205
 2102Sol     OW11509   2.680   3.235   3.104 -0.3370  0.0313 -0.4143
 2102Sol     HW11510   2.687   3.327   3.077  1.4634 -0.2809 -1.0715
 2102Sol     HW11511   2.613   3.198   3.046  0.2293  0.5039 -1.3859
 2102Sol     MW11512   2.675   3.240   3.096  0.1923 -0.0299 -0.5951
 2103Sol     OW11513   0.861   1.183   7.312  0.6665 -0.1189 -0.0017
 2103Sol     HW11514   0.916   1.105   7.323 -1.2125 -1.2221  1.9193
 2103Sol     HW11515   0.813   1.167   7.230  1.1238 -0.4680 -0.1996
 2103Sol     MW11516   0.861   1.174   7.305  0.3474  0.7604 -0.1833
 2104Sol     OW11517   1.037   1.885   5.824  0.1813  0.0279 -0.3757
 2104Sol     HW11518   1.056   1.832   5.902  0.2300 -0.2274 -0.5631
 2104Sol     HW11519   1.106   1.952   5.823 -0.1138  0.3509  0.0900
 2104Sol     MW11520   1.044   1.887   5.831  0.1198  0.2827  0.3088
 2105Sol     OW11521   2.073   2.438   8.268  0.2083 -0.1094 -1.0210
 2105Sol     HW11522   2.031   2.359   8.233  0.5852 -0.8959  0.2512
 2105Sol     HW11523   2.166   2.413   8.276  0.0852 -0.0678  0.7948
 2105Sol     MW11524   2.078   2.429   8.266 -0.0018 -0.2998  0.1788
 2106Sol     OW11525   3.136   0.808   5.566  0.1598  0.6704  0.1442
 2106Sol     HW11526   3.150   0.713   5.571 -2.1478  0.2602 -0.4243
 2106Sol     HW11527   3.134   0.836   5.658 -0.1286  0.0052  0.3466
 2106Sol     MW11528   3.137   0.802   5.575 -0.3616 -0.2048 -0.0159
 2107Sol     OW11529   1.234   2.873   8.197 -0.1471  0.5223  0.4005
 2107Sol     HW11530   1.167   2.907   8.256 -2.5713 -2.4258 -0.5058
 2107Sol     HW11531   1.186   2.854   8.116  1.8618 -1.2503 -0.4139
 2107Sol     MW11532   1.224   2.874   8.195 -0.2194 -0.2210 -0.7137
 2108Sol     OW11533   1.520   0.622   6.826 -0.5700 -0.4500  0.0403
 2108Sol     HW11534   1.449   0.685   6.810 -1.2374 -1.2697 -0.2181
 2108Sol     HW11535   1.504   0.591   6.915  1.1749  1.5549  1.1109
 2108Sol     MW11536   1.513   0.625   6.833 -0.0908  0.3367  0.6721
 2109Sol     OW11537   0.963   3.016   6.672 -0.4223  0.5105 -0.4899
 2109Sol     HW11538   0.871   3.040   6.678 -0.5198 -0.1325  0.9935
 2109Sol     HW11539   0.992   3.051   6.589 -2.3760 -0.4850 -1.6314
 2109Sol     MW11540   0.957   3.021   6.665  0.1536 -0.0555  0.3695
 2110Sol     OW11541   1.459   1.793   5.112 -0.1044 -0.0383  0.2247
 2110Sol     HW11542   1.508   1.804   5.193  1.5323  0.9987 -0.8526
 2110Sol     HW11543   1.526   1.776   5.046 -1.1808  1.3406 -1.2856
 2110Sol     MW11544   1.469   1.793   5.113  0.7348  0.0348  0.3266
 2111Sol     OW11545   2.596   2.922   8.602 -0.0923 -0.3241  0.0075
 2111Sol     HW11546   2.618   2.875   8.682  2.1995 -0.8591 -0.9158
 2111Sol     HW11547   2.592   2.855   8.534  1.4214  0.5769 -0.9793
 2111Sol     MW11548   2.597   2.912   8.603 -0.1485  0.2499 -0.4676
 2112Sol     OW11549   0.888   3.156   7.895  0.5581 -0.1132 -0.1683
 2112Sol     HW11550   0.913   3.175   7.805 -0.9993  0.6412 -0.4571
 2112Sol     HW11551   0.959   3.191   7.948  0.4661  1.3744 -1.0019
 2112Sol     MW11552   0.896   3.161   7.892 -0.1487  0.0896 -0.1402
 2113Sol     OW11553   2.793   1.503   3.419 -0.0739  0.0879  0.0627
 2113Sol     HW11554   2.746   1.434   3.465  0.0359  1.1108  1.7599
 2113Sol     HW11555   2.837   1.458   3.347 -2.4961 -1.1080 -0.7384
 2113Sol     MW11556   2.792   1.493   3.417 -0.0978 -0.2448 -0.1774
 2114Sol     OW11557   1.079   1.083   4.665  0.0261 -0.1202 -0.0321
 2114Sol     HW11558   1.062   1.177   4.672 -0.2056 -0.2551  1.3183
 2114Sol     HW11559   1.138   1.075   4.590  0.1833  1.1188 -0.0518
 2114Sol     MW11560   1.083   1.091   4.659 -0.8572 -0.6336  0.2501
 2115Sol     OW11561   2.872   2.678   7.231 -0.1851 -0.5395  0.3709
 2115Sol     HW11562   2.941   2.733   7.194 -0.3356 -0.0963  0.7418
 2115Sol     HW11563   2.915   2.596   7.252  0.5349  0.2208  1.9038
 2115Sol     MW11564   2.882   2.676   7.229 -0.1479  0.2326 -0.4368
 2116Sol     OW11565   2.442   0.369   2.446 -0.4217 -0.5040 -0.8123
 2116Sol     HW11566   2.449   0.409   2.359  0.4230 -1.8060 -1.3530
 2116Sol     HW11567   2.486   0.431   2.504  0.7281 -0.5519 -1.6156
 2116Sol     MW11568   2.447   0.378   2.443  0.0856 -0.0260 -0.0581
 2117Sol     OW11569   1.715   2.707   6.462  0.2361 -0.1549  0.3448
 2117Sol     HW11570   1.775   2.751   6.402 -0.4848 -1.9205 -1.7063
 2117Sol     HW11571   1.663   2.778   6.500  2.1005  1.1704  0.4903
 2117Sol     MW11572   1.715   2.717   6.460 -0.3766  0.4711 -0.2017
 2118Sol     OW11573   3.182   0.623   9.835 -0.2201 -0.1244  0.5971
 2118Sol     HW11574   3.120   0.646   9.766  0.9717 -0.1847 -0.5132
 2118Sol     HW11575   3.255   0.581   9.789  0.3596 -0.6375  1.9473
 2118Sol     MW11576   3.183   0.621   9.825 -0.5400 -0.0058  0.1978
 2119Sol     OW11577   2.338   2.939   9.285  0.4389  0.3025 -0.0353
 2119Sol     HW11578   2.400   2.880   9.328  2.5238  0.1168 -3.0807
 2119Sol     HW11579   2.383   3.024   9.283  0.3029  0.3525 -1.6104
 2119Sol     MW11580   2.348   2.942   9.288 -0.4066  0.4591  0.7364
 2120Sol     OW11581   0.721   0.458   8.545  0.2511  0.3648 -0.1545
 2120Sol     HW11582   0.756   0.390   8.487  3.1193  0.6900  1.1272
 2120Sol     HW11583   0.693   0.528   8.485  1.6507  0.0134 -1.2488
 2120Sol     MW11584   0.721   0.458   8.534  0.0755 -0.8211 -0.0158
 2121Sol     OW11585   1.025   2.232   3.566 -0.3654 -0.1662 -0.3003
 2121Sol     HW11586   0.942   2.231   3.615  0.9082  0.6965  1.9385
 2121Sol     HW11587   1.030   2.144   3.528 -1.4571 -0.8477  1.0509
 2121Sol     MW11588   1.018   2.224   3.567  0.3177 -0.1977  0.4543
 2122Sol     OW11589   2.216   2.158   8.394  0.6081 -0.5057 -0.6954
 2122Sol     HW11590   2.163   2.127   8.321  0.0688  0.1035 -0.5676
 2122Sol     HW11591   2.159   2.150   8.471  0.5097  0.6761 -0.6447
 2122Sol     MW11592   2.206   2.154   8.395 -0.3253 -0.4120  0.0558
 2123Sol     OW11593   1.732   2.722   7.284  0.1937 -0.0051 -0.2759
 2123Sol     HW11594   1.642   2.700   7.260  0.6610 -0.6643 -1.4728
 2123Sol     HW11595   1.733   2.817   7.293 -0.5251  0.0386 -0.6500
 2123Sol     MW11596   1.724   2.728   7.283 -0.0381  0.6831  0.3563
 2124Sol     OW11597   0.477   2.456   4.107  0.0763  0.1918 -0.4065
 2124Sol     HW11598   0.423   2.478   4.031 -0.4424 -1.3974 -0.5220
 2124Sol     HW11599   0.425   2.390   4.154  1.1741 -0.1249  0.3656
 2124Sol     MW11600   0.467   2.452   4.104  0.2876  0.8644 -0.0180
 2125Sol     OW11601   2.698   0.800   7.997 -0.5471 -0.1420  0.0291
 2125Sol     HW11602   2.737   0.806   8.084 -0.3759  0.6444 -0.1005
 2125Sol     HW11603   2.726   0.714   7.964  0.2223 -0.0128  0.3501
 2125Sol     MW11604   2.704   0.792   8.001  0.0749  0.5887  0.2087
 2126Sol     OW11605   0.441   1.970   7.545  0.1011  0.4063 -0.5248
 2126Sol     HW11606   0.451   2.026   7.468 -1.1583 -0.2706 -1.2001
 2126Sol     HW11607   0.360   1.922   7.529  0.4333 -0.5844  0.6929
 2126Sol     MW11608   0.435   1.971   7.537  0.1452 -0.1007  0.3458
 2127Sol     OW11609   0.195   3.278   8.015  0.1942 -0.2566 -0.2700
 2127Sol     HW11610   0.145   3.222   7.956  0.8298 -0.1534 -0.9048
 2127Sol     HW11611   0.138   3.289   8.091 -0.0072 -1.6245 -0.2114
 2127Sol     MW11612   0.185   3.274   8.017 -0.4616 -0.1642  0.3666
 2128Sol     OW11613   3.026   1.500   7.648  0.3007 -0.0194 -0.2689
 2128Sol     HW11614   2.951   1.521   7.592 -0.7330  0.0314  1.0945
 2128Sol     HW11615   3.066   1.423   7.607  1.3105  1.7150 -2.6704
 2128Sol     MW11616   3.023   1.495   7.639 -0.3543  0.2962 -0.0806
 2129Sol     OW11617   1.596   0.435   4.862 -0.0076 -1.0012  0.0447
 2129Sol     HW11618   1.626   0.406   4.948  0.9162 -2.0560 -0.6140
 2129Sol     HW11619   1.589   0.355   4.810  1.6847 -0.1791 -1.5397
 2129Sol     MW11620   1.598   0.426   4.865  0.3356 -0.0141  0.6883
 2130Sol     OW11621   2.774   2.626   5.746 -0.3177 -0.2170 -0.2145
 2130Sol     HW11622   2.859   2.601   5.710  0.3741  0.6581  0.7750
 2130Sol     HW11623   2.746   2.701   5.693 -1.2238 -1.4907 -1.5638
 2130Sol     MW11624   2.779   2.631   5.738 -0.0473 -0.1887  0.1295
 2131Sol     OW11625   1.291   2.058   3.305  0.3267 -0.0230  0.1813
 2131Sol     HW11626   1.351   1.994   3.269  0.8256  0.3202  0.3988
 2131Sol     HW11627   1.300   2.048   3.400  1.1985  1.1053  0.2206
 2131Sol     MW11628   1.297   2.051   3.310  0.1262  0.2917 -0.0359
 2132Sol     OW11629   2.975   0.070   5.246 -0.2207  0.0530  0.2742
 2132Sol     HW11630   3.062   0.102   5.268 -0.0858 -0.4500  0.4691
 2132Sol     HW11631   2.981   0.041   5.155 -0.2186  0.1351  0.2480
 2132Sol     MW11632   2.983   0.070   5.240 -0.9918  0.0729  0.2349
 2133Sol     OW11633   2.261   0.709   5.495  0.2652  0.0140  0.0476
 2133Sol     HW11634   2.350   0.688   5.522 -0.2106 -2.3687 -0.1689
 2133Sol     HW11635   2.208   0.636   5.526 -1.4500  0.8644 -0.7931
 2133Sol     MW11636   2.264   0.701   5.500  0.5916 -0.1957 -0.6083
 2134Sol     OW11637   2.817   3.392   8.267 -0.2796 -0.4153  0.0813
 2134Sol     HW11638   2.824   3.479   8.307  0.0633 -0.3061 -0.2102
 2134Sol     HW11639   2.740   3.398   8.210  0.2505 -0.0265 -0.6077
 2134Sol     MW11640   2.811   3.400   8.265  0.5197 -0.6015 -0.3064
 2135Sol     OW11641   2.940   2.245   8.806 -0.5483  0.1432  0.3363
 2135Sol     HW11642   3.005   2.179   8.782 -1.1139 -0.3648  0.2028
 2135Sol     HW11643   2.932   2.237   8.901 -1.5908 -0.8922  0.1709
 2135Sol     MW11644   2.945   2.239   8.813  0.9479 -0.0682 -0.0755
 2136Sol     OW11645   0.611   0.845   4.694  0.3701  0.1478  0.3758
 2136Sol     HW11646   0.683   0.852   4.631  0.1835  1.2803  0.2823
 2136Sol     HW11647   0.651   0.808   4.772  0.8417 -0.1990 -0.0283
 2136Sol     MW11648   0.621   0.842   4.695  0.0506 -0.0259 -0.1255
 2137Sol     OW11649   3.235   1.272   6.897  0.0870 -0.2768  0.4244
 2137Sol     HW11650   3.261   1.286   6.805 -0.3510  0.9344  0.4678
 2137Sol     HW11651   3.167   1.205   6.893  1.2020 -1.4083  0.0297
 2137Sol     MW11652   3.231   1.268   6.888  0.1675  0.2093  0.0483
 2138Sol     OW11653   3.284   1.765   7.341 -0.1691  0.0037  0.8875
 2138Sol     HW11654   3.296   1.683   7.295  0.2822  1.7753 -2.3171
 2138Sol     HW11655   3.242   1.741   7.423 -0.2025 -3.3743 -0.0569
 2138Sol     MW11656   3.281   1.756   7.344  0.4826  0.2759 -0.2291
 2139Sol     OW11657   2.096   0.082   5.916  0.1155 -0.4753  0.0419
 2139Sol     HW11658   2.105  -0.011   5.894  1.0928 -0.1311 -1.1021
 2139Sol     HW11659   2.166   0.125   5.865 -0.9025  0.9917 -0.1436
 2139Sol     MW11660   2.103   0.078   5.909 -0.2933  0.1696  0.1111
 2140Sol     OW11661   1.604   1.966   2.091 -0.7926  0.5053  0.7452
 2140Sol     HW11662   1.514   1.975   2.121 -0.8918 -0.3021  0.7133
 2140Sol     HW11663   1.639   2.055   2.092 -1.5536  0.8090  0.8624
 2140Sol     MW11664   1.599   1.974   2.093  0.5274  0.1923 -0.2115
 2141Sol     OW11665   1.824   3.123   1.728  0.4646 -0.6923 -0.5759
 2141Sol     HW11666   1.747   3.177   1.709  0.1977 -0.8354  0.0994
 2141Sol     HW11667   1.896   3.168   1.684 -0.2144 -1.2698 -2.3508
 2141Sol     MW11668   1.824   3.132   1.722 -0.7842  0.4582 -0.0442
 2142Sol     OW11669   1.330   0.262   4.416  0.0153 -0.5134  0.2382
 2142Sol     HW11670   1.284   0.305   4.488 -0.1604  0.3493 -0.3816
 2142Sol     HW11671   1.422   0.280   4.432 -0.1649  1.6798 -1.0031
 2142Sol     MW11672   1.334   0.268   4.424 -0.3727  0.1118 -0.4730
 2143Sol     OW11673   1.639   1.085   8.284  0.2355  0.2819 -0.2292
 2143Sol     HW11674   1.608   1.003   8.246  1.2180  0.7426 -2.0571
 2143Sol     HW11675   1.587   1.095   8.364 -0.9025 -1.3839 -0.7307
 2143Sol     MW11676   1.632   1.079   8.288  0.1229  0.3551  0.7527
 2144Sol     OW11677   0.406   2.963   7.970  0.0490  0.2077  0.2031
 2144Sol     HW11678   0.366   2.934   8.052  0.5087 -2.4009 -0.4476
 2144Sol     HW11679   0.487   2.912   7.964  0.1616  0.5837 -1.7066
 2144Sol     MW11680   0.410   2.956   7.976 -0.3857 -0.3665  0.2028
 2145Sol     OW11681   0.967   0.880   4.807 -0.0843  0.0933 -0.5091
 2145Sol     HW11682   0.989   0.962   4.763  1.1730 -0.9262 -1.8087
 2145Sol     HW11683   0.988   0.811   4.744 -1.3874 -1.2436  0.4447
 2145Sol     MW11684   0.971   0.881   4.798 -0.0883 -0.5158 -0.0915
 2146Sol     OW11685   3.097   2.977  10.042 -0.6657 -0.3928 -0.1597
 2146Sol     HW11686   3.142   2.910   9.990  0.6474 -0.2410  0.7503
 2146Sol     HW11687   3.167   3.020  10.091 -1.5633  1.3198 -0.3558
 2146Sol     MW11688   3.107   2.975  10.042 -0.5138 -0.0949  0.5321
 2147Sol     OW11689   1.984   2.747   3.495 -0.4687  0.1164 -0.0472
 2147Sol     HW11690   1.900   2.726   3.454 -1.4565  2.2533  0.7812
 2147Sol     HW11691   1.974   2.838   3.524  0.8528 -0.7385  3.2449
 2147Sol     MW11692   1.976   2.753   3.494  0.1986 -0.2531  0.1807
 2148Sol     OW11693   2.419   2.584   5.119  0.1813 -0.4021  0.3958
 2148Sol     HW11694   2.504   2.605   5.157  0.9391 -1.7256 -0.5087
 2148Sol     HW11695   2.361   2.654   5.148  1.6381  0.6405  0.8345
 2148Sol     MW11696   2.421   2.592   5.125  0.4141  0.6437 -0.6550
 2149Sol     OW11697   3.326   1.936   8.869  0.4075 -0.1079  0.0715
 2149Sol     HW11698   3.409   1.947   8.915  0.1564  1.1582  0.2438
 2149Sol     HW11699   3.260   1.964   8.933 -0.0887 -0.3094 -0.3477
 2149Sol     MW11700   3.327   1.940   8.879 -0.1273  0.4925  0.3911
 2150Sol     OW11701   3.043   2.281   4.696 -0.3956 -0.2195 -0.0783
 2150Sol     HW11702   3.023   2.216   4.629  0.2892 -0.0058 -0.4989
 2150Sol     HW11703   3.083   2.353   4.648  0.4295 -0.2160  0.6014
 2150Sol     MW11704   3.045   2.282   4.686  0.0608 -0.2049  0.1507
 2151Sol     OW11705   0.780   2.962   4.719  1.0560 -0.4516 -0.2813
 2151Sol     HW11706   0.762   2.884   4.665  0.0447  0.2275 -0.9592
 2151Sol     HW11707   0.860   2.999   4.681  0.3356  0.0368 -1.3582
 2151Sol     MW11708   0.786   2.958   4.710 -0.4977 -0.0105 -0.1415
 2152Sol     OW11709   0.766   0.814   9.574  0.2537 -0.0762 -0.5801
 2152Sol     HW11710   0.855   0.848   9.565  1.3112 -2.5132  0.1841
 2152Sol     HW11711   0.761   0.743   9.510 -1.1698  0.0892 -0.6664
 2152Sol     MW11712   0.774   0.811   9.568 -0.0725  0.4282 -0.0164
 2153Sol     OW11713   0.248   3.314   3.166  0.1852 -0.3910  0.0723
 2153Sol     HW11714   0.285   3.264   3.240 -1.0803  0.8901  1.6055
 2153Sol     HW11715   0.325   3.346   3.119  1.0425  0.0627  1.7189
 2153Sol     MW11716   0.259   3.312   3.169  0.5955 -0.2547 -0.0227
 2154Sol     OW11717   1.921   1.073   4.694  0.0644  0.5964 -0.3008
 2154Sol     HW11718   1.973   1.080   4.774 -0.7978  0.4688  0.2770
 2154Sol     HW11719   1.986   1.059   4.625  0.8259  0.8435  0.3494
 2154Sol     MW11720   1.932   1.072   4.695  0.3788 -0.3550  0.2434
 2155Sol     OW11721   1.564   2.406   7.203  0.0966 -0.5301  0.4396
 2155Sol     HW11722   1.562   2.314   7.177  1.3581 -0.4126 -0.0806
 2155Sol     HW11723   1.535   2.405   7.295  0.0355 -1.4360  0.4133
 2155Sol     MW11724   1.561   2.397   7.209 -0.4369  0.1541  0.1259
 2156Sol     OW11725   1.711   3.006   3.452 -0.1196 -0.3297 -0.0466
 2156Sol     HW11726   1.760   3.009   3.370 -0.5418  0.6137 -0.2636
 2156Sol     HW11727   1.700   2.912   3.470  1.8083 -0.5726  0.0347
 2156Sol     MW11728   1.714   2.998   3.447  0.9661  0.1054  0.0563
 2157Sol     OW11729   1.035   1.043   2.127  0.0129 -0.1660  0.4938
 2157Sol     HW11730   1.052   0.955   2.161 -0.0531 -0.3348  0.0907
 2157Sol     HW11731   0.975   1.082   2.191 -0.4833 -0.6500  0.3260
 2157Sol     MW11732   1.031   1.038   2.136 -0.0677 -0.1516  0.1454
 2158Sol     OW11733   2.120   1.572   4.476  0.5839  0.1205 -0.4420
 2158Sol     HW11734   2.179   1.499   4.495  0.1382 -0.2225 -0.3552
 2158Sol     HW11735   2.091   1.603   4.561 -0.5274 -0.6837 -0.5120
 2158Sol     MW11736   2.123   1.568   4.485  0.1216  0.8223 -0.9563
 2159Sol     OW11737   1.220   0.155   5.448  0.0880 -0.1940  0.5485
 2159Sol     HW11738   1.280   0.207   5.395  0.8770 -0.0937  1.5369
 2159Sol     HW11739   1.275   0.116   5.516 -0.8174 -0.7948  0.9494
 2159Sol     MW11740   1.230   0.156   5.449  0.5052 -0.4080 -0.2555
 2160Sol     OW11741   0.035   2.706   3.324 -0.4255 -0.4368 -0.0808
 2160Sol     HW11742   0.094   2.638   3.356  0.0084  0.2375  0.5967
 2160Sol     HW11743   0.057   2.716   3.232  0.1676 -0.5572  0.0474
 2160Sol     MW11744   0.042   2.701   3.319 -0.1825  0.6427  0.5239
 2161Sol     OW11745   1.490   1.208   4.266  0.4703  0.1150  0.0330
 2161Sol     HW11746   1.459   1.224   4.354  0.0197  2.2467 -0.4944
 2161Sol     HW11747   1.442   1.269   4.211  0.9080 -1.0135 -1.6730
 2161Sol     MW11748   1.483   1.215   4.269  0.4334  0.4692 -0.5980
 2162Sol     OW11749   1.601   3.111   9.497 -0.2825 -0.1041  0.5179
 2162Sol     HW11750   1.695   3.132   9.493 -0.3248  0.2373  1.2608
 2162Sol     HW11751   1.569   3.129   9.409  0.2341  0.3266  0.4125
 2162Sol     MW11752   1.607   3.114   9.489  1.2651 -0.2025 -0.5659
 2163Sol     OW11753   2.428   0.649   3.110 -0.3667 -0.4279 -0.0379
 2163Sol     HW11754   2.336   0.659   3.135  0.3588  1.6541  1.9724
 2163Sol     HW11755   2.437   0.703   3.031 -0.2496  1.8273  1.4497
 2163Sol     MW11756   2.421   0.655   3.105  0.2377 -0.1531 -0.3296
 2164Sol     OW11757   3.296   2.404   8.315 -0.3047 -0.2915 -0.3799
 2164Sol     HW11758   3.338   2.331   8.361  1.3449  1.6882  1.3625
 2164Sol     HW11759   3.256   2.456   8.384 -1.4442  0.4904 -1.6059
 2164Sol     MW11760   3.296   2.402   8.325  0.1465 -0.2074 -0.4409
 2165Sol     OW11761   2.505   0.611   1.658 -0.1861 -0.0349 -0.2141
 2165Sol     HW11762   2.584   0.629   1.608 -0.1857  0.1018 -0.1656
 2165Sol     HW11763   2.501   0.682   1.722  0.5959 -0.9979  0.9333
 2165Sol     MW11764   2.512   0.619   1.659 -0.1662  0.1750  0.5144
 2166Sol     OW11765   0.931   2.155   5.159  0.0232 -1.0655 -0.6561
 2166Sol     HW11766   0.866   2.113   5.103  0.4737 -0.0935 -1.9253
 2166Sol     HW11767   0.954   2.235   5.113  0.0296  0.0063  1.1785
 2166Sol     MW11768   0.928   2.158   5.150  0.1249 -0.0753 -0.4369
 2167Sol     OW11769   1.480   0.666   5.497  0.3016 -0.6285  0.3530
 2167Sol     HW11770   1.569   0.656   5.532 -0.2636 -0.9805  1.7502
 2167Sol     HW11771   1.482   0.749   5.450  1.8009 -1.4079 -1.0015
 2167Sol     MW11772   1.488   0.672   5.496  0.2878 -0.7292 -0.2132
 2168Sol     OW11773   2.580   1.496   8.254 -0.2723  0.3909 -0.3000
 2168Sol     HW11774   2.672   1.521   8.251 -0.4389  1.6158  3.1416
 2168Sol     HW11775   2.543   1.530   8.172  1.5559  3.1871 -0.0187
 2168Sol     MW11776   2.585   1.501   8.246 -0.2925  0.1191  0.2654
 2169Sol     OW11777   0.472   0.140   5.988  0.5164 -1.0354  0.3891
 2169Sol     HW11778   0.508   0.082   5.921  0.5899  0.5086 -0.9068
 2169Sol     HW11779   0.422   0.081   6.045  0.3501 -2.3450 -1.0821
 2169Sol     MW11780   0.471   0.129   5.987 -0.0783 -0.2151 -0.0420
 2170Sol     OW11781   3.054   1.058   6.895  0.2217  0.1466 -0.3399
 2170Sol     HW11782   3.019   1.027   6.812 -0.8010 -0.5756  0.3550
 2170Sol     HW11783   2.981   1.103   6.937  1.1045  1.6753 -0.4105
 2170Sol     MW11784   3.045   1.059   6.892  0.0803 -0.2272 -0.4139
 2171Sol     OW11785   1.858   0.878   2.225 -0.0674  0.3133 -0.7555
 2171Sol     HW11786   1.804   0.945   2.183 -0.3970 -0.3020 -1.3277
 2171Sol     HW11787   1.865   0.809   2.159 -1.3601 -1.0835  0.5338
 2171Sol     MW11788   1.854   0.878   2.215 -0.5257  0.1489  0.1131
 2172Sol     OW11789   0.321   1.820   3.428 -0.6265 -0.5652 -0.0482
 2172Sol     HW11790   0.338   1.752   3.492 -2.2027  0.2131  1.2551
 2172Sol     HW11791   0.406   1.861   3.412 -0.0879 -1.2829  0.9539
 2172Sol     MW11792   0.330   1.818   3.432  0.0370  0.0836  0.3498
 2173Sol     OW11793   0.589   3.067   6.135  0.1733  0.0482  0.0653
 2173Sol     HW11794   0.659   3.122   6.101  0.9318 -2.1800 -2.1589
 2173Sol     HW11795   0.607   3.058   6.228  1.5625  1.3095 -0.0755
 2173Sol     MW11796   0.597   3.071   6.140  0.5433 -0.2744 -0.2472
 2174Sol     OW11797   1.317   0.232   9.070  1.0547 -0.1283 -0.0321
 2174Sol     HW11798   1.267   0.231   9.152  1.2531 -0.6165  0.0865
 2174Sol     HW11799   1.251   0.219   9.002  0.4202  3.7558 -0.2197
 2174Sol     MW11800   1.306   0.230   9.071  0.2568  0.0632  0.4197
 2175Sol     OW11801   0.608   1.983   2.922  0.0106  0.0321  0.1930
 2175Sol     HW11802   0.606   1.919   2.850 -0.3105  0.9938 -0.6637
 2175Sol     HW11803   0.624   2.067   2.879 -2.4172  0.9517  1.0271
 2175Sol     MW11804   0.609   1.985   2.912  0.2268  0.2295 -0.5076
 2176Sol     OW11805   0.909   2.063   5.411  0.2115  0.2533  0.2398
 2176Sol     HW11806   0.828   2.107   5.437  1.1131  1.8985  0.3613
 2176Sol     HW11807   0.924   2.093   5.321  0.1859 -0.8276 -0.1396
 2176Sol     MW11808   0.903   2.070   5.405  0.1709 -0.0461  0.6417
 2177Sol     OW11809   2.323   1.735   2.603 -0.1382  0.1535 -0.0815
 2177Sol     HW11810   2.345   1.737   2.510 -0.9676 -0.7656 -0.3064
 2177Sol     HW11811   2.391   1.787   2.646  0.9261 -0.4378 -1.0580
 2177Sol     MW11812   2.331   1.740   2.599  0.0645  0.0551 -0.1206
 2178Sol     OW11813   1.395   1.281   5.476  0.3466 -0.7351  0.0552
 2178Sol     HW11814   1.463   1.333   5.434  0.8371 -1.9675 -0.7222
 2178Sol     HW11815   1.328   1.268   5.409  1.1568 -2.7556 -0.4087
 2178Sol     MW11816   1.395   1.284   5.466  0.2013 -0.0597  0.6532
 2179Sol     OW11817   1.660   3.019   3.035  0.5787 -0.1168  0.2902
 2179Sol     HW11818   1.567   3.031   3.018  0.1868 -2.3234  0.7411
 2179Sol     HW11819   1.696   2.987   2.952  0.5557 -1.1011  0.6482
 2179Sol     MW11820   1.655   3.017   3.026  0.7099  0.1561 -1.2878
 2180Sol     OW11821   2.460   0.491   3.578 -0.1623 -0.3132 -0.3727
 2180Sol     HW11822   2.371   0.513   3.549 -0.8411 -0.4390  1.5297
 2180Sol     HW11823   2.452   0.405   3.619  0.7724 -0.1729  0.1309
 2180Sol     MW11824   2.451   0.485   3.579  0.6873  0.4365  0.1300
 2181Sol     OW11825   0.944   0.485   3.668  0.6053  0.0044  0.1446
 2181Sol     HW11826   1.005   0.436   3.723 -0.3128 -0.3419  0.8662
 2181Sol     HW11827   0.904   0.549   3.728 -2.7892 -2.4888  0.7138
 2181Sol     MW11828   0.946   0.487   3.679  0.4010  0.1459  0.0947
 2182Sol     OW11829   1.227   2.317   6.501 -0.3117 -0.2365 -0.2116
 2182Sol     HW11830   1.197   2.321   6.592  0.7443 -0.0744  0.1308
 2182Sol     HW11831   1.293   2.247   6.500 -0.0244  0.0374 -0.7693
 2182Sol     MW11832   1.230   2.311   6.509  0.6102 -0.4946  0.0779
 2183Sol     OW11833   2.804   1.500   5.215 -0.5507  0.4805 -0.0713
 2183Sol     HW11834   2.801   1.593   5.236 -2.2719 -0.0115  2.0154
 2183Sol     HW11835   2.750   1.458   5.282 -1.6304 -1.7842 -2.2512
 2183Sol     MW11836   2.799   1.504   5.223  0.1671 -0.0116  0.1368
 2184Sol     OW11837   2.698   3.103   2.634  0.1206 -0.0065  0.7573
 2184Sol     HW11838   2.750   3.083   2.712 -1.8737  0.0696  2.1308
 2184Sol     HW11839   2.653   3.185   2.655 -1.5984 -0.7529  0.1246
 2184Sol     MW11840   2.699   3.109   2.643 -0.7518  0.5173 -0.8571
 2185Sol     OW11841   2.888   0.601   6.262 -0.3364  0.2613 -0.4033
 2185Sol     HW11842   2.903   0.632   6.173 -0.9341  0.2748 -0.5025
 2185Sol     HW11843   2.947   0.527   6.272 -0.4140  0.1343 -0.8800
 2185Sol     MW11844   2.895   0.597   6.255 -0.0642  0.0150  0.0776
 2186Sol     OW11845   2.044   3.231   5.563 -0.3043 -0.1125 -0.3460
 2186Sol     HW11846   2.077   3.284   5.490 -0.3508 -0.4956 -0.6448
 2186Sol     HW11847   2.123   3.193   5.602 -0.3811 -0.9713 -1.0168
 2186Sol     MW11848   2.054   3.233   5.560 -0.6065 -0.1972 -0.3781
 2187Sol     OW11849   2.015   1.005   2.604 -0.2651 -0.6373  0.6177
 2187Sol     HW11850   2.077   1.076   2.620 -0.1826 -0.5473 -0.0928
 2187Sol     HW11851   2.038   0.971   2.517 -2.8723  1.1528 -0.8432
 2187Sol     MW11852   2.022   1.008   2.598 -0.1406  0.2688  0.2811
 2188Sol     OW11853   2.579   1.099   7.217  0.1881 -0.1261  0.1510
 2188Sol     HW11854   2.559   1.143   7.135 -0.5729 -1.4178 -0.3712
 2188Sol     HW11855   2.506   1.122   7.275  0.3649  0.2055  0.2444
 2188Sol     MW11856   2.571   1.105   7.215 -0.2246  0.0580 -0.2583
 2189Sol     OW11857   1.092   0.708   6.236 -0.6410 -0.0733 -0.6121
 2189Sol     HW11858   1.012   0.743   6.276 -0.7605  1.3327 -2.0158
 2189Sol     HW11859   1.124   0.779   6.180  0.4725 -1.3620 -1.6581
 2189Sol     MW11860   1.088   0.718   6.234  0.1846 -0.2769  0.3901
 2190Sol     OW11861   3.134   0.529   1.754  0.2011  0.1509 -0.2861
 2190Sol     HW11862   3.058   0.485   1.792  0.0770  0.4024 -0.2418
 2190Sol     HW11863   3.186   0.458   1.716  0.5986 -0.1658  0.8285
 2190Sol     MW11864   3.132   0.519   1.754 -0.0595 -0.2513  0.0736
 2191Sol     OW11865   3.108   0.818   8.410  0.2685  0.3091  0.5867
 2191Sol     HW11866   3.071   0.901   8.379  1.0815  0.9229  1.2523
 2191Sol     HW11867   3.048   0.751   8.376  0.0292  1.1090 -0.6010
 2191Sol     MW11868   3.099   0.819   8.404 -0.1731  0.1098 -0.2247
 2192Sol     OW11869   0.673   2.288   9.431  0.1386  0.7019  0.1985
 2192Sol     HW11870   0.673   2.377   9.465 -1.6065  0.0503  2.0024
 2192Sol     HW11871   0.590   2.280   9.383  0.4634  0.1606 -0.2882
 2192Sol     MW11872   0.666   2.295   9.430 -0.5148 -0.2626  0.1588
 2193Sol     OW11873   1.484   0.760   2.530  0.4697  0.6231 -0.5339
 2193Sol     HW11874   1.514   0.694   2.593  0.8474  0.8740 -0.4448
 2193Sol     HW11875   1.402   0.793   2.568  0.9465  1.1221  0.0882
 2193Sol     MW11876   1.479   0.757   2.539 -0.3676 -0.0978 -0.3116
 2194Sol     OW11877   2.622   1.230   6.702 -0.1297  0.0925 -0.0375
 2194Sol     HW11878   2.663   1.179   6.632  1.5570 -0.4493  1.3112
 2194Sol     HW11879   2.628   1.320   6.672 -1.8183 -0.3448 -1.7818
 2194Sol     MW11880   2.626   1.233   6.693  0.3304 -0.4338 -0.6360
 2195Sol     OW11881   0.451   1.728   7.253  0.0754 -0.1023  0.5036
 2195Sol     HW11882   0.531   1.680   7.275 -0.1740 -1.1980 -0.8634
 2195Sol     HW11883   0.437   1.787   7.326  2.1488  0.0999  0.7588
 2195Sol     MW11884   0.457   1.729   7.261 -0.3791  0.4244  0.2770
 2196Sol     OW11885   2.730   0.320   9.710  0.5639 -0.2074  0.1827
 2196Sol     HW11886   2.641   0.287   9.701  0.9201 -1.4274  1.0336
 2196Sol     HW11887   2.734   0.355   9.800  1.0028 -0.3496  0.2191
 2196Sol     MW11888   2.723   0.321   9.718  0.3137 -0.1474 -0.1616
 2197Sol     OW11889   1.798   0.849   4.562 -0.2546 -0.0761  0.0551
 2197Sol     HW11890   1.868   0.796   4.525  0.7374  1.5177 -0.3610
 2197Sol     HW11891   1.841   0.903   4.628 -0.9654  1.3505 -0.6325
 2197Sol     MW11892   1.808   0.849   4.565 -0.7632  0.3463  0.1702
 2198Sol     OW11893   0.118   2.204   8.395 -0.5863  0.5074 -0.1759
 2198Sol     HW11894   0.201   2.190   8.442 -0.7359 -0.4305 -0.1898
 2198Sol     HW11895   0.078   2.117   8.390 -0.9556  0.7392 -1.3329
 2198Sol     MW11896   0.122   2.195   8.399 -0.1123  0.4368  0.2423
 2199Sol     OW11897   0.842   2.865   8.790  0.1426  0.4541  0.5851
 2199Sol     HW11898   0.757   2.890   8.755 -0.5326 -3.1566 -0.6209
 2199Sol     HW11899   0.905   2.918   8.741 -1.3189  1.8036  0.1467
 2199Sol     MW11900   0.840   2.872   8.782 -0.1657  0.0572  0.1794
 2200Sol     OW11901   0.878   2.467   1.794  0.2303 -0.4007 -0.0786
 2200Sol     HW11902   0.798   2.498   1.753  0.2026  2.1794  1.7628
 2200Sol     HW11903   0.944   2.471   1.725 -0.8211 -0.7317 -1.1085
 2200Sol     MW11904   0.877   2.470   1.784 -0.4194 -0.3927 -0.0478
 2201Sol     OW11905   0.050   0.459   6.407  0.5159 -0.2992 -0.5732
 2201Sol     HW11906   0.055   0.507   6.489 -0.2034 -0.8984 -0.1719
 2201Sol     HW11907  -0.000   0.516   6.349  0.1564 -0.3206 -0.2823
 2201Sol     MW11908   0.046   0.468   6.409 -0.0762  0.0595  0.1549
 2202Sol     OW11909   0.572   0.995   9.556 -0.0423 -0.8020  0.4295
 2202Sol     HW11910   0.614   1.078   9.581 -0.6825 -0.6759  1.0895
 2202Sol     HW11911   0.643   0.930   9.562  0.8454 -0.0582 -1.5916
 2202Sol     MW11912   0.582   0.997   9.559 -0.2745  0.6587  0.0410
 2203Sol     OW11913   1.093   0.849   2.902  0.5155 -0.3115 -0.6070
 2203Sol     HW11914   1.003   0.845   2.871  0.6222  0.2132 -1.0009
 2203Sol     HW11915   1.093   0.800   2.984 -0.0295 -0.6991 -0.8352
 2203Sol     MW11916   1.085   0.844   2.906 -0.3086 -0.7815 -0.3361
 2204Sol     OW11917   0.402   0.401   6.601  0.1730  0.0698  0.3464
 2204Sol     HW11918   0.357   0.418   6.519 -1.4522 -0.6684  1.0709
 2204Sol     HW11919   0.338   0.421   6.669  1.3304  0.1767  1.4328
 2204Sol     MW11920   0.392   0.404   6.600 -0.0621  0.1276  0.5539
 2205Sol     OW11921   0.667   2.184   6.170 -0.0978 -0.4369 -0.5652
 2205Sol     HW11922   0.674   2.180   6.266 -1.0435 -2.0346 -0.5452
 2205Sol     HW11923   0.646   2.275   6.152 -1.3893 -0.4298  0.8697
 2205Sol     MW11924   0.666   2.192   6.177  0.4421  0.1414  0.1349
 2206Sol     OW11925   0.232   1.786   2.081 -0.1670  0.1147 -0.3392
 2206Sol     HW11926   0.266   1.729   2.013  0.1257  0.3846 -0.4206
 2206Sol     HW11927   0.233   1.873   2.041  0.0821  0.2841  0.0375
 2206Sol     MW11928   0.235   1.789   2.071  0.4469  0.9252  0.3074
 2207Sol     OW11929   2.188   0.708   4.165 -0.1243  0.7598 -0.4266
 2207Sol     HW11930   2.239   0.789   4.168 -0.4786  0.9637  0.1150
 2207Sol     HW11931   2.247   0.641   4.199 -0.0972  0.9302 -0.1379
 2207Sol     MW11932   2.197   0.709   4.168  0.4736 -0.3825  0.2620
 2208Sol     OW11933   1.406   2.530   7.014  0.1381 -0.5431  0.2525
 2208Sol     HW11934   1.443   2.499   6.931  2.6502  0.7006  0.8474
 2208Sol     HW11935   1.466   2.497   7.080  0.0561  1.3434  1.2904
 2208Sol     MW11936   1.415   2.525   7.012 -0.4570  0.4205  0.5115
 2209Sol     OW11937   1.511   2.844   9.466 -0.2349 -0.0025 -0.0981
 2209Sol     HW11938   1.576   2.775   9.480 -0.7455 -0.5773 -0.5291
 2209Sol     HW11939   1.553   2.924   9.497  0.2276 -0.5684  0.7529
 2209Sol     MW11940   1.520   2.845   9.470  0.7609  0.3711  0.4684
 2210Sol     OW11941   0.427   3.296   5.630  0.0675 -0.4942 -0.3798
 2210Sol     HW11942   0.398   3.234   5.697  1.6080 -0.6557  0.1594
 2210Sol     HW11943   0.355   3.359   5.624 -1.2425 -1.9582 -0.4906
 2210Sol     MW11944   0.418   3.296   5.635 -0.1043  0.0917  0.4633
 2211Sol     OW11945   1.177   0.932   3.679 -0.2531  0.1400  0.4034
 2211Sol     HW11946   1.208   0.843   3.660  0.7455  0.9189 -1.7683
 2211Sol     HW11947   1.255   0.987   3.671 -1.3573  1.5599 -0.8417
 2211Sol     MW11948   1.187   0.929   3.677 -0.2561 -0.1570  0.3853
 2212Sol     OW11949   0.439   2.203   2.413  0.1982 -0.3391 -0.0364
 2212Sol     HW11950   0.482   2.266   2.471  1.3088 -2.3445  1.4253
 2212Sol     HW11951   0.485   2.211   2.330  1.1160 -0.0487  0.4885
 2212Sol     MW11952   0.447   2.209   2.411  0.2952 -0.2690 -0.5046
 2213Sol     OW11953   1.285   2.566   6.396 -0.2141  0.3431  0.5257
 2213Sol     HW11954   1.258   2.638   6.453  3.1840  0.5488  2.0029
 2213Sol     HW11955   1.276   2.488   6.451 -1.7133 -0.1123 -0.3359
 2213Sol     MW11956   1.281   2.566   6.406 -0.0724  0.1947  0.1754
 2214Sol     OW11957   1.954   1.392   9.882 -0.6688 -0.0335 -0.3738
 2214Sol     HW11958   1.988   1.369   9.796  0.5136 -0.4975  0.2080
 2214Sol     HW11959   1.943   1.309   9.927  0.3026  0.3055  0.5095
 2214Sol     MW11960   1.956   1.383   9.878 -0.1719 -0.4936 -0.0897
 2215Sol     OW11961   0.643   1.186   2.913  0.3260  0.0303 -0.1455
 2215Sol     HW11962   0.565   1.132   2.924  0.9935 -0.5504  1.8287
 2215Sol     HW11963   0.610   1.276   2.917 -0.8451 -0.1401 -3.8205
 2215Sol     MW11964   0.633   1.189   2.914  0.1108 -0.5883 -0.0270
 2216Sol     OW11965   1.208   3.370   7.823  0.7729 -0.0500 -0.0556
 2216Sol     HW11966   1.237   3.325   7.743  0.8180  0.3873 -0.2853
 2216Sol     HW11967   1.174   3.454   7.793  0.6977  0.0756  0.3752
 2216Sol     MW11968   1.208   3.373   7.813 -0.0905  0.7695 -0.3690
 2217Sol     OW11969   2.509   2.373   2.567  0.2062  0.0933  0.0359
 2217Sol     HW11970   2.509   2.467   2.586  0.4900  0.2263 -0.5800
 2217Sol     HW11971   2.562   2.366   2.487 -0.2148 -0.5381 -0.1841
 2217Sol     MW11972   2.514   2.381   2.561  0.3167  0.1080 -0.7262
 2218Sol     OW11973   1.622   0.407   7.448 -0.3705 -0.8586  0.1345
 2218Sol     HW11974   1.659   0.484   7.405 -1.0373 -0.1645  0.7839
 2218Sol     HW11975   1.595   0.438   7.534  0.9735 -2.2249  1.0923
 2218Sol     MW11976   1.623   0.416   7.452 -0.0736 -0.0565  0.1166
 2219Sol     OW11977   1.297   2.951   5.854  0.0586 -0.6318  0.2507
 2219Sol     HW11978   1.218   2.970   5.804 -1.5795  1.9516  3.6087
 2219Sol     HW11979   1.285   2.862   5.886 -1.0560 -0.6021 -0.0602
 2219Sol     MW11980   1.289   2.945   5.852 -0.2626  0.3211 -0.2126
 2220Sol     OW11981   2.593   3.453   8.079 -0.1110 -0.3411 -0.0977
 2220Sol     HW11982   2.583   3.548   8.085 -2.9083 -0.5984 -0.0795
 2220Sol     HW11983   2.589   3.434   7.986 -0.4956 -0.5432 -0.0392
 2220Sol     MW11984   2.592   3.460   8.071  0.1966 -0.2886 -0.2411
 2221Sol     OW11985   2.304   2.835   3.110  0.5105  0.3429  0.2699
 2221Sol     HW11986   2.243   2.860   3.041  0.8581  0.5763  0.0460
 2221Sol     HW11987   2.252   2.782   3.170  0.4110 -0.6311 -0.6444
 2221Sol     MW11988   2.294   2.832   3.109  0.6311  0.3122  0.0006
 2222Sol     OW11989   3.149   1.919   8.464  0.1369 -0.1185  0.0798
 2222Sol     HW11990   3.227   1.916   8.409 -0.8040 -1.4999 -1.1953
 2222Sol     HW11991   3.077   1.900   8.405 -1.2405  1.5970  1.1552
 2222Sol     MW11992   3.150   1.917   8.454 -1.0115  0.6438  0.4192
 2223Sol     OW11993   3.263   1.630   5.701 -0.5099  0.3120 -0.3601
 2223Sol     HW11994   3.185   1.577   5.684  0.3636 -0.6666 -1.4463
 2223Sol     HW11995   3.237   1.688   5.772 -1.7829 -0.9473  0.2446
 2223Sol     MW11996   3.253   1.631   5.706  0.0635  0.2654 -0.3687
 2224Sol     OW11997   1.220   0.670   4.010 -0.2911 -0.5232 -0.1812
 2224Sol     HW11998   1.233   0.652   3.917 -1.2169 -0.9469 -0.2325
 2224Sol     HW11999   1.300   0.638   4.052 -0.2874 -1.2189 -0.7183
 2224Sol     MW12000   1.229   0.666   4.005 -0.1472 -0.0459  0.6431
 2225Sol     OW12001   1.714   3.305   9.000 -0.0777  0.0829 -0.5383
 2225Sol     HW12002   1.674   3.386   8.969 -0.3170  0.5031  0.8385
 2225Sol     HW12003   1.700   3.243   8.929 -0.7080  0.9910 -1.2223
 2225Sol     MW12004   1.709   3.307   8.991 -0.6105  0.1378  0.8784
 2226Sol     OW12005   2.541   3.320   8.460  0.5657  0.3639  0.2346
 2226Sol     HW12006   2.499   3.285   8.382 -0.7755 -1.4347  1.7378
 2226Sol     HW12007   2.614   3.260   8.477  0.4278  0.3474  0.7674
 2226Sol     MW12008   2.544   3.312   8.455 -0.1560  0.0464  0.0418
 2227Sol     OW12009   3.066   3.217   2.668  0.5061  0.2146 -0.5118
 2227Sol     HW12010   3.078   3.277   2.742  0.1789  0.1417 -0.3971
 2227Sol     HW12011   3.095   3.267   2.591  2.7630 -0.4148 -0.0942
 2227Sol     MW12012   3.069   3.227   2.667  0.2065  0.0604 -0.6248
 2228Sol     OW12013   2.367   1.233   3.620  0.1728 -0.0678 -0.3684
 2228Sol     HW12014   2.315   1.208   3.543 -2.2706  3.4156  0.0114
 2228Sol     HW12015   2.321   1.193   3.694 -0.4256  0.7686 -0.2817
 2228Sol     MW12016   2.358   1.227   3.620 -0.2992  0.1871 -0.1152
 2229Sol     OW12017   1.698   1.159   7.888 -0.1648  0.4342 -0.4285
 2229Sol     HW12018   1.791   1.182   7.895  1.0869 -4.4750  1.2889
 2229Sol     HW12019   1.690   1.118   7.802  0.0898 -1.9691  0.6247
 2229Sol     MW12020   1.706   1.157   7.881 -0.1415 -0.5155 -0.1533
 2230Sol     OW12021   0.714   3.339   5.064  0.7510  0.2968 -0.2349
 2230Sol     HW12022   0.749   3.260   5.106 -1.3042 -0.5969 -0.1309
 2230Sol     HW12023   0.623   3.317   5.045 -0.3684  3.2432  1.3507
 2230Sol     MW12024   0.709   3.330   5.066 -0.0951  0.4400  0.5598
 2231Sol     OW12025   0.072   3.273   4.672 -0.2946 -0.0522 -0.7866
 2231Sol     HW12026   0.019   3.325   4.732 -1.5421  0.7138 -2.5235
 2231Sol     HW12027   0.110   3.337   4.612  0.1129 -0.9128 -1.4582
 2231Sol     MW12028   0.071   3.283   4.672 -0.0615 -0.5710 -0.4883
 2232Sol     OW12029   0.838   0.007   8.922 -0.7010 -0.8570 -0.4652
 2232Sol     HW12030   0.797   0.042   8.843 -0.3964 -1.3030 -0.8260
 2232Sol     HW12031   0.875   0.083   8.966  0.4004 -0.7888 -1.5005
 2232Sol     MW12032   0.837   0.017   8.919  0.5690  0.3105 -0.5358
 2233Sol     OW12033   1.840   1.996   1.514  0.2235  0.6560  0.4191
 2233Sol     HW12034   1.842   2.090   1.533  1.7966  0.7268 -0.0126
 2233Sol     HW12035   1.817   1.956   1.598  1.7823  1.3101  1.1924
 2233Sol     MW12036   1.838   2.001   1.524  0.0200  0.0793  0.5029
 2234Sol     OW12037   1.558   1.339   9.017  0.2509  0.2601  0.1554
 2234Sol     HW12038   1.646   1.302   9.023  0.2937  0.6029  2.0087
 2234Sol     HW12039   1.513   1.307   9.095 -1.6668 -0.8806 -1.3699
 2234Sol     MW12040   1.562   1.333   9.025 -0.5746 -0.0710 -0.2276
 2235Sol     OW12041   1.252   0.743   4.816 -0.4461  0.5413  0.5413
 2235Sol     HW12042   1.193   0.685   4.865 -0.9901 -0.7848 -1.6533
 2235Sol     HW12043   1.193   0.798   4.763  0.1923  1.1430  0.4465
 2235Sol     MW12044   1.241   0.743   4.816 -0.7851  0.0565  0.2657
 2236Sol     OW12045   2.158   2.473   5.531 -0.0764  0.1002 -0.1997
 2236Sol     HW12046   2.179   2.516   5.613 -1.0176 -3.6592  2.1459
 2236Sol     HW12047   2.240   2.473   5.482  1.7938 -1.6833  2.7603
 2236Sol     MW12048   2.167   2.477   5.534  0.0028 -0.1938 -0.3579
 2237Sol     OW12049   0.456   3.109   6.512 -0.0315 -0.3546 -0.9919
 2237Sol     HW12050   0.495   3.155   6.586 -2.9002 -0.4802  0.6670
 2237Sol     HW12051   0.446   3.019   6.543 -1.0859 -0.4453 -1.5890
 2237Sol     MW12052   0.459   3.105   6.522  0.5861  0.8220  0.6098
 2238Sol     OW12053   0.476   1.337   7.391 -0.3670 -0.3911 -0.0041
 2238Sol     HW12054   0.436   1.385   7.464  0.7400 -0.0433  0.3821
 2238Sol     HW12055   0.538   1.398   7.353  1.6054 -1.7463  0.9583
 2238Sol     MW12056   0.478   1.347   7.394 -0.6543 -0.3338 -0.6135
 2239Sol     OW12057   1.963   0.812   1.820  0.1742 -0.3007  0.3229
 2239Sol     HW12058   1.893   0.760   1.861 -0.7374  0.4032 -0.3175
 2239Sol     HW12059   1.943   0.809   1.727  0.3796  0.8052  0.2384
 2239Sol     MW12060   1.955   0.807   1.816 -0.1670 -0.0503  0.1785
 2240Sol     OW12061   1.135   2.290   9.170  0.8176 -0.4455  0.2321
 2240Sol     HW12062   1.047   2.258   9.186  1.0526 -1.0918  0.2355
 2240Sol     HW12063   1.183   2.271   9.251  0.8009  0.4498  0.4531
 2240Sol     MW12064   1.132   2.286   9.179 -0.0166  0.2419  0.3974
 2241Sol     OW12065   2.963   3.412   9.161 -0.0825  0.6267 -0.7004
 2241Sol     HW12066   2.942   3.356   9.087 -0.8528 -1.5460  1.1201
 2241Sol     HW12067   3.035   3.368   9.206 -2.2949 -0.2339  2.1314
 2241Sol     MW12068   2.967   3.403   9.158  0.2595  0.6115 -0.3066
 2242Sol     OW12069   0.439   1.109   7.213 -0.1094 -0.2017 -0.4642
 2242Sol     HW12070   0.461   1.174   7.279 -0.7020  0.8224 -1.2697
 2242Sol     HW12071   0.347   1.089   7.227  0.2852 -1.5534  0.3562
 2242Sol     MW12072   0.433   1.113   7.220  0.2292 -0.7153 -0.2728
 2243Sol     OW12073   1.628   1.880   7.892  0.0920  0.2850  0.2163
 2243Sol     HW12074   1.660   1.798   7.855 -1.7670 -1.5045  2.4051
 2243Sol     HW12075   1.533   1.871   7.891 -0.0940  1.8424  1.7327
 2243Sol     MW12076   1.623   1.872   7.889  0.2673  0.4363 -0.6204
 2244Sol     OW12077   3.191   1.733   7.040 -0.3894  0.5909  0.2327
 2244Sol     HW12078   3.149   1.811   7.004 -0.6207  0.4371  0.1650
 2244Sol     HW12079   3.192   1.748   7.135  0.4198  1.0937  0.1473
 2244Sol     MW12080   3.187   1.741   7.045  0.0849 -0.5530 -0.3836
 2245Sol     OW12081   0.437   0.019   2.251 -0.2979 -0.4404 -0.1518
 2245Sol     HW12082   0.473   0.053   2.333 -1.6104 -2.6191  1.3716
 2245Sol     HW12083   0.347  -0.005   2.272 -0.7871 -0.6499 -2.3400
 2245Sol     MW12084   0.432   0.020   2.260 -0.2569  0.0171  0.2992
 2246Sol     OW12085   3.129   2.043   8.710  0.0832 -0.4598 -0.1752
 2246Sol     HW12086   3.133   2.005   8.622  0.2697 -1.0925  0.1015
 2246Sol     HW12087   3.218   2.033   8.744  0.1187  0.1810 -0.0782
 2246Sol     MW12088   3.138   2.038   8.705 -0.2719  0.3054  0.2073
 2247Sol     OW12089   2.934   0.828   4.565  0.4283  0.4952  0.8262
 2247Sol     HW12090   2.886   0.880   4.501 -0.5948 -0.0810  1.0984
 2247Sol     HW12091   2.899   0.856   4.649  0.4670 -0.0301  1.0200
 2247Sol     MW12092   2.927   0.835   4.567  0.6900 -0.6948  0.2290
 2248Sol     OW12093   1.540   3.282   7.972 -0.2502  0.1413  0.1467
 2248Sol     HW12094   1.472   3.235   8.019 -1.2961  0.4882 -0.9818
 2248Sol     HW12095   1.564   3.225   7.899  1.4846 -0.4749  1.1592
 2248Sol     MW12096   1.536   3.273   7.970  0.2370 -0.0511  0.1459
 2249Sol     OW12097   1.030   2.467   7.216  0.0156  0.4452 -0.5287
 2249Sol     HW12098   1.094   2.534   7.241  0.5194 -0.3330  0.2930
 2249Sol     HW12099   1.066   2.429   7.136  0.0059  0.7771 -0.6930
 2249Sol     MW12100   1.039   2.470   7.211 -0.1978  0.2381  0.5104
 2250Sol     OW12101   2.253   1.685   3.395 -0.0650  0.8892  0.1439
 2250Sol     HW12102   2.325   1.660   3.452  0.1531  0.9455 -0.1079
 2250Sol     HW12103   2.227   1.771   3.427  1.3822  1.8176 -1.1205
 2250Sol     MW12104   2.257   1.690   3.403  0.7120  0.7248 -0.2946
 2251Sol     OW12105   2.090   1.193   9.042  0.4633  0.7053  0.0185
 2251Sol     HW12106   2.111   1.169   9.132  0.6097  0.2822 -0.1284
 2251Sol     HW12107   2.168   1.239   9.010  1.8001 -2.1458 -1.0154
 2251Sol     MW12108   2.099   1.195   9.047  0.4516  0.0302 -0.0874
 2252Sol     OW12109   2.513   2.525   7.428  0.0494 -0.0020 -0.2539
 2252Sol     HW12110   2.571   2.565   7.492  0.6910 -1.8448  0.3455
 2252Sol     HW12111   2.567   2.515   7.349  0.1048 -0.3291 -0.1761
 2252Sol     MW12112   2.523   2.527   7.426 -0.2783  0.2096 -0.6450
 2253Sol     OW12113   3.276   0.296   3.358  0.0630 -0.2405 -0.3925
 2253Sol     HW12114   3.337   0.235   3.399 -0.2913  0.0409  0.5751
 2253Sol     HW12115   3.197   0.244   3.342  0.2242 -0.3666 -0.7751
 2253Sol     MW12116   3.275   0.286   3.360 -0.4226 -0.3253 -0.2081
 2254Sol     OW12117   2.740   3.330   4.645 -0.2087  0.0538  0.5512
 2254Sol     HW12118   2.671   3.268   4.667 -1.0421  0.3144 -1.2663
 2254Sol     HW12119   2.736   3.339   4.550  0.5881  2.0776  0.6725
 2254Sol     MW12120   2.734   3.325   4.638 -0.1900  0.2973  0.2166
 2255Sol     OW12121   2.905   1.741   5.345 -0.3008 -0.0804 -1.0366
 2255Sol     HW12122   3.000   1.729   5.353 -0.3015 -0.5803 -1.7903
 2255Sol     HW12123   2.895   1.803   5.273 -0.6131 -1.2778 -2.0323
 2255Sol     MW12124   2.913   1.746   5.340  0.5223  0.1082  0.4339
 2256Sol     OW12125   2.402   2.244   9.115  0.6494 -0.6967 -0.3042
 2256Sol     HW12126   2.439   2.330   9.133 -0.6594 -0.3579  0.8172
 2256Sol     HW12127   2.308   2.255   9.128  0.5063 -2.3867  0.2200
 2256Sol     MW12128   2.397   2.252   9.117  0.3834  1.0890 -0.0795
 2257Sol     OW12129   2.604   2.812   8.850 -0.0023 -0.1317 -0.0737
 2257Sol     HW12130   2.542   2.747   8.885 -0.1884  0.3543  0.5107
 2257Sol     HW12131   2.679   2.760   8.821 -0.1603 -0.6125  0.3615
 2257Sol     MW12132   2.605   2.801   8.850 -0.4562 -0.5125 -0.1220
 2258Sol     OW12133   0.229   2.654   8.216  0.5933 -0.6662 -0.1504
 2258Sol     HW12134   0.298   2.591   8.192  2.6151  1.4698 -0.1658
 2258Sol     HW12135   0.240   2.667   8.310  1.1073  0.6857 -0.3849
 2258Sol     MW12136   0.236   2.650   8.222  0.3985 -0.5386  0.3428
 2259Sol     OW12137   2.001   1.063   7.201 -0.3217  0.3656  0.2212
 2259Sol     HW12138   2.011   1.155   7.174 -2.6117 -0.1680 -2.7576
 2259Sol     HW12139   1.955   1.068   7.285 -0.8382  1.9645 -0.1346
 2259Sol     MW12140   1.998   1.072   7.206  0.4584  0.3003 -0.0046
 2260Sol     OW12141   2.698   2.195   2.005 -0.2628  0.3180 -0.4350
 2260Sol     HW12142   2.660   2.279   1.980  0.7441  0.6796 -0.7881
 2260Sol     HW12143   2.788   2.199   1.973  0.6081  0.1605  1.8393
 2260Sol     MW12144   2.703   2.203   2.000 -0.2474  0.6726 -0.1906
 2261Sol     OW12145   1.435   2.266   8.728  0.1928 -0.4752 -0.3014
 2261Sol     HW12146   1.504   2.309   8.779 -0.2263  3.0930 -2.5661
 2261Sol     HW12147   1.363   2.255   8.789  1.4572 -0.9536  1.1513
 2261Sol     MW12148   1.435   2.269   8.738 -0.2615 -0.1351  0.6105
 2262Sol     OW12149   1.553   1.272   9.752  0.0824  0.1693 -0.5426
 2262Sol     HW12150   1.541   1.211   9.826  1.9423  1.5486  0.9695
 2262Sol     HW12151   1.618   1.229   9.697 -1.2006 -0.7993 -1.3116
 2262Sol     MW12152   1.558   1.262   9.754  0.0634  0.1056 -0.2027
 2263Sol     OW12153   0.874   1.416   6.550 -0.5197 -1.1995  0.4325
 2263Sol     HW12154   0.853   1.386   6.461 -1.4192 -0.8065  0.5031
 2263Sol     HW12155   0.794   1.400   6.600 -1.1713  1.5984  0.3875
 2263Sol     MW12156   0.865   1.412   6.546 -0.4321 -0.0270 -0.1301
 2264Sol     OW12157   2.130   1.007   3.559  0.0623 -0.1768  0.4338
 2264Sol     HW12158   2.154   0.924   3.602  1.2673  0.1597  0.4088
 2264Sol     HW12159   2.098   0.981   3.473  0.0699 -0.6444  0.5696
 2264Sol     MW12160   2.129   0.997   3.555 -0.5093 -0.5742  0.2122
 2265Sol     OW12161   2.633   1.472   5.675  0.4979  0.1198 -0.1038
 2265Sol     HW12162   2.694   1.411   5.717 -0.1506 -2.1729 -2.3295
 2265Sol     HW12163   2.552   1.422   5.666 -1.6086  2.9375  2.2642
 2265Sol     MW12164   2.631   1.462   5.678 -0.8377 -0.1982  0.8470
 2266Sol     OW12165   3.196   1.350   1.892  0.0950 -0.2560  0.2358
 2266Sol     HW12166   3.125   1.400   1.931  0.3950  0.5112 -0.1813
 2266Sol     HW12167   3.274   1.379   1.940  0.6167  1.4616 -1.5965
 2266Sol     MW12168   3.197   1.357   1.900 -0.0800  0.2715  0.7627
 2267Sol     OW12169   2.572   1.702   7.849 -0.1827 -0.1862  0.4689
 2267Sol     HW12170   2.509   1.704   7.778 -1.7051 -4.0999  1.5430
 2267Sol     HW12171   2.658   1.705   7.806 -1.0689  1.5074 -1.2289
 2267Sol     MW12172   2.574   1.702   7.839 -0.1687 -0.2835  0.2428
 2268Sol     OW12173   0.426   0.078   4.059  0.4000  0.3150  0.4741
 2268Sol     HW12174   0.422   0.031   3.975 -0.5475  1.4322 -0.1333
 2268Sol     HW12175   0.519   0.080   4.081  0.5450 -1.0119  0.0359
 2268Sol     MW12176   0.434   0.074   4.053  0.2745  0.0473 -0.5138
 2269Sol     OW12177   0.119   0.823   3.041 -0.0346 -0.3222  0.7667
 2269Sol     HW12178   0.100   0.806   3.134 -0.4461  1.6532  1.0895
 2269Sol     HW12179   0.072   0.905   3.023  1.7953  0.4414 -0.6112
 2269Sol     MW12180   0.113   0.829   3.048  0.3035 -0.3751  0.1287
 2270Sol     OW12181   3.324   1.292   8.329  0.1392 -0.0870  0.3231
 2270Sol     HW12182   3.342   1.373   8.377  1.1239  0.1791 -0.4805
 2270Sol     HW12183   3.334   1.316   8.237  1.3159 -1.3152  0.1061
 2270Sol     MW12184   3.327   1.301   8.325 -0.0636 -0.1375 -0.3886
 2271Sol     OW12185   2.919   1.588   6.054  0.5860 -0.6623  0.2566
 2271Sol     HW12186   2.858   1.576   6.127 -0.4511  3.1437  0.1092
 2271Sol     HW12187   2.993   1.635   6.093 -0.2430  1.9511 -1.1911
 2271Sol     MW12188   2.920   1.592   6.064  0.6892  0.3962  0.1907
 2272Sol     OW12189   1.950   3.443   9.246 -0.1160 -0.2832  0.5160
 2272Sol     HW12190   1.890   3.448   9.320 -0.5173  2.0529  0.0709
 2272Sol     HW12191   1.930   3.359   9.204 -1.8713 -0.3079  1.3637
 2272Sol     MW12192   1.943   3.436   9.249 -0.0198 -0.0480  0.2255
 2273Sol     OW12193   2.160   0.634   3.157 -0.2670 -0.0125 -0.1055
 2273Sol     HW12194   2.101   0.705   3.134 -2.2453 -1.8992 -1.0465
 2273Sol     HW12195   2.126   0.598   3.239  0.0649 -0.5519 -0.1941
 2273Sol     MW12196   2.152   0.637   3.162 -0.2779  0.9454 -0.3134
 2274Sol     OW12197   2.847   0.695   5.081  0.6980  0.7340 -0.0874
 2274Sol     HW12198   2.799   0.633   5.136  0.5372  1.7834  0.9785
 2274Sol     HW12199   2.872   0.644   5.004  0.4437 -0.6104  0.7017
 2274Sol     MW12200   2.845   0.685   5.079  0.4362  0.4546 -0.2859
 2275Sol     OW12201   2.300   2.549   4.355  0.2670 -0.3198 -0.3566
 2275Sol     HW12202   2.240   2.577   4.287  1.6268  2.0603 -0.6380
 2275Sol     HW12203   2.385   2.544   4.312  1.2845  1.9970  1.2905
 2275Sol     MW12204   2.302   2.551   4.345 -0.0343 -0.5204 -0.4556
 2276Sol     OW12205   0.399   2.656   4.275  0.0466 -0.5585  0.0155
 2276Sol     HW12206   0.385   2.736   4.224 -2.2474 -1.1936 -0.4061
 2276Sol     HW12207   0.450   2.599   4.218  0.0357 -0.1225 -0.4341
 2276Sol     MW12208   0.402   2.658   4.266  0.5598 -0.1860 -0.6044
 2277Sol     OW12209   1.159   1.778   9.808  0.5395 -0.2913 -0.1824
 2277Sol     HW12210   1.229   1.843   9.813 -0.8087  1.1458  0.5016
 2277Sol     HW12211   1.106   1.804   9.733  0.6206 -1.2412 -0.5711
 2277Sol     MW12212   1.160   1.786   9.802 -0.3246 -0.1286  0.2192
 2278Sol     OW12213   2.929   2.577   8.947  0.2747  1.3861  0.2427
 2278Sol     HW12214   2.921   2.550   8.855  0.5063  2.2144 -0.0229
 2278Sol     HW12215   2.840   2.570   8.982  0.4842 -0.6711  0.4519
 2278Sol     MW12216   2.920   2.574   8.942  0.0821  0.3357 -0.4158
 2279Sol     OW12217   0.817   2.585   8.765  0.1363 -0.2034  0.4602
 2279Sol     HW12218   0.836   2.675   8.791  0.3313 -0.1283  0.0575
 2279Sol     HW12219   0.886   2.533   8.807  0.6891 -0.0357 -0.2218
 2279Sol     MW12220   0.825   2.588   8.771  0.1782 -0.2927 -0.2107
 2280Sol     OW12221   1.740   0.498   4.356 -0.5404  0.4547  0.1067
 2280Sol     HW12222   1.731   0.544   4.273  1.0620 -0.7227 -0.7305
 2280Sol     HW12223   1.834   0.482   4.366 -0.9843 -2.1186  0.6312
 2280Sol     MW12224   1.747   0.500   4.349  0.6048 -0.4185 -0.3806
 2281Sol     OW12225   0.843   2.613   5.570  0.3513  0.6158 -0.8729
 2281Sol     HW12226   0.918   2.628   5.628 -1.5375 -0.4202  1.9850
 2281Sol     HW12227   0.795   2.696   5.571 -0.6899  0.0236  0.6518
 2281Sol     MW12228   0.845   2.622   5.576 -0.1961  0.1128 -0.1906
 2282Sol     OW12229   2.175   2.960   6.910  0.1046 -0.3001  0.0748
 2282Sol     HW12230   2.144   2.985   6.824  0.5036 -1.2015 -0.3368
 2282Sol     HW12231   2.102   2.912   6.949  0.7480 -1.9662 -0.6945
 2282Sol     MW12232   2.166   2.958   6.906  0.6768  0.3823  0.3834
 2283Sol     OW12233   0.207   0.220   5.352  0.1272  0.4626  0.2648
 2283Sol     HW12234   0.135   0.273   5.386 -0.1766  1.7100 -2.1670
 2283Sol     HW12235   0.180   0.129   5.367 -1.8842  0.9272 -0.4328
 2283Sol     MW12236   0.198   0.216   5.356  0.1368 -0.3028  0.4800
 2284Sol     OW12237   0.647   2.012   2.226  0.1159  0.0446  0.4240
 2284Sol     HW12238   0.582   1.952   2.262  0.9646 -0.6412  0.8363
 2284Sol     HW12239   0.648   1.992   2.132 -0.1009 -0.0929  0.4509
 2284Sol     MW12240   0.641   2.005   2.220 -0.2876 -0.4488 -0.2462
 2285Sol     OW12241   1.781   0.723   2.025 -0.5228  0.4114 -0.0098
 2285Sol     HW12242   1.763   0.657   1.958 -0.7966  0.2644  0.2117
 2285Sol     HW12243   1.696   0.744   2.063 -0.3692  0.5069  0.2829
 2285Sol     MW12244   1.772   0.719   2.023  0.1994  0.5589 -0.8266
 2286Sol     OW12245   0.827   0.035   6.833  0.1954  0.6303  0.0580
 2286Sol     HW12246   0.812  -0.035   6.896 -2.8480  0.6861 -0.5190
 2286Sol     HW12247   0.895   0.089   6.873  0.9599 -1.3783  1.5547
 2286Sol     MW12248   0.832   0.034   6.843  0.0439  0.0963 -0.2660
 2287Sol     OW12249   2.122   0.100   6.272  0.3306 -0.0753 -0.0717
 2287Sol     HW12250   2.185   0.034   6.242 -0.1087  0.4258 -2.1690
 2287Sol     HW12251   2.078   0.129   6.193 -0.4244  1.7896  0.9912
 2287Sol     MW12252   2.124   0.097   6.263 -0.3241 -0.0729 -0.1437
 2288Sol     OW12253   0.689   2.764   6.551  0.5700 -0.1491 -0.6331
 2288Sol     HW12254   0.725   2.682   6.516 -0.3846 -0.3657 -1.1278
 2288Sol     HW12255   0.721   2.831   6.491  2.1376 -0.0344  0.3152
 2288Sol     MW12256   0.695   2.762   6.542  0.4033  0.3214  0.0244
 2289Sol     OW12257   2.040   3.148   3.304  0.1814  0.1409 -0.0883
 2289Sol     HW12258   1.990   3.095   3.242  1.5983  0.1942 -1.3113
 2289Sol     HW12259   2.055   3.091   3.379  0.5179 -0.7415 -0.8177
 2289Sol     MW12260   2.037   3.138   3.305 -0.7854 -0.0173 -0.0400
 2290Sol     OW12261   0.769   1.129   6.001 -0.3375 -0.0857  0.0484
 2290Sol     HW12262   0.810   1.046   6.025  0.9947  0.7088  0.6035
 2290Sol     HW12263   0.840   1.181   5.962 -0.8142  1.2947  0.9583
 2290Sol     MW12264   0.779   1.126   5.999  0.3717  0.5364 -0.3674
 2291Sol     OW12265   3.136   1.927   6.437  0.1077  0.2952  0.2132
 2291Sol     HW12266   3.085   2.005   6.461 -1.4758 -0.6554  0.0358
 2291Sol     HW12267   3.218   1.962   6.402 -0.5035  1.8732  0.2866
 2291Sol     MW12268   3.138   1.937   6.436 -0.0557  0.2983  0.0061
 2292Sol     OW12269   0.771   0.659   8.785  0.0655 -0.0517 -0.1843
 2292Sol     HW12270   0.728   0.576   8.804 -0.5829  0.7070  1.7580
 2292Sol     HW12271   0.721   0.696   8.712 -0.6479 -0.6233  0.0091
 2292Sol     MW12272   0.763   0.655   8.780 -0.0796  0.1508 -0.1986
 2293Sol     OW12273   1.844   2.863   1.569 -0.1668  0.2319  0.6378
 2293Sol     HW12274   1.820   2.944   1.614 -1.6820 -1.0248  2.1676
 2293Sol     HW12275   1.927   2.838   1.609 -0.7022 -0.0288  1.5925
 2293Sol     MW12276   1.849   2.868   1.576 -0.3519  0.0830 -0.0043
 2294Sol     OW12277   0.083   1.470   6.037  0.1622 -0.3004 -0.9229
 2294Sol     HW12278   0.026   1.546   6.027  1.3657  0.7003 -0.2977
 2294Sol     HW12279   0.163   1.494   5.989  0.2054 -1.5331 -1.4860
 2294Sol     MW12280   0.085   1.479   6.032 -0.4999  0.3146 -0.6200
 2295Sol     OW12281   2.228   2.001   7.876  0.0399  0.7995 -0.3638
 2295Sol     HW12282   2.313   2.000   7.833  0.1601  0.9613 -0.1270
 2295Sol     HW12283   2.233   2.072   7.940 -0.2560  0.7812 -0.3174
 2295Sol     MW12284   2.236   2.007   7.878 -0.1316  0.4850 -0.6102
 2296Sol     OW12285   0.395   1.718   8.202  0.1717 -0.5940 -0.0316
 2296Sol     HW12286   0.469   1.777   8.187  0.0963 -0.5946 -0.4367
 2296Sol     HW12287   0.322   1.760   8.157  0.3142 -1.4119 -1.0697
 2296Sol     MW12288   0.395   1.727   8.196 -0.1377 -0.0917 -0.7455
 2297Sol     OW12289   1.244   0.633   3.730 -0.2864  0.1370  0.3482
 2297Sol     HW12290   1.293   0.657   3.651 -0.3992  1.3399  0.6329
 2297Sol     HW12291   1.198   0.553   3.706  0.7671 -0.2670 -0.3580
 2297Sol     MW12292   1.244   0.628   3.721 -0.2557  0.4131 -0.1509
 2298Sol     OW12293   0.244   0.282   9.533  0.0580 -1.0007 -0.3862
 2298Sol     HW12294   0.181   0.258   9.601 -0.1550  1.0896  0.1918
 2298Sol     HW12295   0.199   0.348   9.481  1.7144  0.4835  0.0028
 2298Sol     MW12296   0.234   0.286   9.535 -0.1752 -0.3735 -0.6880
 2299Sol     OW12297   3.056   0.731   9.332  0.3369  0.5530  0.4315
 2299Sol     HW12298   3.076   0.732   9.426 -0.7113 -0.6158  0.6776
 2299Sol     HW12299   2.971   0.689   9.326  0.1410  1.1259 -1.0124
 2299Sol     MW12300   3.051   0.727   9.340 -0.2253 -0.2460 -0.1414
 2300Sol     OW12301   1.502   1.256   7.335  0.3138  0.1182  0.1117
 2300Sol     HW12302   1.564   1.223   7.271 -0.6092 -1.5190  0.0334
 2300Sol     HW12303   1.424   1.202   7.323 -1.1733  2.1964  0.1395
 2300Sol     MW12304   1.500   1.248   7.328  0.4241 -0.3528  0.0496
 2301Sol     OW12305   0.508   3.120   2.605  0.2726 -0.5799  0.1831
 2301Sol     HW12306   0.560   3.197   2.580  0.2865 -1.1356 -1.6379
 2301Sol     HW12307   0.573   3.057   2.636  0.2866  0.0528  1.4513
 2301Sol     MW12308   0.519   3.121   2.605 -0.2497 -0.0426 -0.2956
 2302Sol     OW12309   1.400   1.853   6.196  0.3568 -0.0968  0.2108
 2302Sol     HW12310   1.334   1.866   6.264 -0.3826  5.0524 -1.2479
 2302Sol     HW12311   1.350   1.822   6.120  0.3084 -0.3931  0.3620
 2302Sol     MW12312   1.389   1.852   6.195  0.1515 -0.1502  0.7152
 2303Sol     OW12313   2.325   1.045   9.153  0.2991 -0.1074  0.0108
 2303Sol     HW12314   2.396   1.017   9.210 -1.1499 -0.1358  1.8392
 2303Sol     HW12315   2.291   0.964   9.116 -0.0742 -0.2578  0.6873
 2303Sol     MW12316   2.328   1.035   9.155 -0.0518  1.2358  0.1480
 2304Sol     OW12317   2.591   1.290   9.555 -0.3840 -0.2660  0.0897
 2304Sol     HW12318   2.615   1.300   9.647  0.5718  1.0477 -0.2909
 2304Sol     HW12319   2.632   1.207   9.529 -0.6426 -0.6334  0.8287
 2304Sol     MW12320   2.597   1.283   9.561  0.7860  0.7467  0.7310
 2305Sol     OW12321   2.434   1.066   3.052 -0.6097 -0.2904 -0.0949
 2305Sol     HW12322   2.479   1.128   2.994 -1.3502  0.6232  0.2912
 2305Sol     HW12323   2.446   1.103   3.140 -0.7254 -0.9119  0.1838
 2305Sol     MW12324   2.439   1.075   3.055  0.1325  0.5755 -0.2376
 2306Sol     OW12325   0.674   0.190   8.132  0.2110  0.2489 -0.1848
 2306Sol     HW12326   0.744   0.169   8.070  1.3900 -2.0636  1.8243
 2306Sol     HW12327   0.630   0.107   8.147 -0.6578  0.9626  1.3335
 2306Sol     MW12328   0.677   0.181   8.128  0.0208 -0.0313  0.3768
 2307Sol     OW12329   1.044   3.444   4.145 -0.8721 -0.3494 -0.3650
 2307Sol     HW12330   1.020   3.466   4.056  1.1774  0.2405 -0.7943
 2307Sol     HW12331   1.070   3.527   4.185 -1.2717 -0.6861  0.6246
 2307Sol     MW12332   1.045   3.453   4.141  0.0304  0.5354  0.2642
 2308Sol     OW12333   3.163   0.525   5.583 -0.4727  0.5156  0.3738
 2308Sol     HW12334   3.132   0.527   5.673 -0.4755  0.6225  0.3714
 2308Sol     HW12335   3.138   0.438   5.550  0.8563 -0.0874  0.9315
 2308Sol     MW12336   3.158   0.517   5.588  0.0746 -0.2758 -0.3402
 2309Sol     OW12337   0.779   1.130   8.049 -0.0879  0.5870  0.0547
 2309Sol     HW12338   0.771   1.132   8.145 -0.9314 -0.6405  0.0196
 2309Sol     HW12339   0.872   1.143   8.033  0.0869  0.6615  1.0493
 2309Sol     MW12340   0.786   1.132   8.057 -0.1005  0.4973 -0.1996
 2310Sol     OW12341   0.697   1.305   2.116  0.7382 -0.4173  0.0676
 2310Sol     HW12342   0.762   1.332   2.181  0.3782 -0.6207  0.5123
 2310Sol     HW12343   0.735   1.227   2.074  0.2920 -1.1826  1.0835
 2310Sol     MW12344   0.706   1.301   2.118 -0.2141 -0.7128  0.0594
 2311Sol     OW12345   3.086   1.369   3.688  0.3945 -0.2940  0.2396
 2311Sol     HW12346   3.001   1.413   3.689  0.2675 -0.5467  0.4992
 2311Sol     HW12347   3.149   1.441   3.681  0.1501 -0.1230 -0.2052
 2311Sol     MW12348   3.084   1.380   3.688  0.2799  0.2717  0.1481
 2312Sol     OW12349   2.480   2.697   4.149 -0.2548  0.0124 -0.2861
 2312Sol     HW12350   2.508   2.700   4.057  2.9438  1.1230  0.6734
 2312Sol     HW12351   2.550   2.741   4.197 -3.0107  1.5912  2.4498
 2312Sol     MW12352   2.489   2.701   4.145  0.2949  0.3435 -0.1737
 2313Sol     OW12353   0.484   0.657   5.553  0.3092 -0.3981  0.3857
 2313Sol     HW12354   0.533   0.634   5.473  0.6453 -0.7071  0.6785
 2313Sol     HW12355   0.532   0.730   5.591  0.3487 -0.4769  0.4891
 2313Sol     MW12356   0.493   0.661   5.549 -0.0504  0.0397  0.4606
 2314Sol     OW12357   1.230   2.207   3.082  0.4054  0.1485  0.2369
 2314Sol     HW12358   1.242   2.180   3.173  2.7161  0.8612  0.1615
 2314Sol     HW12359   1.164   2.276   3.086  1.6634  1.2743  1.5536
 2314Sol     MW12360   1.225   2.210   3.090  0.1939 -0.0658  0.6055
 2315Sol     OW12361   0.150   3.320   8.383 -0.1996  0.6227  0.0239
 2315Sol     HW12362   0.186   3.397   8.339  2.1685 -0.4401  0.0218
 2315Sol     HW12363   0.215   3.251   8.367 -2.3314 -1.4177 -0.0741
 2315Sol     MW12364   0.159   3.321   8.377 -0.2150  0.6110  0.1581
 2316Sol     OW12365   1.179   0.532   2.709 -0.2873 -0.4071 -0.3407
 2316Sol     HW12366   1.212   0.622   2.707 -1.0275 -0.1441 -1.0482
 2316Sol     HW12367   1.126   0.528   2.789 -0.9143  0.0348 -0.7247
 2316Sol     MW12368   1.177   0.540   2.716  0.6080  0.0301  0.1559
 2317Sol     OW12369   3.036   2.489   6.752  0.5384 -0.1409  0.2311
 2317Sol     HW12370   3.095   2.523   6.820  1.8174 -2.0006  0.0766
 2317Sol     HW12371   3.007   2.567   6.705  0.3992  1.1009  2.2903
 2317Sol     MW12372   3.039   2.499   6.754  0.0248  0.1873  0.6671
 2318Sol     OW12373   2.685   0.476   8.627  0.3271 -0.8081  0.4307
 2318Sol     HW12374   2.716   0.450   8.540  3.5873  1.0852  0.9536
 2318Sol     HW12375   2.726   0.413   8.687 -1.0563 -1.4520  0.7237
 2318Sol     MW12376   2.691   0.468   8.625  0.1128 -0.0118 -0.0155
 2319Sol     OW12377   0.657   1.038   6.561 -0.2421  0.0022  0.1580
 2319Sol     HW12378   0.723   1.010   6.498  0.2415  3.0846 -0.7977
 2319Sol     HW12379   0.581   1.061   6.508  0.0196  2.2133  0.6773
 2319Sol     MW12380   0.656   1.038   6.551  0.2374 -0.1470 -0.3564
 2320Sol     OW12381   0.477   0.628   7.338  0.2008  0.2636  0.4600
 2320Sol     HW12382   0.489   0.681   7.260 -0.2402  0.1617  0.3199
 2320Sol     HW12383   0.508   0.541   7.313  2.5434  0.8568  1.2280
 2320Sol     MW12384   0.481   0.625   7.329  0.3731  0.0640 -0.0882
 2321Sol     OW12385   2.414   2.724   3.517 -0.1104 -0.1372  0.2308
 2321Sol     HW12386   2.481   2.784   3.549 -0.9707  1.3938 -0.7498
 2321Sol     HW12387   2.393   2.668   3.592 -0.9727  2.3507  1.9087
 2321Sol     MW12388   2.418   2.725   3.527  0.0198 -0.0526 -0.5377
 2322Sol     OW12389   2.460   0.988   6.755  0.0444 -0.3225 -0.1598
 2322Sol     HW12390   2.471   0.982   6.850 -0.7360 -1.3533 -0.1341
 2322Sol     HW12391   2.514   1.062   6.730  2.0865 -1.4678  0.7840
 2322Sol     MW12392   2.466   0.994   6.761  0.0061 -0.4068  0.1385
 2323Sol     OW12393   2.269   0.746   7.555 -0.0631 -0.4460 -0.4445
 2323Sol     HW12394   2.220   0.719   7.477  1.2379 -1.3083 -0.9727
 2323Sol     HW12395   2.351   0.781   7.522  0.0031  0.3180  0.4830
 2323Sol     MW12396   2.272   0.747   7.545  0.5214  0.3063 -0.4367
 2324Sol     OW12397   0.065   1.121   3.922  0.2525  0.6518  0.1484
 2324Sol     HW12398   0.076   1.053   3.988  1.3454  0.5247 -0.1535
 2324Sol     HW12399   0.047   1.200   3.972 -1.8601 -0.0155  0.4666
 2324Sol     MW12400   0.065   1.122   3.932 -0.4318  0.0104  0.1419
 2325Sol     OW12401   2.999   0.551  10.067 -0.5144 -1.0338  0.2812
 2325Sol     HW12402   3.013   0.602   9.988  0.3617  0.3791  1.3228
 2325Sol     HW12403   3.064   0.480  10.061  1.6994  0.8485  1.1856
 2325Sol     MW12404   3.006   0.549  10.060  0.0310 -0.1529  0.0665
 2326Sol     OW12405   0.329   1.151   9.572  0.0195  0.2359  0.1140
 2326Sol     HW12406   0.294   1.160   9.661  1.7879  2.3235  0.6496
 2326Sol     HW12407   0.410   1.102   9.584  0.8470  1.5103 -0.1724
 2326Sol     MW12408   0.333   1.148   9.581  0.6983  0.5914  0.2042
 2327Sol     OW12409   1.411   0.935   9.607 -0.1083 -0.2202 -0.1453
 2327Sol     HW12410   1.373   1.005   9.660  1.8761 -0.0867  1.1983
 2327Sol     HW12411   1.395   0.855   9.658  1.7089 -0.1066  0.6566
 2327Sol     MW12412   1.406   0.934   9.617  0.2287 -0.1287  0.2622
 2328Sol     OW12413   2.428   2.206   6.701 -0.0867  0.1506 -0.1917
 2328Sol     HW12414   2.431   2.300   6.720  1.0282  0.3453 -1.2359
 2328Sol     HW12415   2.520   2.181   6.690 -0.2668 -1.3759  1.4847
 2328Sol     MW12416   2.437   2.212   6.702  0.1010  0.0884 -0.5290
 2329Sol     OW12417   2.398   1.569   4.107 -0.3743 -1.3545  0.2753
 2329Sol     HW12418   2.468   1.614   4.155 -1.1111 -1.4296  1.4571
 2329Sol     HW12419   2.320   1.621   4.125 -0.5947 -1.1937 -1.1538
 2329Sol     MW12420   2.397   1.577   4.113  0.2787  0.1502  0.6847
 2330Sol     OW12421   1.899   1.015   4.977 -0.2412 -0.2136  0.1095
 2330Sol     HW12422   1.883   0.922   4.960  0.0370 -0.2306 -0.0564
 2330Sol     HW12423   1.980   1.017   5.026  0.0366 -0.0236 -0.3546
 2330Sol     MW12424   1.905   1.007   4.980 -0.0747  0.4550  0.2575
 2331Sol     OW12425   2.581   0.155   6.636  0.8948 -0.1912  0.4632
 2331Sol     HW12426   2.547   0.181   6.550  1.2877  1.2118  0.7218
 2331Sol     HW12427   2.529   0.078   6.660 -0.9811  0.9401  0.1361
 2331Sol     MW12428   2.573   0.150   6.630  0.2482  0.5587 -0.3828
 2332Sol     OW12429   2.607   0.813   8.437 -0.0172  0.5094  0.5353
 2332Sol     HW12430   2.650   0.890   8.474  0.4100 -0.1054  1.3467
 2332Sol     HW12431   2.671   0.776   8.376  0.0363  0.4177  0.6469
 2332Sol     MW12432   2.617   0.816   8.435  0.6567 -0.2345  0.0399
 2333Sol     OW12433   2.259   0.547   7.918 -0.1700  0.0147 -0.4505
 2333Sol     HW12434   2.289   0.577   8.004 -1.6365 -1.1881  0.4982
 2333Sol     HW12435   2.175   0.590   7.906 -0.1358 -0.1042 -1.1239
 2333Sol     MW12436   2.254   0.554   7.924  0.1248 -0.2230  0.1258
 2334Sol     OW12437   3.226   2.390   6.540  0.2641  0.4126  0.6270
 2334Sol     HW12438   3.299   2.361   6.594 -0.1315  1.8027  1.9428
 2334Sol     HW12439   3.165   2.431   6.602 -0.5973  1.2534 -0.7540
 2334Sol     MW12440   3.227   2.391   6.550 -0.2538 -0.0350 -0.0307
 2335Sol     OW12441   2.642   2.206   3.044  0.6006 -0.1628  0.3577
 2335Sol     HW12442   2.601   2.241   2.966  0.9876  1.7675  1.0016
 2335Sol     HW12443   2.613   2.115   3.048 -1.3516  0.3912 -0.7163
 2335Sol     MW12444   2.636   2.201   3.038  0.7741  0.0134 -0.0215
 2336Sol     OW12445   1.857   3.103   8.793 -0.0213  0.0562  0.3414
 2336Sol     HW12446   1.945   3.094   8.829 -0.4454 -1.1708  1.0970
 2336Sol     HW12447   1.825   3.013   8.783 -2.5848  0.5101  3.5776
 2336Sol     MW12448   1.862   3.094   8.795  0.0178  0.4794  0.5312
 2337Sol     OW12449   0.003   2.945   2.898  0.6277 -0.2119 -0.4685
 2337Sol     HW12450  -0.089   2.964   2.881  0.1173 -0.4788  1.8366
 2337Sol     HW12451   0.036   2.907   2.816 -2.1544 -3.1186 -0.3237
 2337Sol     MW12452  -0.002   2.943   2.889  0.2338  0.5061 -0.2391
 2338Sol     OW12453   0.090   2.703   6.188 -0.2305  0.4231  0.3665
 2338Sol     HW12454   0.167   2.702   6.246 -0.8676 -0.8103  1.2334
 2338Sol     HW12455   0.031   2.638   6.227 -0.7456 -0.3198 -1.5877
 2338Sol     MW12456   0.092   2.697   6.197  0.0829  0.1701  0.7688
 2339Sol     OW12457   2.376   3.332   8.219  0.0479 -0.5415 -0.2779
 2339Sol     HW12458   2.326   3.413   8.228 -0.9148 -1.0845 -0.6569
 2339Sol     HW12459   2.448   3.354   8.159 -1.1798 -0.4037 -1.7240
 2339Sol     MW12460   2.378   3.341   8.214  0.1649  0.4667 -0.0148
 2340Sol     OW12461   1.109   2.799   9.434  0.0930  0.6549 -0.2501
 2340Sol     HW12462   1.157   2.867   9.387 -0.7736  1.6652  0.2908
 2340Sol     HW12463   1.023   2.838   9.453 -0.5851 -0.7535 -0.3193
 2340Sol     MW12464   1.105   2.809   9.432  0.1353 -0.0785 -0.4746
 2341Sol     OW12465   2.317   2.547   3.710  0.5514 -0.4700  0.5710
 2341Sol     HW12466   2.356   2.518   3.793 -1.4027 -2.6179  0.7811
 2341Sol     HW12467   2.224   2.552   3.728  0.1311 -0.7063 -1.4216
 2341Sol     MW12468   2.313   2.545   3.719  0.0776  0.3719  0.1778
 2342Sol     OW12469   2.906   2.753   4.859  0.2040  0.0599  0.1788
 2342Sol     HW12470   2.899   2.696   4.935 -2.0163 -0.0769 -0.1026
 2342Sol     HW12471   3.001   2.765   4.847  0.7089 -2.9127  0.7050
 2342Sol     MW12472   2.914   2.749   4.864 -0.0571 -0.1608 -0.4086
 2343Sol     OW12473   1.567   2.566   6.281 -0.0163 -0.2930 -0.4794
 2343Sol     HW12474   1.608   2.598   6.361  0.5500  0.7317 -1.1643
 2343Sol     HW12475   1.477   2.545   6.307  0.4986 -1.0678  0.6733
 2343Sol     MW12476   1.562   2.567   6.290  0.3679  0.5951  0.5079
 2344Sol     OW12477   1.054   2.890   7.694  0.2621 -0.1239  0.1702
 2344Sol     HW12478   1.031   2.970   7.647  1.8463  0.1024 -0.2378
 2344Sol     HW12479   0.971   2.860   7.733 -0.4348  1.4248 -0.0985
 2344Sol     MW12480   1.044   2.894   7.694  0.3974 -0.3874  0.5378
 2345Sol     OW12481   2.561   2.607   3.315 -0.5429 -0.6655 -0.2667
 2345Sol     HW12482   2.522   2.661   3.384 -0.3852  1.6804 -1.9589
 2345Sol     HW12483   2.585   2.526   3.359  0.2045  1.0455  2.5933
 2345Sol     MW12484   2.559   2.605   3.325  0.1373  1.0284 -0.8105
 2346Sol     OW12485   3.115   2.360   8.120 -0.2403 -0.1100  0.3367
 2346Sol     HW12486   3.175   2.366   8.195 -0.5706 -1.4441  0.7259
 2346Sol     HW12487   3.171   2.347   8.044 -0.0090 -0.7948  0.6258
 2346Sol     MW12488   3.125   2.360   8.120 -0.0760 -0.0636 -1.1814
 2347Sol     OW12489   1.447   1.152   7.995  0.2646  0.1112 -0.0802
 2347Sol     HW12490   1.542   1.139   7.992  0.1060 -0.8276 -1.5535
 2347Sol     HW12491   1.417   1.128   7.907 -0.9930  3.1291 -0.5530
 2347Sol     MW12492   1.453   1.149   7.987 -0.4528 -0.2149 -0.0073
 2348Sol     OW12493   1.862   1.986   7.472 -0.2319  0.5838 -0.2420
 2348Sol     HW12494   1.771   1.956   7.477 -0.2689  0.8947  1.3197
 2348Sol     HW12495   1.856   2.073   7.431 -0.6327  0.5448 -0.2710
 2348Sol     MW12496   1.853   1.991   7.469 -0.2303  0.4198  0.1419
 2349Sol     OW12497   1.753   0.174   3.740  0.0797 -0.5371  0.1120
 2349Sol     HW12498   1.726   0.231   3.813  0.6201 -1.5397  1.1131
 2349Sol     HW12499   1.811   0.229   3.687  0.3144 -0.0282  0.8802
 2349Sol     MW12500   1.756   0.184   3.742 -0.3080  0.1823  0.1798
 2350Sol     OW12501   2.722   0.199   2.262 -0.2660  0.0340 -0.8304
 2350Sol     HW12502   2.664   0.135   2.222 -1.0615  0.6487 -0.6775
 2350Sol     HW12503   2.675   0.229   2.340  0.8669 -0.4852  0.0747
 2350Sol     MW12504   2.713   0.196   2.265  0.0068  0.0827 -0.6018
 2351Sol     OW12505   2.039   1.405   5.082 -0.3405  0.6439  0.3369
 2351Sol     HW12506   2.083   1.436   5.003  0.1303  1.6519  0.9940
 2351Sol     HW12507   1.963   1.357   5.049  1.8829 -2.1780 -0.8319
 2351Sol     MW12508   2.036   1.404   5.072 -0.2361  0.1461  0.1891
 2352Sol     OW12509   2.824   0.563   9.258 -0.1498  0.1288  0.2172
 2352Sol     HW12510   2.838   0.501   9.330  0.9745 -1.2705 -1.1670
 2352Sol     HW12511   2.802   0.508   9.183  2.7780  1.2148 -1.5175
 2352Sol     MW12512   2.823   0.553   9.258  0.1301  0.9856 -0.0659
 2353Sol     OW12513   1.271   2.163   7.241  0.1198  0.1957  0.2654
 2353Sol     HW12514   1.277   2.171   7.337 -0.7174 -3.3369  0.6755
 2353Sol     HW12515   1.362   2.161   7.212  0.4431 -1.7880  1.3255
 2353Sol     MW12516   1.280   2.163   7.247 -0.0683  0.2687  0.3190
 2354Sol     OW12517   0.928   1.377   3.957 -0.0394  0.0549  0.3851
 2354Sol     HW12518   0.921   1.426   4.039 -0.6423  0.0359  0.3530
 2354Sol     HW12519   0.996   1.312   3.974 -0.9060 -0.6443  1.2419
 2354Sol     MW12520   0.933   1.376   3.966 -0.1477 -0.1464  0.1845
 2355Sol     OW12521   1.797   2.637   7.927 -0.2536  0.4699 -0.0406
 2355Sol     HW12522   1.713   2.672   7.954  0.0934  1.5419 -0.3115
 2355Sol     HW12523   1.832   2.594   8.005  0.4354  2.9358  1.0679
 2355Sol     MW12524   1.793   2.637   7.936 -0.2742  0.1659  0.2673
 2356Sol     OW12525   1.767   2.966   6.908  0.0321 -0.1029 -0.2933
 2356Sol     HW12526   1.814   3.044   6.935 -2.5007  1.6047 -0.6846
 2356Sol     HW12527   1.817   2.932   6.834  1.2612  1.0267  0.0191
 2356Sol     MW12528   1.776   2.970   6.903 -0.4477 -0.1497  0.0500
 2357Sol     OW12529   1.821   2.479   6.623 -0.1531 -0.1899  0.1385
 2357Sol     HW12530   1.910   2.512   6.607 -0.5499  0.8824  0.1140
 2357Sol     HW12531   1.764   2.539   6.576 -0.8825 -1.0768 -0.1322
 2357Sol     MW12532   1.824   2.487   6.617 -0.3973  0.2649  0.4439
 2358Sol     OW12533   2.110   0.963   2.340  0.1871 -0.2122  0.5640
 2358Sol     HW12534   2.050   0.927   2.276 -1.7652 -0.1366  2.2919
 2358Sol     HW12535   2.165   1.023   2.290 -0.2302 -1.3420 -1.3042
 2358Sol     MW12536   2.110   0.965   2.330 -0.5417  0.2802  0.3354
 2359Sol     OW12537   1.412   1.835   4.719 -0.0063 -0.0148  0.5932
 2359Sol     HW12538   1.357   1.758   4.726  0.2059 -0.4730 -2.1184
 2359Sol     HW12539   1.355   1.902   4.681  0.7086  0.1454 -0.2086
 2359Sol     MW12540   1.402   1.834   4.716 -0.3720  0.2257  0.2494
 2360Sol     OW12541   2.498   0.540   9.023  0.0154 -0.4009 -0.5036
 2360Sol     HW12542   2.581   0.492   9.024  1.3188  1.7828  0.1362
 2360Sol     HW12543   2.435   0.477   8.989  2.2996 -1.5160 -2.9157
 2360Sol     MW12544   2.500   0.530   9.020  0.0982  0.2490  0.0100
 2361Sol     OW12545   1.660   1.257   6.257  0.1246  0.5203  0.2117
 2361Sol     HW12546   1.694   1.319   6.192  1.2827 -0.6942 -0.3484
 2361Sol     HW12547   1.727   1.190   6.265 -1.3029 -0.9125  0.5062
 2361Sol     MW12548   1.669   1.257   6.252  0.5091 -0.2581 -0.5711
 2362Sol     OW12549   1.073   2.273   8.482  0.6446  0.0250  0.5660
 2362Sol     HW12550   1.033   2.188   8.464  3.1221 -0.6358 -2.2244
 2362Sol     HW12551   1.043   2.329   8.410  1.3648  0.6751  0.7613
 2362Sol     MW12552   1.066   2.271   8.474  0.1259 -0.2453 -0.0919
 2363Sol     OW12553   2.806   2.588   9.759  0.0372 -0.4902 -0.0647
 2363Sol     HW12554   2.712   2.578   9.744  0.3082 -0.2502 -2.0136
 2363Sol     HW12555   2.812   2.659   9.823 -1.1658 -1.6206  1.3512
 2363Sol     MW12556   2.798   2.594   9.763 -0.6086 -0.3280 -0.6050
 2364Sol     OW12557   2.131   0.996   5.103 -0.2445 -0.4555  0.0727
 2364Sol     HW12558   2.178   1.072   5.137  0.7975 -0.3465 -1.5759
 2364Sol     HW12559   2.179   0.921   5.140  0.5784 -0.3321 -0.7148
 2364Sol     MW12560   2.140   0.996   5.110  0.2859 -0.3013  1.0110
 2365Sol     OW12561   1.401   0.391   8.306 -0.2175  0.0867  0.4530
 2365Sol     HW12562   1.338   0.371   8.375  1.3393 -0.7258  1.6890
 2365Sol     HW12563   1.363   0.465   8.259 -2.3487 -0.7525  0.7923
 2365Sol     MW12564   1.392   0.396   8.308  0.0029  0.3440  0.1265
 2366Sol     OW12565   0.456   0.644   4.426  0.2491 -0.0108 -0.4226
 2366Sol     HW12566   0.427   0.633   4.517  0.1675 -0.5657 -0.5186
 2366Sol     HW12567   0.383   0.612   4.373 -0.1845  1.3958 -0.7076
 2366Sol     MW12568   0.447   0.640   4.429 -0.8679 -0.5366  0.1143
 2367Sol     OW12569   0.297   0.421   3.376 -0.2242  0.0765  0.3572
 2367Sol     HW12570   0.228   0.487   3.369 -1.5652 -1.1615  1.6549
 2367Sol     HW12571   0.288   0.385   3.464  0.9070 -1.3880 -0.0966
 2367Sol     MW12572   0.290   0.424   3.383  0.6452  0.1387 -0.0495
 2368Sol     OW12573   3.070   2.931   1.813  0.3579  0.3351  0.0059
 2368Sol     HW12574   3.128   2.990   1.861  0.2243 -0.2778  0.9411
 2368Sol     HW12575   2.984   2.945   1.853 -0.1151  1.1279 -1.2707
 2368Sol     MW12576   3.068   2.937   1.821  0.0879 -0.4910  0.2325
 2369Sol     OW12577   1.741   1.692   5.013 -0.0124  0.7820  0.2082
 2369Sol     HW12578   1.811   1.699   5.078  0.3966 -1.5070  0.0712
 2369Sol     HW12579   1.777   1.734   4.935  1.7708 -1.4539 -0.2509
 2369Sol     MW12580   1.751   1.696   5.012 -0.1164  0.2960  0.5157
 2370Sol     OW12581   1.319   2.377   8.482 -0.0990 -0.0845  0.3279
 2370Sol     HW12582   1.357   2.353   8.567  1.6854 -2.0338 -0.9407
 2370Sol     HW12583   1.237   2.328   8.478 -0.4319  0.3910  1.1039
 2370Sol     MW12584   1.315   2.370   8.490 -0.3360 -0.1513 -0.2138
 2371Sol     OW12585   2.119   1.291   8.179 -0.0710  0.7406  0.0529
 2371Sol     HW12586   2.135   1.332   8.094  1.7916 -0.7239 -0.3314
 2371Sol     HW12587   2.069   1.212   8.159 -0.3308  0.8110  0.4141
 2371Sol     MW12588   2.116   1.288   8.170 -0.1222 -0.8799  0.2322
 2372Sol     OW12589   2.661   2.679   7.861 -0.2433  0.1641 -0.5093
 2372Sol     HW12590   2.652   2.594   7.904 -0.5579 -1.2736 -3.2853
 2372Sol     HW12591   2.575   2.720   7.870 -1.6872 -2.0002 -3.4524
 2372Sol     MW12592   2.653   2.675   7.865 -0.5000  0.6562 -0.0430
 2373Sol     OW12593   0.283   1.114   8.145 -0.5118 -0.5802 -0.2760
 2373Sol     HW12594   0.333   1.040   8.109 -0.6814 -0.1056 -1.5121
 2373Sol     HW12595   0.343   1.157   8.205  0.1344 -0.7558 -0.7935
 2373Sol     MW12596   0.293   1.111   8.147  0.0805  0.7969  0.1219
 2374Sol     OW12597   3.216   2.577   8.532  0.0287  0.4637  0.6400
 2374Sol     HW12598   3.235   2.657   8.581 -0.8990  1.1899 -0.1635
 2374Sol     HW12599   3.128   2.551   8.560  0.2085 -0.1183  0.6827
 2374Sol     MW12600   3.210   2.582   8.538 -0.2329 -0.1378  0.4052
 2375Sol     OW12601   1.936   2.076   1.878  0.2616  0.2001 -0.5861
 2375Sol     HW12602   1.903   2.165   1.872  1.7999  0.7027 -1.7668
 2375Sol     HW12603   1.908   2.046   1.965 -1.0262  1.4959 -0.5337
 2375Sol     MW12604   1.930   2.081   1.886 -0.4607 -0.0159 -0.1585
 2376Sol     OW12605   2.768   1.763   5.908 -0.0209  0.7139 -0.4136
 2376Sol     HW12606   2.807   1.703   5.971  0.1479  1.6443  0.3616
 2376Sol     HW12607   2.808   1.739   5.824  1.5156  1.0630  0.2214
 2376Sol     MW12608   2.775   1.755   5.906  0.4151 -0.6522 -0.4114
 2377Sol     OW12609   2.729   2.915   3.908 -0.4580 -0.1070  0.1492
 2377Sol     HW12610   2.779   2.888   3.985  0.6105 -0.4127 -0.6317
 2377Sol     HW12611   2.792   2.909   3.836 -1.9823 -1.8287 -1.0811
 2377Sol     MW12612   2.739   2.912   3.908  0.2838  0.8933 -0.4858
 2378Sol     OW12613   0.033   2.648   4.174  0.1656 -0.0032 -0.8622
 2378Sol     HW12614   0.013   2.658   4.267 -0.4252 -2.8848 -0.6360
 2378Sol     HW12615   0.064   2.734   4.147 -2.8882  1.8451  1.1906
 2378Sol     MW12616   0.034   2.657   4.180  0.0706  0.3723 -0.4009
 2379Sol     OW12617   1.026   2.134   4.508  0.4636  0.2199  0.5088
 2379Sol     HW12618   1.043   2.184   4.588 -1.6070 -1.0651  1.8271
 2379Sol     HW12619   0.933   2.111   4.514  0.2464  0.1840 -2.3502
 2379Sol     MW12620   1.019   2.136   4.516 -0.1935  0.5235 -0.0419
 2380Sol     OW12621   0.811   2.385   2.046 -0.1169 -0.4733  0.2135
 2380Sol     HW12622   0.892   2.399   2.095  0.6989 -0.0785 -1.2240
 2380Sol     HW12623   0.833   2.410   1.956 -2.4166  1.5712  0.1961
 2380Sol     MW12624   0.821   2.388   2.042 -0.1761  0.6262 -1.2015
 2381Sol     OW12625   0.527   1.571   2.363  0.1560 -0.0336 -0.1285
 2381Sol     HW12626   0.447   1.520   2.347 -0.1153 -0.0097  1.0742
 2381Sol     HW12627   0.535   1.574   2.458  0.2371  2.0578 -0.1631
 2381Sol     MW12628   0.520   1.567   2.370 -0.3057  0.0104 -0.0910
 2382Sol     OW12629   2.826   1.541   2.605 -0.2583  0.2615 -0.2768
 2382Sol     HW12630   2.812   1.512   2.695  0.5571  0.9090  0.0599
 2382Sol     HW12631   2.805   1.634   2.605 -0.2126  0.2768 -0.7498
 2382Sol     MW12632   2.823   1.546   2.613  1.0226  0.0402 -0.0447
 2383Sol     OW12633   2.557   2.477   9.681 -0.2316 -1.2972 -0.1709
 2383Sol     HW12634   2.616   2.423   9.628 -0.2274 -0.1823 -1.3293
 2383Sol     HW12635   2.527   2.419   9.751  1.4803 -2.1525 -0.1333
 2383Sol     MW12636   2.559   2.467   9.682  0.0821 -0.3165  0.2599
 2384Sol     OW12637   1.123   2.637   4.328 -0.0450  0.2265  0.2140
 2384Sol     HW12638   1.158   2.628   4.416  0.2529  1.0892  0.1854
 2384Sol     HW12639   1.191   2.601   4.271  0.4403  1.1426  0.2180
 2384Sol     MW12640   1.132   2.633   4.331  0.2437  0.1464 -0.8735
 2385Sol     OW12641   2.120   0.653   9.287 -0.2097 -0.0219 -0.2476
 2385Sol     HW12642   2.082   0.736   9.317 -1.1076 -0.1825 -0.8990
 2385Sol     HW12643   2.045   0.603   9.256  0.4338 -0.7409 -0.6448
 2385Sol     MW12644   2.110   0.656   9.287  0.2305  0.1967 -0.4601
 2386Sol     OW12645   1.590   0.036   6.917 -0.2017 -0.1257  0.1876
 2386Sol     HW12646   1.668   0.001   6.874 -0.5506  0.1442 -0.6786
 2386Sol     HW12647   1.525   0.042   6.846 -0.5191  1.1244  0.5889
 2386Sol     MW12648   1.591   0.033   6.907 -0.2403  0.2348  0.0947
 2387Sol     OW12649   2.397   1.390   9.387  0.1439 -0.2878 -0.3393
 2387Sol     HW12650   2.471   1.364   9.441  0.8858  1.2673 -0.5623
 2387Sol     HW12651   2.434   1.402   9.300 -0.1824  1.3228 -0.2781
 2387Sol     MW12652   2.407   1.389   9.384  0.5801 -0.0873  0.4168
 2388Sol     OW12653   3.136   1.818   4.281  0.7032 -0.2809 -0.4740
 2388Sol     HW12654   3.095   1.732   4.268 -1.4393  0.7353 -0.8107
 2388Sol     HW12655   3.173   1.839   4.195  1.5662 -1.0263 -0.2898
 2388Sol     MW12656   3.135   1.812   4.272  0.4714  0.0200 -0.6030
 2389Sol     OW12657   3.305   2.349   9.342  0.7952  0.3680 -0.4194
 2389Sol     HW12658   3.296   2.282   9.410  1.5588  0.5954 -0.0993
 2389Sol     HW12659   3.223   2.343   9.293  0.2585  0.1658  0.4839
 2389Sol     MW12660   3.296   2.342   9.344 -0.3600 -0.0684 -0.0736
 2390Sol     OW12661   1.900   0.732   5.448  0.2937  0.0935 -0.3300
 2390Sol     HW12662   1.870   0.645   5.472  0.2227  0.2852  0.2922
 2390Sol     HW12663   1.925   0.772   5.531 -1.7905  1.4603 -0.3190
 2390Sol     MW12664   1.900   0.728   5.458 -0.1911  0.3252 -0.3469
 2391Sol     OW12665   0.832   2.810   7.016  0.0939 -0.0855 -0.4754
 2391Sol     HW12666   0.807   2.749   6.946  1.5634 -1.0578 -0.1624
 2391Sol     HW12667   0.820   2.760   7.097 -1.0780  0.8620 -0.0454
 2391Sol     MW12668   0.828   2.800   7.017 -0.0601 -0.8603  0.0916
 2392Sol     OW12669   0.347   2.724   4.717  0.6714  0.2266 -0.4862
 2392Sol     HW12670   0.374   2.743   4.627 -1.6875  0.0656 -1.2467
 2392Sol     HW12671   0.325   2.631   4.717 -0.7621  0.5536 -0.1151
 2392Sol     MW12672   0.347   2.717   4.709 -0.1616 -0.2844 -0.0782
 2393Sol     OW12673   2.835   0.067   9.635  0.6206 -0.3719 -0.3723
 2393Sol     HW12674   2.760   0.024   9.593  0.6799  0.3138 -1.1866
 2393Sol     HW12675   2.801   0.153   9.661  0.8580 -0.4265  0.1195
 2393Sol     MW12676   2.825   0.071   9.633 -0.2673  0.1776 -0.0000
 2394Sol     OW12677   1.152   3.332   6.871 -0.3723 -0.0676 -0.2255
 2394Sol     HW12678   1.091   3.385   6.922  0.6965  0.5012  0.4751
 2394Sol     HW12679   1.096   3.277   6.816 -1.5469 -0.8501  1.7215
 2394Sol     MW12680   1.141   3.332   6.871  0.1100  0.0423  0.5816
 2395Sol     OW12681   0.895   1.539   8.753 -0.4387 -0.5721  0.0618
 2395Sol     HW12682   0.921   1.468   8.811 -3.2276 -0.4986  1.4887
 2395Sol     HW12683   0.818   1.506   8.707 -1.8012  1.4899  0.7648
 2395Sol     MW12684   0.890   1.530   8.754  0.0282  0.5139 -0.1757
 2396Sol     OW12685   0.496   0.148   4.933 -0.3185  0.3479  0.1515
 2396Sol     HW12686   0.475   0.223   4.878  1.1243  1.2604  0.8291
 2396Sol     HW12687   0.582   0.168   4.970 -0.7683 -0.7763  1.8434
 2396Sol     MW12688   0.502   0.156   4.931 -0.1282  0.1730  0.1910
 2397Sol     OW12689   1.407   1.939   9.839  0.0537  0.4017  0.3842
 2397Sol     HW12690   1.452   1.934   9.755 -1.5505  1.1742 -0.5485
 2397Sol     HW12691   1.466   1.897   9.901  1.1038 -0.4845 -1.1925
 2397Sol     MW12692   1.416   1.935   9.837 -0.3993  0.3575  0.2390
 2398Sol     OW12693   1.131   1.905   4.267  0.2045 -0.4449 -0.0512
 2398Sol     HW12694   1.137   1.854   4.186 -1.8311 -2.2926  0.9047
 2398Sol     HW12695   1.039   1.931   4.273  0.9409  2.2961  0.1586
 2398Sol     MW12696   1.124   1.903   4.261  0.1123 -0.5654  0.4777
 2399Sol     OW12697   1.059   1.960   3.512  0.0438  0.5165 -0.2452
 2399Sol     HW12698   1.153   1.944   3.526  0.4671  0.7334 -2.6185
 2399Sol     HW12699   1.016   1.900   3.572  1.7185 -1.1967 -0.6848
 2399Sol     MW12700   1.064   1.953   3.518 -0.2902  0.0093 -0.5628
 2400Sol     OW12701   0.252   2.647   7.339  0.3255 -0.4584  0.7178
 2400Sol     HW12702   0.212   2.631   7.425 -0.3024  2.6859  1.0770
 2400Sol     HW12703   0.326   2.706   7.358  1.4263 -1.3562 -0.6839
 2400Sol     MW12704   0.255   2.651   7.349  0.3887 -0.0965  0.3239
 2401Sol     OW12705   0.531   2.094   8.883 -0.4020  0.0310  0.3820
 2401Sol     HW12706   0.461   2.149   8.849 -1.0809 -0.4725  0.9372
 2401Sol     HW12707   0.491   2.007   8.891  0.8046 -0.6837 -1.0160
 2401Sol     MW12708   0.521   2.091   8.881  0.4657 -0.1705 -0.3239
 2402Sol     OW12709   2.614   1.236   2.593  0.2913 -0.2667  0.0819
 2402Sol     HW12710   2.701   1.229   2.555 -0.5774  0.6887 -2.1268
 2402Sol     HW12711   2.562   1.169   2.548 -0.8851  1.2400 -0.8464
 2402Sol     MW12712   2.617   1.229   2.586  0.3034 -0.5858  0.2042
 2403Sol     OW12713   2.128   3.008   6.622  0.0765 -0.0191 -0.3991
 2403Sol     HW12714   2.047   3.002   6.572  0.2933 -0.5581 -0.6881
 2403Sol     HW12715   2.164   3.095   6.601  0.1497 -0.2322 -1.1441
 2403Sol     MW12716   2.124   3.016   6.616  0.2672 -0.0542  0.7800
 2404Sol     OW12717   2.385   1.677   7.630  0.2270  0.3368 -0.0686
 2404Sol     HW12718   2.384   1.760   7.582 -2.5661  0.3484 -0.0764
 2404Sol     HW12719   2.325   1.691   7.704 -0.8478 -1.8889 -0.4734
 2404Sol     MW12720   2.379   1.686   7.633  0.4967  0.3141  0.2840
 2405Sol     OW12721   2.894   3.152   2.428 -0.7824 -0.1749 -0.5885
 2405Sol     HW12722   2.882   3.246   2.412 -0.5270 -0.2075 -0.9620
 2405Sol     HW12723   2.839   3.134   2.505  0.5580  0.6425  0.5880
 2405Sol     MW12724   2.888   3.159   2.433 -0.2782 -0.2480  0.4632
 2406Sol     OW12725   0.327   2.032   7.804 -0.4115  0.6296  0.7706
 2406Sol     HW12726   0.381   2.008   7.728 -1.2984  0.3295  0.2161
 2406Sol     HW12727   0.380   2.094   7.853 -0.1195  1.4096 -0.5091
 2406Sol     MW12728   0.336   2.035   7.801 -0.1411  0.2039 -0.8490
 2407Sol     OW12729   2.808   3.396   8.671 -0.1725 -0.2472 -0.5134
 2407Sol     HW12730   2.878   3.403   8.736 -0.6949 -0.1731  0.0505
 2407Sol     HW12731   2.810   3.305   8.642  0.7154 -0.0331 -1.1362
 2407Sol     MW12732   2.814   3.389   8.674  0.2858 -0.2424  0.1314
 2408Sol     OW12733   2.294   2.205   5.064 -0.0680  0.7224  0.1656
 2408Sol     HW12734   2.347   2.271   5.021 -0.2298 -0.0487 -1.2477
 2408Sol     HW12735   2.346   2.125   5.059 -0.7613  0.2756 -0.0082
 2408Sol     MW12736   2.303   2.204   5.060  0.1413 -0.2618  0.2020
 2409Sol     OW12737   2.897   2.587   4.647 -0.2436  0.0028  0.1534
 2409Sol     HW12738   2.907   2.665   4.702  2.6919 -0.3286  0.1737
 2409Sol     HW12739   2.830   2.535   4.692 -2.4153  2.5924  0.0022
 2409Sol     MW12740   2.892   2.589   4.656 -0.2168 -0.0595 -0.8537
 2410Sol     OW12741   0.879   1.529   3.721  0.0038  0.4588  0.3232
 2410Sol     HW12742   0.853   1.458   3.662  0.6029  1.9892 -1.8674
 2410Sol     HW12743   0.908   1.485   3.801  0.4027 -1.7534 -1.0008
 2410Sol     MW12744   0.879   1.519   3.723  0.5541 -0.0112 -0.4390
 2411Sol     OW12745   1.408   0.593   4.670  0.1447 -0.3086 -0.9915
 2411Sol     HW12746   1.356   0.662   4.710  0.2537 -2.1589  2.6260
 2411Sol     HW12747   1.498   0.611   4.698  0.1729 -1.8713 -0.0053
 2411Sol     MW12748   1.412   0.601   4.676  0.4611 -0.1527  0.0375
 2412Sol     OW12749   2.954   0.307   2.150 -0.2495 -0.2436 -0.2209
 2412Sol     HW12750   2.866   0.277   2.173 -0.1574 -0.1374  0.2815
 2412Sol     HW12751   3.005   0.227   2.142 -0.1770 -0.2590  0.3934
 2412Sol     MW12752   2.950   0.297   2.151 -0.4340 -0.4607  0.4677
 2413Sol     OW12753   1.762   1.913   5.996 -0.4796  0.4760 -0.9792
 2413Sol     HW12754   1.766   1.934   6.089  1.3520  1.3299 -1.2316
 2413Sol     HW12755   1.846   1.943   5.961  0.3887 -3.1758 -2.2044
 2413Sol     MW12756   1.770   1.918   6.001  0.1844 -0.2136 -0.1342
 2414Sol     OW12757   1.262   1.671   2.075  0.2656 -0.7558 -0.2423
 2414Sol     HW12758   1.319   1.660   1.999  1.2931  0.0389  0.3894
 2414Sol     HW12759   1.323   1.686   2.148 -0.7306 -0.7829  0.5986
 2414Sol     MW12760   1.273   1.672   2.075 -0.4074  0.9154  0.0866
 2415Sol     OW12761   0.501   1.576   2.682 -0.2648  0.5059  0.3819
 2415Sol     HW12762   0.552   1.656   2.668 -0.5337  0.3684 -1.5983
 2415Sol     HW12763   0.413   1.607   2.702 -0.0546  0.7229  0.9688
 2415Sol     MW12764   0.498   1.586   2.682  0.4286 -0.6586  0.1309
 2416Sol     OW12765   1.413   2.812   5.212 -0.5567  0.3740  0.9845
 2416Sol     HW12766   1.475   2.775   5.148 -0.1144  2.1198  0.3899
 2416Sol     HW12767   1.468   2.844   5.283 -0.9142  0.3271  1.2818
 2416Sol     MW12768   1.423   2.811   5.212 -0.2120  0.0173  0.0885
 2417Sol     OW12769   2.106   0.898   6.826  0.1874 -0.3627 -0.3160
 2417Sol     HW12770   2.146   0.982   6.807  2.0180 -1.3446 -0.9080
 2417Sol     HW12771   2.090   0.858   6.740 -1.3532 -0.3215 -0.0662
 2417Sol     MW12772   2.108   0.902   6.817 -0.1746  0.0020 -0.8177
 2418Sol     OW12773   0.411   1.483   8.762 -0.3767  0.1262 -0.6026
 2418Sol     HW12774   0.319   1.470   8.781 -0.4877  1.0773 -0.4358
 2418Sol     HW12775   0.457   1.446   8.836 -0.5855 -1.1448 -1.0989
 2418Sol     MW12776   0.407   1.479   8.770  0.1513 -0.3335  0.7161
 2419Sol     OW12777   0.659   2.257   8.404  0.2354  0.7124 -0.3614
 2419Sol     HW12778   0.703   2.204   8.471 -0.2724 -1.4794 -1.7218
 2419Sol     HW12779   0.727   2.275   8.339 -0.5554 -1.7775 -1.9346
 2419Sol     MW12780   0.669   2.254   8.404 -0.0779 -0.3936  0.1153
 2420Sol     OW12781   2.327   2.436   8.763 -0.2580  0.3948 -0.7067
 2420Sol     HW12782   2.353   2.353   8.723 -0.4700 -0.0106 -0.0182
 2420Sol     HW12783   2.231   2.433   8.764 -0.2530 -0.3393  1.2974
 2420Sol     MW12784   2.321   2.428   8.759 -0.2990  0.3032 -0.2442
 2421Sol     OW12785   1.895   1.725   6.565 -0.0600 -0.0028  0.7541
 2421Sol     HW12786   1.848   1.774   6.498  0.0768 -0.1773  0.5262
 2421Sol     HW12787   1.895   1.635   6.532 -0.9066 -0.2850  1.4980
 2421Sol     MW12788   1.891   1.721   6.556 -0.1490 -0.2814 -0.0724
 2422Sol     OW12789   2.374   1.244   1.973 -0.0637 -0.1893 -0.2147
 2422Sol     HW12790   2.447   1.305   1.988 -1.1391  0.8521  0.9087
 2422Sol     HW12791   2.315   1.292   1.914  0.0690 -0.9717 -0.9967
 2422Sol     MW12792   2.376   1.254   1.969  0.3884 -0.0403  0.8187
 2423Sol     OW12793   0.477   2.258   5.340  0.0901  0.0964 -0.4091
 2423Sol     HW12794   0.470   2.198   5.265 -0.8383 -0.5028  0.1432
 2423Sol     HW12795   0.556   2.229   5.385  0.4253  0.1912 -0.9324
 2423Sol     MW12796   0.483   2.250   5.337  0.2884  0.4906  0.6690
 2424Sol     OW12797   2.185   2.154   4.622  0.3700  0.2345  0.3309
 2424Sol     HW12798   2.094   2.125   4.621  0.1940  0.7690 -0.7385
 2424Sol     HW12799   2.199   2.190   4.534  1.7765 -0.3468  0.3104
 2424Sol     MW12800   2.178   2.155   4.614 -0.4980  0.0446  0.4427
 2425Sol     OW12801   1.518   2.603   7.629  0.2244  0.4516  0.0335
 2425Sol     HW12802   1.611   2.590   7.644 -0.1510  1.6567  3.9016
 2425Sol     HW12803   1.508   2.698   7.620 -0.9435  0.6219  2.6091
 2425Sol     MW12804   1.525   2.610   7.629  0.4948  0.1491  0.0990
 2426Sol     OW12805   2.859   3.242   8.960 -0.0139  0.0782 -0.4164
 2426Sol     HW12806   2.927   3.175   8.953 -1.2900 -1.3231  0.3604
 2426Sol     HW12807   2.781   3.200   8.926 -0.9213  1.0441  0.4545
 2426Sol     MW12808   2.858   3.233   8.956 -0.5562  0.9034 -0.1008
 2427Sol     OW12809   1.520   2.343   2.761 -0.2261 -0.3036 -0.2990
 2427Sol     HW12810   1.504   2.324   2.853 -1.1200 -1.8801 -0.7536
 2427Sol     HW12811   1.453   2.408   2.738 -2.1836 -2.3388 -0.6298
 2427Sol     MW12812   1.512   2.347   2.767  0.5952  0.4315 -0.3787
 2428Sol     OW12813   0.555   2.619   2.851 -0.4622  0.3261  0.1231
 2428Sol     HW12814   0.534   2.664   2.933  0.1266  0.4530  0.2090
 2428Sol     HW12815   0.480   2.562   2.836 -2.3110  2.9837 -1.1805
 2428Sol     MW12816   0.547   2.618   2.857 -0.5654 -0.3703  0.3079
 2429Sol     OW12817   2.081   0.672   2.222  0.0120 -0.3396 -0.2938
 2429Sol     HW12818   2.127   0.704   2.145 -1.3137  0.9042 -0.5986
 2429Sol     HW12819   2.104   0.580   2.228 -0.6039 -0.6733 -2.7278
 2429Sol     MW12820   2.087   0.667   2.216  0.0072 -0.2898 -0.4024
 2430Sol     OW12821   1.962   1.636   7.935 -0.3979 -0.7200 -0.0495
 2430Sol     HW12822   1.956   1.699   8.007 -1.6659 -0.7098 -0.1482
 2430Sol     HW12823   1.872   1.625   7.905  0.2193  0.1984 -2.4378
 2430Sol     MW12824   1.953   1.641   7.938  0.1799 -0.1795  0.0185
 2431Sol     OW12825   3.171   0.350   5.098  0.1191  0.4410  0.0417
 2431Sol     HW12826   3.215   0.302   5.169 -0.2167  2.2085  1.4801
 2431Sol     HW12827   3.194   0.301   5.019  0.9700 -1.2548  1.2900
 2431Sol     MW12828   3.177   0.341   5.097  0.0320 -0.0966  0.3062
 2432Sol     OW12829   0.964   1.385   5.289 -0.0298  0.3120  0.4943
 2432Sol     HW12830   0.875   1.351   5.285 -0.4164  1.5845 -3.0578
 2432Sol     HW12831   0.960   1.454   5.356 -1.3073 -0.6580  1.4503
 2432Sol     MW12832   0.956   1.388   5.295 -0.5457  0.5732 -0.2850
 2433Sol     OW12833   1.794   1.429   7.634  0.2212 -0.3968 -0.0360
 2433Sol     HW12834   1.867   1.480   7.599  1.3988  0.0484  2.9621
 2433Sol     HW12835   1.835   1.356   7.681 -1.3209 -1.1519  0.2033
 2433Sol     MW12836   1.804   1.427   7.635 -0.7468  0.1426 -0.3518
 2434Sol     OW12837   1.222   1.327   3.712  0.2257  0.0533  0.4545
 2434Sol     HW12838   1.317   1.324   3.698  0.2616  0.6733  0.5804
 2434Sol     HW12839   1.207   1.268   3.786  0.5130 -0.0076  0.4657
 2434Sol     MW12840   1.229   1.321   3.717  0.8443  0.3995 -0.2927
 2435Sol     OW12841   2.206   1.625   8.776 -0.1841  0.1445  0.3608
 2435Sol     HW12842   2.274   1.687   8.749 -1.4675  0.3137 -2.6471
 2435Sol     HW12843   2.128   1.679   8.791 -0.5415 -0.4165  0.5678
 2435Sol     MW12844   2.205   1.636   8.775 -0.1971  0.1314  0.1446
 2436Sol     OW12845   1.691   2.236   6.604 -0.2039  0.3409 -0.3604
 2436Sol     HW12846   1.742   2.317   6.604  0.8764 -0.3260 -0.4136
 2436Sol     HW12847   1.756   2.167   6.616 -0.8118 -0.6984 -2.7832
 2436Sol     MW12848   1.702   2.237   6.605  0.1554  0.3180 -0.2130
 2437Sol     OW12849   2.952   0.021   7.178  0.0513 -0.0810  0.1852
 2437Sol     HW12850   3.044   0.024   7.149 -0.3394 -1.2125 -1.2331
 2437Sol     HW12851   2.956  -0.008   7.269  1.1461  0.6123  0.3658
 2437Sol     MW12852   2.961   0.019   7.183  0.2290  0.2148  0.5109
 2438Sol     OW12853   0.285   1.811   6.206  0.1831  0.5977  0.2549
 2438Sol     HW12854   0.254   1.843   6.121  0.3911  0.0000 -0.0453
 2438Sol     HW12855   0.208   1.769   6.245  0.9193 -1.9709 -1.0142
 2438Sol     MW12856   0.275   1.810   6.202 -0.4297  0.4382 -0.1254
 2439Sol     OW12857   1.869   2.804   6.695 -0.1640 -0.1638 -0.2136
 2439Sol     HW12858   1.942   2.743   6.689  1.0961  1.3092 -0.1388
 2439Sol     HW12859   1.793   2.749   6.712  0.9134 -1.7254 -0.3691
 2439Sol     MW12860   1.869   2.794   6.696 -0.1387  0.2575  0.3344
 2440Sol     OW12861   0.440   0.326   5.485  0.4838  0.3289 -0.0822
 2440Sol     HW12862   0.373   0.394   5.492  1.2020  1.1550 -1.1442
 2440Sol     HW12863   0.391   0.244   5.489 -0.6455  0.9366 -1.4022
 2440Sol     MW12864   0.430   0.325   5.486 -0.6824 -0.0080  0.4208
 2441Sol     OW12865   1.079   2.487   9.001  0.1378 -0.0378 -0.1420
 2441Sol     HW12866   1.076   2.459   8.909  0.7488  0.8205 -0.4333
 2441Sol     HW12867   1.105   2.409   9.049  2.1574  0.0922 -0.9851
 2441Sol     MW12868   1.081   2.478   8.997 -0.1364 -0.5210 -0.4035
 2442Sol     OW12869   2.970   2.572   9.303 -0.2532 -0.2242 -0.0252
 2442Sol     HW12870   2.882   2.539   9.289 -0.5748  1.1987 -1.5679
 2442Sol     HW12871   2.965   2.621   9.386 -1.3707  1.3147 -0.9729
 2442Sol     MW12872   2.962   2.574   9.309  0.2685 -0.0002  0.2546
 2443Sol     OW12873   2.965   2.067   9.299 -0.1295 -0.6690  0.1275
 2443Sol     HW12874   3.002   2.055   9.386 -0.8156 -0.6146  0.4237
 2443Sol     HW12875   2.990   2.156   9.275  0.7727 -0.9634 -0.0806
 2443Sol     MW12876   2.971   2.074   9.304 -0.3680 -0.6711 -0.2365
 2444Sol     OW12877   3.130   2.890   5.077  0.1465  0.2008 -0.8369
 2444Sol     HW12878   3.145   2.806   5.119  1.1713 -0.6203 -2.7937
 2444Sol     HW12879   3.144   2.874   4.984 -1.8034  2.0526 -1.4801
 2444Sol     MW12880   3.133   2.881   5.072 -0.2112 -0.4850  0.3223
 2445Sol     OW12881   2.219   0.495   1.929  0.2343  0.2587 -0.4605
 2445Sol     HW12882   2.129   0.463   1.934  0.1013  0.9448  3.7405
 2445Sol     HW12883   2.210   0.590   1.922  0.5967  0.3215 -0.1070
 2445Sol     MW12884   2.210   0.501   1.929 -0.1610 -0.3235 -0.5730
 2446Sol     OW12885   1.732   1.965   9.207  0.0020 -0.5247  0.0702
 2446Sol     HW12886   1.676   1.888   9.218  0.3999 -0.7387  0.5945
 2446Sol     HW12887   1.676   2.029   9.165 -1.1729 -0.1084  2.2122
 2446Sol     MW12888   1.722   1.964   9.204  0.3025 -0.0015 -0.2029
 2447Sol     OW12889   0.828   0.276   3.525 -0.2721 -0.1557 -0.2930
 2447Sol     HW12890   0.853   0.303   3.437 -1.0413 -0.0873 -0.4964
 2447Sol     HW12891   0.876   0.334   3.583  0.5828 -0.4877 -0.6528
 2447Sol     MW12892   0.835   0.283   3.522  0.6188  0.6012  0.1117
 2448Sol     OW12893   1.213   2.503   5.761 -0.3387 -0.2055 -0.2894
 2448Sol     HW12894   1.249   2.542   5.682  1.6256  0.4998  0.9111
 2448Sol     HW12895   1.255   2.550   5.833 -1.4849 -1.3575  1.1880
 2448Sol     MW12896   1.220   2.511   5.760 -0.7728 -0.0416  0.1605
 2449Sol     OW12897   1.911   2.943   3.791  0.1816  0.4038  0.3093
 2449Sol     HW12898   1.960   2.898   3.859 -1.3026 -1.1766  0.3526
 2449Sol     HW12899   1.836   2.981   3.835 -0.0534  0.5669 -0.2192
 2449Sol     MW12900   1.909   2.942   3.801 -0.1800 -0.2338 -0.5359
 2450Sol     OW12901   0.145   1.718   7.761  0.4588 -0.0847 -0.2389
 2450Sol     HW12902   0.165   1.747   7.672  0.2486  1.9284  0.3269
 2450Sol     HW12903   0.067   1.769   7.785  0.5212 -0.6101  1.0943
 2450Sol     MW12904   0.140   1.725   7.755  0.4319  0.0119 -0.0855
 2451Sol     OW12905   0.137   1.497   8.918  0.3146 -0.4876  0.3306
 2451Sol     HW12906   0.139   1.532   9.007  0.8204 -0.7909  0.4403
 2451Sol     HW12907   0.088   1.562   8.868  2.3389  1.0535  0.2700
 2451Sol     MW12908   0.133   1.506   8.921  0.2792  0.7925 -0.2496
 2452Sol     OW12909   0.304   2.488   2.723 -0.3055 -0.4445 -0.3928
 2452Sol     HW12910   0.269   2.534   2.647 -0.8785  0.4086  0.3744
 2452Sol     HW12911   0.258   2.403   2.724 -0.2491 -0.4807 -1.0259
 2452Sol     MW12912   0.297   2.484   2.716  0.3895  0.1089  0.3704
 2453Sol     OW12913   1.923   1.527   4.092 -0.1226 -0.3160  0.4309
 2453Sol     HW12914   1.873   1.454   4.055 -0.3355 -0.2192  0.5246
 2453Sol     HW12915   1.877   1.547   4.174 -0.3108  0.1956  0.2014
 2453Sol     MW12916   1.914   1.522   4.096  0.2122  0.0866 -0.0452
 2454Sol     OW12917   0.660   1.982   1.963  0.4607  0.6672  0.0004
 2454Sol     HW12918   0.730   2.018   1.908 -1.0558  2.4678 -0.7847
 2454Sol     HW12919   0.672   1.887   1.958  2.3627  0.9321 -0.7535
 2454Sol     MW12920   0.667   1.977   1.958  0.5639  0.8572 -0.2430
 2455Sol     OW12921   2.960   1.442   2.370 -0.0933  0.0435  0.5495
 2455Sol     HW12922   3.050   1.454   2.399 -0.6067  2.2585  1.3332
 2455Sol     HW12923   2.908   1.449   2.450 -1.1328  1.0565 -0.1969
 2455Sol     MW12924   2.963   1.443   2.380  0.4281  0.9143 -0.0641
 2456Sol     OW12925   2.475   1.032   4.440  0.3494 -0.3101 -0.0864
 2456Sol     HW12926   2.451   0.948   4.402 -1.2568  0.0305  0.1389
 2456Sol     HW12927   2.394   1.064   4.481  0.9077  1.3701 -0.2557
 2456Sol     MW12928   2.465   1.028   4.440  0.6068 -0.6105 -0.1387
 2457Sol     OW12929   1.879   2.036   7.186  0.0899  0.1100 -0.1139
 2457Sol     HW12930   1.811   1.990   7.236  0.3443 -0.2942 -0.1428
 2457Sol     HW12931   1.892   2.118   7.233 -2.6617  1.6343 -1.8209
 2457Sol     MW12932   1.874   2.039   7.194 -0.3448  0.2898  0.2523
 2458Sol     OW12933   1.342   2.296   4.126  0.5257  0.1639  0.2731
 2458Sol     HW12934   1.427   2.257   4.145  0.6036 -0.7054 -1.7412
 2458Sol     HW12935   1.284   2.260   4.193  0.7717 -2.8662 -1.0659
 2458Sol     MW12936   1.344   2.289   4.134 -0.1466 -0.0783 -0.3430
 2459Sol     OW12937   3.240   3.113   4.095  0.8048 -0.4984  0.5576
 2459Sol     HW12938   3.300   3.146   4.162  0.6528 -0.8258  0.8544
 2459Sol     HW12939   3.163   3.084   4.144  0.3949 -0.0641  0.1784
 2459Sol     MW12940   3.238   3.113   4.105  0.0228 -0.4207  0.7643
 2460Sol     OW12941   1.899   1.077   1.890  0.1160  0.0527 -0.2908
 2460Sol     HW12942   1.856   1.065   1.974 -1.7115 -1.1431 -1.3506
 2460Sol     HW12943   1.934   0.991   1.868  0.0557  0.2044 -1.0069
 2460Sol     MW12944   1.898   1.068   1.895  0.2683 -0.2545  0.1002
 2461Sol     OW12945   0.215   2.800   3.830  0.1286 -0.3531 -0.0712
 2461Sol     HW12946   0.149   2.749   3.782  1.0107 -1.1142 -0.4880
 2461Sol     HW12947   0.190   2.891   3.814 -2.1450 -0.6262  1.6357
 2461Sol     MW12948   0.207   2.804   3.824 -0.2653  0.2176 -0.1317
 2462Sol     OW12949   1.622   2.713   1.463  0.0812  0.2224 -0.1866
 2462Sol     HW12950   1.709   2.746   1.489 -0.6192  0.3677  2.1295
 2462Sol     HW12951   1.593   2.661   1.538 -1.4493 -0.6088 -1.3232
 2462Sol     MW12952   1.627   2.712   1.472  0.5428 -0.0949  0.4304
 2463Sol     OW12953   1.301   0.842   6.849 -0.1582  0.8066  0.0245
 2463Sol     HW12954   1.285   0.826   6.942  3.3677  0.6756  0.6587
 2463Sol     HW12955   1.228   0.799   6.804 -0.4425 -1.4680  2.5802
 2463Sol     MW12956   1.293   0.837   6.853  0.1542  0.4446 -0.5229
 2464Sol     OW12957   1.449   3.402   1.920  0.7784  0.2683 -0.2105
 2464Sol     HW12958   1.416   3.313   1.933 -0.5018  0.7108 -0.3823
 2464Sol     HW12959   1.389   3.442   1.857  2.3393  0.7192 -1.4457
 2464Sol     MW12960   1.441   3.398   1.916  0.3856  0.9287 -0.0552
 2465Sol     OW12961   0.640   0.810   8.597 -0.4103  0.2864 -0.4300
 2465Sol     HW12962   0.649   0.812   8.502 -1.8882  0.7561 -0.5693
 2465Sol     HW12963   0.629   0.901   8.623  0.0610  0.1668  0.1955
 2465Sol     MW12964   0.639   0.818   8.591 -1.0863 -0.2682  0.3233
 2466Sol     OW12965   1.161   2.521   2.476 -0.2864 -0.3414  0.6200
 2466Sol     HW12966   1.094   2.512   2.544 -1.4829  4.0644  0.1537
 2466Sol     HW12967   1.114   2.515   2.394  0.2042  0.7131  0.2582
 2466Sol     MW12968   1.151   2.519   2.475 -0.4206  0.4495  0.2123
 2467Sol     OW12969   0.679   0.116   4.413  0.4288  0.4905 -0.1100
 2467Sol     HW12970   0.662   0.072   4.330  0.9812 -0.0126  0.0389
 2467Sol     HW12971   0.676   0.047   4.479 -0.9607  1.0443  0.4194
 2467Sol     MW12972   0.677   0.106   4.411 -0.0600 -0.0720 -0.1514
 2468Sol     OW12973   2.695   1.987   6.410 -0.3238  0.1084 -0.0685
 2468Sol     HW12974   2.676   2.030   6.493 -1.2769 -0.1921 -0.1281
 2468Sol     HW12975   2.618   2.003   6.356  0.9637  1.7098 -1.4819
 2468Sol     MW12976   2.687   1.992   6.412  0.3573 -0.6936 -0.2715
 2469Sol     OW12977   0.719   3.398   7.196 -0.0231 -0.4348  0.0645
 2469Sol     HW12978   0.749   3.349   7.119 -0.8074  0.3716 -0.7581
 2469Sol     HW12979   0.631   3.365   7.213  0.3851 -1.0848  1.0441
 2469Sol     MW12980   0.714   3.390   7.191 -0.4780  0.8811  0.7646
 2470Sol     OW12981   2.124   2.322   6.647 -0.4013  0.2164 -0.2200
 2470Sol     HW12982   2.085   2.408   6.664  0.3861  0.1891  1.9674
 2470Sol     HW12983   2.052   2.260   6.658 -1.1850  0.6194 -2.7078
 2470Sol     MW12984   2.114   2.324   6.650 -0.3839  0.0185 -0.7842
 2471Sol     OW12985   1.388   1.663   9.374  0.2719 -0.0061 -0.2299
 2471Sol     HW12986   1.339   1.668   9.456 -1.3722 -1.8677 -1.0643
 2471Sol     HW12987   1.333   1.709   9.311  0.2503 -0.8896 -0.8621
 2471Sol     MW12988   1.379   1.668   9.376  0.4194 -0.0038 -0.4313
 2472Sol     OW12989   2.602   1.416   2.026  0.2139 -0.3176 -0.0599
 2472Sol     HW12990   2.677   1.379   1.980  0.8087 -0.6761  1.1727
 2472Sol     HW12991   2.640   1.458   2.103 -0.7100  0.7415 -0.1618
 2472Sol     MW12992   2.612   1.417   2.029 -0.7886 -0.3164 -0.0131
 2473Sol     OW12993   3.317   2.675   4.448 -0.3094 -0.0374  0.1603
 2473Sol     HW12994   3.311   2.740   4.518 -0.9397  0.0542  0.0250
 2473Sol     HW12995   3.266   2.601   4.480 -0.8292  0.1109 -0.3137
 2473Sol     MW12996   3.312   2.674   4.457 -0.1925  0.0546 -0.1581
 2474Sol     OW12997   3.275   0.921   5.196  0.2018  0.4127  0.4262
 2474Sol     HW12998   3.223   0.841   5.200 -0.2258  0.7083  0.7593
 2474Sol     HW12999   3.215   0.988   5.163 -0.2133  1.2185  2.7120
 2474Sol     MW13000   3.265   0.920   5.193 -0.4424  0.3652  0.0237
 2475Sol     OW13001   1.609   1.395   5.339  0.6052  0.1443  0.0713
 2475Sol     HW13002   1.617   1.488   5.360  1.5505 -0.0351  0.5095
 2475Sol     HW13003   1.699   1.364   5.332  0.2899 -0.5713 -0.8316
 2475Sol     MW13004   1.618   1.401   5.341 -0.2741 -0.0434  0.2467
 2476Sol     OW13005   1.324   1.510   8.692 -0.4685  0.7462  0.4601
 2476Sol     HW13006   1.418   1.512   8.714 -0.2096 -0.8774 -0.4587
 2476Sol     HW13007   1.302   1.602   8.675  1.5575  0.8484 -1.8486
 2476Sol     MW13008   1.331   1.518   8.693 -0.4492 -0.5461  0.0682
 2477Sol     OW13009   2.852   1.209   2.459 -0.0050  0.1257  0.3651
 2477Sol     HW13010   2.908   1.177   2.530 -0.1988 -0.2943  0.3291
 2477Sol     HW13011   2.893   1.291   2.432  0.0601  0.3001  0.9776
 2477Sol     MW13012   2.861   1.213   2.463  0.3600  0.4330 -0.6036
 2478Sol     OW13013   2.508   3.139   6.255  0.3077  0.1951 -0.0103
 2478Sol     HW13014   2.541   3.050   6.272  1.3538  0.4879 -0.4729
 2478Sol     HW13015   2.413   3.131   6.263  0.5388 -0.3989  2.6271
 2478Sol     MW13016   2.503   3.130   6.257 -0.1458 -0.1975 -0.2792
 2479Sol     OW13017   0.690   1.652   8.453 -0.2189  0.1748  0.1128
 2479Sol     HW13018   0.666   1.740   8.422 -1.5620 -0.6862 -1.4062
 2479Sol     HW13019   0.688   1.598   8.374  1.7660 -0.9976  0.8368
 2479Sol     MW13020   0.688   1.655   8.443  0.3356  0.0275  1.0379
 2480Sol     OW13021   1.380   0.052   6.727 -0.0512  0.1355  0.6456
 2480Sol     HW13022   1.301   0.027   6.776  0.3144  1.3770  1.9069
 2480Sol     HW13023   1.400   0.140   6.759  1.7524 -0.1129  0.2101
 2480Sol     MW13024   1.374   0.057   6.735 -0.2554  0.5994  0.7204
 2481Sol     OW13025   3.108   1.332   7.217  0.2705 -0.7517 -0.2892
 2481Sol     HW13026   3.176   1.396   7.196 -0.3079 -0.5340 -1.5341
 2481Sol     HW13027   3.151   1.247   7.206  0.1699 -0.6250 -1.6530
 2481Sol     MW13028   3.118   1.330   7.214 -0.4950  0.2994 -0.0137
 2482Sol     OW13029   2.996   1.539   4.494 -0.2956 -0.1886  0.3520
 2482Sol     HW13030   2.950   1.461   4.525  1.7561 -1.9492 -0.8394
 2482Sol     HW13031   3.037   1.575   4.573  0.4102 -1.5058  0.6087
 2482Sol     MW13032   2.996   1.535   4.504  0.3794  0.1579  0.0541
 2483Sol     OW13033   1.550   2.935   6.532 -0.2301  0.6749  0.0793
 2483Sol     HW13034   1.514   2.986   6.459 -0.3425  1.3028  0.5695
 2483Sol     HW13035   1.541   2.992   6.608 -0.7312 -0.2457  0.7145
 2483Sol     MW13036   1.546   2.945   6.532  0.7498 -0.3215 -0.0330
 2484Sol     OW13037   2.644   0.912   7.646  0.0552  0.9757 -0.5651
 2484Sol     HW13038   2.579   0.903   7.576  0.0286 -0.0214 -0.4252
 2484Sol     HW13039   2.594   0.899   7.726  0.5240 -0.4518 -0.4855
 2484Sol     MW13040   2.634   0.910   7.647 -0.1112  0.1444  0.0776
 2485Sol     OW13041   1.409   3.202   4.851 -0.3168 -0.6295  0.0002
 2485Sol     HW13042   1.354   3.143   4.902 -1.6060  2.3489  2.1670
 2485Sol     HW13043   1.363   3.211   4.768 -1.6370 -0.3801  0.7455
 2485Sol     MW13044   1.400   3.197   4.848  0.4997 -0.4640 -0.7164
 2486Sol     OW13045   0.382   2.079   6.846  0.1431 -0.5506  0.2750
 2486Sol     HW13046   0.475   2.059   6.846  0.5088  1.0944 -0.5107
 2486Sol     HW13047   0.347   2.033   6.769  0.4571 -0.4704  0.0863
 2486Sol     MW13048   0.387   2.073   6.839 -0.5858  0.0100 -0.1972
 2487Sol     OW13049   1.531   2.954   8.072  0.7271 -0.2486 -0.8524
 2487Sol     HW13050   1.508   2.862   8.063  0.6438 -0.3432  0.2539
 2487Sol     HW13051   1.452   2.996   8.106  1.1653 -0.0037 -0.1127
 2487Sol     MW13052   1.522   2.950   8.074 -0.3603 -0.3301  0.4395
 2488Sol     OW13053   2.811   2.064   7.383 -0.3143 -0.6136  0.2007
 2488Sol     HW13054   2.782   2.051   7.474 -1.3137  2.2307  0.3276
 2488Sol     HW13055   2.731   2.087   7.336  0.6280  0.4893 -0.8686
 2488Sol     MW13056   2.801   2.065   7.387 -0.7066  0.4865 -0.2918
 2489Sol     OW13057   0.069   3.076   9.319 -0.7298 -0.1552 -0.8156
 2489Sol     HW13058   0.038   3.037   9.401 -0.4036 -0.7108 -0.9531
 2489Sol     HW13059   0.004   3.051   9.254 -0.0057 -1.3214 -1.1042
 2489Sol     MW13060   0.061   3.071   9.321  0.2142  0.2751 -0.6978
 2490Sol     OW13061   0.739   2.588   6.147 -0.1801  1.1654 -0.5349
 2490Sol     HW13062   0.703   2.519   6.091 -3.1891 -0.5609  3.2277
 2490Sol     HW13063   0.726   2.669   6.098 -1.1837 -0.4490 -2.9901
 2490Sol     MW13064   0.734   2.589   6.138 -0.6789  0.3945  0.0081
 2491Sol     OW13065   0.380   0.173   2.917  0.5089 -0.5656  0.4532
 2491Sol     HW13066   0.424   0.090   2.933  0.6986 -0.4710  0.4222
 2491Sol     HW13067   0.354   0.203   3.004  2.0656  0.2373  0.6520
 2491Sol     MW13068   0.382   0.168   2.926  0.2460 -0.2242  0.2464
 2492Sol     OW13069   1.104   0.305   3.806  0.4841  0.6404 -0.5099
 2492Sol     HW13070   1.186   0.255   3.813  0.0663  0.0251  0.0116
 2492Sol     HW13071   1.066   0.300   3.893 -0.5771  0.1248 -1.0012
 2492Sol     MW13072   1.108   0.300   3.814  0.0889  0.3899 -0.3360
 2493Sol     OW13073   2.806   2.287   7.784  0.4628 -0.1189  0.1064
 2493Sol     HW13074   2.838   2.359   7.730 -1.7396  0.0457 -1.0381
 2493Sol     HW13075   2.815   2.318   7.874  0.6957  1.1009 -0.3355
 2493Sol     MW13076   2.809   2.296   7.787 -0.3491  0.0385 -0.0215
 2494Sol     OW13077   0.222   2.014   8.988  0.1098  0.3264 -0.0299
 2494Sol     HW13078   0.212   2.108   8.982  0.2247  0.3832  0.5765
 2494Sol     HW13079   0.295   2.001   9.050  0.3588 -0.1483 -0.4138
 2494Sol     MW13080   0.228   2.021   8.993  0.2308 -0.5264  0.3733
 2495Sol     OW13081   3.133   2.498   4.543  0.1185 -0.0882  0.4390
 2495Sol     HW13082   3.095   2.453   4.467 -0.7512 -1.5429  1.7005
 2495Sol     HW13083   3.058   2.540   4.586  0.3272 -0.7336  1.4471
 2495Sol     MW13084   3.123   2.497   4.540 -0.2546  0.0998 -0.1813
 2496Sol     OW13085   0.588   0.761   6.302 -0.7842 -0.1068 -0.0332
 2496Sol     HW13086   0.538   0.804   6.372 -0.5558 -1.1970  0.8202
 2496Sol     HW13087   0.544   0.788   6.221 -1.0353  1.1985  0.5275
 2496Sol     MW13088   0.579   0.768   6.301 -0.2433  0.3953  0.5817
 2497Sol     OW13089   0.577   1.643   3.083  0.0085 -0.0132  0.0882
 2497Sol     HW13090   0.578   1.599   3.168 -0.3890  0.2103  0.2072
 2497Sol     HW13091   0.637   1.717   3.094 -0.3209  0.2265  0.2871
 2497Sol     MW13092   0.583   1.646   3.092  0.1770 -0.0430  0.6287
 2498Sol     OW13093   0.413   0.397   4.137 -0.4645 -0.8115 -1.0331
 2498Sol     HW13094   0.388   0.304   4.139 -0.1085 -0.8854  0.1168
 2498Sol     HW13095   0.348   0.440   4.193  0.0434 -0.5287 -0.6614
 2498Sol     MW13096   0.405   0.393   4.142 -0.1834  0.0880  0.1456
 2499Sol     OW13097   3.035   1.502   5.748 -0.3818  0.1808  0.5043
 2499Sol     HW13098   2.992   1.441   5.688 -0.2176  2.2129 -1.7171
 2499Sol     HW13099   2.970   1.570   5.765 -0.2362 -0.0749  2.2200
 2499Sol     MW13100   3.025   1.502   5.744 -0.1880 -0.0302 -0.4465
 2500Sol     OW13101   1.076   2.678   6.129  0.6680  0.5316 -0.0774
 2500Sol     HW13102   1.056   2.587   6.149 -2.9450  1.4179  0.7815
 2500Sol     HW13103   1.105   2.716   6.212 -1.7159  1.0825  0.5373
 2500Sol     MW13104   1.077   2.673   6.138  0.0266 -0.2010  0.3995
 2501Sol     OW13105   0.429   2.190   3.231  0.7269 -0.0071 -0.0152
 2501Sol     HW13106   0.487   2.256   3.270 -0.2026 -0.0936  1.5586
 2501Sol     HW13107   0.394   2.233   3.152 -0.8707  1.8992  1.6671
 2501Sol     MW13108   0.431   2.200   3.227  0.4193  0.4036  0.3148
 2502Sol     OW13109   1.043   3.257   7.196  0.6290 -0.7798 -0.3996
 2502Sol     HW13110   1.126   3.306   7.194 -0.5618  1.2627 -1.2914
 2502Sol     HW13111   0.994   3.296   7.268 -0.8268  0.2193 -1.8916
 2502Sol     MW13112   1.046   3.265   7.202  0.3967 -0.2344  0.4002
 2503Sol     OW13113   1.523   1.771   3.448  0.2472  0.0068  0.1513
 2503Sol     HW13114   1.501   1.686   3.409 -0.2106  0.0840  0.2300
 2503Sol     HW13115   1.601   1.800   3.401  0.0222 -0.1586 -0.3300
 2503Sol     MW13116   1.528   1.766   3.440 -0.2932 -0.0366  0.1164
 2504Sol     OW13117   1.866   0.997   6.134  0.4399 -0.0334 -0.5208
 2504Sol     HW13118   1.892   1.017   6.224 -0.0076 -0.1256 -0.3733
 2504Sol     HW13119   1.841   0.904   6.136 -0.7815  0.2882 -0.4646
 2504Sol     MW13120   1.866   0.990   6.142  0.4416  0.6121 -0.3174
 2505Sol     OW13121   0.092   3.112   3.677  0.3578  0.3222  0.3095
 2505Sol     HW13122   0.040   3.071   3.607  0.1165  0.0436  0.6470
 2505Sol     HW13123   0.029   3.126   3.748  0.3939  1.4716  0.1234
 2505Sol     MW13124   0.081   3.110   3.677  0.6131  0.1110  0.2046
 2506Sol     OW13125   1.534   3.405   3.698  0.0240 -0.1765  0.6842
 2506Sol     HW13126   1.589   3.383   3.623 -0.6231  0.6209 -0.0255
 2506Sol     HW13127   1.591   3.458   3.754  0.0702  0.4172  0.0815
 2506Sol     MW13128   1.544   3.407   3.697  0.2120 -0.2162  0.2938
 2507Sol     OW13129   0.245   0.203   7.652  0.4268 -0.1549  0.3529
 2507Sol     HW13130   0.312   0.144   7.688 -0.0299 -1.1138 -0.3314
 2507Sol     HW13131   0.291   0.284   7.634  1.4579 -0.8734 -0.2888
 2507Sol     MW13132   0.255   0.205   7.654 -0.1767  0.6337  0.6094
 2508Sol     OW13133   1.484   0.574   2.990  0.1383 -0.2282  0.1877
 2508Sol     HW13134   1.514   0.586   2.900 -0.6644  0.1581 -0.0324
 2508Sol     HW13135   1.493   0.661   3.030 -1.9231  0.1948 -0.2583
 2508Sol     MW13136   1.488   0.583   2.985 -1.0653 -0.2682  0.2469
 2509Sol     OW13137   2.845   2.267   5.437  0.1345  0.3432  0.3626
 2509Sol     HW13138   2.838   2.358   5.410  0.9293  0.0767 -0.8175
 2509Sol     HW13139   2.876   2.221   5.358  0.7318 -0.7708  1.2245
 2509Sol     MW13140   2.847   2.271   5.427 -0.2137 -0.0510 -0.1346
 2510Sol     OW13141   1.660   2.267   5.118  0.1672  0.1422 -0.2173
 2510Sol     HW13142   1.567   2.246   5.129  0.3443 -0.0790  0.9338
 2510Sol     HW13143   1.703   2.227   5.194  1.0029  1.4870  0.0473
 2510Sol     MW13144   1.655   2.262   5.126 -0.6315  0.4109 -0.5686
 2511Sol     OW13145   0.808   2.274   6.407  0.2115 -0.3894  0.3028
 2511Sol     HW13146   0.874   2.342   6.394 -0.2368  0.0171  0.1643
 2511Sol     HW13147   0.756   2.305   6.481 -2.0573  1.0272 -1.8183
 2511Sol     MW13148   0.809   2.283   6.413  0.2007  0.4025  0.2615
 2512Sol     OW13149   0.442   1.000   3.233  0.0072 -0.4811  0.7087
 2512Sol     HW13150   0.355   1.029   3.259  0.0215 -0.3060  0.5621
 2512Sol     HW13151   0.446   0.908   3.258  0.7635  0.2014  3.3212
 2512Sol     MW13152   0.435   0.994   3.238 -0.0216  0.2794  0.0546
 2513Sol     OW13153   0.681   0.334   5.635 -0.2364  0.1195  0.0522
 2513Sol     HW13154   0.624   0.296   5.568 -0.8979  1.9934 -0.4764
 2513Sol     HW13155   0.743   0.388   5.585  0.0582  0.5295  0.8591
 2513Sol     MW13156   0.681   0.335   5.624 -0.0320 -0.8374  0.2543
 2514Sol     OW13157   0.645   1.302   4.627  0.0047 -0.1921  0.3769
 2514Sol     HW13158   0.708   1.236   4.599  1.5275  1.4096 -0.0051
 2514Sol     HW13159   0.614   1.271   4.712  1.0636 -1.1449  0.4178
 2514Sol     MW13160   0.648   1.293   4.632 -0.1466 -0.8061 -0.3066
 2515Sol     OW13161   0.348   2.562   3.874  0.3790  0.1008  0.4196
 2515Sol     HW13162   0.279   2.498   3.860  0.3012 -0.1034  1.6388
 2515Sol     HW13163   0.305   2.647   3.866  0.2403 -0.0142 -0.0326
 2515Sol     MW13164   0.338   2.564   3.872 -0.6138  0.0443  0.2869
 2516Sol     OW13165   1.107   3.137   9.064  0.3597  0.6810  0.4058
 2516Sol     HW13166   1.165   3.208   9.036 -0.7421  2.0974  1.6678
 2516Sol     HW13167   1.036   3.180   9.110 -1.4530 -1.0802 -0.6325
 2516Sol     MW13168   1.106   3.147   9.065  0.0776 -0.2256  0.1203
 2517Sol     OW13169   1.938   1.717   2.773 -0.2532 -0.5866 -0.5395
 2517Sol     HW13170   1.844   1.712   2.752 -0.2358 -2.1691 -0.3289
 2517Sol     HW13171   1.981   1.672   2.700  0.4321  0.9620 -1.1072
 2517Sol     MW13172   1.933   1.712   2.765 -0.0817  0.5817 -0.2972
 2518Sol     OW13173   3.132   0.456   5.884 -0.1710  0.1157  0.4901
 2518Sol     HW13174   3.158   0.383   5.828  0.7350  2.3455 -2.1230
 2518Sol     HW13175   3.214   0.498   5.909 -0.6864  0.3761  1.8134
 2518Sol     MW13176   3.142   0.453   5.881 -0.2192 -0.1235 -0.0470
 2519Sol     OW13177   1.041   2.292   3.285  0.1361 -0.1621 -0.5993
 2519Sol     HW13178   1.061   2.328   3.372 -0.3935  0.4769 -0.7430
 2519Sol     HW13179   0.947   2.278   3.285  0.5139 -3.0716  0.0198
 2519Sol     MW13180   1.035   2.294   3.293 -0.1214  0.1528  0.2001
 2520Sol     OW13181   3.232   0.371   8.163 -0.2586  0.1585  0.8359
 2520Sol     HW13182   3.312   0.342   8.119 -0.1696  1.6945 -0.0692
 2520Sol     HW13183   3.246   0.465   8.178 -1.1442  0.0685  2.3137
 2520Sol     MW13184   3.240   0.377   8.160  0.4579 -0.4986 -0.2531
 2521Sol     OW13185   2.462   0.407   1.838  0.3964 -0.6096 -0.5439
 2521Sol     HW13186   2.376   0.409   1.878  1.0131 -0.1753  0.7695
 2521Sol     HW13187   2.453   0.459   1.758 -0.9527 -1.8758 -1.2529
 2521Sol     MW13188   2.454   0.412   1.834 -0.3243  0.0187  0.0997
 2522Sol     OW13189   0.329   1.357   9.182  0.1106 -0.1540  0.8349
 2522Sol     HW13190   0.308   1.281   9.129  0.2065  0.5611 -0.2325
 2522Sol     HW13191   0.295   1.335   9.269  1.0924 -1.8588  0.8210
 2522Sol     MW13192   0.324   1.348   9.185  0.0426 -0.2603 -0.3143
 2523Sol     OW13193   0.792   2.607   7.215 -0.0053  0.1665 -0.3479
 2523Sol     HW13194   0.760   2.628   7.302  1.7487  3.6395 -0.4728
 2523Sol     HW13195   0.880   2.572   7.229 -0.5574 -1.3587 -0.5931
 2523Sol     MW13196   0.797   2.605   7.224 -0.4423  0.0282  0.0945
 2524Sol     OW13197   0.678   2.673   2.339 -0.4098 -0.2144 -0.6997
 2524Sol     HW13198   0.669   2.664   2.244  0.1828 -0.7074 -0.7143
 2524Sol     HW13199   0.723   2.593   2.366  1.4457  0.9473 -0.2923
 2524Sol     MW13200   0.681   2.665   2.333 -0.1410  0.0709 -0.1687
 2525Sol     OW13201   0.213   0.584   2.380  0.5920  0.1102  0.1959
 2525Sol     HW13202   0.192   0.578   2.287  0.1412 -2.5082  0.4185
 2525Sol     HW13203   0.307   0.604   2.383  0.9603 -1.4338 -0.8228
 2525Sol     MW13204   0.220   0.585   2.372  0.1560  0.0557 -0.1802
 2526Sol     OW13205   2.826   1.150   2.991 -0.3666 -0.1607  0.6095
 2526Sol     HW13206   2.742   1.181   2.957 -1.5088 -1.6102  2.0676
 2526Sol     HW13207   2.840   1.065   2.949  0.1263 -0.1649  0.7724
 2526Sol     MW13208   2.820   1.146   2.984  0.0166 -0.8872  0.4334
 2527Sol     OW13209   2.369   2.463   3.981 -0.3321  0.0605  0.5810
 2527Sol     HW13210   2.388   2.523   4.053 -1.2841  0.1884  0.7344
 2527Sol     HW13211   2.323   2.390   4.022  1.7201 -1.2800  0.5568
 2527Sol     MW13212   2.366   2.462   3.991 -0.3958  0.2531  0.3529
 2528Sol     OW13213   2.199   0.335   7.425  0.6503  0.6984  0.2721
 2528Sol     HW13214   2.195   0.361   7.517 -1.4943 -0.0961  0.4365
 2528Sol     HW13215   2.278   0.281   7.419 -0.3981 -1.1501  2.2077
 2528Sol     MW13216   2.206   0.332   7.433 -0.1272 -0.4172 -0.4469
 2529Sol     OW13217   2.962   2.386   1.611 -0.0618 -0.2930  0.1873
 2529Sol     HW13218   3.018   2.420   1.542 -1.4364  0.4824 -0.5599
 2529Sol     HW13219   2.884   2.354   1.565  0.1125 -2.1301  1.1245
 2529Sol     MW13220   2.960   2.386   1.601  0.1387  0.1386  0.2278
 2530Sol     OW13221   0.240   3.137   4.026  0.7162  0.2051  0.5746
 2530Sol     HW13222   0.211   3.228   4.022  1.2516  0.3432 -0.3657
 2530Sol     HW13223   0.335   3.143   4.036  1.1154 -0.2181 -2.3568
 2530Sol     MW13224   0.246   3.146   4.026  0.6034 -0.0071 -0.1015
 2531Sol     OW13225   1.657   0.766   8.786 -0.5908  0.7088 -0.1678
 2531Sol     HW13226   1.641   0.767   8.880  3.3354  0.0500  0.5900
 2531Sol     HW13227   1.694   0.852   8.766  0.0252  0.3037 -0.8203
 2531Sol     MW13228   1.659   0.773   8.792  0.0528 -0.0855 -0.4435
 2532Sol     OW13229   2.874   0.040   3.993 -0.2880  0.4600 -0.1303
 2532Sol     HW13230   2.966   0.021   4.013 -0.7496 -0.8646  0.8305
 2532Sol     HW13231   2.862   0.009   3.904 -0.3422 -1.3819  0.5016
 2532Sol     MW13232   2.881   0.036   3.987  0.4784 -0.3263  0.4658
 2533Sol     OW13233   3.158   0.471   4.773 -0.4641 -0.2250 -0.3907
 2533Sol     HW13234   3.151   0.431   4.687 -0.0721 -0.3301 -0.3795
 2533Sol     HW13235   3.183   0.562   4.756 -0.9863 -0.0885 -0.4075
 2533Sol     MW13236   3.160   0.476   4.764  0.4724  0.1808 -0.1379
 2534Sol     OW13237   1.255   1.275   5.997  0.3626 -0.0092 -0.3130
 2534Sol     HW13238   1.273   1.338   6.066 -2.2206  0.3639  0.0794
 2534Sol     HW13239   1.297   1.194   6.025 -0.7047  0.1252  1.7473
 2534Sol     MW13240   1.260   1.274   6.005 -0.5778 -0.4961  0.2828
 2535Sol     OW13241   2.609   0.596   3.938  0.3858 -0.4291  0.1628
 2535Sol     HW13242   2.593   0.646   4.019  1.9673 -1.4334  1.1161
 2535Sol     HW13243   2.692   0.628   3.906  0.5648 -1.2092 -0.1635
 2535Sol     MW13244   2.615   0.603   3.943  0.0182  0.1521 -0.1551
 2536Sol     OW13245   0.634   1.003   5.463 -0.3543  0.1645 -0.4157
 2536Sol     HW13246   0.602   1.088   5.433  0.7022  0.8213  0.2742
 2536Sol     HW13247   0.555   0.951   5.478 -0.9639 -0.0630 -3.8639
 2536Sol     MW13248   0.624   1.006   5.462  0.3042  0.6811  0.0181
 2537Sol     OW13249   2.712   3.150   3.504  0.1855 -0.2636  0.0776
 2537Sol     HW13250   2.654   3.216   3.467  0.5959  1.0097  1.5880
 2537Sol     HW13251   2.655   3.092   3.554  0.0887  0.4353  0.7920
 2537Sol     MW13252   2.702   3.151   3.505  0.0119 -0.1282 -0.5490
 2538Sol     OW13253   2.459   1.474   2.902 -0.4708  0.0541 -0.5868
 2538Sol     HW13254   2.428   1.550   2.952  0.6158 -0.8118  1.4703
 2538Sol     HW13255   2.381   1.439   2.859 -1.2529  1.3870 -0.2550
 2538Sol     MW13256   2.450   1.478   2.903 -0.3903 -0.0528 -0.6096
 2539Sol     OW13257   0.622   1.896   8.346 -0.6344 -0.4317  0.3042
 2539Sol     HW13258   0.704   1.900   8.296 -1.3948  1.6078 -0.8506
 2539Sol     HW13259   0.636   1.956   8.419 -0.8547 -0.5939  0.4787
 2539Sol     MW13260   0.631   1.902   8.348 -0.0250 -0.5461  0.5455
 2540Sol     OW13261   3.131   1.930   2.473  0.0598 -0.2130  0.5817
 2540Sol     HW13262   3.056   1.884   2.513  1.1493 -0.8454  1.9586
 2540Sol     HW13263   3.207   1.892   2.517  1.2220  0.0297 -1.2146
 2540Sol     MW13264   3.131   1.922   2.481  0.5394 -0.1280 -0.3226
 2541Sol     OW13265   3.254   2.210   6.123 -0.7771  0.0551 -0.0670
 2541Sol     HW13266   3.163   2.237   6.112 -0.5124  0.2956 -1.8903
 2541Sol     HW13267   3.295   2.228   6.038  1.0793  0.3509  0.8466
 2541Sol     MW13268   3.250   2.214   6.114  0.0261 -0.5428 -0.3757
 2542Sol     OW13269   3.195   0.468   8.599  0.0034 -0.2561  0.0706
 2542Sol     HW13270   3.112   0.514   8.612  0.7426  1.3007 -0.6090
 2542Sol     HW13271   3.174   0.399   8.535 -0.7971  0.0347  0.0096
 2542Sol     MW13272   3.186   0.466   8.594 -0.0154 -0.9506 -0.6383
 2543Sol     OW13273   1.037   0.492   8.148  0.5734 -0.1988  0.3854
 2543Sol     HW13274   0.945   0.494   8.123  0.2425 -0.7131  1.5424
 2543Sol     HW13275   1.050   0.572   8.198  1.1523  0.6604 -1.1070
 2543Sol     MW13276   1.030   0.499   8.150  0.0572 -0.2600  0.4006
 2544Sol     OW13277   1.125   1.980   9.338 -0.0425  0.1654  0.8425
 2544Sol     HW13278   1.179   2.059   9.341  1.1479 -0.6257  0.5323
 2544Sol     HW13279   1.157   1.931   9.263 -0.4712 -0.8339  1.2977
 2544Sol     MW13280   1.132   1.983   9.332 -0.2343  0.1363 -0.6084
 2545Sol     OW13281   2.270   1.979   5.920  0.0329  0.2223 -0.3056
 2545Sol     HW13282   2.357   2.019   5.922  0.8873 -1.5173 -1.4491
 2545Sol     HW13283   2.211   2.051   5.897  1.4282  1.0195 -1.4646
 2545Sol     MW13284   2.273   1.989   5.918  0.4455  0.4584  0.2856
 2546Sol     OW13285   1.226   1.548   3.936 -0.0849 -0.5155 -0.6499
 2546Sol     HW13286   1.271   1.629   3.958 -0.3849 -0.8955  1.5552
 2546Sol     HW13287   1.223   1.546   3.841  1.6603  1.0891 -0.7520
 2546Sol     MW13288   1.229   1.555   3.930 -0.3972  0.8685 -0.3063
 2547Sol     OW13289   0.629   0.168   6.206 -0.6350  0.3139  0.4257
 2547Sol     HW13290   0.573   0.178   6.129 -0.0173 -1.2442 -0.2433
 2547Sol     HW13291   0.596   0.090   6.249 -0.5990  0.8543  1.4429
 2547Sol     MW13292   0.621   0.162   6.203 -0.0052 -0.6051  0.2537
 2548Sol     OW13293   1.221   2.898   1.816  0.6013 -0.0704 -0.0650
 2548Sol     HW13294   1.156   2.843   1.772  1.3064 -0.3225 -0.8000
 2548Sol     HW13295   1.251   2.845   1.891  0.9124 -0.4859 -0.4809
 2548Sol     MW13296   1.218   2.888   1.819  0.6676 -0.4666 -0.2294
 2549Sol     OW13297   2.236   1.173   2.592 -0.5357 -0.7626  0.2432
 2549Sol     HW13298   2.254   1.228   2.668 -0.6673 -1.0412  0.4730
 2549Sol     HW13299   2.319   1.130   2.573  0.2047  1.3156 -1.3756
 2549Sol     MW13300   2.245   1.174   2.597 -0.1203 -0.1057 -0.4986
 2550Sol     OW13301   1.297   3.101   6.942 -0.0724  0.3216 -0.1778
 2550Sol     HW13302   1.226   3.038   6.943 -0.2926  0.5703 -0.0526
 2550Sol     HW13303   1.253   3.186   6.932  0.2636  0.3832 -1.1794
 2550Sol     MW13304   1.287   3.103   6.941 -0.1609 -0.3254 -0.4402
 2551Sol     OW13305   1.017   1.830   5.540  0.1331 -0.0448 -0.5302
 2551Sol     HW13306   0.967   1.910   5.525 -0.1220  0.0469  0.6902
 2551Sol     HW13307   1.037   1.832   5.634  1.2846 -0.7413 -0.7414
 2551Sol     MW13308   1.015   1.837   5.547  0.4902 -0.0002 -0.1484
 2552Sol     OW13309   0.864   2.624   3.875  0.2710 -0.0996 -0.8510
 2552Sol     HW13310   0.960   2.627   3.879  0.1813  0.0605  2.1102
 2552Sol     HW13311   0.840   2.546   3.925 -1.1851  0.0928 -1.2195
 2552Sol     MW13312   0.871   2.617   3.880 -0.5895 -0.0244 -0.1787
 2553Sol     OW13313   0.131   1.899   5.962 -0.0157  0.2288 -0.0636
 2553Sol     HW13314   0.181   1.908   5.881 -0.2450  1.2984 -0.0878
 2553Sol     HW13315   0.086   1.982   5.972 -1.6882 -0.6676  0.0474
 2553Sol     MW13316   0.131   1.907   5.956  0.3974  0.1871 -0.3446
 2554Sol     OW13317   1.707   1.642   5.413  0.2506 -0.5019 -0.1505
 2554Sol     HW13318   1.673   1.728   5.437  0.8830 -0.2635 -0.0834
 2554Sol     HW13319   1.798   1.644   5.442  0.6664 -0.6850 -1.4126
 2554Sol     MW13320   1.712   1.650   5.418 -0.6037  0.3512 -0.5934
 2555Sol     OW13321   2.034   3.306   1.829  0.0835 -0.8168  0.0126
 2555Sol     HW13322   2.015   3.397   1.808  1.6115 -0.6446 -0.6746
 2555Sol     HW13323   2.124   3.306   1.861 -0.8650 -1.6842  2.8031
 2555Sol     MW13324   2.040   3.314   1.830  0.1696 -0.3422  0.3781
 2556Sol     OW13325   2.220   1.528   5.819  0.5699  0.0306  0.0210
 2556Sol     HW13326   2.176   1.501   5.900  2.2798 -0.1383  0.9347
 2556Sol     HW13327   2.217   1.623   5.820 -2.9468  0.0140 -1.7664
 2556Sol     MW13328   2.216   1.534   5.826 -0.1694 -0.0026  0.4505
 2557Sol     OW13329   1.322   0.055   2.474  0.1797  0.1343 -0.3629
 2557Sol     HW13330   1.287   0.142   2.490  0.8924  0.2444  0.6801
 2557Sol     HW13331   1.307   0.039   2.381 -1.0432  0.8760 -0.3074
 2557Sol     MW13332   1.317   0.061   2.467 -0.4859  0.0183 -0.0648
 2558Sol     OW13333   1.583   2.216   3.969 -0.0409  0.0630  0.2514
 2558Sol     HW13334   1.600   2.310   3.955 -1.9410  0.2747 -0.8657
 2558Sol     HW13335   1.587   2.205   4.064  3.5550  0.5714  0.2350
 2558Sol     MW13336   1.585   2.224   3.976 -0.6452  0.0010  0.4053
 2559Sol     OW13337   0.971   2.827   2.616 -0.7415  0.4685  0.4565
 2559Sol     HW13338   0.963   2.732   2.619  0.2886  0.3574 -0.0955
 2559Sol     HW13339   0.951   2.850   2.526 -0.0037  0.6744  0.3416
 2559Sol     MW13340   0.969   2.821   2.608 -0.0119 -0.1802  0.0937
 2560Sol     OW13341   0.896   3.255   4.414  1.0501 -0.0629 -0.0571
 2560Sol     HW13342   0.930   3.344   4.415 -2.0435  1.1951 -1.2729
 2560Sol     HW13343   0.904   3.226   4.323 -1.3242  0.3934 -0.4521
 2560Sol     MW13344   0.899   3.260   4.406  0.0481 -0.2610 -0.1621
 2561Sol     OW13345   2.094   0.587   8.909 -0.0580 -0.1290  0.4020
 2561Sol     HW13346   2.066   0.567   8.820  0.9437  1.0744 -0.1976
 2561Sol     HW13347   2.106   0.502   8.951 -1.2795 -0.6895 -0.3669
 2561Sol     MW13348   2.092   0.578   8.905  0.3946 -0.2658 -0.4286
 2562Sol     OW13349   2.510   1.766   9.008  0.4928 -0.1956  0.3747
 2562Sol     HW13350   2.476   1.840   8.959 -1.3324  0.3497  2.3974
 2562Sol     HW13351   2.533   1.701   8.941  0.2464  1.3989 -1.2966
 2562Sol     MW13352   2.509   1.767   8.998  0.2279  0.0333  0.5663
 2563Sol     OW13353   0.858   0.134   6.063 -0.2015 -0.3600  0.0273
 2563Sol     HW13354   0.777   0.151   6.111  0.1431 -0.5941  0.7034
 2563Sol     HW13355   0.896   0.221   6.049 -1.2988 -0.1241 -1.5988
 2563Sol     MW13356   0.854   0.143   6.066 -0.0824  0.1921 -0.3124
 2564Sol     OW13357   1.824   2.283   4.895 -0.2592 -0.5578 -0.2179
 2564Sol     HW13358   1.761   2.270   4.966 -1.2188 -0.6889 -1.0743
 2564Sol     HW13359   1.811   2.373   4.867  1.0051 -0.1094  0.6060
 2564Sol     MW13360   1.817   2.290   4.899 -0.1739 -0.3948  0.3034
 2565Sol     OW13361   2.751   2.916   2.919  0.2473  0.0912 -0.2992
 2565Sol     HW13362   2.675   2.975   2.918 -0.5474 -0.8458  1.5431
 2565Sol     HW13363   2.747   2.875   3.005  0.6710 -2.7959 -1.6315
 2565Sol     MW13364   2.743   2.918   2.927 -0.0121 -1.0459 -0.3878
 2566Sol     OW13365   1.864   3.192   9.459  0.4495  0.5609  0.4126
 2566Sol     HW13366   1.937   3.175   9.520  0.2035 -2.4651 -0.0609
 2566Sol     HW13367   1.902   3.177   9.373  0.1652  2.4744 -0.0518
 2566Sol     MW13368   1.874   3.189   9.457  0.9457 -0.0885  0.0844
 2567Sol     OW13369   3.130   0.270   1.442 -0.1683 -0.0982  0.0788
 2567Sol     HW13370   3.093   0.269   1.354  0.7696  1.6942 -0.3737
 2567Sol     HW13371   3.073   0.212   1.493 -1.6664  0.0936 -1.3321
 2567Sol     MW13372   3.121   0.265   1.439  0.2294  0.8995  0.4196
 2568Sol     OW13373   0.411   3.200   9.361  0.0986 -0.5712 -0.4956
 2568Sol     HW13374   0.405   3.110   9.394 -0.7543  0.0617  1.1390
 2568Sol     HW13375   0.322   3.221   9.332  0.1359 -0.0063 -0.2029
 2568Sol     MW13376   0.402   3.194   9.361 -0.0870  0.1166 -0.1069
 2569Sol     OW13377   1.252   3.382   8.521  0.5104  0.0134  0.0878
 2569Sol     HW13378   1.326   3.376   8.582  0.4784 -0.0582  0.1197
 2569Sol     HW13379   1.274   3.455   8.463  1.0045 -0.5424 -0.4305
 2569Sol     MW13380   1.261   3.388   8.522 -0.7091 -0.2226  0.5180
 2570Sol     OW13381   2.258   1.763   8.418 -0.3579  0.8566 -0.1128
 2570Sol     HW13382   2.300   1.677   8.426  0.3507  1.0291 -1.7473
 2570Sol     HW13383   2.303   1.805   8.345 -1.5492  2.1281 -0.1425
 2570Sol     MW13384   2.266   1.759   8.412  0.0968  0.5237  0.6163
 2571Sol     OW13385   1.125   1.903   2.062 -0.2192 -0.3173  0.1070
 2571Sol     HW13386   1.041   1.895   2.107 -0.6359  0.9356 -0.4484
 2571Sol     HW13387   1.157   1.812   2.055 -2.4966 -1.0449 -1.5330
 2571Sol     MW13388   1.120   1.894   2.065 -0.2142  0.2802  0.0880
 2572Sol     OW13389   2.207   2.688   3.330 -0.5691  0.3579  0.1106
 2572Sol     HW13390   2.285   2.685   3.384 -0.1942 -4.0741 -0.4778
 2572Sol     HW13391   2.134   2.693   3.393  0.0766  1.6400  0.7615
 2572Sol     MW13392   2.207   2.688   3.340 -0.0189 -0.2940 -0.0454
 2573Sol     OW13393   2.544   3.285   7.163  0.0482  0.5468 -0.3288
 2573Sol     HW13394   2.491   3.261   7.087 -0.0720  0.1994 -0.1397
 2573Sol     HW13395   2.574   3.201   7.198 -0.5021  0.6578  0.4338
 2573Sol     MW13396   2.542   3.275   7.160  0.2327  0.4700 -0.5907
 2574Sol     OW13397   1.167   0.295   6.880  0.2389  0.6743 -0.4756
 2574Sol     HW13398   1.139   0.374   6.926  3.1679  0.8544  1.0649
 2574Sol     HW13399   1.262   0.300   6.878  0.4169 -2.0967 -1.6795
 2574Sol     MW13400   1.173   0.303   6.884  0.0231 -0.3793  0.3043
 2575Sol     OW13401   1.410   2.616   3.458  0.1307  0.4029 -0.4718
 2575Sol     HW13402   1.372   2.695   3.498 -0.5727 -1.2724  2.2807
 2575Sol     HW13403   1.334   2.566   3.427  0.3480 -0.7526  0.8131
 2575Sol     MW13404   1.399   2.619   3.459  0.1551 -0.4916  0.5359
 2576Sol     OW13405   0.548   2.782   5.151 -0.7048  0.1178 -0.1069
 2576Sol     HW13406   0.570   2.792   5.058 -0.6375  0.4273 -0.0568
 2576Sol     HW13407   0.527   2.689   5.160  0.2763 -0.1261 -0.2277
 2576Sol     MW13408   0.548   2.775   5.143  0.1994 -0.1130 -0.3912
 2577Sol     OW13409   0.061   2.332   6.770 -0.0716 -0.3868  0.1062
 2577Sol     HW13410   0.072   2.251   6.819  1.7720 -0.6912 -0.7832
 2577Sol     HW13411   0.141   2.382   6.787 -0.9596  1.0452  0.2327
 2577Sol     MW13412   0.069   2.329   6.776 -0.4387 -0.0675 -0.2345
 2578Sol     OW13413   0.132   1.813   4.988  0.6149 -0.6277 -0.2623
 2578Sol     HW13414   0.227   1.809   4.989  0.7716  2.2675  0.2003
 2578Sol     HW13415   0.106   1.758   4.914  2.6229 -1.7136 -0.1697
 2578Sol     MW13416   0.138   1.808   4.981  0.4425  0.3867 -0.3356
 2579Sol     OW13417   2.097   2.002   1.428 -0.0603  0.5637 -0.3019
 2579Sol     HW13418   2.004   1.993   1.449  0.0756 -2.9161 -0.7702
 2579Sol     HW13419   2.142   1.956   1.499  1.2511  1.4459 -0.5414
 2579Sol     MW13420   2.093   1.997   1.436  0.1016  0.7675  0.3627
 2580Sol     OW13421   1.075   0.951   7.050  0.4843  0.1980 -0.1933
 2580Sol     HW13422   1.037   0.887   6.990 -1.5605 -0.4286  1.6822
 2580Sol     HW13423   1.160   0.915   7.074  0.5320 -0.4309 -1.3135
 2580Sol     MW13424   1.079   0.942   7.047  0.1063  0.0970  0.1472
 2581Sol     OW13425   3.153   0.067   4.549 -0.2920 -0.5928 -0.1634
 2581Sol     HW13426   3.083   0.025   4.599 -0.8552  1.1567  0.5749
 2581Sol     HW13427   3.221   0.086   4.614 -0.4739  0.5144 -0.2841
 2581Sol     MW13428   3.153   0.065   4.559  0.2348  0.7050 -0.0442
 2582Sol     OW13429   0.428   1.819   2.304  0.2304  0.3986 -0.0896
 2582Sol     HW13430   0.369   1.806   2.230 -1.0730 -0.5857  1.0924
 2582Sol     HW13431   0.456   1.731   2.328 -0.7769  0.5193  1.6836
 2582Sol     MW13432   0.425   1.810   2.300 -0.1713 -0.2429 -0.3831
 2583Sol     OW13433   0.456   2.050   8.184 -0.3993  0.0710 -0.3374
 2583Sol     HW13434   0.489   1.987   8.247  1.6574  0.2988 -1.1517
 2583Sol     HW13435   0.395   2.104   8.234  0.4450 -0.3724  1.2068
 2583Sol     MW13436   0.454   2.049   8.194 -0.6515  0.4078 -0.1369
 2584Sol     OW13437   1.661   1.895   7.226 -0.6542 -0.5886 -0.2915
 2584Sol     HW13438   1.596   1.890   7.296 -1.4614 -1.4260 -1.0890
 2584Sol     HW13439   1.674   1.805   7.198  0.5802 -0.3845 -0.3989
 2584Sol     MW13440   1.656   1.887   7.229 -0.4138  0.3132 -0.4509
 2585Sol     OW13441   0.449   1.100   4.239  0.3072  0.2433 -0.4661
 2585Sol     HW13442   0.487   1.174   4.288 -1.2822 -0.2963  1.6184
 2585Sol     HW13443   0.459   1.025   4.297 -1.5676 -0.4304 -0.9869
 2585Sol     MW13444   0.454   1.100   4.249 -0.4688 -0.4575  0.5891
 2586Sol     OW13445   2.297   0.179   5.774  0.1754 -0.0778  0.7178
 2586Sol     HW13446   2.314   0.141   5.688 -2.0870  0.0098  0.2119
 2586Sol     HW13447   2.356   0.254   5.780  0.0135  0.1896 -0.9422
 2586Sol     MW13448   2.304   0.182   5.767 -0.1520  0.2513  0.4524
 2587Sol     OW13449   1.388   0.008   6.443  0.2033 -0.1581 -0.7706
 2587Sol     HW13450   1.309  -0.037   6.413 -1.5258  3.0069 -1.2279
 2587Sol     HW13451   1.380   0.009   6.539 -0.5112  0.4607 -0.8321
 2587Sol     MW13452   1.380   0.004   6.449  0.4162  0.4193  0.2301
 2588Sol     OW13453   2.705   1.602   9.525 -0.0275  0.4178 -0.5744
 2588Sol     HW13454   2.652   1.641   9.455 -1.0349 -0.3573 -0.2522
 2588Sol     HW13455   2.739   1.521   9.487  1.5937  1.2968 -1.0461
 2588Sol     MW13456   2.703   1.598   9.515 -0.4744 -0.5205  0.0675
 2589Sol     OW13457   0.369   0.942   5.539  0.5899  0.6809  0.1135
 2589Sol     HW13458   0.339   1.029   5.563 -0.9408  0.3925 -0.6817
 2589Sol     HW13459   0.305   0.911   5.475  1.8162 -0.5272 -0.5670
 2589Sol     MW13460   0.361   0.947   5.536 -0.3384 -0.2584 -0.6836
 2590Sol     OW13461   2.452   2.871   6.972 -0.2897 -0.0931  0.0556
 2590Sol     HW13462   2.362   2.904   6.978  0.0107  0.9580 -1.0608
 2590Sol     HW13463   2.478   2.888   6.882  0.9795 -0.5670  0.3192
 2590Sol     MW13464   2.446   2.875   6.965 -0.7138 -0.1591  0.5898
 2591Sol     OW13465   0.641   1.655   3.786 -0.3669  0.1305  0.5873
 2591Sol     HW13466   0.716   1.600   3.762 -0.9861 -0.7881  0.7384
 2591Sol     HW13467   0.580   1.595   3.829 -0.4831  1.1895  1.9513
 2591Sol     MW13468   0.642   1.645   3.788 -0.2593 -0.2251  0.0502
 2592Sol     OW13469   2.262   1.672   9.386 -0.2078  0.0338  0.1925
 2592Sol     HW13470   2.262   1.620   9.466 -0.4247  0.3205  0.3812
 2592Sol     HW13471   2.349   1.711   9.382 -1.1199  2.3101  1.7911
 2592Sol     MW13472   2.270   1.671   9.393  0.2616  0.3198 -0.8051
 2593Sol     OW13473   1.696   0.144   4.192  0.6244 -0.1295 -0.1349
 2593Sol     HW13474   1.658   0.149   4.280 -0.4199 -0.4274 -0.5593
 2593Sol     HW13475   1.779   0.191   4.199 -0.8780  2.5430  0.2271
 2593Sol     MW13476   1.700   0.148   4.200 -0.8278  0.0760 -0.1126
 2594Sol     OW13477   1.855   0.416   9.752 -0.0986 -0.3350 -0.3607
 2594Sol     HW13478   1.949   0.422   9.768 -0.1858 -1.9352  0.9186
 2594Sol     HW13479   1.847   0.347   9.686 -0.5848 -2.9976  2.3673
 2594Sol     MW13480   1.862   0.410   9.747 -0.6848  0.9888 -0.1368
 2595Sol     OW13481   3.259   1.897   5.530 -0.0570 -0.2987 -0.3792
 2595Sol     HW13482   3.344   1.941   5.533  0.8403 -2.0056  0.0272
 2595Sol     HW13483   3.217   1.931   5.451  1.1792  0.2542 -0.8157
 2595Sol     MW13484   3.263   1.904   5.523  0.6285  0.3098  0.2916
 2596Sol     OW13485   0.685   2.267   4.927 -0.2329 -0.3337 -0.5055
 2596Sol     HW13486   0.592   2.277   4.905  0.1572  0.6123 -1.7649
 2596Sol     HW13487   0.728   2.343   4.887  0.5807  1.2498  3.1741
 2596Sol     MW13488   0.681   2.275   4.921  0.0645 -0.1266  0.3292
 2597Sol     OW13489   3.012   2.333   4.350 -0.0785 -0.2640 -0.6682
 2597Sol     HW13490   2.967   2.265   4.401 -0.6224  1.3084  0.9851
 2597Sol     HW13491   2.949   2.357   4.282 -0.6466 -0.0434 -0.0685
 2597Sol     MW13492   3.002   2.329   4.348  0.2143  0.2006 -0.2734
 2598Sol     OW13493   1.279   2.697   9.014  0.1844 -0.5994 -0.6046
 2598Sol     HW13494   1.235   2.769   8.969  0.2581  0.2365  0.6321
 2598Sol     HW13495   1.209   2.633   9.030 -0.5689  0.6148  1.1219
 2598Sol     MW13496   1.268   2.698   9.012  0.1629 -0.2359 -0.1175
 2599Sol     OW13497   1.775   0.851   6.577 -0.2558 -0.1456 -0.1991
 2599Sol     HW13498   1.689   0.822   6.547 -1.0659  3.2985 -1.3862
 2599Sol     HW13499   1.757   0.902   6.656  0.7961 -0.0692  0.0027
 2599Sol     MW13500   1.766   0.853   6.581 -0.2328  0.1214  0.6600
 2600Sol     OW13501   2.140   2.195   5.556  0.1766  0.0424 -0.3309
 2600Sol     HW13502   2.147   2.290   5.564 -0.8005  0.1034 -0.2135
 2600Sol     HW13503   2.227   2.163   5.579  0.6107  0.9260 -0.7021
 2600Sol     MW13504   2.149   2.201   5.558 -0.0547 -0.1617  0.6714
 2601Sol     OW13505   3.058   0.724   6.038 -0.0513 -0.2301  0.7032
 2601Sol     HW13506   3.056   0.644   5.984 -1.3020  0.7275 -0.7172
 2601Sol     HW13507   3.126   0.778   5.998  0.6623 -0.4890  1.5496
 2601Sol     MW13508   3.064   0.721   6.029  0.2170  0.3772  0.3807
 2602Sol     OW13509   0.228   0.215   2.691  0.9586  0.3144  1.0271
 2602Sol     HW13510   0.146   0.165   2.689  1.4332 -0.4240 -1.2811
 2602Sol     HW13511   0.272   0.186   2.771  0.7217 -2.1766  0.2888
 2602Sol     MW13512   0.225   0.208   2.698 -0.7860  0.0086 -0.2457
 2603Sol     OW13513   0.867   2.289   2.980  0.0805 -0.7320 -0.3240
 2603Sol     HW13514   0.946   2.341   2.994  1.3276 -2.6835  0.1130
 2603Sol     HW13515   0.839   2.263   3.068 -0.3385 -1.0668 -0.5543
 2603Sol     MW13516   0.871   2.291   2.989  0.0678 -0.0676  0.3118
 2604Sol     OW13517   2.335   3.213   3.260 -0.5175  0.0425 -0.1850
 2604Sol     HW13518   2.302   3.294   3.221 -1.8281 -0.7221 -0.7076
 2604Sol     HW13519   2.256   3.163   3.282  0.2520 -2.0763 -1.9945
 2604Sol     MW13520   2.325   3.215   3.258  0.3613 -0.1251  0.0359
 2605Sol     OW13521   2.639   0.562   5.202 -0.8257  0.2694 -0.4682
 2605Sol     HW13522   2.634   0.479   5.249  1.1161  0.7601  0.6324
 2605Sol     HW13523   2.600   0.626   5.262 -0.2083  0.5460 -0.3607
 2605Sol     MW13524   2.635   0.561   5.212 -0.5124  0.0150  0.1697
 2606Sol     OW13525   3.187   0.981   4.879  0.3458  0.3141 -0.1999
 2606Sol     HW13526   3.203   1.045   4.810  1.1293 -0.8983 -1.1663
 2606Sol     HW13527   3.269   0.979   4.929  0.5635 -0.4006 -0.5738
 2606Sol     MW13528   3.196   0.987   4.877  0.1448  0.2268  0.4830
 2607Sol     OW13529   2.520   0.966   2.236 -0.5292 -0.3330  0.2715
 2607Sol     HW13530   2.608   0.937   2.260 -1.1235 -2.5014 -0.0755
 2607Sol     HW13531   2.484   0.894   2.183 -2.7498  0.2116  0.9713
 2607Sol     MW13532   2.525   0.957   2.233 -0.5889 -0.4805  0.4079
 2608Sol     OW13533   3.057   0.837   8.702 -0.4676  0.6609  0.0548
 2608Sol     HW13534   3.018   0.757   8.668  2.3842 -1.0979  0.7644
 2608Sol     HW13535   3.057   0.898   8.628 -3.0466  0.2060 -0.3737
 2608Sol     MW13536   3.053   0.835   8.693 -0.3816  0.2006 -0.0761
 2609Sol     OW13537   1.261   2.022   5.855 -0.2102 -0.4176  0.4960
 2609Sol     HW13538   1.355   2.005   5.859  0.1738  0.8978 -1.5901
 2609Sol     HW13539   1.254   2.102   5.802 -2.4978 -0.4469  0.7051
 2609Sol     MW13540   1.269   2.028   5.850  0.2052  0.0996 -0.4174
 2610Sol     OW13541   0.536   1.935   6.118  0.3253 -0.2831 -0.0906
 2610Sol     HW13542   0.453   1.928   6.165  1.2843 -1.1983  1.5315
 2610Sol     HW13543   0.575   2.016   6.151 -0.4954  0.8265 -1.8160
 2610Sol     MW13544   0.532   1.942   6.125 -0.3531  0.2095  0.0081
 2611Sol     OW13545   2.741   2.369   9.301  0.3676 -0.0825 -0.1605
 2611Sol     HW13546   2.727   2.316   9.380  0.9427 -1.1159 -0.7309
 2611Sol     HW13547   2.660   2.418   9.290 -0.0035 -0.4971  0.6504
 2611Sol     MW13548   2.733   2.369   9.307  0.0699 -0.5734 -0.1359
 2612Sol     OW13549   2.516   2.837   8.242 -0.0164 -0.2762  0.0711
 2612Sol     HW13550   2.588   2.873   8.191  0.2870 -1.7481 -0.5925
 2612Sol     HW13551   2.464   2.912   8.269 -0.4488  0.4978 -2.8477
 2612Sol     MW13552   2.518   2.847   8.240  0.2740  0.0400 -0.6863
 2613Sol     OW13553   0.418   1.540   7.598  0.4053 -0.5959  0.0013
 2613Sol     HW13554   0.351   1.597   7.635  0.1405 -0.3851 -0.8008
 2613Sol     HW13555   0.490   1.599   7.576  1.0318 -0.8725  1.2378
 2613Sol     MW13556   0.419   1.550   7.599  0.1523  0.3373 -0.0222
 2614Sol     OW13557   1.506   0.533   8.737 -0.6948  0.3277 -0.4504
 2614Sol     HW13558   1.428   0.583   8.761 -0.0852  1.3376 -0.5482
 2614Sol     HW13559   1.579   0.591   8.757 -0.0645  0.2983 -2.5231
 2614Sol     MW13560   1.506   0.543   8.741 -0.2929  0.3320  0.7080
 2615Sol     OW13561   0.318   0.959   8.512 -0.0696  0.1217 -0.4577
 2615Sol     HW13562   0.314   0.988   8.603 -1.5531 -1.0533 -0.1239
 2615Sol     HW13563   0.252   1.012   8.467  0.4621  0.4998 -0.8097
 2615Sol     MW13564   0.312   0.967   8.516  0.0829  0.2246 -0.7330
 2616Sol     OW13565   2.894   0.336   5.120 -0.2093  0.7945  0.4344
 2616Sol     HW13566   2.989   0.349   5.118 -0.0406 -0.4745 -0.1527
 2616Sol     HW13567   2.880   0.254   5.074 -1.6396  1.1807  0.1541
 2616Sol     MW13568   2.901   0.330   5.116 -0.2723 -0.1244  0.1104
 2617Sol     OW13569   2.725   1.882   4.006 -0.4196  0.0260 -0.6371
 2617Sol     HW13570   2.689   1.793   4.009 -0.4834  0.1008  1.1137
 2617Sol     HW13571   2.648   1.938   4.002 -0.3928  0.0505 -0.8613
 2617Sol     MW13572   2.715   1.879   4.006  0.1150  0.4203 -0.0639
 2618Sol     OW13573   2.645   0.448   6.351 -0.0180  0.5241  0.1574
 2618Sol     HW13574   2.706   0.519   6.334  0.9727 -0.4468 -0.4602
 2618Sol     HW13575   2.699   0.369   6.345 -1.0199 -0.2509  1.1972
 2618Sol     MW13576   2.656   0.447   6.349 -0.0743 -0.2197  0.8458
 2619Sol     OW13577   3.321   0.795   3.456  0.5583  0.7924  0.1526
 2619Sol     HW13578   3.324   0.884   3.492  1.5642  0.1542  1.7326
 2619Sol     HW13579   3.228   0.776   3.445  0.3644  2.3783 -1.0948
 2619Sol     MW13580   3.313   0.801   3.458  0.3102 -0.4905 -0.6126
 2620Sol     OW13581   0.614   2.476   5.684 -0.0949  0.1337  1.0026
 2620Sol     HW13582   0.545   2.543   5.688  0.5374  0.8427  0.3318
 2620Sol     HW13583   0.688   2.520   5.641  0.9201 -0.4939  2.0633
 2620Sol     MW13584   0.615   2.486   5.680  0.3156  0.2916  0.2613
 2621Sol     OW13585   2.395   0.839   2.911  0.6001 -0.0185 -0.3451
 2621Sol     HW13586   2.406   0.924   2.955  1.6535  0.6011 -1.7346
 2621Sol     HW13587   2.301   0.828   2.903  0.3869 -0.1579  2.0673
 2621Sol     MW13588   2.388   0.846   2.914 -1.1073  0.3750 -0.2748
 2622Sol     OW13589   2.724   1.054   3.762  0.6086 -0.5467 -0.2425
 2622Sol     HW13590   2.786   1.100   3.819 -0.4143  0.1410  0.3262
 2622Sol     HW13591   2.706   1.116   3.692  3.0569 -1.9585 -2.2098
 2622Sol     MW13592   2.728   1.064   3.761  0.1333 -0.2631 -0.2270
 2623Sol     OW13593   1.914   1.521   3.193 -0.5742 -0.3397 -0.1202
 2623Sol     HW13594   1.905   1.545   3.286  1.0011 -1.2729  0.2848
 2623Sol     HW13595   1.938   1.602   3.149 -0.4067 -0.0876  0.4366
 2623Sol     MW13596   1.915   1.530   3.198  0.1815  0.5640 -0.6644
 2624Sol     OW13597   0.991   0.548   9.209 -0.4623  0.1223  0.1699
 2624Sol     HW13598   0.977   0.522   9.118 -1.0984  1.7038 -0.2070
 2624Sol     HW13599   1.029   0.471   9.251 -0.2579 -0.6511 -1.4096
 2624Sol     MW13600   0.993   0.539   9.205  0.0653 -0.1638  0.1571
 2625Sol     OW13601   0.362   1.088   8.759 -0.0497 -0.4238  0.1040
 2625Sol     HW13602   0.373   1.009   8.811 -3.1287 -0.9038  0.1536
 2625Sol     HW13603   0.321   1.151   8.820 -1.4024 -0.1825 -1.0282
 2625Sol     MW13604   0.359   1.087   8.769  0.5261 -0.0685 -0.4042
 2626Sol     OW13605   1.737   0.624   8.294  0.1846 -0.0916 -0.6505
 2626Sol     HW13606   1.680   0.571   8.350  1.4671  1.1516  1.8723
 2626Sol     HW13607   1.763   0.565   8.224 -3.4985 -0.9462 -1.4100
 2626Sol     MW13608   1.734   0.614   8.292 -0.1353 -0.2458  0.4468
 2627Sol     OW13609   1.499   0.537   7.104 -0.1750 -0.4531  0.1633
 2627Sol     HW13610   1.545   0.586   7.172 -0.4794  0.0964 -0.0216
 2627Sol     HW13611   1.530   0.447   7.114  0.1943 -0.2729  0.6727
 2627Sol     MW13612   1.506   0.534   7.111  0.0591 -0.0988  0.0124
 2628Sol     OW13613   2.803   0.684   7.608 -0.0551 -0.3828 -0.1209
 2628Sol     HW13614   2.724   0.729   7.639 -0.0900  0.4882 -1.4319
 2628Sol     HW13615   2.798   0.690   7.512  1.4428 -0.5859 -0.2256
 2628Sol     MW13616   2.796   0.688   7.602 -0.9147  0.1560 -0.4772
 2629Sol     OW13617   1.732   2.920   2.779 -0.1533  0.1987 -0.0393
 2629Sol     HW13618   1.681   2.904   2.699  1.9046  0.5472 -1.4725
 2629Sol     HW13619   1.741   2.834   2.819 -0.6654 -0.0929 -0.5411
 2629Sol     MW13620   1.729   2.911   2.775  0.1422 -0.7780  0.7602
 2630Sol     OW13621   0.461   2.814   7.375  0.3283  0.2361 -0.3315
 2630Sol     HW13622   0.549   2.775   7.380  0.2263 -0.0235 -0.5670
 2630Sol     HW13623   0.435   2.826   7.466  0.0055 -1.0398 -0.2407
 2630Sol     MW13624   0.467   2.811   7.384 -0.9991 -0.6418 -0.5346
 2631Sol     OW13625   3.175   2.333   4.135 -0.4194 -0.4344 -0.0018
 2631Sol     HW13626   3.264   2.360   4.155  0.0566 -1.9983  0.0685
 2631Sol     HW13627   3.133   2.321   4.220 -0.7807  0.5131 -0.0344
 2631Sol     MW13628   3.179   2.334   4.144  0.0903  0.5308 -0.0263
 2632Sol     OW13629   2.629   0.056   7.276  0.1302 -0.3574  0.3169
 2632Sol     HW13630   2.718   0.037   7.305  0.8825  2.1868 -0.1852
 2632Sol     HW13631   2.595  -0.028   7.247  3.3218 -0.9282 -2.0493
 2632Sol     MW13632   2.634   0.047   7.276 -0.5029 -0.2044 -0.0909
 2633Sol     OW13633   1.611   3.223   8.436  0.3176 -0.2960  0.5325
 2633Sol     HW13634   1.645   3.274   8.362 -1.1879 -0.0071  0.0210
 2633Sol     HW13635   1.679   3.158   8.454  0.9377 -0.0155 -0.7529
 2633Sol     MW13636   1.620   3.222   8.431 -0.0021  0.5772  0.5715
 2634Sol     OW13637   1.216   1.382   9.418  0.0051 -0.3504  0.0785
 2634Sol     HW13638   1.270   1.378   9.497 -0.0974 -0.3723  0.1477
 2634Sol     HW13639   1.151   1.312   9.431 -2.2848  1.9466  1.6655
 2634Sol     MW13640   1.215   1.375   9.426 -0.1027 -0.4615  0.6927
 2635Sol     OW13641   0.072   1.801   6.591 -0.1917  0.5250 -0.6891
 2635Sol     HW13642   0.032   1.733   6.646  1.5988 -0.1739 -0.2436
 2635Sol     HW13643   0.062   1.768   6.502  1.2057 -0.6341 -0.4372
 2635Sol     MW13644   0.067   1.792   6.588  0.1757 -0.3490 -0.3402
 2636Sol     OW13645   1.026   0.268   6.618 -0.0707 -0.5249 -0.0499
 2636Sol     HW13646   1.015   0.363   6.609  0.4871 -0.2751  1.7310
 2636Sol     HW13647   1.070   0.257   6.702  0.7679 -2.3181 -0.7026
 2636Sol     MW13648   1.029   0.276   6.625  0.6302 -0.3190  0.2393
 2637Sol     OW13649   2.391   1.533   8.461  0.0237  0.2901  0.3476
 2637Sol     HW13650   2.450   1.512   8.389 -2.5404  1.1037 -2.0812
 2637Sol     HW13651   2.341   1.453   8.475  0.3331  0.2173  1.0922
 2637Sol     MW13652   2.392   1.524   8.456  0.7279  0.3052 -0.0765
 2638Sol     OW13653   0.732   1.301   3.264 -0.3895 -0.5607  0.3434
 2638Sol     HW13654   0.805   1.293   3.202 -2.0722 -0.1144 -1.7668
 2638Sol     HW13655   0.714   1.212   3.291  2.5835 -0.4805  2.9491
 2638Sol     MW13656   0.737   1.293   3.261 -0.2393 -0.3021  0.1150
 2639Sol     OW13657   1.818   1.633   8.711 -0.1066 -0.1795 -0.1427
 2639Sol     HW13658   1.885   1.640   8.643 -0.5176  1.3524 -0.4111
 2639Sol     HW13659   1.861   1.667   8.790 -0.0588 -0.6896  0.0494
 2639Sol     MW13660   1.828   1.637   8.712  0.3982  0.2908 -0.0454
 2640Sol     OW13661   1.990   2.818   3.005  0.1750 -0.5913 -0.2765
 2640Sol     HW13662   2.031   2.734   2.987  2.1435  0.3610 -0.2919
 2640Sol     HW13663   2.032   2.880   2.945 -1.6862  0.2995 -0.7119
 2640Sol     MW13664   1.997   2.816   2.998 -0.0958  0.3756  0.3079
 2641Sol     OW13665   2.835   1.080   7.745  0.8544  0.1336  0.2450
 2641Sol     HW13666   2.836   1.159   7.691  3.4815 -0.1806 -0.2135
 2641Sol     HW13667   2.776   1.020   7.698  1.0104  0.8318 -0.8699
 2641Sol     MW13668   2.829   1.081   7.736 -0.0183  1.0351  0.0611
 2642Sol     OW13669   1.872   1.814   9.911 -0.4926  0.1435 -0.4512
 2642Sol     HW13670   1.873   1.783  10.002  2.1952 -2.7106 -1.3695
 2642Sol     HW13671   1.925   1.894   9.913 -0.8416  0.3598  0.5767
 2642Sol     MW13672   1.877   1.819   9.920 -0.7624 -0.1785 -0.1629
 2643Sol     OW13673   0.554   1.224   6.181  0.1392 -0.0572  0.3350
 2643Sol     HW13674   0.545   1.183   6.095 -0.0268  1.2115 -0.2651
 2643Sol     HW13675   0.551   1.318   6.163  0.5595  0.2241  1.6782
 2643Sol     MW13676   0.553   1.229   6.171  0.2781 -0.3210  0.5962
 2644Sol     OW13677   0.281   1.501   7.212  0.1326 -0.5045  0.0871
 2644Sol     HW13678   0.321   1.428   7.260  0.8178 -0.1056  0.1369
 2644Sol     HW13679   0.329   1.578   7.242 -1.0093  0.0571  0.5010
 2644Sol     MW13680   0.289   1.501   7.219 -0.3642  0.3052  0.1518
 2645Sol     OW13681   1.655   2.657   6.797  0.3909 -0.1392  0.0060
 2645Sol     HW13682   1.712   2.593   6.842  1.5793  0.2724 -0.8853
 2645Sol     HW13683   1.613   2.705   6.868 -0.8031 -2.1565  0.6997
 2645Sol     MW13684   1.657   2.655   6.808  0.0125 -0.5139 -0.5828
 2646Sol     OW13685   2.657   1.364   6.122  0.3089  0.3635  0.0269
 2646Sol     HW13686   2.646   1.459   6.132 -1.0759  0.1663  0.5310
 2646Sol     HW13687   2.633   1.329   6.208  0.2065 -0.4832 -0.3499
 2646Sol     MW13688   2.654   1.370   6.131  0.1829  0.3038  0.4537
 2647Sol     OW13689   0.777   0.680   2.255 -0.5579 -0.7382  0.0698
 2647Sol     HW13690   0.758   0.616   2.324  1.9410 -1.8227 -0.1640
 2647Sol     HW13691   0.716   0.658   2.185 -0.4761 -2.2185  0.4266
 2647Sol     MW13692   0.770   0.672   2.255 -0.1875  0.4010 -0.1283
 2648Sol     OW13693   1.000   3.064   4.587  0.0396  0.0802  0.5275
 2648Sol     HW13694   0.986   2.998   4.519  1.0620  0.1611  0.2201
 2648Sol     HW13695   0.988   3.147   4.542  4.2094  0.2459 -0.4775
 2648Sol     MW13696   0.998   3.065   4.577 -0.7301  0.2647  0.3173
 2649Sol     OW13697   3.284   2.183   3.700  0.2397 -0.0892 -0.4070
 2649Sol     HW13698   3.258   2.158   3.788 -1.4767 -1.6272 -1.3093
 2649Sol     HW13699   3.345   2.115   3.672 -1.9092 -1.5650 -1.6527
 2649Sol     MW13700   3.287   2.175   3.705 -0.4209 -0.3345  0.3256
 2650Sol     OW13701   0.899   0.246   9.070  0.6179  0.4738  0.7754
 2650Sol     HW13702   0.842   0.322   9.076 -0.3785 -0.1630 -0.3627
 2650Sol     HW13703   0.987   0.282   9.066  0.0489  1.6932 -1.8145
 2650Sol     MW13704   0.902   0.256   9.070  0.0426 -0.6453  0.2184
 2651Sol     OW13705   2.299   1.977  10.018 -0.2835 -0.2614  0.2146
 2651Sol     HW13706   2.351   1.908   9.977  0.0294  1.1949 -1.9045
 2651Sol     HW13707   2.354   2.011  10.088  0.3167 -0.9106  0.0601
 2651Sol     MW13708   2.308   1.974  10.020 -0.5347 -0.1323  0.7252
 2652Sol     OW13709   0.767   3.429   2.800 -0.5299 -0.4259 -0.8928
 2652Sol     HW13710   0.814   3.350   2.829 -0.3796 -0.5706 -1.5311
 2652Sol     HW13711   0.682   3.423   2.844 -0.4894 -0.9080 -0.8709
 2652Sol     MW13712   0.763   3.421   2.807 -0.1264  0.5782  0.6899
 2653Sol     OW13713   1.735   1.998   4.893 -0.0222  0.1551 -0.4049
 2653Sol     HW13714   1.644   2.018   4.917 -0.1905  1.0393 -1.7519
 2653Sol     HW13715   1.782   2.080   4.907  0.5983 -0.3069  0.3174
 2653Sol     MW13716   1.731   2.007   4.897 -0.1444 -0.4406  0.1852
 2654Sol     OW13717   0.133   0.869   2.161  0.4469 -0.4593 -0.0961
 2654Sol     HW13718   0.159   0.912   2.080  1.4293  0.6900  0.8039
 2654Sol     HW13719   0.195   0.902   2.226 -0.5290 -1.1239  1.1851
 2654Sol     MW13720   0.141   0.876   2.160 -0.8030  0.1037  0.0122
 2655Sol     OW13721   1.260   2.919   4.674  0.0612  0.1881  0.2084
 2655Sol     HW13722   1.186   2.973   4.646 -0.2237 -0.0315  0.5372
 2655Sol     HW13723   1.261   2.845   4.614 -0.4503 -0.1989  0.6721
 2655Sol     MW13724   1.254   2.917   4.666  0.2637  0.2463  0.4392
 2656Sol     OW13725   2.691   1.983   9.386  0.3934 -0.2415  0.4476
 2656Sol     HW13726   2.769   1.986   9.331  0.1276 -0.2789  0.0620
 2656Sol     HW13727   2.717   1.930   9.461  0.7702 -0.1674  0.3708
 2656Sol     MW13728   2.700   1.978   9.388  0.0953  0.2543 -0.8983
 2657Sol     OW13729   3.075   2.323   9.207  0.0760 -0.4829 -0.2301
 2657Sol     HW13730   3.097   2.321   9.114 -0.9466 -0.7060 -0.4735
 2657Sol     HW13731   3.050   2.414   9.224  2.6768  0.1667  0.4220
 2657Sol     MW13732   3.075   2.331   9.200 -0.1363 -0.6059 -0.2297
 2658Sol     OW13733   2.631   1.567   4.704 -0.0804 -0.3066  0.1067
 2658Sol     HW13734   2.670   1.482   4.724  1.2078  0.6168  1.6034
 2658Sol     HW13735   2.704   1.621   4.676 -0.9368  0.2545 -1.0605
 2658Sol     MW13736   2.641   1.564   4.704  0.2622 -0.2727 -0.0649
 2659Sol     OW13737   0.487   1.101   2.184 -0.0528 -0.0459  0.7157
 2659Sol     HW13738   0.556   1.037   2.166 -0.5771  0.0473 -1.7214
 2659Sol     HW13739   0.520   1.183   2.147 -1.1265  0.1693  0.2173
 2659Sol     MW13740   0.496   1.103   2.179 -0.4116 -0.0448 -0.3082
 2660Sol     OW13741   0.911   3.363   7.431  0.3205 -0.3086  0.5047
 2660Sol     HW13742   0.851   3.356   7.356 -0.1594 -0.3733  0.8870
 2660Sol     HW13743   0.920   3.457   7.446 -1.3579 -0.3219  1.7511
 2660Sol     MW13744   0.906   3.371   7.426  0.5762 -0.0392  0.1244
 2661Sol     OW13745   2.047   1.013   3.047  0.6072  0.4091  0.1399
 2661Sol     HW13746   2.033   1.103   3.017  0.5185  0.5461  0.5885
 2661Sol     HW13747   2.075   0.965   2.968 -1.0389  0.4305 -0.4684
 2661Sol     MW13748   2.048   1.017   3.037 -0.3700  0.0590 -0.0519
 2662Sol     OW13749   0.997   3.237   2.183  0.4500  0.2286 -0.5664
 2662Sol     HW13750   0.918   3.290   2.186  1.9333  2.6412 -1.6734
 2662Sol     HW13751   1.039   3.251   2.268  0.4507  0.1993 -0.5619
 2662Sol     MW13752   0.994   3.243   2.191 -0.4844 -0.1724  0.4938
 2663Sol     OW13753   1.652   0.071   5.315  0.4070  0.2956  0.2614
 2663Sol     HW13754   1.566   0.055   5.277  1.0043  1.1823 -1.5037
 2663Sol     HW13755   1.657   0.012   5.390 -0.8310 -1.4216 -0.9820
 2663Sol     MW13756   1.645   0.064   5.318 -0.5227  0.1731  0.3404
 2664Sol     OW13757   0.062   0.628   8.491 -0.6165  0.7773  0.1656
 2664Sol     HW13758   0.039   0.716   8.521  0.2412  0.9443  0.3511
 2664Sol     HW13759   0.000   0.570   8.534 -0.7069  1.2180  0.6275
 2664Sol     MW13760   0.055   0.631   8.497  0.7728  0.0649  0.5175
 2665Sol     OW13761   1.263   3.270   7.577  0.3986  0.9917 -0.1301
 2665Sol     HW13762   1.325   3.210   7.535 -1.2954  0.5351 -2.0750
 2665Sol     HW13763   1.261   3.346   7.519 -0.3633  1.2671  0.2495
 2665Sol     MW13764   1.268   3.271   7.568 -0.2759  0.3548 -0.3157
 2666Sol     OW13765   1.778   2.424   4.326 -0.2763  0.0106  0.4360
 2666Sol     HW13766   1.848   2.413   4.390  0.4473 -0.5024 -0.4436
 2666Sol     HW13767   1.819   2.407   4.241 -1.2992  0.3856 -0.1449
 2666Sol     MW13768   1.788   2.422   4.324 -0.3710 -0.1537 -0.3767
 2667Sol     OW13769   0.105   2.391   4.116  0.1637 -0.3051  0.0010
 2667Sol     HW13770   0.185   2.364   4.162  1.0806  1.9757 -0.1827
 2667Sol     HW13771   0.094   2.483   4.140 -0.8214  0.1774 -2.2459
 2667Sol     MW13772   0.111   2.397   4.122 -0.8321 -0.0178  0.5961
 2668Sol     OW13773   1.410   0.081   5.214 -0.0146 -0.2974 -0.2048
 2668Sol     HW13774   1.360   0.043   5.142 -0.4959  1.0093 -0.5685
 2668Sol     HW13775   1.377   0.170   5.222  0.5982 -0.1757  1.1123
 2668Sol     MW13776   1.403   0.085   5.208 -0.0393  0.6423  0.2280
 2669Sol     OW13777   2.996   0.112   8.832 -0.6152 -0.2483 -0.3650
 2669Sol     HW13778   3.037   0.063   8.761  1.2111  1.1513 -0.3001
 2669Sol     HW13779   3.043   0.085   8.911 -2.0030 -1.0712  0.2124
 2669Sol     MW13780   3.004   0.105   8.833  0.6847 -0.0279  0.4853
 2670Sol     OW13781   1.076   0.342   5.575  0.1892  0.3216  0.5657
 2670Sol     HW13782   1.038   0.293   5.648  1.2570 -1.6546 -0.1726
 2670Sol     HW13783   1.114   0.275   5.519 -0.4870  1.8272 -1.7437
 2670Sol     MW13784   1.076   0.332   5.577 -0.2229 -0.1101 -0.0700
 2671Sol     OW13785   2.473   3.163   7.716 -0.2587  0.7221  0.6050
 2671Sol     HW13786   2.398   3.115   7.751 -0.4029  0.2551 -0.3207
 2671Sol     HW13787   2.439   3.204   7.636  0.2761  1.1094  0.5809
 2671Sol     MW13788   2.463   3.162   7.712 -0.0144 -0.0086 -0.2460
 2672Sol     OW13789   0.234   0.120   7.171 -0.0264 -0.0912  0.4232
 2672Sol     HW13790   0.259   0.210   7.190 -0.6874  0.0929  0.4259
 2672Sol     HW13791   0.192   0.089   7.251 -0.1551 -0.2727  0.2864
 2672Sol     MW13792   0.233   0.125   7.179  0.6621  0.2946 -0.6065
 2673Sol     OW13793   0.882   1.853   8.246 -0.6239 -0.2436  0.8284
 2673Sol     HW13794   0.883   1.863   8.150  0.0799  0.4828  0.8986
 2673Sol     HW13795   0.927   1.770   8.262 -0.7144 -0.3513  0.5316
 2673Sol     MW13796   0.886   1.847   8.238  0.3822 -0.4294 -0.3945
 2674Sol     OW13797   3.208   1.620   9.351  0.0582 -0.0774  0.2328
 2674Sol     HW13798   3.284   1.654   9.397 -0.7694  0.4518  1.2404
 2674Sol     HW13799   3.181   1.692   9.293  0.7204 -0.5071 -0.6022
 2674Sol     MW13800   3.212   1.630   9.350 -0.2012  0.0941  0.3097
 2675Sol     OW13801   0.769   1.889   7.339 -0.0610 -0.0741  0.2626
 2675Sol     HW13802   0.834   1.951   7.373  1.9724 -2.1413  0.2364
 2675Sol     HW13803   0.778   1.894   7.244  1.3981 -1.6950  0.2891
 2675Sol     MW13804   0.776   1.895   7.334  0.1587 -0.0219  0.5100
 2676Sol     OW13805   2.524   3.205   5.165  0.2063  0.3984 -0.0860
 2676Sol     HW13806   2.519   3.285   5.113  2.9946 -0.1020 -1.2202
 2676Sol     HW13807   2.570   3.231   5.245  2.0959 -0.2595 -0.9328
 2676Sol     MW13808   2.527   3.215   5.168  0.6610  0.4858  0.4614
 2677Sol     OW13809   0.120   0.322   4.871  0.1219  0.1890  0.0825
 2677Sol     HW13810   0.093   0.405   4.910  0.7251  0.4297 -0.0119
 2677Sol     HW13811   0.178   0.283   4.937 -0.2506 -0.2177  0.1777
 2677Sol     MW13812   0.123   0.326   4.881 -0.5368  0.1680 -0.0804
 2678Sol     OW13813   1.269   0.564   6.436 -0.0753 -0.0375 -0.0803
 2678Sol     HW13814   1.236   0.637   6.383 -2.7595 -0.4221  0.9602
 2678Sol     HW13815   1.273   0.491   6.374  1.0448  0.5727 -0.7477
 2678Sol     MW13816   1.266   0.564   6.425 -0.5398  0.8129 -0.1258
 2679Sol     OW13817   3.148   0.394   7.218 -0.0616 -0.8492 -0.1381
 2679Sol     HW13818   3.164   0.324   7.155  0.4221  0.5195 -1.5743
 2679Sol     HW13819   3.060   0.426   7.197  0.5378  0.3562 -0.8758
 2679Sol     MW13820   3.142   0.391   7.211 -0.5653 -0.1448  0.0641
 2680Sol     OW13821   2.298   0.962   4.164 -0.0416  0.2119  0.3818
 2680Sol     HW13822   2.223   1.018   4.148 -0.8139 -0.7742  0.4807
 2680Sol     HW13823   2.374   1.016   4.143 -0.8303  0.7794 -1.0536
 2680Sol     MW13824   2.298   0.972   4.161  0.7753 -0.2794 -0.1321
 2681Sol     OW13825   2.169   0.751   9.777  0.1547  0.0335  0.0620
 2681Sol     HW13826   2.167   0.707   9.692  0.0249  0.5180 -0.1902
 2681Sol     HW13827   2.186   0.843   9.755  1.6655 -0.0923  0.6566
 2681Sol     MW13828   2.171   0.756   9.767 -0.9450  0.2685  0.3157
 2682Sol     OW13829   2.679   1.916   9.677 -0.4901  0.5079 -0.4498
 2682Sol     HW13830   2.637   1.850   9.731  1.5655 -0.4050  0.0920
 2682Sol     HW13831   2.612   1.983   9.664 -2.1407 -0.9825  0.2045
 2682Sol     MW13832   2.669   1.917   9.680  0.1824  0.4128 -0.7958
 2683Sol     OW13833   1.159   0.776   5.523  0.3486  0.3991 -0.2974
 2683Sol     HW13834   1.209   0.850   5.491  1.0344 -0.2537 -0.7423
 2683Sol     HW13835   1.168   0.709   5.455 -0.4590 -0.0065 -0.0150
 2683Sol     MW13836   1.164   0.776   5.514 -0.0584  0.0448 -0.4271
 2684Sol     OW13837   0.577   2.432   6.007 -0.0989  0.2257  0.4645
 2684Sol     HW13838   0.493   2.477   6.014 -0.6913 -0.7293 -0.3055
 2684Sol     HW13839   0.585   2.411   5.913 -0.0538 -1.6739  0.8820
 2684Sol     MW13840   0.570   2.434   5.999 -0.8647 -0.3295  0.0367
 2685Sol     OW13841   2.747   2.224   6.954 -0.3724  0.7595  0.1589
 2685Sol     HW13842   2.799   2.223   7.034  2.5790 -1.2722 -1.6465
 2685Sol     HW13843   2.812   2.235   6.884 -2.5155 -0.3976 -2.1060
 2685Sol     MW13844   2.758   2.225   6.955 -0.6926 -0.1930  0.7036
 2686Sol     OW13845   2.765   0.685   1.582  0.7476 -0.4455 -0.2345
 2686Sol     HW13846   2.763   0.590   1.597 -2.3241 -0.8659 -2.6697
 2686Sol     HW13847   2.811   0.696   1.499 -1.6050 -0.1652 -1.5704
 2686Sol     MW13848   2.769   0.677   1.576  0.3631 -0.1866 -0.7061
 2687Sol     OW13849   3.070   0.462   3.240  0.0583  0.1109  0.2589
 2687Sol     HW13850   3.066   0.511   3.158 -1.4152  1.0109  0.8443
 2687Sol     HW13851   3.145   0.404   3.230  0.0333  0.3821 -1.6308
 2687Sol     MW13852   3.076   0.461   3.232 -0.2705 -0.2571 -0.2075
 2688Sol     OW13853   0.843   3.332   9.512 -0.7686  0.4092 -0.0969
 2688Sol     HW13854   0.789   3.332   9.433 -1.6050  2.0419  0.4526
 2688Sol     HW13855   0.911   3.267   9.495 -2.0667 -0.6518 -1.3764
 2688Sol     MW13856   0.844   3.326   9.504  0.5699 -0.2556 -0.4269
 2689Sol     OW13857   1.408   0.458   4.135 -0.0762 -0.6192 -0.1089
 2689Sol     HW13858   1.380   0.422   4.219  0.3769 -0.2141  0.2223
 2689Sol     HW13859   1.398   0.386   4.073 -0.1698 -0.9971  0.3461
 2689Sol     MW13860   1.405   0.448   4.137 -0.1726  0.3833 -0.1611
 2690Sol     OW13861   2.528   3.104   3.871 -0.7936 -0.1082 -0.4074
 2690Sol     HW13862   2.555   3.177   3.816  0.4674 -0.2213  0.0235
 2690Sol     HW13863   2.607   3.049   3.877 -1.4631 -1.0380 -0.0105
 2690Sol     MW13864   2.538   3.106   3.867 -0.5675  0.2569 -0.2589
 2691Sol     OW13865   1.977   0.525   3.381 -0.3159  0.2873 -0.1612
 2691Sol     HW13866   1.938   0.479   3.455  2.0785 -1.6515 -0.0574
 2691Sol     HW13867   1.948   0.476   3.304 -1.5416  1.3933 -0.4269
 2691Sol     MW13868   1.971   0.517   3.381 -0.3034  0.7923  0.0477
 2692Sol     OW13869   2.006   1.367   9.621  0.2966 -0.3240  0.4061
 2692Sol     HW13870   2.033   1.280   9.592 -0.3571  0.1155 -1.5983
 2692Sol     HW13871   2.083   1.422   9.611 -0.8675  0.6754 -4.2343
 2692Sol     MW13872   2.015   1.364   9.617 -0.2139 -0.3627  0.4504
 2693Sol     OW13873   2.287   1.139   3.863 -0.0998  0.8101 -0.2541
 2693Sol     HW13874   2.352   1.072   3.881 -0.3837 -0.5059 -3.8293
 2693Sol     HW13875   2.294   1.199   3.937  3.6439 -0.4673  0.5342
 2693Sol     MW13876   2.294   1.139   3.871  0.5304 -0.3906  0.0026
 2694Sol     OW13877   2.375   0.211   3.654 -0.1064 -0.3334 -0.0635
 2694Sol     HW13878   2.407   0.183   3.740  0.0735  3.0043  1.0024
 2694Sol     HW13879   2.434   0.167   3.592  2.8769  1.0261  1.6866
 2694Sol     MW13880   2.383   0.204   3.656  0.6303  0.0367 -0.6893
 2695Sol     OW13881   2.836   3.118   6.849  0.0301 -0.9064  0.6362
 2695Sol     HW13882   2.811   3.204   6.881 -2.5409 -1.3707  0.0218
 2695Sol     HW13883   2.878   3.076   6.924  1.4363  0.9127  0.8886
 2695Sol     MW13884   2.837   3.122   6.859  0.2414  0.2037 -0.1783
 2696Sol     OW13885   1.266   2.797   6.545  0.0084 -0.2032  0.2079
 2696Sol     HW13886   1.250   2.792   6.640 -0.9778 -1.4786 -0.0169
 2696Sol     HW13887   1.358   2.822   6.538  0.2932 -0.8350  1.5135
 2696Sol     MW13888   1.273   2.799   6.553  0.3378 -0.4233  0.4422
 2697Sol     OW13889   1.013   1.040   5.406 -0.1254  0.1636 -0.0665
 2697Sol     HW13890   1.002   1.012   5.497  0.7979 -2.5373 -0.7552
 2697Sol     HW13891   0.986   0.964   5.354 -2.5295  2.3354 -2.1213
 2697Sol     MW13892   1.009   1.031   5.409  1.0404  0.3654 -0.1010
 2698Sol     OW13893   3.140   2.351   4.947 -0.0190  0.2771 -0.0004
 2698Sol     HW13894   3.201   2.283   4.977  0.5913  0.4329 -0.8643
 2698Sol     HW13895   3.079   2.304   4.890 -0.3583  0.2252  0.4068
 2698Sol     MW13896   3.140   2.340   4.944 -0.1736  0.2384  0.3746
 2699Sol     OW13897   0.785   0.852   4.493 -0.2632 -0.3286 -0.2567
 2699Sol     HW13898   0.771   0.791   4.421 -2.6559 -1.6983  1.3257
 2699Sol     HW13899   0.870   0.826   4.531 -0.7557 -1.9916 -0.2654
 2699Sol     MW13900   0.792   0.844   4.490  0.5863 -0.4408  0.2841
 2700Sol     OW13901   0.915   1.448   7.382 -0.0709  0.3938  0.9620
 2700Sol     HW13902   1.004   1.444   7.419  0.0971 -0.0064  0.5201
 2700Sol     HW13903   0.900   1.361   7.345  0.3780  1.2226 -1.2966
 2700Sol     MW13904   0.922   1.440   7.382  0.4662  0.0329  0.2950
 2701Sol     OW13905   1.216   3.077   4.358 -0.1018 -0.3978  0.5904
 2701Sol     HW13906   1.201   3.091   4.451 -1.2192 -0.2660  0.3941
 2701Sol     HW13907   1.270   2.998   4.354  0.8105  0.1774  1.3933
 2701Sol     MW13908   1.219   3.071   4.366  0.1927 -0.6949 -0.4042
 2702Sol     OW13909   0.199   0.987   4.189  0.0014 -0.3949  0.1561
 2702Sol     HW13910   0.194   0.943   4.274 -0.6399 -0.6806 -0.0284
 2702Sol     HW13911   0.284   1.032   4.191  1.3953 -2.9011 -0.2629
 2702Sol     MW13912   0.207   0.987   4.197  0.8586 -0.0971  0.5654
 2703Sol     OW13913   0.684   1.107   2.617  0.7609  0.2264  0.8720
 2703Sol     HW13914   0.599   1.137   2.585  1.0750  0.7817  0.5520
 2703Sol     HW13915   0.670   1.090   2.710  0.4858  1.0146  0.9751
 2703Sol     MW13916   0.675   1.108   2.623 -0.3932  0.3845 -0.1805
 2704Sol     OW13917   1.063   3.195   9.486  0.0572 -0.6962 -0.6647
 2704Sol     HW13918   1.151   3.232   9.481  0.5033 -1.6563 -0.1374
 2704Sol     HW13919   1.043   3.191   9.580 -0.1118 -1.4545 -0.7243
 2704Sol     MW13920   1.069   3.198   9.494 -0.8174  0.3324 -0.5225
 2705Sol     OW13921   2.579   0.792   4.132 -0.4859 -0.2012 -0.4802
 2705Sol     HW13922   2.675   0.789   4.129 -0.5164 -0.4421 -1.4072
 2705Sol     HW13923   2.556   0.862   4.070 -0.9101 -0.1146 -0.2259
 2705Sol     MW13924   2.586   0.798   4.126  0.3049 -0.2589  0.2752
 2706Sol     OW13925   1.354   0.234   3.993  0.1123 -0.2324 -0.2366
 2706Sol     HW13926   1.385   0.158   4.041 -2.7245 -0.9395  0.5639
 2706Sol     HW13927   1.387   0.222   3.904 -2.1581 -3.6051 -0.7011
 2706Sol     MW13928   1.359   0.226   3.989 -0.2953 -0.4247 -0.2360
 2707Sol     OW13929   2.635   1.930   3.037 -0.0034  0.1527  0.4555
 2707Sol     HW13930   2.638   1.867   3.109 -1.3688  0.3958  0.7383
 2707Sol     HW13931   2.703   1.900   2.976  0.8742 -0.3018  1.6352
 2707Sol     MW13932   2.642   1.922   3.038  0.6388  0.0626  0.2410
 2708Sol     OW13933   1.524   0.140   2.663 -0.9145  0.8396  0.6027
 2708Sol     HW13934   1.456   0.113   2.601  1.1558  1.5671 -2.1218
 2708Sol     HW13935   1.498   0.228   2.691 -1.5271  0.7812  0.2189
 2708Sol     MW13936   1.516   0.146   2.660  0.0278  0.1659 -0.2681
 2709Sol     OW13937   0.578   2.403   3.336 -0.0590  0.2005  0.1951
 2709Sol     HW13938   0.593   2.475   3.275  1.0755 -0.6666 -0.5534
 2709Sol     HW13939   0.603   2.439   3.421 -1.0311  1.1998  0.0877
 2709Sol     MW13940   0.581   2.413   3.338  0.1622  0.5833 -0.7255
 2710Sol     OW13941   0.007   3.034   7.990 -0.1788 -0.5845  0.3620
 2710Sol     HW13942  -0.036   3.083   8.060 -0.1654  0.3917 -0.3054
 2710Sol     HW13943   0.055   2.964   8.035  0.0123  0.1749  1.3434
 2710Sol     MW13944   0.008   3.032   8.000 -0.4426 -0.1989 -1.0651
 2711Sol     OW13945   2.165   3.349   5.325 -0.8172  0.4012 -0.1347
 2711Sol     HW13946   2.083   3.397   5.314  0.0391  1.5460 -1.6942
 2711Sol     HW13947   2.233   3.415   5.312  0.3588 -0.5250  1.2067
 2711Sol     MW13948   2.164   3.360   5.323  0.0051  0.0753  0.1870
 2712Sol     OW13949   1.806   3.191   2.823 -0.4390 -0.2386  0.0935
 2712Sol     HW13950   1.723   3.235   2.837 -0.8986 -0.7411 -0.9895
 2712Sol     HW13951   1.783   3.099   2.813  0.1920 -0.3266 -0.6238
 2712Sol     MW13952   1.797   3.187   2.823  0.2781 -0.1034  0.2840
 2713Sol     OW13953   3.195   2.802   9.852  0.1209 -0.9463 -0.2629
 2713Sol     HW13954   3.220   2.811   9.760  1.0463 -0.0548  0.0734
 2713Sol     HW13955   3.275   2.775   9.897 -0.1977 -0.8535  0.3681
 2713Sol     MW13956   3.204   2.800   9.848  0.8860 -0.7947  0.4312
 2714Sol     OW13957   2.792   0.133   9.327  0.3554 -0.4055  0.1593
 2714Sol     HW13958   2.732   0.103   9.395 -0.9596  2.5672  0.3773
 2714Sol     HW13959   2.840   0.054   9.300 -3.1198 -2.7236  0.4822
 2714Sol     MW13960   2.791   0.123   9.330 -0.0936  0.7328 -0.5052
 2715Sol     OW13961   0.223   0.565   5.220  0.5601 -0.2932  0.1845
 2715Sol     HW13962   0.152   0.589   5.161  0.6583  1.1368  0.6182
 2715Sol     HW13963   0.266   0.491   5.178 -0.1178 -0.0545 -0.9347
 2715Sol     MW13964   0.221   0.561   5.211  1.5536 -0.0894 -0.0619
 2716Sol     OW13965   1.435   2.631   4.753 -0.1524  0.0646  0.6874
 2716Sol     HW13966   1.423   2.711   4.805  0.5850 -0.5182  1.7694
 2716Sol     HW13967   1.420   2.560   4.814  0.5813 -0.6396  0.0571
 2716Sol     MW13968   1.433   2.632   4.763 -0.4293 -0.4843  0.0751
 2717Sol     OW13969   0.465   0.683   2.391 -0.0600 -0.0710 -0.9253
 2717Sol     HW13970   0.538   0.724   2.438  2.4305 -1.3428 -3.5147
 2717Sol     HW13971   0.412   0.757   2.360  0.9631  0.9463 -0.2966
 2717Sol     MW13972   0.467   0.694   2.393  0.0925  0.3065  0.2052
 2718Sol     OW13973   0.787   0.623   6.447 -0.4641  0.1225  0.1102
 2718Sol     HW13974   0.739   0.574   6.513  0.7608 -1.6328 -0.2575
 2718Sol     HW13975   0.721   0.675   6.401 -2.0244 -2.2345 -0.3939
 2718Sol     MW13976   0.777   0.623   6.448 -0.3223 -0.5186  0.5014
 2719Sol     OW13977   0.661   2.614   2.074 -0.7052 -0.1946 -0.1825
 2719Sol     HW13978   0.711   2.536   2.053 -0.8060 -0.5670  0.9569
 2719Sol     HW13979   0.702   2.683   2.022  0.2762 -0.7184 -0.1123
 2719Sol     MW13980   0.669   2.614   2.067 -0.3702 -0.0648  0.2388
 2720Sol     OW13981   1.509   0.698   5.110 -0.5366  0.1241  0.0987
 2720Sol     HW13982   1.582   0.716   5.168  0.5817 -0.0996 -1.2110
 2720Sol     HW13983   1.451   0.774   5.121 -0.3860  0.0458  1.5418
 2720Sol     MW13984   1.510   0.707   5.116  0.0877  0.2267 -0.1757
 2721Sol     OW13985   3.041   0.612   3.002 -0.5132 -0.2628 -0.0010
 2721Sol     HW13986   2.988   0.685   3.032 -1.0331 -0.5598 -0.1823
 2721Sol     HW13987   3.099   0.650   2.936 -0.6322  0.0283  0.0624
 2721Sol     MW13988   3.042   0.622   2.999 -0.2861  0.5633 -0.4449
 2722Sol     OW13989   0.582   2.548   7.044 -0.1565  0.0200 -0.2897
 2722Sol     HW13990   0.562   2.614   6.977 -0.8482 -0.3185 -0.4185
 2722Sol     HW13991   0.653   2.586   7.095 -1.5484  1.5077  0.5748
 2722Sol     MW13992   0.587   2.557   7.042  0.4392  0.7862  0.4742
 2723Sol     OW13993   1.516   1.448   3.272 -0.0800  0.0048  0.2929
 2723Sol     HW13994   1.486   1.529   3.230  0.3149  0.1395  0.2655
 2723Sol     HW13995   1.442   1.388   3.264  0.0762 -0.0577 -0.8357
 2723Sol     MW13996   1.507   1.450   3.267  0.1245  0.4854  0.0901
 2724Sol     OW13997   1.519   2.465   3.196 -0.1268 -0.2043  0.3339
 2724Sol     HW13998   1.527   2.386   3.142  0.0895 -0.7585  1.1770
 2724Sol     HW13999   1.598   2.516   3.174 -0.7455  0.2398 -0.9336
 2724Sol     MW14000   1.527   2.463   3.189  0.0714 -0.4276  0.2016
 2725Sol     OW14001   3.269   0.677   8.810  0.5720 -0.2264  0.0522
 2725Sol     HW14002   3.225   0.672   8.895 -0.2374  0.4522 -0.3324
 2725Sol     HW14003   3.222   0.745   8.762  1.7087  0.1451 -0.5457
 2725Sol     MW14004   3.261   0.683   8.814 -0.3614  0.6301 -0.8481
 2726Sol     OW14005   0.308   1.293   7.926  0.3737  0.0724 -0.0327
 2726Sol     HW14006   0.309   1.237   7.848  3.6443 -2.0017  1.4027
 2726Sol     HW14007   0.312   1.232   7.999 -1.4589  2.0488  1.7718
 2726Sol     MW14008   0.309   1.283   7.925 -0.0002 -0.0256  0.1586
 2727Sol     OW14009   1.970   2.851   7.085  0.2309  0.0542 -0.0964
 2727Sol     HW14010   1.966   2.849   7.181  1.0192  2.4996  0.0143
 2727Sol     HW14011   1.882   2.875   7.058  0.2858  0.4525  0.0696
 2727Sol     MW14012   1.962   2.853   7.092  0.9714 -0.3484  0.0862
 2728Sol     OW14013   2.822   2.043   3.651  0.1975  0.1144 -0.3779
 2728Sol     HW14014   2.859   1.979   3.711 -1.6240  0.1306  0.7987
 2728Sol     HW14015   2.890   2.109   3.640  0.9015 -0.4003  0.8925
 2728Sol     MW14016   2.831   2.043   3.655 -0.0792  0.6305 -0.2913
 2729Sol     OW14017   2.079   0.391   2.323 -0.6381 -0.3508  0.0283
 2729Sol     HW14018   2.142   0.333   2.280 -1.4881 -0.7126 -0.7639
 2729Sol     HW14019   2.014   0.332   2.360  0.5423 -0.0948  2.6430
 2729Sol     MW14020   2.079   0.380   2.322  0.2536  0.0217  0.3085
 2730Sol     OW14021   1.943   0.410   3.933  0.5599 -0.6826 -0.3742
 2730Sol     HW14022   1.973   0.350   4.002  0.0929 -0.2548  0.2114
 2730Sol     HW14023   1.850   0.421   3.950  0.7877  0.8033  0.0076
 2730Sol     MW14024   1.938   0.406   3.941 -0.6072 -0.2342  0.1504
 2731Sol     OW14025   2.066   2.142   3.927 -0.1861  0.3006  0.1580
 2731Sol     HW14026   2.061   2.070   3.989 -0.2651  0.2147  0.0520
 2731Sol     HW14027   2.140   2.121   3.871 -1.3163 -0.6040 -1.0108
 2731Sol     MW14028   2.072   2.134   3.928  0.1415  0.2056  0.0693
 2732Sol     OW14029   0.016   0.024   6.741 -0.2231 -0.3774 -0.7137
 2732Sol     HW14030  -0.016   0.114   6.752 -0.6027 -0.8194  2.2764
 2732Sol     HW14031  -0.005   0.001   6.651 -1.6858  1.9246 -0.9861
 2732Sol     MW14032   0.012   0.030   6.734 -0.2650  0.1956  0.0354
 2733Sol     OW14033   0.759   0.965   3.576 -0.1106 -0.0770 -0.0323
 2733Sol     HW14034   0.721   0.982   3.663  2.1776  0.1633  0.9638
 2733Sol     HW14035   0.838   1.019   3.574 -2.2880  3.2635 -3.9366
 2733Sol     MW14036   0.763   0.972   3.584  0.2612 -0.3198  0.2309
 2734Sol     OW14037   1.317   1.582   5.433 -0.0237 -0.2873  0.1312
 2734Sol     HW14038   1.290   1.559   5.344 -0.0349  0.5795 -0.0997
 2734Sol     HW14039   1.271   1.520   5.489  0.5619 -1.3133 -0.5121
 2734Sol     MW14040   1.310   1.574   5.430 -0.2944  0.2761 -0.1454
 2735Sol     OW14041   2.207   0.590   9.546 -0.0351  0.0466  0.0751
 2735Sol     HW14042   2.302   0.586   9.551  0.0570  1.9472  0.1428
 2735Sol     HW14043   2.189   0.603   9.452 -0.2742 -1.0340 -0.0387
 2735Sol     MW14044   2.214   0.591   9.538  0.2170  0.2573 -0.2343
 2736Sol     OW14045   2.087   2.499   5.019 -0.3586 -0.4109 -0.5642
 2736Sol     HW14046   2.086   2.451   4.936  1.4803 -0.0165 -0.8333
 2736Sol     HW14047   2.082   2.431   5.086 -1.6976 -0.7404 -0.9803
 2736Sol     MW14048   2.086   2.489   5.018 -0.1297  0.0614 -0.2054
 2737Sol     OW14049   0.848   2.889   7.915  0.1342  0.2305  0.3335
 2737Sol     HW14050   0.858   2.984   7.916  1.7060  0.0769  0.2132
 2737Sol     HW14051   0.924   2.856   7.962  0.5423 -1.0261 -1.1472
 2737Sol     MW14052   0.856   2.894   7.919 -0.0285  0.3142  0.7957
 2738Sol     OW14053   0.661   2.863   9.264  0.2384 -0.2717  0.2204
 2738Sol     HW14054   0.697   2.840   9.179 -0.4532 -2.8012  0.5715
 2738Sol     HW14055   0.732   2.909   9.309  0.6826  0.8715 -1.6211
 2738Sol     MW14056   0.670   2.865   9.261  0.4305 -0.1514 -0.2956
 2739Sol     OW14057   0.515   1.423   3.371 -0.2495 -0.7734 -0.0891
 2739Sol     HW14058   0.513   1.366   3.448 -1.0265 -1.6160 -0.7081
 2739Sol     HW14059   0.590   1.392   3.320  0.5363  0.0823  0.5480
 2739Sol     MW14060   0.521   1.415   3.373  0.6046  0.0516  0.2900
 2740Sol     OW14061   0.820   0.926   6.382  0.0213 -0.1180  0.1756
 2740Sol     HW14062   0.794   0.909   6.292  0.5101 -0.0132  0.0174
 2740Sol     HW14063   0.793   0.848   6.430 -0.0988 -0.2373 -0.0872
 2740Sol     MW14064   0.815   0.917   6.379  0.6156 -0.5025 -0.4089
 2741Sol     OW14065   0.243   3.301   3.549  0.1909 -0.2917 -0.4164
 2741Sol     HW14066   0.300   3.244   3.499  1.7153 -1.2584  2.3118
 2741Sol     HW14067   0.187   3.241   3.600 -0.3344  0.6334  0.1272
 2741Sol     MW14068   0.243   3.291   3.549  0.6540  0.3006 -0.3285
 2742Sol     OW14069   1.488   0.829   6.450 -0.1563 -0.3519  0.6785
 2742Sol     HW14070   1.420   0.891   6.478 -0.3965 -0.6543  0.7600
 2742Sol     HW14071   1.468   0.813   6.357 -1.2603 -1.8179  1.1553
 2742Sol     MW14072   1.480   0.834   6.444 -0.8957  0.0040  0.0672
 2743Sol     OW14073   1.609   1.004   1.624  0.4143  0.3953  0.5676
 2743Sol     HW14074   1.523   0.972   1.651 -0.7566 -0.0527 -3.3443
 2743Sol     HW14075   1.592   1.091   1.589  1.3866 -0.0361 -1.0244
 2743Sol     MW14076   1.600   1.009   1.623  0.4422 -0.3078 -0.0118
 2744Sol     OW14077   1.093   0.535   6.987 -0.5044  0.4810  0.3509
 2744Sol     HW14078   1.031   0.564   6.920  0.4651 -1.5284 -1.4899
 2744Sol     HW14079   1.041   0.532   7.068 -2.0308  1.6689 -0.5563
 2744Sol     MW14080   1.083   0.537   6.989  0.2377 -0.6030  0.6930
 2745Sol     OW14081   2.095   1.488   6.916 -0.5412 -0.1833  0.3361
 2745Sol     HW14082   2.084   1.400   6.951 -1.6556  0.2819  1.1908
 2745Sol     HW14083   2.163   1.479   6.849  0.6459 -1.3380  1.6696
 2745Sol     MW14084   2.100   1.479   6.913  0.3769 -0.7045  0.0877
 2746Sol     OW14085   1.966   2.228   6.971 -0.0595  0.1738 -0.2019
 2746Sol     HW14086   1.956   2.167   7.044 -1.2450  0.3977 -0.1574
 2746Sol     HW14087   2.059   2.247   6.968  0.1318 -0.5770  0.6557
 2746Sol     MW14088   1.973   2.224   6.977  0.0691 -0.6399 -0.3307
 2747Sol     OW14089   3.004   2.321   6.114 -0.5867  0.3530 -0.0137
 2747Sol     HW14090   2.975   2.402   6.157  0.4894  0.4281  0.5826
 2747Sol     HW14091   2.949   2.253   6.153  0.3184  0.4364  1.4387
 2747Sol     MW14092   2.996   2.322   6.121 -0.3826  0.4007 -0.0308
 2748Sol     OW14093   3.271   1.047   2.228  0.0959  0.4554  0.1959
 2748Sol     HW14094   3.182   1.015   2.212 -0.8455  2.1397  1.8581
 2748Sol     HW14095   3.327   0.974   2.202 -1.8735 -1.6813  1.6953
 2748Sol     MW14096   3.268   1.038   2.224  0.0737  0.6312 -0.2287
 2749Sol     OW14097   2.853   2.558   3.519 -0.2695 -0.5456 -0.5274
 2749Sol     HW14098   2.857   2.558   3.423 -0.7695  1.3601 -0.5618
 2749Sol     HW14099   2.942   2.578   3.547 -0.4136  0.2719 -0.6315
 2749Sol     MW14100   2.861   2.560   3.513  0.6194 -0.1038 -0.3364
 2750Sol     OW14101   1.151   2.423   6.974 -0.1831  0.2552  0.5725
 2750Sol     HW14102   1.160   2.451   6.883  0.9245 -1.0371  0.2696
 2750Sol     HW14103   1.238   2.434   7.012 -0.6597  0.8742  1.5015
 2750Sol     MW14104   1.159   2.426   6.969  0.0492  0.1145  0.5945
 2751Sol     OW14105   1.604   0.276   2.944 -0.2313  0.4369  0.1817
 2751Sol     HW14106   1.528   0.317   2.904 -0.7565  0.6561  1.3905
 2751Sol     HW14107   1.659   0.349   2.973  0.2573  0.2819 -0.3531
 2751Sol     MW14108   1.602   0.286   2.943 -0.2200 -0.4142  0.1763
 2752Sol     OW14109   1.983   2.847   4.255 -0.4490  0.1728  0.5777
 2752Sol     HW14110   1.976   2.845   4.350 -0.5589  1.7224  0.6255
 2752Sol     HW14111   2.061   2.900   4.238 -0.8695  0.5681 -0.1810
 2752Sol     MW14112   1.989   2.852   4.262 -0.0957  0.0411  0.4402
 2753Sol     OW14113   3.244   3.301   6.278  0.0266  0.0775 -0.2887
 2753Sol     HW14114   3.167   3.330   6.230  0.5277  2.0949  0.0340
 2753Sol     HW14115   3.249   3.361   6.353  1.5068 -0.4529  0.0553
 2753Sol     MW14116   3.238   3.309   6.281 -0.2701  0.7451 -0.4991
 2754Sol     OW14117   0.681   2.550   9.544 -0.6678  0.1678  0.0983
 2754Sol     HW14118   0.763   2.563   9.497 -0.2547  0.6325  0.9310
 2754Sol     HW14119   0.686   2.610   9.618 -1.1758 -0.7737  0.9120
 2754Sol     MW14120   0.689   2.557   9.546 -0.2033 -0.5053  0.2371
 2755Sol     OW14121   0.308   0.130   4.544  0.6078  0.0051 -0.5042
 2755Sol     HW14122   0.365   0.060   4.575  0.6712  0.1709 -0.2478
 2755Sol     HW14123   0.333   0.206   4.597 -0.4421 -0.1326  0.1899
 2755Sol     MW14124   0.316   0.131   4.551  0.2488 -0.0370  0.1670
 2756Sol     OW14125   1.613   1.527   6.840 -0.2347  0.9156  0.3456
 2756Sol     HW14126   1.536   1.512   6.785  0.4664  1.6907 -0.8832
 2756Sol     HW14127   1.650   1.609   6.807  1.5796  0.1303  0.3498
 2756Sol     MW14128   1.609   1.533   6.832  0.3911 -0.3797 -0.0224
 2757Sol     OW14129   1.190   2.418   3.722 -0.2407 -0.0971 -0.3139
 2757Sol     HW14130   1.125   2.348   3.716 -1.8869  1.4116 -0.6899
 2757Sol     HW14131   1.202   2.447   3.631  0.3924  0.1343 -0.1575
 2757Sol     MW14132   1.185   2.414   3.713  0.4521  0.3025  0.7640
 2758Sol     OW14133   0.647   0.602   6.017 -0.3909  0.7811  0.6954
 2758Sol     HW14134   0.612   0.563   6.097 -1.8412 -0.7342 -0.6382
 2758Sol     HW14135   0.569   0.624   5.965  0.5112  2.1773 -0.1135
 2758Sol     MW14136   0.637   0.601   6.020  0.5654 -0.0782  0.0863
 2759Sol     OW14137   0.245   1.861   8.008  0.3453  0.0933  0.0291
 2759Sol     HW14138   0.294   1.908   7.940 -0.9901  1.1658 -0.2178
 2759Sol     HW14139   0.177   1.813   7.959 -0.9856  1.3276  0.6248
 2759Sol     MW14140   0.243   1.861   7.997  0.1358 -0.1005 -0.4230
 2760Sol     OW14141   1.633   2.330   8.904 -0.5015 -0.5947 -0.9677
 2760Sol     HW14142   1.672   2.247   8.879  0.2528  0.0335 -1.9085
 2760Sol     HW14143   1.595   2.314   8.991 -1.0604 -2.1284 -1.4851
 2760Sol     MW14144   1.633   2.322   8.910  0.0167  0.0908  0.2805
 2761Sol     OW14145   0.045   2.221   4.996  0.2445 -0.2123  0.6099
 2761Sol     HW14146   0.114   2.183   4.942  0.4447 -1.0332  1.4194
 2761Sol     HW14147   0.089   2.240   5.080  0.1361  1.7585  0.2429
 2761Sol     MW14148   0.055   2.219   4.999  0.3378  0.0073 -0.3386
 2762Sol     OW14149   0.206   0.867   5.282  0.1228  0.5215  0.2690
 2762Sol     HW14150   0.205   0.772   5.268  1.3041  0.7001 -1.2317
 2762Sol     HW14151   0.132   0.900   5.231  1.0293  0.6049 -1.0256
 2762Sol     MW14152   0.200   0.861   5.276  0.1928 -1.0129 -0.2346
 2763Sol     OW14153   2.886   1.354   8.210 -0.3600  0.1521 -0.3788
 2763Sol     HW14154   2.950   1.334   8.142  0.0487  1.4716 -0.3898
 2763Sol     HW14155   2.934   1.338   8.292 -0.5603 -0.5384 -0.3970
 2763Sol     MW14156   2.896   1.351   8.212  0.2664 -0.1739  0.6049
 2764Sol     OW14157   3.078   0.700   3.403  0.3013  0.4247  0.2680
 2764Sol     HW14158   2.992   0.696   3.445  0.1845 -0.2387 -0.0316
 2764Sol     HW14159   3.092   0.612   3.370  0.6519  0.7999 -0.5832
 2764Sol     MW14160   3.071   0.692   3.404 -0.2849 -0.0411  0.7230
 2765Sol     OW14161   3.139   3.036   5.957  0.3213 -0.6558  0.1370
 2765Sol     HW14162   3.232   3.049   5.979 -0.4500 -0.7719  3.7800
 2765Sol     HW14163   3.123   2.943   5.970 -0.0689 -0.8712 -1.6796
 2765Sol     MW14164   3.146   3.029   5.960 -0.1841  0.3991 -0.6053
 2766Sol     OW14165   1.998   1.562   4.714 -0.4656 -0.3774 -0.0556
 2766Sol     HW14166   1.934   1.490   4.714 -0.5938 -0.2652  1.0277
 2766Sol     HW14167   1.947   1.638   4.742 -0.1951  0.0179 -0.6431
 2766Sol     MW14168   1.988   1.562   4.716  0.2973 -0.2742  0.2850
 2767Sol     OW14169   1.307   2.579   4.113  0.4942 -0.0499  0.4172
 2767Sol     HW14170   1.378   2.641   4.132  0.2910  0.9420 -1.8580
 2767Sol     HW14171   1.350   2.494   4.110  1.4264  0.4117  0.1665
 2767Sol     MW14172   1.317   2.577   4.114 -0.2171  0.3354 -0.5822
 2768Sol     OW14173   3.233   1.135   4.664  0.4431  0.0891 -0.8388
 2768Sol     HW14174   3.321   1.097   4.661  0.5399 -0.0272  1.9287
 2768Sol     HW14175   3.248   1.225   4.694 -0.4558 -0.3947  1.1641
 2768Sol     MW14176   3.242   1.140   4.667  0.1464  0.4595  0.4421
 2769Sol     OW14177   3.075   2.978   4.609 -0.1903  0.4198 -0.2144
 2769Sol     HW14178   3.148   3.013   4.558  1.5785  0.4161  2.2210
 2769Sol     HW14179   3.033   3.055   4.647  1.6802  0.1697  2.4693
 2769Sol     MW14180   3.078   2.988   4.608 -0.1006 -0.5704 -0.0163
 2770Sol     OW14181   1.706   2.520   2.633 -0.3084 -0.4780  0.6159
 2770Sol     HW14182   1.700   2.594   2.694 -1.9507  0.0047 -0.1124
 2770Sol     HW14183   1.651   2.452   2.673 -1.2960 -0.2003 -0.2446
 2770Sol     MW14184   1.700   2.520   2.642 -0.7054 -0.0647 -0.3623
 2771Sol     OW14185   0.469   0.364   9.230 -0.1834  0.7037  0.4346
 2771Sol     HW14186   0.459   0.300   9.301  0.8970 -0.9478 -0.8508
 2771Sol     HW14187   0.389   0.354   9.178  1.0216 -1.3826 -1.1137
 2771Sol     MW14188   0.461   0.357   9.232 -0.0321  0.0565 -0.0031
 2772Sol     OW14189   1.805   3.375   4.342  0.0025 -0.1073  0.0903
 2772Sol     HW14190   1.855   3.334   4.271  0.1375  0.5916 -0.2253
 2772Sol     HW14191   1.789   3.464   4.311  2.6967  1.2110  2.2024
 2772Sol     MW14192   1.808   3.380   4.333 -0.2197  0.2281 -0.3630
 2773Sol     OW14193   0.093   0.589   6.656 -0.1056  0.1355  0.3416
 2773Sol     HW14194   0.148   0.565   6.730 -0.1829 -2.4913 -0.4049
 2773Sol     HW14195   0.005   0.597   6.693 -0.0542 -0.6279  0.6369
 2773Sol     MW14196   0.090   0.588   6.666 -0.3922 -0.2173  0.4511
 2774Sol     OW14197   3.080   0.934   3.268 -0.3267  0.2524 -0.2872
 2774Sol     HW14198   3.094   0.853   3.316  2.9392  0.6046 -0.5482
 2774Sol     HW14199   3.061   0.999   3.337  0.5539 -0.0317  0.2362
 2774Sol     MW14200   3.079   0.933   3.279  0.0911  0.0130 -0.0236
 2775Sol     OW14201   0.364   2.138   8.486  0.1294 -0.1850 -0.1614
 2775Sol     HW14202   0.350   2.186   8.568 -0.5949  1.5870 -1.2966
 2775Sol     HW14203   0.451   2.167   8.457  0.3710 -0.7882 -0.0444
 2775Sol     MW14204   0.371   2.145   8.491 -0.8118  0.0516  0.8563
 2776Sol     OW14205   1.300   0.130   9.939  0.1193 -0.0590  0.4527
 2776Sol     HW14206   1.382   0.111   9.895 -0.3832 -2.2851  0.4387
 2776Sol     HW14207   1.326   0.173  10.020  1.2387  0.2321 -0.0541
 2776Sol     MW14208   1.310   0.132   9.942 -0.5753 -0.1155  0.5272
 2777Sol     OW14209   1.291   0.387   3.066  0.7589 -0.2125 -0.5799
 2777Sol     HW14210   1.357   0.444   3.025  0.5735  0.3867 -0.0490
 2777Sol     HW14211   1.209   0.410   3.022  0.5964  0.2855 -0.0306
 2777Sol     MW14212   1.290   0.394   3.058  0.3088 -0.0782 -0.2569
 2778Sol     OW14213   0.170   1.838   7.503  0.1175 -0.0616  0.2451
 2778Sol     HW14214   0.168   1.934   7.500  1.0234 -0.0370  0.1783
 2778Sol     HW14215   0.100   1.811   7.444 -1.6329  0.5598  1.9947
 2778Sol     MW14216   0.163   1.845   7.497  0.1382 -0.1922 -0.4563
 2779Sol     OW14217   1.482   2.364   3.640 -0.2366  0.0004  0.1808
 2779Sol     HW14218   1.421   2.312   3.691 -1.6180  1.2952 -0.0906
 2779Sol     HW14219   1.445   2.364   3.551 -0.7983  2.1738  0.3718
 2779Sol     MW14220   1.474   2.360   3.636 -0.1783 -0.0016 -0.2743
 2780Sol     OW14221   0.412   3.400   6.868 -0.5250  0.3251  0.1188
 2780Sol     HW14222   0.471   3.325   6.870 -1.1147 -0.2406 -2.6410
 2780Sol     HW14223   0.335   3.371   6.918 -0.3781 -0.5644 -0.1770
 2780Sol     MW14224   0.410   3.391   6.873 -0.0582 -0.2409 -0.6507
 2781Sol     OW14225   1.548   2.058   6.293  0.0247 -0.3818  0.2575
 2781Sol     HW14226   1.495   1.995   6.244  1.4392 -0.8567 -0.6780
 2781Sol     HW14227   1.496   2.077   6.371 -0.6600 -2.2822  0.2888
 2781Sol     MW14228   1.538   2.054   6.296  0.2488  0.0232 -0.4093
 2782Sol     OW14229   2.196   2.008   6.592  0.0304  0.1695  0.0298
 2782Sol     HW14230   2.110   2.039   6.620 -0.5151 -0.6272 -0.7363
 2782Sol     HW14231   2.255   2.079   6.614 -1.1683  1.6773 -1.4637
 2782Sol     MW14232   2.193   2.017   6.596  0.1950 -0.3430  0.2665
 2783Sol     OW14233   1.197   0.987   1.473  0.1229  0.3579  0.4696
 2783Sol     HW14234   1.229   1.077   1.469  0.0126  0.3437 -3.2448
 2783Sol     HW14235   1.103   0.993   1.455  0.1314 -0.4881  0.0801
 2783Sol     MW14236   1.191   0.995   1.471 -0.3666  0.2373  0.1836
 2784Sol     OW14237   2.505   0.107   3.894 -0.1964  0.5653  0.0663
 2784Sol     HW14238   2.536   0.189   3.934  2.7598 -0.6216  0.3960
 2784Sol     HW14239   2.469   0.057   3.967 -2.7726  1.8566 -0.2711
 2784Sol     MW14240   2.505   0.110   3.904  0.2410  0.1242  0.0247
 2785Sol     OW14241   2.204   1.033   8.516  0.3084  0.0443 -0.2249
 2785Sol     HW14242   2.115   1.000   8.503 -0.7555  3.1848 -1.4529
 2785Sol     HW14243   2.219   1.027   8.610 -0.5281 -2.0921 -0.2020
 2785Sol     MW14244   2.197   1.029   8.523  0.3260  0.3565  0.1382
 2786Sol     OW14245   1.323   2.884   9.252  0.2460 -0.7853  0.0731
 2786Sol     HW14246   1.384   2.855   9.320  0.3760  0.9258  0.7096
 2786Sol     HW14247   1.296   2.803   9.208  1.1424 -1.7875  1.3238
 2786Sol     MW14248   1.326   2.874   9.254 -0.1313  0.7154 -0.0601
 2787Sol     OW14249   0.396   1.977   9.638 -0.0102 -0.3311  0.1697
 2787Sol     HW14250   0.484   2.015   9.643 -0.0466 -0.3349  0.9212
 2787Sol     HW14251   0.358   1.994   9.724 -0.1609 -1.7734  0.3954
 2787Sol     MW14252   0.400   1.982   9.646 -0.1476  0.2501 -0.3227
 2788Sol     OW14253   0.744   0.758   4.904 -0.4022 -0.7594  0.3227
 2788Sol     HW14254   0.705   0.791   4.985 -0.0307 -2.0928  1.0506
 2788Sol     HW14255   0.829   0.801   4.899 -0.0644 -1.3378  1.0863
 2788Sol     MW14256   0.748   0.765   4.910 -0.7853  0.4529  0.2034
 2789Sol     OW14257   3.080   1.891   4.752  0.6420 -0.6872  0.1758
 2789Sol     HW14258   2.984   1.898   4.753  0.6120 -0.9863 -0.1501
 2789Sol     HW14259   3.108   1.924   4.837  0.2442 -0.6232  0.2828
 2789Sol     MW14260   3.074   1.894   4.760  0.0757 -0.2408  0.0496
 2790Sol     OW14261   0.125   0.323   4.364  0.1502  0.3412  0.1145
 2790Sol     HW14262   0.033   0.296   4.352  0.4940 -0.1610 -1.6244
 2790Sol     HW14263   0.164   0.252   4.414 -0.4003  0.5287  0.8151
 2790Sol     MW14264   0.120   0.314   4.367 -0.4524  0.2105 -0.2506
 2791Sol     OW14265   1.375   3.266   8.783  0.7014 -0.0006  0.1709
 2791Sol     HW14266   1.457   3.315   8.789  0.8848 -0.2053 -0.6926
 2791Sol     HW14267   1.315   3.312   8.843  0.6250  1.7480 -1.2282
 2791Sol     MW14268   1.377   3.275   8.789 -0.3901  0.0209 -0.6001
 2792Sol     OW14269   0.852   2.024   6.310  0.1876  0.3471 -0.6002
 2792Sol     HW14270   0.801   2.043   6.231  0.5210 -0.9841 -1.1615
 2792Sol     HW14271   0.843   2.102   6.364 -1.2263  0.7141 -1.3329
 2792Sol     MW14272   0.846   2.033   6.307  0.3612 -0.2746  0.3948
 2793Sol     OW14273   2.848   3.424   7.435 -0.4724  0.3518  0.4423
 2793Sol     HW14274   2.908   3.434   7.509 -0.1825  0.9909  0.1213
 2793Sol     HW14275   2.779   3.367   7.468  1.1851 -1.8066  0.2992
 2793Sol     MW14276   2.847   3.420   7.445  0.2489 -0.5225  0.7688
 2794Sol     OW14277   2.214   0.768   1.900 -0.0548  0.0136 -0.3348
 2794Sol     HW14278   2.123   0.780   1.873 -0.5440 -1.3760  0.6335
 2794Sol     HW14279   2.262   0.840   1.859 -1.4520  0.2485 -1.5508
 2794Sol     MW14280   2.211   0.775   1.894  0.5425  0.5090  0.0418
 2795Sol     OW14281   0.678   2.067   8.622 -0.8370 -0.0684  0.2207
 2795Sol     HW14282   0.625   2.085   8.700 -1.1241  1.1708 -0.2422
 2795Sol     HW14283   0.742   2.003   8.651  0.3691  1.8977  2.0557
 2795Sol     MW14284   0.679   2.063   8.632  0.0417 -0.0407 -0.2354
 2796Sol     OW14285   0.255   0.391   7.216  0.1778  0.0013  1.1418
 2796Sol     HW14286   0.203   0.471   7.209  0.9101  0.7378  3.7430
 2796Sol     HW14287   0.331   0.407   7.160 -0.6082  0.3673  0.1755
 2796Sol     MW14288   0.257   0.399   7.210  0.3806 -0.2223  0.5252
 2797Sol     OW14289   1.904   2.887   5.985  0.6346 -0.0691  0.0396
 2797Sol     HW14290   1.825   2.876   5.932  0.6971  0.8760 -0.2538
 2797Sol     HW14291   1.937   2.798   5.996 -0.9424 -0.5751  0.8975
 2797Sol     MW14292   1.900   2.878   5.981 -0.1870 -0.5435  0.9636
 2798Sol     OW14293   1.687   2.598   8.900 -0.1366 -0.4664 -0.0757
 2798Sol     HW14294   1.605   2.631   8.864 -0.4019 -1.0210  0.0202
 2798Sol     HW14295   1.676   2.503   8.904  0.2790 -0.4973  0.4959
 2798Sol     MW14296   1.679   2.593   8.897  0.1804  0.3700  0.0347
 2799Sol     OW14297   1.860   0.322   3.202  0.2826 -0.4414 -0.8027
 2799Sol     HW14298   1.774   0.297   3.236  0.2386  0.0739 -0.5219
 2799Sol     HW14299   1.842   0.390   3.138  0.5197  0.1296 -0.2758
 2799Sol     MW14300   1.851   0.326   3.200 -0.3372 -0.0763 -0.1266
 2800Sol     OW14301   2.731   2.214   2.606 -0.4639 -1.0232 -0.0506
 2800Sol     HW14302   2.655   2.261   2.640 -1.1180 -0.4370 -2.2297
 2800Sol     HW14303   2.700   2.175   2.524  1.4947 -1.0346 -0.8184
 2800Sol     MW14304   2.721   2.214   2.602  0.2811  0.2727 -0.1645
 2801Sol     OW14305   3.273   1.730   2.704 -0.5593 -0.6368  0.5637
 2801Sol     HW14306   3.257   1.644   2.743 -0.5331  0.1458  2.3285
 2801Sol     HW14307   3.235   1.792   2.766  0.1546  0.6794 -0.2907
 2801Sol     MW14308   3.268   1.728   2.713  0.2013  0.1671 -0.0860
 2802Sol     OW14309   0.095   0.714   6.197  0.8437 -0.1456  0.3241
 2802Sol     HW14310   0.023   0.664   6.159  0.7847 -1.0877  1.6612
 2802Sol     HW14311   0.173   0.677   6.157  0.7664 -0.9993  0.9518
 2802Sol     MW14312   0.095   0.706   6.190 -0.2247 -0.3917  0.0615
 2803Sol     OW14313   0.871   3.019   3.361  0.0817  0.4080 -0.5144
 2803Sol     HW14314   0.922   3.009   3.442 -0.2988  0.2131 -0.2953
 2803Sol     HW14315   0.780   3.003   3.388  0.2977 -3.0236 -1.5749
 2803Sol     MW14316   0.867   3.016   3.371 -0.1210 -0.7845  0.1462
 2804Sol     OW14317   1.745   3.448   7.219 -0.0045 -0.2497  0.1302
 2804Sol     HW14318   1.714   3.531   7.255  0.3991 -0.6418  1.4013
 2804Sol     HW14319   1.813   3.473   7.156 -0.0646  0.3892  0.3144
 2804Sol     MW14320   1.748   3.457   7.216 -0.1320  0.0904 -0.4943
 2805Sol     OW14321   0.864   3.142   2.548  0.4258  0.5484 -0.5183
 2805Sol     HW14322   0.942   3.194   2.529  1.2492 -0.2846  0.5056
 2805Sol     HW14323   0.861   3.078   2.476  1.0140  0.2284 -0.2667
 2805Sol     MW14324   0.871   3.141   2.540 -0.3881 -0.0069 -0.0885
 2806Sol     OW14325   2.861   0.668   3.830  0.4815 -0.1640 -0.3834
 2806Sol     HW14326   2.839   0.667   3.737  1.3446 -0.0859 -0.5918
 2806Sol     HW14327   2.902   0.753   3.844  1.7513 -0.7765 -0.2718
 2806Sol     MW14328   2.863   0.676   3.823 -0.1826  0.0127  0.2753
 2807Sol     OW14329   2.129   1.935   7.509  0.0785  0.3106  0.3243
 2807Sol     HW14330   2.141   1.867   7.442  2.2830 -0.3578  1.3663
 2807Sol     HW14331   2.043   1.972   7.490  0.3399 -0.3833 -2.4191
 2807Sol     MW14332   2.122   1.932   7.501 -0.1769  0.1400  0.5489
 2808Sol     OW14333   3.270   1.982   6.757  0.1945  0.1546 -0.5129
 2808Sol     HW14334   3.303   1.926   6.688  0.2125  0.6559 -0.9190
 2808Sol     HW14335   3.342   2.043   6.776  0.2674 -0.1181  0.0980
 2808Sol     MW14336   3.279   1.983   6.753 -0.0103  0.0397 -0.0984
 2809Sol     OW14337   1.305   3.090   6.086 -0.0440 -0.2036  0.1680
 2809Sol     HW14338   1.302   3.182   6.061  2.9149 -0.0240  0.3148
 2809Sol     HW14339   1.311   3.043   6.002 -0.9067 -0.2636  0.1265
 2809Sol     MW14340   1.305   3.094   6.076 -0.4186 -0.0757  0.5035
 2810Sol     OW14341   0.320   1.682   6.792 -0.0789  0.1217 -0.1828
 2810Sol     HW14342   0.377   1.617   6.751  0.0086  0.0345  0.0789
 2810Sol     HW14343   0.319   1.755   6.730  2.0492  1.0091  0.7836
 2810Sol     MW14344   0.325   1.683   6.783 -0.1993  0.4536  0.4430
 2811Sol     OW14345   2.604   1.239   4.025  0.1933  0.0222  0.2818
 2811Sol     HW14346   2.549   1.316   4.008 -0.6302 -0.6828 -0.2552
 2811Sol     HW14347   2.680   1.251   3.967 -0.7737 -0.4446 -1.1086
 2811Sol     MW14348   2.606   1.247   4.018 -0.4129  0.0594  0.4845
 2812Sol     OW14349   3.324   2.485   4.759 -0.3258 -0.0927  0.1187
 2812Sol     HW14350   3.258   2.453   4.820 -0.2148  2.0884  1.4368
 2812Sol     HW14351   3.275   2.538   4.696  0.0619  1.0955  0.7914
 2812Sol     MW14352   3.314   2.487   4.759 -0.8165 -0.4430 -0.5619
 2813Sol     OW14353   0.944   2.559   9.393 -0.1058 -0.0731 -0.0878
 2813Sol     HW14354   0.898   2.597   9.318 -3.1886  0.9489  2.2008
 2813Sol     HW14355   1.012   2.622   9.414  0.5688 -0.2077 -1.7962
 2813Sol     MW14356   0.946   2.568   9.388 -0.3124  0.9288  0.2354
 2814Sol     OW14357   2.585   2.349   3.414 -0.4415  0.4828  0.1675
 2814Sol     HW14358   2.650   2.289   3.379  0.4793  1.8893 -0.6129
 2814Sol     HW14359   2.607   2.358   3.507  2.0578  2.8372 -0.5863
 2814Sol     MW14360   2.593   2.345   3.419 -0.2946 -0.1615  0.3656
 2815Sol     OW14361   1.858   1.779   4.767 -0.1996 -0.1924  0.3307
 2815Sol     HW14362   1.842   1.859   4.818  0.3520  1.3692 -1.8983
 2815Sol     HW14363   1.791   1.780   4.699  0.1967 -1.3173 -0.0958
 2815Sol     MW14364   1.850   1.786   4.765 -0.4149 -0.3189 -0.0317
 2816Sol     OW14365   2.878   1.551   3.681  0.0617 -0.3209 -0.1273
 2816Sol     HW14366   2.794   1.598   3.683 -0.9461 -2.0472 -0.7165
 2816Sol     HW14367   2.912   1.566   3.593 -0.8532 -1.6642 -0.7322
 2816Sol     MW14368   2.873   1.557   3.674 -0.2133 -0.1203 -0.7091
 2817Sol     OW14369   2.032   1.152   5.936 -0.3530  0.4070 -0.8016
 2817Sol     HW14370   2.002   1.167   5.846  2.2466  1.4887 -1.5399
 2817Sol     HW14371   1.975   1.083   5.970 -2.1399  0.8164 -2.8702
 2817Sol     MW14372   2.024   1.148   5.931  0.1252 -0.4956 -0.0766
 2818Sol     OW14373   1.017   0.722   5.907 -0.6280  0.0691  0.1495
 2818Sol     HW14374   1.087   0.659   5.922  0.6461  1.2826 -0.6123
 2818Sol     HW14375   0.952   0.675   5.854  0.7661 -0.3100 -1.2510
 2818Sol     MW14376   1.017   0.712   5.904 -0.5232  0.0813 -0.0621
 2819Sol     OW14377   1.228   0.312   2.506 -0.6876 -0.2182  0.2699
 2819Sol     HW14378   1.170   0.379   2.469 -0.6819  0.0415  0.7310
 2819Sol     HW14379   1.191   0.294   2.593 -1.3698 -1.6538 -0.3005
 2819Sol     MW14380   1.219   0.316   2.511  0.1723  0.1306  0.3174
 2820Sol     OW14381   1.698   0.369   6.230 -1.1191 -0.4947 -0.3680
 2820Sol     HW14382   1.635   0.441   6.219 -0.9796 -0.3079  0.0290
 2820Sol     HW14383   1.657   0.312   6.294 -0.3180  0.2867  0.8694
 2820Sol     MW14384   1.689   0.370   6.235 -0.1769  0.0192 -0.7054
 2821Sol     OW14385   2.320   1.454   2.544  0.2838  0.5320 -0.2862
 2821Sol     HW14386   2.367   1.528   2.583  0.2605 -0.1013  0.9369
 2821Sol     HW14387   2.367   1.437   2.462  1.2804  0.8663  0.2065
 2821Sol     MW14388   2.329   1.459   2.540  0.0066  0.0663  0.5019
 2822Sol     OW14389   0.394   2.316   2.995 -0.7010 -0.5836 -1.1231
 2822Sol     HW14390   0.379   2.402   3.035  1.3111  0.5346 -2.6725
 2822Sol     HW14391   0.325   2.309   2.929  1.4169  1.6287 -3.6984
 2822Sol     MW14392   0.387   2.323   2.993  0.4871 -0.1488  0.1548
 2823Sol     OW14393   2.480   2.301   9.874  0.5513 -0.1254 -0.3308
 2823Sol     HW14394   2.574   2.282   9.871  0.4609 -0.4874 -0.8178
 2823Sol     HW14395   2.438   2.224   9.837  0.0568  0.0404 -0.1247
 2823Sol     MW14396   2.485   2.293   9.870  0.3616  0.1450  1.4045
 2824Sol     OW14397   0.768   2.353   7.884 -0.1615 -0.0294 -0.0814
 2824Sol     HW14398   0.847   2.331   7.835 -0.8995 -1.0303 -0.8450
 2824Sol     HW14399   0.716   2.407   7.824 -1.4008 -1.8675 -0.7145
 2824Sol     MW14400   0.770   2.356   7.875 -0.2177 -0.1559  0.4624
 2825Sol     OW14401   0.001   1.861   1.867 -0.4115  0.4338 -0.2235
 2825Sol     HW14402   0.046   1.790   1.822 -1.0576  0.1209 -0.3807
 2825Sol     HW14403   0.071   1.920   1.897  0.1317 -0.3614  0.0677
 2825Sol     MW14404   0.011   1.860   1.866  0.5849 -0.2837 -0.2548
 2826Sol     OW14405   0.585   2.826   3.117 -0.3893  0.2034  0.3276
 2826Sol     HW14406   0.610   2.734   3.129 -1.3137  0.0706  1.3571
 2826Sol     HW14407   0.491   2.822   3.099 -0.5320  0.9815  0.8983
 2826Sol     MW14408   0.579   2.817   3.116 -0.1969  0.3267 -0.1440
 2827Sol     OW14409   0.456   2.944   9.443  0.1188 -0.2675 -0.2666
 2827Sol     HW14410   0.535   2.935   9.390 -0.4458  0.9001 -1.3073
 2827Sol     HW14411   0.432   2.854   9.465  0.9871 -0.6973 -1.0446
 2827Sol     MW14412   0.461   2.935   9.440 -0.0598 -0.2815 -0.4464
 2828Sol     OW14413   0.515   2.764   4.483 -0.3690  0.1945 -0.0354
 2828Sol     HW14414   0.526   2.856   4.457 -0.9609  0.5703  1.0055
 2828Sol     HW14415   0.468   2.724   4.409  0.5719  0.5368 -0.8331
 2828Sol     MW14416   0.512   2.769   4.474  0.1803 -0.1333  0.5203
 2829Sol     OW14417   0.717   0.682   7.046  0.1268 -0.2964 -0.3220
 2829Sol     HW14418   0.798   0.637   7.070  0.9559  1.6472  0.6739
 2829Sol     HW14419   0.747   0.764   7.006 -1.3533  0.3874 -0.0536
 2829Sol     MW14420   0.727   0.685   7.045 -0.9770  0.4926 -0.1856
 2830Sol     OW14421   2.043   2.089   4.960  0.7557 -0.7348  0.4083
 2830Sol     HW14422   2.128   2.130   4.944 -0.1904  0.5916 -1.3305
 2830Sol     HW14423   1.981   2.162   4.963 -0.3618 -1.7128  1.4362
 2830Sol     MW14424   2.045   2.099   4.959 -0.0091  0.1476 -0.2870
 2831Sol     OW14425   1.698   1.083   5.942  0.2918 -0.5319  0.6456
 2831Sol     HW14426   1.753   1.050   6.014  1.7669 -0.7522 -0.5632
 2831Sol     HW14427   1.701   1.178   5.952  0.1489 -0.5709  1.1095
 2831Sol     MW14428   1.703   1.088   5.950  0.1753 -0.3626  0.6154
 2832Sol     OW14429   1.869   0.393   5.518 -0.1350 -0.4849 -0.2273
 2832Sol     HW14430   1.796   0.398   5.456 -1.3015 -0.5062  1.1083
 2832Sol     HW14431   1.875   0.301   5.542  0.7030 -0.5723 -0.7502
 2832Sol     MW14432   1.863   0.386   5.514 -0.7448  0.6406 -0.0941
 2833Sol     OW14433   0.824   3.114   5.207  0.0842  0.3380 -0.4174
 2833Sol     HW14434   0.741   3.084   5.244  0.5204  1.1607  1.2990
 2833Sol     HW14435   0.884   3.113   5.281  1.4895  0.2021 -1.5508
 2833Sol     MW14436   0.822   3.111   5.217  0.1707  0.2397 -0.6065
 2834Sol     OW14437   3.152   2.937   2.481 -0.0766  0.0129  0.3378
 2834Sol     HW14438   3.098   3.015   2.498  0.2033  0.5194 -0.9958
 2834Sol     HW14439   3.231   2.950   2.533  0.8742  1.6394 -1.4262
 2834Sol     MW14440   3.154   2.945   2.487 -0.9392 -0.0736  0.5957
 2835Sol     OW14441   1.100   0.798   4.330  0.0209 -0.6423  0.4440
 2835Sol     HW14442   1.033   0.835   4.272  0.9775 -2.4513 -1.9170
 2835Sol     HW14443   1.183   0.819   4.288  0.7220 -2.3551  0.9119
 2835Sol     MW14444   1.101   0.803   4.321  0.2727 -0.4663 -0.3939
 2836Sol     OW14445   1.558   3.328   2.486  0.3141  0.9543 -0.6641
 2836Sol     HW14446   1.502   3.251   2.474  1.7851 -0.2903  0.2481
 2836Sol     HW14447   1.511   3.399   2.442 -0.0727 -0.9204 -3.3820
 2836Sol     MW14448   1.549   3.327   2.481 -0.3642 -0.1098  0.1973
 2837Sol     OW14449   1.792   1.593   9.463  0.3460  0.6222 -0.3941
 2837Sol     HW14450   1.794   1.590   9.558  2.3355  1.7613 -0.3836
 2837Sol     HW14451   1.765   1.504   9.437  1.6721 -0.2602  1.1818
 2837Sol     MW14452   1.789   1.584   9.469 -0.1053 -0.0810  0.3697
 2838Sol     OW14453   2.234   1.941   3.179 -0.2124  0.3128 -0.0046
 2838Sol     HW14454   2.191   2.013   3.132 -1.7909 -0.2458  0.5484
 2838Sol     HW14455   2.296   1.985   3.237 -1.0960  1.2442  0.2685
 2838Sol     MW14456   2.235   1.952   3.180  0.0177  0.4876 -0.5308
 2839Sol     OW14457   1.998   1.305   2.984  0.7600  0.1820 -0.2893
 2839Sol     HW14458   1.952   1.335   3.063  2.4679 -0.4109  0.9680
 2839Sol     HW14459   1.931   1.302   2.916 -1.3359 -1.9198  1.7968
 2839Sol     MW14460   1.988   1.308   2.985 -0.0092  0.1758  0.4418
 2840Sol     OW14461   2.043   2.060   9.913  0.2164  0.0502  0.1243
 2840Sol     HW14462   2.090   2.054   9.831 -0.0788 -0.8649  0.0217
 2840Sol     HW14463   2.110   2.049   9.981  0.1981 -0.9673 -0.0181
 2840Sol     MW14464   2.053   2.059   9.912  0.1182  0.0199 -0.2801
 2841Sol     OW14465   1.870   1.483   6.170 -0.0056  0.7977  0.4239
 2841Sol     HW14466   1.815   1.536   6.112  0.8426  3.3762  1.8976
 2841Sol     HW14467   1.942   1.454   6.114 -0.4023  1.3435 -0.3847
 2841Sol     MW14468   1.872   1.485   6.160  1.0093  0.0139 -0.1492
 2842Sol     OW14469   0.496   0.913   8.904  0.1488 -0.3661 -0.0760
 2842Sol     HW14470   0.478   0.832   8.952  0.6962  0.1741  1.0728
 2842Sol     HW14471   0.590   0.910   8.886 -0.2165 -0.9934 -1.9398
 2842Sol     MW14472   0.503   0.905   8.907 -0.5450 -0.4622  0.1270
 2843Sol     OW14473   1.687   2.740   9.131 -0.1346 -0.1262 -0.1288
 2843Sol     HW14474   1.702   2.690   9.050 -1.6166  1.3582 -1.3621
 2843Sol     HW14475   1.775   2.759   9.164  0.4915 -0.6921 -1.4381
 2843Sol     MW14476   1.696   2.738   9.126 -0.2879  0.7922  0.0069
 2844Sol     OW14477   0.672   0.294   6.860 -0.5249 -0.2560 -0.2776
 2844Sol     HW14478   0.693   0.374   6.812 -1.5923  0.1993 -0.0148
 2844Sol     HW14479   0.752   0.241   6.857 -0.0991  0.4374 -1.2193
 2844Sol     MW14480   0.681   0.296   6.855  0.4504 -0.2535  1.1758
 2845Sol     OW14481   2.490   2.382   4.934 -1.0678  0.3873 -0.7163
 2845Sol     HW14482   2.450   2.455   4.981 -1.4779  0.9804 -1.9784
 2845Sol     HW14483   2.502   2.414   4.845 -0.5026 -0.8096 -1.0822
 2845Sol     MW14484   2.488   2.391   4.931  0.2013 -0.2505 -0.4552
 2846Sol     OW14485   3.264   0.885   9.556 -0.4029  0.3076 -0.3119
 2846Sol     HW14486   3.209   0.961   9.538  1.2346  1.4177 -0.7619
 2846Sol     HW14487   3.314   0.910   9.633  1.1991  0.2742 -1.3241
 2846Sol     MW14488   3.263   0.894   9.561  0.0025 -0.5176 -0.5140
 2847Sol     OW14489   0.088   1.685   3.993 -0.6680 -0.1934 -0.5897
 2847Sol     HW14490   0.113   1.772   4.025  0.6547 -0.2062 -1.5436
 2847Sol     HW14491   0.109   1.626   4.066  2.6254 -0.2662 -1.5166
 2847Sol     MW14492   0.092   1.688   4.003  0.2091 -0.1905 -0.3974
 2848Sol     OW14493   2.842   2.378   3.005 -0.2596  0.0223  0.1382
 2848Sol     HW14494   2.806   2.445   2.948 -0.0077 -0.0529 -0.1158
 2848Sol     HW14495   2.772   2.314   3.015 -0.9448  0.9673  1.4438
 2848Sol     MW14496   2.833   2.378   3.001 -0.0332 -0.6526 -0.0710
 2849Sol     OW14497   2.565   0.532   2.669  0.1032  0.5221 -0.1841
 2849Sol     HW14498   2.543   0.623   2.652  1.9665  0.5485 -2.7728
 2849Sol     HW14499   2.632   0.535   2.737 -0.8682  0.9611  0.7774
 2849Sol     MW14500   2.569   0.540   2.674 -0.2762 -0.1495  0.4774
 2850Sol     OW14501   1.304   1.768   7.344 -0.1195  0.5267 -0.1154
 2850Sol     HW14502   1.358   1.751   7.267 -1.3758 -1.7456 -0.5461
 2850Sol     HW14503   1.239   1.831   7.314  0.8793  1.5315 -0.2129
 2850Sol     MW14504   1.303   1.772   7.335 -0.4939  0.1373  0.3903
 2851Sol     OW14505   1.526   0.558   3.778 -0.0371 -0.0793  0.0065
 2851Sol     HW14506   1.528   0.500   3.854 -0.2236  0.0179  0.0857
 2851Sol     HW14507   1.472   0.512   3.713 -0.8587  0.3680  0.3649
 2851Sol     MW14508   1.521   0.549   3.779 -0.9994  0.1106  0.6572
 2852Sol     OW14509   3.124   2.076   1.797 -0.2664  0.2647  0.1099
 2852Sol     HW14510   3.200   2.019   1.779 -0.7589 -0.1749 -0.5998
 2852Sol     HW14511   3.069   2.066   1.719 -0.7087  1.1435  0.3173
 2852Sol     MW14512   3.126   2.070   1.788  0.1219  0.1598  0.6304
 2853Sol     OW14513   1.992   0.123   3.480  0.4559 -0.3540  0.2754
 2853Sol     HW14514   1.930   0.053   3.502 -0.1036  0.4324  1.2031
 2853Sol     HW14515   2.014   0.107   3.388 -0.1662 -1.3674  0.2983
 2853Sol     MW14516   1.989   0.115   3.474  0.0533 -0.6568  0.6794
 2854Sol     OW14517   3.201   0.907   9.894  0.1142  0.4552  0.3492
 2854Sol     HW14518   3.191   0.813   9.876  1.2477  0.3476  0.2527
 2854Sol     HW14519   3.278   0.933   9.844  0.8619  1.0523  1.7793
 2854Sol     MW14520   3.207   0.901   9.888 -0.0670  0.3366 -0.0009
 2855Sol     OW14521   2.427   0.266   6.404 -0.6025  0.0469 -0.1388
 2855Sol     HW14522   2.472   0.339   6.361  0.7357  0.4084  1.8114
 2855Sol     HW14523   2.445   0.190   6.350  0.4088  0.6410 -0.6357
 2855Sol     MW14524   2.432   0.266   6.396 -0.1454  0.2657  0.1378
 2856Sol     OW14525   0.375   3.345   9.057 -0.1129  0.4008  0.5901
 2856Sol     HW14526   0.447   3.304   9.105 -0.1036 -0.8733 -0.5023
 2856Sol     HW14527   0.300   3.338   9.115  0.0086 -0.6966  0.6141
 2856Sol     MW14528   0.375   3.341   9.066  0.4140  0.5173  0.6756
 2857Sol     OW14529   1.469   2.555   1.785 -0.5424 -0.2121 -0.0500
 2857Sol     HW14530   1.380   2.544   1.751 -0.6175 -0.7598  0.3197
 2857Sol     HW14531   1.483   2.479   1.841  0.7078 -0.8878 -1.2534
 2857Sol     MW14532   1.462   2.548   1.787 -0.2359  0.8586 -0.1180
 2858Sol     OW14533   1.256   1.167   8.198  0.3684 -0.2320  0.1177
 2858Sol     HW14534   1.179   1.164   8.142  0.9620  1.0530 -0.7978
 2858Sol     HW14535   1.329   1.148   8.139  0.8104 -1.0259  0.8961
 2858Sol     MW14536   1.256   1.165   8.188  0.5871 -0.2704  0.4893
 2859Sol     OW14537   0.671   0.715   4.279  0.0888 -0.5905 -0.0488
 2859Sol     HW14538   0.720   0.661   4.216 -0.5294 -1.5323  0.2621
 2859Sol     HW14539   0.598   0.659   4.306 -1.2433  0.8510 -0.6199
 2859Sol     MW14540   0.669   0.705   4.276  0.1644 -0.2215 -0.0271
 2860Sol     OW14541   1.453   1.707   7.604 -0.4823  0.1685  0.2722
 2860Sol     HW14542   1.384   1.727   7.540 -0.9620 -1.0779  0.3891
 2860Sol     HW14543   1.480   1.618   7.583  0.4356  0.3126  0.8345
 2860Sol     MW14544   1.449   1.701   7.596 -0.0356 -0.1112 -0.3993
 2861Sol     OW14545   3.272   0.156   5.523 -0.0599  0.0781  0.2834
 2861Sol     HW14546   3.303   0.177   5.611 -1.2301 -0.3405  0.8167
 2861Sol     HW14547   3.195   0.100   5.538  0.3863 -0.9214 -1.0221
 2861Sol     MW14548   3.268   0.153   5.532  0.2115  0.1841  0.7239
 2862Sol     OW14549   2.146   0.052   3.686  0.3371  0.2783  0.0424
 2862Sol     HW14550   2.098   0.088   3.611  0.9717 -0.0246 -0.5064
 2862Sol     HW14551   2.225   0.106   3.692 -0.1858  0.9453  1.1095
 2862Sol     MW14552   2.148   0.060   3.680 -0.4464 -0.1238 -0.1121
 2863Sol     OW14553   2.935   0.179   4.327 -0.2383  0.0406  0.7458
 2863Sol     HW14554   3.025   0.208   4.310 -0.4513  0.4841  0.3588
 2863Sol     HW14555   2.886   0.207   4.249 -0.6131 -0.6362  0.7349
 2863Sol     MW14556   2.939   0.185   4.318  0.4108 -0.2940  0.5572
 2864Sol     OW14557   2.296   0.274   5.154  0.1413  0.2624 -0.3444
 2864Sol     HW14558   2.262   0.227   5.078  0.4466  0.1974 -0.4430
 2864Sol     HW14559   2.292   0.366   5.129 -2.6101  0.4653  0.7268
 2864Sol     MW14560   2.293   0.278   5.145 -0.4590  0.2199 -0.5926
 2865Sol     OW14561   0.640   0.836   2.556  1.1798  0.1042  0.1389
 2865Sol     HW14562   0.583   0.822   2.632  3.2850 -1.5397  1.4572
 2865Sol     HW14563   0.662   0.929   2.561  0.5765  0.2174  1.0169
 2865Sol     MW14564   0.637   0.843   2.564 -0.0834 -0.3079  0.4391
 2866Sol     OW14565   0.806   2.620   6.802  0.3126 -0.5307 -0.8079
 2866Sol     HW14566   0.754   2.660   6.732 -0.6920 -0.8748 -0.2568
 2866Sol     HW14567   0.855   2.551   6.758 -0.4883 -0.8959 -1.1299
 2866Sol     MW14568   0.806   2.618   6.791 -0.8166  0.3629  0.3985
 2867Sol     OW14569   2.550   1.976   2.018 -0.0948 -0.2373 -0.0553
 2867Sol     HW14570   2.620   2.041   2.022  0.2250 -0.6194  0.6590
 2867Sol     HW14571   2.577   1.916   1.948 -0.1180  0.0837 -0.3407
 2867Sol     MW14572   2.559   1.976   2.012  0.1926 -0.5703 -0.0808
 2868Sol     OW14573   1.800   2.746   8.333  0.2332  0.0315  0.3658
 2868Sol     HW14574   1.810   2.824   8.279 -0.7228  0.0190  0.1647
 2868Sol     HW14575   1.727   2.767   8.393  0.2652 -0.5336  0.6046
 2868Sol     MW14576   1.794   2.755   8.334  0.2734  0.1135  0.1034
 2869Sol     OW14577   1.357   0.235   8.665 -0.0716  0.2146 -0.5481
 2869Sol     HW14578   1.420   0.202   8.600  0.1532 -1.3062  0.4333
 2869Sol     HW14579   1.412   0.274   8.733 -0.2755  0.7015 -0.6584
 2869Sol     MW14580   1.368   0.236   8.665 -1.0324  0.0745  0.0966
 2870Sol     OW14581   1.895   1.982   5.744 -0.0023 -0.0114 -0.1970
 2870Sol     HW14582   1.841   1.904   5.730  1.6461 -0.8891 -1.8866
 2870Sol     HW14583   1.847   2.053   5.700 -0.4861 -0.4882 -0.4364
 2870Sol     MW14584   1.886   1.982   5.739  0.6609  0.0733  0.0938
 2871Sol     OW14585   1.087   2.140   1.904 -0.3290  0.0507  0.0867
 2871Sol     HW14586   1.119   2.058   1.942  1.4940  0.3782 -0.6854
 2871Sol     HW14587   1.073   2.197   1.979  2.1534  0.3122  0.4038
 2871Sol     MW14588   1.089   2.138   1.914 -0.3869  0.4372  0.3604
 2872Sol     OW14589   0.517   2.175   5.748  0.0666  0.0544  0.3850
 2872Sol     HW14590   0.559   2.257   5.772  1.0292 -0.4915  0.6038
 2872Sol     HW14591   0.442   2.201   5.694  1.3517  1.0048 -0.9789
 2872Sol     MW14592   0.514   2.185   5.745 -0.2429  0.8790 -0.2625
 2873Sol     OW14593   2.179   1.459   7.963 -0.4564  0.5145  0.1589
 2873Sol     HW14594   2.221   1.522   8.022 -0.7970  1.7351 -0.8896
 2873Sol     HW14595   2.098   1.501   7.936 -2.0600 -1.5368  1.5897
 2873Sol     MW14596   2.176   1.468   7.966 -0.3029 -0.6581 -0.8188
 2874Sol     OW14597   3.272   0.282   6.808 -0.4393 -0.7154  0.2413
 2874Sol     HW14598   3.251   0.285   6.715  0.7351 -0.3950 -0.0173
 2874Sol     HW14599   3.255   0.371   6.839  0.2414 -0.5362  0.0980
 2874Sol     MW14600   3.269   0.291   6.803  0.2511  0.8490 -0.4637
 2875Sol     OW14601   2.849   2.974   3.335  0.6042 -0.0697 -0.3484
 2875Sol     HW14602   2.782   2.913   3.305  0.1435  0.7178 -0.9510
 2875Sol     HW14603   2.801   3.046   3.376  1.0027  0.9936 -1.6912
 2875Sol     MW14604   2.839   2.975   3.336  0.1996  0.1543 -0.5236
 2876Sol     OW14605   2.524   0.008   6.332  0.1419  0.5399 -0.3603
 2876Sol     HW14606   2.599  -0.023   6.282  0.1853  0.1745 -0.0747
 2876Sol     HW14607   2.448  -0.027   6.285  0.1701  0.4831 -0.3632
 2876Sol     MW14608   2.524   0.002   6.324 -0.1649 -0.4824  0.4183
 2877Sol     OW14609   1.142   2.341   7.695  0.1634 -0.1153  0.2389
 2877Sol     HW14610   1.178   2.292   7.769  1.1174  0.6471  0.2980
 2877Sol     HW14611   1.219   2.370   7.646 -0.4209  0.4258 -0.3744
 2877Sol     MW14612   1.152   2.339   7.697 -0.1628  0.1783  0.0078
 2878Sol     OW14613   0.756   1.747   6.906  0.4250 -0.4708 -0.3946
 2878Sol     HW14614   0.815   1.779   6.974  0.6164  0.9018 -1.1951
 2878Sol     HW14615   0.802   1.766   6.824 -2.2289  3.0399 -1.1841
 2878Sol     MW14616   0.765   1.751   6.904  0.1756 -0.2990  0.6277
 2879Sol     OW14617   1.320   1.346   9.671  0.2116  0.3730  0.5914
 2879Sol     HW14618   1.403   1.302   9.686  0.0547  0.0712  0.5768
 2879Sol     HW14619   1.338   1.438   9.690  0.8472  0.4921 -0.5648
 2879Sol     MW14620   1.329   1.351   9.674 -0.1970 -0.1234  0.0470
 2880Sol     OW14621   2.475   0.121   4.568  0.0482 -0.6613  0.3243
 2880Sol     HW14622   2.551   0.179   4.562 -0.2482  0.0200  2.8947
 2880Sol     HW14623   2.402   0.179   4.591 -1.3179 -1.2944 -2.2145
 2880Sol     MW14624   2.475   0.132   4.569 -0.3789  0.1307 -0.1624
 2881Sol     OW14625   2.771   2.998   4.489 -0.0050 -0.3123 -0.3392
 2881Sol     HW14626   2.726   2.993   4.573  0.8534  0.4060  0.1589
 2881Sol     HW14627   2.859   2.963   4.506  0.7135  1.3608 -0.5567
 2881Sol     MW14628   2.775   2.994   4.498  0.2994 -0.5870  0.2358
 2882Sol     OW14629   0.912   2.209   8.739  0.5028  0.1778 -0.1115
 2882Sol     HW14630   0.868   2.252   8.812  0.0756 -2.6847  1.3622
 2882Sol     HW14631   0.841   2.175   8.684  0.8361 -0.4674 -0.1489
 2882Sol     MW14632   0.902   2.210   8.740  0.7794  0.1217 -0.6858
 2883Sol     OW14633   1.118   1.924   7.269 -0.5458  0.2288 -0.0864
 2883Sol     HW14634   1.078   1.954   7.351  1.3945  0.6131  0.7356
 2883Sol     HW14635   1.163   2.001   7.234 -0.2991 -0.2626 -0.8685
 2883Sol     MW14636   1.118   1.933   7.273 -0.4891  0.6791  0.2400
 2884Sol     OW14637   1.699   0.562   1.814 -0.7582  0.8383  0.0808
 2884Sol     HW14638   1.691   0.606   1.729 -0.3110  1.6240  0.4407
 2884Sol     HW14639   1.684   0.470   1.795 -0.9774  1.0567 -0.8044
 2884Sol     MW14640   1.697   0.558   1.805 -0.0362 -0.7757  0.2307
 2885Sol     OW14641   1.043   3.036   6.226  0.1477 -0.4012  0.1751
 2885Sol     HW14642   1.112   3.049   6.161  0.0211 -0.5604  0.0065
 2885Sol     HW14643   0.963   3.026   6.173  0.5930 -4.5388  0.1525
 2885Sol     MW14644   1.042   3.036   6.215 -0.2444 -0.4690  0.3950
 2886Sol     OW14645   3.109   3.369   2.885  0.4483 -0.3954 -0.1033
 2886Sol     HW14646   3.108   3.436   2.954  0.0435 -0.7311  0.2262
 2886Sol     HW14647   3.051   3.301   2.919  0.8334 -0.8938 -0.4557
 2886Sol     MW14648   3.103   3.369   2.894  0.1225  1.0658  0.2511
 2887Sol     OW14649   0.751   0.515   8.090  0.3693  0.7472  0.4995
 2887Sol     HW14650   0.676   0.464   8.060  1.2110  0.5680 -1.3867
 2887Sol     HW14651   0.724   0.551   8.175 -0.9985 -1.1356  0.8807
 2887Sol     MW14652   0.742   0.514   8.095  0.1356  0.0157  0.1096
 2888Sol     OW14653   3.245   0.680   7.506  0.6629 -0.3265  0.0588
 2888Sol     HW14654   3.237   0.660   7.599 -0.0691 -0.0790  0.0513
 2888Sol     HW14655   3.225   0.773   7.499  0.6581 -0.3550 -0.3559
 2888Sol     MW14656   3.243   0.686   7.513  0.2324 -0.2716  0.1680
 2889Sol     OW14657   2.834   2.761   8.049  0.3216  0.6355  0.2062
 2889Sol     HW14658   2.836   2.699   8.122 -1.0058  1.5886  1.0885
 2889Sol     HW14659   2.761   2.732   7.995  1.5106 -0.2673 -0.9558
 2889Sol     MW14660   2.828   2.753   8.051 -0.3761 -0.8061 -0.5469
 2890Sol     OW14661   0.090   0.170   7.417  0.6521  0.6220  0.0474
 2890Sol     HW14662   0.145   0.194   7.492 -0.5393  1.3714  0.6994
 2890Sol     HW14663   0.033   0.246   7.404  0.1847  0.0936 -1.0010
 2890Sol     MW14664   0.090   0.179   7.423  1.2710  0.1557  0.1212
 2891Sol     OW14665   2.225   1.145   6.762  0.1081  0.3454 -0.4318
 2891Sol     HW14666   2.242   1.239   6.765  2.3540 -0.0348 -0.2299
 2891Sol     HW14667   2.307   1.107   6.730 -0.5340 -1.6107  0.1754
 2891Sol     MW14668   2.234   1.150   6.759 -0.2130 -0.1458  0.1404
 2892Sol     OW14669   2.186   0.748   2.529 -0.1186 -0.4231 -0.3546
 2892Sol     HW14670   2.153   0.658   2.532 -2.5940  0.3950 -1.8499
 2892Sol     HW14671   2.153   0.783   2.447  0.1341  2.1337  0.5971
 2892Sol     MW14672   2.180   0.743   2.522 -0.3649  0.2803 -0.0197
 2893Sol     OW14673   3.015   0.369   7.600 -0.3834 -0.8882 -0.1844
 2893Sol     HW14674   2.993   0.423   7.525  0.5117  1.6605  1.3233
 2893Sol     HW14675   3.111   0.368   7.602 -0.3804 -2.9444 -0.4698
 2893Sol     MW14676   3.022   0.373   7.594 -0.0645  0.3575  0.0660
 2894Sol     OW14677   3.095   1.502   6.326  0.0460 -0.1145 -0.1021
 2894Sol     HW14678   3.180   1.458   6.336 -0.3182 -0.7507  0.2605
 2894Sol     HW14679   3.033   1.431   6.309 -0.1178  0.5198 -2.3432
 2894Sol     MW14680   3.097   1.492   6.326  0.4318  0.2389 -0.3362
 2895Sol     OW14681   3.018   3.242   5.779 -0.5126 -0.5853  0.1566
 2895Sol     HW14682   3.056   3.181   5.842 -1.6406 -0.8782  0.5617
 2895Sol     HW14683   2.980   3.312   5.833  1.3311  0.8335 -0.3199
 2895Sol     MW14684   3.018   3.243   5.790  0.1014  0.2196  0.1420
 2896Sol     OW14685   3.189   2.599   6.943  0.6055  0.2530  0.6045
 2896Sol     HW14686   3.253   2.663   6.913  1.5454 -0.8859  0.1632
 2896Sol     HW14687   3.241   2.530   6.985 -0.5118  0.6580  2.7497
 2896Sol     MW14688   3.199   2.598   6.944 -0.8108 -0.4664  0.4137
 2897Sol     OW14689   1.755   2.477   3.507 -0.6301  0.4790  0.1769
 2897Sol     HW14690   1.680   2.418   3.512 -0.8263  0.6900 -0.2705
 2897Sol     HW14691   1.716   2.565   3.503 -0.3477  0.6176  0.5036
 2897Sol     MW14692   1.745   2.480   3.507  0.0606  0.2774 -0.0634
 2898Sol     OW14693   0.256   1.954   9.920 -0.0792 -1.4795  0.3085
 2898Sol     HW14694   0.265   1.999  10.003  1.8555  0.0860 -0.7089
 2898Sol     HW14695   0.183   1.998   9.876 -0.8721 -2.0792  1.0113
 2898Sol     MW14696   0.250   1.962   9.923  0.5200 -0.8103  0.0257
 2899Sol     OW14697   1.945   1.573   2.092  0.6487 -0.3771  0.5951
 2899Sol     HW14698   2.022   1.564   2.148  2.3925  0.0306 -1.6657
 2899Sol     HW14699   1.976   1.624   2.017 -1.9298  0.1191 -0.1758
 2899Sol     MW14700   1.955   1.577   2.090 -0.3669 -0.2794  0.1163
 2900Sol     OW14701   1.607   1.375   3.929 -0.3635 -0.1712 -0.1012
 2900Sol     HW14702   1.572   1.457   3.964 -0.0826 -0.6202  1.2762
 2900Sol     HW14703   1.653   1.336   4.003  0.2615 -1.1472 -1.0011
 2900Sol     MW14704   1.608   1.379   3.939  0.0957  0.1483  0.1703
 2901Sol     OW14705   0.594   0.612   2.056  0.7329 -0.0730 -0.4522
 2901Sol     HW14706   0.501   0.632   2.040  0.7895  0.7083  0.1249
 2901Sol     HW14707   0.640   0.650   1.981  0.5502 -0.7890 -0.9250
 2901Sol     MW14708   0.589   0.617   2.048 -0.1534 -0.0760  0.3854
 2902Sol     OW14709   0.975   2.484   2.671 -0.0236  0.0262 -0.2395
 2902Sol     HW14710   0.957   2.397   2.706 -2.7210 -0.4003 -2.5325
 2902Sol     HW14711   0.933   2.544   2.732  1.3107 -0.2865  1.0091
 2902Sol     MW14712   0.970   2.482   2.680  0.2820 -0.0608 -0.0626
 2903Sol     OW14713   1.837   2.249   7.352  0.2232 -0.0891  0.1437
 2903Sol     HW14714   1.850   2.337   7.317  1.6341 -0.4477 -0.2564
 2903Sol     HW14715   1.823   2.263   7.446  1.3967  0.4870  0.2355
 2903Sol     MW14716   1.837   2.258   7.357  0.7409 -0.5014 -0.1335
 2904Sol     OW14717   0.054   1.705   6.335 -0.0310 -0.0556 -0.2088
 2904Sol     HW14718  -0.023   1.721   6.281 -0.6771  0.8092  0.9204
 2904Sol     HW14719   0.063   1.610   6.338 -1.3350 -0.1795  0.0062
 2904Sol     MW14720   0.048   1.698   6.331 -0.4999  0.6215  0.1563
 2905Sol     OW14721   1.337   0.025   8.031  0.4786 -0.3638  0.1509
 2905Sol     HW14722   1.422  -0.018   8.023  0.7731  0.4253 -1.0604
 2905Sol     HW14723   1.287  -0.005   7.955  0.9656  2.0025 -1.1689
 2905Sol     MW14724   1.340   0.019   8.024 -0.0563 -0.1217 -0.1848
 2906Sol     OW14725   1.137   1.573   3.648 -0.1329 -0.4866  0.7631
 2906Sol     HW14726   1.045   1.560   3.672 -0.3917 -0.3033 -0.1253
 2906Sol     HW14727   1.175   1.485   3.650 -0.4868 -0.6462  0.4723
 2906Sol     MW14728   1.132   1.564   3.651 -0.0984 -0.1505  0.4373
 2907Sol     OW14729   3.066   3.111   6.211 -0.1391 -0.0172  0.2419
 2907Sol     HW14730   3.078   3.072   6.124  0.6961 -0.2189  0.4502
 2907Sol     HW14731   3.152   3.147   6.234 -0.6171  0.9862  0.5270
 2907Sol     MW14732   3.074   3.111   6.205 -0.1917 -0.3064 -0.3354
 2908Sol     OW14733   1.237   1.961   3.825  0.6012 -0.6290 -0.3324
 2908Sol     HW14734   1.248   1.929   3.736 -0.8755 -0.3174 -0.6448
 2908Sol     HW14735   1.275   2.049   3.824  2.1259 -1.2748 -0.2003
 2908Sol     MW14736   1.241   1.966   3.817  0.0140 -0.2353 -0.3334
 2909Sol     OW14737   1.819   3.320   2.578 -0.2201  0.1252 -0.2941
 2909Sol     HW14738   1.735   3.346   2.539 -0.7665 -0.2595  0.6048
 2909Sol     HW14739   1.801   3.313   2.671  0.7763 -0.1359 -0.1123
 2909Sol     MW14740   1.810   3.321   2.583 -0.4900 -0.1226 -1.0359
 2910Sol     OW14741   1.868   0.658   2.669  0.4479  0.1687 -0.0505
 2910Sol     HW14742   1.836   0.678   2.582 -0.1322 -1.3609 -0.2085
 2910Sol     HW14743   1.940   0.596   2.655  2.6882  2.5682  0.3711
 2910Sol     MW14744   1.872   0.654   2.660 -0.4640 -0.0553 -0.4424
 2911Sol     OW14745   0.681   3.190   8.878 -0.0437  0.0641  0.0193
 2911Sol     HW14746   0.636   3.260   8.830 -0.0219  1.1527  1.5682
 2911Sol     HW14747   0.763   3.176   8.830  0.9253  2.5695  0.9169
 2911Sol     MW14748   0.684   3.195   8.869 -0.1970  0.4542  0.1613
 2912Sol     OW14749   2.750   2.343   5.026 -0.1111 -0.4725  0.0085
 2912Sol     HW14750   2.656   2.358   5.038 -0.1849  0.2907 -1.3700
 2912Sol     HW14751   2.789   2.428   5.043  0.2524 -0.5871 -0.2708
 2912Sol     MW14752   2.745   2.352   5.029  0.1432 -0.1032 -0.3089
 2913Sol     OW14753   0.744   2.070   7.119  0.5355 -0.4136 -0.4284
 2913Sol     HW14754   0.651   2.052   7.131  0.3017  0.6440 -0.5528
 2913Sol     HW14755   0.748   2.165   7.109  1.8887 -0.1805  1.9882
 2913Sol     MW14756   0.736   2.077   7.119 -0.4821 -0.5106  0.0272
 2914Sol     OW14757   2.337   2.934   5.950  0.1837 -0.0357  0.8468
 2914Sol     HW14758   2.403   2.876   5.911 -0.5611 -0.1446 -0.2595
 2914Sol     HW14759   2.261   2.926   5.893 -0.9493 -0.2272  2.3462
 2914Sol     MW14760   2.336   2.928   5.942  0.2320  0.7605  0.0817
 2915Sol     OW14761   0.277   1.270   2.968 -0.4974  0.3813  0.0217
 2915Sol     HW14762   0.267   1.275   3.063 -0.5147  0.6313  0.0069
 2915Sol     HW14763   0.343   1.335   2.947  0.1258 -0.2659 -0.0457
 2915Sol     MW14764   0.282   1.276   2.975  0.3755  0.7303  0.5950
 2916Sol     OW14765   2.277   1.937   5.296  0.1547  0.0952 -0.3133
 2916Sol     HW14766   2.253   1.892   5.215 -0.1618 -0.5867  0.1458
 2916Sol     HW14767   2.198   1.931   5.350  0.0429  1.3958 -0.3230
 2916Sol     MW14768   2.268   1.932   5.294  0.0499  0.8125  0.2598
 2917Sol     OW14769   2.999   0.891   3.864 -0.0553  0.1084 -0.1264
 2917Sol     HW14770   3.024   0.984   3.860 -0.0258  0.0183 -2.3785
 2917Sol     HW14771   3.082   0.844   3.867 -0.0487  0.0835 -0.7122
 2917Sol     MW14772   3.008   0.895   3.864 -0.4976  0.7153 -0.3476
 2918Sol     OW14773   2.269   0.397   4.180 -0.2979 -0.1753  0.3365
 2918Sol     HW14774   2.195   0.408   4.120  0.7832 -2.0875 -1.3921
 2918Sol     HW14775   2.248   0.318   4.229  0.0971 -0.1028  0.6254
 2918Sol     MW14776   2.260   0.391   4.179  0.6675 -0.1143  0.2454
 2919Sol     OW14777   2.965   3.165   3.036  0.3717 -0.4024 -0.3305
 2919Sol     HW14778   2.881   3.135   3.070  1.9159 -0.8047  3.3190
 2919Sol     HW14779   3.005   3.087   2.999 -0.4116 -0.4151 -1.1784
 2919Sol     MW14780   2.961   3.155   3.036  0.5209 -0.1966 -0.0060
 2920Sol     OW14781   2.059   2.893   1.827 -0.4014 -0.1955  0.1505
 2920Sol     HW14782   2.006   2.905   1.905 -0.8100  0.8203 -0.2767
 2920Sol     HW14783   2.114   2.972   1.823  0.7341 -0.9699  0.2800
 2920Sol     MW14784   2.059   2.902   1.834 -0.0895 -0.2430 -0.3860
 2921Sol     OW14785   3.304   0.285   2.456  0.6729  0.3030 -0.5511
 2921Sol     HW14786   3.356   0.257   2.381  0.2169  0.3205 -0.8677
 2921Sol     HW14787   3.221   0.315   2.419 -0.1860 -1.2217  0.0898
 2921Sol     MW14788   3.301   0.286   2.446 -0.1918 -0.3857  0.6639
 2922Sol     OW14789   1.347   1.557   4.742 -0.0684  0.2873 -0.0090
 2922Sol     HW14790   1.341   1.518   4.655 -0.5919 -0.2041  0.2444
 2922Sol     HW14791   1.436   1.538   4.771  0.8729  2.4260 -1.3577
 2922Sol     MW14792   1.354   1.552   4.737 -0.2802 -0.0492  0.2526
 2923Sol     OW14793   0.143   0.121   3.151 -0.9603 -0.2332 -0.0337
 2923Sol     HW14794   0.159   0.028   3.135  3.1267  0.2416  0.6768
 2923Sol     HW14795   0.122   0.126   3.245 -0.5228 -0.3549  0.0689
 2923Sol     MW14796   0.142   0.113   3.158 -0.3164  0.3754 -0.0863
 2924Sol     OW14797   1.247   2.190   7.906  0.0174  0.4510  0.9749
 2924Sol     HW14798   1.250   2.131   7.981  1.6560 -1.1343 -0.2748
 2924Sol     HW14799   1.332   2.235   7.907  0.1021  0.3364  0.0353
 2924Sol     MW14800   1.255   2.189   7.913  0.2251  0.2461  0.7175
 2925Sol     OW14801   1.808   2.170   6.275  0.6466  0.2599 -0.0405
 2925Sol     HW14802   1.722   2.128   6.272  0.3855  0.7450  0.8194
 2925Sol     HW14803   1.789   2.264   6.272  1.0955  0.3964  1.3111
 2925Sol     MW14804   1.799   2.175   6.274 -0.7060 -0.0541  0.5531
 2926Sol     OW14805   0.792   2.348   8.166 -0.3061 -0.1509 -0.3360
 2926Sol     HW14806   0.865   2.390   8.212  1.7121 -1.5992 -2.0947
 2926Sol     HW14807   0.809   2.366   8.073 -1.4539 -1.6724 -0.8596
 2926Sol     MW14808   0.800   2.354   8.162  0.8096 -0.4306 -0.4157
 2927Sol     OW14809   0.711   0.926   6.888  0.3671 -0.1706 -0.0918
 2927Sol     HW14810   0.653   0.881   6.826 -0.1507 -0.4654  0.5993
 2927Sol     HW14811   0.783   0.958   6.834  0.2405 -0.9706 -0.7484
 2927Sol     MW14812   0.712   0.925   6.877 -0.0466  0.2430  0.7767
 2928Sol     OW14813   3.146   1.954   2.811 -0.1603  0.2870 -0.3021
 2928Sol     HW14814   3.060   1.993   2.797 -0.3441  0.3252  0.9051
 2928Sol     HW14815   3.136   1.899   2.889  0.7669 -0.1350 -0.4701
 2928Sol     MW14816   3.137   1.953   2.816 -0.9300  0.0207 -0.0285
 2929Sol     OW14817   2.726   0.269   4.510  0.5778  0.0841  0.2795
 2929Sol     HW14818   2.802   0.255   4.454 -0.3447  1.0372 -1.2364
 2929Sol     HW14819   2.672   0.332   4.463 -1.6409 -1.3124  0.8671
 2929Sol     MW14820   2.728   0.273   4.501 -0.0616 -0.0440 -0.8336
 2930Sol     OW14821   2.069   3.441   2.301 -0.1778  0.6838 -0.0681
 2930Sol     HW14822   2.045   3.478   2.386  0.0457  0.0658  0.2745
 2930Sol     HW14823   1.986   3.420   2.259 -0.2666 -0.6293  0.7405
 2930Sol     MW14824   2.060   3.442   2.305  0.3883 -0.0064  0.2256
 2931Sol     OW14825   0.248   3.318   4.863  0.0807 -0.0358 -0.3476
 2931Sol     HW14826   0.319   3.339   4.803 -1.0463  2.0952 -1.0218
 2931Sol     HW14827   0.188   3.264   4.812 -0.4296  1.0169 -0.8913
 2931Sol     MW14828   0.249   3.315   4.853  0.3564  0.4527 -0.3061
 2932Sol     OW14829   0.440   0.971   9.197  0.1014 -0.0583 -0.4137
 2932Sol     HW14830   0.361   0.948   9.246 -0.2347  2.8397  0.5207
 2932Sol     HW14831   0.410   0.984   9.107 -0.2622 -0.1985 -0.3123
 2932Sol     MW14832   0.430   0.970   9.193 -0.4821 -0.0241  0.3230
 2933Sol     OW14833   0.068   0.466   9.411 -0.1627 -0.1064 -0.2027
 2933Sol     HW14834  -0.022   0.451   9.381 -0.7573  2.1369  0.3686
 2933Sol     HW14835   0.082   0.560   9.400  1.5849 -0.1733  1.1882
 2933Sol     MW14836   0.061   0.473   9.407  0.3234 -0.1002 -0.0644
 2934Sol     OW14837   1.757   1.239   4.123 -0.3832 -0.3185  0.0007
 2934Sol     HW14838   1.771   1.163   4.065 -1.2847 -1.0713  0.7553
 2934Sol     HW14839   1.751   1.201   4.210 -1.7727  0.5238  0.2799
 2934Sol     MW14840   1.758   1.228   4.125  0.6295  0.2524  0.4940
 2935Sol     OW14841   3.049   2.029   6.905 -0.4323 -0.1495 -0.1953
 2935Sol     HW14842   3.092   2.086   6.969 -2.1067  1.0287 -0.0605
 2935Sol     HW14843   3.118   2.006   6.843  0.3569  1.8547 -0.1066
 2935Sol     MW14844   3.059   2.032   6.905  0.3271  0.1067  0.5288
 2936Sol     OW14845   2.961   1.269   6.552 -0.1971 -0.4059  0.6494
 2936Sol     HW14846   2.992   1.191   6.599 -0.4317 -0.3830  0.8435
 2936Sol     HW14847   2.971   1.247   6.460  1.1594 -0.0952  0.7099
 2936Sol     MW14848   2.965   1.260   6.548  0.4623  0.1745  0.2671
 2937Sol     OW14849   0.990   0.868   9.830  0.1606  0.2527 -0.2314
 2937Sol     HW14850   0.938   0.946   9.812 -0.1118 -0.0199 -0.6347
 2937Sol     HW14851   1.010   0.832   9.743  1.3750  0.5939 -0.0963
 2937Sol     MW14852   0.987   0.872   9.820  0.1037 -0.1074 -0.1805
 2938Sol     OW14853   0.620   3.062   1.521 -0.3763  0.4160  0.2434
 2938Sol     HW14854   0.576   2.999   1.579 -1.4244  1.2136  0.3391
 2938Sol     HW14855   0.581   3.146   1.545 -1.1375  0.7048 -1.9160
 2938Sol     MW14856   0.612   3.064   1.529  0.3354  0.0109 -0.5615
 2939Sol     OW14857   2.630   0.780   5.431  0.7424 -0.0313  0.3611
 2939Sol     HW14858   2.723   0.800   5.423  0.7058  0.1016  0.2614
 2939Sol     HW14859   2.588   0.833   5.363  0.6600 -0.5861 -0.0168
 2939Sol     MW14860   2.635   0.787   5.424 -0.1785  0.4250 -0.1458
 2940Sol     OW14861   0.854   2.993   9.734  0.4834 -0.0803 -0.2312
 2940Sol     HW14862   0.943   2.968   9.758  1.1920  2.4394 -0.1296
 2940Sol     HW14863   0.840   3.076   9.777 -2.2756 -0.8780  0.4591
 2940Sol     MW14864   0.861   2.998   9.740  0.4197  0.1242  0.3610
 2941Sol     OW14865   1.548   2.822   6.972 -0.4560 -0.2204 -0.3484
 2941Sol     HW14866   1.531   2.801   7.064  0.2100 -2.0969 -0.6408
 2941Sol     HW14867   1.624   2.881   6.976 -1.3294  0.8912  0.3721
 2941Sol     MW14868   1.553   2.825   6.981  0.2576  0.5372  0.1895
 2942Sol     OW14869   1.426   1.089   3.531  0.7608 -0.1549 -0.1670
 2942Sol     HW14870   1.412   1.133   3.447 -1.3649  0.0695  0.2601
 2942Sol     HW14871   1.444   1.161   3.593 -1.2349  0.0392  0.2375
 2942Sol     MW14872   1.426   1.100   3.529 -0.0768  0.3541 -0.5164
 2943Sol     OW14873   1.617   1.647   1.752 -0.5708  0.2000 -0.0170
 2943Sol     HW14874   1.643   1.615   1.665 -0.0224 -2.4783  1.0953
 2943Sol     HW14875   1.675   1.722   1.768 -2.0421  2.0241 -2.7802
 2943Sol     MW14876   1.624   1.651   1.745 -0.7517  0.0629 -0.0464
 2944Sol     OW14877   1.601   3.043   7.803 -0.4962  0.1128  0.4907
 2944Sol     HW14878   1.568   3.008   7.886 -0.7287 -1.2381 -0.1453
 2944Sol     HW14879   1.638   2.966   7.759  0.5082  1.0038 -0.2294
 2944Sol     MW14880   1.601   3.033   7.807  0.1123  0.6244 -0.7507
 2945Sol     OW14881   3.159   2.439   3.350 -0.0508  0.3633  0.1317
 2945Sol     HW14882   3.195   2.519   3.311 -0.0049  0.3008  0.0457
 2945Sol     HW14883   3.237   2.387   3.372 -0.1199 -0.1447 -0.8312
 2945Sol     MW14884   3.170   2.441   3.349 -0.3892 -0.1358  0.0623
 2946Sol     OW14885   2.854   0.377   9.454  0.0547  0.1534 -0.2753
 2946Sol     HW14886   2.828   0.295   9.412  0.9092 -0.8524  1.0886
 2946Sol     HW14887   2.819   0.370   9.543 -0.6541  1.6871 -0.4134
 2946Sol     MW14888   2.849   0.369   9.458  0.2221 -0.5023  0.3707
 2947Sol     OW14889   1.707   1.356   6.538  0.1005 -0.4112  0.1558
 2947Sol     HW14890   1.709   1.300   6.461 -2.0012 -2.1318  1.2584
 2947Sol     HW14891   1.793   1.398   6.541 -0.3809  1.0583 -4.0416
 2947Sol     MW14892   1.715   1.355   6.532 -0.6768 -0.0410  0.1747
 2948Sol     OW14893   2.973   3.026   7.049  0.0117  0.1570 -0.5280
 2948Sol     HW14894   2.958   3.064   7.136 -1.2910 -0.0531 -0.6537
 2948Sol     HW14895   3.001   2.936   7.066  2.7983  1.0060 -0.2396
 2948Sol     MW14896   2.974   3.022   7.059 -0.1682  0.4072  0.6892
 2949Sol     OW14897   1.641   2.131   2.673  0.2335 -0.0583  0.4413
 2949Sol     HW14898   1.595   2.119   2.590 -1.0192  0.1430  1.1086
 2949Sol     HW14899   1.593   2.199   2.719  0.8360 -0.2675  1.4088
 2949Sol     MW14900   1.633   2.136   2.669 -0.6439  0.7760  0.2746
 2950Sol     OW14901   1.816   2.289   7.649  0.0976  0.4689 -0.1315
 2950Sol     HW14902   1.895   2.253   7.688 -0.3698 -1.3365 -0.7971
 2950Sol     HW14903   1.829   2.384   7.652  1.1285  0.3047  2.1439
 2950Sol     MW14904   1.824   2.295   7.653  0.1197 -0.4122  0.9036
 2951Sol     OW14905   0.103   0.877   7.474  0.3274 -0.7044 -0.5445
 2951Sol     HW14906   0.171   0.814   7.498  0.3993  0.0072  1.1982
 2951Sol     HW14907   0.131   0.912   7.390  2.2648 -0.2506  0.2491
 2951Sol     MW14908   0.112   0.875   7.469 -0.7291  0.2656  0.1718
 2952Sol     OW14909   2.276   3.215   3.909  0.4152  0.0657 -0.1562
 2952Sol     HW14910   2.242   3.228   3.820 -0.2475  2.0235  0.3509
 2952Sol     HW14911   2.368   3.193   3.896  0.5113  1.0844 -1.3280
 2952Sol     MW14912   2.281   3.215   3.900 -0.2511 -0.2996  0.1715
 2953Sol     OW14913   0.350   1.362   2.282  0.2633 -0.6142  0.1973
 2953Sol     HW14914   0.265   1.389   2.315  0.4331 -0.9391  0.8999
 2953Sol     HW14915   0.377   1.290   2.339  0.3999 -1.4178 -0.8592
 2953Sol     MW14916   0.345   1.358   2.290 -0.3136 -0.1435  0.4015
 2954Sol     OW14917   1.506   2.548   9.152 -0.2027 -0.4332 -0.6934
 2954Sol     HW14918   1.574   2.615   9.161  0.1022 -0.4793 -2.3989
 2954Sol     HW14919   1.429   2.596   9.122 -1.1610 -0.2772  1.8893
 2954Sol     MW14920   1.505   2.558   9.150  0.3880  0.2047 -0.7690
 2955Sol     OW14921   0.851   2.410   5.369  0.1167  0.4339 -0.0115
 2955Sol     HW14922   0.851   2.491   5.419 -0.4557 -0.1856  1.0267
 2955Sol     HW14923   0.923   2.358   5.408 -0.2941 -0.0270  0.1378
 2955Sol     MW14924   0.858   2.412   5.377 -0.7174 -0.1742  0.0901
 2956Sol     OW14925   0.032   2.585   7.557  0.0493 -0.6738  0.5279
 2956Sol     HW14926   0.022   2.666   7.507 -0.8731 -1.1586 -0.0830
 2956Sol     HW14927  -0.033   2.592   7.627 -1.4965 -1.7931 -0.7509
 2956Sol     MW14928   0.025   2.593   7.559  0.0135  0.5466 -0.3923
 2957Sol     OW14929   2.263   3.148   5.693 -0.2142 -0.0976 -0.0313
 2957Sol     HW14930   2.192   3.111   5.745 -0.3279  0.9332  0.5808
 2957Sol     HW14931   2.296   3.076   5.640 -1.8066 -0.5605 -0.4156
 2957Sol     MW14932   2.259   3.139   5.693 -0.3410 -0.4656  0.3238
 2958Sol     OW14933   2.361   3.090   9.023  0.1351 -0.0767 -0.7593
 2958Sol     HW14934   2.449   3.065   8.996  0.8268  2.8506 -1.4348
 2958Sol     HW14935   2.338   3.027   9.091  2.8121 -0.7931 -0.4475
 2958Sol     MW14936   2.367   3.083   9.026 -0.0305 -0.0252  0.2581
 2959Sol     OW14937   0.822   0.874   2.837  0.2071 -0.0523 -0.4938
 2959Sol     HW14938   0.808   0.900   2.928  2.4569  1.8966 -0.6646
 2959Sol     HW14939   0.785   0.786   2.831 -1.2588  0.3644  1.9183
 2959Sol     MW14940   0.817   0.868   2.844  0.2983 -0.5388  0.3190
 2960Sol     OW14941   2.239   0.932   7.289 -0.1540 -0.2490 -0.5863
 2960Sol     HW14942   2.208   0.848   7.257  0.6047 -0.0468 -1.9027
 2960Sol     HW14943   2.168   0.993   7.269  0.3998 -0.0839 -2.1271
 2960Sol     MW14944   2.230   0.930   7.284 -0.2873 -0.3755  0.0339
 2961Sol     OW14945   2.344   3.392   2.449 -0.0792  0.1420 -0.4550
 2961Sol     HW14946   2.388   3.463   2.496  0.5368 -1.6376  1.7352
 2961Sol     HW14947   2.272   3.434   2.404  1.4284  2.4727 -0.7592
 2961Sol     MW14948   2.342   3.402   2.449 -0.5690  0.3001  0.1111
 2962Sol     OW14949   0.826   3.273   1.708 -0.9182  0.4143  0.4215
 2962Sol     HW14950   0.843   3.234   1.623  2.4542  1.7141  0.4452
 2962Sol     HW14951   0.830   3.199   1.769  1.5891  0.1785  0.0148
 2962Sol     MW14952   0.828   3.263   1.706  0.7799  0.0329 -0.2177
 2963Sol     OW14953   1.881   3.068   5.168 -0.0974  0.1408  0.5141
 2963Sol     HW14954   1.949   3.111   5.117  1.0244 -2.0531  0.0846
 2963Sol     HW14955   1.799   3.094   5.126  0.5380  1.7578  0.2309
 2963Sol     MW14956   1.880   3.074   5.160  0.2442  0.3963 -0.0939
 2964Sol     OW14957   1.295   1.689   6.777 -0.0707  0.1389 -0.1057
 2964Sol     HW14958   1.326   1.641   6.700 -0.4179 -0.3429  0.0505
 2964Sol     HW14959   1.204   1.661   6.788  0.5811 -1.4588  1.7162
 2964Sol     MW14960   1.290   1.682   6.771 -0.5966  0.1122 -0.2710
 2965Sol     OW14961   2.700   2.934   4.771 -0.6379 -0.5058  0.2787
 2965Sol     HW14962   2.778   2.891   4.806 -0.9293 -0.8361  0.5225
 2965Sol     HW14963   2.663   2.981   4.846 -0.2241  0.3146 -0.0253
 2965Sol     MW14964   2.704   2.935   4.781  0.7537  0.3430  0.4558
 2966Sol     OW14965   1.729   2.915   2.224 -0.1386 -0.4492  0.6044
 2966Sol     HW14966   1.824   2.929   2.230 -0.1439  0.9164 -1.9195
 2966Sol     HW14967   1.719   2.844   2.162 -0.7882 -0.1257  0.3348
 2966Sol     MW14968   1.737   2.910   2.219  0.1951 -0.4699 -1.0495
 2967Sol     OW14969   0.460   3.408   4.706  0.0431 -0.3671  0.5237
 2967Sol     HW14970   0.547   3.396   4.667 -0.1474  0.6984 -0.2633
 2967Sol     HW14971   0.473   3.474   4.774 -0.1995  0.0386  0.1833
 2967Sol     MW14972   0.469   3.413   4.708 -0.1105 -0.0834 -0.3162
 2968Sol     OW14973   1.657   0.471   2.359  0.5012  0.3550  0.3762
 2968Sol     HW14974   1.628   0.478   2.268 -0.6936  1.5546  0.8225
 2968Sol     HW14975   1.718   0.544   2.370 -0.9840  1.5331  1.0942
 2968Sol     MW14976   1.660   0.478   2.352 -0.0472  0.4351 -0.0047
 2969Sol     OW14977   1.773   1.616   3.669 -0.6660  0.0749 -0.4194
 2969Sol     HW14978   1.703   1.679   3.683 -0.3051  0.0276  1.6698
 2969Sol     HW14979   1.728   1.539   3.634 -1.4387  0.6112 -0.6252
 2969Sol     MW14980   1.763   1.614   3.667  0.1688  0.1866  0.5322
 2970Sol     OW14981   2.578   1.471   3.161  0.2392  0.0668  0.1076
 2970Sol     HW14982   2.512   1.490   3.094  1.6189 -1.4078 -1.7006
 2970Sol     HW14983   2.602   1.557   3.196  0.9689  1.0709 -2.7402
 2970Sol     MW14984   2.574   1.481   3.158 -0.1616  0.6148 -0.0974
 2971Sol     OW14985   1.533   3.120   6.738 -0.6561 -0.2295  0.4831
 2971Sol     HW14986   1.601   3.100   6.802  0.8345  0.7538 -0.7487
 2971Sol     HW14987   1.453   3.133   6.790  0.0178 -1.6798  1.9151
 2971Sol     MW14988   1.532   3.119   6.748  0.1670 -0.0454  0.1158
 2972Sol     OW14989   0.755   1.787   5.850  0.0724  0.1226  0.1809
 2972Sol     HW14990   0.682   1.849   5.844 -0.2711 -0.4489 -2.0642
 2972Sol     HW14991   0.834   1.842   5.842 -0.1909  0.4250 -0.3480
 2972Sol     MW14992   0.756   1.798   5.849 -0.3112  0.3204  0.3558
 2973Sol     OW14993   1.075   1.302   3.352 -0.8994 -0.3715 -0.5962
 2973Sol     HW14994   1.048   1.392   3.369 -1.9912 -1.0002  1.1261
 2973Sol     HW14995   1.049   1.286   3.261 -0.6649  1.0346 -0.9325
 2973Sol     MW14996   1.070   1.309   3.345 -0.0395  0.2771  0.2155
 2974Sol     OW14997   2.787   0.288   7.122 -0.1538 -0.3262  0.6575
 2974Sol     HW14998   2.712   0.239   7.089  1.7040 -1.5452 -1.8743
 2974Sol     HW14999   2.846   0.221   7.156  2.5067  0.0649 -3.0146
 2974Sol     MW15000   2.786   0.278   7.122  0.1602  0.2288 -0.0483
 2975Sol     OW15001   1.250   1.464   6.215 -0.2162 -0.3406  0.0730
 2975Sol     HW15002   1.242   1.548   6.260 -1.4748 -0.2130 -0.3479
 2975Sol     HW15003   1.254   1.399   6.286  3.0098  0.2164  0.4357
 2975Sol     MW15004   1.249   1.465   6.226 -0.5067  0.3357  0.5615
 2976Sol     OW15005   1.597   1.220   6.774  0.4861  0.4601  0.0099
 2976Sol     HW15006   1.581   1.284   6.843 -2.3978  0.0587 -0.2228
 2976Sol     HW15007   1.620   1.272   6.698  1.4794  1.0296  0.6863
 2976Sol     MW15008   1.598   1.230   6.774  0.5693  0.2843  0.1561
 2977Sol     OW15009   1.315   0.098   7.521  0.4190 -0.3252  0.1477
 2977Sol     HW15010   1.251   0.102   7.593  0.5200 -1.6246  0.3259
 2977Sol     HW15011   1.400   0.103   7.565  0.4823 -1.2001  0.1294
 2977Sol     MW15012   1.317   0.099   7.532 -0.0509 -0.3057  0.0751
 2978Sol     OW15013   1.207   1.427   4.939  1.0082 -0.2101  0.2473
 2978Sol     HW15014   1.266   1.476   4.882  1.0708  1.2635  1.5666
 2978Sol     HW15015   1.225   1.460   5.026  1.0179 -2.5486  1.1787
 2978Sol     MW15016   1.214   1.434   4.941  0.3094 -0.8497  0.1482
 2979Sol     OW15017   0.638   0.519   6.669  0.5986 -0.1240  0.2351
 2979Sol     HW15018   0.612   0.604   6.706  1.1474 -0.3640  1.1610
 2979Sol     HW15019   0.556   0.483   6.634  0.0630  0.0618  1.2819
 2979Sol     MW15020   0.628   0.524   6.669 -0.3693  0.1502  0.1288
 2980Sol     OW15021   0.132   2.264   8.989 -0.4424  0.2166 -0.5466
 2980Sol     HW15022   0.151   2.316   9.067 -0.1763  0.4869 -0.7917
 2980Sol     HW15023   0.041   2.285   8.968 -0.6592 -0.2048 -0.0445
 2980Sol     MW15024   0.125   2.270   8.994  0.4443  0.5031 -0.4896
 2981Sol     OW15025   0.994   0.941   7.334  0.4811  0.0160 -0.9628
 2981Sol     HW15026   0.950   0.860   7.360  0.4728  0.0718 -0.8038
 2981Sol     HW15027   1.011   0.930   7.241 -0.4439  0.2546 -1.1679
 2981Sol     MW15028   0.992   0.933   7.328 -0.3818  0.2237  0.7412
 2982Sol     OW15029   1.876   2.604   3.258  0.0793  0.0869  0.7411
 2982Sol     HW15030   1.935   2.599   3.183 -2.2290  0.5145 -1.1531
 2982Sol     HW15031   1.884   2.518   3.300 -0.2239 -0.9395 -1.2580
 2982Sol     MW15032   1.882   2.596   3.255 -0.1802  0.1358  0.3997
 2983Sol     OW15033   2.712   1.535   2.891  0.0703 -0.3769 -0.1162
 2983Sol     HW15034   2.617   1.520   2.886  0.5622 -4.0770  0.6176
 2983Sol     HW15035   2.720   1.629   2.907 -3.4742  0.0415 -0.4467
 2983Sol     MW15036   2.704   1.542   2.892  0.1379  0.1976  0.2142
 2984Sol     OW15037   0.619   1.298   6.927 -1.1177 -0.5989  0.4447
 2984Sol     HW15038   0.652   1.239   6.994 -0.9147  0.5576  1.3758
 2984Sol     HW15039   0.657   1.383   6.949 -0.4516 -0.3642 -1.5676
 2984Sol     MW15040   0.625   1.300   6.935  0.1281 -0.0216 -0.6945
 2985Sol     OW15041   0.879   1.115   2.371 -0.3047 -0.6514 -0.6304
 2985Sol     HW15042   0.845   1.108   2.461  0.6293  0.4969 -0.1762
 2985Sol     HW15043   0.901   1.207   2.360 -0.8202 -0.7045 -2.2075
 2985Sol     MW15044   0.878   1.122   2.378 -0.0148 -0.3962 -0.0711
 2986Sol     OW15045   1.029   1.768   4.596 -0.0679 -0.3370  0.5293
 2986Sol     HW15046   1.103   1.822   4.568 -0.9145  0.2296 -0.6418
 2986Sol     HW15047   1.041   1.685   4.550 -0.0015 -0.3455  0.5620
 2986Sol     MW15048   1.037   1.765   4.589 -0.3934 -0.4038 -0.1866
 2987Sol     OW15049   2.032   2.569   6.350  0.1408  0.1583 -0.4993
 2987Sol     HW15050   2.107   2.512   6.364  0.3767  0.4729 -0.4633
 2987Sol     HW15051   2.070   2.656   6.336 -0.0234 -0.1943 -3.6708
 2987Sol     MW15052   2.042   2.572   6.350  0.5128 -0.2822 -0.0500
 2988Sol     OW15053   2.201   3.155   6.054  0.2761  0.8682 -0.2023
 2988Sol     HW15054   2.109   3.163   6.028 -0.0238 -1.3029  0.0761
 2988Sol     HW15055   2.225   3.066   6.028  1.5298  0.5015  2.1048
 2988Sol     MW15056   2.195   3.147   6.049  0.4500  0.3255 -0.0435
 2989Sol     OW15057   0.746   1.513   7.052 -0.0862 -0.3807  0.2140
 2989Sol     HW15058   0.836   1.480   7.056 -0.5654 -1.9095 -1.1674
 2989Sol     HW15059   0.754   1.596   7.004  0.7417  0.1453  1.2254
 2989Sol     MW15060   0.755   1.518   7.048 -0.0124 -0.5673  0.0094
 2990Sol     OW15061   2.509   0.927   6.159 -0.4951 -0.2009  0.3698
 2990Sol     HW15062   2.454   0.871   6.214 -1.5000 -0.6802 -1.1187
 2990Sol     HW15063   2.598   0.906   6.186 -0.9161 -1.6061  0.6817
 2990Sol     MW15064   2.512   0.920   6.167  0.1950 -0.1046 -0.4630
 2991Sol     OW15065   1.600   0.459   8.479 -0.2983  0.0873  0.1676
 2991Sol     HW15066   1.564   0.443   8.566 -0.9429 -1.1268 -0.3088
 2991Sol     HW15067   1.531   0.429   8.419  1.5883 -2.6246 -0.7559
 2991Sol     MW15068   1.590   0.454   8.481 -0.4960 -0.5051 -0.2199
 2992Sol     OW15069   0.764   3.034   2.998 -0.3492  0.2715 -0.1010
 2992Sol     HW15070   0.725   2.954   3.033 -0.0201 -0.3736 -1.1802
 2992Sol     HW15071   0.760   3.022   2.903  1.2668  0.7841 -0.2379
 2992Sol     MW15072   0.760   3.026   2.993  0.5175 -0.3850  0.3321
 2993Sol     OW15073   3.031   0.952   7.331  0.1203 -0.1093 -0.1513
 2993Sol     HW15074   2.997   0.862   7.326  0.9459 -0.4161 -0.3650
 2993Sol     HW15075   2.955   1.006   7.350 -0.4879 -0.7866 -0.6752
 2993Sol     MW15076   3.022   0.949   7.332 -0.0742  0.7120 -0.3485
 2994Sol     OW15077   2.137   2.617   9.635  0.3220  0.0645  0.6234
 2994Sol     HW15078   2.079   2.664   9.575  1.7938  0.0374 -0.8475
 2994Sol     HW15079   2.224   2.626   9.596  0.6658 -3.7194  0.3457
 2994Sol     MW15080   2.139   2.622   9.626  0.6554  0.6163 -0.6824
 2995Sol     OW15081   0.413   2.425   7.221 -0.0822  0.2242  0.2411
 2995Sol     HW15082   0.475   2.469   7.163  1.0199 -1.2928  0.2119
 2995Sol     HW15083   0.353   2.493   7.249  0.9985  1.5278 -0.5489
 2995Sol     MW15084   0.413   2.435   7.218  0.2756 -0.3665 -0.0705
 2996Sol     OW15085   0.486   1.981   7.129  0.1543 -0.9607 -0.0619
 2996Sol     HW15086   0.481   1.997   7.035  1.7577 -0.8542 -0.1569
 2996Sol     HW15087   0.486   1.886   7.137 -1.4067 -0.9667 -0.0636
 2996Sol     MW15088   0.486   1.974   7.121  0.4870 -0.0840  0.0220
 2997Sol     OW15089   2.867   0.493   5.402 -0.0953 -0.1889 -0.2900
 2997Sol     HW15090   2.831   0.443   5.328 -0.2812  0.1076 -0.3977
 2997Sol     HW15091   2.915   0.428   5.453 -0.8478 -0.6013 -0.1007
 2997Sol     MW15092   2.869   0.483   5.400 -0.3158 -0.1355  0.0303
 2998Sol     OW15093   1.669   0.351   3.969  0.0646 -0.0538 -0.0699
 2998Sol     HW15094   1.638   0.281   4.026 -0.9559 -0.8806 -1.6042
 2998Sol     HW15095   1.656   0.431   4.019 -1.7863 -0.6750  0.4664
 2998Sol     MW15096   1.665   0.352   3.978  0.3778 -0.0389  0.3099
 2999Sol     OW15097   2.876   2.052   7.942  0.1919  0.0704  0.2942
 2999Sol     HW15098   2.849   2.106   7.868 -0.6687 -0.8843 -0.1024
 2999Sol     HW15099   2.796   2.007   7.970 -0.0006  2.1135  3.2470
 2999Sol     MW15100   2.867   2.052   7.938  0.0588  0.0127  0.0074
 3000Sol     OW15101   2.002   2.059   2.969 -0.0288 -0.2294 -0.2418
 3000Sol     HW15102   2.054   2.024   2.897  0.0595 -1.6691  0.5028
 3000Sol     HW15103   1.924   2.004   2.971 -0.7839  0.8173 -0.2452
 3000Sol     MW15104   1.999   2.051   2.963  0.2356 -0.0538  0.0488
 3001Sol     OW15105   1.785   0.326   2.067 -0.1232 -0.3229  0.0098
 3001Sol     HW15106   1.796   0.329   2.162  0.3122  0.9679 -0.0766
 3001Sol     HW15107   1.742   0.242   2.051 -0.0957 -0.6033  1.3348
 3001Sol     MW15108   1.782   0.319   2.075 -0.2446 -0.1061  0.1072
   3.32880   3.45320  11.36960
