Water-ethanol mixture in organosilica
15012
    1Sil     Ob    1   1.150   0.373  11.161  0.4179 -0.5298 -0.3140
    1Sil     Ob    2   1.723   0.378  10.369 -0.4492  0.9534  0.3120
    1Sil     Ob    3   0.968   0.870  10.722  0.1176 -0.0009  0.1993
    1Sil     Ob    4   1.509   0.875  11.110 -0.7726 -0.1471  0.0695
    1Sil     Ob    5   1.331   0.765  10.346 -0.4996  0.1700  0.4877
    1Sil     Ob    6   1.326   0.707  11.194 -0.7113 -0.2862 -0.4253
    1Sil     Ob    7   1.084   0.709  10.402 -0.6146  0.0285 -0.0121
    1Sil     Ob    8   1.630   0.685  10.800 -0.6423 -0.0777 -0.0366
    1Sil     Ob    9   1.132   0.450  10.919 -0.7551  0.2039  0.3154
    1Sil     Ob   10   1.411   0.444  10.517  0.3474  0.6229 -0.1023
    1Sil     Ob   11   1.095   0.628  11.104 -0.0185  0.1553 -0.2176
    1Sil     Ob   12   0.849   0.634  10.327  0.7531 -0.1777  0.0032
    1Sil     Ob   13   1.447   0.510  10.774  0.3454 -0.1001 -0.1758
    1Sil     Ob   14   1.050   0.623  10.748  0.1975  0.8349  0.2316
    1Sil     Ob   15   1.573   0.634  11.142  0.3370  0.0185 -0.4533
    1Sil     Ob   16   1.253   0.519  10.331 -0.3295 -0.6689  0.2911
    1Sil     Ob   17   1.503   0.460  10.273  0.0274 -0.2442  0.7522
    1Sil     Ob   18   0.922   0.448  11.070 -0.2138  0.2397  0.1947
    1Sil     Ob   19   1.211   0.444  10.675  0.5013 -0.4523  1.0137
    1Sil     Ob   20   0.887   0.693  10.566 -0.1155  0.4546  0.2250
    1Sil     Ob   21   1.413   0.680  10.952  0.3005 -0.0340 -0.6204
    1Sil     Ob   22   1.107   0.370  12.359  0.5061  0.3607  0.1639
    1Sil     Ob   23   1.685   0.380  11.554 -1.0949  0.6894 -0.2438
    1Sil     Ob   24   0.920   0.865  11.913  0.0389 -0.2124  0.6907
    1Sil     Ob   25   1.446   0.872  12.307  0.1639  0.6053 -0.2786
    1Sil     Ob   26   1.280   0.755  11.539  0.5301  0.2503  0.0892
    1Sil     Ob   27   1.278   0.697  12.382  0.1608 -0.1766 -0.3212
    1Sil     Ob   28   1.037   0.686  11.591 -1.3097  0.1773  0.0591
    1Sil     Ob   29   1.569   0.696  12.003 -0.7045 -0.3257  0.5079
    1Sil     Ob   30   1.083   0.458  12.113  0.5456 -0.3784  0.3123
    1Sil     Ob   31   1.656   0.456  11.320  0.4269  0.0789  0.2820
    1Sil     Ob   32   1.355   0.441  11.706 -0.5609  0.1716 -0.4786
    1Sil     Ob   33   1.040   0.613  12.307  0.2001  0.0643 -0.2363
    1Sil     Ob   34   0.802   0.615  11.494  0.7893 -0.4567  0.1552
    1Sil     Ob   35   1.387   0.510  11.946 -0.1958  0.2911  0.1009
    1Sil     Ob   36   0.996   0.612  11.924 -0.6095  0.0396  0.0893
    1Sil     Ob   37   1.516   0.623  12.328  0.4696  0.2991  0.0619
    1Sil     Ob   38   1.206   0.515  11.508 -0.4558  0.0481 -0.0256
    1Sil     Ob   39   1.447   0.434  11.465  0.2113  0.4371  0.7521
    1Sil     Ob   40   0.878   0.422  12.270 -0.4166 -0.3315  0.0429
    1Sil     Ob   41   1.152   0.424  11.866  0.2907 -0.1104  0.0065
    1Sil     Ob   42   0.825   0.699  11.741 -0.5107  0.0169  0.6699
    1Sil     Ob   43   1.357   0.691  12.145  0.0034  0.1505  0.0252
    1Sil     Ob   44   1.117   0.690  11.347  0.0828 -0.3996  0.2850
    1Sil     Ob   45   1.125   0.872  11.161  0.5124 -1.1479 -0.1224
    1Sil     Ob   46   1.737   0.865  10.372 -0.1904  0.1315  0.2341
    1Sil     Ob   47   1.404   0.766  10.699 -0.0583  0.2633  0.7638
    1Sil     Ob   48   0.959   1.359  10.732  0.7589  0.5145 -0.2474
    1Sil     Ob   49   1.514   1.363  11.114  0.7718  0.1165  0.4112
    1Sil     Ob   50   1.333   1.256  10.342 -0.2176 -0.7286  0.3597
    1Sil     Ob   51   1.339   1.181  11.192  0.0371  0.5262  0.3527
    1Sil     Ob   52   1.092   1.185  10.415  0.7471  0.0823 -0.3649
    1Sil     Ob   53   1.631   1.192  10.802  0.5149  0.4712 -0.7124
    1Sil     Ob   54   1.115   0.934  10.911 -0.0511 -0.2575 -0.3592
    1Sil     Ob   55   1.415   0.951  10.508 -0.0070 -0.0763  0.5394
    1Sil     Ob   56   1.104   1.119  11.087 -0.0723  0.1386 -0.6563
    1Sil     Ob   57   0.854   1.124  10.316  0.2037  0.2913 -0.5316
    1Sil     Ob   58   1.449   1.010  10.769 -0.2441  0.2783 -0.3370
    1Sil     Ob   59   1.039   1.118  10.748 -0.0408 -0.1247 -0.5776
    1Sil     Ob   60   1.585   1.127  11.159 -0.2480 -0.6308 -0.5067
    1Sil     Ob   61   1.265   1.014  10.318 -0.4503 -0.0705 -0.1026
    1Sil     Ob   62   1.508   0.949  10.270  0.0893 -0.4545  0.3212
    1Sil     Ob   63   0.905   0.948  11.065  0.5386  0.0828  0.1241
    1Sil     Ob   64   1.210   0.940  10.665 -1.1633  0.8572  0.1297
    1Sil     Ob   65   0.884   1.183  10.567  0.0089 -0.0493 -0.1417
    1Sil     Ob   66   1.430   1.176  10.953 -0.4210  0.6582  0.3267
    1Sil     Ob   67   1.083   0.859  12.368 -0.7290  0.0727  0.1137
    1Sil     Ob   68   1.684   0.862  11.570 -0.5261 -0.2294 -0.1107
    1Sil     Ob   69   1.330   0.765  11.901 -0.2022 -0.0771 -0.6569
    1Sil     Ob   70   0.912   1.359  11.918 -0.2636 -0.2417 -0.2362
    1Sil     Ob   71   1.452   1.369  12.306 -0.4424 -0.2570 -0.1680
    1Sil     Ob   72   1.282   1.265  11.550 -0.2215 -0.3583 -0.1492
    1Sil     Ob   73   1.289   1.181  12.377 -0.3254  0.0101 -0.0926
    1Sil     Ob   74   1.036   1.181  11.603 -0.0173  0.5020  0.0810
    1Sil     Ob   75   1.582   1.200  11.994  0.1067 -0.5305 -0.2455
    1Sil     Ob   76   1.075   0.928  12.106 -0.2747 -0.0860 -0.1641
    1Sil     Ob   77   1.661   0.935  11.320 -0.1435 -0.1978  0.0802
    1Sil     Ob   78   1.368   0.924  11.714 -0.1382  0.2570  0.4198
    1Sil     Ob   79   1.063   1.110  12.289  0.0087  0.1025 -0.0629
    1Sil     Ob   80   0.803   1.123  11.515 -0.3062 -0.1547 -0.3205
    1Sil     Ob   81   1.402   1.015  11.947  0.4021 -0.7207  0.0048
    1Sil     Ob   82   0.977   1.117  11.962 -0.0287  0.3479  0.0866
    1Sil     Ob   83   1.533   1.113  12.335  0.0796 -0.5640 -0.1279
    1Sil     Ob   84   1.213   1.010  11.528 -0.4387 -0.4638 -0.2118
    1Sil     Ob   85   1.453   0.937  11.473 -0.8981  0.1028  0.5878
    1Sil     Ob   86   0.865   0.936  12.261  0.1794  0.2410 -0.0787
    1Sil     Ob   87   1.161   0.966  11.873 -0.4524  0.6369  0.1262
    1Sil     Ob   88   0.830   1.194  11.758 -0.0618  0.3200 -0.0908
    1Sil     Ob   89   1.370   1.178  12.147 -0.2457 -0.3376 -0.9619
    1Sil     Ob   90   1.121   1.174  11.347 -0.1851  0.3698 -0.0183
    1Sil     Ob   91   1.146   1.366  11.167  0.3332  0.2630  0.2225
    1Sil     Ob   92   1.737   1.367  10.377 -0.0236  0.1791 -0.6363
    1Sil     Ob   93   1.393   1.260  10.717  0.0836 -0.0525  0.5112
    1Sil     Ob   94   0.946   1.849  10.727 -0.5330  0.5574 -0.2158
    1Sil     Ob   95   1.500   1.857  11.122  0.1960 -0.1971  0.0542
    1Sil     Ob   96   1.328   1.755  10.329  0.4307 -0.0481 -0.0655
    1Sil     Ob   97   1.325   1.692  11.199  0.6475  0.0334  0.1319
    1Sil     Ob   98   1.087   1.675  10.394 -0.3687  0.0638 -0.1639
    1Sil     Ob   99   1.624   1.674  10.795 -0.2441  0.0700 -0.2360
    1Sil     Ob  100   1.122   1.453  10.917 -0.1998 -0.5015 -0.0693
    1Sil     Ob  101   1.405   1.435  10.530  0.2067  0.4283 -0.2358
    1Sil     Ob  102   1.101   1.615  11.104 -0.6281  0.4558  0.2615
    1Sil     Ob  103   0.855   1.609  10.301 -0.4059 -0.0954 -0.4953
    1Sil     Ob  104   1.430   1.502  10.775 -0.5700  0.1396  0.1600
    1Sil     Ob  105   1.029   1.608  10.737  0.8457  0.1895 -0.5092
    1Sil     Ob  106   1.565   1.614  11.151 -0.2731 -0.4938  0.2277
    1Sil     Ob  107   1.261   1.502  10.324 -0.2395  0.9921 -1.0239
    1Sil     Ob  108   1.505   1.437  10.284  0.5183 -0.0563  0.9918
    1Sil     Ob  109   0.916   1.449  11.069  0.0186 -0.7422  0.0161
    1Sil     Ob  110   1.198   1.439  10.674  0.7629  0.4299 -0.0028
    1Sil     Ob  111   0.883   1.676  10.552 -0.3228  0.3601 -0.0280
    1Sil     Ob  112   1.411   1.685  10.951 -0.1482 -0.1667 -0.2380
    1Sil     Ob  113   1.116   1.361  12.350  0.2803  0.4302 -0.0435
    1Sil     Ob  114   1.670   1.359  11.562  0.4291 -0.0441 -0.3007
    1Sil     Ob  115   1.355   1.256  11.895  0.2081  0.4663  0.0490
    1Sil     Ob  116   0.913   1.856  11.930  0.3115 -0.5655  0.1357
    1Sil     Ob  117   1.457   1.856  12.326 -0.3294  0.3859  0.5714
    1Sil     Ob  118   1.272   1.752  11.565  0.7103  0.2680 -0.3053
    1Sil     Ob  119   1.286   1.687  12.403  0.0670 -0.0759  0.3852
    1Sil     Ob  120   1.029   1.678  11.608 -0.3791  0.0685 -0.7814
    1Sil     Ob  121   1.569   1.692  12.001 -0.6109  0.4086 -0.0285
    1Sil     Ob  122   1.069   1.425  12.115 -0.0144 -0.3373  0.1908
    1Sil     Ob  123   1.648   1.428  11.316  0.3555 -0.5774 -0.0813
    1Sil     Ob  124   1.352   1.445  11.713  0.2591 -0.2164 -0.0496
    1Sil     Ob  125   1.065   1.611  12.291  0.2027  0.1809 -0.3301
    1Sil     Ob  126   0.797   1.608  11.513 -0.2569  0.4090 -0.2263
    1Sil     Ob  127   1.394   1.506  11.963 -0.8066 -0.1535 -0.0817
    1Sil     Ob  128   0.987   1.606  11.954 -0.2801  0.3502 -0.3372
    1Sil     Ob  129   1.527   1.609  12.348 -0.1256  0.0142 -0.4054
    1Sil     Ob  130   1.198   1.508  11.514 -0.0914 -0.2505  0.4236
    1Sil     Ob  131   1.439   1.446  11.468 -0.3046  0.3504  0.1563
    1Sil     Ob  132   0.881   1.434  12.280 -0.3979 -0.4381  0.0587
    1Sil     Ob  133   1.155   1.423  11.874 -0.0552 -0.0791  0.0923
    1Sil     Ob  134   0.833   1.676  11.759  0.2725  0.0207 -0.3668
    1Sil     Ob  135   1.363   1.682  12.148  0.1739 -0.0080 -0.3806
    1Sil     Ob  136   1.117   1.691  11.357 -0.0812 -0.1287 -0.2231
    1Sil     Ob  137   1.142   1.870  11.173 -0.0924  0.5478  0.1658
    1Sil     Ob  138   1.720   1.857  10.378 -0.1931 -0.1729  0.2363
    1Sil     Ob  139   1.389   1.750  10.695  0.3760 -0.1741  0.3606
    1Sil     Ob  140   0.966   2.359  10.732  0.1354  0.0904 -0.4404
    1Sil     Ob  141   1.502   2.351  11.103 -0.4855 -0.1703 -0.3104
    1Sil     Ob  142   1.322   2.258  10.355 -0.3332 -0.2730  0.8974
    1Sil     Ob  143   1.332   2.179  11.198  0.2314  0.3265 -0.8396
    1Sil     Ob  144   1.078   2.169  10.415  0.0154 -0.1985  0.0319
    1Sil     Ob  145   1.618   2.153  10.801 -0.2619  0.2503 -0.9604
    1Sil     Ob  146   1.102   1.932  10.917  0.7609  0.1368  0.5076
    1Sil     Ob  147   1.386   1.934  10.512  0.0577 -0.2549 -0.8896
    1Sil     Ob  148   1.096   2.108  11.112  0.6407 -0.0598 -0.3811
    1Sil     Ob  149   0.845   2.116  10.319  0.0486  0.3719 -0.2486
    1Sil     Ob  150   1.404   1.997  10.767  0.1308 -0.1318 -0.2360
    1Sil     Ob  151   1.029   2.101  10.737  0.2575  0.2024 -0.2039
    1Sil     Ob  152   1.572   2.099  11.148 -0.1105 -0.3466  0.2380
    1Sil     Ob  153   1.263   2.001  10.309  0.7372  0.0453 -0.5250
    1Sil     Ob  154   1.507   1.933  10.272  0.0789 -0.4433 -0.3788
    1Sil     Ob  155   0.906   1.935  11.077  0.1627 -0.1020  0.2195
    1Sil     Ob  156   1.187   1.912  10.668  0.5761 -0.3736  0.2652
    1Sil     Ob  157   0.870   2.196  10.559 -0.4145  0.3193  0.0550
    1Sil     Ob  158   1.411   2.175  10.950  0.1666 -0.4502  0.0362
    1Sil     Ob  159   1.102   1.858  12.363  0.7498  0.4781 -0.0123
    1Sil     Ob  160   1.703   1.851  11.557  0.4550  0.3383 -0.3992
    1Sil     Ob  161   1.338   1.748  11.902  0.1872  0.7851  0.3232
    1Sil     Ob  162   0.921   2.342  11.922 -0.1464  0.0270  0.0105
    1Sil     Ob  163   1.456   2.351  12.333  0.0587 -0.4334 -0.0285
    1Sil     Ob  164   1.289   2.245  11.549  0.1525 -0.9619  0.4191
    1Sil     Ob  165   1.288   2.176  12.390  0.6693  0.1397 -0.6793
    1Sil     Ob  166   1.046   2.156  11.595  0.2299 -0.6907 -0.0181
    1Sil     Ob  167   1.580   2.154  11.995  0.6758  0.0006  0.4942
    1Sil     Ob  168   1.079   1.922  12.117  0.6706 -0.8385 -0.1456
    1Sil     Ob  169   1.649   1.925  11.317 -0.4791 -0.2206  0.3985
    1Sil     Ob  170   1.366   1.930  11.717 -0.3038  0.3609  0.8529
    1Sil     Ob  171   1.060   2.114  12.305  0.2906  0.0127 -0.5685
    1Sil     Ob  172   0.806   2.093  11.516  0.4182  0.4645 -0.6551
    1Sil     Ob  173   1.386   1.990  11.963  0.7940 -0.2569 -0.0922
    1Sil     Ob  174   1.000   2.104  11.947  0.0732 -0.2831  0.1143
    1Sil     Ob  175   1.537   2.102  12.357  0.1694 -0.1911 -0.2953
    1Sil     Ob  176   1.221   1.997  11.515 -0.1351  0.0728  0.2149
    1Sil     Ob  177   1.457   1.902  11.483  0.1351  0.4420 -0.1361
    1Sil     Ob  178   0.873   1.928  12.270  1.3749  0.9322  0.0258
    1Sil     Ob  179   1.155   1.918  11.872  0.0873  0.4562  0.2673
    1Sil     Ob  180   0.846   2.173  11.751  0.1363 -0.7680  0.0721
    1Sil     Ob  181   1.382   2.195  12.147 -0.0173  0.1784  0.2978
    1Sil     Ob  182   1.125   2.176  11.358 -0.2872 -0.0208 -0.1703
    1Sil     Ob  183   1.141   2.353  11.178  0.0785 -0.5369 -0.2513
    1Sil     Ob  184   1.735   2.359  10.386  0.7325  0.3252 -0.1361
    1Sil     Ob  185   1.400   2.252  10.703  0.5824 -0.6764  0.0963
    1Sil     Ob  186   0.955   2.837  10.725  0.0774  0.3065 -0.5143
    1Sil     Ob  187   1.496   2.841  11.149  0.2079 -0.2184  0.1066
    1Sil     Ob  188   1.326   2.745  10.348  0.0710  0.5108  0.6995
    1Sil     Ob  189   1.330   2.672  11.200  0.2810 -0.1341  0.6414
    1Sil     Ob  190   1.080   2.689  10.397  0.1392 -0.2031 -0.3089
    1Sil     Ob  191   1.631   2.675  10.802 -0.4359 -0.3381 -0.1381
    1Sil     Ob  192   1.122   2.429  10.927  0.9917 -0.4440 -0.2090
    1Sil     Ob  193   1.408   2.441  10.527  0.1063 -0.6455 -0.2350
    1Sil     Ob  194   1.103   2.606  11.105 -0.1632 -0.7170  0.2482
    1Sil     Ob  195   0.858   2.603  10.302 -0.4904 -0.2086  0.6201
    1Sil     Ob  196   1.454   2.497  10.779 -0.0528 -0.3782  0.3902
    1Sil     Ob  197   1.038   2.593  10.759 -0.9196 -0.3395 -0.3916
    1Sil     Ob  198   1.561   2.598  11.147 -0.1432 -0.5278  0.2483
    1Sil     Ob  199   1.253   2.506  10.322  0.1495 -0.0596 -0.4060
    1Sil     Ob  200   1.499   2.430  10.277  0.5620 -0.4056  0.2666
    1Sil     Ob  201   0.918   2.427  11.074  0.8343 -0.1627 -0.1562
    1Sil     Ob  202   1.216   2.421  10.686  0.0104  0.1914 -0.0263
    1Sil     Ob  203   0.886   2.657  10.555 -0.1370 -0.2014  0.2463
    1Sil     Ob  204   1.416   2.679  10.959 -0.1722  0.0780 -0.3972
    1Sil     Ob  205   1.102   2.343  12.364  0.1561  0.5359  1.0601
    1Sil     Ob  206   1.676   2.338  11.564  0.6231  0.5351  0.3727
    1Sil     Ob  207   1.362   2.243  11.888 -0.7880 -0.2541 -0.0685
    1Sil     Ob  208   0.921   2.836  11.924  0.5095 -0.4813 -0.3556
    1Sil     Ob  209   1.460   2.844  12.305  0.3546  0.2598 -0.4958
    1Sil     Ob  210   1.276   2.742  11.538  0.0028 -0.0295 -0.1529
    1Sil     Ob  211   1.286   2.665  12.392 -0.9609  0.7084 -0.1954
    1Sil     Ob  212   1.044   2.663  11.601  0.1457 -0.9580  0.1213
    1Sil     Ob  213   1.576   2.660  12.003 -0.4262  0.2182  0.3760
    1Sil     Ob  214   1.074   2.421  12.116  0.1191  0.3066  0.6188
    1Sil     Ob  215   1.646   2.418  11.306  0.2754 -0.4955 -0.1254
    1Sil     Ob  216   1.363   2.425  11.710  0.3986 -0.0869  0.3286
    1Sil     Ob  217   1.047   2.588  12.313 -0.0988  0.2602  0.1693
    1Sil     Ob  218   0.806   2.579  11.516 -0.1596 -0.1040  0.7039
    1Sil     Ob  219   1.400   2.479  11.954 -0.5496 -0.1309 -0.2612
    1Sil     Ob  220   0.995   2.588  11.938  0.0800 -0.5253  0.3791
    1Sil     Ob  221   1.534   2.595  12.350 -0.0804 -0.1308 -0.2166
    1Sil     Ob  222   1.216   2.491  11.521 -0.0384  0.1907  0.2727
    1Sil     Ob  223   1.453   2.422  11.464  0.1275  0.0715  0.1456
    1Sil     Ob  224   0.872   2.415  12.272 -0.3130 -0.4255  0.3025
    1Sil     Ob  225   1.168   2.407  11.872 -0.1723 -0.5174 -0.1520
    1Sil     Ob  226   0.825   2.666  11.757 -0.1850  0.3834  0.2016
    1Sil     Ob  227   1.374   2.640  12.151 -0.0330 -0.0117  0.6232
    1Sil     Ob  228   1.117   2.672  11.349  0.4300 -0.8034  0.6283
    1Sil     Ob  229   1.145   2.847  11.170  0.4206 -0.1998 -0.1925
    1Sil     Ob  230   1.715   2.850  10.379  0.4228 -0.1006  0.5346
    1Sil     Ob  231   1.394   2.739  10.714  0.2371 -0.2288 -0.0278
    1Sil     Ob  232   0.960   3.327  10.728 -0.0400 -1.2606  0.0138
    1Sil     Ob  233   1.504   3.335  11.118 -0.4195  0.0495 -0.1742
    1Sil     Ob  234   1.327   3.234  10.328  0.3872 -0.2953 -0.6236
    1Sil     Ob  235   1.335   3.155  11.186  0.0932 -0.1049  0.1594
    1Sil     Ob  236   1.089   3.192  10.394 -0.0443 -0.4008  0.1548
    1Sil     Ob  237   1.621   3.165  10.797  0.9793  0.4853  0.6683
    1Sil     Ob  238   1.115   2.902  10.924 -0.5177  0.1068 -0.3332
    1Sil     Ob  239   1.411   2.908  10.529  0.4838  0.5513  0.1648
    1Sil     Ob  240   1.093   3.085  11.109  0.3442  0.4012 -0.8722
    1Sil     Ob  241   0.866   3.095  10.301  0.9034  0.3051  0.0084
    1Sil     Ob  242   1.428   2.988  10.776 -0.2468  0.3121 -0.0216
    1Sil     Ob  243   1.048   3.082  10.744 -0.2521 -0.0481 -0.2841
    1Sil     Ob  244   1.573   3.085  11.164  0.2136  0.9606 -0.4714
    1Sil     Ob  245   1.251   2.993  10.356  0.2170  0.0966  0.3841
    1Sil     Ob  246   1.488   2.939  10.283 -0.1688  0.1519  0.3350
    1Sil     Ob  247   0.913   2.912  11.077  0.5013 -0.1719  0.1010
    1Sil     Ob  248   1.201   2.906  10.674  0.3337  0.9439 -0.0971
    1Sil     Ob  249   0.886   3.155  10.554 -0.3045  0.1856  0.3267
    1Sil     Ob  250   1.423   3.167  10.956 -0.3754  0.6259 -0.3557
    1Sil     Ob  251   1.100   2.837  12.363  0.1891  0.2341  0.2464
    1Sil     Ob  252   1.683   2.839  11.572 -0.1314  0.0793 -0.8473
    1Sil     Ob  253   1.341   2.729  11.909 -0.4757  0.4065 -0.3793
    1Sil     Ob  254   0.917   3.333  11.907 -0.3237  0.3711 -0.4127
    1Sil     Ob  255   1.450   3.334  12.310  0.4197 -0.4134  0.2170
    1Sil     Ob  256   1.286   3.223  11.545  0.2955  0.1115  0.6496
    1Sil     Ob  257   1.281   3.169  12.393 -0.1125 -0.3838  0.4598
    1Sil     Ob  258   1.042   3.153  11.599 -1.1212 -0.1620  0.0099
    1Sil     Ob  259   1.573   3.160  11.999  0.2550 -0.5615 -0.0879
    1Sil     Ob  260   1.074   2.915  12.114 -1.1813  0.3320  0.1543
    1Sil     Ob  261   1.657   2.908  11.326 -0.1875 -0.2123  0.5111
    1Sil     Ob  262   1.365   2.904  11.718 -0.4121  0.0173  0.1207
    1Sil     Ob  263   1.051   3.087  12.307  0.0985  0.2687  0.1449
    1Sil     Ob  264   0.803   3.072  11.501  0.1571 -0.0390 -0.1241
    1Sil     Ob  265   1.383   2.976  11.978 -0.4905 -0.2855  0.2087
    1Sil     Ob  266   0.992   3.087  11.948  0.3272  0.1634  0.2394
    1Sil     Ob  267   1.522   3.084  12.336  0.1665  0.4220  0.4372
    1Sil     Ob  268   1.217   2.983  11.520 -0.3992 -0.3936  0.6469
    1Sil     Ob  269   1.457   2.912  11.479  0.4592  0.2153 -0.3052
    1Sil     Ob  270   0.871   2.905  12.282  0.6026  0.6735  0.1918
    1Sil     Ob  271   1.163   2.908  11.872 -0.3020  0.1254  0.2508
    1Sil     Ob  272   0.835   3.149  11.747 -0.1245 -0.2673  0.3307
    1Sil     Ob  273   1.360   3.152  12.155 -0.0538 -0.3261  0.4004
    1Sil     Ob  274   1.129   3.166  11.352 -0.9629 -0.2673 -0.6021
    1Sil     Ob  275   1.153   3.339  11.154  0.3999 -0.0004 -0.2414
    1Sil     Ob  276   1.734   3.344  10.351 -1.0896 -0.6328 -0.5171
    1Sil     Ob  277   1.390   3.226  10.703 -0.1447  0.5477  0.3943
    1Sil     Ob  278   1.329   0.203  11.197 -0.1961 -0.4486 -0.4455
    1Sil     Ob  279   1.091   0.199  10.388  0.1962  0.5169 -0.4414
    1Sil     Ob  280   1.625   0.201  10.803 -0.4333 -0.3266  0.2418
    1Sil     Ob  281   1.120   3.416  10.914  0.6609  0.2442 -0.4611
    1Sil     Ob  282   1.407   3.409  10.509 -0.3079 -0.3483 -0.1082
    1Sil     Ob  283   1.109   3.580  11.101 -0.9498 -0.0574  0.7656
    1Sil     Ob  284   0.859   0.142  10.303  0.5794 -0.1058 -0.1661
    1Sil     Ob  285   1.451   3.465  10.771 -0.4146  0.1243  0.3501
    1Sil     Ob  286   1.035   0.133  10.752  0.0564  0.2237  0.1587
    1Sil     Ob  287   1.570   0.126  11.137 -0.5690 -0.1187 -0.2303
    1Sil     Ob  288   1.267   0.038  10.298  0.5127 -0.8495  0.0853
    1Sil     Ob  289   1.499   3.405  10.257 -0.3836 -0.3033 -0.3568
    1Sil     Ob  290   0.921   3.414  11.075 -0.0861  0.2712 -0.1649
    1Sil     Ob  291   1.211   3.405  10.667 -0.3002 -0.2766 -0.1396
    1Sil     Ob  292   0.890   0.219  10.555  0.0601 -0.2335  0.1815
    1Sil     Ob  293   1.418   0.206  10.954 -0.3156 -0.0783 -0.4457
    1Sil     Ob  294   1.089   3.337  12.366  0.3580  0.1084  0.4335
    1Sil     Ob  295   1.683   3.345  11.574 -0.2189  0.2749  0.3037
    1Sil     Ob  296   1.336   3.216  11.907  0.2434 -0.2596 -0.3262
    1Sil     Ob  297   1.290   0.193  12.375 -0.1993 -0.8560  0.1006
    1Sil     Ob  298   1.034   0.189  11.600  0.5059 -0.1537  0.1808
    1Sil     Ob  299   1.582   0.189  11.982 -0.8260  0.1547 -0.5086
    1Sil     Ob  300   1.072   3.400  12.113  0.4522 -0.6004  0.3382
    1Sil     Ob  301   1.652   3.404  11.321 -0.0779 -0.3567 -0.3484
    1Sil     Ob  302   1.368   3.382  11.729 -0.1731 -0.1786  0.4646
    1Sil     Ob  303   1.054   3.577  12.298 -0.9831 -0.2338  0.1951
    1Sil     Ob  304   0.799   0.124  11.509  0.0688  0.3466  0.0144
    1Sil     Ob  305   1.391   3.466  11.965 -0.4151  0.6740  0.1067
    1Sil     Ob  306   0.992   0.132  11.945 -0.5996  0.0810 -0.2546
    1Sil     Ob  307   1.528   0.130  12.332  0.0166  0.1283 -0.0661
    1Sil     Ob  308   1.209   0.015  11.543  0.2938  0.2630 -0.3671
    1Sil     Ob  309   1.449   3.418  11.480  0.0651 -0.1647 -0.0304
    1Sil     Ob  310   0.865   3.397  12.262  0.4815 -0.4541 -0.0875
    1Sil     Ob  311   1.158   3.404  11.873 -0.2324  0.5577 -0.3860
    1Sil     Ob  312   0.832   0.199  11.756 -0.0459 -0.4527 -0.5392
    1Sil     Ob  313   1.374   0.200  12.134  0.2921  0.1141 -0.0823
    1Sil     Ob  314   1.119   0.191  11.355  0.1266  0.1506 -0.7053
    1Sil     Ob  315   1.979   0.369  11.169 -0.0819  0.0929 -0.2079
    1Sil     Ob  316   2.582   0.379  10.370  0.2368 -0.4946  0.1720
    1Sil     Ob  317   1.798   0.869  10.731  0.4623 -0.4425  0.0669
    1Sil     Ob  318   2.329   0.881  11.132  0.4336 -0.1496  0.8791
    1Sil     Ob  319   2.166   0.764  10.362  0.4190 -0.7868  0.0688
    1Sil     Ob  320   2.161   0.703  11.198 -0.3252 -0.2808 -0.1578
    1Sil     Ob  321   1.925   0.692  10.397 -0.2166  0.1000 -0.1742
    1Sil     Ob  322   2.456   0.698  10.804 -0.2224  0.3723  0.3035
    1Sil     Ob  323   1.947   0.442  10.919  0.5719  0.1318 -0.2790
    1Sil     Ob  324   2.246   0.448  10.524  0.3587  0.2537  0.7780
    1Sil     Ob  325   1.940   0.621  11.106 -0.0440  0.0056  0.0340
    1Sil     Ob  326   1.700   0.623  10.302 -0.3209  0.0032 -0.9257
    1Sil     Ob  327   2.261   0.520  10.775 -0.2726  0.2582 -0.6787
    1Sil     Ob  328   1.869   0.625  10.760 -0.0350  0.2167 -0.2221
    1Sil     Ob  329   2.403   0.628  11.144 -0.1120  0.3251 -0.6417
    1Sil     Ob  330   2.105   0.523  10.326  0.4408 -0.3418 -0.2878
    1Sil     Ob  331   2.343   0.433  10.287  0.2364  0.5258 -0.7531
    1Sil     Ob  332   1.754   0.458  11.082  0.2945  0.5240  0.2242
    1Sil     Ob  333   2.038   0.445  10.672 -0.2816  0.2786 -0.3626
    1Sil     Ob  334   1.722   0.693  10.555 -0.5292 -0.3254 -0.0722
    1Sil     Ob  335   2.247   0.714  10.955 -0.0312  0.4135 -0.0226
    1Sil     Ob  336   1.924   0.376  12.355  0.5977  0.2298 -0.2035
    1Sil     Ob  337   2.518   0.371  11.562  0.7139 -0.2910 -0.4089
    1Sil     Ob  338   1.740   0.873  11.917 -0.5264 -0.0805 -0.0050
    1Sil     Ob  339   2.272   0.878  12.306  0.0604 -0.0445  0.5391
    1Sil     Ob  340   2.114   0.747  11.540  0.2579 -0.1462 -0.1129
    1Sil     Ob  341   2.103   0.702  12.375  0.2359 -0.0635 -0.0984
    1Sil     Ob  342   1.869   0.679  11.596  0.5162 -0.1909 -0.4780
    1Sil     Ob  343   2.404   0.692  11.995 -0.2948  0.5273  0.1042
    1Sil     Ob  344   1.901   0.446  12.109  0.5318 -0.4116 -0.3737
    1Sil     Ob  345   2.489   0.451  11.314 -0.1503  0.2229  0.2665
    1Sil     Ob  346   2.187   0.443  11.706 -0.8546  0.3464 -0.3468
    1Sil     Ob  347   1.875   0.621  12.291  0.5604  0.0396 -0.2903
    1Sil     Ob  348   1.619   0.619  11.516 -0.2123 -0.5770 -0.3034
    1Sil     Ob  349   2.224   0.521  11.953 -0.1350  0.3513  0.8417
    1Sil     Ob  350   1.813   0.621  11.942 -0.5662 -0.2409  0.0994
    1Sil     Ob  351   2.345   0.634  12.337  0.0861 -0.0158 -0.6231
    1Sil     Ob  352   2.035   0.503  11.508  0.2128 -0.1113 -0.2730
    1Sil     Ob  353   2.280   0.444  11.466  0.0602  0.4940 -0.1993
    1Sil     Ob  354   1.689   0.447  12.265  0.0366 -0.1216 -0.0991
    1Sil     Ob  355   1.983   0.452  11.866  0.2182 -0.0645 -0.0005
    1Sil     Ob  356   1.650   0.692  11.753 -0.0959  0.0860 -0.0877
    1Sil     Ob  357   2.194   0.708  12.139 -0.3037  0.0929 -0.5666
    1Sil     Ob  358   1.950   0.685  11.347  0.4616  0.0205  0.4855
    1Sil     Ob  359   1.977   0.875  11.175  0.2151  0.3120  0.1902
    1Sil     Ob  360   2.570   0.876  10.373 -0.2691  0.6547  0.4893
    1Sil     Ob  361   2.230   0.772  10.698 -0.2481  0.4241  0.6496
    1Sil     Ob  362   1.802   1.362  10.737 -0.3269  0.0980  0.3013
    1Sil     Ob  363   2.346   1.367  11.126  0.3949  0.2903  0.0761
    1Sil     Ob  364   2.164   1.256  10.323 -0.5590 -0.1130 -0.2473
    1Sil     Ob  365   2.171   1.183  11.206  0.2730 -0.0170  0.5223
    1Sil     Ob  366   1.929   1.191  10.398 -0.2635  0.4126 -0.1553
    1Sil     Ob  367   2.460   1.183  10.808  0.1872 -0.2510 -0.7081
    1Sil     Ob  368   1.952   0.941  10.919 -0.0846 -0.5319 -0.2389
    1Sil     Ob  369   2.236   0.954  10.519 -0.2803  0.0608 -0.0067
    1Sil     Ob  370   1.935   1.118  11.105  0.4666 -0.4653  0.1236
    1Sil     Ob  371   1.691   1.122  10.311  0.5219 -0.1142  0.1390
    1Sil     Ob  372   2.267   1.007  10.780  0.6426 -0.1266  0.1556
    1Sil     Ob  373   1.865   1.112  10.762  0.2942 -0.3192  0.1308
    1Sil     Ob  374   2.419   1.116  11.149  0.4807 -0.4298 -0.5965
    1Sil     Ob  375   2.100   1.013  10.320  0.2456 -0.1750  0.3302
    1Sil     Ob  376   2.347   0.946  10.275  0.6806  0.3419 -0.1211
    1Sil     Ob  377   1.753   0.946  11.083  0.0534 -0.0042  0.2093
    1Sil     Ob  378   2.036   0.946  10.683 -0.6529 -0.3507  0.3598
    1Sil     Ob  379   1.728   1.189  10.558 -0.2435 -0.0977 -0.1458
    1Sil     Ob  380   2.254   1.182  10.963 -0.8994 -0.5376  0.0041
    1Sil     Ob  381   1.921   0.870  12.345 -0.1611  0.2849  0.1428
    1Sil     Ob  382   2.504   0.866  11.573  1.0855 -0.4668  0.2331
    1Sil     Ob  383   2.183   0.767  11.893  0.7915  0.1051 -0.2754
    1Sil     Ob  384   1.747   1.370  11.930  0.0608 -0.3744 -0.0465
    1Sil     Ob  385   2.283   1.371  12.309 -0.7581 -0.2186  0.1156
    1Sil     Ob  386   2.116   1.254  11.552 -0.6262  0.4196  0.1092
    1Sil     Ob  387   2.104   1.185  12.386  0.4973  0.2160  0.1700
    1Sil     Ob  388   1.868   1.183  11.595 -0.2680 -1.0122 -0.2278
    1Sil     Ob  389   2.411   1.176  11.990  0.3239  0.0343  0.0463
    1Sil     Ob  390   1.900   0.951  12.105 -0.4799 -0.0948  0.2819
    1Sil     Ob  391   2.485   0.941  11.323 -0.2195 -0.3033 -0.4856
    1Sil     Ob  392   2.188   0.927  11.702 -0.1482  0.3511 -0.0933
    1Sil     Ob  393   1.872   1.115  12.298  0.2759  0.1775 -0.0710
    1Sil     Ob  394   1.641   1.111  11.497 -0.5483 -0.0969  0.6098
    1Sil     Ob  395   2.216   1.002  11.953 -0.1607 -0.0956  0.2857
    1Sil     Ob  396   1.824   1.110  11.933 -0.3951 -0.0589 -0.0711
    1Sil     Ob  397   2.338   1.122  12.351 -0.3186 -0.4405  0.4252
    1Sil     Ob  398   2.043   1.004  11.504 -0.2187 -0.0011  0.3622
    1Sil     Ob  399   2.285   0.939  11.472 -0.7211  0.1099  0.1478
    1Sil     Ob  400   1.699   0.928  12.261 -0.3927  0.0598  0.1480
    1Sil     Ob  401   1.987   0.922  11.855 -0.3938 -0.4288 -0.1940
    1Sil     Ob  402   1.670   1.183  11.746  0.5409  0.0438  0.8968
    1Sil     Ob  403   2.203   1.170  12.141 -0.1230 -0.2989 -0.3125
    1Sil     Ob  404   1.959   1.186  11.356  0.4029  0.3960 -0.5756
    1Sil     Ob  405   1.992   1.367  11.169 -0.3809  0.0964 -0.6725
    1Sil     Ob  406   2.559   1.360  10.366 -0.0404 -0.5820 -0.0906
    1Sil     Ob  407   2.220   1.253  10.728  0.1820 -0.2162 -0.8273
    1Sil     Ob  408   1.794   1.844  10.719  0.6319 -0.0794 -0.0750
    1Sil     Ob  409   2.329   1.859  11.127  0.0110  0.2952 -0.3457
    1Sil     Ob  410   2.165   1.752  10.360  0.0297  0.1707  0.5614
    1Sil     Ob  411   2.167   1.689  11.203  0.2630  0.0816 -0.0092
    1Sil     Ob  412   1.920   1.692  10.401  0.7690 -0.1788  0.1567
    1Sil     Ob  413   2.458   1.690  10.808  0.4170  0.2065  0.8475
    1Sil     Ob  414   1.966   1.442  10.920 -0.5863 -1.3659 -0.4506
    1Sil     Ob  415   2.245   1.419  10.519  0.2423  0.7001 -0.6837
    1Sil     Ob  416   1.946   1.607  11.108  0.0204 -0.1170 -0.3250
    1Sil     Ob  417   1.688   1.619  10.302  0.5822  0.1220  0.1477
    1Sil     Ob  418   2.279   1.504  10.761 -0.4053 -0.4587  0.2551
    1Sil     Ob  419   1.877   1.608  10.748 -1.0688  0.6223 -0.4737
    1Sil     Ob  420   2.412   1.612  11.155 -0.2023  0.0382 -0.5265
    1Sil     Ob  421   2.092   1.498  10.337 -0.4761  0.6496  0.5710
    1Sil     Ob  422   2.334   1.447  10.280  0.3843  0.3150 -0.2929
    1Sil     Ob  423   1.758   1.446  11.077  0.0800 -0.1606  0.4163
    1Sil     Ob  424   2.045   1.435  10.677 -0.7698  0.1920 -0.0113
    1Sil     Ob  425   1.719   1.667  10.548  0.7350  0.1385 -0.6079
    1Sil     Ob  426   2.251   1.671  10.959  0.1078  0.3982 -0.2155
    1Sil     Ob  427   1.927   1.361  12.365 -0.2754 -0.1766  0.4674
    1Sil     Ob  428   2.512   1.358  11.564 -0.6166 -0.0102  0.3348
    1Sil     Ob  429   2.176   1.252  11.891 -0.1334 -0.7468  0.0405
    1Sil     Ob  430   1.753   1.852  11.945  0.5248 -0.1348 -0.0840
    1Sil     Ob  431   2.283   1.857  12.310  0.6314  0.2013 -0.5524
    1Sil     Ob  432   2.109   1.748  11.542 -0.1117 -0.3855 -0.0526
    1Sil     Ob  433   2.116   1.680  12.393 -0.5935  0.0656  1.0463
    1Sil     Ob  434   1.866   1.661  11.588 -0.2687 -0.0069 -0.1041
    1Sil     Ob  435   2.409   1.676  12.004  0.0999 -0.1088 -0.2141
    1Sil     Ob  436   1.901   1.443  12.120 -0.5697 -0.4365  0.0747
    1Sil     Ob  437   2.489   1.437  11.325  0.0849  0.1304  0.4647
    1Sil     Ob  438   2.190   1.428  11.707  0.0575  0.4544  0.1132
    1Sil     Ob  439   1.880   1.610  12.327  0.4068  0.8592 -0.0068
    1Sil     Ob  440   1.621   1.610  11.508 -0.5561  0.0266  0.9130
    1Sil     Ob  441   2.214   1.509  11.949 -0.4297  0.0851  0.4685
    1Sil     Ob  442   1.813   1.607  11.953  0.1047  0.2998 -0.4791
    1Sil     Ob  443   2.362   1.623  12.345  0.3682 -0.4286  0.4454
    1Sil     Ob  444   2.047   1.500  11.502 -0.0423  0.0647 -0.7848
    1Sil     Ob  445   2.288   1.424  11.467 -0.2762  0.0293  0.0708
    1Sil     Ob  446   1.699   1.433  12.278  0.5391 -0.3090  0.1832
    1Sil     Ob  447   1.982   1.438  11.864 -0.4826  0.0791  0.2205
    1Sil     Ob  448   1.668   1.680  11.757  0.1100  0.1427  0.4574
    1Sil     Ob  449   2.198   1.685  12.147  0.1195  0.3496 -0.3845
    1Sil     Ob  450   1.948   1.681  11.357  0.4204  0.0588 -0.2294
    1Sil     Ob  451   1.972   1.860  11.178  0.6209  0.6022 -0.3962
    1Sil     Ob  452   2.569   1.860  10.374  0.5695 -0.2395  0.5872
    1Sil     Ob  453   2.224   1.755  10.712 -0.2048  0.2918 -0.3036
    1Sil     Ob  454   1.781   2.346  10.738 -0.1162 -0.1633 -0.3340
    1Sil     Ob  455   2.328   2.353  11.121 -0.3745  0.3864  0.6397
    1Sil     Ob  456   2.150   2.250  10.350 -0.2004 -0.1314  0.3186
    1Sil     Ob  457   2.149   2.192  11.201  0.5307  0.2484  0.3278
    1Sil     Ob  458   1.916   2.162  10.401 -0.1392 -0.8346  0.4031
    1Sil     Ob  459   2.460   2.181  10.808  0.0004  0.0882  0.1269
    1Sil     Ob  460   1.942   1.911  10.919  0.2520 -0.6331  0.7629
    1Sil     Ob  461   2.254   1.930  10.527  0.2742 -0.0331 -0.4343
    1Sil     Ob  462   1.927   2.094  11.099  0.0487  0.2443  0.2047
    1Sil     Ob  463   1.678   2.110  10.324  0.5247 -0.9154  0.3595
    1Sil     Ob  464   2.283   1.998  10.768  0.2932 -0.0913 -0.8992
    1Sil     Ob  465   1.864   2.094  10.744 -0.1752 -0.1637 -0.4609
    1Sil     Ob  466   2.395   2.114  11.150  0.2045 -0.1549  0.1731
    1Sil     Ob  467   2.094   2.000  10.327 -0.3533  0.9486 -0.0718
    1Sil     Ob  468   2.336   1.923  10.280  0.4085 -0.2532  0.2770
    1Sil     Ob  469   1.740   1.926  11.076 -0.4149  0.1521  0.9467
    1Sil     Ob  470   2.044   1.927  10.677 -0.1025  0.3513 -0.2210
    1Sil     Ob  471   1.707   2.188  10.559  0.0169 -0.0565 -0.5816
    1Sil     Ob  472   2.249   2.166  10.959  0.3333 -0.1845 -0.1807
    1Sil     Ob  473   1.934   1.854  12.375  0.1045  0.0279 -0.3174
    1Sil     Ob  474   2.517   1.846  11.555 -0.4551 -0.0699 -0.5119
    1Sil     Ob  475   2.190   1.758  11.889  0.4095 -0.1171  0.2499
    1Sil     Ob  476   1.743   2.338  11.930  0.2302 -0.3629  0.1466
    1Sil     Ob  477   2.288   2.346  12.320  0.4392  0.0406 -0.5171
    1Sil     Ob  478   2.096   2.236  11.531  0.0660  0.2137 -0.2990
    1Sil     Ob  479   2.116   2.165  12.392 -0.1616  0.3769 -0.0221
    1Sil     Ob  480   1.859   2.158  11.595  0.3310  0.0413 -0.4530
    1Sil     Ob  481   2.414   2.169  12.003 -0.3862  0.2652  0.5139
    1Sil     Ob  482   1.897   1.925  12.130 -0.5051  0.3837 -0.0034
    1Sil     Ob  483   2.490   1.933  11.320 -0.6759  0.2192  0.3006
    1Sil     Ob  484   2.188   1.928  11.712 -0.4432  0.4434 -0.7746
    1Sil     Ob  485   1.876   2.101  12.327  0.5369 -0.5413 -0.2724
    1Sil     Ob  486   1.628   2.098  11.511  0.4796  0.6442 -0.1230
    1Sil     Ob  487   2.232   1.991  11.957 -0.3650  0.3156  0.0356
    1Sil     Ob  488   1.818   2.086  11.952  0.0823 -0.0873  0.7769
    1Sil     Ob  489   2.353   2.103  12.350  0.5474  0.0682 -0.2627
    1Sil     Ob  490   2.029   1.983  11.513 -0.3270 -0.4689  0.0692
    1Sil     Ob  491   2.275   1.928  11.465  0.5389  0.5392 -0.2565
    1Sil     Ob  492   1.698   1.919  12.285  0.2801  0.4078 -0.1454
    1Sil     Ob  493   1.993   1.922  11.879 -0.5356 -0.3964 -0.1101
    1Sil     Ob  494   1.654   2.165  11.757 -0.3775  0.1502 -0.6356
    1Sil     Ob  495   2.202   2.164  12.151 -0.2451 -0.0397  0.1174
    1Sil     Ob  496   1.932   2.161  11.344  0.0627  0.6318 -0.3078
    1Sil     Ob  497   1.961   2.349  11.172 -0.2867 -0.7507  0.4690
    1Sil     Ob  498   2.549   2.357  10.378 -0.0743 -0.6232 -0.4092
    1Sil     Ob  499   2.234   2.244  10.706 -0.0355 -0.3787  0.3920
    1Sil     Ob  500   1.802   2.849  10.715 -0.2589 -0.9835  0.7146
    1Sil     Ob  501   2.326   2.846  11.103  0.2990 -0.5830  0.1655
    1Sil     Ob  502   2.166   2.725  10.332  0.2095  0.1534  0.9517
    1Sil     Ob  503   2.156   2.665  11.183 -0.2447 -0.3013  0.1009
    1Sil     Ob  504   1.912   2.685  10.398 -0.2908 -0.4224  0.2158
    1Sil     Ob  505   2.447   2.656  10.804 -0.1964 -0.5141  0.2070
    1Sil     Ob  506   1.941   2.417  10.919  0.2089  0.4335  0.0832
    1Sil     Ob  507   2.229   2.422  10.523 -0.3750 -0.1147 -0.0855
    1Sil     Ob  508   1.934   2.598  11.097  0.7432 -0.7494 -0.0924
    1Sil     Ob  509   1.684   2.601  10.302  0.0872  0.2531 -0.5085
    1Sil     Ob  510   2.260   2.490  10.759  0.7580 -0.1302  0.7262
    1Sil     Ob  511   1.867   2.596  10.748 -0.3615 -0.5906 -0.3613
    1Sil     Ob  512   2.403   2.598  11.139  0.0790 -0.2974 -0.3410
    1Sil     Ob  513   2.080   2.496  10.330 -0.3435  0.3838 -0.0047
    1Sil     Ob  514   2.322   2.424  10.278 -0.2098 -0.5813  0.1923
    1Sil     Ob  515   1.736   2.431  11.064 -0.0015 -0.2242 -0.3976
    1Sil     Ob  516   2.027   2.403  10.678 -0.7337 -0.3373 -0.1320
    1Sil     Ob  517   1.703   2.669  10.554  0.2983 -1.0389 -0.3627
    1Sil     Ob  518   2.239   2.663  10.946 -0.8435 -0.7965  0.1535
    1Sil     Ob  519   1.942   2.351  12.365 -0.4723  0.1553  0.4585
    1Sil     Ob  520   2.516   2.351  11.566  0.1850 -0.0754  0.0104
    1Sil     Ob  521   2.181   2.232  11.905 -0.4216 -0.1230 -0.0129
    1Sil     Ob  522   1.734   2.838  11.931  0.2718 -0.0597 -0.2640
    1Sil     Ob  523   2.291   2.834  12.288  0.1448 -0.7933 -0.3895
    1Sil     Ob  524   2.104   2.730  11.531  0.2053  0.1374 -0.2158
    1Sil     Ob  525   2.115   2.666  12.384  0.3135  0.2114 -0.2381
    1Sil     Ob  526   1.861   2.666  11.601  0.4288  0.1320  0.4449
    1Sil     Ob  527   2.395   2.682  11.991 -0.4057 -0.1715 -0.3237
    1Sil     Ob  528   1.913   2.417  12.119 -0.6459 -0.1425 -0.1493
    1Sil     Ob  529   2.486   2.431  11.313 -0.5578  0.2997  0.7241
    1Sil     Ob  530   2.192   2.399  11.706  0.4401  0.7067  0.0075
    1Sil     Ob  531   1.873   2.597  12.303  0.4079 -0.5023  0.6962
    1Sil     Ob  532   1.629   2.602  11.503  0.0690 -0.3780  0.0182
    1Sil     Ob  533   2.231   2.480  11.947  0.3049 -0.1243  0.4686
    1Sil     Ob  534   1.817   2.588  11.938  0.6342  0.6416 -0.3741
    1Sil     Ob  535   2.353   2.588  12.344  0.6295 -0.0874 -0.5438
    1Sil     Ob  536   2.029   2.482  11.514  0.0225 -0.1780 -0.6189
    1Sil     Ob  537   2.278   2.402  11.469 -0.1076 -0.1094  1.0220
    1Sil     Ob  538   1.708   2.405  12.284  0.0489 -0.9333  0.3975
    1Sil     Ob  539   1.992   2.406  11.869 -0.0832 -0.3012 -0.4727
    1Sil     Ob  540   1.656   2.666  11.763 -0.8951  0.6487 -0.2059
    1Sil     Ob  541   2.199   2.632  12.145  0.2136 -0.3048 -0.5388
    1Sil     Ob  542   1.946   2.665  11.342 -0.7137  0.0012 -0.4960
    1Sil     Ob  543   1.971   2.842  11.154 -0.2373  0.5025 -0.8873
    1Sil     Ob  544   2.561   2.851  10.382  0.0024 -0.1964 -0.2520
    1Sil     Ob  545   2.225   2.741  10.704  0.1123 -0.2042  0.0210
    1Sil     Ob  546   1.788   3.332  10.733 -0.5127  0.8878 -0.2148
    1Sil     Ob  547   2.334   3.335  11.122 -0.1869  0.2308 -0.2102
    1Sil     Ob  548   2.154   3.220  10.325  0.1905  0.2741 -0.1866
    1Sil     Ob  549   2.156   3.161  11.195  0.1260 -0.3793 -0.0528
    1Sil     Ob  550   1.920   3.157  10.397  0.0428 -0.5079 -0.1943
    1Sil     Ob  551   2.453   3.162  10.796  0.4844 -0.0366 -0.5797
    1Sil     Ob  552   1.951   2.912  10.907 -0.4129  0.3374 -0.1985
    1Sil     Ob  553   2.240   2.903  10.513 -0.0971  0.2675  0.0647
    1Sil     Ob  554   1.934   3.079  11.097  0.4467  0.1132 -0.6436
    1Sil     Ob  555   1.686   3.093  10.303 -0.6246  0.3782  0.3636
    1Sil     Ob  556   2.281   2.979  10.763  0.0498 -0.1169  0.5625
    1Sil     Ob  557   1.868   3.091  10.747 -0.1977  0.2389 -0.3028
    1Sil     Ob  558   2.399   3.091  11.142  0.1224  0.8307  0.6539
    1Sil     Ob  559   2.092   2.974  10.323 -0.0744  0.1854  0.5407
    1Sil     Ob  560   2.336   2.911  10.275 -0.0442 -0.3862  0.3043
    1Sil     Ob  561   1.738   2.911  11.079  0.3004  0.5303 -0.2807
    1Sil     Ob  562   2.043   2.919  10.663 -0.0993 -0.3674 -0.5388
    1Sil     Ob  563   1.709   3.173  10.547  0.1884 -0.0315  0.5405
    1Sil     Ob  564   2.247   3.159  10.952  0.7349 -0.4398  0.2545
    1Sil     Ob  565   1.928   2.846  12.359  0.7020  0.2664  0.2251
    1Sil     Ob  566   2.501   2.838  11.560  0.0339  0.3030  0.5963
    1Sil     Ob  567   2.151   2.728  11.905  0.4009 -0.2989  0.0089
    1Sil     Ob  568   1.743   3.326  11.923  0.2477 -0.0880  0.0036
    1Sil     Ob  569   2.285   3.338  12.293  0.1507 -0.4211 -0.2302
    1Sil     Ob  570   2.099   3.217  11.535  0.0494 -0.1426  0.2684
    1Sil     Ob  571   2.118   3.148  12.375  0.2726 -0.1691  0.1569
    1Sil     Ob  572   1.855   3.155  11.599  0.1063 -0.0015  0.3791
    1Sil     Ob  573   2.416   3.126  11.991 -0.1218  0.3498 -0.6753
    1Sil     Ob  574   1.900   2.915  12.110 -0.5347  0.1204 -0.3795
    1Sil     Ob  575   2.463   2.907  11.307 -0.0434 -0.0132  0.8688
    1Sil     Ob  576   2.173   2.902  11.712  0.4603 -0.6958 -0.4491
    1Sil     Ob  577   1.879   3.089  12.306  0.6151  0.4208 -0.3188
    1Sil     Ob  578   1.622   3.090  11.517  0.5883  0.2188  0.1078
    1Sil     Ob  579   2.204   2.970  11.956  0.0486  0.5533  0.1081
    1Sil     Ob  580   1.816   3.083  11.949 -0.4621 -0.5200  0.2823
    1Sil     Ob  581   2.370   3.086  12.323 -0.6306 -0.1205 -0.7429
    1Sil     Ob  582   2.024   2.974  11.515 -0.3090  0.1849 -0.2028
    1Sil     Ob  583   2.269   2.917  11.469 -0.3179 -0.7196  0.3767
    1Sil     Ob  584   1.702   2.915  12.264  0.0176  0.1467 -0.1155
    1Sil     Ob  585   1.967   2.908  11.862 -0.0234  0.1675 -0.6287
    1Sil     Ob  586   1.661   3.164  11.759  0.3526  0.3804 -0.1999
    1Sil     Ob  587   2.209   3.148  12.137 -0.5930 -0.2366 -0.0333
    1Sil     Ob  588   1.937   3.149  11.345  0.3499  0.2748 -0.8907
    1Sil     Ob  589   1.978   3.332  11.161  0.0085 -0.4198  0.4890
    1Sil     Ob  590   2.559   3.332  10.368 -0.4665 -0.5015 -0.5688
    1Sil     Ob  591   2.214   3.226  10.708  0.1917 -0.1499 -0.0084
    1Sil     Ob  592   2.165   0.202  11.189 -0.1131 -0.3929 -0.1406
    1Sil     Ob  593   1.926   0.211  10.399  0.3026  0.9439 -0.5955
    1Sil     Ob  594   2.458   0.195  10.798 -0.3029  0.2803 -0.5120
    1Sil     Ob  595   1.944   3.404  10.915  0.4976 -0.3836  0.3597
    1Sil     Ob  596   2.237   3.377  10.510  0.0231 -0.1680 -0.2046
    1Sil     Ob  597   1.924   3.578  11.106 -0.1694 -0.2302 -0.0918
    1Sil     Ob  598   1.680   3.584  10.311 -0.2872  0.0243 -0.1770
    1Sil     Ob  599   2.260   3.471  10.757  0.3561  0.0143  0.2890
    1Sil     Ob  600   1.867   0.130  10.752 -0.0782 -0.4470  0.2267
    1Sil     Ob  601   2.409   0.125  11.141 -0.2127 -0.1483  0.5338
    1Sil     Ob  602   2.090   0.024  10.319  0.4825  0.2930  0.9213
    1Sil     Ob  603   2.335   3.408  10.267  0.4003  0.2313  0.2083
    1Sil     Ob  604   1.749   3.395  11.084  0.0835 -0.3072 -0.4395
    1Sil     Ob  605   2.031   3.399  10.663 -0.5290 -0.9056 -0.2574
    1Sil     Ob  606   1.708   0.206  10.559  0.4346  0.1289  0.1937
    1Sil     Ob  607   2.244   0.198  10.949 -0.0455 -0.7703 -0.1489
    1Sil     Ob  608   1.942   3.331  12.352 -0.1415 -0.2766 -0.2356
    1Sil     Ob  609   2.490   3.335  11.564 -0.5675 -0.2992  0.4124
    1Sil     Ob  610   2.182   3.215  11.887 -0.0098  0.0302  0.3409
    1Sil     Ob  611   2.116   0.217  12.392 -0.4107 -0.3867 -0.0068
    1Sil     Ob  612   1.874   0.211  11.584  0.1325 -0.0804  0.3715
    1Sil     Ob  613   2.409   0.203  11.986  0.1935  0.4777  0.7799
    1Sil     Ob  614   1.896   3.394  12.106 -0.3978 -0.1768  0.0818
    1Sil     Ob  615   2.484   3.393  11.309  0.0440  0.3437 -0.3785
    1Sil     Ob  616   2.191   3.391  11.702  0.3187  0.0078  0.1836
    1Sil     Ob  617   1.900   3.582  12.293  0.1802 -0.3589 -0.0987
    1Sil     Ob  618   1.647   3.584  11.497  0.2151 -0.1742  0.5557
    1Sil     Ob  619   2.230   3.469  11.939  0.1141  0.5055 -0.3912
    1Sil     Ob  620   1.820   0.124  11.937  0.5303 -0.1816 -0.0642
    1Sil     Ob  621   2.351   0.134  12.346 -0.1566 -0.1170  0.6875
    1Sil     Ob  622   2.031   0.017  11.512 -0.2885 -0.1171  0.8005
    1Sil     Ob  623   2.269   3.401  11.451 -0.2232  0.4758  0.1412
    1Sil     Ob  624   1.703   3.406  12.278 -0.6115  0.1941  0.0162
    1Sil     Ob  625   1.988   3.389  11.861 -0.2645  0.1425 -0.0935
    1Sil     Ob  626   1.672   0.202  11.737  0.2472  0.4126 -0.1207
    1Sil     Ob  627   2.194   0.188  12.145 -0.3695 -0.1472 -0.0771
    1Sil     Ob  628   1.958   0.191  11.348 -0.4808 -0.2792 -0.4657
    1Sil     Ob  629   2.807   0.372  11.155  0.3085  0.3907 -0.5965
    1Sil     Ob  630   3.390   0.386  10.367  0.1547  0.5100  0.2169
    1Sil     Ob  631   2.620   0.880  10.722  0.0974 -0.8366 -0.1608
    1Sil     Ob  632   3.165   0.867  11.101  0.3778  0.2526  0.2037
    1Sil     Ob  633   2.988   0.769  10.333 -0.1457  0.0224  0.0084
    1Sil     Ob  634   2.992   0.701  11.190  0.0528 -0.4261  0.1418
    1Sil     Ob  635   2.750   0.702  10.410 -0.0140  0.2370 -0.4562
    1Sil     Ob  636   3.293   0.688  10.793 -0.5576 -0.9176  0.1044
    1Sil     Ob  637   2.788   0.456  10.918  0.3715  0.4343 -0.0409
    1Sil     Ob  638   3.080   0.433  10.515 -0.4861 -0.7146 -0.2316
    1Sil     Ob  639   2.763   0.626  11.103 -0.0721  0.2004 -0.1660
    1Sil     Ob  640   2.521   0.624  10.318  0.3207 -0.0292 -0.3127
    1Sil     Ob  641   3.110   0.506  10.760  0.0811 -0.7410 -0.0770
    1Sil     Ob  642   2.702   0.627  10.746 -0.2657  0.9727  0.2355
    1Sil     Ob  643   3.239   0.613  11.158 -0.4322 -0.1172  0.3798
    1Sil     Ob  644   2.915   0.521  10.330 -0.3265  0.2382  0.0636
    1Sil     Ob  645   3.155   0.464  10.269 -0.8436  0.0511  0.1202
    1Sil     Ob  646   2.578   0.461  11.074 -0.2906 -0.4589 -0.2205
    1Sil     Ob  647   2.875   0.456  10.670  0.0188 -0.5764  0.6024
    1Sil     Ob  648   2.548   0.705  10.566  0.4983  0.2867  0.5556
    1Sil     Ob  649   3.084   0.678  10.950  0.0574 -0.5782  0.6112
    1Sil     Ob  650   2.757   0.374  12.348  0.5859 -0.0885  0.1628
    1Sil     Ob  651   3.331   0.375  11.578 -0.0894  0.3266  0.0542
    1Sil     Ob  652   2.576   0.863  11.908  0.6490 -0.8071  0.3735
    1Sil     Ob  653   3.131   0.876  12.317  0.3807 -0.1281 -0.3343
    1Sil     Ob  654   2.941   0.767  11.543 -0.1862 -0.5317 -0.1755
    1Sil     Ob  655   2.950   0.711  12.389 -0.4448 -0.2764  0.4414
    1Sil     Ob  656   2.697   0.698  11.595 -0.4458  0.6343  0.0781
    1Sil     Ob  657   3.247   0.692  11.993  0.2043 -0.1080 -0.0814
    1Sil     Ob  658   2.734   0.433  12.107 -0.1591  0.2601 -0.1670
    1Sil     Ob  659   3.320   0.435  11.330 -0.6466 -0.1494  0.1056
    1Sil     Ob  660   3.028   0.449  11.709  0.1771  0.2338  0.0492
    1Sil     Ob  661   2.735   0.618  12.273 -0.1787 -0.1926 -0.3493
    1Sil     Ob  662   2.468   0.617  11.509  0.3167  0.1348  0.2646
    1Sil     Ob  663   3.061   0.512  11.960 -0.0934  0.2160 -0.0287
    1Sil     Ob  664   2.656   0.615  11.936 -0.1286 -0.0520 -0.4040
    1Sil     Ob  665   3.194   0.627  12.355 -0.3340 -0.1272  0.5643
    1Sil     Ob  666   2.868   0.525  11.538  0.9323 -0.0022 -0.1769
    1Sil     Ob  667   3.111   0.460  11.475 -0.1686  0.2034  0.6505
    1Sil     Ob  668   2.529   0.457  12.260 -0.0577 -0.6647 -0.0527
    1Sil     Ob  669   2.825   0.443  11.864  0.0496  0.2987 -0.4857
    1Sil     Ob  670   2.499   0.685  11.753  0.5470  0.4568 -0.3658
    1Sil     Ob  671   3.043   0.685  12.151  0.5053 -0.4547  0.0856
    1Sil     Ob  672   2.789   0.694  11.346  0.2852  0.1506 -0.0709
    1Sil     Ob  673   2.804   0.874  11.169  0.1910 -0.3364  0.9132
    1Sil     Ob  674   3.406   0.866  10.360  0.3557 -0.7306 -0.1565
    1Sil     Ob  675   3.060   0.755  10.697 -0.1421 -0.2219  0.1899
    1Sil     Ob  676   2.628   1.362  10.723 -0.3438  0.2076 -0.0631
    1Sil     Ob  677   3.170   1.364  11.123 -0.0853 -0.2380  0.4893
    1Sil     Ob  678   2.990   1.256  10.342 -0.3876 -0.5546 -0.2962
    1Sil     Ob  679   2.990   1.180  11.181  0.1846  0.3642  0.4194
    1Sil     Ob  680   2.747   1.192  10.412 -0.3474 -0.5025 -0.0574
    1Sil     Ob  681   3.284   1.180  10.799 -0.1850 -0.5036 -0.1862
    1Sil     Ob  682   2.778   0.932  10.918 -0.0456 -0.5826 -0.0702
    1Sil     Ob  683   3.078   0.934  10.525 -0.0648  0.3995 -0.0078
    1Sil     Ob  684   2.755   1.119  11.102  0.2069  0.2130 -0.3728
    1Sil     Ob  685   2.517   1.115  10.318 -0.2732 -0.0154 -0.0513
    1Sil     Ob  686   3.098   1.008  10.772 -0.4067  0.3184 -0.0201
    1Sil     Ob  687   2.707   1.121  10.745 -0.2786 -0.2040  0.1380
    1Sil     Ob  688   3.237   1.109  11.144  0.5975 -0.2636  0.0770
    1Sil     Ob  689   2.914   1.015  10.339 -0.2025 -0.1497  0.2451
    1Sil     Ob  690   3.157   0.949  10.282  0.4292  0.5397  0.3918
    1Sil     Ob  691   2.566   0.938  11.077  0.1548 -0.2039  0.0978
    1Sil     Ob  692   2.873   0.936  10.676  0.3924  0.6987  0.3546
    1Sil     Ob  693   2.537   1.190  10.561 -0.1814  0.5583 -0.7023
    1Sil     Ob  694   3.090   1.202  10.949  0.8166  0.9828 -0.1443
    1Sil     Ob  695   2.746   0.871  12.346  0.4207  0.5833  0.3434
    1Sil     Ob  696   3.350   0.862  11.549 -0.1174  0.2873  0.1979
    1Sil     Ob  697   3.022   0.761  11.902  0.0129 -0.6564  0.0228
    1Sil     Ob  698   2.586   1.361  11.928 -0.3602 -0.5362  0.4613
    1Sil     Ob  699   3.114   1.374  12.314  0.4688 -0.2292  0.2784
    1Sil     Ob  700   2.950   1.260  11.545  0.1920  0.0295  0.0434
    1Sil     Ob  701   2.956   1.201  12.387 -0.4683 -0.1164  0.1677
    1Sil     Ob  702   2.705   1.195  11.593 -0.4136  0.0213 -0.0976
    1Sil     Ob  703   3.248   1.174  11.998 -0.1183 -0.4513 -0.2455
    1Sil     Ob  704   2.733   0.938  12.095  0.1420  0.3316 -0.5718
    1Sil     Ob  705   3.310   0.932  11.313  0.1737 -0.2259  0.5651
    1Sil     Ob  706   3.037   0.932  11.714 -0.0511 -0.1178  0.1214
    1Sil     Ob  707   2.727   1.124  12.283 -0.2077 -1.0020  0.4420
    1Sil     Ob  708   2.461   1.116  11.501  0.3399 -0.1999  0.0411
    1Sil     Ob  709   3.038   1.013  11.971  0.1200  0.0075 -0.2560
    1Sil     Ob  710   2.656   1.113  11.923 -0.6698 -0.3514 -0.2731
    1Sil     Ob  711   3.192   1.127  12.337 -0.4394 -0.3633  0.2427
    1Sil     Ob  712   2.873   1.016  11.517 -0.0163  0.0770  0.4301
    1Sil     Ob  713   3.107   0.939  11.470 -0.5275  0.0272 -0.1975
    1Sil     Ob  714   2.523   0.962  12.252 -0.1749 -0.0783  0.7729
    1Sil     Ob  715   2.825   0.926  11.850 -0.1418 -0.0476  0.0278
    1Sil     Ob  716   2.495   1.203  11.750 -0.2087  0.6451  0.2831
    1Sil     Ob  717   3.044   1.213  12.141  0.1193  0.4329 -0.5391
    1Sil     Ob  718   2.787   1.191  11.355 -0.4376  0.0354  0.1773
    1Sil     Ob  719   2.807   1.374  11.169 -0.0562 -0.2897 -0.2105
    1Sil     Ob  720   3.394   1.364  10.369 -0.2427 -1.1666 -0.4861
    1Sil     Ob  721   3.065   1.253  10.699 -0.1011  0.6582 -0.3390
    1Sil     Ob  722   2.633   1.864  10.716  0.2079  0.7226 -0.4951
    1Sil     Ob  723   3.175   1.853  11.110  0.0620  0.4277 -0.9859
    1Sil     Ob  724   2.988   1.741  10.370  0.2116  0.0721  0.0759
    1Sil     Ob  725   2.991   1.700  11.204 -0.4935 -0.0142  0.3080
    1Sil     Ob  726   2.749   1.673  10.401 -0.8144 -0.7057 -0.1537
    1Sil     Ob  727   3.287   1.662  10.797  0.3652 -0.2102 -0.4419
    1Sil     Ob  728   2.777   1.430  10.922 -0.6977  0.1806 -0.1081
    1Sil     Ob  729   3.076   1.424  10.512 -0.5120  0.4423 -0.3491
    1Sil     Ob  730   2.767   1.620  11.098  0.0643  0.6313 -0.0072
    1Sil     Ob  731   2.514   1.613  10.317 -0.2711  0.3539  0.1051
    1Sil     Ob  732   3.116   1.496  10.757 -0.7202 -0.6746 -0.1054
    1Sil     Ob  733   2.698   1.608  10.756 -0.5950  0.0412 -0.1230
    1Sil     Ob  734   3.239   1.610  11.170 -0.3869 -0.3662  0.3553
    1Sil     Ob  735   2.922   1.503  10.316 -0.0579 -0.3059  0.4923
    1Sil     Ob  736   3.171   1.419  10.271 -0.1258  0.1524 -0.2191
    1Sil     Ob  737   2.584   1.452  11.076 -0.2275  0.0345 -0.5608
    1Sil     Ob  738   2.872   1.432  10.677 -0.4497  0.2627  0.4830
    1Sil     Ob  739   2.551   1.679  10.564  0.4378 -0.4602  0.2612
    1Sil     Ob  740   3.083   1.660  10.970 -0.6822 -0.0616  0.1204
    1Sil     Ob  741   2.758   1.363  12.368  0.1439  0.0409  0.0146
    1Sil     Ob  742   3.336   1.363  11.572 -0.0481  0.7568  0.3414
    1Sil     Ob  743   3.028   1.258  11.897  0.4556 -0.7968 -0.6639
    1Sil     Ob  744   2.586   1.860  11.926 -0.1285 -0.2013  0.2763
    1Sil     Ob  745   3.122   1.867  12.325 -0.4436 -0.0627  0.3253
    1Sil     Ob  746   2.942   1.752  11.544 -0.1490  0.0164 -0.0497
    1Sil     Ob  747   2.950   1.681  12.376  0.2604 -0.2820 -0.1226
    1Sil     Ob  748   2.699   1.681  11.595 -0.0985  0.0113  0.3165
    1Sil     Ob  749   3.250   1.676  11.996 -0.5000 -0.1554 -0.2645
    1Sil     Ob  750   2.739   1.444  12.118 -0.2504 -0.1185  0.3051
    1Sil     Ob  751   3.323   1.415  11.328  0.0908  0.3813 -1.0588
    1Sil     Ob  752   3.013   1.445  11.717  0.3007 -0.4149 -0.2873
    1Sil     Ob  753   2.715   1.614  12.304 -0.2844  0.2840  0.9871
    1Sil     Ob  754   2.461   1.611  11.510  0.4195 -0.3974  0.4550
    1Sil     Ob  755   3.056   1.509  11.970 -0.0027  0.2339 -1.0030
    1Sil     Ob  756   2.659   1.609  11.932 -0.0167  0.4526  0.2629
    1Sil     Ob  757   3.193   1.612  12.325  0.1180 -0.4760  0.5873
    1Sil     Ob  758   2.873   1.495  11.512  0.3844  0.1991 -0.1347
    1Sil     Ob  759   3.115   1.436  11.474 -0.1394  0.1912  0.5183
    1Sil     Ob  760   2.540   1.445  12.265  0.0341  0.0712  0.2731
    1Sil     Ob  761   2.827   1.433  11.883 -0.4414  0.2763  0.3632
    1Sil     Ob  762   2.494   1.696  11.750 -0.0031  0.2008  0.0757
    1Sil     Ob  763   3.046   1.695  12.143 -0.3813 -0.2772 -0.0280
    1Sil     Ob  764   2.781   1.688  11.349 -0.1292  0.4474  0.1245
    1Sil     Ob  765   2.794   1.869  11.170 -0.7967 -0.0386 -0.2882
    1Sil     Ob  766   3.388   1.859  10.356 -0.1871 -0.2140  0.0874
    1Sil     Ob  767   3.055   1.745  10.718 -0.0427  0.7104  0.2203
    1Sil     Ob  768   2.629   2.363  10.726 -0.0008  0.3834 -0.3508
    1Sil     Ob  769   3.166   2.344  11.119 -0.1157  0.5071  0.1771
    1Sil     Ob  770   2.980   2.236  10.349 -0.7504  0.7510 -0.6827
    1Sil     Ob  771   2.991   2.170  11.197 -0.4308  0.1193  0.0709
    1Sil     Ob  772   2.748   2.186  10.404 -0.0099  0.6473 -0.1942
    1Sil     Ob  773   3.290   2.180  10.816 -0.2675 -0.1083  0.4113
    1Sil     Ob  774   2.780   1.931  10.924  0.2496  0.0050  0.2728
    1Sil     Ob  775   3.080   1.919  10.533  0.0402 -0.5771 -0.0198
    1Sil     Ob  776   2.755   2.112  11.101  0.0122 -0.0464 -0.1880
    1Sil     Ob  777   2.512   2.112  10.326 -0.1109  0.5715  0.6187
    1Sil     Ob  778   3.111   1.993  10.784  0.9360  0.2563  0.1343
    1Sil     Ob  779   2.699   2.114  10.753  0.3298  0.8768  0.1339
    1Sil     Ob  780   3.242   2.107  11.154  0.3764  0.0572  0.2158
    1Sil     Ob  781   2.907   1.991  10.345  0.0592 -0.0349 -0.2939
    1Sil     Ob  782   3.149   1.911  10.286  0.0687 -0.0335  0.4314
    1Sil     Ob  783   2.568   1.935  11.074 -0.3146  0.0504  0.0669
    1Sil     Ob  784   2.881   1.933  10.681 -0.1379 -0.1015  0.4644
    1Sil     Ob  785   2.545   2.185  10.562 -0.6705 -0.1837 -0.4432
    1Sil     Ob  786   3.078   2.166  10.955 -0.1118 -0.2885 -0.2767
    1Sil     Ob  787   2.757   1.861  12.367  0.2449  0.0121  0.5047
    1Sil     Ob  788   3.354   1.856  11.560  0.5510 -0.0973 -0.2832
    1Sil     Ob  789   3.013   1.756  11.898 -0.5500 -0.0400 -0.0453
    1Sil     Ob  790   2.578   2.349  11.918 -0.3671 -0.7754 -0.2611
    1Sil     Ob  791   3.116   2.350  12.308  0.2827 -0.7700  0.1276
    1Sil     Ob  792   2.951   2.238  11.552  0.7015  0.5651  0.5680
    1Sil     Ob  793   2.954   2.179  12.392 -0.4938 -0.3505  0.3395
    1Sil     Ob  794   2.707   2.167  11.602 -0.0177 -0.0253  0.4666
    1Sil     Ob  795   3.238   2.187  11.988 -0.0968 -0.4932 -0.2489
    1Sil     Ob  796   2.733   1.922  12.117  0.1949  0.1513 -0.2678
    1Sil     Ob  797   3.328   1.931  11.312 -0.0331 -0.1122 -0.3197
    1Sil     Ob  798   3.036   1.927  11.702  0.1567 -0.1914 -0.3485
    1Sil     Ob  799   2.718   2.099  12.302  0.1629 -0.3135  0.1938
    1Sil     Ob  800   2.464   2.100  11.510 -0.1603 -0.5104  0.3911
    1Sil     Ob  801   3.069   1.994  11.960  0.2376 -0.0195  0.1865
    1Sil     Ob  802   2.654   2.102  11.945 -0.3254 -0.0170 -0.7471
    1Sil     Ob  803   3.191   2.109  12.357 -0.5282 -0.1031  0.6216
    1Sil     Ob  804   2.876   1.998  11.518 -0.6002 -0.6700  0.4450
    1Sil     Ob  805   3.120   1.919  11.456 -0.2345 -0.4565  0.2416
    1Sil     Ob  806   2.526   1.930  12.278  0.3354 -0.0161  0.6429
    1Sil     Ob  807   2.832   1.936  11.865  0.3311  0.1839 -0.3787
    1Sil     Ob  808   2.492   2.179  11.751 -0.4972  0.1181  0.3202
    1Sil     Ob  809   3.039   2.166  12.149 -0.1282  0.0021 -0.3336
    1Sil     Ob  810   2.783   2.185  11.355 -0.7753 -0.5315 -0.2511
    1Sil     Ob  811   2.805   2.352  11.173  0.2233 -0.1315  0.1647
    1Sil     Ob  812   3.381   2.341  10.380  0.5199  0.1357  0.3885
    1Sil     Ob  813   3.052   2.235  10.717  0.3183 -0.0948 -0.4622
    1Sil     Ob  814   2.627   2.847  10.733 -0.1618  0.2398  0.0416
    1Sil     Ob  815   3.162   2.845  11.123  0.2571 -0.5801  0.0396
    1Sil     Ob  816   2.985   2.745  10.364  0.0713  0.0847 -0.9614
    1Sil     Ob  817   2.990   2.671  11.190 -0.0863 -0.2065 -0.4716
    1Sil     Ob  818   2.751   2.669  10.408 -0.0002 -0.5062  0.6647
    1Sil     Ob  819   3.290   2.654  10.798 -0.0112 -0.8503 -0.3518
    1Sil     Ob  820   2.784   2.425  10.923  0.5849  0.2104  0.1172
    1Sil     Ob  821   3.070   2.412  10.526  0.6050  0.3873  0.1474
    1Sil     Ob  822   2.762   2.599  11.110 -0.5581  0.3709 -0.0496
    1Sil     Ob  823   2.499   2.603  10.328 -0.1680 -0.6775  0.2594
    1Sil     Ob  824   3.099   2.486  10.773  0.1172 -0.0762  0.5496
    1Sil     Ob  825   2.704   2.605  10.756  0.7421 -0.4261  0.1316
    1Sil     Ob  826   3.226   2.595  11.144  0.1003  0.4325  0.1362
    1Sil     Ob  827   2.920   2.484  10.331 -0.0459  0.3472 -0.5996
    1Sil     Ob  828   3.157   2.427  10.289 -0.0278 -0.2436 -0.3158
    1Sil     Ob  829   2.574   2.441  11.074 -0.1737  0.4600  0.0238
    1Sil     Ob  830   2.875   2.432  10.678  0.4310 -0.3450 -0.0268
    1Sil     Ob  831   2.550   2.673  10.563  0.3617  0.3406 -0.3974
    1Sil     Ob  832   3.073   2.679  10.946 -0.5711 -0.3417  0.0890
    1Sil     Ob  833   2.774   2.355  12.353 -0.0153 -0.1343  0.1608
    1Sil     Ob  834   3.349   2.347  11.563 -0.2168  0.1508  0.3449
    1Sil     Ob  835   3.000   2.243  11.917  0.3329  0.3025  0.4632
    1Sil     Ob  836   2.583   2.839  11.913 -0.2784  0.1417 -0.0402
    1Sil     Ob  837   3.113   2.843  12.340  0.3631 -0.1526  0.1597
    1Sil     Ob  838   2.924   2.737  11.558  0.3124  0.7888 -0.1588
    1Sil     Ob  839   2.936   2.669  12.394 -0.4521  0.5868  0.0443
    1Sil     Ob  840   2.687   2.662  11.594  0.0516  0.5072  0.4325
    1Sil     Ob  841   3.244   2.649  11.999  0.0107 -0.0332 -0.0772
    1Sil     Ob  842   2.732   2.436  12.109 -0.0499  0.1031  0.4809
    1Sil     Ob  843   3.311   2.415  11.312  0.3631 -0.7024  0.1634
    1Sil     Ob  844   3.025   2.422  11.726  0.2940 -0.1671 -0.2964
    1Sil     Ob  845   2.705   2.601  12.316  0.5988  0.0896 -0.2603
    1Sil     Ob  846   2.450   2.589  11.510  0.3478 -0.1469 -0.1813
    1Sil     Ob  847   3.041   2.493  11.973 -0.1316  0.1961 -0.0365
    1Sil     Ob  848   2.635   2.597  11.945 -0.4903  0.0903 -0.2579
    1Sil     Ob  849   3.179   2.602  12.340 -0.2802  0.2878 -0.1931
    1Sil     Ob  850   2.864   2.488  11.525 -0.0059  0.5462 -0.0843
    1Sil     Ob  851   3.109   2.419  11.484  0.4300 -0.9829 -0.1546
    1Sil     Ob  852   2.537   2.408  12.280 -0.2478 -0.1224 -0.6634
    1Sil     Ob  853   2.821   2.428  11.875  0.2439  0.0201 -0.1411
    1Sil     Ob  854   2.489   2.665  11.751 -0.3036  0.4706 -0.0419
    1Sil     Ob  855   3.040   2.685  12.146  0.2681  0.1903  0.0634
    1Sil     Ob  856   2.783   2.665  11.351  0.3731  0.0154  0.3956
    1Sil     Ob  857   2.817   2.842  11.172  0.8688  0.1458  0.2299
    1Sil     Ob  858   3.386   2.836  10.380 -0.5447  0.0127  0.0749
    1Sil     Ob  859   3.069   2.732  10.696  0.3182 -0.2137  0.7526
    1Sil     Ob  860   2.627   3.332  10.727  0.5418  0.5410 -0.2626
    1Sil     Ob  861   3.165   3.329  11.121 -0.8342 -0.0669 -0.0382
    1Sil     Ob  862   2.996   3.230  10.334 -0.7370 -0.2403  0.6678
    1Sil     Ob  863   2.993   3.152  11.192  0.0889  0.0525  0.0628
    1Sil     Ob  864   2.752   3.167  10.410 -0.5182  0.2263  0.3109
    1Sil     Ob  865   3.292   3.133  10.807  0.6550  0.0851 -0.5356
    1Sil     Ob  866   2.790   2.913  10.926  0.3165  0.5779 -0.3370
    1Sil     Ob  867   3.078   2.920  10.529  0.2253 -0.4088  0.1528
    1Sil     Ob  868   2.752   3.088  11.113 -0.0479  0.0596 -0.1663
    1Sil     Ob  869   2.522   3.090  10.314  0.2660 -0.3179 -0.4024
    1Sil     Ob  870   3.115   2.974  10.768  0.3824  0.4512  0.4855
    1Sil     Ob  871   2.703   3.086  10.751 -0.4918  0.0616  0.0402
    1Sil     Ob  872   3.238   3.086  11.137 -0.4836  0.1351  0.2654
    1Sil     Ob  873   2.926   2.986  10.344  0.4778 -0.4017 -0.3628
    1Sil     Ob  874   3.163   2.912  10.282  0.4452  0.3904  0.2192
    1Sil     Ob  875   2.577   2.915  11.076 -0.2161  0.1511  0.7494
    1Sil     Ob  876   2.873   2.904  10.682  0.8153  0.2841 -0.3575
    1Sil     Ob  877   2.542   3.159  10.559 -0.6273  0.1895  0.1488
    1Sil     Ob  878   3.076   3.165  10.950  0.5768  0.6746 -0.1636
    1Sil     Ob  879   2.756   2.847  12.365 -0.1187 -0.4604  0.5107
    1Sil     Ob  880   3.360   2.836  11.552  0.7340 -0.5469 -0.1673
    1Sil     Ob  881   3.026   2.731  11.888 -0.6703 -0.2156 -0.0706
    1Sil     Ob  882   2.573   3.324  11.925  0.1944  0.0618 -0.2238
    1Sil     Ob  883   3.120   3.335  12.301  0.0884 -0.2272 -0.0892
    1Sil     Ob  884   2.935   3.224  11.547 -0.5000  0.2060  0.5670
    1Sil     Ob  885   2.947   3.175  12.370 -0.4277  0.3195 -0.5268
    1Sil     Ob  886   2.696   3.167  11.586  0.2937  0.2337  0.3559
    1Sil     Ob  887   3.242   3.165  11.985  0.3254 -0.5784 -0.3368
    1Sil     Ob  888   2.741   2.895  12.111 -0.2252 -0.0406  0.2370
    1Sil     Ob  889   3.320   2.914  11.308 -0.3277 -0.1594  0.1466
    1Sil     Ob  890   3.033   2.912  11.698 -0.5708  0.1919  0.4740
    1Sil     Ob  891   2.719   3.082  12.283  0.6583 -0.4146  0.3053
    1Sil     Ob  892   2.455   3.092  11.498 -0.0051  0.0987  0.0490
    1Sil     Ob  893   3.067   2.986  11.943 -0.1317  0.5561 -0.2039
    1Sil     Ob  894   2.656   3.083  11.944 -0.4331  0.2369 -0.3097
    1Sil     Ob  895   3.181   3.082  12.322  0.3070 -0.2096 -0.1986
    1Sil     Ob  896   2.866   2.983  11.509 -0.2015  1.2346  0.3343
    1Sil     Ob  897   3.116   2.886  11.462  0.5441  0.0191 -0.0140
    1Sil     Ob  898   2.532   2.907  12.260  0.3749  0.1201  0.2868
    1Sil     Ob  899   2.831   2.914  11.858  0.0724 -0.0313  1.0575
    1Sil     Ob  900   2.494   3.153  11.747  0.7282  0.3388 -0.7553
    1Sil     Ob  901   3.025   3.164  12.132  0.3476 -0.7400  0.0095
    1Sil     Ob  902   2.785   3.173  11.348 -0.4815 -0.2445 -0.8234
    1Sil     Ob  903   2.814   3.331  11.148 -0.1480  0.4211  0.0372
    1Sil     Ob  904   3.401   3.336  10.374  0.4344  0.0771  0.8207
    1Sil     Ob  905   3.058   3.215  10.693  0.2771 -0.1693 -0.0976
    1Sil     Ob  906   2.985   0.198  11.194  0.4821  0.3291  0.2333
    1Sil     Ob  907   2.756   0.198  10.403 -0.0275 -0.7101 -0.0171
    1Sil     Ob  908   3.291   0.193  10.802 -0.0159  0.0533 -0.1349
    1Sil     Ob  909   2.782   3.414  10.908 -0.6650  0.0894 -0.6716
    1Sil     Ob  910   3.071   3.401  10.514 -0.3909  0.1334  0.9179
    1Sil     Ob  911   2.749   3.576  11.097 -0.2646  0.1149  0.1170
    1Sil     Ob  912   2.518   3.587  10.309 -0.5319  0.1181  0.0275
    1Sil     Ob  913   3.097   3.469  10.754  0.4077 -0.2884 -0.1798
    1Sil     Ob  914   2.707   0.142  10.741  0.2845  0.6186 -0.1102
    1Sil     Ob  915   3.237   0.130  11.160 -0.1700  0.0664 -0.4614
    1Sil     Ob  916   2.921   0.021  10.309 -0.3089 -0.6131 -0.0338
    1Sil     Ob  917   3.170   3.411  10.264 -0.2473 -0.1580 -0.5730
    1Sil     Ob  918   2.582   3.390  11.070 -0.1297 -0.6525 -0.1119
    1Sil     Ob  919   2.877   3.396  10.665  0.5279 -0.4641  0.1576
    1Sil     Ob  920   2.547   0.211  10.559  0.1635  0.3621  0.0122
    1Sil     Ob  921   3.081   0.193  10.956  0.3118  0.7838 -0.5934
    1Sil     Ob  922   2.742   3.336  12.364 -0.2090 -0.3010 -0.5897
    1Sil     Ob  923   3.353   3.330  11.555  0.7970 -0.5518  0.7519
    1Sil     Ob  924   3.021   3.228  11.884 -0.1153  0.1614  0.2079
    1Sil     Ob  925   2.951   0.199  12.385 -0.3387  0.2722  0.1524
    1Sil     Ob  926   2.697   0.185  11.583  0.8029 -0.2561 -0.1066
    1Sil     Ob  927   3.242   0.206  11.992 -0.0455  0.3084 -0.2937
    1Sil     Ob  928   2.730   3.406  12.111 -0.2433 -0.4386  0.3413
    1Sil     Ob  929   3.317   3.403  11.318  0.1514 -0.5982  0.2038
    1Sil     Ob  930   3.020   3.411  11.709  0.3779 -0.0026 -0.4354
    1Sil     Ob  931   2.711   3.587  12.299  0.2204  0.3563  0.2493
    1Sil     Ob  932   2.461   3.576  11.487 -0.2663 -0.2796  0.3166
    1Sil     Ob  933   3.061   3.473  11.954  0.1076  0.2746  0.2325
    1Sil     Ob  934   2.648   0.122  11.932  0.1216  0.9207  0.0101
    1Sil     Ob  935   3.193   0.126  12.329  0.6052  0.2824  0.0664
    1Sil     Ob  936   2.874   0.022  11.503 -0.6046 -0.0993 -0.7175
    1Sil     Ob  937   3.116   3.396  11.471 -0.2565  0.7122 -0.1559
    1Sil     Ob  938   2.525   3.428  12.264 -0.2994 -0.0442 -0.6391
    1Sil     Ob  939   2.822   3.396  11.869 -0.2421 -0.0180 -0.0353
    1Sil     Ob  940   2.492   0.202  11.740 -0.2349 -0.3943  0.4755
    1Sil     Ob  941   3.038   0.186  12.138 -0.4016 -0.0124 -0.1563
    1Sil     Ob  942   2.782   0.204  11.345  0.0377 -0.2759  0.1950
    1Sil     Ob  943   3.633   0.377  11.174 -0.5792 -0.0644 -0.1641
    1Sil     Ob  944   3.469   0.871  10.727 -0.2317 -0.6177  0.0557
    1Sil     Ob  945   3.986   0.871  11.131 -0.5145  0.0781 -0.5483
    1Sil     Ob  946   3.821   0.764  10.338 -0.3503 -0.1200  0.2277
    1Sil     Ob  947   3.818   0.684  11.200  0.1214  0.9208 -0.5656
    1Sil     Ob  948   3.586   0.683  10.375  0.3857  0.1083  0.2407
    1Sil     Ob  949   0.798   0.703  10.806  0.3495 -0.2291 -0.4286
    1Sil     Ob  950   3.619   0.444  10.935 -0.3402  0.5526 -0.3471
    1Sil     Ob  951   0.589   0.442  10.513 -0.1595 -0.1619  0.1395
    1Sil     Ob  952   3.577   0.618  11.118  0.1854 -0.0350 -0.9393
    1Sil     Ob  953   3.360   0.634  10.285 -0.4405  0.6139 -0.5270
    1Sil     Ob  954   0.626   0.516  10.752 -0.4527  0.1160 -0.3507
    1Sil     Ob  955   3.536   0.620  10.760 -0.2414 -0.4240 -0.1992
    1Sil     Ob  956   4.061   0.624  11.149 -0.6059  0.1106  0.1781
    1Sil     Ob  957   3.767   0.514  10.306  0.1668  0.6930  0.1451
    1Sil     Ob  958   0.684   0.446  10.277  0.0294  0.3182 -0.1401
    1Sil     Ob  959   3.407   0.433  11.082  0.7134 -0.3405 -0.1368
    1Sil     Ob  960   0.392   0.448  10.680  0.2800  0.2378 -0.2036
    1Sil     Ob  961   3.393   0.691  10.543  0.0106 -0.2697  0.2483
    1Sil     Ob  962   3.908   0.687  10.952 -0.0609  0.5903  0.1331
    1Sil     Ob  963   3.606   0.378  12.361  0.1502 -0.4727 -0.6443
    1Sil     Ob  964   3.405   0.868  11.916  0.1452 -0.0272 -0.0856
    1Sil     Ob  965   3.941   0.861  12.334 -0.2166 -0.1846 -0.2098
    1Sil     Ob  966   3.768   0.755  11.536  0.4663 -0.0846  0.2627
    1Sil     Ob  967   3.779   0.672  12.374  0.5068 -0.1255 -0.0441
    1Sil     Ob  968   3.538   0.689  11.589 -0.0041 -0.4273 -0.0693
    1Sil     Ob  969   0.746   0.695  11.985  0.0876  0.2617  0.5457
    1Sil     Ob  970   3.567   0.448  12.111  1.0842  0.2619 -0.7508
    1Sil     Ob  971   0.817   0.444  11.308 -0.4012  0.6451  0.3539
    1Sil     Ob  972   0.540   0.458  11.710  0.3533 -0.2721 -0.0520
    1Sil     Ob  973   3.544   0.619  12.302 -0.4624  0.0470 -0.1317
    1Sil     Ob  974   3.306   0.613  11.503 -0.0657 -0.4961 -0.1835
    1Sil     Ob  975   0.555   0.522  11.964  0.0437  0.1549  0.5658
    1Sil     Ob  976   3.486   0.625  11.941 -0.2654  0.3323 -0.0533
    1Sil     Ob  977   4.026   0.611  12.333 -0.2952  0.4751  0.2528
    1Sil     Ob  978   3.704   0.510  11.516 -0.0713 -0.0877 -0.2091
    1Sil     Ob  979   0.623   0.441  11.471 -0.3620 -0.3923  0.2682
    1Sil     Ob  980   3.370   0.445  12.275  0.5308 -0.1932  0.4730
    1Sil     Ob  981   0.339   0.440  11.864 -0.2679  0.1695 -0.1739
    1Sil     Ob  982   3.331   0.681  11.748 -0.2837  0.7532 -0.7029
    1Sil     Ob  983   3.877   0.721  12.143 -0.6163  0.4249  0.8104
    1Sil     Ob  984   3.606   0.692  11.355  0.0775 -0.2923 -0.3076
    1Sil     Ob  985   3.638   0.875  11.168 -0.5442  0.9039  0.3227
    1Sil     Ob  986   0.560   0.760  10.717 -0.3968 -0.4785  0.0287
    1Sil     Ob  987   3.451   1.358  10.730  0.1370 -0.5037 -0.2753
    1Sil     Ob  988   3.996   1.367  11.119  0.3624 -0.5043  0.1845
    1Sil     Ob  989   3.823   1.259  10.348  0.6394 -0.1858 -0.4443
    1Sil     Ob  990   3.819   1.187  11.191 -0.3221 -0.6420  1.0264
    1Sil     Ob  991   3.578   1.184  10.386  0.1066  0.7035 -0.0195
    1Sil     Ob  992   0.803   1.179  10.807 -0.1069 -0.6531  0.3771
    1Sil     Ob  993   3.610   0.943  10.929  0.5491  0.1887 -0.1921
    1Sil     Ob  994   0.572   0.948  10.527 -0.1973  0.2465  0.8484
    1Sil     Ob  995   3.589   1.122  11.107  0.6865  0.3780  0.0518
    1Sil     Ob  996   3.351   1.118  10.297 -0.2225 -0.1304 -0.8467
    1Sil     Ob  997   0.620   1.008  10.761 -0.2267  0.2583 -0.5740
    1Sil     Ob  998   3.526   1.121  10.757  0.4528 -0.5386 -0.2627
    1Sil     Ob  999   4.063   1.116  11.151 -0.3018  0.9126 -0.1301
    1Sil     Ob 1000   3.748   1.014  10.317  0.6335  0.2564  0.4931
    1Sil     Ob 1001   0.658   0.943  10.282 -0.4462  0.1175  0.1425
    1Sil     Ob 1002   3.402   0.943  11.082 -0.4192  0.0606  0.2662
    1Sil     Ob 1003   0.378   0.949  10.691  0.0704 -0.0289 -0.4105
    1Sil     Ob 1004   3.378   1.189  10.554 -0.0778 -0.4817 -0.1812
    1Sil     Ob 1005   3.913   1.182  10.952  0.0044 -0.3058 -0.1207
    1Sil     Ob 1006   3.616   0.868  12.339 -0.3755 -0.1505  0.0194
    1Sil     Ob 1007   0.530   0.766  11.884  0.5941 -0.3488 -0.0014
    1Sil     Ob 1008   3.414   1.351  11.916  0.4054  0.5599 -0.0821
    1Sil     Ob 1009   3.965   1.367  12.297 -0.0733  0.2063  0.0591
    1Sil     Ob 1010   3.771   1.253  11.552  0.3701  0.8785  0.0334
    1Sil     Ob 1011   3.785   1.202  12.398 -0.3701 -0.3764  0.6940
    1Sil     Ob 1012   3.530   1.176  11.588  0.4379  0.4234  0.0408
    1Sil     Ob 1013   0.732   1.201  11.997 -0.3940 -0.1515  0.5271
    1Sil     Ob 1014   3.577   0.929  12.101  0.8810  0.0779  0.0387
    1Sil     Ob 1015   0.826   0.955  11.316  0.0006  0.3917 -0.2901
    1Sil     Ob 1016   0.526   0.943  11.701  0.1480 -0.0219 -0.7201
    1Sil     Ob 1017   3.582   1.111  12.272  0.4579 -0.5276 -0.4883
    1Sil     Ob 1018   3.301   1.108  11.498 -0.0649  0.5110  0.4174
    1Sil     Ob 1019   0.567   1.011  11.947  0.2189  0.0216 -0.3623
    1Sil     Ob 1020   3.490   1.107  11.937 -0.5472  0.3406 -0.3491
    1Sil     Ob 1021   4.016   1.112  12.343 -0.6755 -0.5147  0.5664
    1Sil     Ob 1022   3.700   1.005  11.496  0.6224 -0.0459 -0.5148
    1Sil     Ob 1023   0.619   0.935  11.466  0.5916 -0.0751  0.2775
    1Sil     Ob 1024   3.378   0.961  12.259 -0.5569  0.0638  0.6067
    1Sil     Ob 1025   0.332   0.927  11.855  0.6458 -0.3271  0.2066
    1Sil     Ob 1026   3.328   1.170  11.749 -0.2253 -0.6184  0.8610
    1Sil     Ob 1027   3.855   1.179  12.151  0.3288  0.0007 -0.4579
    1Sil     Ob 1028   3.623   1.204  11.347  0.7701  0.2687  0.1672
    1Sil     Ob 1029   3.635   1.366  11.161  0.2646 -0.7037  0.5703
    1Sil     Ob 1030   0.581   1.248  10.703 -0.3474 -0.6206 -0.5868
    1Sil     Ob 1031   3.460   1.850  10.739 -0.2192  0.0213 -0.6182
    1Sil     Ob 1032   3.994   1.855  11.125  0.2861 -0.3929  0.3580
    1Sil     Ob 1033   3.825   1.746  10.343  0.1319  0.0614  0.3713
    1Sil     Ob 1034   3.824   1.687  11.205 -0.2113 -0.2939 -0.0796
    1Sil     Ob 1035   3.578   1.675  10.396 -0.2287 -0.6926 -0.0822
    1Sil     Ob 1036   0.786   1.670  10.804 -0.3001 -0.1272  0.3751
    1Sil     Ob 1037   3.601   1.454  10.914 -0.2428  0.2678 -0.2279
    1Sil     Ob 1038   0.571   1.433  10.523  0.4576  0.6527  0.4740
    1Sil     Ob 1039   3.580   1.620  11.128 -0.1664  0.8291 -0.5511
    1Sil     Ob 1040   3.333   1.611  10.314 -0.6584  0.0170 -0.2617
    1Sil     Ob 1041   0.600   1.491  10.762  0.2292 -0.2367 -0.1366
    1Sil     Ob 1042   3.525   1.603  10.724  0.1602 -0.2075 -0.4236
    1Sil     Ob 1043   4.064   1.616  11.142  0.1287 -0.5186  0.5030
    1Sil     Ob 1044   3.748   1.502  10.325 -0.2778  0.3405  0.3584
    1Sil     Ob 1045   0.675   1.428  10.285 -0.1809 -0.1301 -0.0489
    1Sil     Ob 1046   3.411   1.433  11.078  0.0708  0.3661 -0.4092
    1Sil     Ob 1047   0.370   1.401  10.678  0.5837 -0.2169  0.2020
    1Sil     Ob 1048   3.368   1.697  10.547  0.1092  0.8661  0.2855
    1Sil     Ob 1049   3.900   1.678  10.959 -0.3808  0.5428 -0.7907
    1Sil     Ob 1050   3.595   1.356  12.357 -0.4297  0.3064 -0.2811
    1Sil     Ob 1051   0.499   1.255  11.905  0.1299  0.0178  0.2038
    1Sil     Ob 1052   3.404   1.854  11.923 -0.1135 -0.0799 -0.0550
    1Sil     Ob 1053   3.951   1.852  12.311 -0.8598 -0.0235 -0.7598
    1Sil     Ob 1054   3.782   1.743  11.547 -0.0318 -0.3272  0.1155
    1Sil     Ob 1055   3.781   1.671  12.390  0.4987  0.2618 -0.2441
    1Sil     Ob 1056   3.535   1.679  11.602  0.2991 -0.6877 -0.8121
    1Sil     Ob 1057   0.738   1.674  12.001  0.4152  0.1107  0.0136
    1Sil     Ob 1058   3.561   1.435  12.111  0.5957  0.1560 -0.3482
    1Sil     Ob 1059   0.824   1.446  11.317 -0.0913 -0.7042 -0.4536
    1Sil     Ob 1060   0.534   1.424  11.714  0.1189 -0.4069 -0.8042
    1Sil     Ob 1061   3.543   1.607  12.312  0.9894 -0.6611  0.4912
    1Sil     Ob 1062   3.301   1.603  11.498  0.0338 -0.1287  0.0515
    1Sil     Ob 1063   0.550   1.498  11.963 -0.3939  0.1062 -0.3886
    1Sil     Ob 1064   3.480   1.611  11.951  0.4194  0.7782  0.4912
    1Sil     Ob 1065   4.024   1.611  12.324 -0.1037  1.1828 -0.5670
    1Sil     Ob 1066   3.706   1.498  11.526  0.3437 -0.0697  1.0043
    1Sil     Ob 1067   0.627   1.411  11.477  0.1361  0.2602  0.0022
    1Sil     Ob 1068   3.364   1.425  12.272 -0.2203 -0.1810  0.1616
    1Sil     Ob 1069   0.324   1.435  11.864 -0.3597 -0.4202 -0.4986
    1Sil     Ob 1070   3.329   1.685  11.750 -0.4014 -0.4834 -0.5656
    1Sil     Ob 1071   3.859   1.679  12.149  0.4575  0.0279  0.2859
    1Sil     Ob 1072   3.620   1.687  11.366  0.6203 -0.4783 -0.6668
    1Sil     Ob 1073   3.636   1.860  11.179 -0.1377  0.3617 -0.1144
    1Sil     Ob 1074   0.557   1.739  10.701  0.2184  0.2207 -0.1099
    1Sil     Ob 1075   3.461   2.347  10.733  0.2012  0.7606  0.7582
    1Sil     Ob 1076   3.998   2.354  11.115 -0.2851  0.8379  0.0550
    1Sil     Ob 1077   3.828   2.236  10.351 -0.7201 -0.5513 -0.0341
    1Sil     Ob 1078   3.819   2.186  11.198 -0.5086  0.3839  0.4930
    1Sil     Ob 1079   3.575   2.171  10.404  0.5431 -0.1229  0.1029
    1Sil     Ob 1080   0.794   2.185  10.812  0.2453  0.2015  0.3562
    1Sil     Ob 1081   3.621   1.924  10.931  0.0036 -0.3638  0.2546
    1Sil     Ob 1082   0.581   1.925  10.517 -0.2093  0.0580  0.4982
    1Sil     Ob 1083   3.597   2.106  11.111 -0.2827  0.0273 -0.2414
    1Sil     Ob 1084   3.334   2.100  10.322  0.7597  0.1199 -0.6060
    1Sil     Ob 1085   0.620   1.982  10.770  0.2831  0.0055 -0.0571
    1Sil     Ob 1086   3.527   2.096  10.769  0.5538 -0.1743 -0.2641
    1Sil     Ob 1087   4.062   2.105  11.150  0.6402  0.6016  0.1628
    1Sil     Ob 1088   3.755   1.996  10.326  0.2490 -0.0902  0.4889
    1Sil     Ob 1089   0.671   1.927  10.274  0.0766 -1.0289  0.4784
    1Sil     Ob 1090   3.419   1.929  11.074 -0.0901 -0.3673  1.2313
    1Sil     Ob 1091   0.381   1.926  10.684 -0.2390  0.1799 -0.3154
    1Sil     Ob 1092   3.373   2.166  10.567  0.3697  0.0796 -0.8298
    1Sil     Ob 1093   3.902   2.162  10.954 -0.0244  0.1643  0.0085
    1Sil     Ob 1094   3.604   1.856  12.373 -0.7719 -0.7532  0.4211
    1Sil     Ob 1095   0.502   1.738  11.905 -0.2045  0.0573 -0.5063
    1Sil     Ob 1096   3.423   2.341  11.905 -0.0375 -0.0821 -0.0457
    1Sil     Ob 1097   3.945   2.345  12.301  0.1154  0.3421 -0.2156
    1Sil     Ob 1098   3.775   2.237  11.559  0.0719  0.6341  1.2884
    1Sil     Ob 1099   3.772   2.174  12.388 -0.4198  0.2184 -0.8015
    1Sil     Ob 1100   3.523   2.162  11.596  0.4816  0.1310  0.4020
    1Sil     Ob 1101   0.752   2.153  11.989  0.0588 -0.2249  0.1479
    1Sil     Ob 1102   3.557   1.919  12.131 -0.0375  0.4085 -0.5044
    1Sil     Ob 1103   0.818   1.931  11.327 -0.2003 -0.2397  0.3197
    1Sil     Ob 1104   0.531   1.920  11.722  0.4144 -0.3817 -0.1609
    1Sil     Ob 1105   3.542   2.099  12.309 -0.4014 -0.2557 -0.2509
    1Sil     Ob 1106   3.301   2.095  11.494  0.0126  0.3930 -0.9141
    1Sil     Ob 1107   0.549   1.991  11.974 -0.1113  0.3094  0.3910
    1Sil     Ob 1108   3.487   2.095  11.938 -0.0781  0.2794 -0.0105
    1Sil     Ob 1109   4.015   2.102  12.328  0.4091 -0.6941 -0.7188
    1Sil     Ob 1110   3.703   1.997  11.530  0.0440  0.5012 -0.3333
    1Sil     Ob 1111   0.623   1.933  11.471  0.0633  0.3228 -0.1966
    1Sil     Ob 1112   3.362   1.923  12.293  0.2952  0.6461  0.3149
    1Sil     Ob 1113   0.318   1.914  11.881 -0.0666 -0.7118  0.0077
    1Sil     Ob 1114   3.332   2.167  11.751 -0.2188  0.2472 -0.2512
    1Sil     Ob 1115   3.859   2.174  12.139  0.0863  0.0488 -0.0363
    1Sil     Ob 1116   3.614   2.168  11.362 -0.0221 -0.2905  0.0908
    1Sil     Ob 1117   3.633   2.344  11.174 -0.3237  0.5922 -0.0396
    1Sil     Ob 1118   0.550   2.235  10.717 -0.3322 -0.0442 -0.3244
    1Sil     Ob 1119   3.462   2.839  10.726  0.5188  0.5438  0.3692
    1Sil     Ob 1120   3.990   2.834  11.122 -0.2660 -0.7140 -0.4231
    1Sil     Ob 1121   3.823   2.732  10.334 -0.3292  0.3606 -0.2860
    1Sil     Ob 1122   3.825   2.647  11.195 -0.0500  0.3774  0.2956
    1Sil     Ob 1123   3.586   2.666  10.405 -0.4578 -0.2259 -0.0712
    1Sil     Ob 1124   0.798   2.651  10.801  0.1311 -0.2329 -0.0894
    1Sil     Ob 1125   3.621   2.416  10.920  0.5122  0.3803  0.1067
    1Sil     Ob 1126   0.590   2.405  10.527 -0.0389  0.3814  0.2696
    1Sil     Ob 1127   3.599   2.589  11.103 -0.0228 -0.6097  0.1495
    1Sil     Ob 1128   3.351   2.590  10.314 -0.0523  0.2164  0.4542
    1Sil     Ob 1129   0.613   2.489  10.764 -0.6804 -0.4851 -0.5032
    1Sil     Ob 1130   3.526   2.595  10.757  0.3676  0.0984 -0.0731
    1Sil     Ob 1131   4.066   2.592  11.155 -0.3343 -0.0357  0.5131
    1Sil     Ob 1132   3.750   2.481  10.344  0.1925  0.2394  0.2249
    1Sil     Ob 1133   0.667   2.423  10.283 -0.2673 -0.2376  0.2723
    1Sil     Ob 1134   3.404   2.415  11.071  0.5084 -0.4464 -0.5667
    1Sil     Ob 1135   0.377   2.415  10.678 -0.0236 -0.3088  0.4328
    1Sil     Ob 1136   3.382   2.655  10.558 -0.7595  0.2600  0.1094
    1Sil     Ob 1137   3.919   2.670  10.948 -0.0896  0.4776  0.1053
    1Sil     Ob 1138   3.585   2.349  12.365 -0.0767 -0.1998 -0.5636
    1Sil     Ob 1139   0.526   2.233  11.896  0.6187 -0.7558  0.0345
    1Sil     Ob 1140   3.412   2.835  11.938  0.0098 -0.4107 -0.1282
    1Sil     Ob 1141   3.949   2.847  12.328 -0.3464  0.0436 -0.2556
    1Sil     Ob 1142   3.776   2.727  11.562  0.0295 -0.3871 -0.2504
    1Sil     Ob 1143   3.774   2.661  12.386  0.2875  0.0543 -0.5938
    1Sil     Ob 1144   3.527   2.650  11.598 -0.4618 -0.1552 -0.2512
    1Sil     Ob 1145   0.751   2.644  12.009  0.0084 -0.0744 -0.2184
    1Sil     Ob 1146   3.566   2.416  12.105  0.0754 -0.4384 -0.0588
    1Sil     Ob 1147   0.833   2.412  11.316  0.3767  0.7905  0.7166
    1Sil     Ob 1148   0.554   2.408  11.721 -0.0829 -0.1573 -1.1596
    1Sil     Ob 1149   3.551   2.591  12.288 -0.5282 -0.6735 -0.2358
    1Sil     Ob 1150   3.304   2.596  11.495  0.0114 -0.0296 -0.5078
    1Sil     Ob 1151   0.559   2.486  11.975  0.2068  0.0730 -0.1307
    1Sil     Ob 1152   3.495   2.582  11.931 -0.1965 -0.6426  0.3485
    1Sil     Ob 1153   4.018   2.594  12.345  0.1656 -0.7403  0.2266
    1Sil     Ob 1154   3.712   2.478  11.533 -0.4521  0.0251 -0.0617
    1Sil     Ob 1155   0.633   2.400  11.472  0.6498  0.8749  0.5920
    1Sil     Ob 1156   3.362   2.424  12.260 -0.2035 -0.4775 -0.3204
    1Sil     Ob 1157   0.345   2.410  11.862  0.3538  0.3360  0.4326
    1Sil     Ob 1158   3.320   2.664  11.752  0.3918 -0.7820  0.0527
    1Sil     Ob 1159   3.874   2.683  12.150 -0.3581 -0.3677  0.7691
    1Sil     Ob 1160   3.628   2.642  11.357 -0.2222 -0.5952  0.0996
    1Sil     Ob 1161   3.653   2.834  11.173 -0.1172 -0.7203  0.3921
    1Sil     Ob 1162   0.577   2.731  10.699 -0.0579  0.0443  0.5103
    1Sil     Ob 1163   3.462   3.327  10.745  0.0989  1.2624 -0.5849
    1Sil     Ob 1164   3.992   3.337  11.121  0.4185 -0.3376 -0.0089
    1Sil     Ob 1165   3.829   3.237  10.345  0.0174 -0.5864 -0.2818
    1Sil     Ob 1166   3.819   3.156  11.202 -0.0979  0.1586 -0.0779
    1Sil     Ob 1167   3.589   3.169  10.407 -0.0047  0.2932 -0.0513
    1Sil     Ob 1168   0.799   3.136  10.793 -0.3555  0.2295  0.1988
    1Sil     Ob 1169   3.620   2.904  10.924 -0.0141  0.1503  0.3986
    1Sil     Ob 1170   0.587   2.907  10.510  0.3128 -0.0429 -0.6542
    1Sil     Ob 1171   3.594   3.086  11.106 -0.1090 -0.3537 -0.6457
    1Sil     Ob 1172   3.350   3.082  10.332 -0.2863  0.1673  0.0763
    1Sil     Ob 1173   0.611   2.975  10.768  0.2865  0.2387 -0.0363
    1Sil     Ob 1174   3.537   3.077  10.753 -0.3404  0.9630 -0.0984
    1Sil     Ob 1175   4.066   3.085  11.152 -0.2518  0.2213 -0.3300
    1Sil     Ob 1176   3.751   2.984  10.326 -0.4667 -0.3260 -0.2422
    1Sil     Ob 1177   0.669   2.928  10.274 -0.6532  0.2719 -0.2439
    1Sil     Ob 1178   3.417   2.904  11.077  0.1498 -0.2478  0.0198
    1Sil     Ob 1179   0.379   2.894  10.671  0.6662  0.1597  0.3117
    1Sil     Ob 1180   3.385   3.166  10.570  0.1319  0.5422 -0.2985
    1Sil     Ob 1181   3.916   3.156  10.955  0.4364 -0.4486  0.0714
    1Sil     Ob 1182   3.595   2.841  12.357 -0.4359  0.4922  0.1857
    1Sil     Ob 1183   0.532   2.727  11.901  0.4859 -0.6579 -0.2680
    1Sil     Ob 1184   3.411   3.335  11.918  0.2489  0.0823  0.0593
    1Sil     Ob 1185   3.945   3.327  12.311  0.0217 -0.3444 -0.7301
    1Sil     Ob 1186   3.757   3.230  11.553  0.1188 -0.5422 -0.0183
    1Sil     Ob 1187   3.777   3.146  12.374 -0.0543 -0.1479 -0.0353
    1Sil     Ob 1188   3.516   3.148  11.595 -0.1278 -0.0647 -0.2754
    1Sil     Ob 1189   0.752   3.155  11.990 -0.1572  0.6105  0.3437
    1Sil     Ob 1190   3.568   2.924  12.110 -0.8161  0.1718  0.0972
    1Sil     Ob 1191   0.817   2.901  11.312 -0.0708  0.4036 -0.0092
    1Sil     Ob 1192   0.541   2.900  11.722 -0.6953  0.4379 -0.2119
    1Sil     Ob 1193   3.539   3.089  12.320 -0.1859 -0.6410 -0.0714
    1Sil     Ob 1194   3.283   3.083  11.498  0.0155 -0.2076 -0.1674
    1Sil     Ob 1195   0.568   2.973  11.962 -0.1463  0.7748 -0.2490
    1Sil     Ob 1196   3.492   3.077  11.923 -0.0242  0.2290 -0.2847
    1Sil     Ob 1197   4.024   3.089  12.340  0.4253 -0.2501  0.7114
    1Sil     Ob 1198   3.698   2.980  11.532 -0.2195 -0.1031 -0.0345
    1Sil     Ob 1199   0.620   2.891  11.474 -0.4470 -0.8765 -0.6816
    1Sil     Ob 1200   3.362   2.900  12.279 -0.6146  0.4342  0.1382
    1Sil     Ob 1201   0.340   2.898  11.874  0.1575 -0.0091 -0.7076
    1Sil     Ob 1202   3.329   3.166  11.746 -0.1012 -0.3205 -0.0938
    1Sil     Ob 1203   3.871   3.166  12.135  0.2953 -0.3837 -0.3001
    1Sil     Ob 1204   3.614   3.152  11.360  0.3186  0.1458 -0.0840
    1Sil     Ob 1205   3.648   3.337  11.166  0.9940  0.6656 -0.1149
    1Sil     Ob 1206   0.577   3.217  10.687  0.5316  0.4809  0.1620
    1Sil     Ob 1207   0.499   0.210  11.193 -0.1277  0.1838 -0.2779
    1Sil     Ob 1208   0.264   0.225  10.394 -0.2561 -0.5755  0.2205
    1Sil     Ob 1209   0.793   0.201  10.795  0.5629 -0.8181  0.4222
    1Sil     Ob 1210   3.629   3.417  10.914 -0.2008 -0.4370 -0.2962
    1Sil     Ob 1211   0.589   3.402  10.512  0.0684  0.6811 -0.3086
    1Sil     Ob 1212   3.597   3.578  11.108 -0.4426 -0.1702 -0.4745
    1Sil     Ob 1213   3.362   3.581  10.303  0.0653 -0.0775 -0.7816
    1Sil     Ob 1214   0.614   3.470  10.763  0.0049 -0.4188  0.0999
    1Sil     Ob 1215   3.541   0.135  10.734 -0.3685 -0.7045 -0.2679
    1Sil     Ob 1216   0.747   0.132  11.142  0.0071 -0.2387 -0.4935
    1Sil     Ob 1217   0.428   0.031  10.328 -0.3888 -0.1173  0.0784
    1Sil     Ob 1218   0.670   3.414  10.267 -0.2057 -0.6268 -0.0792
    1Sil     Ob 1219   3.417   3.404  11.077  0.3116 -0.0298  0.1281
    1Sil     Ob 1220   0.383   3.394  10.668  0.1917 -0.8051 -0.2215
    1Sil     Ob 1221   3.378   0.216  10.558 -0.2251 -0.4027  0.2511
    1Sil     Ob 1222   0.589   0.197  10.950  0.3018  0.4684 -0.0585
    1Sil     Ob 1223   3.609   3.326  12.363 -0.1017 -0.4280  0.5491
    1Sil     Ob 1224   0.517   3.220  11.888 -0.7186  0.5460 -1.0030
    1Sil     Ob 1225   0.463   0.200  12.388 -0.2027  0.0360 -0.1840
    1Sil     Ob 1226   0.206   0.203  11.595 -0.7201  0.1969  0.2678
    1Sil     Ob 1227   0.743   0.191  11.998 -0.1260 -0.5185 -0.2958
    1Sil     Ob 1228   3.574   3.410  12.110  0.3931 -0.1287  0.1706
    1Sil     Ob 1229   0.825   3.414  11.315  0.5622 -0.0607  0.3136
    1Sil     Ob 1230   0.532   3.397  11.710 -0.5028 -0.3824 -0.2644
    1Sil     Ob 1231   3.552   3.582  12.316 -0.0835  0.6807  0.4900
    1Sil     Ob 1232   3.304   3.580  11.503  0.3926 -0.3778  0.7639
    1Sil     Ob 1233   0.567   3.465  11.952  0.2963  0.1217  0.6406
    1Sil     Ob 1234   3.487   0.132  11.945 -0.3687 -0.0336  0.6149
    1Sil     Ob 1235   0.694   0.122  12.316  0.3232  0.7477 -0.1287
    1Sil     Ob 1236   0.380   0.024  11.525  0.4690  0.2466 -0.1674
    1Sil     Ob 1237   0.616   3.392  11.466  0.2164  0.3426 -0.8326
    1Sil     Ob 1238   3.375   3.401  12.272 -0.0984 -0.9928 -0.3864
    1Sil     Ob 1239   0.336   3.404  11.865  0.7288  0.0436 -0.3688
    1Sil     Ob 1240   3.328   0.186  11.752  0.1076 -0.3110  0.1380
    1Sil     Ob 1241   0.525   0.189  12.136 -0.2633 -0.1998  0.3705
    1Sil     Ob 1242   3.622   0.200  11.352 -0.2410  0.8361 -1.2179
    1Sil     Ob 1243   0.925   0.393  10.366  0.5830 -0.1327  0.4272
    1Sil     Ob 1244   0.850   0.370  11.563 -0.1435  0.2085  0.2179
    1Sil     Ob 1245   0.891   0.880  10.391  0.2996 -0.7244  0.1405
    1Sil     Ob 1246   0.852   0.868  11.557  0.3484  0.3527 -0.3640
    1Sil     Ob 1247   0.907   1.361  10.390  0.3035  0.3515 -0.0641
    1Sil     Ob 1248   0.866   1.370  11.560  0.5654 -0.0629 -0.3558
    1Sil     Ob 1249   0.902   1.855  10.368 -0.3036 -0.4038  0.2450
    1Sil     Ob 1250   0.850   1.860  11.576 -0.1365  0.6465 -0.5939
    1Sil     Ob 1251   0.912   2.355  10.365  0.0767 -1.1132 -0.5391
    1Sil     Ob 1252   0.873   2.339  11.556  0.2167 -0.2369 -0.0531
    1Sil     Ob 1253   0.877   2.844  10.385  0.2464 -0.0038  0.2807
    1Sil     Ob 1254   0.856   2.827  11.567  0.7836 -0.0041  0.3261
    1Sil     Ob 1255   0.891   3.345  10.373  0.1748  0.2131  0.3190
    1Sil     Ob 1256   0.854   3.325  11.564  0.0192  0.0124  0.3733
    1Sil     Ob 1257   1.393   0.261  10.708  0.4380 -0.0939 -0.3013
    1Sil     Ob 1258   1.347   0.262  11.890 -0.1772  0.0678  0.1044
    1Sil     Ob 1259   2.226   0.271  10.705 -0.7822  0.4477  0.0689
    1Sil     Ob 1260   2.169   0.270  11.902 -0.0180 -0.8264 -0.2365
    1Sil     Ob 1261   3.054   0.260  10.699 -0.6756 -0.4391 -0.5102
    1Sil     Ob 1262   3.009   0.264  11.891  0.3333 -0.1916  0.4221
    1Sil     Ob 1263   0.566   0.271  10.698 -0.5405  0.6087  0.5642
    1Sil     Ob 1264   0.529   0.265  11.891  0.0905 -0.2533  0.4645
    1Sil     Ob 1265   0.965   0.389  10.740  0.1466 -0.1416 -0.2656
    1Sil     Ob 1266   1.501   0.386  11.128  0.0084  0.0127  0.5787
    1Sil     Ob 1267   1.333   0.279  10.334 -0.0396 -0.3065 -0.0246
    1Sil     Ob 1268   0.905   0.367  11.934 -0.0535 -0.2573 -0.5820
    1Sil     Ob 1269   1.448   0.377  12.309 -0.5486 -0.1054 -0.2670
    1Sil     Ob 1270   1.276   0.263  11.549 -0.1552 -0.7319  0.0182
    1Sil     Ob 1271   1.790   0.369  10.726 -0.7531  0.4119  0.4424
    1Sil     Ob 1272   2.335   0.377  11.103  0.1124  0.3268 -0.4616
    1Sil     Ob 1273   2.164   0.269  10.350 -0.1403 -0.5069 -0.5905
    1Sil     Ob 1274   1.747   0.371  11.914 -0.2441 -0.1250  0.0454
    1Sil     Ob 1275   2.281   0.384  12.290  0.0467  0.4476 -0.1012
    1Sil     Ob 1276   2.118   0.264  11.537 -0.0228 -0.0866  0.7271
    1Sil     Ob 1277   2.624   0.386  10.731 -0.1131 -0.5591  0.1705
    1Sil     Ob 1278   3.161   0.367  11.136 -0.0268  0.0011 -0.6085
    1Sil     Ob 1279   2.988   0.270  10.350 -0.3650 -0.3472  0.1108
    1Sil     Ob 1280   2.579   0.368  11.907  0.0829 -1.2200 -0.2512
    1Sil     Ob 1281   3.127   0.369  12.295  0.1644  0.2200 -0.3127
    1Sil     Ob 1282   2.949   0.273  11.536  0.1740 -0.2686 -0.3726
    1Sil     Ob 1283   3.466   0.378  10.741  0.3795 -0.3487 -0.3779
    1Sil     Ob 1284   0.679   0.371  11.110 -0.5969  0.1118  0.4621
    1Sil     Ob 1285   0.511   0.268  10.339 -0.1022  0.1024 -0.1979
    1Sil     Ob 1286   3.418   0.376  11.906  0.2704 -0.3699 -0.1641
    1Sil     Ob 1287   0.625   0.367  12.280  1.0541  0.1854  0.0624
    1Sil     Ob 1288   0.453   0.274  11.548  0.4895  0.1402 -0.0865
    1Sil     Oy 1289   1.693   0.444  10.121 -0.0130  0.0141 -0.4354
    1Sil     Oy 1290   1.173   0.705  10.153 -0.3404  0.0823 -0.2944
    1Sil     Cm 1291   1.087   0.673  12.571  1.2533 -0.0060  0.3025
    1Sil     Oy 1292   1.605   0.470  12.507 -0.1130 -0.0309  0.4587
    1Sil     Cm 1293   1.726   0.936  10.100 -0.2899 -0.9155  0.0257
    1Sil     Oy 1294   1.157   1.192  10.165 -0.0916 -0.4828 -0.0466
    1Sil     Cm 1295   1.076   1.177  12.549 -0.3453 -0.1280 -0.9758
    1Sil     Oy 1296   1.615   0.941  12.496  0.2497 -0.5500  0.0778
    1Sil     Cm 1297   1.710   1.433  10.119  0.0154  0.1691  0.0606
    1Sil     Oy 1298   1.172   1.675  10.147 -0.4626 -0.0557  0.2294
    1Sil     Oy 1299   1.097   1.676  12.557  0.2909  0.1836 -0.1833
    1Sil     Cm 1300   1.600   1.423  12.519 -0.0877  1.1622 -0.0450
    1Sil     Oy 1301   1.706   1.932  10.135 -0.0382  0.2595  0.0107
    1Sil     Oy 1302   1.169   2.187  10.166  0.1159  0.3307 -0.6995
    1Sil     Oy 1303   1.079   2.178  12.546  0.2682  0.0911 -0.0188
    1Sil     Cm 1304   1.606   1.921  12.538  0.1273  0.5307  0.1126
    1Sil     Oy 1305   1.708   2.426  10.125  0.2006 -0.3944  0.2568
    1Sil     Oy 1306   1.159   2.675  10.154 -0.1736  0.0582  0.4147
    1Sil     Cm 1307   1.101   2.664  12.577 -0.9060  0.1000 -0.2878
    1Sil     Cm 1308   1.623   2.414  12.537  0.5327  0.2082  0.0541
    1Sil     Oy 1309   1.681   2.911  10.122  0.2005 -0.9786 -0.4934
    1Sil     Oy 1310   1.176   3.119  10.163  0.5593  0.1321  0.4344
    1Sil     Oy 1311   1.081   3.166  12.564 -0.0797 -0.7894  0.7312
    1Sil     Oy 1312   1.601   2.922  12.500 -0.0754 -0.0260 -0.0141
    1Sil     Oy 1313   1.712   3.429  10.113 -0.3298  0.3571 -0.1262
    1Sil     Oy 1314   1.167   0.227  10.139 -0.7261 -0.0509  0.2180
    1Sil     Oy 1315   1.093   0.199  12.547 -0.7079 -0.3295 -0.2959
    1Sil     Oy 1316   1.580   3.406  12.522 -0.0344 -0.8753 -0.4928
    1Sil     Oy 1317   2.548   0.450  10.130  0.0029  0.3067  0.0200
    1Sil     Cm 1318   2.017   0.687  10.130  0.4837  0.6718 -0.1943
    1Sil     Cm 1319   1.910   0.694  12.528  0.0598 -0.6759  0.5452
    1Sil     Oy 1320   2.417   0.446  12.496  0.1515 -0.2608 -0.0343
    1Sil     Oy 1321   2.547   0.930  10.133  0.2033  0.8481  0.0953
    1Sil     Oy 1322   1.997   1.186  10.148  0.2836  0.4679 -0.2339
    1Sil     Oy 1323   1.897   1.185  12.549  0.1458  0.3160 -0.1302
    1Sil     Oy 1324   2.443   0.925  12.493  0.0028  0.0781  0.0139
    1Sil     Oy 1325   2.530   1.448  10.121 -0.2718  0.0971 -0.5368
    1Sil     Oy 1326   2.015   1.674  10.164 -0.9700  0.5227 -0.2686
    1Sil     Oy 1327   1.940   1.684  12.572  0.4044 -0.9306  0.2663
    1Sil     Oy 1328   2.436   1.439  12.513  0.3169 -0.6100  0.1346
    1Sil     Oy 1329   2.555   1.940  10.137 -0.5325 -0.3462 -0.2890
    1Sil     Cm 1330   1.995   2.178  10.156 -0.1201 -0.2785  0.1328
    1Sil     Cm 1331   1.932   2.177  12.587 -0.3981  0.1965  0.2332
    1Sil     Oy 1332   2.416   1.932  12.518  0.2341  0.0459  0.6848
    1Sil     Cm 1333   2.528   2.431  10.127  0.3756 -0.1720 -0.0024
    1Sil     Cm 1334   1.977   2.669  10.139 -1.0090 -0.5224  0.0713
    1Sil     Oy 1335   1.914   2.693  12.546 -0.3821 -0.2335 -0.0787
    1Sil     Cm 1336   2.434   2.425  12.537  0.1850  0.0549  0.1870
    1Sil     Oy 1337   2.545   2.911  10.134 -0.0851 -0.3026 -0.0284
    1Sil     Oy 1338   1.986   3.134  10.152  0.1392 -0.0286  0.1368
    1Sil     Oy 1339   1.936   3.170  12.548  0.1048  0.1236 -0.6039
    1Sil     Oy 1340   2.432   2.899  12.499 -0.1770 -0.0744  0.2327
    1Sil     Oy 1341   2.549   3.412  10.115 -0.0317  0.2226  1.1659
    1Sil     Cm 1342   2.003   0.203  10.136  0.2721  0.4857  0.1801
    1Sil     Cm 1343   1.901   0.210  12.548 -0.2643  0.2571  0.4394
    1Sil     Oy 1344   2.435   3.400  12.510  0.2417 -0.4721  0.2641
    1Sil     Cm 1345   3.355   0.447  10.113 -0.0053 -0.2030  0.5034
    1Sil     Oy 1346   2.815   0.697  10.156  0.1173  0.1593  0.8768
    1Sil     Oy 1347   2.713   0.695  12.505  0.0520 -0.0999 -0.0252
    1Sil     Cm 1348   3.266   0.431  12.521 -0.1130 -0.2100 -0.2020
    1Sil     Cm 1349   3.372   0.943  10.099 -0.4676 -0.4000  0.1602
    1Sil     Cm 1350   2.817   1.172  10.142  0.0280  0.2947 -0.4163
    1Sil     Oy 1351   2.765   1.169  12.543 -0.0337 -0.1665 -0.1959
    1Sil     Cm 1352   3.274   0.963  12.514  0.5591  0.2592  0.2964
    1Sil     Oy 1353   3.372   1.443  10.127  0.0119 -0.0094  0.2061
    1Sil     Cm 1354   2.843   1.702  10.141  0.9073  0.3641  0.6487
    1Sil     Oy 1355   2.759   1.673  12.542  0.4757 -0.3295  0.4118
    1Sil     Oy 1356   3.272   1.457  12.512 -0.3141  0.6103 -0.0319
    1Sil     Oy 1357   3.352   1.955  10.117 -0.4567 -0.4388 -0.1008
    1Sil     Oy 1358   2.822   2.155  10.158  0.0095  0.6476  0.3994
    1Sil     Oy 1359   2.754   2.176  12.550 -0.2640  0.1790  0.3510
    1Sil     Cm 1360   3.271   1.913  12.540 -0.7679 -0.0207 -0.1370
    1Sil     Oy 1361   3.362   2.406  10.129  0.4475  0.2009 -0.1362
    1Sil     Cm 1362   2.841   2.671  10.140 -0.2279  0.0134  0.1129
    1Sil     Cm 1363   2.746   2.686  12.557 -0.1019  0.4990  0.5093
    1Sil     Oy 1364   3.259   2.432  12.506 -0.5409 -0.0095 -0.3844
    1Sil     Oy 1365   3.372   2.913  10.136 -0.7439 -0.0367  0.2968
    1Sil     Oy 1366   2.823   3.133  10.162 -0.1381  0.3147 -0.0541
    1Sil     Oy 1367   2.743   3.132  12.525  0.1625  1.0960  0.2721
    1Sil     Cm 1368   3.281   2.947  12.543 -0.0283  0.1035  0.1611
    1Sil     Cm 1369   3.394   3.395  10.118  0.2695 -0.6312  0.0489
    1Sil     Cm 1370   2.827   0.215  10.150  0.2536 -0.0809  0.3971
    1Sil     Oy 1371   2.746   0.206  12.544 -0.3202  0.2546 -0.0780
    1Sil     Oy 1372   3.270   3.403  12.503  0.0133  0.2223 -0.1761
    1Sil     Oy 1373   0.899   0.516  10.126  0.6553  0.0949 -0.7312
    1Sil     Cm 1374   3.686   0.696  10.105 -0.4064 -0.1221 -0.3688
    1Sil     Cm 1375   3.573   0.699  12.556  0.3718 -0.3599  0.5129
    1Sil     Oy 1376   0.747   0.413  12.487 -0.7346 -0.1634 -0.1504
    1Sil     Oy 1377   0.890   0.936  10.143  0.3915  0.1734 -0.5411
    1Sil     Oy 1378   3.680   1.197  10.141  0.2458 -0.0091  0.0626
    1Sil     Oy 1379   3.562   1.166  12.529 -0.5824 -0.3775 -0.1674
    1Sil     Oy 1380   0.776   0.946  12.512 -0.2535 -0.2665 -0.1349
    1Sil     Oy 1381   0.878   1.426  10.135 -0.0026 -0.0983  0.1303
    1Sil     Oy 1382   3.663   1.679  10.153  0.0354 -0.0233  0.2797
    1Sil     Oy 1383   3.601   1.684  12.563 -0.5342  0.4404  0.2493
    1Sil     Oy 1384   0.767   1.445  12.510  0.7693  0.1829 -0.1540
    1Sil     Cm 1385   0.880   1.942  10.130  0.0860  0.4059 -0.3589
    1Sil     Cm 1386   3.664   2.170  10.157  0.0152 -0.2039 -0.0608
    1Sil     Oy 1387   3.582   2.181  12.550  0.1494  0.7369 -0.0082
    1Sil     Oy 1388   0.771   1.933  12.506 -0.1784 -0.5108 -0.6141
    1Sil     Oy 1389   0.863   2.422  10.127  0.1104 -0.3591 -0.3058
    1Sil     Cm 1390   3.666   2.635  10.136  0.4123  0.0334  0.3915
    1Sil     Cm 1391   3.561   2.644  12.538 -0.0642 -0.3186  0.4342
    1Sil     Cm 1392   0.776   2.401  12.517 -0.3721 -0.5711  0.4828
    1Sil     Oy 1393   0.870   2.916  10.120  0.2522  0.0506  0.1858
    1Sil     Oy 1394   3.674   3.166  10.159 -0.2357  0.0608  0.4682
    1Sil     Cm 1395   3.594   3.176  12.579  0.4343 -0.3428 -0.4202
    1Sil     Cm 1396   0.785   2.918  12.537 -0.2587 -0.0084 -0.8086
    1Sil     Oy 1397   0.886   3.407  10.123  0.0253 -0.6892  0.3117
    1Sil     Cm 1398   0.353   0.190  10.149  0.0631 -0.0612  0.2963
    1Sil     Oy 1399   3.588   0.228  12.554  0.2393  0.2325  0.0102
    1Sil     Oy 1400   0.764   3.410  12.505  0.3447 -0.1898 -0.2719
    1Sil    Sib 1401   1.655   0.478  10.270  0.0933  0.3518  0.0572
    1Sil    Sib 1402   1.073   0.477  11.067 -0.1435  0.2901 -0.0325
    1Sil    Sib 1403   1.365   0.417  10.668 -0.3044 -0.0702  0.0356
    1Sil    Sib 1404   0.926   0.719  10.716 -0.2172 -0.2836  0.3185
    1Sil    Sib 1405   1.452   0.730  11.100  0.0277 -0.1186  0.0872
    1Sil    Sib 1406   1.210   0.676  10.307  0.3991  0.1067  0.0751
    1Sil    Sib 1407   1.169   0.725  11.201 -0.5579 -0.2374  0.4781
    1Sil    Sib 1408   0.929   0.729  10.419  0.1530 -0.1922  0.0521
    1Sil    Sib 1409   1.474   0.665  10.804  0.2357 -0.3288  0.2537
    1Sil    Sib 1410   1.090   0.475  10.776  0.4142 -0.3565  0.1966
    1Sil    Sib 1411   1.624   0.481  11.169 -0.0782 -0.1748  0.1477
    1Sil    Sib 1412   1.375   0.426  10.367 -0.4023 -0.0181 -0.0364
    1Sil    Sib 1413   1.602   0.473  11.464 -0.1090  0.2313  0.0794
    1Sil    Sib 1414   1.026   0.466  12.262  0.0297 -0.3822  0.2936
    1Sil    Sib 1415   1.308   0.416  11.852 -0.1838  0.6527  0.1851
    1Sil    Sib 1416   0.872   0.714  11.889  0.3779  0.0788  0.0583
    1Sil    Sib 1417   1.401   0.725  12.291  0.1589  0.2413 -0.3200
    1Sil    Sib 1418   1.157   0.661  11.489  0.3096  0.3526  0.0678
    1Sil    Sim 1419   1.121   0.709  12.405  0.3443  0.3426 -0.1523
    1Sil    Sib 1420   0.881   0.715  11.597 -0.1878  0.0595  0.3709
    1Sil    Sib 1421   1.414   0.663  11.997  0.0928  0.0051 -0.0500
    1Sil    Sib 1422   1.029   0.465  11.959  0.0862  0.3454  0.0760
    1Sil    Sib 1423   1.566   0.474  12.353 -0.1114 -0.0564  0.4693
    1Sil    Sib 1424   1.322   0.415  11.552 -0.0218  0.4803 -0.2175
    1Sil    Sim 1425   1.665   0.969  10.264  0.4112  0.1210  0.4905
    1Sil    Sib 1426   1.063   0.966  11.057 -0.5808  0.0333 -0.2433
    1Sil    Sib 1427   1.370   0.919  10.661 -0.2508  0.1692  0.5111
    1Sil    Sib 1428   0.916   1.209  10.713 -0.0220 -0.4353 -0.5571
    1Sil    Sib 1429   1.470   1.212  11.107  0.0281 -0.1942  0.0849
    1Sil    Sib 1430   1.211   1.161  10.316 -0.1113 -0.3011  0.1909
    1Sil    Sib 1431   1.181   1.211  11.194 -0.1783  0.6569  0.6020
    1Sil    Sib 1432   0.935   1.214  10.424 -0.1373 -0.1567  0.0130
    1Sil    Sib 1433   1.474   1.158  10.811  0.1707  0.0257  0.2993
    1Sil    Sib 1434   1.086   0.967  10.759 -0.0062 -0.1578 -0.0873
    1Sil    Sib 1435   1.628   0.976  11.170 -0.3127 -0.3197 -0.1212
    1Sil    Sib 1436   1.380   0.916  10.358  0.4030 -0.2753  0.2455
    1Sil    Sib 1437   1.610   0.961  11.464  0.4039  0.1359 -0.3498
    1Sil    Sib 1438   1.027   0.954  12.253 -0.0504 -0.0944  0.4549
    1Sil    Sib 1439   1.310   0.919  11.862 -0.4644  0.1606  0.1128
    1Sil    Sib 1440   0.861   1.212  11.907 -0.4624  0.1501 -0.2124
    1Sil    Sib 1441   1.413   1.211  12.290  0.7029 -0.1608 -0.0496
    1Sil    Sib 1442   1.161   1.163  11.507 -0.1689 -0.7665  0.0272
    1Sil    Sim 1443   1.138   1.208  12.389 -0.5100 -0.0324 -0.3267
    1Sil    Sib 1444   0.887   1.220  11.605 -0.1586  0.2697 -0.2747
    1Sil    Sib 1445   1.428   1.163  12.001  0.1819  0.1174 -0.0235
    1Sil    Sib 1446   1.028   0.968  11.964 -0.4896  0.6901  0.2229
    1Sil    Sib 1447   1.573   0.960  12.345  0.7174  0.2503  0.0434
    1Sil    Sib 1448   1.327   0.909  11.562  0.3477 -0.1349 -0.0315
    1Sil    Sim 1449   1.662   1.467  10.273  0.3727 -0.3008  0.1007
    1Sil    Sib 1450   1.074   1.468  11.066 -0.1092 -0.3529 -0.3342
    1Sil    Sib 1451   1.359   1.411  10.677  0.2443 -0.3996 -0.4277
    1Sil    Sib 1452   0.909   1.703  10.702 -0.1622  0.0015  0.2606
    1Sil    Sib 1453   1.449   1.709  11.104 -0.0950 -0.3084 -0.1971
    1Sil    Sib 1454   1.212   1.652  10.300  0.0296 -0.2363  0.2471
    1Sil    Sib 1455   1.170   1.717  11.211 -0.5731 -0.5258  0.1958
    1Sil    Sib 1456   0.931   1.706  10.397  0.1067  0.2672 -0.2028
    1Sil    Sib 1457   1.465   1.651  10.805 -0.0078  0.1025  0.4028
    1Sil    Sib 1458   1.076   1.463  10.767  0.1180 -0.1788  0.5950
    1Sil    Sib 1459   1.623   1.462  11.166  0.3469  0.4161  0.1037
    1Sil    Sib 1460   1.381   1.409  10.373  0.0383  0.1160  0.1061
    1Sil    Sib 1461   1.594   1.462  11.464 -0.5637  0.1290  0.2581
    1Sil    Sib 1462   1.034   1.461  12.261  0.2402  0.2763  0.2239
    1Sil    Sib 1463   1.316   1.409  11.862  0.0962 -0.0653  0.5957
    1Sil    Sib 1464   0.869   1.704  11.912 -0.5292 -0.0062 -0.0279
    1Sil    Sib 1465   1.406   1.706  12.304 -0.4268  0.1711  0.2983
    1Sil    Sib 1466   1.155   1.658  11.513 -0.1373  0.1616  0.2411
    1Sil    Sib 1467   1.129   1.710  12.402  0.0520 -0.8641  0.5792
    1Sil    Sib 1468   0.875   1.705  11.615 -0.2979 -0.2180 -0.1836
    1Sil    Sib 1469   1.418   1.658  12.007 -0.2903 -0.2188  0.0926
    1Sil    Sib 1470   1.031   1.454  11.964  0.1850 -0.0004  0.3554
    1Sil    Sim 1471   1.569   1.457  12.363 -0.3241  0.1443 -0.0030
    1Sil    Sib 1472   1.314   1.413  11.560  0.0711 -0.4714 -0.3408
    1Sil    Sib 1473   1.653   1.961  10.281 -0.9544  0.1372  0.1370
    1Sil    Sib 1474   1.061   1.963  11.067 -0.0358 -0.2075 -0.6824
    1Sil    Sib 1475   1.340   1.900  10.658  0.2011 -0.0395 -0.0818
    1Sil    Sib 1476   0.914   2.211  10.710  0.0194  0.0634 -0.1420
    1Sil    Sib 1477   1.457   2.201  11.102  0.0821 -0.4062 -0.2235
    1Sil    Sib 1478   1.203   2.154  10.318  0.0548 -0.3024  0.1426
    1Sil    Sib 1479   1.178   2.200  11.210 -0.1686  0.5142 -0.1319
    1Sil    Sib 1480   0.924   2.208  10.415  0.5534  0.4319  0.1929
    1Sil    Sib 1481   1.459   2.146  10.802 -0.2652 -0.1258 -0.2389
    1Sil    Sib 1482   1.063   1.946  10.762  0.2929  0.5016  0.2383
    1Sil    Sib 1483   1.617   1.956  11.163 -0.4742  0.2154  0.2505
    1Sil    Sib 1484   1.375   1.902  10.357  0.1304  0.0740  0.0490
    1Sil    Sib 1485   1.610   1.940  11.468 -0.3119 -0.1367 -0.0663
    1Sil    Sib 1486   1.030   1.959  12.263  0.2924  0.0764  0.4022
    1Sil    Sib 1487   1.313   1.897  11.860  0.1004  0.0658 -0.3571
    1Sil    Sib 1488   0.878   2.197  11.905  0.0831 -0.2076  0.3895
    1Sil    Sib 1489   1.416   2.202  12.308 -0.1453 -0.0821 -0.0267
    1Sil    Sib 1490   1.170   2.142  11.509 -0.2977 -0.0750 -0.2692
    1Sil    Sib 1491   1.136   2.200  12.403  0.1834 -0.2067  0.7357
    1Sil    Sib 1492   0.894   2.189  11.603  0.0102 -0.1720  0.4546
    1Sil    Sib 1493   1.423   2.144  12.001  0.2026  0.3612 -0.1962
    1Sil    Sib 1494   1.033   1.945  11.969  0.2098  0.0322  0.5859
    1Sil    Sim 1495   1.573   1.947  12.372 -0.0284  0.7071 -0.1394
    1Sil    Sib 1496   1.328   1.898  11.572  0.3219 -1.1306 -0.0266
    1Sil    Sib 1497   1.659   2.452  10.278  0.6196 -0.2303  0.4454
    1Sil    Sib 1498   1.071   2.454  11.073  0.3788 -0.5141 -0.4343
    1Sil    Sib 1499   1.373   2.404  10.677  0.0999  0.0989 -0.2219
    1Sil    Sib 1500   0.918   2.684  10.711 -0.2923 -0.6208 -0.0847
    1Sil    Sib 1501   1.452   2.694  11.111  0.2510 -0.4139 -0.0811
    1Sil    Sib 1502   1.203   2.653  10.308 -0.1607  0.2617  0.0854
    1Sil    Sib 1503   1.177   2.695  11.208 -0.1051 -0.6524  0.5680
    1Sil    Sib 1504   0.927   2.699  10.409  0.0907  0.5665 -0.3584
    1Sil    Sib 1505   1.476   2.650  10.815  0.2303  0.2046 -0.4556
    1Sil    Sib 1506   1.087   2.450  10.777  0.0413  0.4391 -0.5361
    1Sil    Sib 1507   1.612   2.449  11.156  0.0170 -0.2829 -0.0039
    1Sil    Sib 1508   1.371   2.410  10.371 -0.0653  0.4274 -0.1718
    1Sil    Sib 1509   1.608   2.447  11.458 -0.2684 -0.0710 -0.0163
    1Sil    Sib 1510   1.025   2.443  12.267  0.0973  0.1473 -0.0162
    1Sil    Sib 1511   1.324   2.387  11.859 -0.5516  0.4088  0.2736
    1Sil    Sib 1512   0.874   2.684  11.907 -0.1593  0.1212 -0.2633
    1Sil    Sib 1513   1.416   2.686  12.298  0.5382 -0.0031  0.1550
    1Sil    Sib 1514   1.166   2.641  11.499  0.3471 -0.3422 -0.0598
    1Sil    Sim 1515   1.131   2.687  12.409 -0.2316 -0.6523  0.5192
    1Sil    Sib 1516   0.885   2.677  11.609  0.5110 -0.5229 -0.2375
    1Sil    Sib 1517   1.421   2.629  12.005 -0.0937  0.3693  0.1784
    1Sil    Sib 1518   1.041   2.438  11.962 -0.4414  0.3186  0.6918
    1Sil    Sim 1519   1.581   2.441  12.369 -0.3087  0.5246 -0.2429
    1Sil    Sib 1520   1.329   2.398  11.562  0.3115  0.3047  0.0429
    1Sil    Sib 1521   1.647   2.946  10.275  0.0705 -0.0983 -0.1228
    1Sil    Sib 1522   1.070   2.936  11.070  0.3520  0.2353 -0.3304
    1Sil    Sib 1523   1.358   2.888  10.673  0.2738 -0.3757 -0.5131
    1Sil    Sib 1524   0.924   3.174  10.705 -0.3054 -0.1168 -0.1005
    1Sil    Sib 1525   1.460   3.181  11.108  0.3626 -0.0912  0.4146
    1Sil    Sib 1526   1.210   3.137  10.315  0.5352 -0.1342 -0.2103
    1Sil    Sib 1527   1.179   3.189  11.201 -0.0820 -0.3663 -0.1181
    1Sil    Sib 1528   0.931   3.196  10.404 -0.1393 -0.1229 -0.0505
    1Sil    Sib 1529   1.467   3.138  10.807  0.2943  0.3548 -0.1248
    1Sil    Sib 1530   1.081   2.932  10.768  0.3100 -0.1671  0.3241
    1Sil    Sib 1531   1.619   2.936  11.177 -0.0345  0.3291  0.3338
    1Sil    Sib 1532   1.371   2.894  10.377 -0.2193 -0.0687 -0.1942
    1Sil    Sib 1533   1.608   2.935  11.477 -0.1614 -0.0839 -0.4526
    1Sil    Sib 1534   1.024   2.937  12.267 -0.5703  0.0385  0.3224
    1Sil    Sib 1535   1.315   2.881  11.866  0.7382  0.3543 -0.2948
    1Sil    Sib 1536   0.874   3.181  11.898  0.3859 -0.3222  0.3372
    1Sil    Sib 1537   1.402   3.182  12.298 -0.1778  0.0298 -0.6741
    1Sil    Sib 1538   1.165   3.132  11.506 -0.3747 -0.2786 -0.1997
    1Sil    Sib 1539   1.125   3.188  12.408  0.0894  0.0120 -0.3160
    1Sil    Sib 1540   0.882   3.175  11.600 -0.2663 -0.1629  0.0046
    1Sil    Sib 1541   1.412   3.125  12.012 -0.2576 -0.0943  0.0412
    1Sil    Sib 1542   1.039   2.936  11.963 -0.0022 -0.0064 -0.2474
    1Sil    Sib 1543   1.569   2.945  12.349  0.4910 -0.0312 -0.4201
    1Sil    Sib 1544   1.325   2.886  11.560 -0.2867 -0.5278  0.1251
    1Sil    Sib 1545   1.654   3.440  10.260 -0.5094  0.3895 -0.0937
    1Sil    Sib 1546   1.072   3.435  11.061 -0.0441 -0.1046 -0.0604
    1Sil    Sib 1547   1.365   3.371  10.660 -0.1364  0.0122  0.2514
    1Sil    Sib 1548   0.920   0.237  10.707  0.5817  0.1804  0.2526
    1Sil    Sib 1549   1.454   0.231  11.106 -0.5859 -0.1249  0.1750
    1Sil    Sib 1550   1.215   0.190  10.293  0.0370  0.2627  0.3993
    1Sil    Sib 1551   1.177   0.223  11.209  0.3755 -0.1803  0.4574
    1Sil    Sib 1552   0.941   0.238  10.405 -0.1896  0.1315 -0.2538
    1Sil    Sib 1553   1.469   0.169  10.809 -0.2550 -0.0002  0.1832
    1Sil    Sib 1554   1.081   3.429  10.762  0.0204 -0.0085 -0.1989
    1Sil    Sib 1555   1.618   3.427  11.163  0.3311  0.2404 -0.1635
    1Sil    Sib 1556   1.373   3.386  10.352 -0.3408  0.3069 -0.5276
    1Sil    Sib 1557   1.605   3.436  11.472 -0.0190  0.6243 -0.2582
    1Sil    Sib 1558   1.020   3.428  12.261  0.1736 -0.5243  0.0401
    1Sil    Sib 1559   1.310   3.369  11.868 -0.2792 -0.0046 -0.2897
    1Sil    Sib 1560   0.870   0.221  11.909  0.0496 -0.1076  0.3532
    1Sil    Sib 1561   1.412   0.225  12.289 -0.0125 -0.1201  0.1492
    1Sil    Sib 1562   1.156   0.165  11.507 -0.4279 -0.3093 -0.1032
    1Sil    Sib 1563   1.139   0.218  12.394 -0.4197  0.2269  0.0654
    1Sil    Sib 1564   0.878   0.221  11.605 -0.0012 -0.3104 -0.0756
    1Sil    Sib 1565   1.426   0.165  11.992  0.6219  0.0133 -0.1927
    1Sil    Sib 1566   1.034   3.430  11.960  0.2515  0.1340  0.4200
    1Sil    Sib 1567   1.567   3.426  12.364  0.0330  0.3776  0.2080
    1Sil    Sib 1568   1.329   3.372  11.570  0.0209  0.7725 -0.3680
    1Sil    Sib 1569   2.497   0.470  10.280 -0.3001  0.5655 -0.7191
    1Sil    Sib 1570   1.908   0.471  11.067  0.4442 -0.1945 -0.4284
    1Sil    Sib 1571   2.190   0.423  10.667 -0.1281 -0.0406 -0.1245
    1Sil    Sib 1572   1.756   0.714  10.710 -0.3600  0.0646 -0.1089
    1Sil    Sib 1573   2.285   0.730  11.111 -0.1001  0.1847 -0.1856
    1Sil    Sim 1574   2.055   0.669  10.310  0.3854  0.1594  0.0732
    1Sil    Sib 1575   2.006   0.723  11.207 -0.2530  0.5353  0.1431
    1Sil    Sib 1576   1.768   0.714  10.406  0.0428  0.0076  0.3708
    1Sil    Sib 1577   2.295   0.668  10.809 -0.2317 -0.2188  0.0998
    1Sil    Sib 1578   1.908   0.468  10.771 -0.4216  0.2415  0.3842
    1Sil    Sib 1579   2.446   0.478  11.158  0.3926 -0.0657 -0.4432
    1Sil    Sib 1580   2.212   0.422  10.375  0.1072 -0.0386  0.1157
    1Sil    Sib 1581   2.440   0.467  11.465 -0.1380 -0.0897 -0.2919
    1Sil    Sib 1582   1.848   0.470  12.256  0.4149  0.3812 -0.1911
    1Sil    Sib 1583   2.144   0.427  11.855 -0.0251 -0.0536 -0.1592
    1Sil    Sib 1584   1.693   0.720  11.906 -0.1541 -0.2258  0.0419
    1Sil    Sib 1585   2.228   0.730  12.288 -0.0001 -0.2951 -0.2363
    1Sil    Sib 1586   1.992   0.655  11.498 -0.3937  0.0736  0.0940
    1Sil    Sim 1587   1.952   0.722  12.385  0.2882  0.3327 -0.3327
    1Sil    Sib 1588   1.708   0.711  11.610  0.3010 -0.2689 -0.0364
    1Sil    Sib 1589   2.251   0.670  12.000  0.0677 -0.5563  0.4303
    1Sil    Sib 1590   1.861   0.472  11.955  0.3086  0.2328 -0.1425
    1Sil    Sib 1591   2.393   0.481  12.340  0.0950  0.0020  0.1430
    1Sil    Sib 1592   2.154   0.412  11.553  0.2911 -0.1624  0.4157
    1Sil    Sib 1593   2.501   0.969  10.277 -0.0254 -0.2988 -0.2167
    1Sil    Sib 1594   1.904   0.969  11.068  0.2556 -0.0901 -0.0485
    1Sil    Sib 1595   2.195   0.921  10.666  0.6153  0.0439  0.0883
    1Sil    Sib 1596   1.755   1.211  10.714  0.1416  0.2140 -0.2888
    1Sil    Sib 1597   2.296   1.216  11.113 -0.0455 -0.0197  0.2196
    1Sil    Sib 1598   2.045   1.161  10.299  0.0432 -0.2496 -0.2278
    1Sil    Sib 1599   2.014   1.211  11.210  0.4116  0.0090 -0.2208
    1Sil    Sib 1600   1.774   1.215  10.410 -0.2145  0.1366  0.8464
    1Sil    Sib 1601   2.300   1.158  10.818 -0.3680  0.4852 -0.2789
    1Sil    Sib 1602   1.915   0.965  10.771 -0.1848  0.0581 -0.4299
    1Sil    Sib 1603   2.452   0.971  11.169 -0.1213  0.1162 -0.1105
    1Sil    Sib 1604   2.216   0.915  10.365 -0.4569  0.0844  0.0012
    1Sil    Sib 1605   2.437   0.963  11.468 -0.3429 -0.2722  0.2364
    1Sil    Sib 1606   1.850   0.968  12.252  0.2601  0.0544 -0.3799
    1Sil    Sib 1607   2.144   0.910  11.850 -0.1506 -0.2399  0.0576
    1Sil    Sib 1608   1.708   1.217  11.902  0.0736  0.4422 -0.1719
    1Sil    Sib 1609   2.228   1.219  12.296 -0.0546 -0.2426  0.0196
    1Sil    Sib 1610   1.996   1.153  11.505  0.4124  0.6484  0.1355
    1Sil    Sib 1611   1.947   1.207  12.398 -0.2404 -0.3773 -0.7899
    1Sil    Sib 1612   1.712   1.208  11.598  0.4751  0.2217  0.9315
    1Sil    Sib 1613   2.250   1.154  11.990 -0.4439 -0.6136 -0.3575
    1Sil    Sib 1614   1.866   0.960  11.955 -0.1956 -0.3718  0.1093
    1Sil    Sib 1615   2.395   0.972  12.347  0.0663 -0.0293  0.5413
    1Sil    Sib 1616   2.158   0.902  11.551  0.1602  0.0457  0.1736
    1Sil    Sib 1617   2.481   1.462  10.276  0.1829  0.1294 -0.0472
    1Sil    Sib 1618   1.916   1.460  11.068 -0.2631  0.1757  0.1268
    1Sil    Sib 1619   2.201   1.402  10.672 -0.2853  0.1413  0.1524
    1Sil    Sib 1620   1.756   1.697  10.704 -0.5109  0.3585  0.1785
    1Sil    Sib 1621   2.290   1.706  11.111 -0.2501  0.2856 -0.1852
    1Sil    Sib 1622   2.047   1.650  10.316 -0.2896  0.3305 -0.6339
    1Sil    Sib 1623   2.003   1.707  11.211 -0.3490  0.4459  0.0165
    1Sil    Sib 1624   1.764   1.709  10.399  0.3022  0.5484 -0.1004
    1Sil    Sib 1625   2.303   1.659  10.806 -0.4791 -0.4737 -0.0683
    1Sil    Sib 1626   1.921   1.458  10.772  0.1532 -0.1096  0.0141
    1Sil    Sib 1627   2.452   1.465  11.171 -0.2207  0.3859 -0.5942
    1Sil    Sib 1628   2.208   1.406  10.363 -0.0960 -0.1074 -0.0425
    1Sil    Sib 1629   2.442   1.462  11.466 -0.1523 -0.0139 -0.1363
    1Sil    Sib 1630   1.855   1.462  12.271 -0.1480 -0.3161 -0.0750
    1Sil    Sib 1631   2.139   1.403  11.855 -0.1746  0.0450 -0.6473
    1Sil    Sib 1632   1.697   1.710  11.914 -0.3271  0.0828 -0.0233
    1Sil    Sib 1633   2.241   1.708  12.301  0.3759  0.1648  0.2152
    1Sil    Sib 1634   1.996   1.650  11.503  0.2011 -0.2865  0.1440
    1Sil    Sib 1635   1.973   1.708  12.414  0.0162  0.4278  0.3156
    1Sil    Sib 1636   1.713   1.704  11.601  0.0845  0.0484  0.2720
    1Sil    Sib 1637   2.251   1.656  11.995 -0.1521  0.1230  0.1193
    1Sil    Sib 1638   1.864   1.467  11.964 -0.2713  0.1550  0.2015
    1Sil    Sib 1639   2.403   1.466  12.352 -0.3590  0.0271 -0.2967
    1Sil    Sib 1640   2.159   1.401  11.552 -0.1243  0.2874  0.0655
    1Sil    Sib 1641   2.491   1.964  10.283  0.0581 -0.3199  0.0881
    1Sil    Sib 1642   1.896   1.945  11.065  0.2735 -0.3139  0.1456
    1Sil    Sib 1643   2.202   1.904  10.677  0.1877 -0.4162 -0.3300
    1Sil    Sib 1644   1.748   2.192  10.714 -0.4827 -0.4406  0.3123
    1Sil    Sib 1645   2.283   2.204  11.105  0.0580  0.2523 -0.0255
    1Sil    Sim 1646   2.042   2.149  10.309 -0.0639 -0.2495 -0.1698
    1Sil    Sib 1647   1.989   2.197  11.203  0.0750 -0.1862 -0.4064
    1Sil    Sib 1648   1.762   2.206  10.416  0.3368  0.2082 -0.1272
    1Sil    Sib 1649   2.306   2.147  10.812  0.2729  0.0583  0.4496
    1Sil    Sib 1650   1.915   1.943  10.765 -0.1515 -0.2906  0.0335
    1Sil    Sib 1651   2.447   1.962  11.171  0.1226 -0.2178 -0.4280
    1Sil    Sib 1652   2.209   1.903  10.375 -0.2669 -0.2843  0.1450
    1Sil    Sib 1653   2.437   1.951  11.461  0.5164  0.4562 -0.0192
    1Sil    Sib 1654   1.851   1.950  12.280 -0.3392 -0.3459 -0.0076
    1Sil    Sib 1655   2.146   1.901  11.858  0.2942  0.3882  0.3958
    1Sil    Sib 1656   1.699   2.184  11.910 -0.4048 -0.4219 -0.4466
    1Sil    Sib 1657   2.242   2.192  12.306  0.1434 -0.1512 -0.0293
    1Sil    Sib 1658   1.979   2.134  11.496  0.1277 -0.2067 -0.6127
    1Sil    Sim 1659   1.966   2.201  12.418 -0.0309  0.0749  0.1449
    1Sil    Sib 1660   1.699   2.192  11.609  0.0236  0.3658 -0.0511
    1Sil    Sib 1661   2.257   2.139  12.002 -0.1672 -0.5012  0.1845
    1Sil    Sib 1662   1.870   1.941  11.979  0.2877  0.0085 -0.2399
    1Sil    Sib 1663   2.394   1.954  12.359 -0.1732  0.2359 -0.0860
    1Sil    Sib 1664   2.155   1.898  11.558 -0.2625 -0.2375 -0.2685
    1Sil    Sim 1665   2.474   2.456  10.277  0.6632 -0.2331  0.2258
    1Sil    Sib 1666   1.897   2.446  11.064  0.0737 -0.0524 -0.0577
    1Sil    Sib 1667   2.182   2.385  10.666 -0.0094 -0.0953  0.4095
    1Sil    Sib 1668   1.748   2.700  10.707 -0.0743 -0.0700 -0.1701
    1Sil    Sib 1669   2.284   2.693  11.092 -0.0120  0.3765 -0.3109
    1Sil    Sim 1670   2.039   2.645  10.299 -0.0804  0.2476  0.2546
    1Sil    Sib 1671   2.000   2.695  11.197 -0.1962 -0.2586  0.0985
    1Sil    Sib 1672   1.754   2.701  10.409  0.0956 -0.2851 -0.1352
    1Sil    Sib 1673   2.297   2.645  10.800  0.1523  0.1271 -0.3069
    1Sil    Sib 1674   1.904   2.447  10.770 -0.3637  0.3520  0.1558
    1Sil    Sib 1675   2.443   2.454  11.162 -0.0606  0.3749 -0.0560
    1Sil    Sib 1676   2.197   2.399  10.372  0.3648  0.3297  0.3336
    1Sil    Sib 1677   2.431   2.439  11.464  0.1344  0.0671  0.3086
    1Sil    Sib 1678   1.859   2.441  12.268 -0.0001 -0.0216  0.2604
    1Sil    Sib 1679   2.148   2.381  11.858 -0.3287 -0.5064  0.3256
    1Sil    Sib 1680   1.700   2.690  11.909  0.2222 -0.1067  0.1458
    1Sil    Sib 1681   2.241   2.684  12.290 -0.0377  0.2249 -0.1219
    1Sil    Sib 1682   1.984   2.635  11.495 -0.1220  0.1692  0.6136
    1Sil    Sib 1683   1.955   2.699  12.392 -0.6630 -0.4067 -0.1175
    1Sil    Sib 1684   1.707   2.689  11.612 -0.4418  0.0219 -0.1105
    1Sil    Sib 1685   2.242   2.632  11.995 -0.2248  0.2301 -0.1211
    1Sil    Sib 1686   1.865   2.435  11.964  0.1466 -0.3625 -0.1089
    1Sil    Sim 1687   2.403   2.436  12.365 -0.0190  0.1150  0.1692
    1Sil    Sib 1688   2.149   2.383  11.554  0.3865 -0.0474 -0.5360
    1Sil    Sib 1689   2.490   2.940  10.279 -0.4176  0.2877  0.2496
    1Sil    Sib 1690   1.894   2.935  11.057 -0.1051 -0.6549 -0.2574
    1Sil    Sib 1691   2.198   2.889  10.660 -0.2880 -0.2963 -0.1745
    1Sil    Sib 1692   1.746   3.185  10.705 -0.1080  0.0219  0.0913
    1Sil    Sib 1693   2.286   3.185  11.109  0.1827  0.1646 -0.0919
    1Sil    Sib 1694   2.041   3.122  10.299  0.2568  0.3072  0.0088
    1Sil    Sib 1695   2.003   3.179  11.199  0.5182  0.1259  0.3419
    1Sil    Sib 1696   1.766   3.195  10.398 -0.3956  0.1448  0.2592
    1Sil    Sib 1697   2.299   3.130  10.805  0.0092 -0.3478 -0.1032
    1Sil    Sib 1698   1.917   2.945  10.759 -0.0060  0.3872 -0.2813
    1Sil    Sib 1699   2.442   2.941  11.156 -0.2566  0.3632  0.8171
    1Sil    Sib 1700   2.206   2.880  10.360 -0.0330 -0.2617 -0.3734
    1Sil    Sib 1701   2.424   2.939  11.461 -0.1830  0.4204 -0.5848
    1Sil    Sib 1702   1.854   2.940  12.261 -0.1722  0.1004  0.3553
    1Sil    Sib 1703   2.119   2.876  11.857  0.0784 -0.0669  0.1684
    1Sil    Sib 1704   1.702   3.180  11.911 -0.2547 -0.0833  0.2268
    1Sil    Sib 1705   2.247   3.182  12.287  0.2155  0.1571 -0.1063
    1Sil    Sib 1706   1.975   3.123  11.501 -0.0112  0.3351 -0.1483
    1Sil    Sib 1707   1.970   3.182  12.391  0.1198 -0.3038  0.1941
    1Sil    Sib 1708   1.703   3.191  11.613  0.0373 -0.1226 -0.1384
    1Sil    Sib 1709   2.256   3.114  11.992  0.1145  0.2673  0.5571
    1Sil    Sib 1710   1.851   2.935  11.963  0.5591 -0.0661 -0.2871
    1Sil    Sib 1711   2.407   2.934  12.344 -0.2741  0.3843 -0.2304
    1Sil    Sib 1712   2.147   2.881  11.556 -0.1908 -0.2413 -0.4441
    1Sil    Sib 1713   2.492   3.434  10.266  0.5581 -0.4042 -0.1026
    1Sil    Sib 1714   1.904   3.428  11.068  0.3148 -0.0498  0.5757
    1Sil    Sib 1715   2.183   3.373  10.656 -0.0556  0.0046  0.8096
    1Sil    Sib 1716   1.746   0.224  10.708  0.2155  0.2397 -0.3499
    1Sil    Sib 1717   2.289   0.224  11.098 -0.1780 -0.1060  0.4874
    1Sil    Sim 1718   2.047   0.173  10.306  0.0630 -0.0791 -0.3950
    1Sil    Sib 1719   2.009   0.215  11.205 -0.2594 -0.0322  0.2930
    1Sil    Sib 1720   1.761   0.227  10.411 -0.0216  0.5985  0.2539
    1Sil    Sib 1721   2.295   0.171  10.801 -0.0201  0.1028  0.1428
    1Sil    Sib 1722   1.908   3.427  10.768  0.0309 -0.2345 -0.1549
    1Sil    Sib 1723   2.456   3.424  11.159  0.3329 -0.2176  0.1564
    1Sil    Sib 1724   2.202   3.375  10.354 -0.0470  0.1904  0.1794
    1Sil    Sib 1725   2.426   3.421  11.451 -0.2065 -0.2712 -0.1525
    1Sil    Sib 1726   1.861   3.431  12.257  0.1404  0.1317 -0.0600
    1Sil    Sib 1727   2.148   3.369  11.851 -0.4876 -0.1458  0.3213
    1Sil    Sib 1728   1.703   0.222  11.892  0.3431  0.4826 -0.0370
    1Sil    Sib 1729   2.233   0.230  12.294  0.0549 -0.0219 -0.1168
    1Sil    Sib 1730   2.001   0.174  11.497 -0.1539  0.1207  0.2312
    1Sil    Sim 1731   1.963   0.226  12.400  0.1107  0.7209  0.1192
    1Sil    Sib 1732   1.721   0.231  11.595  0.0374  0.2306 -0.3075
    1Sil    Sib 1733   2.249   0.173  11.996 -0.2616  0.0701 -0.0288
    1Sil    Sib 1734   1.863   3.422  11.955 -0.6847 -0.1550 -0.2762
    1Sil    Sib 1735   2.394   3.436  12.354 -0.3891  0.0486 -0.0612
    1Sil    Sib 1736   2.148   3.367  11.551  0.5989  0.1204  0.2876
    1Sil    Sim 1737   3.316   0.483  10.259  0.2977 -0.2685 -0.0849
    1Sil    Sib 1738   2.736   0.474  11.067  0.1352 -0.4767  0.1192
    1Sil    Sib 1739   3.030   0.414  10.663 -0.6821  0.0649  0.4506
    1Sil    Sib 1740   2.582   0.727  10.715  0.2402  0.1172  0.0603
    1Sil    Sib 1741   3.124   0.716  11.097  0.2346 -0.7616  0.0614
    1Sil    Sib 1742   2.870   0.673  10.308  0.0140 -0.0817 -0.0775
    1Sil    Sib 1743   2.837   0.722  11.198 -0.3303 -0.1584 -0.0297
    1Sil    Sib 1744   2.589   0.728  10.415 -0.2351 -0.0847 -0.0468
    1Sil    Sib 1745   3.135   0.658  10.801  0.0788 -0.3261 -0.0955
    1Sil    Sib 1746   2.748   0.481  10.765 -0.5407  0.0655 -0.2288
    1Sil    Sib 1747   3.285   0.463  11.179  0.1842 -0.3864 -0.3659
    1Sil    Sib 1748   3.035   0.424  10.368 -0.4010  0.0962 -0.4641
    1Sil    Sib 1749   3.268   0.471  11.475  0.2650  0.0188 -0.2214
    1Sil    Sib 1750   2.687   0.466  12.247  0.4711  0.0437 -0.0378
    1Sil    Sib 1751   2.979   0.418  11.860 -0.2150  0.0318  0.2023
    1Sil    Sib 1752   2.532   0.713  11.901 -0.0418  0.3088  0.0142
    1Sil    Sib 1753   3.083   0.724  12.301 -0.1265  0.0769 -0.0881
    1Sil    Sib 1754   2.827   0.674  11.498  0.3461 -0.3736  0.3247
    1Sil    Sib 1755   2.791   0.723  12.378 -0.3651  0.2576  0.3433
    1Sil    Sib 1756   2.540   0.717  11.603  0.2346  0.0737  0.1769
    1Sil    Sib 1757   3.096   0.660  12.002 -0.3475 -0.0183 -0.1407
    1Sil    Sib 1758   2.696   0.465  11.953 -0.2930 -0.0063  0.2793
    1Sil    Sim 1759   3.238   0.470  12.361  0.1291  0.0973  0.5508
    1Sil    Sib 1760   2.988   0.424  11.561  0.2656 -0.1586  0.6584
    1Sil    Sim 1761   3.321   0.964  10.267 -0.0471  0.1400 -0.0971
    1Sil    Sib 1762   2.723   0.962  11.066  0.1125  0.0717 -0.1061
    1Sil    Sib 1763   3.026   0.907  10.674 -0.6566  0.1202 -0.1379
    1Sil    Sib 1764   2.583   1.214  10.709  0.1591 -0.2506 -0.0243
    1Sil    Sib 1765   3.124   1.212  11.097 -0.1318  0.2254  0.3533
    1Sil    Sim 1766   2.868   1.162  10.312  0.0734 -0.0484 -0.2436
    1Sil    Sib 1767   2.837   1.219  11.200 -0.2715 -0.0917  0.0552
    1Sil    Sib 1768   2.592   1.212  10.416  0.3740  0.2251 -0.2350
    1Sil    Sib 1769   3.134   1.158  10.804 -0.6237  0.1321  0.2235
    1Sil    Sib 1770   2.745   0.967  10.766  0.2049 -0.2314 -0.3270
    1Sil    Sib 1771   3.274   0.963  11.162  0.0831 -0.0878  0.0262
    1Sil    Sib 1772   3.031   0.917  10.374 -0.4024 -0.8172 -0.0473
    1Sil    Sib 1773   3.268   0.958  11.457  0.2396  0.8224 -0.1668
    1Sil    Sib 1774   2.684   0.973  12.245 -0.4002 -0.3449 -0.4831
    1Sil    Sib 1775   2.982   0.913  11.864  0.3962  0.2300 -0.0173
    1Sil    Sib 1776   2.536   1.215  11.898  0.3465  0.2299 -0.0995
    1Sil    Sib 1777   3.075   1.222  12.290 -0.4095  0.0939 -0.7478
    1Sil    Sib 1778   2.829   1.167  11.502 -0.5080  0.0943 -0.2649
    1Sil    Sib 1779   2.802   1.212  12.395  0.5684  0.0441  0.0606
    1Sil    Sib 1780   2.543   1.212  11.597 -0.1226 -0.1150  0.1735
    1Sil    Sib 1781   3.094   1.162  12.000  0.1282  0.1487  0.0487
    1Sil    Sib 1782   2.696   0.957  11.940  0.2681 -0.0363 -0.4482
    1Sil    Sim 1783   3.247   0.979  12.354 -0.1258  0.4639  0.2121
    1Sil    Sib 1784   2.992   0.913  11.563  0.9295  0.1837 -0.6685
    1Sil    Sib 1785   3.317   1.461  10.276 -0.1959 -0.2176  0.0158
    1Sil    Sib 1786   2.736   1.473  11.069  0.1981  0.5223  0.4203
    1Sil    Sib 1787   3.032   1.402  10.661 -0.2933  0.1071  0.2613
    1Sil    Sib 1788   2.581   1.712  10.712  0.1780  0.0173  0.3161
    1Sil    Sib 1789   3.127   1.706  11.113 -0.1303  0.2975  0.3697
    1Sil    Sim 1790   2.872   1.650  10.305 -0.3588 -0.1983 -0.0539
    1Sil    Sib 1791   2.834   1.718  11.205  0.1625 -0.1911  0.0452
    1Sil    Sib 1792   2.598   1.708  10.412 -0.1184  0.1203 -0.0627
    1Sil    Sib 1793   3.131   1.644  10.812 -0.1831  0.3510  0.0890
    1Sil    Sib 1794   2.745   1.457  10.776 -0.2951 -0.1497 -0.4149
    1Sil    Sib 1795   3.285   1.454  11.176 -0.1508 -0.2887  0.4171
    1Sil    Sib 1796   3.039   1.405  10.361 -0.1394 -0.2378 -0.2800
    1Sil    Sib 1797   3.271   1.453  11.470 -0.3874  0.3000 -0.1525
    1Sil    Sib 1798   2.694   1.465  12.258  0.4163 -0.4061 -0.1549
    1Sil    Sib 1799   2.981   1.408  11.869  0.3827  0.0119 -0.4503
    1Sil    Sib 1800   2.535   1.715  11.904 -0.6543 -0.0399 -0.1713
    1Sil    Sib 1801   3.078   1.716  12.293 -0.0939 -0.4802 -0.3751
    1Sil    Sib 1802   2.823   1.652  11.499  0.2918 -0.0565  0.4797
    1Sil    Sib 1803   2.797   1.710  12.395 -0.0647 -0.2246  0.0333
    1Sil    Sib 1804   2.543   1.705  11.595  0.2134 -0.4404 -0.0380
    1Sil    Sib 1805   3.092   1.660  12.003 -0.7464  0.4219  0.3001
    1Sil    Sib 1806   2.704   1.459  11.967 -0.1227 -0.2110  0.3555
    1Sil    Sib 1807   3.230   1.462  12.354  0.0283  0.3677 -0.2732
    1Sil    Sib 1808   2.988   1.405  11.562  0.2194 -0.5009 -0.3063
    1Sil    Sib 1809   3.304   1.952  10.272  0.3402 -0.0149  0.3458
    1Sil    Sib 1810   2.721   1.963  11.064  0.0472  0.3533 -0.7970
    1Sil    Sib 1811   3.034   1.899  10.680 -0.5134 -0.3350 -0.1939
    1Sil    Sib 1812   2.579   2.211  10.713 -0.2209  0.1645  0.0783
    1Sil    Sib 1813   3.116   2.200  11.107 -0.2368  0.2382  0.0653
    1Sil    Sib 1814   2.866   2.137  10.312  0.5758  0.0517 -0.6473
    1Sil    Sib 1815   2.832   2.205  11.209 -0.2058 -0.5581 -0.0613
    1Sil    Sib 1816   2.596   2.214  10.417 -0.2747 -0.4116 -0.3422
    1Sil    Sib 1817   3.136   2.145  10.818  0.0225 -0.2635 -0.6049
    1Sil    Sib 1818   2.745   1.958  10.772 -0.0735  0.4323 -0.1478
    1Sil    Sib 1819   3.290   1.954  11.159  0.0926 -0.1707 -0.2354
    1Sil    Sib 1820   3.034   1.895  10.383 -0.1654  0.1131 -0.2925
    1Sil    Sib 1821   3.278   1.943  11.458  0.3351 -0.1423 -0.0213
    1Sil    Sib 1822   2.681   1.955  12.268  0.1550  0.1806  0.1242
    1Sil    Sib 1823   2.984   1.901  11.853  0.0364 -0.0117 -0.0889
    1Sil    Sib 1824   2.536   2.197  11.901  0.3406  0.1781  0.2107
    1Sil    Sib 1825   3.073   2.205  12.298 -0.4561 -0.1315 -0.7883
    1Sil    Sib 1826   2.832   2.149  11.504 -0.2430  0.5066 -0.4554
    1Sil    Sib 1827   2.799   2.204  12.398  0.1019 -0.3433  0.1399
    1Sil    Sib 1828   2.548   2.197  11.609  0.2800  0.2162 -0.1518
    1Sil    Sib 1829   3.089   2.144  12.003 -0.5051 -0.1490  0.3952
    1Sil    Sib 1830   2.706   1.952  11.963  0.2799  0.0273  0.2741
    1Sil    Sim 1831   3.237   1.959  12.380  0.0827 -0.3271 -0.2110
    1Sil    Sib 1832   2.994   1.902  11.553 -0.0428 -0.1270 -0.0642
    1Sil    Sib 1833   3.311   2.443  10.280  0.2446 -0.0969 -0.3714
    1Sil    Sib 1834   2.737   2.452  11.067 -0.2859  0.1601 -0.4455
    1Sil    Sib 1835   3.022   2.392  10.677  0.0915  0.3509 -0.4658
    1Sil    Sib 1836   2.580   2.699  10.716 -0.1761  0.3407 -0.2261
    1Sil    Sib 1837   3.117   2.696  11.096 -0.0739 -0.3108 -0.4125
    1Sil    Sim 1838   2.879   2.641  10.316 -0.2144 -0.1926  0.3528
    1Sil    Sib 1839   2.840   2.694  11.205  0.3447 -0.5180 -0.3194
    1Sil    Sib 1840   2.597   2.698  10.416 -0.1292 -0.1235  0.4340
    1Sil    Sib 1841   3.132   2.637  10.804 -0.2284 -0.0334  0.0543
    1Sil    Sib 1842   2.749   2.459  10.775 -0.3419  0.2013  0.4945
    1Sil    Sib 1843   3.278   2.445  11.159  0.1461  0.0617 -0.0545
    1Sil    Sib 1844   3.030   2.386  10.371  0.2415  0.2785 -0.0257
    1Sil    Sib 1845   3.266   2.446  11.462 -0.1229  0.2647  0.0743
    1Sil    Sib 1846   2.686   2.451  12.262  0.0612  0.5587  0.1195
    1Sil    Sib 1847   2.975   2.398  11.872  0.5038 -0.1195 -0.5047
    1Sil    Sib 1848   2.521   2.692  11.900  0.0305 -0.1181 -0.1375
    1Sil    Sib 1849   3.067   2.700  12.303 -0.2683 -0.0970 -0.0070
    1Sil    Sib 1850   2.813   2.638  11.504 -0.0242  0.1124  0.3013
    1Sil    Sim 1851   2.787   2.700  12.415 -0.0910 -0.5280  0.1475
    1Sil    Sib 1852   2.532   2.688  11.601 -0.5801  0.2816  0.0764
    1Sil    Sib 1853   3.085   2.638  12.002 -0.6896  0.4763  0.0095
    1Sil    Sib 1854   2.691   2.448  11.955  0.2376  0.0880 -0.3407
    1Sil    Sib 1855   3.232   2.456  12.348 -0.1661 -0.3282  0.4310
    1Sil    Sib 1856   2.985   2.397  11.577 -0.0787 -0.1318  0.2386
    1Sil    Sib 1857   3.316   2.938  10.286  0.2307  0.1323 -0.2363
    1Sil    Sib 1858   2.736   2.936  11.074  0.2056 -0.0619 -0.2647
    1Sil    Sib 1859   3.034   2.880  10.675  0.4292 -0.2894  0.0633
    1Sil    Sib 1860   2.578   3.186  10.713  0.3039  0.5463 -0.1265
    1Sil    Sib 1861   3.119   3.180  11.096 -0.1027 -0.4414  0.4733
    1Sil    Sib 1862   2.874   3.128  10.317 -0.1937 -0.1905 -0.1962
    1Sil    Sib 1863   2.837   3.184  11.202  0.0371  0.2842 -0.4547
    1Sil    Sib 1864   2.597   3.187  10.415  0.1322 -0.6537 -0.0815
    1Sil    Sib 1865   3.132   3.123  10.800 -0.1675 -0.3406 -0.3527
    1Sil    Sib 1866   2.751   2.933  10.778  0.5561  0.0387 -0.1424
    1Sil    Sib 1867   3.286   2.934  11.159  0.3323 -0.1642  0.1503
    1Sil    Sib 1868   3.039   2.896  10.380 -0.0342  0.3471 -0.1965
    1Sil    Sib 1869   3.266   2.929  11.457  0.5709 -0.3361 -0.4996
    1Sil    Sib 1870   2.685   2.934  12.255  0.5749  0.2161  0.3801
    1Sil    Sib 1871   2.990   2.883  11.849  0.1667 -0.2189 -0.0916
    1Sil    Sib 1872   2.535   3.174  11.898 -0.3264  0.0612  0.3171
    1Sil    Sib 1873   3.068   3.183  12.283  0.4591  0.4171  0.0098
    1Sil    Sib 1874   2.823   3.131  11.495 -0.3223  0.4455  0.0144
    1Sil    Sib 1875   2.786   3.182  12.381 -0.4285 -0.6028 -0.6411
    1Sil    Sib 1876   2.533   3.185  11.602  0.7795  0.0782  0.2485
    1Sil    Sib 1877   3.087   3.135  11.987  0.4442 -0.3865 -0.3721
    1Sil    Sib 1878   2.707   2.926  11.956 -0.1941 -0.0274 -0.1673
    1Sil    Sim 1879   3.232   2.943  12.369  0.2287  0.2299  0.1233
    1Sil    Sib 1880   2.985   2.877  11.549 -0.2093  0.3730 -0.5138
    1Sil    Sim 1881   3.326   3.433  10.268 -0.0170  0.3483 -0.2111
    1Sil    Sib 1882   2.733   3.423  11.053 -0.1342  0.1486 -0.0134
    1Sil    Sib 1883   3.028   3.367  10.656 -0.1028 -0.3055  0.0949
    1Sil    Sib 1884   2.584   0.237  10.709 -0.0156 -0.2413  0.0865
    1Sil    Sib 1885   3.116   0.226  11.112 -0.1672 -0.3175 -0.2836
    1Sil    Sim 1886   2.873   0.172  10.305  0.4551 -0.0084 -0.2586
    1Sil    Sib 1887   2.826   0.223  11.197 -0.4433  0.1436 -0.1934
    1Sil    Sib 1888   2.596   0.231  10.410 -0.5422 -0.6012  0.1254
    1Sil    Sib 1889   3.131   0.167  10.804  0.1464  0.0996 -0.2946
    1Sil    Sib 1890   2.749   3.433  10.759  0.2852  0.0914 -0.0182
    1Sil    Sib 1891   3.281   3.430  11.166  0.4132 -0.3957 -0.0888
    1Sil    Sib 1892   3.046   3.379  10.357  0.1029 -0.2111  0.0499
    1Sil    Sib 1893   3.273   3.429  11.462  0.0346  0.5928 -0.1326
    1Sil    Sib 1894   2.679   3.439  12.259 -0.0491 -0.7421  0.2773
    1Sil    Sib 1895   2.981   3.377  11.857 -0.2076 -0.0994 -0.1991
    1Sil    Sib 1896   2.531   0.222  11.892 -0.1885  0.2170  0.3469
    1Sil    Sib 1897   3.073   0.216  12.284 -0.3840 -0.0179 -0.0085
    1Sil    Sib 1898   2.827   0.172  11.494  0.0266  0.3737 -0.1106
    1Sil    Sib 1899   2.790   0.230  12.391 -0.0280 -0.2513 -0.2958
    1Sil    Sib 1900   2.540   0.222  11.592 -0.2556  0.5525 -0.3412
    1Sil    Sib 1901   3.087   0.175  11.992 -0.4279 -0.1457  0.2464
    1Sil    Sib 1902   2.692   3.423  11.955 -0.1572  0.0344 -0.1242
    1Sil    Sib 1903   3.240   3.428  12.350  0.2452 -0.0730  0.3224
    1Sil    Sib 1904   2.987   3.377  11.563 -0.0928  0.2178  0.1670
    1Sil    Sib 1905   0.840   0.490  10.278  0.1840  0.3236  0.2331
    1Sil    Sib 1906   3.559   0.469  11.075 -0.0073 -0.2962 -0.1543
    1Sil    Sib 1907   0.544   0.418  10.662  0.0814 -0.0752 -0.3799
    1Sil    Sib 1908   3.420   0.721  10.702 -0.7856  0.2742  0.1374
    1Sil    Sib 1909   3.945   0.719  11.111  0.0354  0.2165 -0.2069
    1Sil    Sim 1910   3.712   0.662  10.284 -0.0645 -0.2956 -0.3950
    1Sil    Sib 1911   3.662   0.722  11.210  0.3537 -0.3195 -0.0355
    1Sil    Sib 1912   3.432   0.719  10.388  0.4533 -0.3109  0.2329
    1Sil    Sib 1913   0.645   0.662  10.807 -0.1305 -0.3282 -0.0079
    1Sil    Sib 1914   3.588   0.471  10.777  0.0419  0.3758 -0.2589
    1Sil    Sib 1915   0.787   0.470  11.153 -0.1151 -0.2508  0.4526
    1Sil    Sib 1916   0.554   0.417  10.357 -0.2018  0.2022  0.0605
    1Sil    Sib 1917   0.773   0.465  11.457  0.3255  0.0013 -0.3960
    1Sil    Sib 1918   3.525   0.471  12.263 -0.1540  0.3084  0.4358
    1Sil    Sib 1919   0.490   0.420  11.859 -0.3181  0.0898  0.1286
    1Sil    Sib 1920   3.364   0.713  11.894 -0.2146  0.2178  0.1449
    1Sil    Sib 1921   3.909   0.709  12.297 -0.4476 -0.4752 -0.0309
    1Sil    Sib 1922   3.655   0.659  11.499 -0.0403  0.4555 -0.0331
    1Sil    Sim 1923   3.628   0.714  12.388  0.0437 -0.6630 -0.8148
    1Sil    Sib 1924   3.377   0.712  11.598 -0.5114 -0.0821 -0.0560
    1Sil    Sib 1925   0.592   0.674  11.995  0.1623  0.1189  0.5175
    1Sil    Sib 1926   3.536   0.476  11.956  0.4931  0.2339 -0.0155
    1Sil    Sib 1927   0.738   0.455  12.339  0.0654  0.1086  0.5853
    1Sil    Sib 1928   0.500   0.420  11.563 -0.2777 -0.4168  0.1996
    1Sil    Sib 1929   0.820   0.974  10.288 -0.1350 -0.0866  0.2899
    1Sil    Sib 1930   3.565   0.970  11.070  0.4421 -0.0980 -0.3091
    1Sil    Sib 1931   0.529   0.912  10.674 -0.0564  0.0956  0.4950
    1Sil    Sib 1932   3.409   1.213  10.707  0.0028 -0.5101  0.0758
    1Sil    Sib 1933   3.947   1.214  11.105  0.3519 -0.5087  0.4467
    1Sil    Sib 1934   3.703   1.164  10.297 -0.2132  0.1653 -0.2232
    1Sil    Sib 1935   3.666   1.220  11.200  0.0094  0.4207 -0.7604
    1Sil    Sib 1936   3.423   1.212  10.402  0.0779  0.2698 -0.2450
    1Sil    Sib 1937   0.651   1.153  10.810  0.0837 -0.3393  0.1335
    1Sil    Sib 1938   3.576   0.971  10.781 -0.1913  0.3397 -0.1494
    1Sil    Sib 1939   0.788   0.966  11.165  0.2558  0.1076  0.0963
    1Sil    Sib 1940   3.860   0.919  10.370  0.1989  0.2813 -0.1443
    1Sil    Sib 1941   0.778   0.971  11.465  0.3970 -0.2638 -0.6394
    1Sil    Sib 1942   3.538   0.962  12.242  0.4283 -0.1106 -0.3197
    1Sil    Sib 1943   0.487   0.913  11.849 -0.3807 -0.6537  0.0687
    1Sil    Sib 1944   3.373   1.200  11.900 -0.1588 -0.5300 -0.2062
    1Sil    Sib 1945   3.906   1.218  12.301 -0.0104 -0.3471 -0.2431
    1Sil    Sib 1946   3.654   1.154  11.493  0.5974 -0.2964 -0.4180
    1Sil    Sib 1947   3.631   1.210  12.389  0.4910  0.1715  0.4265
    1Sil    Sib 1948   3.375   1.204  11.600 -0.3782 -0.0859 -0.0937
    1Sil    Sib 1949   0.580   1.160  12.001  0.0728 -0.1126  0.2646
    1Sil    Sib 1950   3.531   0.959  11.950 -0.2212  0.1652  0.0927
    1Sil    Sib 1951   0.735   0.965  12.356  0.1110  0.0985  0.6436
    1Sil    Sib 1952   3.816   0.908  11.546  0.1446  0.0275  0.7275
    1Sil    Sib 1953   0.824   1.457  10.286 -0.4836 -0.5706 -0.0870
    1Sil    Sib 1954   3.561   1.468  11.069 -0.1620  0.0427  0.1949
    1Sil    Sib 1955   0.536   1.393  10.667  0.0535  0.0172  0.0487
    1Sil    Sib 1956   3.413   1.702  10.702 -0.0207 -0.2400  0.4028
    1Sil    Sib 1957   3.940   1.712  11.108 -0.5143  0.2448  0.2032
    1Sil    Sib 1958   3.705   1.652  10.307 -0.0935 -0.2892  0.4185
    1Sil    Sib 1959   3.669   1.711  11.222 -0.2443  0.0167 -0.2960
    1Sil    Sib 1960   3.421   1.711  10.399 -0.3065  0.2778  0.1317
    1Sil    Sib 1961   0.631   1.644  10.806  0.2813  0.0599  1.1755
    1Sil    Sib 1962   3.570   1.457  10.760  0.3711  0.0328  0.2407
    1Sil    Sib 1963   0.789   1.468  11.164  0.3684  0.0841  0.4944
    1Sil    Sib 1964   3.864   1.406  10.371 -0.0701 -0.5586  0.0769
    1Sil    Sib 1965   0.778   1.458  11.467  0.0487 -0.3196  0.4698
    1Sil    Sib 1966   3.515   1.458  12.262  0.0044  0.0862  0.1934
    1Sil    Sib 1967   0.477   1.406  11.860  0.6213  0.1556 -0.3593
    1Sil    Sib 1968   3.368   1.702  11.900  0.4872  0.1196 -0.1222
    1Sil    Sib 1969   3.902   1.704  12.298  0.1748  0.3924 -0.1913
    1Sil    Sib 1970   3.658   1.650  11.510  0.1501  0.0620 -0.0473
    1Sil    Sib 1971   3.627   1.702  12.407 -0.0482  0.1846  0.1705
    1Sil    Sib 1972   3.377   1.705  11.600 -0.0926  0.3588  0.3065
    1Sil    Sib 1973   0.581   1.648  12.003 -0.0331 -0.0133  0.0839
    1Sil    Sib 1974   3.526   1.458  11.964 -0.4846  0.0697 -0.0501
    1Sil    Sib 1975   0.746   1.468  12.357  0.0925 -0.2432  0.1834
    1Sil    Sib 1976   3.820   1.398  11.568  0.2231 -0.6497  0.0687
    1Sil    Sim 1977   0.827   1.963  10.277  0.1909 -0.3284  0.4713
    1Sil    Sib 1978   3.571   1.956  11.076 -0.4420  0.3187  0.5051
    1Sil    Sib 1979   0.534   1.891  10.667  0.5787 -0.4737  0.1196
    1Sil    Sib 1980   3.415   2.199  10.720  0.0183 -0.4223  0.0767
    1Sil    Sib 1981   3.946   2.203  11.103  0.3073  0.1129 -0.1022
    1Sil    Sim 1982   3.709   2.144  10.310 -0.0710 -0.0736  0.1989
    1Sil    Sib 1983   3.666   2.199  11.218 -0.3893  0.3641  0.0321
    1Sil    Sib 1984   3.417   2.191  10.420  0.4715  0.4747  0.2244
    1Sil    Sib 1985   0.637   2.137  10.812 -0.0046 -0.1909 -0.1098
    1Sil    Sib 1986   3.577   1.948  10.779 -0.1068  0.1086  0.0559
    1Sil    Sib 1987   0.784   1.952  11.175  0.4426 -0.0728 -0.7633
    1Sil    Sib 1988   3.870   1.898  10.367  0.5249  0.1332  0.1730
    1Sil    Sib 1989   0.775   1.954  11.477 -0.1235 -0.6549  0.3103
    1Sil    Sib 1990   3.515   1.951  12.276 -0.4968  0.6922  0.1554
    1Sil    Sib 1991   0.473   1.891  11.871 -0.0887  0.2234 -0.5929
    1Sil    Sib 1992   3.370   2.195  11.898  0.1322 -0.1848 -0.0881
    1Sil    Sib 1993   3.895   2.198  12.290 -0.2454  0.3288  0.0887
    1Sil    Sib 1994   3.654   2.147  11.509 -0.0921  0.0385 -0.1845
    1Sil    Sib 1995   3.619   2.199  12.400  0.3283 -0.1965  0.6349
    1Sil    Sib 1996   3.376   2.198  11.596  0.1196 -0.5444  0.1767
    1Sil    Sib 1997   0.590   2.142  12.001 -0.0725 -0.4826  0.0085
    1Sil    Sib 1998   3.522   1.947  11.976  0.0179  0.1223 -0.1459
    1Sil    Sib 1999   0.742   1.951  12.352 -0.3271 -0.1468  0.0583
    1Sil    Sib 2000   3.824   1.898  11.564  0.5907  0.2043  0.1382
    1Sil    Sib 2001   0.823   2.448  10.277  0.0047 -0.2189 -0.5005
    1Sil    Sib 2002   3.564   2.440  11.065  0.0648  0.1114 -0.1168
    1Sil    Sib 2003   0.532   2.390  10.675 -0.0420 -0.2589  0.3597
    1Sil    Sib 2004   3.414   2.689  10.707 -0.5477  0.4328 -0.1268
    1Sil    Sib 2005   3.948   2.685  11.109 -0.5696 -0.4248 -0.2603
    1Sil    Sim 2006   3.706   2.628  10.314 -0.4502 -0.2332 -0.0031
    1Sil    Sib 2007   3.677   2.679  11.210 -0.0160  0.2541 -0.0339
    1Sil    Sib 2008   3.429   2.683  10.410  0.1632 -0.4430 -0.1978
    1Sil    Sib 2009   0.647   2.633  10.805  0.5931 -0.2444 -0.0675
    1Sil    Sib 2010   3.579   2.442  10.776 -0.3234  0.0658 -0.0828
    1Sil    Sib 2011   0.793   2.442  11.167 -0.4021  0.1759  0.1244
    1Sil    Sib 2012   3.872   2.386  10.377  0.2021  0.1458 -0.0142
    1Sil    Sib 2013   0.790   2.431  11.461  0.0852 -0.2376 -0.1991
    1Sil    Sib 2014   3.513   2.443  12.253  0.0466  0.4973 -0.0720
    1Sil    Sib 2015   0.499   2.379  11.864  0.2726 -0.1565 -0.4913
    1Sil    Sib 2016   3.366   2.684  11.906  0.0597  0.1318  0.6087
    1Sil    Sib 2017   3.906   2.701  12.301 -0.1593 -0.4644  0.2361
    1Sil    Sib 2018   3.660   2.626  11.511  0.5607  0.4216 -0.1942
    1Sil    Sim 2019   3.621   2.686  12.389 -0.3589 -0.0947 -0.3034
    1Sil    Sib 2020   3.374   2.684  11.602  0.2466 -0.1289 -0.0510
    1Sil    Sib 2021   0.593   2.634  12.005 -0.3177  0.3665  0.2307
    1Sil    Sib 2022   3.540   2.435  11.951  0.1714 -0.4827 -0.3111
    1Sil    Sim 2023   0.739   2.441  12.357  0.1542  0.2848 -0.0318
    1Sil    Sib 2024   3.832   2.385  11.570 -0.5339  0.0958  0.4069
    1Sil    Sib 2025   0.823   2.946  10.272  0.2720  0.3026  0.1496
    1Sil    Sib 2026   3.575   2.932  11.073  0.2109 -0.3334 -0.2208
    1Sil    Sib 2027   0.539   2.882  10.662  0.2627 -0.2081 -0.1134
    1Sil    Sib 2028   3.421   3.175  10.723 -0.0464  0.3507  0.1370
    1Sil    Sib 2029   3.949   3.186  11.108 -0.0132 -0.0457 -0.1975
    1Sil    Sib 2030   3.711   3.147  10.309  0.1027  0.2876 -0.3102
    1Sil    Sib 2031   3.664   3.182  11.214  0.0887  0.4224  0.0755
    1Sil    Sib 2032   3.430   3.184  10.422  0.3171  0.5225 -0.0059
    1Sil    Sib 2033   0.642   3.121  10.800  0.4810 -0.1936  0.2992
    1Sil    Sib 2034   3.580   2.926  10.770 -0.0475 -0.0628  0.2716
    1Sil    Sib 2035   0.787   2.931  11.166  0.4301 -0.1118  0.3752
    1Sil    Sib 2036   3.862   2.884  10.366  0.0140 -0.3323  0.1429
    1Sil    Sib 2037   0.774   2.922  11.467  0.0411  0.1852  0.4879
    1Sil    Sib 2038   3.519   2.939  12.261  0.5248 -0.6331  0.4515
    1Sil    Sib 2039   0.495   2.877  11.868 -0.2150  0.1234  0.4095
    1Sil    Sib 2040   3.373   3.181  11.891  0.5794 -0.0764  0.0311
    1Sil    Sib 2041   3.905   3.180  12.289  0.1510  0.5046 -0.6998
    1Sil    Sib 2042   3.646   3.133  11.514 -0.1885 -0.6412  0.2245
    1Sil    Sim 2043   3.630   3.185  12.409 -0.2743  0.3077 -0.2918
    1Sil    Sib 2044   3.367   3.179  11.599  0.1121  0.2310 -0.2498
    1Sil    Sib 2045   0.598   3.127  11.994  0.0208 -0.1162 -0.1341
    1Sil    Sib 2046   3.536   2.930  11.961  0.0405  0.3421 -0.2856
    1Sil    Sim 2047   0.742   2.942  12.371 -0.5596 -0.0621 -0.3351
    1Sil    Sib 2048   3.820   2.878  11.573  0.2715 -0.1782 -0.0443
    1Sil    Sib 2049   0.827   3.439  10.264  0.3919 -0.7207 -0.0919
    1Sil    Sib 2050   3.576   3.426  11.064 -0.0726 -0.3000 -0.1403
    1Sil    Sib 2051   0.542   3.370  10.658 -0.1533  0.3242 -0.3067
    1Sil    Sib 2052   3.414   0.234  10.710  0.1979 -0.2511 -0.1216
    1Sil    Sib 2053   0.632   0.226  11.097  0.3777 -0.0376  0.0191
    1Sil    Sim 2054   0.384   0.179  10.299  0.0296 -0.2627 -0.1097
    1Sil    Sib 2055   3.671   0.228  11.208 -0.0937 -1.0961 -0.3216
    1Sil    Sib 2056   3.427   0.237  10.402 -0.5509  0.3488  0.1078
    1Sil    Sib 2057   0.639   0.178  10.798  0.5091  0.1179  0.3865
    1Sil    Sib 2058   3.588   3.433  10.761 -0.0727 -0.1297  0.0868
    1Sil    Sib 2059   0.788   3.436  11.161 -0.2664 -0.1011  0.3712
    1Sil    Sib 2060   3.874   3.384  10.360  0.2114  0.0288 -0.1380
    1Sil    Sib 2061   0.770   3.423  11.464 -0.6134  0.4289 -0.0676
    1Sil    Sib 2062   3.527   3.431  12.263 -0.2717  0.2245  0.0260
    1Sil    Sib 2063   0.486   3.372  11.859  0.2722  0.2906 -0.1139
    1Sil    Sib 2064   3.370   0.230  11.902  0.0672  0.0843  0.1332
    1Sil    Sib 2065   0.578   0.222  12.283  0.4433  0.0448  0.2015
    1Sil    Sib 2066   0.335   0.180  11.504 -0.4900 -0.3591 -0.0353
    1Sil    Sib 2067   3.634   0.233  12.402 -0.3050  0.3224  0.0463
    1Sil    Sib 2068   3.374   0.224  11.605  0.4036  0.0378  0.1902
    1Sil    Sib 2069   0.589   0.164  11.994 -0.5043 -0.3179 -0.0195
    1Sil    Sib 2070   3.530   3.433  11.962 -0.2110  0.3736 -0.0908
    1Sil    Sib 2071   0.734   3.420  12.344 -0.2873  0.3236 -0.0482
    1Sil    Sib 2072   3.814   3.373  11.561 -0.2740  0.4016  0.0251
    1Sil     Hy 2073   1.615   0.410  10.080 -0.8397  0.7669  0.4965
    1Sil     Hy 2074   1.213   0.640  10.098 -0.3775 -0.9882  0.9185
    1Sil     Hm 2075   1.017   0.591  12.563  1.2405 -0.0201  0.5742
    1Sil     Hm 2076   1.177   0.662  12.631  0.3726 -0.6667  1.5031
    1Sil     Hm 2077   1.042   0.761  12.617  3.9369  0.7857  1.5504
    1Sil     Hy 2078   1.531   0.487  12.562  0.4606  0.1877  1.1620
    1Sil     Hm 2079   1.826   0.980  10.096 -0.1890 -1.3126 -4.1899
    1Sil     Hm 2080   1.741   0.830  10.081 -0.9168 -1.1414  0.8068
    1Sil     Hm 2081   1.659   0.980  10.027  0.3943 -2.3043 -1.4799
    1Sil     Hy 2082   1.184   1.120  10.111  3.7036  0.9232 -0.2211
    1Sil     Hm 2083   0.975   1.214  12.567  0.5130  1.7225  0.2156
    1Sil     Hm 2084   1.088   1.069  12.559  1.1953  0.3403  3.4360
    1Sil     Hm 2085   1.142   1.217  12.627 -1.6211  0.9820 -0.4602
    1Sil     Hy 2086   1.578   1.013  12.543 -0.3900  0.6941 -2.2768
    1Sil     Hm 2087   1.693   1.522  10.059  1.8310 -1.0199 -2.2711
    1Sil     Hm 2088   1.813   1.403  10.101 -0.3547 -1.1448  0.1115
    1Sil     Hm 2089   1.643   1.356  10.081  0.0489 -1.2815  2.8047
    1Sil     Hy 2090   1.251   1.677  10.096 -0.4651  1.6944  0.2589
    1Sil     Hy 2091   1.175   1.651  12.601  0.3178 -1.0425 -0.8965
    1Sil     Hm 2092   1.681   1.489  12.550  1.5020 -1.2134  1.0227
    1Sil     Hm 2093   1.506   1.420  12.574 -0.6172  1.5068 -0.9294
    1Sil     Hm 2094   1.645   1.324  12.527 -0.2040  1.1585  0.6381
    1Sil     Hy 2095   1.650   1.959  10.065  3.3850  2.1770 -2.1315
    1Sil     Hy 2096   1.222   2.147  10.100  1.8965 -0.6766  1.2848
    1Sil     Hy 2097   1.134   2.217  12.612  1.5938 -0.1601 -0.9583
    1Sil     Hm 2098   1.531   1.972  12.598 -0.8356  1.1186 -1.5522
    1Sil     Hm 2099   1.610   1.815  12.565 -1.4817  0.7186  1.1064
    1Sil     Hm 2100   1.707   1.958  12.558  0.2443  0.6870 -0.7601
    1Sil     Hy 2101   1.642   2.462  10.068 -0.0257 -1.5954 -0.2515
    1Sil     Hy 2102   1.198   2.612  10.096  1.2797  0.4190  0.9700
    1Sil     Hm 2103   0.996   2.653  12.604 -0.8361  1.5256  0.6252
    1Sil     Hm 2104   1.137   2.751  12.632 -0.5461 -0.3190  0.1360
    1Sil     Hm 2105   1.149   2.584  12.633  0.8221  0.7664 -0.8039
    1Sil     Hm 2106   1.680   2.501  12.569  3.0813 -1.0303 -1.0284
    1Sil     Hm 2107   1.534   2.409  12.600  0.9224  1.1632  0.7055
    1Sil     Hm 2108   1.682   2.324  12.550 -0.9942 -1.1719 -2.2390
    1Sil     Hy 2109   1.611   2.953  10.076  1.4394  2.9802  1.0428
    1Sil     Hy 2110   1.111   3.052  10.156  1.1257 -0.2154 -1.6163
    1Sil     Hy 2111   1.118   3.235  12.615  0.3055 -3.2244  3.8574
    1Sil     Hy 2112   1.524   2.884  12.537  0.1303 -1.4809 -1.0452
    1Sil     Hy 2113   1.633   3.431  10.062 -1.1233 -2.4454  0.8862
    1Sil     Hy 2114   1.189   0.146  10.096 -0.9147 -0.5986  1.1463
    1Sil     Hy 2115   1.115   0.280  12.588  0.5125 -1.2378  0.8873
    1Sil     Hy 2116   1.544   3.484  12.560  1.8091 -1.0379  1.6923
    1Sil     Hy 2117   2.503   0.512  10.075 -2.0835 -0.4767  0.8147
    1Sil     Hm 2118   1.927   0.628  10.109  1.0717  0.1179 -1.1802
    1Sil     Hm 2119   2.002   0.791  10.100  0.1025  0.6571 -0.0614
    1Sil     Hm 2120   2.094   0.642  10.068  0.5427  0.4747  0.0225
    1Sil     Hm 2121   1.941   0.764  12.605  1.1338 -1.3514  0.7376
    1Sil     Hm 2122   1.939   0.592  12.552 -0.3338 -0.8084  0.4473
    1Sil     Hm 2123   1.802   0.681  12.530 -0.0204 -0.5816 -1.7541
    1Sil     Hy 2124   2.329   0.430  12.523 -0.0653 -0.8139 -1.0537
    1Sil     Hy 2125   2.468   0.916  10.085 -0.0501  0.7502  0.5314
    1Sil     Hy 2126   2.072   1.221  10.103  1.5742 -0.8439  0.8144
    1Sil     Hy 2127   1.817   1.228  12.574 -1.4762 -2.6429  0.0377
    1Sil     Hy 2128   2.449   0.831  12.484 -1.4554 -0.1622  1.1488
    1Sil     Hy 2129   2.454   1.408  10.083 -2.0064  2.1524  0.6523
    1Sil     Hy 2130   2.062   1.605  10.122  2.0774  2.6354 -0.5078
    1Sil     Hy 2131   2.019   1.686  12.623  0.5139  0.6426  0.0687
    1Sil     Hy 2132   2.453   1.525  12.548 -1.8612 -0.5441  1.0888
    1Sil     Hy 2133   2.648   1.956  10.138 -1.1533  3.9156  0.7796
    1Sil     Hm 2134   2.072   2.159  10.082 -1.5605  0.7002 -1.6719
    1Sil     Hm 2135   1.920   2.102  10.132  0.1348 -0.5833  0.3106
    1Sil     Hm 2136   1.940   2.273  10.147 -0.5933 -0.6110 -0.5165
    1Sil     Hm 2137   2.013   2.211  12.652  0.6539 -0.2908 -0.8134
    1Sil     Hm 2138   1.846   2.239  12.612  0.5856  2.1027 -0.9639
    1Sil     Hm 2139   1.913   2.074  12.617  0.8396  0.6123  2.5390
    1Sil     Hy 2140   2.382   2.010  12.558 -5.1255 -2.6239  1.7816
    1Sil     Hm 2141   2.465   2.492  10.062 -1.2493  0.0268  1.6967
    1Sil     Hm 2142   2.634   2.454  10.128  0.7126 -1.6344  2.1260
    1Sil     Hm 2143   2.526   2.327  10.096  0.3950  0.8385 -3.5298
    1Sil     Hm 2144   1.956   2.572  10.095 -0.0438 -0.6994 -0.0208
    1Sil     Hm 2145   1.891   2.734  10.129 -0.5232  0.3355  1.3248
    1Sil     Hm 2146   2.052   2.716  10.075 -2.4542 -0.2311 -1.4328
    1Sil     Hy 2147   1.902   2.783  12.570 -1.0494 -0.5730  0.8954
    1Sil     Hm 2148   2.528   2.372  12.554 -0.1908 -0.3214  1.1479
    1Sil     Hm 2149   2.438   2.523  12.585  3.5318  0.7511 -1.3923
    1Sil     Hm 2150   2.358   2.373  12.596 -0.0998 -1.0666 -1.1426
    1Sil     Hy 2151   2.536   2.988  10.082  2.0505 -1.0857 -1.6499
    1Sil     Hy 2152   1.986   3.048  10.114 -2.2620  0.6928 -1.6725
    1Sil     Hy 2153   1.966   3.247  12.594 -0.4399 -2.0169  3.5372
    1Sil     Hy 2154   2.377   2.830  12.530 -0.3486 -0.4299 -0.8506
    1Sil     Hy 2155   2.478   3.420  10.054  0.0699 -3.0185  0.5371
    1Sil     Hm 2156   2.034   0.303  10.107 -1.0614  1.5182  2.1956
    1Sil     Hm 2157   2.056   0.131  10.074 -1.1073  0.7815 -1.3997
    1Sil     Hm 2158   1.895   0.197  10.120  0.0742 -0.3038  1.6624
    1Sil     Hm 2159   1.800   0.250  12.554  0.2711  1.3924  2.2989
    1Sil     Hm 2160   1.905   0.103  12.571  0.5045  0.5674  1.7867
    1Sil     Hm 2161   1.967   0.272  12.608 -0.1264 -0.5158  1.1003
    1Sil     Hy 2162   2.363   3.420  12.567  1.5544 -0.7340  2.0690
    1Sil     Hm 2163   3.460   0.418  10.114  0.0589 -0.0804 -1.4804
    1Sil     Hm 2164   3.304   0.363  10.066  0.1865 -0.8150  1.3794
    1Sil     Hm 2165   3.343   0.534  10.049 -1.2268  0.2152  1.2943
    1Sil     Hy 2166   2.804   0.616  10.109  1.7800 -0.6143  1.7631
    1Sil     Hy 2167   2.738   0.759  12.570  2.6133 -2.4224  1.3774
    1Sil     Hm 2168   3.266   0.520  12.584 -0.3102 -1.4489  1.5779
    1Sil     Hm 2169   3.350   0.362  12.528  0.5644  0.8467  2.9798
    1Sil     Hm 2170   3.182   0.371  12.556  0.8038 -0.0006  2.4886
    1Sil     Hm 2171   3.478   0.961  10.085 -0.3280  0.2114  1.9751
    1Sil     Hm 2172   3.351   0.844  10.059  1.4397 -0.2296 -1.3153
    1Sil     Hm 2173   3.321   1.021  10.041 -2.6925  0.1579  2.7391
    1Sil     Hm 2174   2.733   1.241  10.144 -0.2398 -0.0388  2.4890
    1Sil     Hm 2175   2.892   1.206  10.071 -0.2828  0.0727 -0.8537
    1Sil     Hm 2176   2.774   1.077  10.111 -1.0898 -0.3126  2.8097
    1Sil     Hy 2177   2.750   1.250  12.587 -0.5975 -0.7390  0.6826
    1Sil     Hm 2178   3.257   1.056  12.568 -1.1362  0.6301 -0.8356
    1Sil     Hm 2179   3.210   0.887  12.557 -1.0937  0.7576 -1.2467
    1Sil     Hm 2180   3.374   0.921  12.526  0.1770 -1.0537 -0.9878
    1Sil     Hy 2181   3.314   1.387  10.079  0.1849 -1.6465  1.8505
    1Sil     Hm 2182   2.928   1.678  10.076 -1.0338 -0.4744 -1.6612
    1Sil     Hm 2183   2.761   1.635  10.115  1.0472  1.3339 -2.4949
    1Sil     Hm 2184   2.810   1.803  10.118  1.7310  0.4246 -0.3259
    1Sil     Hy 2185   2.833   1.629  12.580  0.9846  0.9863  0.9921
    1Sil     Hy 2186   3.337   1.523  12.523 -0.0412  0.3317  0.0362
    1Sil     Hy 2187   3.308   2.014  10.058 -2.4821 -0.7811  1.0034
    1Sil     Hy 2188   2.895   2.192  10.111  0.2704 -1.1358 -0.6336
    1Sil     Hy 2189   2.823   2.125  12.589 -0.6766 -0.5592  0.1279
    1Sil     Hm 2190   3.283   2.003  12.600  0.7286  0.6803 -1.4270
    1Sil     Hm 2191   3.193   1.851  12.585 -0.2996 -0.3448  0.2340
    1Sil     Hm 2192   3.362   1.853  12.548 -1.8082 -1.8440 -1.6233
    1Sil     Hy 2193   3.342   2.483  10.078 -2.9007  0.4164  1.4029
    1Sil     Hm 2194   2.757   2.610  10.108 -0.1961 -0.4920  0.9661
    1Sil     Hm 2195   2.804   2.771  10.116  0.6329 -0.2559 -2.4630
    1Sil     Hm 2196   2.929   2.654  10.079 -1.2911 -2.5899 -0.7502
    1Sil     Hm 2197   2.821   2.633  12.616 -0.1027  1.3585  1.2856
    1Sil     Hm 2198   2.744   2.786  12.601 -0.0501  0.5976  0.2854
    1Sil     Hm 2199   2.648   2.639  12.568  0.9718 -1.9168  0.0229
    1Sil     Hy 2200   3.247   2.515  12.549 -2.8099 -0.8433  0.6866
    1Sil     Hy 2201   3.339   2.831  10.105  2.8717 -1.7240  0.7708
    1Sil     Hy 2202   2.864   3.059  10.123 -1.2771  0.1633 -0.9842
    1Sil     Hy 2203   2.757   3.040  12.530  0.5980  1.0125 -1.8034
    1Sil     Hm 2204   3.198   2.973  12.608  0.3944 -1.0484  1.1655
    1Sil     Hm 2205   3.311   2.850  12.581 -1.7886  0.0054  1.3405
    1Sil     Hm 2206   3.358   3.023  12.560 -0.8270  1.2721 -1.3179
    1Sil     Hm 2207   3.502   3.383  10.115  0.1852 -0.9418 -2.8969
    1Sil     Hm 2208   3.345   3.309  10.072  0.0938  1.2177 -3.3697
    1Sil     Hm 2209   3.363   3.471  10.046  0.1638 -2.4049 -1.8078
    1Sil     Hm 2210   2.914   0.226  10.085  0.9290  0.3142  1.3577
    1Sil     Hm 2211   2.757   0.143  10.109 -2.1246  2.2102  0.3402
    1Sil     Hm 2212   2.771   0.309  10.151 -1.7562 -1.2566  2.4626
    1Sil     Hy 2213   2.685   0.270  12.576  0.6838  1.6995 -0.9993
    1Sil     Hy 2214   3.196   3.357  12.536 -0.3858 -0.5567 -2.0691
    1Sil     Hy 2215   0.930   0.604  10.117 -1.2266  1.1039  2.0900
    1Sil     Hm 2216   3.731   0.614  10.049  2.7830  0.0528  1.8036
    1Sil     Hm 2217   3.579   0.692  10.083 -0.3091 -0.6449 -0.7420
    1Sil     Hm 2218   3.733   0.791  10.079  1.3934 -1.0463 -0.5328
    1Sil     Hm 2219   3.502   0.779  12.578 -0.5237 -1.3282  1.1284
    1Sil     Hm 2220   3.534   0.600  12.577 -0.5486  0.2177  1.5699
    1Sil     Hm 2221   3.654   0.718  12.627  0.6823  2.1990 -0.4578
    1Sil     Hy 2222   0.671   0.412  12.541  0.8432  0.6553  2.1451
    1Sil     Hy 2223   0.872   1.004  10.081 -1.8281  0.4392  0.3658
    1Sil     Hy 2224   3.706   1.126  10.084 -2.9810 -1.6804  0.5947
    1Sil     Hy 2225   3.579   1.241  12.583  2.3683  0.8016 -2.5970
    1Sil     Hy 2226   0.794   1.029  12.551 -1.4064 -0.1166  0.0907
    1Sil     Hy 2227   0.809   1.381  10.090  0.7530  1.1205 -2.3381
    1Sil     Hy 2228   3.665   1.599  10.104 -0.1516  0.4322 -0.4792
    1Sil     Hy 2229   3.670   1.719  12.616 -0.9375  3.7202 -1.2893
    1Sil     Hy 2230   0.720   1.513  12.554  1.5495 -0.3093  1.4970
    1Sil     Hm 2231   0.966   1.875  10.132  1.2232  1.8494  3.2344
    1Sil     Hm 2232   0.801   1.912  10.062 -0.3819 -0.4197  0.5365
    1Sil     Hm 2233   0.912   2.039  10.091 -5.1502  1.6728 -1.8797
    1Sil     Hm 2234   3.696   2.092  10.088  0.8571 -0.0716  0.1719
    1Sil     Hm 2235   3.555   2.169  10.145 -0.2746  3.7009  1.6090
    1Sil     Hm 2236   3.696   2.271  10.134  0.0948 -0.0688  0.6358
    1Sil     Hy 2237   3.655   2.204  12.604  0.1085 -1.7147  1.1665
    1Sil     Hy 2238   0.837   1.998  12.523  0.2069 -1.2959  1.0162
    1Sil     Hy 2239   0.825   2.341  10.098 -3.8936  0.4994  2.0295
    1Sil     Hm 2240   3.582   2.572  10.106  0.0853  0.4000  0.5330
    1Sil     Hm 2241   3.751   2.591  10.083  1.0128  0.0476  1.3305
    1Sil     Hm 2242   3.659   2.738  10.100  0.8659  0.0376  0.3120
    1Sil     Hm 2243   3.627   2.566  12.576 -0.1784  0.7165  2.8429
    1Sil     Hm 2244   3.578   2.722  12.612 -0.3037 -2.4549  2.8068
    1Sil     Hm 2245   3.456   2.616  12.544 -0.7399  2.3572  2.0520
    1Sil     Hm 2246   0.863   2.454  12.556 -1.3393  0.8216  0.7673
    1Sil     Hm 2247   0.689   2.421  12.580  0.1182 -0.5141  1.1522
    1Sil     Hm 2248   0.784   2.293  12.527 -1.4564 -0.5284  2.1141
    1Sil     Hy 2249   0.868   2.992  10.065  3.1072  1.0659  1.4436
    1Sil     Hy 2250   3.741   3.128  10.105 -0.4087  0.4417 -0.0207
    1Sil     Hm 2251   3.581   3.072  12.612 -2.5486  0.1420  0.1117
    1Sil     Hm 2252   3.504   3.231  12.609 -0.6084 -1.6177 -1.1234
    1Sil     Hm 2253   3.679   3.219  12.630  0.4275 -2.8219  1.8027
    1Sil     Hm 2254   0.802   2.814  12.561 -1.7189 -0.2823 -0.9142
    1Sil     Hm 2255   0.874   2.976  12.563  1.0709 -1.6741 -1.5540
    1Sil     Hm 2256   0.714   2.960  12.608  0.7251 -0.5851  0.5211
    1Sil     Hy 2257   0.854   3.479  10.071  1.2417  0.2516  0.8195
    1Sil     Hm 2258   0.295   0.281  10.130 -1.4645 -1.0904 -0.0479
    1Sil     Hm 2259   0.445   0.204  10.093 -0.0898 -0.3924 -0.0379
    1Sil     Hm 2260   0.306   0.101  10.108  1.6703 -0.3440 -0.9490
    1Sil     Hy 2261   3.648   0.191  12.617 -0.1445  0.5149  0.5448
    1Sil     Hy 2262   0.690   3.450  12.547  0.7561  0.3888 -0.1030
    2Eth     Ho 2263   1.196   2.300   9.812  1.3208  0.2135 -0.9883
    2Eth     Oh 2264   1.194   2.386   9.774 -0.0878  0.4659 -0.3668
    2Eth     Co 2265   1.091   2.466   9.837 -0.1810  0.4121 -0.2125
    2Eth    Hco 2266   1.141   2.548   9.889  1.8692 -0.7090 -0.3551
    2Eth    Hco 2267   1.040   2.399   9.906  2.1724 -1.4771 -0.2146
    2Eth     Ch 2268   0.988   2.509   9.727  0.6719 -0.4738  0.2714
    2Eth    Hcc 2269   0.907   2.570   9.768  0.2291 -0.3098 -0.8467
    2Eth    Hcc 2270   0.937   2.424   9.682  0.3246 -0.1364  0.0306
    2Eth    Hcc 2271   1.033   2.568   9.648 -1.1905 -0.8734 -1.1244
    3Eth     Ho 2272   0.446   1.920   6.154  0.1715 -0.4702 -0.6911
    3Eth     Oh 2273   0.362   1.933   6.195  0.5027  0.1589 -0.2039
    3Eth     Co 2274   0.310   1.806   6.218  0.5339  0.0567 -0.3486
    3Eth    Hco 2275   0.366   1.765   6.301  0.9429 -0.6519 -0.9667
    3Eth    Hco 2276   0.320   1.747   6.126 -0.7843 -0.7706  0.0241
    3Eth     Ch 2277   0.166   1.817   6.268 -0.0582 -0.1109 -0.6982
    3Eth    Hcc 2278   0.159   1.897   6.342  0.2879 -2.0477  1.5055
    3Eth    Hcc 2279   0.132   1.718   6.300 -0.2164  1.0040  2.8030
    3Eth    Hcc 2280   0.097   1.855   6.193  2.5823  1.5614 -2.3272
    4Eth     Ho 2281   2.039   3.014   2.957 -2.0778  1.4144  1.4077
    4Eth     Oh 2282   2.094   3.049   3.025 -0.4005  0.2368  0.7144
    4Eth     Co 2283   2.159   3.169   2.981  0.3625  0.2120 -0.4505
    4Eth    Hco 2284   2.226   3.210   3.057  0.2702 -1.4865  0.5857
    4Eth    Hco 2285   2.075   3.232   2.952 -0.4470 -0.5526  0.2233
    4Eth     Ch 2286   2.230   3.148   2.860 -0.2827  0.2133 -0.5224
    4Eth    Hcc 2287   2.319   3.087   2.875 -0.0945  0.9705  1.5183
    4Eth    Hcc 2288   2.267   3.241   2.817 -2.9993  1.6775  0.1918
    4Eth    Hcc 2289   2.176   3.093   2.782  1.7400 -0.3850 -1.5498
    5Eth     Ho 2290   1.750   1.490   4.793 -1.1672  0.4013 -0.3773
    5Eth     Oh 2291   1.755   1.423   4.728  0.3216  0.5119 -0.3893
    5Eth     Co 2292   1.648   1.338   4.759 -0.5208 -0.3080  0.1895
    5Eth    Hco 2293   1.555   1.390   4.738 -0.9386 -1.2800 -0.3624
    5Eth    Hco 2294   1.649   1.322   4.867 -2.0231  0.4915  0.3416
    5Eth     Ch 2295   1.650   1.212   4.685  0.1982 -0.8307 -0.0023
    5Eth    Hcc 2296   1.565   1.151   4.716  0.5558 -2.4855 -2.2189
    5Eth    Hcc 2297   1.737   1.156   4.718 -0.3342 -1.5407  0.2164
    5Eth    Hcc 2298   1.648   1.211   4.576  0.7856 -0.7036 -0.0136
    6Eth     Ho 2299   0.104   0.618   6.909 -0.3429 -0.8211  0.1108
    6Eth     Oh 2300   0.189   0.581   6.892  0.0622  0.3498 -0.4896
    6Eth     Co 2301   0.167   0.507   6.772 -0.5011  0.5378  0.0399
    6Eth    Hco 2302   0.081   0.554   6.725 -1.3175  0.9104  1.8288
    6Eth    Hco 2303   0.134   0.406   6.796 -0.0661  0.4399  0.2262
    6Eth     Ch 2304   0.296   0.525   6.686 -1.0134  0.4685  0.6847
    6Eth    Hcc 2305   0.333   0.627   6.674  2.4053 -0.4740  2.7867
    6Eth    Hcc 2306   0.286   0.458   6.601  1.1011  1.2157 -0.1787
    6Eth    Hcc 2307   0.380   0.478   6.735 -1.2633  0.3593  1.0117
    7Eth     Ho 2308   0.963   0.454   3.046 -0.5757  1.4335 -0.6940
    7Eth     Oh 2309   1.031   0.516   3.064  0.3542  0.1572  0.2212
    7Eth     Co 2310   1.023   0.602   2.951  0.0349  0.4165 -0.4756
    7Eth    Hco 2311   0.938   0.670   2.964 -0.2870 -0.3103  1.3761
    7Eth    Hco 2312   1.006   0.540   2.863  0.2787  1.1807 -1.0689
    7Eth     Ch 2313   1.151   0.678   2.930 -0.0524  0.9150  0.3210
    7Eth    Hcc 2314   1.178   0.755   3.003 -3.3750  1.7774  0.7145
    7Eth    Hcc 2315   1.147   0.733   2.835 -0.0365 -0.1915 -0.3214
    7Eth    Hcc 2316   1.236   0.613   2.908  0.1353  1.0768  0.5626
    8Eth     Ho 2317   0.610   1.543   4.794  1.0811 -0.3242 -0.7406
    8Eth     Oh 2318   0.668   1.544   4.868 -0.0403 -0.5613  0.1546
    8Eth     Co 2319   0.731   1.422   4.868  0.2611  0.0321  0.2799
    8Eth    Hco 2320   0.800   1.413   4.784  0.3154  0.3685  0.2866
    8Eth    Hco 2321   0.662   1.339   4.883 -0.5749  0.1987 -2.4014
    8Eth     Ch 2322   0.825   1.401   4.993 -0.5695  0.0307 -0.1353
    8Eth    Hcc 2323   0.882   1.310   4.974  0.1946  0.3729  0.5185
    8Eth    Hcc 2324   0.765   1.393   5.083 -0.4612  0.7409  0.0084
    8Eth    Hcc 2325   0.890   1.489   4.999 -1.2761  0.6731 -1.5298
    9Eth     Ho 2326   0.471   2.665   2.410 -0.2475  0.3136  0.9488
    9Eth     Oh 2327   0.555   2.653   2.448  0.1649 -0.2148 -0.1144
    9Eth     Co 2328   0.529   2.587   2.574  0.6539 -0.5081  0.4314
    9Eth    Hco 2329   0.513   2.481   2.552 -0.5109  0.2963 -2.8748
    9Eth    Hco 2330   0.432   2.614   2.614  1.6511  1.5439  1.5844
    9Eth     Ch 2331   0.624   2.619   2.689  0.0215  0.2839 -0.0443
    9Eth    Hcc 2332   0.656   2.723   2.700  1.7928  0.1664 -3.2420
    9Eth    Hcc 2333   0.718   2.564   2.685  0.2434  0.5849  0.9188
    9Eth    Hcc 2334   0.587   2.584   2.785  1.4457  0.9821  0.7708
   10Eth     Ho 2335   0.269   3.156   4.873 -1.7010  2.4590  0.7544
   10Eth     Oh 2336   0.213   3.098   4.921  0.7439 -0.7832 -0.1516
   10Eth     Co 2337   0.110   3.184   4.961  0.3361 -0.2662  0.1908
   10Eth    Hco 2338   0.062   3.231   4.876  3.1202 -0.7663 -1.7347
   10Eth    Hco 2339   0.161   3.261   5.019  1.2965 -0.8533  0.1340
   10Eth     Ch 2340   0.007   3.104   5.048 -0.2176  0.0478  0.1400
   10Eth    Hcc 2341  -0.039   3.024   4.992 -2.5921  1.1895  0.4194
   10Eth    Hcc 2342  -0.063   3.175   5.093  0.7815 -1.1866  3.9040
   10Eth    Hcc 2343   0.055   3.064   5.138  3.5980  3.1234 -0.3958
   11Eth     Ho 2344   1.773   2.348   2.960 -1.4088  0.5124 -2.3248
   11Eth     Oh 2345   1.745   2.435   2.985 -0.3398  0.2577 -0.0697
   11Eth     Co 2346   1.633   2.458   2.920 -0.8245  0.7463 -0.3758
   11Eth    Hco 2347   1.549   2.395   2.947  0.2233 -0.7382 -0.5519
   11Eth    Hco 2348   1.658   2.428   2.819  0.0086  1.1031 -0.2777
   11Eth     Ch 2349   1.598   2.609   2.936  0.3772  0.2450 -0.0921
   11Eth    Hcc 2350   1.503   2.622   2.884 -0.6190  0.7159  1.8324
   11Eth    Hcc 2351   1.669   2.679   2.893 -0.0287 -0.4199 -1.8976
   11Eth    Hcc 2352   1.580   2.630   3.041  0.4246 -0.3632  0.0408
   12Eth     Ho 2353   0.739   3.178   1.773 -0.4100 -0.2550 -0.7072
   12Eth     Oh 2354   0.669   3.137   1.726 -0.3642 -0.9978 -0.1206
   12Eth     Co 2355   0.704   3.124   1.591 -0.2950  1.0994  0.3214
   12Eth    Hco 2356   0.767   3.040   1.562  0.9416  2.2697 -0.4428
   12Eth    Hco 2357   0.754   3.208   1.543  0.6060  1.3295  1.6296
   12Eth     Ch 2358   0.574   3.119   1.508 -0.1845  0.5015 -0.5422
   12Eth    Hcc 2359   0.595   3.096   1.403  2.1806  1.1482 -0.2379
   12Eth    Hcc 2360   0.533   3.220   1.507  2.0166  1.4403  1.5774
   12Eth    Hcc 2361   0.501   3.044   1.539  1.2547 -0.7720 -0.1842
   13Eth     Ho 2362   2.210   0.375   6.039  1.1017 -0.0826 -0.4603
   13Eth     Oh 2363   2.237   0.422   6.116  0.3277 -0.5770  0.1179
   13Eth     Co 2364   2.340   0.518   6.085 -0.1754 -0.6956  0.8713
   13Eth    Hco 2365   2.303   0.601   6.025  0.5933  0.1148  1.4960
   13Eth    Hco 2366   2.410   0.470   6.017 -0.6656  0.3429 -0.3809
   13Eth     Ch 2367   2.430   0.577   6.195 -1.1600  0.6120 -0.0226
   13Eth    Hcc 2368   2.502   0.504   6.234 -2.1121 -0.4803 -0.2965
   13Eth    Hcc 2369   2.359   0.601   6.274 -1.3802  2.7255 -0.8359
   13Eth    Hcc 2370   2.474   0.667   6.153  0.0324  1.7256  3.3918
   14Eth     Ho 2371   0.512   3.450   1.437  1.3395 -0.8738  0.9707
   14Eth     Oh 2372   0.581   3.491   1.389  0.4853  0.1290  0.5800
   14Eth     Co 2373   0.598   3.628   1.423 -0.7171  0.2431 -0.5942
   14Eth    Hco 2374   0.502   3.678   1.430  0.4322  2.6590 -1.5890
   14Eth    Hco 2375   0.667   3.683   1.359  2.5984 -0.4588  2.2187
   14Eth     Ch 2376   0.673   3.624   1.554  0.0906  0.5041 -0.3246
   14Eth    Hcc 2377   0.633   3.558   1.631  1.4688 -0.4669 -0.4148
   14Eth    Hcc 2378   0.649   3.721   1.597  1.8515  2.5239 -3.6764
   14Eth    Hcc 2379   0.779   3.602   1.545 -0.6844 -2.9676 -1.5583
   15Eth     Ho 2380   0.985   3.020   4.802 -0.8334 -0.3541  0.4020
   15Eth     Oh 2381   1.048   2.994   4.867 -0.4848  0.5081  0.4168
   15Eth     Co 2382   1.007   2.869   4.909  0.1712  0.2004 -0.5379
   15Eth    Hco 2383   1.040   2.792   4.840 -0.8498 -0.8863  0.1653
   15Eth    Hco 2384   0.899   2.863   4.892  0.0666  2.4255 -0.8938
   15Eth     Ch 2385   1.050   2.833   5.057  0.3160  0.1076  0.2033
   15Eth    Hcc 2386   0.999   2.739   5.079  0.1385  0.2128  0.2458
   15Eth    Hcc 2387   1.019   2.909   5.129 -0.7296 -0.7891  0.7286
   15Eth    Hcc 2388   1.156   2.815   5.072  0.9362  2.1100 -1.6200
   16Eth     Ho 2389   0.575   1.829   8.443 -2.4328 -0.8146  1.2025
   16Eth     Oh 2390   0.563   1.901   8.502  1.0218  0.4178  0.5108
   16Eth     Co 2391   0.671   1.890   8.579  0.3603 -0.1945  0.5324
   16Eth    Hco 2392   0.753   1.947   8.534 -0.7643  0.3202 -0.8971
   16Eth    Hco 2393   0.696   1.784   8.583 -3.8369 -1.2110  3.7442
   16Eth     Ch 2394   0.657   1.948   8.719 -0.2280  0.4972 -0.3061
   16Eth    Hcc 2395   0.742   1.925   8.784  0.5963  0.4723 -1.3758
   16Eth    Hcc 2396   0.579   1.897   8.776 -0.3709  0.8348 -0.2012
   16Eth    Hcc 2397   0.653   2.056   8.717 -0.9311  0.4791  0.0852
   17Eth     Ho 2398   1.515   2.136   9.078 -0.6865  0.3599 -2.1397
   17Eth     Oh 2399   1.471   2.053   9.075 -0.4875  0.1273  0.2822
   17Eth     Co 2400   1.497   1.983   9.196  0.2023 -0.0554 -0.1166
   17Eth    Hco 2401   1.512   2.057   9.274 -1.1250  0.9510 -0.8017
   17Eth    Hco 2402   1.579   1.910   9.196  2.3380  2.2742  1.0278
   17Eth     Ch 2403   1.363   1.911   9.211  0.1535 -0.0358 -0.4059
   17Eth    Hcc 2404   1.284   1.985   9.199  0.2173  0.1723  0.4539
   17Eth    Hcc 2405   1.341   1.876   9.312 -3.1789  0.4415 -0.9039
   17Eth    Hcc 2406   1.340   1.822   9.153 -0.2909 -0.6599  0.7161
   18Eth     Ho 2407   2.388   2.067   9.802  0.2169  0.8255  1.4465
   18Eth     Oh 2408   2.357   1.983   9.829 -0.6296  0.4970 -0.4563
   18Eth     Co 2409   2.215   1.982   9.817 -0.7737  0.0548 -0.6916
   18Eth    Hco 2410   2.185   1.945   9.719  0.1063 -4.2566  0.5149
   18Eth    Hco 2411   2.174   2.082   9.823 -1.8357 -0.3658 -0.8609
   18Eth     Ch 2412   2.145   1.894   9.924  0.5991  0.8451  0.0114
   18Eth    Hcc 2413   2.169   1.791   9.896 -0.8262  0.3233  0.6639
   18Eth    Hcc 2414   2.038   1.908   9.910  0.0655 -0.5494  2.2566
   18Eth    Hcc 2415   2.175   1.909  10.028  0.3038 -0.3157  0.2779
   19Eth     Ho 2416   2.707   3.068   3.082 -0.9183 -1.3456  0.7126
   19Eth     Oh 2417   2.791   3.048   3.121 -0.1098 -0.0409 -0.3094
   19Eth     Co 2418   2.814   3.110   3.244 -0.0497 -0.1793 -0.2798
   19Eth    Hco 2419   2.730   3.078   3.307 -1.4891  0.8656 -1.6233
   19Eth    Hco 2420   2.784   3.213   3.224 -1.1386 -0.5058 -0.3886
   19Eth     Ch 2421   2.948   3.076   3.312  0.3299 -0.0228 -0.3123
   19Eth    Hcc 2422   2.965   3.115   3.412  1.0833 -0.9711 -0.0548
   19Eth    Hcc 2423   3.027   3.116   3.247  0.3852  1.9188  0.9102
   19Eth    Hcc 2424   2.953   2.969   3.333 -2.1875  0.0781  0.9622
   20Eth     Ho 2425   1.048   1.967   7.444  1.2410  0.7653 -1.7594
   20Eth     Oh 2426   1.102   1.894   7.467 -0.3603  0.0874 -0.0552
   20Eth     Co 2427   1.191   1.948   7.563 -0.1983  0.2983  0.0662
   20Eth    Hco 2428   1.235   1.873   7.628  0.2146  0.6309  0.1738
   20Eth    Hco 2429   1.138   2.006   7.638  0.5656  0.8631  0.1802
   20Eth     Ch 2430   1.311   2.021   7.498  0.3830 -0.5360  0.3760
   20Eth    Hcc 2431   1.368   1.954   7.434 -1.1719  0.0416 -1.6556
   20Eth    Hcc 2432   1.378   2.073   7.567  0.2702 -0.1826  0.2165
   20Eth    Hcc 2433   1.273   2.098   7.432  2.1925 -0.0704 -0.1589
   21Eth     Ho 2434   1.999   3.218   5.587 -1.1959 -1.0883  0.9709
   21Eth     Oh 2435   2.008   3.140   5.536  0.3160 -0.2080 -0.1784
   21Eth     Co 2436   2.023   3.037   5.632  0.3690 -0.1679 -0.0768
   21Eth    Hco 2437   1.939   3.030   5.701  0.8311  0.8322  0.5902
   21Eth    Hco 2438   2.112   3.061   5.688 -1.2478  1.7507  1.7373
   21Eth     Ch 2439   2.047   2.904   5.564  0.0768  0.1346  0.5742
   21Eth    Hcc 2440   2.115   2.913   5.480 -0.5932 -2.0778 -0.2550
   21Eth    Hcc 2441   1.950   2.861   5.539 -0.3354  1.1867  0.3307
   21Eth    Hcc 2442   2.087   2.834   5.637  0.4135 -0.2176  0.0519
   22Eth     Ho 2443   3.030   2.081   1.470 -3.1235 -0.1959 -2.6296
   22Eth     Oh 2444   3.036   1.988   1.474 -0.5347  0.0349  0.2804
   22Eth     Co 2445   2.918   1.927   1.513  0.9307 -0.7326 -0.0118
   22Eth    Hco 2446   2.846   1.979   1.451 -1.8859 -1.5552  2.4359
   22Eth    Hco 2447   2.898   1.959   1.615 -0.0869 -0.2945 -0.3432
   22Eth     Ch 2448   2.935   1.776   1.498  0.8676  0.0279  0.9907
   22Eth    Hcc 2449   2.851   1.715   1.532 -0.0436  0.0953 -1.0924
   22Eth    Hcc 2450   3.020   1.749   1.560  2.1033 -1.3278 -1.2564
   22Eth    Hcc 2451   2.962   1.745   1.398  1.3904  1.4129  0.6903
   23Eth     Ho 2452   3.015   1.612   9.734  0.7131 -1.2592 -1.5307
   23Eth     Oh 2453   3.082   1.675   9.714  0.0211 -0.0771 -0.2027
   23Eth     Co 2454   3.172   1.658   9.823  0.1594  0.0876 -0.1021
   23Eth    Hco 2455   3.202   1.553   9.824  1.9598  0.5428  3.7240
   23Eth    Hco 2456   3.121   1.668   9.919 -1.4669 -1.9422 -0.7125
   23Eth     Ch 2457   3.309   1.741   9.826  0.0127 -0.5778 -0.1461
   23Eth    Hcc 2458   3.378   1.758   9.743  0.2007  4.3107  0.8633
   23Eth    Hcc 2459   3.371   1.698   9.905  1.0607  1.5584  0.2333
   23Eth    Hcc 2460   3.294   1.845   9.854  2.0092 -0.0915 -0.8205
   24Eth     Ho 2461   3.184   1.983   1.600  1.2152  0.4261 -0.4573
   24Eth     Oh 2462   3.247   1.954   1.664  0.5575  0.2182  0.1106
   24Eth     Co 2463   3.350   1.888   1.593 -0.0658 -0.0494  0.1190
   24Eth    Hco 2464   3.444   1.932   1.626 -0.8807  0.4617  1.8381
   24Eth    Hco 2465   3.335   1.907   1.487 -2.1548 -0.9342  0.2214
   24Eth     Ch 2466   3.357   1.743   1.627 -0.2971  0.5904 -0.8297
   24Eth    Hcc 2467   3.384   1.717   1.729 -0.3194  1.5337 -0.5854
   24Eth    Hcc 2468   3.437   1.701   1.565 -2.8258 -3.0580 -1.7961
   24Eth    Hcc 2469   3.267   1.690   1.595  0.4479 -0.7691 -0.7400
   25Eth     Ho 2470   2.435   2.055   3.481 -0.3402 -1.5787  0.6695
   25Eth     Oh 2471   2.364   2.074   3.540  0.1386  0.0597  0.7314
   25Eth     Co 2472   2.350   1.957   3.618  0.6202 -0.2941 -0.0636
   25Eth    Hco 2473   2.449   1.936   3.659  0.5383  0.8607  0.7560
   25Eth    Hco 2474   2.327   1.868   3.559  0.4801 -0.8999  0.9065
   25Eth     Ch 2475   2.247   1.978   3.738 -0.0681  0.1676  0.0667
   25Eth    Hcc 2476   2.245   1.883   3.791 -1.7133 -0.0359 -0.3247
   25Eth    Hcc 2477   2.149   1.992   3.692  0.7152  0.4584 -1.5495
   25Eth    Hcc 2478   2.275   2.062   3.802  3.2718 -0.0755 -0.9950
   26Eth     Ho 2479   3.176   1.056   7.145 -0.8435  0.9069  1.1881
   26Eth     Oh 2480   3.262   1.095   7.139 -0.3987 -0.2581 -0.3067
   26Eth     Co 2481   3.261   1.228   7.100  0.4687  0.6017 -0.1494
   26Eth    Hco 2482   3.214   1.287   7.178  1.9898  0.4814  0.8627
   26Eth    Hco 2483   3.206   1.238   7.006  1.1888 -0.3148 -0.6732
   26Eth     Ch 2484   3.402   1.269   7.078  0.4515 -0.4438 -0.3153
   26Eth    Hcc 2485   3.450   1.243   7.173 -1.9169  1.3990  1.4488
   26Eth    Hcc 2486   3.420   1.376   7.070 -1.7840 -0.0184 -0.0676
   26Eth    Hcc 2487   3.453   1.233   6.989  0.9746  0.1510 -0.2623
   27Eth     Ho 2488   1.574   1.261   2.633  2.0112 -0.1686  1.7050
   27Eth     Oh 2489   1.536   1.308   2.705 -0.3509 -0.1812  0.5431
   27Eth     Co 2490   1.491   1.215   2.797 -0.0297  0.2976  0.5837
   27Eth    Hco 2491   1.558   1.131   2.778  0.2565  0.5040  0.6765
   27Eth    Hco 2492   1.388   1.184   2.780 -0.2786  1.6379 -0.5112
   27Eth     Ch 2493   1.507   1.255   2.947  0.2317 -0.9290 -1.2550
   27Eth    Hcc 2494   1.474   1.357   2.966 -0.9848 -1.1781 -2.0021
   27Eth    Hcc 2495   1.608   1.239   2.986 -0.7471  0.7356  2.2095
   27Eth    Hcc 2496   1.447   1.192   3.012  1.0663  0.7687  1.2356
   28Eth     Ho 2497   1.989   3.255   7.132 -0.3062 -0.6926 -2.3795
   28Eth     Oh 2498   1.899   3.266   7.158  0.3188  0.1854 -0.5509
   28Eth     Co 2499   1.873   3.191   7.276  0.2258  0.7979  0.4618
   28Eth    Hco 2500   1.949   3.221   7.347 -0.6179 -1.7334  2.5169
   28Eth    Hco 2501   1.884   3.085   7.254 -1.0157  0.8132 -0.2870
   28Eth     Ch 2502   1.740   3.218   7.331  0.7096 -0.1915 -0.4729
   28Eth    Hcc 2503   1.660   3.180   7.268 -0.6012  1.5016  0.1520
   28Eth    Hcc 2504   1.724   3.323   7.354 -1.1901 -0.6230  0.3184
   28Eth    Hcc 2505   1.718   3.157   7.420  4.2064 -1.3815 -0.3327
   29Eth     Ho 2506   2.664   0.807   5.833  1.2097 -0.4512  1.4475
   29Eth     Oh 2507   2.651   0.741   5.767 -0.1141  0.0757  1.1667
   29Eth     Co 2508   2.517   0.691   5.770 -0.7339 -0.9132  0.1885
   29Eth    Hco 2509   2.443   0.748   5.715 -0.7415 -3.4069 -2.5026
   29Eth    Hco 2510   2.484   0.695   5.874  1.2054 -0.7078  0.8180
   29Eth     Ch 2511   2.511   0.542   5.726 -0.4154 -0.3776 -0.3084
   29Eth    Hcc 2512   2.507   0.521   5.619 -0.1725  0.9669 -0.5943
   29Eth    Hcc 2513   2.417   0.512   5.773 -2.0077  4.5693  0.0134
   29Eth    Hcc 2514   2.600   0.500   5.772 -0.0238 -1.2665 -1.8682
   30Eth     Ho 2515   1.082   1.617   8.372 -2.7407  0.5561  0.6381
   30Eth     Oh 2516   1.086   1.592   8.463  0.3192 -0.4165  0.3034
   30Eth     Co 2517   0.996   1.670   8.522  0.8964  0.3926 -0.0907
   30Eth    Hco 2518   0.923   1.725   8.462 -0.3042  1.0444  1.8985
   30Eth    Hco 2519   1.059   1.758   8.537 -1.3984  1.9099  1.0259
   30Eth     Ch 2520   0.942   1.607   8.649 -0.6727 -0.1430 -0.0141
   30Eth    Hcc 2521   0.883   1.676   8.710 -3.7051 -1.9259 -0.8342
   30Eth    Hcc 2522   1.026   1.585   8.715 -1.3956  2.6805  1.9616
   30Eth    Hcc 2523   0.876   1.521   8.631 -1.0473  0.5507 -2.0443
   31Eth     Ho 2524   0.254   2.405   2.018 -0.4648  0.5317 -0.9070
   31Eth     Oh 2525   0.258   2.341   1.949 -0.2985 -0.0706 -0.3418
   31Eth     Co 2526   0.141   2.266   1.941 -0.0963  0.2891  0.1130
   31Eth    Hco 2527   0.062   2.338   1.922 -0.1660  0.0366 -0.5932
   31Eth    Hco 2528   0.140   2.222   2.041  0.9393  0.6148  0.2716
   31Eth     Ch 2529   0.155   2.160   1.827 -0.1656 -0.3668  0.4602
   31Eth    Hcc 2530   0.060   2.106   1.817 -0.1171 -0.6000  1.2381
   31Eth    Hcc 2531   0.235   2.095   1.860  0.0664  0.6707  2.0357
   31Eth    Hcc 2532   0.190   2.217   1.741  1.5545  0.9986  2.0280
   32Eth     Ho 2533   0.706   0.690   7.641  3.6722  0.6798 -1.3806
   32Eth     Oh 2534   0.667   0.712   7.558 -0.5953 -0.1369  0.2333
   32Eth     Co 2535   0.665   0.851   7.557 -0.2246 -0.1664 -0.5582
   32Eth    Hco 2536   0.765   0.888   7.581 -0.4000  0.0562 -0.1556
   32Eth    Hco 2537   0.592   0.886   7.630  0.7285  0.1217  0.2728
   32Eth     Ch 2538   0.622   0.914   7.418 -0.7779  0.2003  0.1879
   32Eth    Hcc 2539   0.705   0.909   7.348 -0.7197 -0.6899  0.3160
   32Eth    Hcc 2540   0.603   1.021   7.423  0.8588  0.5722 -1.0468
   32Eth    Hcc 2541   0.538   0.872   7.364  1.0684  0.0237 -2.6240
   33Eth     Ho 2542   0.272   3.333   7.761  1.0599  1.6416  0.0447
   33Eth     Oh 2543   0.203   3.396   7.766 -0.1175  0.3833 -0.0126
   33Eth     Co 2544   0.178   3.415   7.906 -0.4586  0.3293  0.3391
   33Eth    Hco 2545   0.280   3.413   7.943 -0.0528 -1.3148 -0.8246
   33Eth    Hco 2546   0.116   3.337   7.949 -2.0466  0.8162 -1.0020
   33Eth     Ch 2547   0.152   3.567   7.936  0.4165 -0.2161 -1.1720
   33Eth    Hcc 2548   0.046   3.586   7.920  0.2513  0.3899  0.5024
   33Eth    Hcc 2549   0.206   3.642   7.877  2.8354 -0.6312  0.4244
   33Eth    Hcc 2550   0.174   3.590   8.040 -0.2102 -0.0284 -1.0787
   34Eth     Ho 2551   2.274   0.462   9.714 -0.4879  2.3213  0.7645
   34Eth     Oh 2552   2.304   0.450   9.802 -0.2098  0.0536  0.4013
   34Eth     Co 2553   2.233   0.324   9.814  0.4206 -0.1762  0.2280
   34Eth    Hco 2554   2.256   0.270   9.722 -1.5310  2.8179 -2.1168
   34Eth    Hco 2555   2.125   0.339   9.807  0.6807  1.4695 -0.7199
   34Eth     Ch 2556   2.288   0.244   9.928  1.0985  0.0790 -0.6666
   34Eth    Hcc 2557   2.265   0.313  10.009  0.5245 -0.4224 -0.4024
   34Eth    Hcc 2558   2.391   0.214   9.910  1.4772  1.4651 -0.8290
   34Eth    Hcc 2559   2.244   0.145   9.938  0.5416  0.4129  0.2321
   35Eth     Ho 2560   0.903   1.466   9.926  0.5250  0.8355  0.2835
   35Eth     Oh 2561   0.955   1.478   9.848  0.0673  0.4847 -0.0843
   35Eth     Co 2562   0.951   1.616   9.815 -0.2530  0.4904  0.4948
   35Eth    Hco 2563   0.920   1.670   9.905  1.1358  0.3256  1.0862
   35Eth    Hco 2564   0.878   1.628   9.735 -0.3465  0.8566  0.6329
   35Eth     Ch 2565   1.092   1.665   9.774  0.0879 -0.4599  0.3447
   35Eth    Hcc 2566   1.116   1.639   9.672  2.1575 -2.2224  1.2544
   35Eth    Hcc 2567   1.177   1.625   9.830  1.0913  1.9573  0.6295
   35Eth    Hcc 2568   1.098   1.774   9.765  2.0479 -0.4556  1.3683
   36Eth     Ho 2569   0.052   3.312   9.591 -0.8530 -0.0237 -1.5481
   36Eth     Oh 2570   0.012   3.391   9.623 -0.0169 -0.5297  0.7651
   36Eth     Co 2571  -0.050   3.373   9.746 -0.0260  0.1153 -0.1873
   36Eth    Hco 2572   0.036   3.362   9.812 -1.4251  0.9494  1.8163
   36Eth    Hco 2573  -0.100   3.276   9.743  0.5488 -0.2401  1.1023
   36Eth     Ch 2574  -0.126   3.487   9.797  0.1974 -0.6344  0.5822
   36Eth    Hcc 2575  -0.060   3.573   9.808  0.2590 -0.6052  0.0219
   36Eth    Hcc 2576  -0.174   3.474   9.894 -1.0151  0.7274  0.1961
   36Eth    Hcc 2577  -0.203   3.526   9.729  0.2773 -1.2551  0.1313
   37Eth     Ho 2578   0.239   2.663   5.901  0.2591  0.5321  1.1383
   37Eth     Oh 2579   0.151   2.675   5.930 -0.1104  0.3774  0.0978
   37Eth     Co 2580   0.101   2.545   5.955  0.5581 -0.0683 -0.3122
   37Eth    Hco 2581   0.169   2.502   6.030 -0.7544 -0.3459  0.7380
   37Eth    Hco 2582   0.112   2.483   5.866 -1.4890 -1.8092  0.5935
   37Eth     Ch 2583  -0.036   2.559   6.020  0.4080 -0.1509 -0.2183
   37Eth    Hcc 2584  -0.066   2.456   6.039 -0.7914 -0.1219 -1.8864
   37Eth    Hcc 2585  -0.111   2.606   5.957  1.1390 -0.2271 -1.1511
   37Eth    Hcc 2586  -0.028   2.600   6.121  0.2113 -1.2605  0.2517
   38Eth     Ho 2587   0.539   2.727   9.626  2.0863 -1.2017 -1.6660
   38Eth     Oh 2588   0.591   2.764   9.695 -0.1213 -0.2839 -0.4393
   38Eth     Co 2589   0.583   2.664   9.791  0.3986  0.2008  0.0964
   38Eth    Hco 2590   0.630   2.578   9.745  0.2037  1.4899 -2.6532
   38Eth    Hco 2591   0.476   2.661   9.813  0.1182  1.2571 -1.0363
   38Eth     Ch 2592   0.658   2.703   9.914 -0.6226 -0.5851  0.5813
   38Eth    Hcc 2593   0.691   2.623   9.980  4.9553  2.1073  1.3437
   38Eth    Hcc 2594   0.600   2.771   9.976 -2.3856 -0.9019 -0.6930
   38Eth    Hcc 2595   0.747   2.758   9.884 -0.9686 -0.2761  0.1296
   39Eth     Ho 2596   2.791   0.104   2.212 -0.0121 -0.9133 -0.2564
   39Eth     Oh 2597   2.710   0.135   2.249  0.1193 -0.4186 -0.3916
   39Eth     Co 2598   2.703   0.068   2.371  0.0458 -0.0664  1.1482
   39Eth    Hco 2599   2.785   0.100   2.435 -0.4613  2.3923  0.6358
   39Eth    Hco 2600   2.702  -0.041   2.368 -0.0449 -0.0244 -1.2447
   39Eth     Ch 2601   2.574   0.116   2.447 -0.0250  0.5126  0.3502
   39Eth    Hcc 2602   2.588   0.223   2.462 -0.6984  0.5106  1.0533
   39Eth    Hcc 2603   2.583   0.062   2.541  2.1151  0.3741  0.0897
   39Eth    Hcc 2604   2.484   0.088   2.391  1.5088 -1.3190 -1.2633
   40Eth     Ho 2605   0.682   2.354   7.710 -0.0450  0.3186  0.0792
   40Eth     Oh 2606   0.719   2.439   7.724 -0.1101  0.3764 -0.1025
   40Eth     Co 2607   0.618   2.531   7.687  0.2722  0.3635  0.1388
   40Eth    Hco 2608   0.518   2.502   7.719  0.5091  0.9465  1.4230
   40Eth    Hco 2609   0.612   2.526   7.578  1.1470  0.6450  0.0688
   40Eth     Ch 2610   0.649   2.667   7.752  0.2617  0.4991 -0.5076
   40Eth    Hcc 2611   0.661   2.649   7.859 -0.7329 -0.5482 -0.5640
   40Eth    Hcc 2612   0.572   2.744   7.745 -0.8751 -0.4197  1.3390
   40Eth    Hcc 2613   0.748   2.692   7.716  1.1109 -0.0575  1.3649
   41Eth     Ho 2614   3.167   1.652   7.811 -3.3427 -0.5385 -2.2815
   41Eth     Oh 2615   3.108   1.706   7.862 -0.4557  0.7481 -0.1443
   41Eth     Co 2616   3.123   1.845   7.833  0.0234 -0.1039 -0.6335
   41Eth    Hco 2617   3.092   1.854   7.729  0.6719 -0.3739 -0.8553
   41Eth    Hco 2618   3.229   1.870   7.824  0.1190  0.1759  1.1948
   41Eth     Ch 2619   3.050   1.924   7.935  0.2689 -0.2626  0.2835
   41Eth    Hcc 2620   3.062   1.888   8.037  0.5782 -0.8870  0.0313
   41Eth    Hcc 2621   2.944   1.906   7.913  0.7830 -2.3528 -0.6487
   41Eth    Hcc 2622   3.088   2.026   7.938  0.1142 -0.1921 -0.0912
   42Eth     Ho 2623   0.057   0.826   2.006  1.4586  1.0369  0.8763
   42Eth     Oh 2624   0.091   0.761   1.948 -0.4875 -0.0118  0.8900
   42Eth     Co 2625   0.148   0.669   2.034 -0.3961  0.5788  0.5772
   42Eth    Hco 2626   0.123   0.567   2.002 -0.4224  0.9207 -0.5208
   42Eth    Hco 2627   0.105   0.682   2.133 -0.6543  1.4935  0.3460
   42Eth     Ch 2628   0.307   0.682   2.031 -0.0139  0.0060 -0.9228
   42Eth    Hcc 2629   0.332   0.770   2.091  0.2588  0.1576 -1.2541
   42Eth    Hcc 2630   0.343   0.702   1.930  1.8819  3.9502  0.4014
   42Eth    Hcc 2631   0.360   0.599   2.077 -0.0948  0.5984  0.2389
   43Eth     Ho 2632   2.251   2.624   7.501 -0.5890  0.1553 -1.7095
   43Eth     Oh 2633   2.208   2.543   7.520  0.1841  0.1897  0.3558
   43Eth     Co 2634   2.283   2.456   7.437 -0.2417 -0.0232 -0.3859
   43Eth    Hco 2635   2.386   2.451   7.472  0.4066  0.0446 -2.2273
   43Eth    Hco 2636   2.281   2.503   7.339  1.1844  0.0586 -0.3913
   43Eth     Ch 2637   2.225   2.315   7.438 -0.0201 -0.0005 -0.2778
   43Eth    Hcc 2638   2.275   2.271   7.352  0.6608  0.1757  0.0275
   43Eth    Hcc 2639   2.122   2.319   7.403 -0.4165  0.4871  0.9160
   43Eth    Hcc 2640   2.229   2.254   7.528 -2.6667 -1.8321 -1.3045
   44Eth     Ho 2641   3.272   2.660   5.072 -3.1019 -0.0882  2.1874
   44Eth     Oh 2642   3.281   2.566   5.069 -0.5764  0.1469 -0.2012
   44Eth     Co 2643   3.294   2.522   4.931 -0.2222 -0.3040 -0.4282
   44Eth    Hco 2644   3.326   2.605   4.867 -1.8282 -1.2554 -2.5555
   44Eth    Hco 2645   3.197   2.489   4.894 -0.1654  1.1957 -2.0141
   44Eth     Ch 2646   3.395   2.408   4.910  0.5638 -0.4353  0.3324
   44Eth    Hcc 2647   3.392   2.341   4.996  0.4723 -2.8727 -1.5162
   44Eth    Hcc 2648   3.494   2.441   4.941 -0.1065  0.9137  1.0986
   44Eth    Hcc 2649   3.390   2.354   4.816 -0.8934  1.0212 -0.4530
   45Eth     Ho 2650   0.042   3.301   7.714 -0.6145  1.1367  0.7193
   45Eth     Oh 2651  -0.052   3.291   7.719 -0.5735  0.5806  0.4535
   45Eth     Co 2652  -0.071   3.160   7.765  0.6704  0.1740  0.4170
   45Eth    Hco 2653   0.026   3.110   7.752  0.8263  0.6919 -0.5263
   45Eth    Hco 2654  -0.136   3.098   7.703  0.0394  1.3205 -0.0760
   45Eth     Ch 2655  -0.135   3.162   7.901 -0.1532  0.2708 -0.7332
   45Eth    Hcc 2656  -0.135   3.060   7.941  2.0255  0.0162 -1.2737
   45Eth    Hcc 2657  -0.236   3.201   7.906  0.4201  1.6031  1.3072
   45Eth    Hcc 2658  -0.071   3.221   7.967 -0.2772 -0.7171  0.2775
   46Eth     Ho 2659   1.958   2.060   6.856 -0.4473  3.2666  0.0777
   46Eth     Oh 2660   2.010   2.077   6.932 -0.0136  0.2544  0.5500
   46Eth     Co 2661   1.985   2.207   6.980 -0.1501 -0.7514  0.2080
   46Eth    Hco 2662   1.880   2.234   6.967 -0.3063 -1.0452  0.8528
   46Eth    Hco 2663   2.035   2.285   6.921 -0.3115  0.5224  1.7160
   46Eth     Ch 2664   2.034   2.208   7.128  0.4407 -0.2300  0.0066
   46Eth    Hcc 2665   2.022   2.302   7.182  0.1177  0.8027 -1.8417
   46Eth    Hcc 2666   2.138   2.175   7.138  0.8770  0.7874 -1.0295
   46Eth    Hcc 2667   1.977   2.137   7.188  3.1342 -1.5322  1.1517
   47Eth     Ho 2668   0.426   0.348   7.087 -0.0045 -1.3104 -0.7802
   47Eth     Oh 2669   0.503   0.295   7.085  0.8293 -0.1346 -0.0240
   47Eth     Co 2670   0.604   0.382   7.040  0.1245 -0.0281 -0.2936
   47Eth    Hco 2671   0.603   0.478   7.093  0.4365  0.6331 -1.4677
   47Eth    Hco 2672   0.580   0.402   6.936 -2.2661  0.0794  0.2478
   47Eth     Ch 2673   0.739   0.322   7.059 -0.5153  0.0156  1.1610
   47Eth    Hcc 2674   0.770   0.264   6.972 -0.8828  0.1918  0.9061
   47Eth    Hcc 2675   0.751   0.276   7.156  1.6646  2.8358  2.2921
   47Eth    Hcc 2676   0.816   0.399   7.063  0.3429 -0.6037 -1.7714
   48Eth     Ho 2677   0.323   0.848   1.603 -0.6705  0.7451 -0.9244
   48Eth     Oh 2678   0.406   0.852   1.559 -0.0651 -0.1485  0.1369
   48Eth     Co 2679   0.402   0.968   1.473 -0.0360 -0.3408 -0.9814
   48Eth    Hco 2680   0.407   1.062   1.529 -1.4723 -0.7562 -0.1276
   48Eth    Hco 2681   0.307   0.969   1.421  0.4966  0.5223 -1.9628
   48Eth     Ch 2682   0.514   0.953   1.370 -0.3391 -0.0560 -0.0383
   48Eth    Hcc 2683   0.612   0.979   1.410 -0.9691  0.4267  1.2172
   48Eth    Hcc 2684   0.507   1.016   1.282  0.3664 -0.7724 -0.6174
   48Eth    Hcc 2685   0.521   0.851   1.331  1.6325 -0.2532  0.7845
   49Eth     Ho 2686   1.884   2.626   4.069  1.0073  0.3890  0.7910
   49Eth     Oh 2687   1.951   2.640   4.004 -0.2102  0.3439 -0.4794
   49Eth     Co 2688   1.889   2.569   3.895  0.0225  0.5121  0.1245
   49Eth    Hco 2689   1.798   2.625   3.870 -1.5664 -1.7627  0.6345
   49Eth    Hco 2690   1.857   2.469   3.925 -0.2110  0.6400  0.3087
   49Eth     Ch 2691   1.989   2.567   3.782  0.1473 -0.4064 -0.0064
   49Eth    Hcc 2692   2.072   2.511   3.825  2.2094  1.2862 -1.7018
   49Eth    Hcc 2693   2.026   2.666   3.756  0.6197 -0.4828  0.3497
   49Eth    Hcc 2694   1.963   2.517   3.689 -1.6626 -2.9570  1.7783
   50Eth     Ho 2695   3.045   1.458   3.095 -2.8141  0.1155  0.7995
   50Eth     Oh 2696   3.081   1.450   3.181 -0.4310  0.2942 -0.1623
   50Eth     Co 2697   3.222   1.423   3.170 -0.1108 -0.2080 -0.2152
   50Eth    Hco 2698   3.263   1.467   3.079 -1.4442  1.5597  0.0193
   50Eth    Hco 2699   3.248   1.318   3.169  0.1206 -0.1536  0.0858
   50Eth     Ch 2700   3.307   1.508   3.267 -0.3911 -0.4365 -0.3988
   50Eth    Hcc 2701   3.279   1.482   3.369  1.1757  0.4660  0.2761
   50Eth    Hcc 2702   3.289   1.614   3.250 -0.7867 -0.3263  0.6790
   50Eth    Hcc 2703   3.413   1.490   3.252 -0.3516 -0.4826 -0.0712
   51Eth     Ho 2704   2.083   2.094   4.238  1.0946  1.7803  1.3864
   51Eth     Oh 2705   2.040   2.151   4.176 -0.5813  0.1807  1.0558
   51Eth     Co 2706   2.132   2.172   4.072 -0.2084  0.2752 -0.4096
   51Eth    Hco 2707   2.185   2.081   4.046 -2.2810 -0.8014 -0.9853
   51Eth    Hco 2708   2.207   2.239   4.113 -0.0337 -0.1455 -0.0382
   51Eth     Ch 2709   2.068   2.234   3.948 -0.2834  0.3143  0.7015
   51Eth    Hcc 2710   2.012   2.318   3.989 -0.0773  0.1005  1.4269
   51Eth    Hcc 2711   1.993   2.169   3.903  0.4151  0.1511 -0.2507
   51Eth    Hcc 2712   2.140   2.263   3.872 -2.4327 -1.4096 -2.0797
   52Eth     Ho 2713   0.349   1.496   5.074 -0.0644 -0.3682 -1.7951
   52Eth     Oh 2714   0.289   1.565   5.049 -0.2387 -0.0015 -0.3883
   52Eth     Co 2715   0.340   1.619   4.930  0.3975 -0.1181 -0.0928
   52Eth    Hco 2716   0.361   1.526   4.876 -1.1315  0.0226 -0.9531
   52Eth    Hco 2717   0.438   1.665   4.946  0.2898  0.0107  0.1762
   52Eth     Ch 2718   0.242   1.714   4.866 -0.5782  0.9413 -1.4100
   52Eth    Hcc 2719   0.151   1.665   4.832 -0.6844  0.0732  0.1124
   52Eth    Hcc 2720   0.303   1.744   4.781 -2.3529  4.4648 -1.5251
   52Eth    Hcc 2721   0.215   1.808   4.914  3.1237  2.5370 -2.2558
   53Eth     Ho 2722   0.444   0.579   9.697  0.5381 -2.2297 -0.1689
   53Eth     Oh 2723   0.354   0.559   9.674  0.0603  0.1705 -0.4508
   53Eth     Co 2724   0.297   0.484   9.785  0.6487  0.1880 -0.4297
   53Eth    Hco 2725   0.208   0.540   9.815  0.3493 -0.9803  0.9495
   53Eth    Hco 2726   0.372   0.495   9.863  1.7091 -1.1331 -1.2391
   53Eth     Ch 2727   0.273   0.335   9.765  0.3479  0.1920  0.4903
   53Eth    Hcc 2728   0.321   0.298   9.674 -2.0089 -0.8379 -0.3685
   53Eth    Hcc 2729   0.167   0.316   9.753  0.7056 -1.7853  0.2512
   53Eth    Hcc 2730   0.311   0.290   9.856  3.5268  3.0010  0.6609
   54Eth     Ho 2731   1.345   1.956   8.341  0.8437  0.3279  1.1726
   54Eth     Oh 2732   1.349   1.866   8.314  0.7060  0.6176  0.1494
   54Eth     Co 2733   1.399   1.795   8.424  0.2788  0.0014 -0.0806
   54Eth    Hco 2734   1.344   1.818   8.515 -0.0910  3.2254 -1.0477
   54Eth    Hco 2735   1.497   1.843   8.427  0.2684  0.0079  0.1855
   54Eth     Ch 2736   1.423   1.642   8.399 -0.7717 -0.0507 -0.1770
   54Eth    Hcc 2737   1.436   1.594   8.496  0.8450 -0.8048 -0.7456
   54Eth    Hcc 2738   1.517   1.619   8.349 -1.2226 -2.5256  0.0753
   54Eth    Hcc 2739   1.335   1.599   8.352 -0.1346 -0.4306 -1.0369
   55Eth     Ho 2740   1.078   0.471   7.076  3.9361  0.7455 -0.2970
   55Eth     Oh 2741   1.093   0.406   7.142  0.5697 -0.0586 -0.2446
   55Eth     Co 2742   1.086   0.271   7.093  0.4461 -0.1338 -0.1338
   55Eth    Hco 2743   1.163   0.256   7.018 -0.2419  0.5706 -0.9954
   55Eth    Hco 2744   0.996   0.267   7.031  0.6415 -0.2067 -0.4147
   55Eth     Ch 2745   1.094   0.167   7.203 -0.0815  0.5382  0.1700
   55Eth    Hcc 2746   1.193   0.172   7.248  0.4966 -1.6237 -0.8024
   55Eth    Hcc 2747   1.087   0.063   7.172 -1.6893  0.4862  0.6999
   55Eth    Hcc 2748   1.024   0.177   7.285 -1.3270  0.3915 -0.8651
   56Eth     Ho 2749   0.822   3.017   7.782 -1.5382  0.3483  0.6064
   56Eth     Oh 2750   0.826   3.095   7.730  0.0602 -0.0274  0.1361
   56Eth     Co 2751   0.735   3.067   7.618  0.4545 -0.4256 -0.0968
   56Eth    Hco 2752   0.630   3.084   7.640  0.5473  0.5668 -0.4118
   56Eth    Hco 2753   0.750   2.959   7.604  1.3122 -0.2476 -0.5890
   56Eth     Ch 2754   0.761   3.141   7.486 -0.3349 -0.6592 -0.2798
   56Eth    Hcc 2755   0.863   3.129   7.449  0.4409  0.8010  1.3034
   56Eth    Hcc 2756   0.749   3.249   7.494  1.4150 -0.5844  1.8701
   56Eth    Hcc 2757   0.688   3.120   7.408 -0.5516  1.3120 -0.6154
   57Eth     Ho 2758   2.237   2.183   8.959  0.4360 -0.5554 -1.7289
   57Eth     Oh 2759   2.247   2.275   8.977 -0.3195 -0.7846 -0.1042
   57Eth     Co 2760   2.160   2.343   8.896  0.1485 -0.6448 -0.4628
   57Eth    Hco 2761   2.075   2.280   8.870  0.2382  0.1711 -2.9334
   57Eth    Hco 2762   2.215   2.355   8.802 -1.1488  2.4548 -0.9133
   57Eth     Ch 2763   2.124   2.483   8.946 -0.1101  0.1473  0.5845
   57Eth    Hcc 2764   2.220   2.529   8.971  0.4143 -0.6540  0.0740
   57Eth    Hcc 2765   2.065   2.469   9.037 -0.5353 -0.4959  0.2168
   57Eth    Hcc 2766   2.083   2.547   8.868  2.5508  0.0522 -0.9444
   58Eth     Ho 2767   0.582   2.644   6.953 -1.3019  0.3383  0.3795
   58Eth     Oh 2768   0.577   2.550   6.964  0.3951  0.1220 -0.4791
   58Eth     Co 2769   0.674   2.506   7.064  0.0658 -0.0483  0.4195
   58Eth    Hco 2770   0.642   2.559   7.153 -0.6001 -1.5406  1.0878
   58Eth    Hco 2771   0.777   2.529   7.037  0.4068 -2.1274 -0.1106
   58Eth     Ch 2772   0.658   2.353   7.089  0.0707  0.4075 -0.1437
   58Eth    Hcc 2773   0.696   2.302   7.000 -0.6193 -1.4705  0.6083
   58Eth    Hcc 2774   0.558   2.315   7.109 -0.0842  0.5185 -0.7046
   58Eth    Hcc 2775   0.715   2.324   7.177 -0.0049  1.2532  0.1875
   59Eth     Ho 2776   1.121   0.165   4.048  1.1188  0.0010 -0.3010
   59Eth     Oh 2777   1.120   0.080   4.007 -0.5531 -0.1383  0.0078
   59Eth     Co 2778   1.007   0.095   3.927 -0.4943  1.0189 -1.1004
   59Eth    Hco 2779   1.024   0.150   3.834  0.7017  0.5198 -1.1892
   59Eth    Hco 2780   0.928   0.146   3.981 -0.5288  0.1849 -0.3416
   59Eth     Ch 2781   0.958  -0.046   3.888 -0.4379  0.0624 -0.2926
   59Eth    Hcc 2782   0.892  -0.090   3.963  0.4554 -0.4678  0.1915
   59Eth    Hcc 2783   1.041  -0.115   3.877  0.6244  0.9991  1.6842
   59Eth    Hcc 2784   0.899  -0.061   3.798 -0.9303 -2.4992  0.4070
   60Eth     Ho 2785   0.694   0.553   5.357 -1.4102  1.1149 -0.0061
   60Eth     Oh 2786   0.655   0.484   5.306  0.0973  0.0871  0.2011
   60Eth     Co 2787   0.722   0.368   5.351 -0.0144 -0.7385  0.1851
   60Eth    Hco 2788   0.709   0.357   5.459 -1.6574  0.6681  0.1575
   60Eth    Hco 2789   0.829   0.371   5.330 -0.3906  1.0778 -1.5639
   60Eth     Ch 2790   0.649   0.248   5.277 -0.3113  1.1964 -0.5319
   60Eth    Hcc 2791   0.555   0.243   5.332  1.2553  1.2773  2.2812
   60Eth    Hcc 2792   0.703   0.153   5.284 -0.3252  1.1954 -0.4412
   60Eth    Hcc 2793   0.618   0.247   5.173  0.9424  2.3226 -0.9173
   61Eth     Ho 2794   0.822   2.655   1.509  1.3515 -1.6405 -0.9098
   61Eth     Oh 2795   0.749   2.609   1.471  0.6607 -0.3997 -1.1269
   61Eth     Co 2796   0.643   2.688   1.521 -0.5623 -0.1781  0.0781
   61Eth    Hco 2797   0.657   2.792   1.493  0.8342 -0.3769  0.0034
   61Eth    Hco 2798   0.633   2.679   1.629 -3.2706  0.2282 -0.1095
   61Eth     Ch 2799   0.499   2.643   1.481  0.3443 -0.2608  0.7236
   61Eth    Hcc 2800   0.511   2.614   1.377  3.6108 -2.6958  1.6954
   61Eth    Hcc 2801   0.426   2.720   1.507 -1.4189 -2.1435  1.4958
   61Eth    Hcc 2802   0.471   2.554   1.538 -2.8012 -0.6026 -1.2279
   62Eth     Ho 2803   1.805   0.001   9.724 -0.2776 -0.2807 -0.5244
   62Eth     Oh 2804   1.878  -0.059   9.725 -0.5531 -0.6116 -0.1944
   62Eth     Co 2805   1.884  -0.119   9.598 -0.1178 -0.6262 -0.0283
   62Eth    Hco 2806   1.902  -0.039   9.526  0.3021 -1.4060 -0.8012
   62Eth    Hco 2807   1.782  -0.151   9.579 -1.3102  2.1260  1.4754
   62Eth     Ch 2808   1.976  -0.244   9.599 -0.0657 -0.2806  0.5467
   62Eth    Hcc 2809   2.065  -0.205   9.649 -0.7519  3.4471 -0.9576
   62Eth    Hcc 2810   2.013  -0.271   9.500 -1.4844  1.3320 -0.4440
   62Eth    Hcc 2811   1.922  -0.319   9.657 -2.7233 -2.9019 -4.9944
   63Eth     Ho 2812   2.205   2.812   6.915 -0.9634  0.1501 -0.5064
   63Eth     Oh 2813   2.153   2.775   6.984 -0.1761  0.3062  0.1667
   63Eth     Co 2814   2.184   2.853   7.093  0.5945 -0.1102  0.3832
   63Eth    Hco 2815   2.107   2.930   7.088  0.1505 -0.6139 -0.6710
   63Eth    Hco 2816   2.285   2.890   7.074  0.9597 -2.3702 -2.3035
   63Eth     Ch 2817   2.190   2.765   7.213 -0.2140  0.8702 -0.6974
   63Eth    Hcc 2818   2.194   2.830   7.301 -1.8376  0.1550 -0.0807
   63Eth    Hcc 2819   2.289   2.719   7.222 -0.3793  1.0480  2.6544
   63Eth    Hcc 2820   2.108   2.696   7.230  1.1574 -0.5183  0.5369
   64Eth     Ho 2821   2.382   0.562   1.576  1.0063 -1.0504 -0.5104
   64Eth     Oh 2822   2.333   0.591   1.502  0.2261 -0.6391  0.1575
   64Eth     Co 2823   2.345   0.734   1.478 -0.2646  0.4909 -0.3477
   64Eth    Hco 2824   2.412   0.749   1.393  0.5254 -1.1210 -0.0377
   64Eth    Hco 2825   2.391   0.783   1.564 -1.3105  1.0497 -0.0967
   64Eth     Ch 2826   2.213   0.808   1.450  0.3876  0.3044 -0.2285
   64Eth    Hcc 2827   2.145   0.810   1.535 -0.4529  0.0786 -0.8921
   64Eth    Hcc 2828   2.156   0.764   1.368 -0.1562  3.5069 -1.6186
   64Eth    Hcc 2829   2.236   0.910   1.421  1.0744 -0.2572 -1.7377
   65Eth     Ho 2830   0.461   2.587   8.440  1.7382 -1.8220  2.1328
   65Eth     Oh 2831   0.533   2.601   8.381 -0.0574 -0.0519  0.2884
   65Eth     Co 2832   0.566   2.470   8.358 -0.2634  0.4059  0.6449
   65Eth    Hco 2833   0.486   2.423   8.302  1.4410 -4.1420  1.8430
   65Eth    Hco 2834   0.568   2.401   8.442 -1.5007  0.3625  0.6479
   65Eth     Ch 2835   0.707   2.466   8.294 -0.8652 -0.7230 -0.6224
   65Eth    Hcc 2836   0.768   2.506   8.375 -0.0544 -4.4266  0.6837
   65Eth    Hcc 2837   0.707   2.517   8.198 -1.8837 -0.8785 -0.7105
   65Eth    Hcc 2838   0.726   2.359   8.287  0.3174 -0.4043 -2.9062
   66Eth     Ho 2839   2.812   2.414   8.694 -1.2830 -0.3677 -0.3469
   66Eth     Oh 2840   2.845   2.328   8.712 -0.3690 -0.0866 -0.6921
   66Eth     Co 2841   2.987   2.335   8.709 -0.4929 -0.4167 -0.3852
   66Eth    Hco 2842   3.021   2.236   8.741  1.0401  0.2035 -0.0516
   66Eth    Hco 2843   3.021   2.412   8.778 -2.1814 -0.1575  0.1844
   66Eth     Ch 2844   3.043   2.365   8.572  0.2734  0.2257  0.0101
   66Eth    Hcc 2845   3.020   2.282   8.506  1.2211 -1.4267  1.7219
   66Eth    Hcc 2846   3.151   2.375   8.582  0.2555  1.8759 -1.2833
   66Eth    Hcc 2847   2.988   2.445   8.521 -0.3782 -0.1906  0.0445
   67Eth     Ho 2848   1.638   1.443   2.741 -3.6307  2.5000  0.0317
   67Eth     Oh 2849   1.695   1.518   2.749  0.0698 -0.1985  0.3808
   67Eth     Co 2850   1.739   1.522   2.882  0.0888  0.2985 -0.2315
   67Eth    Hco 2851   1.798   1.433   2.902 -0.2869 -0.5433 -2.7087
   67Eth    Hco 2852   1.661   1.506   2.956  0.1866  0.7867 -0.0204
   67Eth     Ch 2853   1.802   1.656   2.914 -0.1109 -0.0432  0.8663
   67Eth    Hcc 2854   1.882   1.686   2.846 -1.9032  0.7337 -0.9489
   67Eth    Hcc 2855   1.848   1.656   3.013 -0.6347 -2.3066  1.1364
   67Eth    Hcc 2856   1.735   1.742   2.914 -0.0285  0.0282 -0.1617
   68Eth     Ho 2857   2.742   2.239   4.770  0.9182 -0.5595  0.5407
   68Eth     Oh 2858   2.817   2.283   4.737  0.4702  0.0120  0.2815
   68Eth     Co 2859   2.915   2.266   4.838  0.4338 -0.2325  0.3903
   68Eth    Hco 2860   3.014   2.246   4.797  0.4225  0.1001  0.1951
   68Eth    Hco 2861   2.877   2.181   4.895 -2.0200  0.5146 -0.0794
   68Eth     Ch 2862   2.926   2.386   4.938  0.0721 -0.6632 -0.1297
   68Eth    Hcc 2863   3.008   2.355   5.003  1.1429  0.9699 -0.6566
   68Eth    Hcc 2864   2.832   2.405   4.990  0.1604 -1.1757  0.2152
   68Eth    Hcc 2865   2.961   2.476   4.886  1.4033 -0.1333  1.6321
   69Eth     Ho 2866   1.929   0.762   5.428  2.0832 -1.8162 -0.2876
   69Eth     Oh 2867   1.898   0.762   5.339  0.3873  0.0321  0.2697
   69Eth     Co 2868   1.762   0.701   5.346 -0.4900  0.1150 -0.2751
   69Eth    Hco 2869   1.709   0.736   5.434  0.0754  0.4642 -0.0680
   69Eth    Hco 2870   1.777   0.593   5.350  0.1446  0.2028 -0.1076
   69Eth     Ch 2871   1.692   0.737   5.217 -0.2872 -0.4386 -0.0814
   69Eth    Hcc 2872   1.761   0.711   5.136  0.0446  0.5244 -0.1122
   69Eth    Hcc 2873   1.665   0.842   5.206  1.1491 -0.2777 -2.6254
   69Eth    Hcc 2874   1.599   0.681   5.209 -0.4585  0.1114 -2.1895
   70Eth     Ho 2875   0.399   3.085   7.625  1.2206 -1.9056  1.1227
   70Eth     Oh 2876   0.375   3.019   7.562 -0.0334 -0.2936 -0.1236
   70Eth     Co 2877   0.289   3.089   7.473  0.0560 -0.2220 -0.0268
   70Eth    Hco 2878   0.352   3.151   7.409  0.6218 -2.4220 -1.6691
   70Eth    Hco 2879   0.215   3.142   7.533 -0.9768 -1.7775  0.1060
   70Eth     Ch 2880   0.221   2.981   7.391  0.8716 -0.7102 -0.0755
   70Eth    Hcc 2881   0.174   2.896   7.442  0.2036 -1.0548 -1.2549
   70Eth    Hcc 2882   0.294   2.942   7.320  0.0713  0.8800 -1.8069
   70Eth    Hcc 2883   0.139   3.033   7.342  1.3234 -0.8276 -0.9547
   71Eth     Ho 2884   0.551   2.107   1.664  0.2820 -0.1501 -1.8196
   71Eth     Oh 2885   0.497   2.030   1.673 -0.0515  0.2670 -0.0802
   71Eth     Co 2886   0.399   2.052   1.570  0.2215 -0.0811  0.0189
   71Eth    Hco 2887   0.421   2.144   1.517 -0.4789  0.6058  0.8972
   71Eth    Hco 2888   0.301   2.064   1.617  0.4676  1.2666  0.2163
   71Eth     Ch 2889   0.407   1.938   1.468  0.0646 -0.4444  0.2899
   71Eth    Hcc 2890   0.432   1.844   1.517 -1.0180 -0.8031  0.1795
   71Eth    Hcc 2891   0.485   1.959   1.396 -0.9332  2.6818  0.0108
   71Eth    Hcc 2892   0.311   1.930   1.417  0.1196  1.4458 -0.1622
   72Eth     Ho 2893   2.971   0.911   1.453  0.2250  3.4723  0.3032
   72Eth     Oh 2894   3.046   0.881   1.502 -0.5312  0.2928 -0.3828
   72Eth     Co 2895   3.078   0.744   1.467  0.2276  0.2469  0.3757
   72Eth    Hco 2896   3.065   0.725   1.361 -0.7832  0.6894  0.4142
   72Eth    Hco 2897   3.011   0.690   1.534 -0.3139 -1.1128 -1.2289
   72Eth     Ch 2898   3.217   0.704   1.501  0.9310  0.6075  0.3172
   72Eth    Hcc 2899   3.287   0.779   1.466  2.3976  0.2496  2.4171
   72Eth    Hcc 2900   3.231   0.602   1.465 -1.4597  0.2799  0.2456
   72Eth    Hcc 2901   3.242   0.696   1.606 -0.2811  1.0538  0.6440
   73Eth     Ho 2902   0.688   0.665   1.826 -0.2773  2.6582  1.0237
   73Eth     Oh 2903   0.714   0.630   1.909 -0.6377 -0.7322 -0.2218
   73Eth     Co 2904   0.753   0.493   1.886 -0.0585 -0.5524  0.5078
   73Eth    Hco 2905   0.833   0.468   1.956 -0.2759  0.3017  1.0643
   73Eth    Hco 2906   0.782   0.481   1.782 -1.8264  0.5292 -0.1436
   73Eth     Ch 2907   0.628   0.395   1.905 -0.5290  0.1228 -0.0481
   73Eth    Hcc 2908   0.645   0.292   1.873 -0.4421  0.2929 -0.5697
   73Eth    Hcc 2909   0.560   0.430   1.827 -1.0822 -1.0493 -0.1065
   73Eth    Hcc 2910   0.579   0.407   2.001  0.7642 -0.9631  0.7634
   74Eth     Ho 2911   1.650   0.052   3.756  1.3727  1.1279 -0.2087
   74Eth     Oh 2912   1.657   0.042   3.663  0.1152  0.2773 -0.2304
   74Eth     Co 2913   1.541   0.074   3.594  0.1707 -0.6396  0.0059
   74Eth    Hco 2914   1.468   0.101   3.671  1.1804 -0.6635  0.9866
   74Eth    Hco 2915   1.521  -0.009   3.527 -1.9994 -0.2433  0.1400
   74Eth     Ch 2916   1.568   0.201   3.504 -0.2479  0.5669 -0.4100
   74Eth    Hcc 2917   1.485   0.238   3.444 -2.3585  0.8563  2.5719
   74Eth    Hcc 2918   1.642   0.172   3.429 -0.7085 -0.2666 -0.5502
   74Eth    Hcc 2919   1.613   0.274   3.571 -0.9751  0.4302  0.2417
   75Eth     Ho 2920   1.658   2.886   2.564  0.2910  0.5404  0.7410
   75Eth     Oh 2921   1.704   2.930   2.494 -0.1997 -0.0850  0.0314
   75Eth     Co 2922   1.654   2.892   2.371  0.5111 -0.1366 -0.6619
   75Eth    Hco 2923   1.583   2.972   2.353 -0.5664  0.0760  4.0074
   75Eth    Hco 2924   1.603   2.796   2.364  1.4672 -0.7799  0.8809
   75Eth     Ch 2925   1.775   2.887   2.277 -1.2655 -0.6860  0.2450
   75Eth    Hcc 2926   1.865   2.853   2.328 -1.3150  0.0060  0.7884
   75Eth    Hcc 2927   1.798   2.986   2.239  1.6061 -1.0456  0.9755
   75Eth    Hcc 2928   1.761   2.819   2.192  0.2338 -0.0221 -0.5455
   76Eth     Ho 2929   2.951   0.570   5.543  0.0804  1.8335  0.6021
   76Eth     Oh 2930   3.044   0.565   5.549  0.0479 -0.2419 -0.1025
   76Eth     Co 2931   3.085   0.652   5.656 -0.4596  0.5403  0.5621
   76Eth    Hco 2932   3.032   0.633   5.749  0.2398  1.7378  1.2168
   76Eth    Hco 2933   3.056   0.752   5.625  0.7670  0.6521 -0.2706
   76Eth     Ch 2934   3.237   0.656   5.657  0.5942 -0.6572  0.4181
   76Eth    Hcc 2935   3.280   0.702   5.568 -0.4590  2.3249  1.3997
   76Eth    Hcc 2936   3.283   0.564   5.693  1.4488 -0.5896 -0.4662
   76Eth    Hcc 2937   3.266   0.730   5.732  0.5877 -1.6554  1.4177
   77Eth     Ho 2938   0.459   0.468   9.257  2.3007  1.2364  0.4728
   77Eth     Oh 2939   0.504   0.387   9.273  0.0966 -0.0531  0.3262
   77Eth     Co 2940   0.417   0.269   9.278 -0.6313 -0.2788 -0.1052
   77Eth    Hco 2941   0.475   0.189   9.231 -0.7923 -0.7061  0.4218
   77Eth    Hco 2942   0.324   0.286   9.224 -0.2447  0.6811 -0.4778
   77Eth     Ch 2943   0.397   0.224   9.422 -0.0081  0.4058  0.0703
   77Eth    Hcc 2944   0.313   0.280   9.462 -0.6425 -0.1092 -0.5341
   77Eth    Hcc 2945   0.480   0.243   9.490  0.6731 -1.7061 -0.1284
   77Eth    Hcc 2946   0.364   0.121   9.438  0.0284  0.3700 -0.0889
   78Eth     Ho 2947   1.373   2.840   1.801  1.1380  0.9068 -0.0322
   78Eth     Oh 2948   1.421   2.768   1.838  0.0526 -0.2611 -0.8695
   78Eth     Co 2949   1.435   2.774   1.982  0.0602 -0.4247  0.2735
   78Eth    Hco 2950   1.335   2.809   2.010  0.2736  0.3056  0.1218
   78Eth    Hco 2951   1.500   2.860   1.996 -0.0961 -0.2285 -0.2034
   78Eth     Ch 2952   1.483   2.653   2.053  0.4563 -0.1099 -0.2173
   78Eth    Hcc 2953   1.509   2.688   2.154  1.2974 -2.8532  0.5481
   78Eth    Hcc 2954   1.570   2.603   2.012 -0.6112 -1.2258 -1.1508
   78Eth    Hcc 2955   1.405   2.580   2.074 -1.1491  1.7275  0.4713
   79Eth     Ho 2956   1.400   2.150   9.578 -0.3744 -0.7686  0.4047
   79Eth     Oh 2957   1.318   2.143   9.533 -0.5104 -0.4070  0.5900
   79Eth     Co 2958   1.298   2.254   9.447  0.7742 -0.5874 -0.1130
   79Eth    Hco 2959   1.367   2.264   9.364 -0.6759  0.6648 -1.2147
   79Eth    Hco 2960   1.337   2.335   9.508 -1.6917 -2.7398  4.5722
   79Eth     Ch 2961   1.160   2.291   9.390 -0.0981  0.3902 -0.1576
   79Eth    Hcc 2962   1.153   2.373   9.319  0.0365 -1.7912 -2.8172
   79Eth    Hcc 2963   1.089   2.305   9.471 -0.8752 -1.5974 -0.4553
   79Eth    Hcc 2964   1.128   2.201   9.336  0.0380  0.0389  0.3423
   80Eth     Ho 2965   2.768   2.526   2.316  0.3792 -0.3098 -1.3014
   80Eth     Oh 2966   2.723   2.517   2.234 -0.6001 -0.7587 -0.7290
   80Eth     Co 2967   2.798   2.566   2.124  0.2329  0.5550  0.7879
   80Eth    Hco 2968   2.886   2.507   2.101 -0.7037  0.2227 -2.1137
   80Eth    Hco 2969   2.829   2.670   2.134  0.5116  0.7246 -1.6126
   80Eth     Ch 2970   2.715   2.559   1.998 -0.0293  0.4833 -0.1150
   80Eth    Hcc 2971   2.698   2.462   1.951  0.4104  0.1144  0.4801
   80Eth    Hcc 2972   2.760   2.622   1.921 -0.7600 -2.1482 -2.7531
   80Eth    Hcc 2973   2.615   2.597   2.020  0.6414  3.0664 -1.2474
   81Eth     Ho 2974   2.927   0.894   6.364  0.6574 -0.6130  1.3024
   81Eth     Oh 2975   2.851   0.850   6.398 -0.1861 -0.1965 -0.0180
   81Eth     Co 2976   2.737   0.899   6.319 -0.7855 -0.0461 -0.5758
   81Eth    Hco 2977   2.734   0.855   6.220 -2.2181  0.8545 -0.9534
   81Eth    Hco 2978   2.741   1.008   6.311  0.3561  0.0402  0.9272
   81Eth     Ch 2979   2.603   0.865   6.388 -0.2958 -0.3426  0.2675
   81Eth    Hcc 2980   2.612   0.895   6.492  4.6137  1.4187 -0.5016
   81Eth    Hcc 2981   2.579   0.759   6.377  0.2555 -0.5943  1.4946
   81Eth    Hcc 2982   2.520   0.912   6.334  0.1131  0.1721  0.0824
   82Eth     Ho 2983   0.658   3.117   5.948 -0.5198  0.5767 -0.5738
   82Eth     Oh 2984   0.696   3.061   5.882 -0.1045 -0.1625  0.2839
   82Eth     Co 2985   0.734   3.131   5.764 -0.5437  0.5516 -0.4958
   82Eth    Hco 2986   0.642   3.182   5.736 -1.5196 -1.0827 -0.3535
   82Eth    Hco 2987   0.760   3.063   5.682  3.4213  0.0925  1.0359
   82Eth     Ch 2988   0.841   3.236   5.799  0.6254 -0.6743  0.3026
   82Eth    Hcc 2989   0.934   3.192   5.836  1.9352  2.5482  1.0487
   82Eth    Hcc 2990   0.800   3.309   5.869 -1.4824 -1.4758 -0.0770
   82Eth    Hcc 2991   0.866   3.291   5.708  1.6622 -0.8276  0.4807
   83Eth     Ho 2992   0.071   0.240   1.593 -1.7862 -1.1214  2.0377
   83Eth     Oh 2993   0.079   0.325   1.633 -0.2121 -0.3715  0.1900
   83Eth     Co 2994   0.149   0.418   1.551  0.1615  0.2360  0.8018
   83Eth    Hco 2995   0.088   0.445   1.465 -0.0053 -0.0362  0.8316
   83Eth    Hco 2996   0.234   0.365   1.507 -0.2777  0.3307 -0.1865
   83Eth     Ch 2997   0.188   0.539   1.636  0.7149 -0.0888  0.0611
   83Eth    Hcc 2998   0.105   0.582   1.693  1.8723  0.9554  0.9729
   83Eth    Hcc 2999   0.217   0.616   1.565 -0.3651  2.6973  2.5282
   83Eth    Hcc 3000   0.258   0.511   1.714  0.3209 -1.5466 -0.0974
   84Eth     Ho 3001   2.582   0.509   9.862  0.6443  0.8253  0.2081
   84Eth     Oh 3002   2.656   0.482   9.810 -0.3635  0.1174 -0.8707
   84Eth     Co 3003   2.657   0.341   9.802  0.5934 -0.3388  0.5025
   84Eth    Hco 3004   2.566   0.308   9.752 -0.3689  0.0904  1.9704
   84Eth    Hco 3005   2.657   0.305   9.905 -1.0828  3.3675  1.8644
   84Eth     Ch 3006   2.780   0.282   9.741 -0.2816  0.5497 -0.4052
   84Eth    Hcc 3007   2.867   0.283   9.806  0.0660  0.2226 -0.8588
   84Eth    Hcc 3008   2.806   0.339   9.651  0.6132  1.7961  0.6271
   84Eth    Hcc 3009   2.754   0.184   9.701 -0.9268  0.4016  0.3624
   85Eth     Ho 3010   2.300   1.177   6.877 -1.7651 -0.4397  1.0112
   85Eth     Oh 3011   2.279   1.229   6.801  0.1121 -0.5735  0.3815
   85Eth     Co 3012   2.138   1.226   6.822  0.7228  0.4733 -0.4358
   85Eth    Hco 3013   2.095   1.278   6.908 -1.1255  2.0311 -2.2436
   85Eth    Hco 3014   2.096   1.126   6.828 -0.2362  0.8361 -1.0165
   85Eth     Ch 3015   2.091   1.302   6.689 -0.1561  0.2854 -0.5566
   85Eth    Hcc 3016   1.988   1.336   6.702 -0.4945 -0.3663 -1.4700
   85Eth    Hcc 3017   2.109   1.243   6.599  0.1393 -1.0116  0.3412
   85Eth    Hcc 3018   2.133   1.400   6.671  0.9153 -0.0922 -0.1297
   86Eth     Ho 3019   2.282   2.547   3.037 -0.0320 -1.4809 -2.0274
   86Eth     Oh 3020   2.190   2.562   3.049  0.3160 -0.3045 -0.7252
   86Eth     Co 3021   2.175   2.649   3.163 -0.3326 -1.2391 -0.9198
   86Eth    Hco 3022   2.260   2.717   3.169  0.0903 -1.9196  1.3059
   86Eth    Hco 3023   2.184   2.582   3.249 -0.7181  0.1739  0.2220
   86Eth     Ch 3024   2.040   2.722   3.161 -0.7207  0.1157  1.0698
   86Eth    Hcc 3025   1.968   2.642   3.175 -2.1560  1.3904  1.0384
   86Eth    Hcc 3026   2.012   2.776   3.071 -0.6155  0.2327  1.1071
   86Eth    Hcc 3027   2.041   2.793   3.244  0.3975 -0.5366  1.6356
   87Eth     Ho 3028   3.090   0.800   8.265 -1.3578  1.3989  0.6596
   87Eth     Oh 3029   3.148   0.822   8.335 -0.2933 -0.3066  0.3527
   87Eth     Co 3030   3.273   0.861   8.277 -0.1868 -0.5812  0.5433
   87Eth    Hco 3031   3.262   0.936   8.199 -1.7669 -0.1212  1.1842
   87Eth    Hco 3032   3.321   0.787   8.213 -0.7706  0.5863 -1.2807
   87Eth     Ch 3033   3.376   0.904   8.377  0.5025 -0.4156 -0.1830
   87Eth    Hcc 3034   3.456   0.956   8.325 -0.4488  0.8557 -0.3752
   87Eth    Hcc 3035   3.423   0.818   8.425  1.9483  0.0360 -0.7710
   87Eth    Hcc 3036   3.335   0.964   8.458  2.9103  0.3343  0.5175
   88Eth     Ho 3037   1.440   0.573   2.750 -0.5921  0.4476  1.1694
   88Eth     Oh 3038   1.418   0.612   2.668  0.4995  0.1639  0.7459
   88Eth     Co 3039   1.472   0.741   2.667 -0.1801 -0.2949  0.0323
   88Eth    Hco 3040   1.560   0.744   2.603 -0.9016  1.0843 -0.9446
   88Eth    Hco 3041   1.495   0.750   2.773 -1.1832  0.5778  0.1861
   88Eth     Ch 3042   1.357   0.845   2.628 -0.3439  0.2287  0.2704
   88Eth    Hcc 3043   1.312   0.834   2.529 -0.5131 -1.2790  0.5111
   88Eth    Hcc 3044   1.385   0.951   2.636 -1.9690  0.9018 -2.3880
   88Eth    Hcc 3045   1.271   0.834   2.694 -0.9781  0.8687 -0.4356
   89Eth     Ho 3046   0.748   1.074   6.562 -1.1068 -0.1783 -3.0014
   89Eth     Oh 3047   0.675   1.128   6.588 -0.3167 -0.7225  0.6956
   89Eth     Co 3048   0.690   1.157   6.723 -0.0382 -0.5324  0.1352
   89Eth    Hco 3049   0.794   1.180   6.743 -0.2213  2.4036 -1.9968
   89Eth    Hco 3050   0.654   1.083   6.794  1.5180  0.4906  2.0162
   89Eth     Ch 3051   0.611   1.281   6.771  0.0692  0.0532  0.2939
   89Eth    Hcc 3052   0.634   1.367   6.707 -0.3096  0.1350  0.2685
   89Eth    Hcc 3053   0.636   1.316   6.871  1.2128  1.7380 -0.5480
   89Eth    Hcc 3054   0.504   1.261   6.772  0.3398 -1.7712 -2.1080
   90Eth     Ho 3055   2.376   1.990   3.267  0.2261 -4.8135  0.5323
   90Eth     Oh 3056   2.298   1.983   3.216 -0.0767  0.6621  0.0504
   90Eth     Co 3057   2.217   1.881   3.266  0.1309  0.0402  0.0693
   90Eth    Hco 3058   2.193   1.904   3.370  0.7830  3.7935 -0.5289
   90Eth    Hco 3059   2.283   1.795   3.273  1.2069  0.8824  0.6098
   90Eth     Ch 3060   2.084   1.870   3.183 -0.0710  0.1006 -0.7611
   90Eth    Hcc 3061   2.101   1.880   3.076 -0.7900  0.8434 -0.8101
   90Eth    Hcc 3062   2.022   1.956   3.206  0.1943  0.1764 -0.3186
   90Eth    Hcc 3063   2.021   1.783   3.203  0.4084  0.5600  3.1054
   91Eth     Ho 3064   1.625   0.833   2.334  0.4336 -0.7540 -1.1044
   91Eth     Oh 3065   1.542   0.859   2.298  0.4127  0.2468 -0.3327
   91Eth     Co 3066   1.468   0.748   2.254 -0.7723  0.0738  0.0670
   91Eth    Hco 3067   1.434   0.694   2.342 -0.2035 -0.5176 -0.0774
   91Eth    Hco 3068   1.539   0.678   2.210  0.0986  1.2241 -0.3974
   91Eth     Ch 3069   1.345   0.777   2.172 -0.6092 -0.0782  0.5546
   91Eth    Hcc 3070   1.376   0.841   2.089 -3.4810  0.0021 -0.5344
   91Eth    Hcc 3071   1.259   0.816   2.227  0.3999  0.0501  2.0624
   91Eth    Hcc 3072   1.328   0.682   2.121  0.0303 -0.5430  1.1974
   92Eth     Ho 3073   3.023   0.117   1.876  0.1061 -0.4009  0.0486
   92Eth     Oh 3074   3.094   0.122   1.936  0.7887 -0.5152 -0.7415
   92Eth     Co 3075   3.220   0.099   1.890  0.6371 -0.1591  0.2427
   92Eth    Hco 3076   3.230   0.136   1.788  0.5066  1.0434  0.6571
   92Eth    Hco 3077   3.233  -0.010   1.893  0.8953 -0.0941  3.1247
   92Eth     Ch 3078   3.312   0.176   1.983 -0.3646  0.1604 -0.4125
   92Eth    Hcc 3079   3.417   0.158   1.956 -0.2238  1.0214 -0.4337
   92Eth    Hcc 3080   3.298   0.144   2.086 -0.1075  1.7287  0.1179
   92Eth    Hcc 3081   3.295   0.283   1.976  2.6813  0.5662 -2.8447
   93Eth     Ho 3082   1.776   0.341   8.167  0.1605 -4.1428  1.6829
   93Eth     Oh 3083   1.836   0.366   8.235  0.2420 -0.6988  0.4629
   93Eth     Co 3084   1.912   0.247   8.264 -0.2061 -0.4909  0.0636
   93Eth    Hco 3085   1.982   0.213   8.189 -0.2751 -0.5117  0.0089
   93Eth    Hco 3086   1.840   0.165   8.274 -1.2018  0.5930  2.1276
   93Eth     Ch 3087   1.959   0.248   8.410  0.0062  0.0917  0.2161
   93Eth    Hcc 3088   2.012   0.338   8.440  1.2064 -1.3063  2.4730
   93Eth    Hcc 3089   2.020   0.160   8.431 -0.6735 -0.1086  1.4493
   93Eth    Hcc 3090   1.874   0.254   8.480  0.1392 -2.7692  0.6871
   94Eth     Ho 3091   1.420   0.725   5.016  2.5038 -1.6306 -1.5210
   94Eth     Oh 3092   1.371   0.644   5.018  0.3844 -0.3763  0.6426
   94Eth     Co 3093   1.351   0.601   4.885  0.5238 -0.2325 -0.0195
   94Eth    Hco 3094   1.452   0.590   4.845  1.5270 -1.2373  2.6352
   94Eth    Hco 3095   1.286   0.670   4.832  0.5607  1.2586  1.8365
   94Eth     Ch 3096   1.294   0.461   4.877  0.3921  0.2559 -0.1009
   94Eth    Hcc 3097   1.350   0.385   4.931  0.9202  0.5763 -0.1914
   94Eth    Hcc 3098   1.302   0.438   4.771 -1.0551  0.6990 -0.3230
   94Eth    Hcc 3099   1.188   0.444   4.897  0.2696  1.0605 -0.0610
   95Eth     Ho 3100   0.354   0.452   4.907  0.8754 -0.7561  0.3527
   95Eth     Oh 3101   0.348   0.477   4.997 -0.3648  0.0067  0.0701
   95Eth     Co 3102   0.245   0.397   5.055 -0.6556  0.3915  0.0531
   95Eth    Hco 3103   0.257   0.295   5.018 -0.6142  1.1344 -2.1003
   95Eth    Hco 3104   0.146   0.417   5.013 -1.5321 -0.6982  1.5872
   95Eth     Ch 3105   0.246   0.389   5.205 -0.3085 -0.4539 -0.3913
   95Eth    Hcc 3106   0.341   0.343   5.230 -0.4266 -0.9844 -0.9029
   95Eth    Hcc 3107   0.168   0.322   5.239 -1.9291  1.8508  0.6021
   95Eth    Hcc 3108   0.236   0.487   5.253 -0.9862 -0.9038  0.4041
   96Eth     Ho 3109   3.206   2.408   5.168 -0.3816  0.0628 -1.3047
   96Eth     Oh 3110   3.173   2.341   5.226  0.6548  0.7959  0.1528
   96Eth     Co 3111   3.154   2.422   5.341 -0.2052  0.7122 -0.5340
   96Eth    Hco 3112   3.067   2.485   5.322  0.8661  1.9018 -1.6946
   96Eth    Hco 3113   3.241   2.484   5.365  0.1163  0.0242  0.0656
   96Eth     Ch 3114   3.127   2.328   5.461 -0.0582 -0.1814 -0.1346
   96Eth    Hcc 3115   3.210   2.264   5.488 -1.7923 -2.3292  0.1936
   96Eth    Hcc 3116   3.045   2.260   5.440  1.1662 -1.3129 -1.3202
   96Eth    Hcc 3117   3.103   2.391   5.547 -0.5148 -0.2584 -0.2020
   97Eth     Ho 3118   2.606   2.065   9.653  1.9600  2.9377 -3.0028
   97Eth     Oh 3119   2.664   1.991   9.658 -0.4661  1.1218  0.1385
   97Eth     Co 3120   2.703   2.006   9.793  0.0795  0.3440  0.4935
   97Eth    Hco 3121   2.617   1.970   9.850 -0.2374 -0.3399 -0.3962
   97Eth    Hco 3122   2.711   2.110   9.824  1.6394 -0.1416  1.7554
   97Eth     Ch 3123   2.829   1.923   9.829 -0.6744 -0.2059 -0.4837
   97Eth    Hcc 3124   2.914   1.951   9.766 -1.1978 -1.1137 -1.6144
   97Eth    Hcc 3125   2.817   1.815   9.820 -2.2653  0.0071 -1.1371
   97Eth    Hcc 3126   2.856   1.937   9.933  1.1977  0.3669 -1.0238
   98Eth     Ho 3127   0.187   0.575   8.084  1.0033 -1.1276 -0.4078
   98Eth     Oh 3128   0.102   0.597   8.049  1.3140 -0.0742 -0.5176
   98Eth     Co 3129   0.096   0.683   7.939 -0.1017  0.3310  0.6472
   98Eth    Hco 3130   0.179   0.652   7.876 -0.4915 -0.2356  0.4123
   98Eth    Hco 3131   0.114   0.790   7.953  0.0168  0.4027 -0.0481
   98Eth     Ch 3132  -0.042   0.683   7.876  1.2232 -0.0014 -0.1668
   98Eth    Hcc 3133  -0.119   0.707   7.950 -0.0446 -1.4460 -0.9947
   98Eth    Hcc 3134  -0.058   0.584   7.833 -1.8074 -0.1449  1.2053
   98Eth    Hcc 3135  -0.055   0.757   7.797 -1.4287  0.2789  0.4823
   99Eth     Ho 3136   1.120   2.377   1.514 -0.6337 -1.0795 -0.2866
   99Eth     Oh 3137   1.166   2.313   1.462  0.4220 -0.3892 -0.2122
   99Eth     Co 3138   1.256   2.236   1.531 -0.0900  0.2873  0.1993
   99Eth    Hco 3139   1.198   2.187   1.609 -1.8092  1.1535 -0.5155
   99Eth    Hco 3140   1.321   2.298   1.594 -0.2745  0.9912 -0.3020
   99Eth     Ch 3141   1.335   2.140   1.447 -0.4307  0.1536  0.2069
   99Eth    Hcc 3142   1.412   2.189   1.388 -1.3225  1.3683  0.0531
   99Eth    Hcc 3143   1.262   2.085   1.388 -0.2121  0.7947 -0.6622
   99Eth    Hcc 3144   1.395   2.069   1.504  0.3517 -0.3669 -1.2242
  100Eth     Ho 3145   1.054   1.774   9.183  0.8497  2.6994  0.8159
  100Eth     Oh 3146   1.034   1.812   9.099 -0.0301 -0.1215 -0.3099
  100Eth     Co 3147   1.095   1.740   8.996  0.9168  0.2478 -0.4246
  100Eth    Hco 3148   1.031   1.660   8.958  0.2412 -0.1435  1.4390
  100Eth    Hco 3149   1.193   1.702   9.023  0.5256 -0.8538 -0.5184
  100Eth     Ch 3150   1.124   1.824   8.870  0.4283  0.0715  0.4870
  100Eth    Hcc 3151   1.044   1.873   8.813 -0.1250 -2.2261 -0.7558
  100Eth    Hcc 3152   1.167   1.755   8.798 -1.0276 -0.1385 -0.1937
  100Eth    Hcc 3153   1.198   1.904   8.869 -0.0700  0.5239 -0.3126
  101Eth     Ho 3154   1.250   3.209   3.826  0.6604 -0.2090  2.7543
  101Eth     Oh 3155   1.207   3.125   3.836  0.1356 -0.3049 -0.0034
  101Eth     Co 3156   1.302   3.041   3.767 -0.1026  0.3792 -0.4586
  101Eth    Hco 3157   1.404   3.073   3.786 -1.0706  1.8150  2.6810
  101Eth    Hco 3158   1.290   3.050   3.659  1.7179  0.1587 -0.6792
  101Eth     Ch 3159   1.290   2.896   3.806  0.2983 -0.2448 -0.3525
  101Eth    Hcc 3160   1.192   2.851   3.790 -0.2526  1.3089 -1.5111
  101Eth    Hcc 3161   1.308   2.871   3.910 -0.5417  1.9873  0.3491
  101Eth    Hcc 3162   1.354   2.839   3.739  0.2294  1.2316 -1.7104
  102Eth     Ho 3163   0.279   3.448   7.209  0.5062  0.3868 -1.2058
  102Eth     Oh 3164   0.187   3.468   7.212  0.4259 -0.1603 -0.0140
  102Eth     Co 3165   0.135   3.507   7.337 -0.2093 -0.3592 -0.4896
  102Eth    Hco 3166   0.189   3.596   7.369 -0.9114  0.3061 -1.1226
  102Eth    Hco 3167   0.143   3.427   7.410 -0.5747  1.3776  1.5101
  102Eth     Ch 3168  -0.009   3.544   7.326  0.3794 -0.2571 -0.5468
  102Eth    Hcc 3169  -0.054   3.576   7.421 -2.0708  0.3784 -1.8622
  102Eth    Hcc 3170  -0.078   3.460   7.322 -1.6684  1.2848  0.9861
  102Eth    Hcc 3171  -0.039   3.616   7.249 -0.4975  0.2169  0.2265
  103Eth     Ho 3172   3.283   2.757   1.662  0.6524 -0.1326  0.0931
  103Eth     Oh 3173   3.307   2.666   1.655 -0.1013 -0.2940 -0.3747
  103Eth     Co 3174   3.448   2.650   1.629  0.6049 -0.0365  0.4303
  103Eth    Hco 3175   3.508   2.651   1.720  1.5709  1.0963 -0.2047
  103Eth    Hco 3176   3.488   2.735   1.573  0.9767  0.1696  1.0102
  103Eth     Ch 3177   3.460   2.506   1.570 -0.4596  0.2372  0.2448
  103Eth    Hcc 3178   3.562   2.470   1.561 -1.0562 -3.0400  4.9952
  103Eth    Hcc 3179   3.409   2.494   1.475  1.3565  0.9969 -0.8587
  103Eth    Hcc 3180   3.405   2.438   1.635 -1.6954  0.1412 -0.8957
  104Eth     Ho 3181   0.267   0.829   4.502  2.2171 -0.5545 -0.0232
  104Eth     Oh 3182   0.298   0.868   4.582  0.0697  0.4224  0.3713
  104Eth     Co 3183   0.286   0.773   4.683  0.0784 -0.6643  0.2322
  104Eth    Hco 3184   0.349   0.685   4.669  2.2544  1.2922 -2.6314
  104Eth    Hco 3185   0.184   0.734   4.694  0.2575 -0.7888  1.5857
  104Eth     Ch 3186   0.317   0.842   4.816 -0.0585 -0.1766 -0.2014
  104Eth    Hcc 3187   0.281   0.782   4.900  0.2603 -0.1416 -0.0398
  104Eth    Hcc 3188   0.270   0.938   4.838  3.1042  0.9391  2.0130
  104Eth    Hcc 3189   0.425   0.847   4.829 -0.5285  3.3655  3.3942
  105Eth     Ho 3190   0.796   1.160   8.117 -2.6391  1.2311 -0.8389
  105Eth     Oh 3191   0.826   1.220   8.182 -0.4699 -0.7001  0.0142
  105Eth     Co 3192   0.926   1.297   8.122 -0.3894 -0.5802  1.0976
  105Eth    Hco 3193   0.890   1.372   8.052  1.9796  0.7580  1.2440
  105Eth    Hco 3194   0.974   1.229   8.053  1.9628  0.7169  1.3886
  105Eth     Ch 3195   1.025   1.350   8.229  0.5953 -0.4241  0.9833
  105Eth    Hcc 3196   1.061   1.261   8.282 -0.8678 -1.0549  0.9480
  105Eth    Hcc 3197   0.977   1.422   8.296 -2.9009 -1.7132 -0.0074
  105Eth    Hcc 3198   1.113   1.396   8.185  0.6993  0.2261  1.8563
  106Eth     Ho 3199   0.729   1.673   3.547  1.6105 -1.0322 -1.2529
  106Eth     Oh 3200   0.778   1.691   3.625 -0.3354 -0.4227 -0.1278
  106Eth     Co 3201   0.816   1.830   3.629 -0.0518  0.5717 -0.5857
  106Eth    Hco 3202   0.725   1.887   3.646 -0.9821 -1.7740  2.8235
  106Eth    Hco 3203   0.852   1.841   3.526 -3.3079 -1.0118 -1.9816
  106Eth     Ch 3204   0.931   1.864   3.725 -0.1643  0.2755  0.2896
  106Eth    Hcc 3205   0.971   1.965   3.715  0.8399  0.0639  2.1174
  106Eth    Hcc 3206   1.013   1.797   3.700  0.5337 -0.2082  3.7316
  106Eth    Hcc 3207   0.902   1.854   3.829 -2.0418 -0.5988 -0.2947
  107Eth     Ho 3208   0.166   1.501   8.628  1.2367 -0.5314  1.1492
  107Eth     Oh 3209   0.200   1.483   8.542  0.0769  0.2404  0.5041
  107Eth     Co 3210   0.244   1.605   8.485  0.8893 -0.0799 -0.5833
  107Eth    Hco 3211   0.288   1.657   8.571  1.4976 -0.7223 -0.4963
  107Eth    Hco 3212   0.163   1.671   8.454  0.6530 -0.0559  0.0704
  107Eth     Ch 3213   0.335   1.576   8.366 -0.3501 -0.5560  0.3964
  107Eth    Hcc 3214   0.378   1.670   8.332 -0.1563 -0.0600  1.9641
  107Eth    Hcc 3215   0.277   1.515   8.296 -0.4098 -1.9582  1.6316
  107Eth    Hcc 3216   0.418   1.520   8.408 -0.0536  0.9239  1.8260
  108Eth     Ho 3217   1.183   1.061   5.234  0.8319  2.1065  0.3669
  108Eth     Oh 3218   1.184   1.042   5.326  0.8621  0.5706  0.0620
  108Eth     Co 3219   1.068   1.086   5.385  0.4045 -0.0013 -0.8035
  108Eth    Hco 3220   0.992   1.008   5.374 -0.5598  0.9503 -0.9682
  108Eth    Hco 3221   1.038   1.180   5.340  0.9976  0.3977 -0.3666
  108Eth     Ch 3222   1.079   1.115   5.534 -0.0595 -0.2710  0.0567
  108Eth    Hcc 3223   1.156   1.187   5.563 -0.2891 -0.4042  1.0334
  108Eth    Hcc 3224   1.092   1.025   5.594  1.2078  0.5190  0.9990
  108Eth    Hcc 3225   0.982   1.145   5.574  1.1365  0.2236  2.7267
  109Eth     Ho 3226   2.089   2.631   6.007  2.2346 -1.5914 -1.4758
  109Eth     Oh 3227   2.115   2.600   6.092 -0.6359 -0.0503  0.0421
  109Eth     Co 3228   2.241   2.538   6.068 -0.1157 -0.2970 -0.1451
  109Eth    Hco 3229   2.271   2.561   5.966 -0.9343 -0.6849 -0.4747
  109Eth    Hco 3230   2.221   2.432   6.078 -0.1302 -0.6242 -3.1373
  109Eth     Ch 3231   2.348   2.593   6.168 -0.8199 -0.0416 -0.4424
  109Eth    Hcc 3232   2.314   2.554   6.264  2.6551 -0.4299  0.7046
  109Eth    Hcc 3233   2.355   2.701   6.174 -2.0551 -0.0224  0.9556
  109Eth    Hcc 3234   2.445   2.544   6.160 -1.1597 -1.1214  1.7003
  110Eth     Ho 3235   3.090   2.814   6.572  0.4619  0.2430  0.4331
  110Eth     Oh 3236   3.169   2.849   6.534  0.1663  0.1959 -0.2437
  110Eth     Co 3237   3.178   2.987   6.587  0.5300  0.1938  0.4187
  110Eth    Hco 3238   3.142   2.994   6.690  0.8192 -0.6929  0.5889
  110Eth    Hco 3239   3.110   3.049   6.529  0.6678  0.2690  0.3354
  110Eth     Ch 3240   3.318   3.042   6.591  0.8919 -0.3827  0.1615
  110Eth    Hcc 3241   3.371   3.007   6.680 -0.6818 -1.2684  0.7782
  110Eth    Hcc 3242   3.335   3.149   6.591  1.3416 -0.4470 -0.9812
  110Eth    Hcc 3243   3.367   3.022   6.496  2.4404  0.1005  0.8401
  111Eth     Ho 3244   1.284   2.927   1.544  1.0529 -0.2818  0.5587
  111Eth     Oh 3245   1.220   2.944   1.610  0.7669  0.3589  0.1277
  111Eth     Co 3246   1.201   3.084   1.621 -0.1720 -0.2225 -0.3245
  111Eth    Hco 3247   1.206   3.124   1.520 -1.8152  0.4483 -0.1440
  111Eth    Hco 3248   1.276   3.141   1.676 -0.4933  1.0701 -1.2144
  111Eth     Ch 3249   1.063   3.125   1.673 -0.1826  0.2244 -0.3630
  111Eth    Hcc 3250   0.985   3.081   1.610 -0.0755  0.6883 -0.8280
  111Eth    Hcc 3251   1.045   3.232   1.665 -0.0565  0.3406  0.9349
  111Eth    Hcc 3252   1.052   3.100   1.778 -2.7597  0.0341 -0.6470
  112Eth     Ho 3253   1.955   1.826   4.098 -1.9596  1.0126  2.2731
  112Eth     Oh 3254   1.888   1.795   4.040  0.1017 -0.5950  0.6855
  112Eth     Co 3255   1.918   1.856   3.920 -0.9289  0.0396 -0.9040
  112Eth    Hco 3256   2.016   1.822   3.887 -0.5893 -0.2220  0.3369
  112Eth    Hco 3257   1.930   1.964   3.934 -0.7366  0.0829 -1.4020
  112Eth     Ch 3258   1.822   1.814   3.808  0.4225 -0.5509  0.6088
  112Eth    Hcc 3259   1.865   1.842   3.712  2.2741  2.7247  2.3063
  112Eth    Hcc 3260   1.723   1.859   3.816  0.0582 -1.3321  0.5477
  112Eth    Hcc 3261   1.814   1.706   3.795  0.2410 -0.2455 -2.0493
  113Eth     Ho 3262   2.913   2.911   9.887  0.5479  0.2278 -1.5596
  113Eth     Oh 3263   2.932   3.001   9.910 -0.1917 -0.0992  0.4275
  113Eth     Co 3264   3.064   3.030   9.871 -0.0742  0.2728  0.2842
  113Eth    Hco 3265   3.052   3.052   9.765 -2.6632  1.1021  0.7112
  113Eth    Hco 3266   3.137   2.950   9.873 -0.9945 -0.6004 -0.4709
  113Eth     Ch 3267   3.109   3.146   9.955  0.2752  0.3867 -0.1058
  113Eth    Hcc 3268   3.106   3.112  10.059  0.6810 -0.5866 -0.4120
  113Eth    Hcc 3269   3.049   3.237   9.943 -2.7237 -1.1551  2.2449
  113Eth    Hcc 3270   3.209   3.166   9.916 -0.3707 -1.3182 -2.7805
  114Eth     Ho 3271   1.838   0.603   9.675  0.0161 -1.3213 -0.7819
  114Eth     Oh 3272   1.908   0.597   9.738 -0.7570  0.1224  0.2428
  114Eth     Co 3273   1.871   0.518   9.852 -0.3859  0.1295 -0.2055
  114Eth    Hco 3274   1.791   0.551   9.918  0.0783 -0.3616  0.5944
  114Eth    Hco 3275   1.956   0.496   9.916 -0.3101  1.4731  0.1840
  114Eth     Ch 3276   1.801   0.386   9.799  0.8611  0.6968 -0.2460
  114Eth    Hcc 3277   1.868   0.335   9.729  3.1502  1.4014  1.3630
  114Eth    Hcc 3278   1.717   0.400   9.732  2.2449  1.8740 -1.7903
  114Eth    Hcc 3279   1.778   0.329   9.889 -1.8949  2.2623  0.0820
  115Eth     Ho 3280   1.973   2.279   3.640 -0.6194 -0.0478 -0.0185
  115Eth     Oh 3281   1.890   2.257   3.601 -0.5330 -0.1870 -0.1242
  115Eth     Co 3282   1.905   2.148   3.514 -0.3712  0.7197  0.3785
  115Eth    Hco 3283   1.938   2.065   3.577  1.5044  0.6632 -0.6510
  115Eth    Hco 3284   1.980   2.181   3.443 -0.2605 -1.0029 -0.3191
  115Eth     Ch 3285   1.779   2.100   3.448 -0.0957 -0.3305  0.0461
  115Eth    Hcc 3286   1.713   2.178   3.410  0.6363  0.0225 -0.5268
  115Eth    Hcc 3287   1.732   2.033   3.519  0.2620  0.0521  0.6484
  115Eth    Hcc 3288   1.814   2.035   3.367 -0.1238 -0.9788  0.5509
  116Eth     Ho 3289   3.143   0.769   2.543  0.7765 -0.8833  0.2261
  116Eth     Oh 3290   3.137   0.857   2.511 -0.6342 -1.0331  0.0585
  116Eth     Co 3291   3.182   0.851   2.381 -0.2225 -0.3574  0.2826
  116Eth    Hco 3292   3.252   0.767   2.370 -0.5516 -0.3314 -2.3970
  116Eth    Hco 3293   3.229   0.948   2.364  0.4029 -0.5437  0.9578
  116Eth     Ch 3294   3.069   0.828   2.276 -0.1913 -0.8998 -0.2366
  116Eth    Hcc 3295   2.992   0.903   2.260 -1.9478 -2.4264  0.7351
  116Eth    Hcc 3296   3.007   0.741   2.301  0.2268 -1.5210 -1.3412
  116Eth    Hcc 3297   3.109   0.804   2.178  0.7217  2.4575 -0.7420
  117Eth     Ho 3298   1.946   0.729   7.156 -0.3953  0.6657  2.0458
  117Eth     Oh 3299   1.885   0.668   7.192 -0.8110 -0.0562  0.1713
  117Eth     Co 3300   1.763   0.728   7.171  0.2090  0.0207 -0.8694
  117Eth    Hco 3301   1.780   0.818   7.111  2.7529 -1.7481 -2.9247
  117Eth    Hco 3302   1.729   0.768   7.266  0.9034 -2.0961  0.2897
  117Eth     Ch 3303   1.653   0.626   7.122 -0.0583 -0.0005  0.0473
  117Eth    Hcc 3304   1.555   0.662   7.153  0.1088 -0.6073  1.3597
  117Eth    Hcc 3305   1.667   0.525   7.161 -0.5096 -0.3353 -0.6404
  117Eth    Hcc 3306   1.659   0.617   7.014  2.1465 -2.6552  0.3352
  118Eth     Ho 3307   1.457   2.642   6.748  0.3216 -0.2755 -0.2518
  118Eth     Oh 3308   1.407   2.662   6.671 -0.4966 -0.1566  0.3073
  118Eth     Co 3309   1.276   2.695   6.713 -0.1585  0.1123 -0.1401
  118Eth    Hco 3310   1.247   2.638   6.801  2.1176 -0.3013  0.3869
  118Eth    Hco 3311   1.213   2.672   6.627  1.0724  1.2748 -1.3607
  118Eth     Ch 3312   1.256   2.839   6.756  0.5031  0.1799 -0.6447
  118Eth    Hcc 3313   1.158   2.833   6.803 -0.1462 -0.9231 -2.1037
  118Eth    Hcc 3314   1.256   2.913   6.676 -0.5400  0.2519 -0.5937
  118Eth    Hcc 3315   1.329   2.862   6.833 -0.2719 -1.2436  0.5248
  119Eth     Ho 3316   0.512   2.067   9.979 -1.0541  2.4342  1.6034
  119Eth     Oh 3317   0.532   2.131   9.913  0.2676  0.4279 -0.0184
  119Eth     Co 3318   0.673   2.136   9.913 -0.2957 -0.1356  0.1009
  119Eth    Hco 3319   0.721   2.044   9.881  0.9309  0.1772  0.9598
  119Eth    Hco 3320   0.708   2.150  10.016  2.2278 -0.7652 -0.6375
  119Eth     Ch 3321   0.721   2.254   9.832  0.0466  0.0221 -0.1600
  119Eth    Hcc 3322   0.708   2.232   9.726 -0.2647 -1.3894  0.1553
  119Eth    Hcc 3323   0.827   2.266   9.855 -0.1906  0.9822  0.4723
  119Eth    Hcc 3324   0.663   2.345   9.847 -1.9729 -1.2897  0.1905
  120Eth     Ho 3325   3.290   0.332   4.849  0.3546 -0.3945  1.4148
  120Eth     Oh 3326   3.323   0.245   4.858  0.2995 -0.5406  0.2511
  120Eth     Co 3327   3.382   0.197   4.737  0.2145 -0.0567  0.5354
  120Eth    Hco 3328   3.437   0.283   4.698 -1.1831  0.9359  0.6867
  120Eth    Hco 3329   3.297   0.174   4.673  0.2185 -2.8766  1.5117
  120Eth     Ch 3330   3.456   0.064   4.767 -0.4792  0.6647  0.8250
  120Eth    Hcc 3331   3.403   0.006   4.842 -0.4343  0.3384  0.6020
  120Eth    Hcc 3332   3.552   0.091   4.810  1.2142  1.2286 -3.1460
  120Eth    Hcc 3333   3.464  -0.003   4.681 -0.7977  0.8940  0.6129
  121Eth     Ho 3334   0.569   0.094   9.729  0.4939 -0.2399  0.5960
  121Eth     Oh 3335   0.565   0.004   9.756  0.7609 -0.2694  0.5365
  121Eth     Co 3336   0.472  -0.004   9.861 -0.2793 -0.2237 -0.3104
  121Eth    Hco 3337   0.393   0.072   9.862  0.7103  0.8865 -2.9626
  121Eth    Hco 3338   0.524   0.016   9.955 -1.4508  0.7735  0.1476
  121Eth     Ch 3339   0.401  -0.142   9.852 -0.4217 -0.2011  0.4972
  121Eth    Hcc 3340   0.340  -0.167   9.765  0.1991  1.5045 -0.4604
  121Eth    Hcc 3341   0.331  -0.157   9.934 -0.2842 -1.5308  0.3759
  121Eth    Hcc 3342   0.472  -0.225   9.851  0.8768  0.9037  0.2169
  122Eth     Ho 3343   2.766   0.450   1.759 -0.5058  1.8553  2.1158
  122Eth     Oh 3344   2.709   0.501   1.704 -0.4842 -0.3394 -0.0226
  122Eth     Co 3345   2.750   0.635   1.724  0.3046  0.2858  0.4515
  122Eth    Hco 3346   2.852   0.655   1.692  0.4789  0.3847  1.0703
  122Eth    Hco 3347   2.741   0.654   1.831  2.8212  0.6800  0.6147
  122Eth     Ch 3348   2.657   0.728   1.658  0.1082 -0.2904 -0.2879
  122Eth    Hcc 3349   2.651   0.713   1.550 -0.5647 -0.0840 -0.2764
  122Eth    Hcc 3350   2.670   0.833   1.684  2.9172 -0.7853  0.5729
  122Eth    Hcc 3351   2.557   0.702   1.690  1.1916  0.0979  3.6201
  123Eth     Ho 3352   3.201   2.157   3.028  0.2615 -1.0894 -0.7340
  123Eth     Oh 3353   3.230   2.180   3.114 -0.5858  0.0854 -0.7332
  123Eth     Co 3354   3.119   2.218   3.195 -0.0745  0.0853 -0.0350
  123Eth    Hco 3355   3.020   2.208   3.150 -0.2588  3.0870 -0.3869
  123Eth    Hco 3356   3.128   2.326   3.199  0.3586  0.0878 -0.9465
  123Eth     Ch 3357   3.129   2.149   3.326 -0.5381  0.1462  0.2742
  123Eth    Hcc 3358   3.114   2.042   3.310 -0.4345 -0.1085  1.8224
  123Eth    Hcc 3359   3.052   2.191   3.391 -1.5701 -0.6958 -0.3920
  123Eth    Hcc 3360   3.224   2.171   3.374 -1.2496  2.5172  0.6881
  124Eth     Ho 3361   0.201   2.260   8.954 -3.9544  1.0186  0.2925
  124Eth     Oh 3362   0.197   2.267   8.861 -0.1252  0.4001  0.0022
  124Eth     Co 3363   0.067   2.228   8.805  0.4707 -0.2697 -0.1113
  124Eth    Hco 3364  -0.006   2.294   8.852  1.1060 -0.1261  0.6925
  124Eth    Hco 3365   0.040   2.125   8.829  0.8063  0.3633  3.0980
  124Eth     Ch 3366   0.070   2.260   8.653 -0.5300  0.7523 -0.0369
  124Eth    Hcc 3367   0.146   2.199   8.605  1.5259  2.8229  0.4650
  124Eth    Hcc 3368   0.093   2.363   8.624  2.0418  0.3050  0.2487
  124Eth    Hcc 3369  -0.026   2.237   8.608 -0.2303 -0.4531 -0.0625
  125Eth     Ho 3370   3.102   0.359   3.827 -0.2992  0.2537  0.6193
  125Eth     Oh 3371   3.138   0.446   3.823 -0.0680  0.1262 -0.1589
  125Eth     Co 3372   3.040   0.520   3.884 -0.5035 -0.4642  0.2032
  125Eth    Hco 3373   2.972   0.451   3.934 -0.8515 -0.4128 -0.1988
  125Eth    Hco 3374   2.974   0.568   3.813  1.2879  2.5672  0.4706
  125Eth     Ch 3375   3.078   0.616   3.995 -0.0340 -0.6207 -0.6315
  125Eth    Hcc 3376   2.984   0.660   4.027 -0.1776 -0.6717 -0.9890
  125Eth    Hcc 3377   3.147   0.686   3.947 -1.0186 -1.1931 -2.9458
  125Eth    Hcc 3378   3.112   0.576   4.091 -0.9159 -0.8513 -0.4171
  126Eth     Ho 3379   1.752   0.049   6.997  0.1015 -0.3998  0.5290
  126Eth     Oh 3380   1.660   0.037   6.979  0.3261 -0.3161 -0.7522
  126Eth     Co 3381   1.595   0.090   7.097  0.0848 -0.1358  0.4167
  126Eth    Hco 3382   1.615   0.197   7.091 -2.3645  0.3298 -0.0323
  126Eth    Hco 3383   1.649   0.046   7.181  3.8131  4.4101  0.6397
  126Eth     Ch 3384   1.442   0.065   7.089  0.0157  0.4290 -0.1995
  126Eth    Hcc 3385   1.427  -0.039   7.119  1.5745  0.4468  0.6777
  126Eth    Hcc 3386   1.388   0.088   6.997 -0.4106 -2.6538 -0.7979
  126Eth    Hcc 3387   1.385   0.113   7.168  0.2221 -2.4638  1.8034
  127Eth     Ho 3388   0.276   1.464   1.320 -0.8409 -2.5712 -0.3324
  127Eth     Oh 3389   0.305   1.432   1.404  0.2522 -0.0689  0.2837
  127Eth     Co 3390   0.198   1.440   1.487  0.2895  0.0015  0.0691
  127Eth    Hco 3391   0.135   1.521   1.448  0.3839  0.5693  1.0822
  127Eth    Hco 3392   0.223   1.488   1.581 -0.5486  1.2553 -0.3311
  127Eth     Ch 3393   0.112   1.313   1.498 -0.0672 -0.6818  0.2625
  127Eth    Hcc 3394   0.174   1.235   1.544 -1.0479 -1.9037 -0.4568
  127Eth    Hcc 3395   0.080   1.268   1.404 -0.1353 -0.4009  0.1519
  127Eth    Hcc 3396   0.031   1.324   1.570  0.2489 -1.8636  0.8216
  128Eth     Ho 3397   2.521   0.595   7.998  1.0768  2.7088 -1.1961
  128Eth     Oh 3398   2.531   0.633   8.083 -0.2234  0.1990  0.1420
  128Eth     Co 3399   2.519   0.774   8.078 -0.3454 -0.0883 -0.2590
  128Eth    Hco 3400   2.447   0.794   7.998  2.5416  1.9733 -2.4387
  128Eth    Hco 3401   2.620   0.809   8.058 -0.3309  0.2580  0.4018
  128Eth     Ch 3402   2.479   0.832   8.218  0.7541 -0.0143 -0.0789
  128Eth    Hcc 3403   2.380   0.800   8.250  0.8539  1.5241  1.8089
  128Eth    Hcc 3404   2.479   0.941   8.226 -0.4313  0.0584 -0.8682
  128Eth    Hcc 3405   2.549   0.802   8.296 -1.1431 -2.5786  0.7250
  129Eth     Ho 3406   1.162   2.432   2.086 -1.8082 -0.7999 -0.3223
  129Eth     Oh 3407   1.151   2.498   2.152 -0.3518 -0.4262 -0.4381
  129Eth     Co 3408   1.013   2.520   2.171  0.1052  1.5689 -0.5987
  129Eth    Hco 3409   0.987   2.518   2.276  2.5526 -2.4792  0.0186
  129Eth    Hco 3410   0.955   2.435   2.134  1.1340  0.1467  0.9858
  129Eth     Ch 3411   0.964   2.640   2.104  0.6276 -0.4998 -0.4912
  129Eth    Hcc 3412   0.998   2.736   2.144  1.2241 -1.3039  0.9778
  129Eth    Hcc 3413   0.858   2.654   2.123  0.6501 -0.3823 -0.4493
  129Eth    Hcc 3414   0.979   2.637   1.996 -0.0466  0.1592 -0.6074
  130Eth     Ho 3415   0.636   0.826   5.052 -0.0327 -0.8896  2.6764
  130Eth     Oh 3416   0.709   0.884   5.042 -0.8871 -0.3034 -0.5805
  130Eth     Co 3417   0.764   0.920   5.164  0.0139  0.0511 -0.3733
  130Eth    Hco 3418   0.858   0.867   5.183  0.3664  1.4146  1.8908
  130Eth    Hco 3419   0.688   0.887   5.236  0.6044 -1.5277 -0.4403
  130Eth     Ch 3420   0.772   1.071   5.170 -0.3010 -0.1171 -0.0899
  130Eth    Hcc 3421   0.687   1.116   5.120 -0.7259 -1.2378 -0.4082
  130Eth    Hcc 3422   0.865   1.101   5.123 -1.3401  1.2800 -1.2724
  130Eth    Hcc 3423   0.770   1.097   5.276 -2.6134 -2.1456  0.4091
  131Eth     Ho 3424   0.876   3.363   2.662 -0.4463 -3.4529  1.9801
  131Eth     Oh 3425   0.782   3.365   2.663 -0.5036  0.0964 -0.4111
  131Eth     Co 3426   0.731   3.471   2.752  0.4029 -0.5085 -0.5357
  131Eth    Hco 3427   0.807   3.547   2.740  0.2707  0.1145  2.3348
  131Eth    Hco 3428   0.736   3.450   2.858  2.5638  2.5860  0.0407
  131Eth     Ch 3429   0.590   3.502   2.700  0.8416 -0.0819 -0.1889
  131Eth    Hcc 3430   0.537   3.590   2.735 -1.2720 -0.8699 -1.2862
  131Eth    Hcc 3431   0.525   3.415   2.710  2.3149 -1.3604 -1.2883
  131Eth    Hcc 3432   0.607   3.511   2.593  1.8379 -1.7710 -0.1930
  132Eth     Ho 3433   1.942   0.923   4.662 -2.3630  1.5820 -0.0129
  132Eth     Oh 3434   1.955   0.953   4.750 -0.2314 -0.1571  0.2910
  132Eth     Co 3435   1.837   0.909   4.824 -0.5741 -0.2599 -0.3327
  132Eth    Hco 3436   1.840   0.801   4.836  2.3458 -0.1212  0.4991
  132Eth    Hco 3437   1.756   0.945   4.760 -1.0989  0.0078  0.4662
  132Eth     Ch 3438   1.844   0.986   4.958 -0.1909 -0.8037 -0.5256
  132Eth    Hcc 3439   1.749   0.977   5.011  0.4917  0.9884  1.0429
  132Eth    Hcc 3440   1.846   1.095   4.950  0.8722 -0.7819 -0.0110
  132Eth    Hcc 3441   1.921   0.944   5.021  0.1776 -0.8744 -1.0220
  133Eth     Ho 3442   2.287   2.966   6.237 -1.4462 -0.3628  0.7102
  133Eth     Oh 3443   2.345   2.961   6.311 -0.4393 -0.0780 -0.0485
  133Eth     Co 3444   2.395   3.084   6.343 -0.6283 -0.6059 -0.6383
  133Eth    Hco 3445   2.323   3.162   6.320 -0.4469 -0.3510 -0.3339
  133Eth    Hco 3446   2.480   3.099   6.276  1.0349 -1.1034  1.3380
  133Eth     Ch 3447   2.409   3.097   6.490  0.3493  0.1773  0.5977
  133Eth    Hcc 3448   2.405   3.203   6.515 -0.2292  0.2417  0.2516
  133Eth    Hcc 3449   2.507   3.063   6.523 -1.1765 -2.5056  2.6340
  133Eth    Hcc 3450   2.331   3.054   6.554  0.7459  0.4537  1.2697
  134Eth     Ho 3451   2.842   0.336   5.906 -0.0641 -1.7607 -0.9108
  134Eth     Oh 3452   2.761   0.322   5.951  0.0476 -0.6214 -0.3507
  134Eth     Co 3453   2.765   0.399   6.067 -0.3028 -0.2636 -0.2095
  134Eth    Hco 3454   2.844   0.362   6.133 -0.0215  2.2527  0.9162
  134Eth    Hco 3455   2.676   0.387   6.128  0.8206 -2.3229  1.0879
  134Eth     Ch 3456   2.778   0.543   6.037 -0.1881 -0.4313  0.6368
  134Eth    Hcc 3457   2.820   0.607   6.114  0.5203  0.9424 -0.8730
  134Eth    Hcc 3458   2.679   0.584   6.019 -0.0468  0.2140  1.3107
  134Eth    Hcc 3459   2.840   0.561   5.950 -0.8155 -0.0659  0.2614
  135Eth     Ho 3460   1.744   1.444   4.206  1.2515 -2.2393 -0.4490
  135Eth     Oh 3461   1.727   1.448   4.299  0.6814 -0.6459 -0.6037
  135Eth     Co 3462   1.585   1.432   4.328  0.5375  0.1175  0.1422
  135Eth    Hco 3463   1.563   1.340   4.383  0.6035  0.6092  0.9835
  135Eth    Hco 3464   1.532   1.394   4.240  1.8981 -0.3976 -0.4774
  135Eth     Ch 3465   1.524   1.558   4.387 -0.5100  0.3930  0.3135
  135Eth    Hcc 3466   1.430   1.539   4.438 -0.9742 -1.6186 -1.2683
  135Eth    Hcc 3467   1.524   1.640   4.315 -0.5136 -0.8743 -1.1454
  135Eth    Hcc 3468   1.592   1.599   4.462  3.9039 -0.3960 -3.0615
  136Eth     Ho 3469   1.912   1.956   7.882  1.9924  1.4306  1.3166
  136Eth     Oh 3470   1.958   1.954   7.800 -0.0679 -0.3957  0.1437
  136Eth     Co 3471   1.913   2.063   7.724 -0.5430  0.1674  0.1907
  136Eth    Hco 3472   1.938   2.154   7.779 -1.1908  1.7463 -2.0639
  136Eth    Hco 3473   1.806   2.059   7.702 -1.2676  0.9418  3.2122
  136Eth     Ch 3474   1.982   2.085   7.588  0.3156 -0.1442 -1.1277
  136Eth    Hcc 3475   1.948   2.179   7.545  0.4390 -1.4916 -4.3564
  136Eth    Hcc 3476   1.941   2.011   7.519 -1.0997 -1.5144  1.0911
  136Eth    Hcc 3477   2.089   2.072   7.602 -0.0999 -0.4618  2.0163
  137Eth     Ho 3478   2.046   3.364   2.656 -0.3709 -2.1527 -2.7127
  137Eth     Oh 3479   1.956   3.387   2.669  0.4313 -0.2026 -0.3149
  137Eth     Co 3480   1.883   3.269   2.712 -0.2616  0.2076 -0.2257
  137Eth    Hco 3481   1.893   3.242   2.817  2.5163 -0.5257 -0.6358
  137Eth    Hco 3482   1.913   3.185   2.649  1.0241  0.1411  0.4405
  137Eth     Ch 3483   1.738   3.288   2.676 -0.3434 -0.0661  0.3673
  137Eth    Hcc 3484   1.687   3.191   2.672  0.3077 -0.4170  0.5003
  137Eth    Hcc 3485   1.722   3.336   2.580 -1.3844 -2.2463 -0.5963
  137Eth    Hcc 3486   1.687   3.343   2.755 -1.5019 -1.0084  0.2951
  138Eth     Ho 3487   0.343   3.078   6.679  1.5826  1.0246 -1.8849
  138Eth     Oh 3488   0.375   3.152   6.728 -0.2612  0.4226  0.3041
  138Eth     Co 3489   0.346   3.274   6.649 -0.5488  0.0322 -0.5246
  138Eth    Hco 3490   0.239   3.289   6.635 -0.9601 -2.7650 -0.6694
  138Eth    Hco 3491   0.393   3.272   6.551  0.5027  1.0481 -0.0517
  138Eth     Ch 3492   0.417   3.388   6.728  0.3551 -0.0421  0.5652
  138Eth    Hcc 3493   0.366   3.411   6.821 -0.3030 -2.8209  0.9490
  138Eth    Hcc 3494   0.432   3.480   6.671 -2.0437 -0.9702 -1.6345
  138Eth    Hcc 3495   0.514   3.352   6.764  0.9055  2.3328  1.5838
  139Eth     Ho 3496   2.994   1.414   9.916 -0.2283 -0.2219  0.9449
  139Eth     Oh 3497   2.941   1.434   9.841  0.4983  0.2657  0.5622
  139Eth     Co 3498   2.811   1.445   9.894  0.2793  0.1180 -0.3237
  139Eth    Hco 3499   2.814   1.530   9.963 -1.8532  0.1997 -0.2929
  139Eth    Hco 3500   2.791   1.350   9.942  2.6206 -0.1686  0.1618
  139Eth     Ch 3501   2.718   1.472   9.773  0.1782 -0.2426  0.1806
  139Eth    Hcc 3502   2.706   1.388   9.704 -0.0638 -0.3091  0.3007
  139Eth    Hcc 3503   2.758   1.559   9.721  1.5826 -0.0835  1.4721
  139Eth    Hcc 3504   2.617   1.499   9.805  0.0813  0.6405 -0.8550
  140Eth     Ho 3505   2.568   2.680   2.733  0.8750  1.1149 -0.0643
  140Eth     Oh 3506   2.516   2.746   2.774 -0.0664  0.3944 -0.0669
  140Eth     Co 3507   2.378   2.713   2.771 -0.3354  0.0235  0.7739
  140Eth    Hco 3508   2.351   2.651   2.856 -0.5444 -0.1350  0.5950
  140Eth    Hco 3509   2.360   2.649   2.684  2.2791 -0.1387  0.3230
  140Eth     Ch 3510   2.277   2.825   2.785  0.1287  0.4964 -0.0108
  140Eth    Hcc 3511   2.310   2.901   2.713  1.4860 -0.4919 -0.4496
  140Eth    Hcc 3512   2.276   2.883   2.877  0.7325  3.3084 -1.7074
  140Eth    Hcc 3513   2.175   2.805   2.754  0.4357  1.8732 -2.0312
  141Eth     Ho 3514   1.145   0.079   4.509 -2.3193 -1.4487 -1.2716
  141Eth     Oh 3515   1.121   0.161   4.470 -0.0959 -0.1852 -0.0803
  141Eth     Co 3516   1.106   0.251   4.575 -0.3698 -0.0071  0.5353
  141Eth    Hco 3517   1.196   0.249   4.637 -0.0958 -0.4538  0.1308
  141Eth    Hco 3518   1.011   0.222   4.620  0.4973 -0.7802  1.8923
  141Eth     Ch 3519   1.099   0.401   4.537 -0.4566 -0.2058 -0.2019
  141Eth    Hcc 3520   1.020   0.423   4.466  0.2294 -0.2022 -0.9678
  141Eth    Hcc 3521   1.198   0.425   4.497  0.6410  0.2393  2.5890
  141Eth    Hcc 3522   1.100   0.456   4.632 -0.3662 -2.9636  1.4484
  142Eth     Ho 3523   0.949   2.970   4.560  2.9730 -1.7218  3.4354
  142Eth     Oh 3524   0.928   3.043   4.616  0.0721 -0.0039  0.3094
  142Eth     Co 3525   1.046   3.121   4.611  0.5115  0.0424 -0.4345
  142Eth    Hco 3526   1.077   3.113   4.507  2.5174  3.2155 -0.1422
  142Eth    Hco 3527   1.138   3.071   4.641  0.0311 -1.1887 -0.9692
  142Eth     Ch 3528   1.040   3.263   4.658 -0.3861 -0.0034  0.2733
  142Eth    Hcc 3529   0.939   3.301   4.643 -0.6850 -1.0215 -0.3384
  142Eth    Hcc 3530   1.104   3.317   4.589  2.1500 -2.0564  0.9388
  142Eth    Hcc 3531   1.062   3.293   4.761  0.3215 -0.5993  0.3056
  143Eth     Ho 3532   3.147   2.113   4.573  1.0163 -0.2035 -0.1904
  143Eth     Oh 3533   3.082   2.117   4.505 -0.1907 -0.2147  0.9447
  143Eth     Co 3534   3.141   2.111   4.384  0.1494 -0.7257  0.6115
  143Eth    Hco 3535   3.238   2.063   4.377  0.3625 -0.3085  0.6879
  143Eth    Hco 3536   3.159   2.216   4.362 -1.1001 -0.5341  0.4568
  143Eth     Ch 3537   3.045   2.048   4.283 -0.4374  0.1544 -0.5735
  143Eth    Hcc 3538   2.972   2.123   4.252  0.2614  0.7354 -0.8476
  143Eth    Hcc 3539   2.988   1.977   4.342  0.1255  1.4055  1.5329
  143Eth    Hcc 3540   3.092   1.989   4.204  1.1298  0.1172  0.3471
  144Eth     Ho 3541   1.412   0.231   2.254  0.9175  0.2733  0.1055
  144Eth     Oh 3542   1.420   0.260   2.343  0.3563  0.7321  0.0089
  144Eth     Co 3543   1.561   0.268   2.362  0.5479 -0.9641 -0.0904
  144Eth    Hco 3544   1.601   0.293   2.263 -1.6702 -0.3216 -0.8588
  144Eth    Hco 3545   1.605   0.173   2.393  2.9234  0.6682  1.6746
  144Eth     Ch 3546   1.600   0.377   2.465 -0.3132 -0.2037  0.3629
  144Eth    Hcc 3547   1.565   0.342   2.562 -1.1935 -0.9025 -0.1983
  144Eth    Hcc 3548   1.555   0.471   2.435 -1.4970 -0.9880 -0.3311
  144Eth    Hcc 3549   1.708   0.396   2.464 -0.0342 -1.7034  0.0600
  145Eth     Ho 3550   3.198   1.017   7.410 -0.0050 -0.4395  1.6367
  145Eth     Oh 3551   3.107   0.995   7.410 -0.2018  0.2557 -0.5582
  145Eth     Co 3552   3.039   1.025   7.537 -0.1729 -0.4359  0.1094
  145Eth    Hco 3553   3.073   1.114   7.590 -2.0105 -0.4849  1.4215
  145Eth    Hco 3554   3.061   0.941   7.602  0.7781  0.4790  0.9935
  145Eth     Ch 3555   2.884   1.033   7.515  0.0202 -0.3416  0.2407
  145Eth    Hcc 3556   2.836   1.062   7.608 -0.2324  0.8972 -0.2649
  145Eth    Hcc 3557   2.818   0.953   7.483 -0.2396  0.2167 -0.6451
  145Eth    Hcc 3558   2.869   1.120   7.452 -0.6297 -1.2800 -0.9206
  146Eth     Ho 3559   2.893   1.011   8.844  0.8503  0.3985 -0.1254
  146Eth     Oh 3560   2.866   0.971   8.924  0.1572  0.3517 -0.3810
  146Eth     Co 3561   2.849   1.060   9.022  0.2503 -0.1066 -0.2471
  146Eth    Hco 3562   2.767   1.119   8.979 -0.8533 -1.1700  0.3780
  146Eth    Hco 3563   2.934   1.126   9.037  0.7603 -1.2607  2.0738
  146Eth     Ch 3564   2.802   1.005   9.156 -0.7756 -0.1582  0.1285
  146Eth    Hcc 3565   2.746   1.088   9.200  1.9082  2.0235 -0.4931
  146Eth    Hcc 3566   2.890   0.974   9.213  0.0789  0.3848 -0.8827
  146Eth    Hcc 3567   2.741   0.917   9.138  0.3679 -1.3523  1.8662
  147Eth     Ho 3568   0.996   0.794   2.494  1.5728  0.1767 -0.0571
  147Eth     Oh 3569   0.974   0.884   2.507  0.3926 -0.0669 -0.3124
  147Eth     Co 3570   0.834   0.901   2.508 -0.4219 -0.4530 -0.0762
  147Eth    Hco 3571   0.807   0.991   2.563 -1.1331  0.1370 -1.3754
  147Eth    Hco 3572   0.781   0.825   2.565 -1.0354  0.8428  1.1182
  147Eth     Ch 3573   0.783   0.922   2.368 -0.3353  0.0503 -0.5042
  147Eth    Hcc 3574   0.676   0.943   2.366 -0.4148 -0.2277  0.5246
  147Eth    Hcc 3575   0.792   0.827   2.314  1.1821  0.2096 -0.5469
  147Eth    Hcc 3576   0.827   1.001   2.307 -1.9510  1.1683 -0.2378
  148Eth     Ho 3577   2.431   2.984   7.734  2.3460 -1.0435  0.0240
  148Eth     Oh 3578   2.458   3.047   7.671 -0.3133  0.2076  0.0827
  148Eth     Co 3579   2.594   3.071   7.675 -0.8369 -0.0959  0.7216
  148Eth    Hco 3580   2.643   2.976   7.655 -0.1696  0.8736 -2.5411
  148Eth    Hco 3581   2.627   3.124   7.764 -0.5271 -0.7117  0.9745
  148Eth     Ch 3582   2.634   3.141   7.543 -0.1066 -0.2636 -0.7771
  148Eth    Hcc 3583   2.641   3.248   7.561  0.7138 -0.9996  3.8754
  148Eth    Hcc 3584   2.551   3.124   7.474  0.5591  1.6406 -2.0925
  148Eth    Hcc 3585   2.725   3.104   7.494 -0.3429 -0.2095 -1.2615
  149Eth     Ho 3586   1.500   2.958   1.505  0.7858 -1.1208  1.5822
  149Eth     Oh 3587   1.443   2.891   1.475 -0.6192  0.6588  0.1487
  149Eth     Co 3588   1.508   2.765   1.496 -0.8438 -0.2355  0.0102
  149Eth    Hco 3589   1.515   2.746   1.603  0.5799  3.2090  0.5989
  149Eth    Hco 3590   1.609   2.771   1.456 -0.5064  0.5239  0.9358
  149Eth     Ch 3591   1.420   2.662   1.417 -0.3052 -0.2710  0.4462
  149Eth    Hcc 3592   1.468   2.564   1.418 -1.8414 -1.0402  1.3719
  149Eth    Hcc 3593   1.393   2.688   1.315 -0.4288  0.0531  0.5627
  149Eth    Hcc 3594   1.325   2.652   1.469 -0.0659 -0.5712  0.8330
  150Eth     Ho 3595   0.115   1.450   1.898  0.6678 -0.4438 -0.3973
  150Eth     Oh 3596   0.155   1.532   1.873 -0.0843  0.1443  0.2750
  150Eth     Co 3597   0.295   1.501   1.887  0.4532  0.2128  0.0329
  150Eth    Hco 3598   0.304   1.423   1.811 -0.4944 -0.9912  1.1364
  150Eth    Hco 3599   0.307   1.458   1.986 -0.5533  1.3993  0.6889
  150Eth     Ch 3600   0.378   1.632   1.871 -0.1276  0.0903  0.3262
  150Eth    Hcc 3601   0.322   1.696   1.940 -1.3112 -1.9669  1.3095
  150Eth    Hcc 3602   0.361   1.672   1.771  0.6788  0.3903  0.3011
  150Eth    Hcc 3603   0.483   1.616   1.896  0.0142 -1.1708 -1.0093
  151Eth     Ho 3604   2.784   1.442   1.521 -0.5442  0.3497 -0.3522
  151Eth     Oh 3605   2.838   1.436   1.445 -0.2442  0.3868 -0.1401
  151Eth     Co 3606   2.965   1.418   1.509 -0.4298  0.5855  0.0745
  151Eth    Hco 3607   2.967   1.374   1.609 -3.0966  1.6075  0.6097
  151Eth    Hco 3608   3.014   1.515   1.505  0.2288  0.2525 -0.1052
  151Eth     Ch 3609   3.046   1.331   1.411  0.1784  0.2518 -0.4710
  151Eth    Hcc 3610   3.146   1.323   1.455 -0.5786 -0.7199  1.1654
  151Eth    Hcc 3611   3.051   1.372   1.311 -0.2702  1.8283  0.1414
  151Eth    Hcc 3612   3.008   1.230   1.393 -0.1848 -0.4437  3.5619
  152Sol     OW 3613   0.183   1.742   6.573 -0.2610 -0.5989  0.3181
  152Sol     HW 3614   0.183   1.659   6.526 -1.2473  0.1906 -1.1194
  152Sol     HW 3615   0.242   1.799   6.523 -2.4944  0.7239 -0.8773
  152Sol     MW 3616   0.188   1.740   6.565  0.5144 -0.4277  0.1446
  153Sol     OW 3617   0.623   0.294   8.793  0.0666  0.3764  0.4111
  153Sol     HW 3618   0.685   0.311   8.722 -0.2988 -2.0699 -0.5413
  153Sol     HW 3619   0.538   0.321   8.758 -0.2340 -1.5964 -0.3938
  153Sol     MW 3620   0.621   0.298   8.784  0.2045  0.3853 -0.9011
  154Sol     OW 3621   1.255   0.830   8.989  0.4694 -0.3921  0.1554
  154Sol     HW 3622   1.279   0.740   9.008  2.1543 -0.0865 -0.4712
  154Sol     HW 3623   1.190   0.823   8.919 -0.1218 -1.1394  0.7583
  154Sol     MW 3624   1.251   0.822   8.985 -0.0596  0.9594 -0.0913
  155Sol     OW 3625   1.329   1.915   7.087 -0.1067  0.2302 -0.4221
  155Sol     HW 3626   1.320   1.855   7.161  0.8520  0.6967  0.0861
  155Sol     HW 3627   1.257   1.892   7.028 -0.3181 -0.7690  0.2161
  155Sol     MW 3628   1.322   1.908   7.088  0.2276 -0.3604 -0.3205
  156Sol     OW 3629   1.577   1.868   6.931  0.3281 -0.0882  0.1860
  156Sol     HW 3630   1.569   1.773   6.934 -1.8432 -0.0506 -2.1239
  156Sol     HW 3631   1.503   1.900   6.983  0.3609  0.3232 -0.0167
  156Sol     MW 3632   1.569   1.863   6.936  0.4359 -0.2795 -0.1425
  157Sol     OW 3633   2.747   2.588   8.179 -0.0064 -0.3497 -0.3672
  157Sol     HW 3634   2.716   2.590   8.089 -2.1218 -1.4490  0.2999
  157Sol     HW 3635   2.799   2.508   8.185 -1.2502 -1.1526 -0.1898
  157Sol     MW 3636   2.749   2.581   8.172 -0.2969  0.2518 -0.3602
  158Sol     OW 3637   3.020   1.589   9.308 -0.4761 -0.3856 -0.1900
  158Sol     HW 3638   3.054   1.616   9.393 -2.1010 -3.5060  1.5484
  158Sol     HW 3639   3.085   1.528   9.274 -0.3105  0.0914 -0.7420
  158Sol     MW 3640   3.029   1.586   9.313  0.5209  0.2945  0.0290
  159Sol     OW 3641   2.308   0.205   4.335 -0.1727  0.1328  0.3828
  159Sol     HW 3642   2.364   0.246   4.401 -0.2340 -0.8187  1.0475
  159Sol     HW 3643   2.262   0.135   4.383  0.6082 -1.3007 -0.9206
  159Sol     MW 3644   2.309   0.202   4.345  0.3852 -0.3959 -0.7435
  160Sol     OW 3645   3.143   1.640   5.092 -0.1899  0.5257  0.0346
  160Sol     HW 3646   3.201   1.564   5.100 -1.2795 -0.4729 -1.3362
  160Sol     HW 3647   3.179   1.690   5.019  0.7660  1.5742  1.1946
  160Sol     MW 3648   3.151   1.638   5.086  0.3411  0.6889 -0.2897
  161Sol     OW 3649   2.155   3.042   6.139 -0.5160 -0.4472  0.5436
  161Sol     HW 3650   2.160   3.134   6.113  0.7487 -0.8232 -0.6398
  161Sol     HW 3651   2.127   2.997   6.059 -0.4932 -1.1619  0.9406
  161Sol     MW 3652   2.153   3.046   6.129  0.3283 -0.1637  0.0409
  162Sol     OW 3653   2.055   1.427   3.042 -0.0646 -0.1099 -0.1172
  162Sol     HW 3654   2.083   1.458   2.956 -1.3678 -0.1812 -0.5814
  162Sol     HW 3655   2.109   1.475   3.104  1.1532 -0.3343 -0.9888
  162Sol     MW 3656   2.062   1.434   3.040  0.4647 -0.2138 -0.0557
  163Sol     OW 3657   1.772   2.320   8.350  0.4498 -0.2471  0.3762
  163Sol     HW 3658   1.681   2.301   8.369  0.0280 -0.8240 -2.0014
  163Sol     HW 3659   1.816   2.316   8.435 -1.7341  0.1827  1.5643
  163Sol     MW 3660   1.768   2.318   8.359 -0.0526 -0.8968  0.5141
  164Sol     OW 3661   1.198   1.286   1.566  0.0098 -0.6057 -0.4478
  164Sol     HW 3662   1.271   1.308   1.625 -2.1028 -0.5607  2.2745
  164Sol     HW 3663   1.195   1.190   1.566 -0.1524 -0.6025 -0.2341
  164Sol     MW 3664   1.205   1.279   1.571 -0.5091 -0.0445 -0.4268
  165Sol     OW 3665   0.223   1.006   5.884 -0.1977  0.2884 -0.3479
  165Sol     HW 3666   0.135   0.990   5.919  0.0763 -1.6670 -0.4877
  165Sol     HW 3667   0.219   1.093   5.847 -2.6602 -0.5095 -2.0514
  165Sol     MW 3668   0.215   1.012   5.884  0.1764  0.1156  0.5764
  166Sol     OW 3669   2.024   0.881   8.078 -0.5906  0.1627 -0.1881
  166Sol     HW 3670   2.029   0.900   7.984 -3.8239  1.7706 -0.0990
  166Sol     HW 3671   2.099   0.927   8.115  0.6625 -0.4005 -1.9424
  166Sol     MW 3672   2.031   0.887   8.073 -0.1751 -0.2453 -0.6464
  167Sol     OW 3673   2.722   2.696   4.162 -0.0094  0.2494  0.2672
  167Sol     HW 3674   2.774   2.619   4.139  0.3487  0.3398  0.7664
  167Sol     HW 3675   2.770   2.737   4.234 -0.0337  1.1188 -0.2049
  167Sol     MW 3676   2.731   2.693   4.166 -0.1164  0.2739 -0.6416
  168Sol     OW 3677   2.907   3.416   7.420  0.2751  0.7195 -0.1815
  168Sol     HW 3678   2.936   3.328   7.397 -2.4482 -0.0968 -0.7643
  168Sol     HW 3679   2.871   3.407   7.508 -0.6868  1.0539 -0.5261
  168Sol     MW 3680   2.906   3.408   7.426 -0.2706  0.6770 -0.7164
  169Sol     OW 3681   0.430   3.072   3.550  1.0722 -0.0872 -0.0151
  169Sol     HW 3682   0.507   3.070   3.494  0.3687  0.9088 -1.0348
  169Sol     HW 3683   0.363   3.116   3.497  0.2892  0.5173  1.4622
  169Sol     MW 3684   0.431   3.075   3.540  0.2288  0.2077 -0.1849
  170Sol     OW 3685   3.201   1.618   7.114 -0.6845 -0.5627 -0.9172
  170Sol     HW 3686   3.249   1.561   7.174  0.2151  1.6816  0.5144
  170Sol     HW 3687   3.109   1.596   7.129 -0.4217 -0.5975  0.6600
  170Sol     MW 3688   3.197   1.611   7.120 -0.1241 -0.4164 -0.2118
  171Sol     OW 3689   3.069   0.147   5.801  0.3492 -0.1151 -0.0384
  171Sol     HW 3690   3.070   0.116   5.892  0.6775 -1.6041 -0.5254
  171Sol     HW 3691   3.146   0.107   5.761  0.4021  0.8070 -0.8933
  171Sol     MW 3692   3.076   0.140   5.805 -0.0407  0.4926 -0.1191
  172Sol     OW 3693   2.500   3.123   9.940 -0.2420  0.1267 -0.5302
  172Sol     HW 3694   2.443   3.200   9.936  0.2020  0.4674 -0.2871
  172Sol     HW 3695   2.587   3.155   9.918  0.0278 -0.2192  0.0071
  172Sol     MW 3696   2.502   3.132   9.938  0.3815 -0.2023 -0.3528
  173Sol     OW 3697   2.293   3.164   5.424  0.1951  0.1761  0.3619
  173Sol     HW 3698   2.210   3.159   5.470  0.5894 -1.2466  0.9193
  173Sol     HW 3699   2.308   3.258   5.414 -0.6353  0.4821  1.7805
  173Sol     MW 3700   2.287   3.172   5.427 -0.6690  0.0421 -0.1846
  174Sol     OW 3701   2.610   1.001   5.286  0.3503 -0.2534  0.0468
  174Sol     HW 3702   2.616   0.967   5.375  0.7745 -1.7119 -0.5285
  174Sol     HW 3703   2.589   0.925   5.232 -2.6695  1.0811 -0.7711
  174Sol     MW 3704   2.609   0.991   5.289  0.0832 -0.0061 -0.1840
  175Sol     OW 3705   1.560   0.842   4.665  0.0228  0.0602  0.5541
  175Sol     HW 3706   1.642   0.855   4.618  0.9936 -0.8004  1.9582
  175Sol     HW 3707   1.521   0.765   4.624 -0.4627  0.9204 -0.6180
  175Sol     MW 3708   1.564   0.836   4.657 -0.9187  0.3353 -0.4924
  176Sol     OW 3709   1.904   0.541   5.700  0.2745 -0.3894  0.1205
  176Sol     HW 3710   1.928   0.476   5.634  1.9565 -0.4755  0.7909
  176Sol     HW 3711   1.890   0.490   5.780 -1.3531 -0.2380 -0.0329
  176Sol     MW 3712   1.905   0.530   5.701  0.4570  1.2551  0.6053
  177Sol     OW 3713   0.130   3.335   9.268  0.1885 -0.6994  0.2078
  177Sol     HW 3714   0.062   3.388   9.227  1.3545  1.2208  0.6796
  177Sol     HW 3715   0.208   3.349   9.214  1.2113  0.2693  1.8928
  177Sol     MW 3716   0.131   3.341   9.260  0.0588 -0.0856  0.6262
  178Sol     OW 3717   1.809   2.555   5.471  0.0616 -0.4535  0.0567
  178Sol     HW 3718   1.773   2.562   5.560  0.9648  1.2260  0.3167
  178Sol     HW 3719   1.900   2.529   5.484  0.3265  0.2579 -0.3513
  178Sol     MW 3720   1.814   2.554   5.480 -0.0298  0.3501  0.0457
  179Sol     OW 3721   2.418   2.819   1.878 -0.0934 -0.5946  0.7255
  179Sol     HW 3722   2.378   2.754   1.936 -0.0349  0.3421  1.8215
  179Sol     HW 3723   2.347   2.879   1.855  0.5818  0.8418  2.3592
  179Sol     MW 3724   2.408   2.818   1.881 -0.0993  0.2144  0.6407
  180Sol     OW 3725   2.634   2.402   6.318  0.5661  0.1407 -0.1891
  180Sol     HW 3726   2.559   2.395   6.378  1.2263  0.4396  0.6856
  180Sol     HW 3727   2.706   2.360   6.366  1.2373  0.8840 -0.5406
  180Sol     MW 3728   2.634   2.397   6.328  0.3959  0.2381 -0.3768
  181Sol     OW 3729   1.479   2.962   8.194  0.2540  0.4815 -0.4330
  181Sol     HW 3730   1.541   2.911   8.142  0.8712  2.1179 -1.3591
  181Sol     HW 3731   1.425   3.007   8.129 -0.4314  0.8112  0.3606
  181Sol     MW 3732   1.480   2.962   8.183  0.4207 -0.4719 -0.4209
  182Sol     OW 3733   2.739   1.826   5.571  0.1886 -0.7256  0.2719
  182Sol     HW 3734   2.803   1.829   5.500  0.1817 -2.1995  0.1823
  182Sol     HW 3735   2.764   1.749   5.622 -1.7001 -1.5131  0.0366
  182Sol     MW 3736   2.747   1.819   5.569  0.2536 -0.2994  0.2688
  183Sol     OW 3737   1.222   3.249   7.249  0.0545 -0.0658  0.1574
  183Sol     HW 3738   1.292   3.196   7.212 -1.4359 -0.3532 -2.3012
  183Sol     HW 3739   1.266   3.304   7.315  2.3739 -1.0296 -0.5603
  183Sol     MW 3740   1.232   3.249   7.252  0.6262  0.1751 -0.5434
  184Sol     OW 3741   2.472   3.107   1.395  0.0531 -0.6857  0.3704
  184Sol     HW 3742   2.454   3.069   1.310  2.1343 -0.1229 -0.3553
  184Sol     HW 3743   2.523   3.186   1.376  0.2357 -0.3597  2.1130
  184Sol     MW 3744   2.475   3.111   1.386  0.4310 -0.3537  0.0107
  185Sol     OW 3745   2.904   2.525   3.190 -0.0720 -0.1955 -0.9046
  185Sol     HW 3746   2.975   2.493   3.246  0.0051 -0.7877 -1.3358
  185Sol     HW 3747   2.824   2.500   3.237 -0.0031 -0.3622 -0.8746
  185Sol     MW 3748   2.903   2.520   3.200 -0.9249  0.1695  0.5461
  186Sol     OW 3749   2.039   0.480   7.698 -0.0591 -0.1571  0.3912
  186Sol     HW 3750   2.109   0.512   7.756  0.4758 -0.6066 -0.0044
  186Sol     HW 3751   2.082   0.466   7.614 -0.9218  0.8851 -0.2426
  186Sol     MW 3752   2.049   0.482   7.696 -0.2454  0.8655  0.0981
  187Sol     OW 3753   1.919   1.729   4.853 -0.0964  0.0352 -0.3773
  187Sol     HW 3754   1.907   1.716   4.759 -1.4953  0.1781 -0.2254
  187Sol     HW 3755   1.831   1.726   4.890  0.3966  0.4081  0.8817
  187Sol     MW 3756   1.910   1.728   4.848  0.3671 -0.4067  0.0932
  188Sol     OW 3757   2.590   2.849   6.711  0.1916 -0.1973 -0.9591
  188Sol     HW 3758   2.626   2.938   6.718  0.6184 -0.5086  1.1792
  188Sol     HW 3759   2.628   2.814   6.631  1.5836  0.8533 -0.7769
  188Sol     MW 3760   2.596   2.854   6.704 -0.6897 -0.0908 -0.5681
  189Sol     OW 3761   2.676   3.337   4.787 -0.3219 -0.3741 -0.0082
  189Sol     HW 3762   2.598   3.281   4.779 -1.6133  1.4319 -0.4650
  189Sol     HW 3763   2.736   3.287   4.842 -1.6785 -1.9460  0.0883
  189Sol     MW 3764   2.674   3.327   4.791 -0.7468 -0.1895 -0.0255
  190Sol     OW 3765   2.605   0.148   6.338 -0.6990  0.2756 -0.1103
  190Sol     HW 3766   2.534   0.207   6.361 -1.2148 -0.7973  1.0898
  190Sol     HW 3767   2.561   0.068   6.308 -0.0069 -0.5460  1.0337
  190Sol     MW 3768   2.595   0.146   6.337 -0.6343 -0.2533  0.4428
  191Sol     OW 3769   2.037   1.444   4.854  0.4238  0.1232 -0.1325
  191Sol     HW 3770   2.024   1.394   4.935  0.6697 -0.5132 -0.4848
  191Sol     HW 3771   1.995   1.528   4.871  0.2514 -0.1005  0.5669
  191Sol     MW 3772   2.032   1.447   4.863  0.3939  0.2931 -0.3297
  192Sol     OW 3773   2.053   3.344   5.326 -0.1178 -0.4694  0.0536
  192Sol     HW 3774   2.032   3.276   5.391 -0.8676 -0.7834 -0.5105
  192Sol     HW 3775   2.045   3.300   5.242 -1.9400  0.6508 -0.3899
  192Sol     MW 3776   2.051   3.334   5.324  0.5941  0.5552 -0.0675
  193Sol     OW 3777   0.055   1.347   8.285  0.4063  0.3506 -0.0309
  193Sol     HW 3778   0.065   1.410   8.356  1.3956  0.0683  0.0937
  193Sol     HW 3779   0.028   1.399   8.210 -1.0442  0.6002  0.6448
  193Sol     MW 3780   0.054   1.357   8.285 -0.7039 -0.2879  0.7033
  194Sol     OW 3781   3.000   0.997   7.155 -0.0783 -0.3502  0.0577
  194Sol     HW 3782   3.027   0.976   7.245  0.1615  0.3480  0.1456
  194Sol     HW 3783   2.973   1.088   7.158 -0.9235 -0.5744 -0.3882
  194Sol     MW 3784   3.000   1.003   7.163  0.0034 -0.2644 -0.1879
  195Sol     OW 3785   1.039   2.848   9.798  0.3650 -0.1703 -0.9506
  195Sol     HW 3786   0.974   2.865   9.730  0.8912 -1.4513 -1.7928
  195Sol     HW 3787   0.988   2.830   9.876 -0.2874 -0.6287 -1.4775
  195Sol     MW 3788   1.029   2.848   9.799 -0.0934 -0.3767 -0.1405
  196Sol     OW 3789   0.588   1.717   4.231  0.1074 -0.0563 -0.4375
  196Sol     HW 3790   0.528   1.644   4.219 -1.0144  0.6423  0.7307
  196Sol     HW 3791   0.570   1.776   4.158  0.3974 -0.5319 -0.8931
  196Sol     MW 3792   0.581   1.716   4.223  0.5924  0.3008 -0.3337
  197Sol     OW 3793   2.301   0.158   8.213  0.5308  0.2051 -0.0360
  197Sol     HW 3794   2.290   0.163   8.308  0.0524 -1.7204  0.0419
  197Sol     HW 3795   2.313   0.248   8.185  2.0887  0.6747  2.0247
  197Sol     MW 3796   2.301   0.166   8.219 -0.0958  0.1041  0.0008
  198Sol     OW 3797   1.430   2.169   7.078 -0.2089  0.0109 -0.4677
  198Sol     HW 3798   1.443   2.177   6.984  1.4027 -2.2817 -0.4810
  198Sol     HW 3799   1.376   2.091   7.088  0.2003 -0.1474  0.5468
  198Sol     MW 3800   1.426   2.163   7.070 -0.4198 -0.3184 -0.5778
  199Sol     OW 3801   3.102   0.447   7.009 -0.7032  0.7469  0.5619
  199Sol     HW 3802   3.159   0.520   6.984 -1.3925  1.4068  0.9104
  199Sol     HW 3803   3.122   0.431   7.101 -0.1364  0.1100  0.3322
  199Sol     MW 3804   3.109   0.452   7.015  0.4776  0.2545  1.0067
  200Sol     OW 3805   3.256   1.125   8.985  0.1576 -0.1751 -0.2870
  200Sol     HW 3806   3.239   1.077   9.066  0.7356  0.8163  0.4368
  200Sol     HW 3807   3.196   1.200   8.989  0.5868  0.1814 -0.5041
  200Sol     MW 3808   3.249   1.127   8.993  0.3221 -0.1758 -0.7508
  201Sol     OW 3809   1.373   0.607   6.129 -0.2118 -0.6930  0.2057
  201Sol     HW 3810   1.416   0.521   6.132 -1.1589 -1.1698  0.3238
  201Sol     HW 3811   1.280   0.588   6.142 -0.7790  0.0730 -2.4726
  201Sol     MW 3812   1.369   0.597   6.130 -0.0462  0.1837 -0.3763
  202Sol     OW 3813   0.237   0.233   3.864  0.2203  0.1450  0.3791
  202Sol     HW 3814   0.197   0.174   3.800  0.2383  0.0930  0.4156
  202Sol     HW 3815   0.182   0.311   3.863  0.1873  0.1213  0.3420
  202Sol     MW 3816   0.229   0.235   3.858 -0.0198  0.4430 -0.1961
  203Sol     OW 3817   2.467   2.738   4.273  0.7695 -0.1630  0.0458
  203Sol     HW 3818   2.542   2.735   4.214  0.6486  0.1644 -0.1205
  203Sol     HW 3819   2.394   2.764   4.218  0.6520  0.1162  0.3371
  203Sol     MW 3820   2.467   2.740   4.263  0.0076  0.0387  0.1474
  204Sol     OW 3821   2.276   2.641   4.475 -0.5670  0.0729 -0.2022
  204Sol     HW 3822   2.355   2.653   4.424 -0.5819  0.7227 -0.0759
  204Sol     HW 3823   2.285   2.702   4.549 -1.3619  0.4392 -0.4037
  204Sol     MW 3824   2.284   2.647   4.477 -0.1240 -0.3515 -0.4499
  205Sol     OW 3825   2.660   3.238   8.406 -0.2471 -0.2360 -0.7923
  205Sol     HW 3826   2.583   3.203   8.361 -1.2878  1.1525 -0.1111
  205Sol     HW 3827   2.686   3.168   8.466  0.1518 -1.4443 -2.3358
  205Sol     MW 3828   2.656   3.229   8.407 -0.7403 -0.7941  0.3669
  206Sol     OW 3829   2.209   2.081   2.131 -0.5388  0.3337  0.3982
  206Sol     HW 3830   2.178   2.012   2.073 -1.7719  1.4288 -0.2758
  206Sol     HW 3831   2.255   2.035   2.201  0.1586 -1.0522 -0.9511
  206Sol     MW 3832   2.210   2.071   2.132  0.3408 -0.0217  0.0036
  207Sol     OW 3833   1.678   2.814   3.311 -0.2475  0.1069  0.0994
  207Sol     HW 3834   1.765   2.791   3.345 -1.2523 -1.9860  1.3308
  207Sol     HW 3835   1.696   2.851   3.224  1.8595 -0.4613  0.2552
  207Sol     MW 3836   1.688   2.815   3.306 -0.2148 -0.5106  0.2040
  208Sol     OW 3837   2.496   2.350   8.830  0.2862 -0.2149 -0.1521
  208Sol     HW 3838   2.507   2.442   8.856  0.5414  0.3648 -2.2312
  208Sol     HW 3839   2.425   2.318   8.885 -1.4867  1.9516 -1.1136
  208Sol     MW 3840   2.491   2.355   8.838  0.1489 -0.0994  0.1759
  209Sol     OW 3841   3.187   1.723   4.123  0.0807 -0.3112  0.0099
  209Sol     HW 3842   3.209   1.791   4.059 -0.1342  0.6705  0.9841
  209Sol     HW 3843   3.122   1.668   4.078  0.4314 -0.0247 -0.8615
  209Sol     MW 3844   3.183   1.724   4.113 -0.0702 -0.0053 -0.3804
  210Sol     OW 3845   2.400   1.594   3.676  0.3307  0.9020 -0.5080
  210Sol     HW 3846   2.416   1.634   3.761  0.3388 -0.8138  0.3243
  210Sol     HW 3847   2.484   1.597   3.632  1.2792 -1.5315  1.0186
  210Sol     MW 3848   2.409   1.598   3.680 -0.7243 -0.1269 -0.7973
  211Sol     OW 3849   1.943   2.422   6.236  0.1698 -0.5062  0.0426
  211Sol     HW 3850   2.015   2.366   6.264  0.3065 -0.9135 -1.1054
  211Sol     HW 3851   1.980   2.476   6.167  0.6907  2.6520  2.6627
  211Sol     MW 3852   1.953   2.422   6.233 -0.0331 -0.4745 -0.1061
  212Sol     OW 3853   2.619   1.548   4.358 -0.3480 -0.4434 -0.6390
  212Sol     HW 3854   2.682   1.493   4.312 -0.3492 -1.2763  0.3241
  212Sol     HW 3855   2.643   1.637   4.336 -1.5550 -0.8597 -3.8282
  212Sol     MW 3856   2.627   1.551   4.352  0.1496 -0.0310  0.0005
  213Sol     OW 3857   0.363   0.210   6.420 -0.2252 -0.1669  0.0505
  213Sol     HW 3858   0.432   0.269   6.451 -1.2395  0.9555  0.2394
  213Sol     HW 3859   0.315   0.187   6.500 -1.1979  0.5690 -0.3022
  213Sol     MW 3860   0.365   0.213   6.430  0.3898  0.4954 -0.7217
  214Sol     OW 3861   1.951   1.744   7.487 -0.6336  0.2721  0.0473
  214Sol     HW 3862   1.881   1.787   7.438 -0.2675 -0.9532 -1.5822
  214Sol     HW 3863   2.027   1.749   7.429 -0.1162 -0.9510  0.6182
  214Sol     MW 3864   1.952   1.749   7.478 -0.6347  0.2094 -0.0284
  215Sol     OW 3865   3.089   0.944   4.333  0.1568  0.1859  0.3284
  215Sol     HW 3866   3.065   0.855   4.359  0.3767  0.2065  0.5971
  215Sol     HW 3867   3.141   0.977   4.405 -0.3717  0.7237  0.4665
  215Sol     MW 3868   3.091   0.939   4.342 -0.6095 -0.0456  0.2813
  216Sol     OW 3869   2.476   2.195   3.976 -0.3226 -0.5037 -0.2549
  216Sol     HW 3870   2.479   2.100   3.979 -0.7405 -0.6673 -3.3614
  216Sol     HW 3871   2.496   2.217   3.885  2.2120  2.5072  0.9289
  216Sol     MW 3872   2.478   2.189   3.968 -0.4628 -0.2630  0.5376
  217Sol     OW 3873   0.373   3.069   9.064 -1.0470 -0.3309 -0.6080
  217Sol     HW 3874   0.307   3.099   9.002  1.4981  4.1803 -1.3530
  217Sol     HW 3875   0.439   3.025   9.010  0.2588  1.9624 -0.9324
  217Sol     MW 3876   0.373   3.068   9.054 -0.1723 -0.4421 -0.4470
  218Sol     OW 3877   1.268   0.662   6.979 -0.3220  0.4815 -0.8341
  218Sol     HW 3878   1.351   0.709   6.981  0.1676 -0.4163  0.4474
  218Sol     HW 3879   1.291   0.572   6.956 -0.8063  0.0021  0.4850
  218Sol     MW 3880   1.277   0.658   6.977 -0.2274 -0.8200 -0.6154
  219Sol     OW 3881   0.922   1.637   1.485  0.3447 -0.0734 -0.1859
  219Sol     HW 3882   0.909   1.731   1.497 -3.0975 -0.3589 -1.2075
  219Sol     HW 3883   0.964   1.629   1.399  0.3274  0.4806 -0.2453
  219Sol     MW 3884   0.925   1.644   1.478 -0.0650  0.9643  0.4079
  220Sol     OW 3885   0.823   0.686   6.822 -0.8349 -0.1993  0.3885
  220Sol     HW 3886   0.784   0.697   6.909  1.4722  3.0584  1.0972
  220Sol     HW 3887   0.879   0.608   6.831 -0.9930 -0.1758  1.6825
  220Sol     MW 3888   0.825   0.680   6.831 -0.3790 -0.3872 -0.1934
  221Sol     OW 3889   0.020   2.454   3.691  0.0272  0.6457 -0.3773
  221Sol     HW 3890   0.011   2.372   3.642 -1.3876  0.6578 -0.1811
  221Sol     HW 3891   0.027   2.425   3.782  1.4812  0.6706 -0.4751
  221Sol     MW 3892   0.019   2.444   3.695  0.1540  1.0869  0.0768
  222Sol     OW 3893   1.387   1.082   2.367 -0.4596  0.2859 -0.2070
  222Sol     HW 3894   1.295   1.057   2.359 -0.0917 -1.5430  0.8187
  222Sol     HW 3895   1.436   1.004   2.341  0.8013  0.9880 -0.0201
  222Sol     MW 3896   1.383   1.073   2.364  0.3499 -0.4755  0.3037
  223Sol     OW 3897   0.218   1.467   9.746 -0.5132 -0.1435  0.7432
  223Sol     HW 3898   0.148   1.493   9.686 -0.4738 -1.7411 -0.0350
  223Sol     HW 3899   0.207   1.372   9.754  1.7159 -0.4347  0.4457
  223Sol     MW 3900   0.210   1.460   9.741 -0.0614 -0.8640 -0.2701
  224Sol     OW 3901   1.078   0.631   2.388 -0.1466 -0.2085  0.0909
  224Sol     HW 3902   1.159   0.584   2.409  1.2003  1.5667 -1.0299
  224Sol     HW 3903   1.073   0.629   2.292 -0.2791  1.5578  0.0462
  224Sol     MW 3904   1.085   0.626   2.381  0.0690  1.0836 -0.0949
  225Sol     OW 3905   0.404   1.381   4.605 -0.6920  0.3728  0.7042
  225Sol     HW 3906   0.312   1.403   4.591 -0.6432 -0.8369 -1.8888
  225Sol     HW 3907   0.452   1.449   4.557 -0.2831 -0.0164  0.5605
  225Sol     MW 3908   0.400   1.389   4.599 -0.5960  0.2817  0.3157
  226Sol     OW 3909   0.152   1.709   3.466  0.6087 -0.3365 -0.6290
  226Sol     HW 3910   0.199   1.716   3.549  0.7126  0.7166 -0.7674
  226Sol     HW 3911   0.197   1.771   3.408 -1.2233  1.0479 -0.6231
  226Sol     MW 3912   0.160   1.716   3.468 -0.3599  0.8121 -0.4466
  227Sol     OW 3913   1.705   2.438   7.126 -0.6197 -0.4179 -0.0183
  227Sol     HW 3914   1.666   2.430   7.213 -0.5029 -0.7178  0.0090
  227Sol     HW 3915   1.790   2.479   7.141 -0.2348 -1.2399  0.1122
  227Sol     MW 3916   1.709   2.441   7.135 -0.0939  0.4485  0.2097
  228Sol     OW 3917   2.123   2.988   2.037 -0.8664 -0.2896 -0.2946
  228Sol     HW 3918   2.079   2.908   2.067  0.8794 -1.5010 -0.8926
  228Sol     HW 3919   2.150   2.969   1.947  1.8953 -0.0191  0.4461
  228Sol     MW 3920   2.121   2.979   2.032 -0.0122  0.1309 -0.3560
  229Sol     OW 3921   2.977   0.675   4.710  0.0300  0.9914  0.6472
  229Sol     HW 3922   2.937   0.590   4.694 -0.5902  0.6620  3.7160
  229Sol     HW 3923   2.910   0.739   4.684  0.0760  0.5737 -0.5582
  229Sol     MW 3924   2.967   0.673   4.706 -0.0757 -0.8207  0.0342
  230Sol     OW 3925   0.720   0.945   2.015  0.1790  0.2590  0.4327
  230Sol     HW 3926   0.789   0.880   2.019  0.7197  0.8511  0.8522
  230Sol     HW 3927   0.764   1.028   2.035 -0.2706  0.9159 -1.2176
  230Sol     MW 3928   0.730   0.947   2.017  0.4763 -0.1528  0.3311
  231Sol     OW 3929   2.921   3.059   6.853 -0.0383 -0.2719  0.0120
  231Sol     HW 3930   2.978   3.136   6.853 -0.2083 -0.1446 -0.4123
  231Sol     HW 3931   2.869   3.068   6.933  1.3064 -0.9710  0.9855
  231Sol     MW 3932   2.921   3.067   6.860  0.8074 -0.0954  0.6850
  232Sol     OW 3933   3.187   0.233   6.842 -0.0500  0.1147  0.1961
  232Sol     HW 3934   3.275   0.213   6.874 -0.4028  0.8877  1.6898
  232Sol     HW 3935   3.159   0.308   6.894 -0.8932  1.0205 -1.5241
  232Sol     MW 3936   3.192   0.238   6.849 -0.1699  0.4219 -0.7941
  233Sol     OW 3937   2.797   0.106   3.757  0.4917  0.5414 -0.3780
  233Sol     HW 3938   2.766   0.153   3.834  0.8919  1.7904 -0.9605
  233Sol     HW 3939   2.887   0.082   3.779 -0.1380 -1.1820  0.4538
  233Sol     MW 3940   2.802   0.108   3.766  0.1644  0.3847 -0.9268
  234Sol     OW 3941   1.357   1.129   9.916  0.5665 -0.3699  0.4227
  234Sol     HW 3942   1.306   1.209   9.907  3.4832  1.5505  0.0264
  234Sol     HW 3943   1.408   1.124   9.835  0.6815 -2.4578  0.6025
  234Sol     MW 3944   1.357   1.136   9.908 -0.5561  0.0832  0.4690
  235Sol     OW 3945   3.121   0.523   6.017  0.1990 -0.2842 -0.4427
  235Sol     HW 3946   3.187   0.492   5.955 -0.3697 -0.7170 -0.8413
  235Sol     HW 3947   3.140   0.475   6.097  0.5674 -0.1720 -0.4628
  235Sol     MW 3948   3.128   0.516   6.018  0.6925  0.0078 -1.1731
  236Sol     OW 3949   3.290   2.188   6.331 -0.4193  1.1238 -0.1345
  236Sol     HW 3950   3.322   2.246   6.400 -2.3082  1.3320  0.6075
  236Sol     HW 3951   3.231   2.128   6.377 -0.3053  0.1174 -1.2895
  236Sol     MW 3952   3.287   2.188   6.342  0.1693  0.0209 -0.8395
  237Sol     OW 3953   2.398   1.350   2.781  0.2174  0.4582  0.5036
  237Sol     HW 3954   2.434   1.262   2.783  3.3283  1.6626  0.2472
  237Sol     HW 3955   2.389   1.370   2.688  0.5622  0.8055  0.5421
  237Sol     MW 3956   2.400   1.344   2.773 -0.5921 -0.2192  0.3850
  238Sol     OW 3957   2.956   0.092   9.496  0.3658 -0.3072  0.0271
  238Sol     HW 3958   3.011   0.014   9.493 -0.3944 -0.9426  2.1376
  238Sol     HW 3959   2.868   0.060   9.513  0.0463  0.9727  0.9238
  238Sol     MW 3960   2.953   0.082   9.498  0.2736 -0.5347  0.2359
  239Sol     OW 3961   0.494   3.284   6.029 -0.1229  0.3710 -0.0504
  239Sol     HW 3962   0.430   3.354   6.040 -0.9899 -0.3983 -0.2254
  239Sol     HW 3963   0.448   3.215   5.982  1.1238  0.2147 -1.0873
  239Sol     MW 3964   0.484   3.284   6.026 -0.2541  0.6697 -0.0447
  240Sol     OW 3965   1.791   1.586   2.346  0.1109  0.3137  0.4318
  240Sol     HW 3966   1.786   1.644   2.422 -1.0634 -0.8363  1.2704
  240Sol     HW 3967   1.747   1.506   2.375 -0.1076 -0.2408 -1.3797
  240Sol     MW 3968   1.787   1.584   2.356 -0.0215 -0.0323  0.1244
  241Sol     OW 3969   2.425   2.381   6.486  0.2480  0.0058  0.5377
  241Sol     HW 3970   2.430   2.448   6.554  1.6620  0.5904 -0.1345
  241Sol     HW 3971   2.458   2.301   6.528  2.5505  0.7088  0.1246
  241Sol     MW 3972   2.428   2.379   6.496  0.4024 -0.0310  0.3710
  242Sol     OW 3973   2.420   1.527   6.460 -0.2789 -0.0465  0.6489
  242Sol     HW 3974   2.465   1.527   6.545  0.5669  0.6860  0.2052
  242Sol     HW 3975   2.486   1.558   6.398 -1.2922  0.6814 -0.0738
  242Sol     MW 3976   2.430   1.530   6.462 -0.2695 -0.1396 -0.1786
  243Sol     OW 3977   2.877   1.647   6.388 -0.5062  0.3153  0.0301
  243Sol     HW 3978   2.947   1.694   6.433  0.5546 -0.1866 -1.0736
  243Sol     HW 3979   2.845   1.585   6.453 -0.7043  1.3103  0.9083
  243Sol     MW 3980   2.880   1.646   6.398 -0.0899  0.5356  0.2193
  244Sol     OW 3981   1.695   2.105   4.702 -0.1167  0.2322  0.5235
  244Sol     HW 3982   1.648   2.137   4.625  0.4320 -0.1274  0.0394
  244Sol     HW 3983   1.626   2.090   4.767 -0.7882 -1.2998 -0.5354
  244Sol     MW 3984   1.684   2.107   4.701  0.0851 -0.6784  0.2592
  245Sol     OW 3985   0.790   0.610   6.029 -0.0405 -0.6132  0.0612
  245Sol     HW 3986   0.809   0.692   6.075 -2.0766 -0.8302  1.3252
  245Sol     HW 3987   0.713   0.629   5.977 -0.3995 -1.6733  0.2019
  245Sol     MW 3988   0.785   0.619   6.028 -0.0091  0.3340  0.0771
  246Sol     OW 3989   0.724   3.224   9.705  0.0142  0.2930  0.4208
  246Sol     HW 3990   0.665   3.150   9.690 -1.0460  0.8493  1.7225
  246Sol     HW 3991   0.667   3.301   9.705  1.1476  1.1458 -1.2054
  246Sol     MW 3992   0.713   3.224   9.704 -0.5599 -0.0307  0.3184
  247Sol     OW 3993   2.527   1.029   1.442  0.3613 -0.5422 -0.2316
  247Sol     HW 3994   2.498   0.979   1.366  2.9017  0.4541 -1.9426
  247Sol     HW 3995   2.477   1.111   1.436 -1.1240 -1.3739  0.5081
  247Sol     MW 3996   2.520   1.032   1.434 -0.6736 -0.3953  0.1497
  248Sol     OW 3997   3.150   2.967   3.618 -0.2522 -0.3706 -0.6369
  248Sol     HW 3998   3.190   3.047   3.585 -0.3022 -0.3647 -0.6826
  248Sol     HW 3999   3.119   2.921   3.540  1.0016 -1.0938 -0.7265
  248Sol     MW 4000   3.150   2.970   3.608  0.3643  0.4574 -0.0622
  249Sol     OW 4001   0.445   1.217   7.248  0.0259 -0.1274  0.0236
  249Sol     HW 4002   0.384   1.196   7.319 -1.1191  0.7802 -0.6580
  249Sol     HW 4003   0.415   1.302   7.215  0.9840 -0.1958 -1.0653
  249Sol     MW 4004   0.436   1.223   7.251 -0.1947  0.4011  0.3397
  250Sol     OW 4005   0.208   3.128   3.065 -0.4929 -0.2355 -0.2575
  250Sol     HW 4006   0.146   3.133   3.137 -0.3003 -2.4292  0.0936
  250Sol     HW 4007   0.292   3.110   3.107 -0.3822 -1.5477 -0.9899
  250Sol     MW 4008   0.210   3.127   3.075 -0.2949  0.0194  0.0160
  251Sol     OW 4009   2.535   2.291   4.476 -0.2364  0.3198 -0.2387
  251Sol     HW 4010   2.564   2.213   4.523 -0.3200 -0.0908 -0.8540
  251Sol     HW 4011   2.582   2.287   4.392 -2.7534 -0.8586 -1.6452
  251Sol     MW 4012   2.542   2.283   4.472  0.1805 -0.1111 -0.2351
  252Sol     OW 4013   2.488   0.107   8.752  0.3261  0.3772 -0.5293
  252Sol     HW 4014   2.511   0.147   8.668 -2.6534 -0.3161 -1.7675
  252Sol     HW 4015   2.468   0.181   8.809  1.4179  0.8245 -0.7211
  252Sol     MW 4016   2.488   0.117   8.749 -0.3160  0.6220  0.2694
  253Sol     OW 4017   0.885   2.435   1.808  0.4086 -0.4112 -0.1427
  253Sol     HW 4018   0.818   2.466   1.868  1.3172  0.3005  0.5232
  253Sol     HW 4019   0.865   2.342   1.794  0.0767 -0.5257  1.1068
  253Sol     MW 4020   0.877   2.429   1.812  0.0935  0.8095 -0.0715
  254Sol     OW 4021   3.086   2.518   8.981 -0.1920  0.1099 -0.4590
  254Sol     HW 4022   3.011   2.576   8.968  0.1789  0.7317  0.1672
  254Sol     HW 4023   3.048   2.430   8.979 -1.1729  0.4775  1.3650
  254Sol     MW 4024   3.076   2.515   8.980  0.1930 -0.0562 -0.1415
  255Sol     OW 4025   0.550   0.500   7.940  0.2371  0.2461  0.2171
  255Sol     HW 4026   0.470   0.484   7.890  0.6951  0.4378 -0.5776
  255Sol     HW 4027   0.621   0.486   7.878  0.8562 -0.6554  1.1188
  255Sol     MW 4028   0.549   0.497   7.930  0.2075  0.2570 -0.3266
  256Sol     OW 4029   1.774   0.344   6.646 -0.5701 -0.3585 -0.0073
  256Sol     HW 4030   1.869   0.330   6.642 -1.0148 -4.0958  0.6779
  256Sol     HW 4031   1.748   0.358   6.555  0.6587  0.8099 -0.1895
  256Sol     MW 4032   1.780   0.344   6.638 -0.1335 -0.0081 -0.3074
  257Sol     OW 4033   1.580   0.843   6.669 -0.3571  0.1954 -0.0633
  257Sol     HW 4034   1.506   0.889   6.630 -0.2172 -0.6669 -1.3501
  257Sol     HW 4035   1.541   0.780   6.729 -0.6085  0.6924  0.2989
  257Sol     MW 4036   1.570   0.842   6.671  0.1073  0.1620 -0.6084
  258Sol     OW 4037   1.319   1.357   5.390 -0.2363 -0.3129  1.3325
  258Sol     HW 4038   1.310   1.262   5.383 -2.6985 -0.0045 -0.0303
  258Sol     HW 4039   1.253   1.383   5.454 -1.3192  0.7523 -0.1883
  258Sol     MW 4040   1.312   1.351   5.395 -0.2936  0.1885  0.4553
  259Sol     OW 4041   2.748   2.382   7.013 -0.1126 -0.6137  0.0760
  259Sol     HW 4042   2.739   2.287   7.006 -0.5353 -0.3757 -3.6775
  259Sol     HW 4043   2.735   2.414   6.924 -0.6217  3.0498  1.3715
  259Sol     MW 4044   2.746   2.377   7.004 -0.7236 -0.2577  0.1535
  260Sol     OW 4045   2.221   2.056   4.659  0.1438  0.0420 -0.7939
  260Sol     HW 4046   2.250   2.100   4.579  0.8237  1.0092 -0.0245
  260Sol     HW 4047   2.195   2.127   4.718 -0.8792 -0.6871 -0.3472
  260Sol     MW 4048   2.221   2.066   4.657 -0.5160 -0.3755  0.0291
  261Sol     OW 4049   2.366   1.245   6.449 -0.5464  0.2608 -0.0446
  261Sol     HW 4050   2.357   1.235   6.354 -2.6220  1.8397 -0.0688
  261Sol     HW 4051   2.380   1.339   6.462 -0.0080  0.0203  1.1947
  261Sol     MW 4052   2.366   1.253   6.442 -0.7178 -0.0388  0.2126
  262Sol     OW 4053   0.182   2.368   2.622  0.3211 -0.8897  0.2098
  262Sol     HW 4054   0.166   2.309   2.549 -0.5320 -1.2167  0.6579
  262Sol     HW 4055   0.191   2.455   2.582 -2.1012 -0.7571 -0.1107
  262Sol     MW 4056   0.181   2.371   2.612  0.5561  0.4074 -0.3852
  263Sol     OW 4057   1.856   1.382   8.692 -0.2334 -0.0945 -0.5915
  263Sol     HW 4058   1.766   1.398   8.721  0.3940 -0.6827  1.7475
  263Sol     HW 4059   1.870   1.447   8.623 -1.5202  1.9303  0.9725
  263Sol     MW 4060   1.849   1.390   8.688 -0.3487 -0.5032  0.1561
  264Sol     OW 4061   2.184   0.435   1.357  0.2142 -0.7168  0.3119
  264Sol     HW 4062   2.228   0.505   1.405  0.8912 -0.8491 -0.1025
  264Sol     HW 4063   2.092   0.441   1.384 -0.1228  1.5939 -1.1782
  264Sol     MW 4064   2.180   0.442   1.363 -0.0989 -0.3360 -0.8365
  265Sol     OW 4065   1.065   2.134   4.249 -0.1420  0.8830  0.2781
  265Sol     HW 4066   1.001   2.185   4.299 -1.3326 -1.2702  0.9932
  265Sol     HW 4067   1.051   2.161   4.159 -1.3989  1.1440  0.5375
  265Sol     MW 4068   1.058   2.141   4.246  0.1161 -0.3758 -0.0217
  266Sol     OW 4069   0.832   1.770   2.458 -0.3317 -0.0441  0.1368
  266Sol     HW 4070   0.862   1.754   2.548  2.3683 -2.5347 -1.1192
  266Sol     HW 4071   0.900   1.826   2.421 -0.4782 -0.5489 -0.8967
  266Sol     MW 4072   0.841   1.774   2.463 -0.0467  0.5871 -0.2823
  267Sol     OW 4073   2.860   2.746   7.376 -0.3479 -0.2385  0.4411
  267Sol     HW 4074   2.837   2.684   7.446  0.3412 -0.9661  0.0335
  267Sol     HW 4075   2.929   2.800   7.414  0.2543 -0.8437  0.2277
  267Sol     MW 4076   2.864   2.745   7.386  0.2563 -0.5841 -0.6235
  268Sol     OW 4077   1.719   0.481   8.446  0.2139 -0.2426  0.5690
  268Sol     HW 4078   1.771   0.435   8.380  1.0718 -0.0681  1.1220
  268Sol     HW 4079   1.732   0.574   8.428 -0.1148 -0.2019  0.5416
  268Sol     MW 4080   1.725   0.485   8.439  0.3968 -0.5090  0.0431
  269Sol     OW 4081   2.194   1.542   9.931  0.2692  0.2950 -0.1263
  269Sol     HW 4082   2.235   1.625   9.955 -0.1738 -0.5689  3.9615
  269Sol     HW 4083   2.253   1.475   9.966 -0.1772 -1.1163 -1.9965
  269Sol     MW 4084   2.203   1.543   9.936  0.1184 -0.6244 -0.3913
  270Sol     OW 4085   2.443   0.726   6.935  0.7202  0.0288  0.4730
  270Sol     HW 4086   2.484   0.646   6.967  1.7657  0.1079 -0.6657
  270Sol     HW 4087   2.396   0.760   7.012  0.7522 -1.3450  1.1214
  270Sol     MW 4088   2.443   0.722   6.945  0.9411 -0.2302 -0.0378
  271Sol     OW 4089   1.447   0.371   3.839  0.5503 -0.3918 -0.0681
  271Sol     HW 4090   1.468   0.329   3.922 -1.4459 -1.8326 -0.2785
  271Sol     HW 4091   1.354   0.356   3.826  0.4370  1.4369 -1.6722
  271Sol     MW 4092   1.441   0.366   3.845 -1.2964  0.6156  0.1546
  272Sol     OW 4093   2.945   1.813   6.674 -0.3407 -0.1261  0.1842
  272Sol     HW 4094   3.005   1.739   6.661  0.1574  0.1512  0.8406
  272Sol     HW 4095   2.925   1.811   6.768  2.0488  2.3328  0.8223
  272Sol     MW 4096   2.949   1.806   6.681  0.2385  0.4226 -0.5092
  273Sol     OW 4097   3.063   2.198   3.954 -0.4409  0.0169 -0.4562
  273Sol     HW 4098   3.070   2.264   4.022  0.3919  0.4694 -0.9675
  273Sol     HW 4099   3.029   2.245   3.878 -1.3084 -0.4710 -0.3769
  273Sol     MW 4100   3.061   2.208   3.953  0.3759 -0.0585 -0.5340
  274Sol     OW 4101   1.126   0.205   2.849  0.1620  0.1478  0.5526
  274Sol     HW 4102   1.106   0.201   2.755  0.6373  0.2078  0.4468
  274Sol     HW 4103   1.155   0.116   2.871  0.5936  0.2781  0.5161
  274Sol     MW 4104   1.127   0.197   2.843 -0.7724  0.7980  0.0678
  275Sol     OW 4105   0.501   2.697   3.076 -0.3844 -0.5992 -0.2536
  275Sol     HW 4106   0.470   2.612   3.046  1.0108 -1.0544 -0.4293
  275Sol     HW 4107   0.452   2.713   3.156  0.0893 -2.0579  0.3457
  275Sol     MW 4108   0.494   2.691   3.080 -0.5026  0.0468  0.1043
  276Sol     OW 4109   1.218   0.604   3.642 -0.0010  0.1038 -0.0818
  276Sol     HW 4110   1.280   0.640   3.705  0.4430  1.0875 -1.0748
  276Sol     HW 4111   1.251   0.632   3.557 -1.2052 -0.3025 -0.6912
  276Sol     MW 4112   1.227   0.609   3.640  0.5096 -0.4621  0.8021
  277Sol     OW 4113   2.295   2.655   2.105 -0.0835  0.6662  0.1982
  277Sol     HW 4114   2.341   2.664   2.188  1.8062  0.3903 -0.7755
  277Sol     HW 4115   2.350   2.594   2.054 -1.0837  1.0033 -1.3243
  277Sol     MW 4116   2.304   2.650   2.108 -0.2412  0.2072  0.2495
  278Sol     OW 4117   1.848   1.054   8.185 -0.2448 -0.2337  0.5950
  278Sol     HW 4118   1.913   1.065   8.254  0.1685 -1.0561  0.3422
  278Sol     HW 4119   1.884   0.985   8.129 -1.8831 -1.5451  1.1100
  278Sol     MW 4120   1.857   1.049   8.186  0.0854  0.3264 -0.3099
  279Sol     OW 4121   2.477   0.751   4.905 -0.2044 -0.2058  0.5444
  279Sol     HW 4122   2.432   0.758   4.989  1.1960  0.8952  1.2314
  279Sol     HW 4123   2.512   0.839   4.889 -0.5377 -0.3781 -1.2453
  279Sol     MW 4124   2.476   0.759   4.911  0.0120  0.1357 -0.2167
  280Sol     OW 4125   2.114   1.420   2.430  0.6889  0.2304 -0.1582
  280Sol     HW 4126   2.206   1.411   2.455 -0.2036 -0.6341  3.0410
  280Sol     HW 4127   2.090   1.332   2.399  0.8323  0.3695 -0.6735
  280Sol     MW 4128   2.120   1.411   2.429 -0.0190  0.8296  0.5503
  281Sol     OW 4129   0.017   2.301   6.847 -0.2326  0.7073  0.0087
  281Sol     HW 4130  -0.021   2.214   6.835 -2.3997  1.4483  1.3160
  281Sol     HW 4131   0.042   2.305   6.939  2.7264  0.3938 -0.7176
  281Sol     MW 4132   0.016   2.294   6.854  0.1840  0.1279 -0.2678
  282Sol     OW 4133   1.377   1.895   4.936 -0.8530  0.4807  0.0600
  282Sol     HW 4134   1.291   1.892   4.978 -0.4761  1.2502  0.9290
  282Sol     HW 4135   1.432   1.837   4.989  0.0192  2.6465  1.6140
  282Sol     MW 4136   1.375   1.890   4.945 -0.5065  0.0492  0.1114
  283Sol     OW 4137   1.618   2.421   4.307  0.0242 -0.0657 -0.3532
  283Sol     HW 4138   1.591   2.511   4.291 -1.5255  0.0060  2.4163
  283Sol     HW 4139   1.633   2.384   4.220 -2.2413  1.9803 -1.6523
  283Sol     MW 4140   1.617   2.426   4.298  0.9362  0.3803  0.1757
  284Sol     OW 4141   2.826   2.568   5.945 -0.2149 -0.4114  0.4347
  284Sol     HW 4142   2.784   2.569   6.031 -3.0782 -1.8094 -0.8585
  284Sol     HW 4143   2.778   2.635   5.895 -0.8955 -2.0034 -1.0718
  284Sol     MW 4144   2.818   2.574   5.948  0.2549 -0.8076 -0.1553
  285Sol     OW 4145   2.212   1.377   4.123 -0.0457  0.3227 -0.1656
  285Sol     HW 4146   2.259   1.452   4.160 -1.3064  2.3070 -2.4926
  285Sol     HW 4147   2.132   1.414   4.085 -1.1519 -2.3313 -0.5544
  285Sol     MW 4148   2.209   1.387   4.123 -0.9016 -0.0113  0.3401
  286Sol     OW 4149   2.384   2.447   4.039 -0.0442 -0.1015  0.3999
  286Sol     HW 4150   2.389   2.353   4.022 -0.3938 -0.3069  1.3555
  286Sol     HW 4151   2.433   2.487   3.968  1.6757 -1.1216  0.9606
  286Sol     MW 4152   2.389   2.442   4.031 -0.1019  0.0602 -0.4977
  287Sol     OW 4153   0.109   2.839   6.188  0.1232 -0.3666  0.1442
  287Sol     HW 4154   0.117   2.833   6.093 -0.7450  1.2101 -0.0592
  287Sol     HW 4155   0.015   2.828   6.205 -0.0366  1.4285  0.6020
  287Sol     MW 4156   0.101   2.837   6.181  0.1056  0.1718 -0.0059
  288Sol     OW 4157   3.297   2.170   8.168 -0.0674  0.1716  0.2977
  288Sol     HW 4158   3.310   2.261   8.193  1.5288  0.0082  0.1172
  288Sol     HW 4159   3.346   2.120   8.233 -0.3988 -0.5288  0.0145
  288Sol     MW 4160   3.303   2.174   8.176 -0.3095  0.1763  0.1464
  289Sol     OW 4161   2.525   1.549   1.838  0.3247 -0.3923 -0.4191
  289Sol     HW 4162   2.449   1.502   1.804  0.8880 -1.0322 -0.8041
  289Sol     HW 4163   2.551   1.499   1.916  0.6602 -0.4681 -0.5804
  289Sol     MW 4164   2.520   1.540   1.842 -0.0514  0.1196 -0.3525
  290Sol     OW 4165   1.733   2.439   5.218  0.2932 -0.6989  0.2435
  290Sol     HW 4166   1.696   2.514   5.170 -1.5952 -1.9743 -0.3524
  290Sol     HW 4167   1.770   2.477   5.297 -0.9434  0.8423  0.1084
  290Sol     MW 4168   1.733   2.449   5.220  1.0374 -0.0761  0.0002
  291Sol     OW 4169   2.884   1.299   7.962 -0.5005 -0.3791  0.0227
  291Sol     HW 4170   2.818   1.230   7.970 -0.7784 -0.0756  0.3506
  291Sol     HW 4171   2.906   1.323   8.052 -0.4537  0.0044 -0.0879
  291Sol     MW 4172   2.880   1.295   7.971 -0.3643  0.3903  0.2812
  292Sol     OW 4173   2.523   0.123   6.746  0.1618  0.0009  0.0016
  292Sol     HW 4174   2.438   0.140   6.706 -1.0409  0.5576  2.7038
  292Sol     HW 4175   2.519   0.032   6.774  0.4211  0.0713  0.2713
  292Sol     MW 4176   2.515   0.117   6.745 -0.8714  0.0704 -0.1064
  293Sol     OW 4177   2.626   1.259   9.442  0.0467 -0.4403  0.5372
  293Sol     HW 4178   2.576   1.236   9.364 -0.0376 -3.1571  1.3524
  293Sol     HW 4179   2.565   1.310   9.496 -0.1643  0.6975 -0.7577
  293Sol     MW 4180   2.616   1.262   9.440  0.2764  0.4354 -0.2697
  294Sol     OW 4181   2.892   2.499   6.606 -0.0456 -0.2979  0.3076
  294Sol     HW 4182   2.902   2.511   6.511 -0.0220  0.4860  0.4063
  294Sol     HW 4183   2.933   2.577   6.644  0.3438 -0.8284  0.9795
  294Sol     MW 4184   2.897   2.507   6.601 -0.3037 -0.4590  0.5718
  295Sol     OW 4185   0.010   0.874   5.257  0.6645  0.0651 -0.3643
  295Sol     HW 4186  -0.060   0.894   5.318 -0.5549 -1.4278 -1.2266
  295Sol     HW 4187   0.076   0.828   5.310  0.2612  0.0385  0.1176
  295Sol     MW 4188   0.010   0.871   5.267 -0.3190 -0.9739 -0.2993
  296Sol     OW 4189   2.542   0.740   3.311  0.1186 -0.4430  0.3478
  296Sol     HW 4190   2.555   0.791   3.231 -0.2159 -1.2896 -0.2532
  296Sol     HW 4191   2.465   0.779   3.352 -0.0144 -0.3304 -0.0082
  296Sol     MW 4192   2.536   0.748   3.307  0.1802  0.5540  0.0863
  297Sol     OW 4193   0.395   1.531   4.193 -0.0909  0.2002 -0.7870
  297Sol     HW 4194   0.372   1.440   4.175  0.4238 -0.1857  0.4652
  297Sol     HW 4195   0.340   1.582   4.134  0.5231 -0.9669 -2.3918
  297Sol     MW 4196   0.388   1.528   4.186  0.4258  0.8277 -0.2372
  298Sol     OW 4197   0.477   1.693   2.323 -0.3678 -0.1759  0.5133
  298Sol     HW 4198   0.519   1.738   2.249 -0.1786  1.4975  1.6242
  298Sol     HW 4199   0.540   1.625   2.348 -0.1051 -0.2742 -0.3767
  298Sol     MW 4200   0.487   1.691   2.318  0.6348 -0.6511 -0.0819
  299Sol     OW 4201   2.868   1.252   6.393 -0.0818  0.1547  0.2853
  299Sol     HW 4202   2.891   1.343   6.410  1.4844 -0.3850  1.1295
  299Sol     HW 4203   2.843   1.218   6.479  0.3329 -0.4997  0.1436
  299Sol     MW 4204   2.868   1.257   6.403  0.0788  0.0268  0.3188
  300Sol     OW 4205   2.575   2.590   9.809 -0.4407 -0.3783 -0.0049
  300Sol     HW 4206   2.625   2.672   9.804 -1.7693  0.3344 -2.9194
  300Sol     HW 4207   2.507   2.607   9.875 -0.7908  0.9421 -0.6852
  300Sol     MW 4208   2.573   2.599   9.815 -0.2016  0.0539 -1.0285
  301Sol     OW 4209   2.982   0.197   4.814 -0.3928 -0.1744 -0.1599
  301Sol     HW 4210   3.013   0.112   4.781  0.1129 -0.3311  0.6761
  301Sol     HW 4211   3.028   0.207   4.898  0.1756  1.3074 -0.6390
  301Sol     MW 4212   2.989   0.190   4.819 -0.0807 -0.1667 -0.0252
  302Sol     OW 4213   1.736   0.517   4.065 -0.0510 -0.2740 -0.0636
  302Sol     HW 4214   1.821   0.503   4.108  0.6559  1.3064 -0.8678
  302Sol     HW 4215   1.689   0.577   4.123  0.5431  1.1331 -0.9973
  302Sol     MW 4216   1.740   0.521   4.074 -0.0755  0.1469  0.2667
  303Sol     OW 4217   2.421   2.755   3.515 -0.9275  0.0183 -0.5417
  303Sol     HW 4218   2.461   2.805   3.586  0.3091 -0.0761 -1.1500
  303Sol     HW 4219   2.340   2.802   3.495  0.3802  2.0165 -1.3367
  303Sol     MW 4220   2.417   2.764   3.519 -0.2149  0.0367  0.2002
  304Sol     OW 4221   1.504   0.247   4.103  0.4771 -0.0690 -0.5973
  304Sol     HW 4222   1.428   0.222   4.154 -0.4523  0.9716 -1.4316
  304Sol     HW 4223   1.564   0.288   4.166 -0.6042  1.1000 -0.3222
  304Sol     MW 4224   1.503   0.248   4.113 -0.0057 -0.6284 -0.3861
  305Sol     OW 4225   3.214   0.994   9.214 -0.2957 -0.3898 -1.0046
  305Sol     HW 4226   3.207   0.905   9.248  0.7358 -0.6561 -1.4848
  305Sol     HW 4227   3.155   1.045   9.270 -0.2029 -1.1987 -0.1510
  305Sol     MW 4228   3.208   0.991   9.222 -0.3432 -0.3147  0.0938
  306Sol     OW 4229   1.941   0.741   9.368 -0.3043 -0.0106  0.9062
  306Sol     HW 4230   1.880   0.693   9.424 -1.6873  0.6438 -0.0030
  306Sol     HW 4231   1.903   0.732   9.280  3.1211 -3.1605 -0.3731
  306Sol     MW 4232   1.932   0.736   9.365 -0.5574  0.1140 -0.2782
  307Sol     OW 4233   0.353   2.803   8.746 -0.1202  0.2627  0.0236
  307Sol     HW 4234   0.392   2.715   8.748  0.7171  0.6241 -0.0998
  307Sol     HW 4235   0.299   2.803   8.667 -2.7426 -1.2300  1.7625
  307Sol     MW 4236   0.352   2.795   8.739 -0.3148 -0.0349 -0.6874
  308Sol     OW 4237   0.863   2.877   9.604 -0.2318  0.2058 -0.0736
  308Sol     HW 4238   0.786   2.830   9.635 -0.7054  0.3503 -0.9978
  308Sol     HW 4239   0.911   2.812   9.552 -0.6089  0.5873 -0.9048
  308Sol     MW 4240   0.861   2.867   9.602  0.3216 -0.0179 -0.3138
  309Sol     OW 4241   1.480   2.695   9.944  0.7437 -0.4074  0.5846
  309Sol     HW 4242   1.503   2.752  10.017 -0.7711  0.3145  0.5151
  309Sol     HW 4243   1.407   2.740   9.900 -0.1966 -2.1763  0.2801
  309Sol     MW 4244   1.475   2.704   9.947 -0.0373 -0.0841 -0.4316
  310Sol     OW 4245   0.595   3.081   9.399  1.0601 -0.1940  0.0473
  310Sol     HW 4246   0.500   3.080   9.391  1.1117 -1.7491 -0.4188
  310Sol     HW 4247   0.611   3.073   9.493  0.7383  0.9165  0.2116
  310Sol     MW 4248   0.588   3.080   9.407 -0.2169  0.7141 -0.5945
  311Sol     OW 4249   1.983   0.746   7.443  0.5141  0.4651 -0.6426
  311Sol     HW 4250   1.995   0.666   7.393 -0.2035 -0.6608  0.9290
  311Sol     HW 4251   1.948   0.809   7.381 -1.5262 -1.2704 -1.2844
  311Sol     MW 4252   1.981   0.744   7.433 -0.0150  0.1652  0.4717
  312Sol     OW 4253   2.260   0.806   6.702 -0.0727 -0.8559 -0.0864
  312Sol     HW 4254   2.317   0.879   6.677 -0.6053 -0.0702  0.9386
  312Sol     HW 4255   2.319   0.732   6.712  0.2827 -0.9419 -2.6056
  312Sol     MW 4256   2.271   0.806   6.701 -0.1609  0.1632 -0.8455
  313Sol     OW 4257   1.811   2.526   2.603  0.4888 -0.1514 -0.7838
  313Sol     HW 4258   1.802   2.438   2.640 -0.2763  0.0466 -0.4906
  313Sol     HW 4259   1.888   2.521   2.547  0.7171 -0.8870 -0.4064
  313Sol     MW 4260   1.817   2.518   2.601  0.6024  0.1236 -0.0460
  314Sol     OW 4261   2.965   0.746   8.077 -0.0245  0.4760 -0.0995
  314Sol     HW 4262   2.962   0.653   8.054  0.1004  0.6858 -1.0029
  314Sol     HW 4263   2.952   0.791   7.993 -0.8621  1.2745  0.4522
  314Sol     MW 4264   2.964   0.742   8.067  0.0363 -0.3194 -0.5203
  315Sol     OW 4265   0.996   2.582   8.188 -0.4976 -0.1540  0.3177
  315Sol     HW 4266   0.946   2.662   8.205 -2.4141 -1.2116 -0.1797
  315Sol     HW 4267   0.948   2.540   8.116  1.6545 -0.7389 -0.7996
  315Sol     MW 4268   0.987   2.585   8.183 -0.1828 -0.1403 -0.1584
  316Sol     OW 4269   1.813   1.695   9.954  0.2663 -0.1059 -0.0589
  316Sol     HW 4270   1.866   1.687  10.034  0.3533 -1.2443 -0.2256
  316Sol     HW 4271   1.840   1.620   9.901 -1.4785 -0.6638 -0.1709
  316Sol     MW 4272   1.820   1.687   9.957  0.1632 -0.6780  0.4423
  317Sol     OW 4273   3.146   0.799   8.940  0.0642  0.1274 -0.2842
  317Sol     HW 4274   3.097   0.834   8.866 -1.1071  0.3148  0.5700
  317Sol     HW 4275   3.080   0.784   9.008  1.3454  1.5226  1.3078
  317Sol     MW 4276   3.136   0.801   8.940 -0.8279 -0.0738 -0.6597
  318Sol     OW 4277   2.359   2.732   9.953  0.1601  0.2073 -0.2267
  318Sol     HW 4278   2.287   2.669   9.959  0.5190 -0.3616 -1.5644
  318Sol     HW 4279   2.377   2.757  10.043 -2.0357  0.7365  0.0910
  318Sol     MW 4280   2.354   2.728   9.961  0.3900  0.0634  0.8438
  319Sol     OW 4281   1.232   2.883   8.286 -0.4027 -0.4489 -0.4732
  319Sol     HW 4282   1.322   2.902   8.259  0.3942 -1.0582  1.6717
  319Sol     HW 4283   1.191   2.970   8.295 -0.3696 -0.2028 -2.4710
  319Sol     MW 4284   1.236   2.893   8.284 -0.1797 -0.0563 -0.6018
  320Sol     OW 4285   0.947   1.525   5.334  0.2265  0.3372  0.2705
  320Sol     HW 4286   0.991   1.540   5.251  0.3273 -1.2376  0.0154
  320Sol     HW 4287   0.891   1.602   5.346  0.8006  0.9422 -0.8636
  320Sol     MW 4288   0.946   1.533   5.327  0.5687  0.1394  0.0156
  321Sol     OW 4289   1.927   0.462   1.506  0.3384 -0.7943 -0.1342
  321Sol     HW 4290   1.981   0.429   1.578 -0.1631 -1.0254  0.1365
  321Sol     HW 4291   1.894   0.546   1.537  0.3570 -0.7570 -0.2144
  321Sol     MW 4292   1.929   0.466   1.515  0.0852 -0.0083  0.1653
  322Sol     OW 4293   0.608   1.998   4.894 -0.0516  0.3207 -0.2776
  322Sol     HW 4294   0.682   1.938   4.894 -0.0019  0.3808 -0.3949
  322Sol     HW 4295   0.647   2.085   4.895 -0.0917  0.3761 -1.8103
  322Sol     MW 4296   0.618   2.001   4.894 -0.0796 -0.6528 -0.2363
  323Sol     OW 4297   0.735   1.714   5.328 -0.1071 -0.1635 -0.1921
  323Sol     HW 4298   0.674   1.647   5.297  0.1122 -0.1917 -0.5717
  323Sol     HW 4299   0.699   1.744   5.411  0.1335 -1.2298  0.3081
  323Sol     MW 4300   0.726   1.710   5.332  0.5071  0.3826  0.1570
  324Sol     OW 4301   2.361   1.495   9.185 -0.0156 -0.1919  0.0499
  324Sol     HW 4302   2.270   1.514   9.209  0.7286  2.1376  1.2213
  324Sol     HW 4303   2.382   1.413   9.231 -1.7785 -1.2299 -0.9582
  324Sol     MW 4304   2.355   1.489   9.191  0.0943  0.5740  0.0385
  325Sol     OW 4305   3.029   2.304   6.763  0.7479  0.1127  0.0992
  325Sol     HW 4306   3.113   2.349   6.752  0.6036  0.1235 -1.0057
  325Sol     HW 4307   2.970   2.349   6.703  0.5356 -1.3609 -0.8067
  325Sol     MW 4308   3.031   2.312   6.757 -0.1246  0.1831 -0.0997
  326Sol     OW 4309   2.660   1.189   8.701 -0.2447 -0.1591 -0.0584
  326Sol     HW 4310   2.738   1.242   8.682 -1.7326  1.4911 -1.6889
  326Sol     HW 4311   2.691   1.099   8.691  1.5017  0.4596 -0.5745
  326Sol     MW 4312   2.670   1.186   8.698 -0.2268  0.2693  0.0837
  327Sol     OW 4313   2.968   2.750   1.552 -0.0000  0.0808  0.0601
  327Sol     HW 4314   2.988   2.710   1.636  0.7827 -1.3918 -0.7957
  327Sol     HW 4315   2.872   2.743   1.544 -0.5093  3.2853  2.2720
  327Sol     MW 4316   2.961   2.746   1.559 -0.1427 -0.3124 -0.1851
  328Sol     OW 4317   2.809   1.585   5.927  0.0587  0.4419 -0.3759
  328Sol     HW 4318   2.846   1.586   5.838  0.7159 -1.7692 -0.1710
  328Sol     HW 4319   2.867   1.528   5.976 -1.0479  0.6017  1.1573
  328Sol     MW 4320   2.817   1.580   5.923 -0.3986  0.1903 -0.1990
  329Sol     OW 4321   0.649   3.069   2.145 -0.1182  0.4273  0.8710
  329Sol     HW 4322   0.658   3.012   2.221  0.7740  0.5889  0.9027
  329Sol     HW 4323   0.687   3.153   2.174  1.0960  0.2094 -0.0422
  329Sol     MW 4324   0.654   3.072   2.154 -1.0597  0.4569  0.4278
  330Sol     OW 4325   2.474   3.188   7.996 -0.0133 -0.0988  0.1439
  330Sol     HW 4326   2.531   3.253   7.954  1.0997 -1.0156  0.2099
  330Sol     HW 4327   2.401   3.177   7.936 -0.5751  1.7174  0.4408
  330Sol     MW 4328   2.473   3.193   7.987 -0.3112 -0.6043 -0.6612
  331Sol     OW 4329   1.101   1.598   5.111  0.0002  0.1419  0.4601
  331Sol     HW 4330   1.182   1.548   5.122 -1.0221 -1.8736 -0.8950
  331Sol     HW 4331   1.071   1.576   5.023 -1.1158  2.2489  0.2792
  331Sol     MW 4332   1.106   1.591   5.104  0.4905  0.4675  0.6643
  332Sol     OW 4333   2.471   2.418   1.643 -0.0008 -0.1348 -0.5121
  332Sol     HW 4334   2.563   2.402   1.666 -0.2974 -0.4524  0.4694
  332Sol     HW 4335   2.473   2.499   1.591  0.5488  1.3533  1.7346
  332Sol     MW 4336   2.480   2.424   1.641 -0.4890  0.4214 -0.2622
  333Sol     OW 4337   0.569   1.175   4.085  0.3142 -0.0596 -0.3876
  333Sol     HW 4338   0.608   1.127   4.158  1.0764 -0.1676 -0.8706
  333Sol     HW 4339   0.478   1.189   4.112  0.1366 -1.6094 -0.1712
  333Sol     MW 4340   0.564   1.172   4.094  0.3137 -0.1081  0.3460
  334Sol     OW 4341   1.182   0.625   3.960  0.2163  0.9184  0.1656
  334Sol     HW 4342   1.106   0.645   3.904  0.3968  0.3802 -0.2702
  334Sol     HW 4343   1.254   0.673   3.920  0.0287  1.7601  0.8138
  334Sol     MW 4344   1.181   0.631   3.951 -0.1488 -0.2377 -0.5272
  335Sol     OW 4345   2.035   2.723   2.126 -0.1004 -0.3130  0.4893
  335Sol     HW 4346   2.006   2.680   2.046 -1.1575 -1.3003  1.3862
  335Sol     HW 4347   2.130   2.711   2.127 -0.1028 -0.4293 -0.5275
  335Sol     MW 4348   2.041   2.718   2.119  0.0288  0.1817 -0.4393
  336Sol     OW 4349   1.525   0.262   8.081 -0.7041  0.4033 -0.2960
  336Sol     HW 4350   1.499   0.332   8.143  1.2211 -0.1739  1.2032
  336Sol     HW 4351   1.589   0.304   8.023  2.1579 -0.6311  2.0063
  336Sol     MW 4352   1.528   0.272   8.082 -0.2031 -0.2788  0.0929
  337Sol     OW 4353   2.082   0.923   1.995  0.0967  0.4413  0.1027
  337Sol     HW 4354   2.142   0.892   1.928 -0.7082  1.7070 -1.2498
  337Sol     HW 4355   2.137   0.940   2.071  1.2847  0.4937 -0.7471
  337Sol     MW 4356   2.092   0.922   1.995 -0.8210  0.2294 -1.0718
  338Sol     OW 4357   0.993   1.329   6.918  0.2281 -0.5629  0.3748
  338Sol     HW 4358   0.993   1.239   6.951  0.3224 -0.9870 -0.7461
  338Sol     HW 4359   1.070   1.333   6.861  1.9968  1.1272  2.7560
  338Sol     MW 4360   1.000   1.321   6.916  0.2604 -0.5128  0.3641
  339Sol     OW 4361   1.461   0.052   9.161 -0.1538 -0.1321 -0.3913
  339Sol     HW 4362   1.523  -0.015   9.133  0.4956 -0.2171  1.2019
  339Sol     HW 4363   1.392   0.004   9.207 -0.3323  0.1693 -0.3425
  339Sol     MW 4364   1.461   0.042   9.162 -0.4077  0.7286  0.7650
  340Sol     OW 4365   1.722   0.901   8.536  0.5399 -0.5522 -0.1944
  340Sol     HW 4366   1.796   0.962   8.541  0.8558 -0.9468 -0.0972
  340Sol     HW 4367   1.658   0.946   8.480  0.6751 -0.0275  0.0635
  340Sol     MW 4368   1.723   0.911   8.531  0.8187 -0.1614  0.1050
  341Sol     OW 4369   0.945   1.333   5.952 -0.0702 -0.3786  0.0900
  341Sol     HW 4370   0.909   1.410   5.995 -1.1384 -0.4617 -0.6370
  341Sol     HW 4371   1.013   1.369   5.894  0.6427 -0.1697  1.0298
  341Sol     MW 4372   0.948   1.343   5.950 -0.1246 -0.1954  0.7522
  342Sol     OW 4373   3.234   1.271   5.202  0.0889  0.1792 -0.6814
  342Sol     HW 4374   3.291   1.320   5.143  0.5768 -0.0433 -0.3866
  342Sol     HW 4375   3.154   1.258   5.151 -0.0803  1.3507 -0.7446
  342Sol     MW 4376   3.232   1.274   5.192 -0.3365 -0.5007 -0.3078
  343Sol     OW 4377   0.054   3.007   9.147  0.1311 -0.6046 -0.3432
  343Sol     HW 4378   0.027   2.920   9.118  0.2322 -1.2976  1.5744
  343Sol     HW 4379   0.089   2.994   9.235  3.6438  0.8001 -1.4629
  343Sol     MW 4380   0.054   2.998   9.152  0.2069  0.0682 -0.2257
  344Sol     OW 4381   1.178   1.657   1.602  0.6939 -0.2453 -0.4447
  344Sol     HW 4382   1.087   1.630   1.598  0.7824 -0.7830  0.9779
  344Sol     HW 4383   1.219   1.616   1.526 -0.2908  0.2145 -1.2370
  344Sol     MW 4384   1.174   1.651   1.595  0.0076  0.7896  0.4295
  345Sol     OW 4385   1.228   1.782   5.644  0.2278  0.4192  0.0582
  345Sol     HW 4386   1.309   1.825   5.671  0.6875 -0.2798 -0.1911
  345Sol     HW 4387   1.164   1.853   5.635  1.0565  1.0771 -0.6454
  345Sol     MW 4388   1.229   1.792   5.646  0.5502 -0.1338 -0.4774
  346Sol     OW 4389   3.225   2.502   6.713 -0.1306 -0.3191 -0.9522
  346Sol     HW 4390   3.206   2.569   6.779 -1.2211  0.6707 -2.2296
  346Sol     HW 4391   3.281   2.439   6.758  1.5253  1.8131  0.0941
  346Sol     MW 4392   3.228   2.503   6.723 -0.2160  0.3643 -0.0268
  347Sol     OW 4393   1.166   0.279   8.587  0.6501  0.0903 -0.6273
  347Sol     HW 4394   1.102   0.236   8.530 -0.1274  1.1095 -0.5481
  347Sol     HW 4395   1.185   0.214   8.654 -1.8275  0.4335  0.4863
  347Sol     MW 4396   1.162   0.269   8.588 -0.1653 -0.2222  0.8199
  348Sol     OW 4397   1.144   0.396   1.650 -0.3731 -0.1993  0.6223
  348Sol     HW 4398   1.179   0.412   1.562  1.7227  0.8872  1.6291
  348Sol     HW 4399   1.093   0.474   1.671 -1.6025 -0.8299  0.0507
  348Sol     MW 4400   1.143   0.404   1.644 -0.1545  0.4913 -0.2297
  349Sol     OW 4401   2.234   3.326   5.803  0.0792 -0.0181  0.3705
  349Sol     HW 4402   2.143   3.342   5.779  0.1530  2.5227  1.6263
  349Sol     HW 4403   2.233   3.323   5.899  1.4361  0.8651  0.4262
  349Sol     MW 4404   2.226   3.327   5.810  0.3736 -0.0022  0.5875
  350Sol     OW 4405   2.680   0.888   8.640  0.3627  0.2555 -0.2550
  350Sol     HW 4406   2.629   0.910   8.563 -0.8818  2.5417  1.1582
  350Sol     HW 4407   2.641   0.807   8.673  1.6616 -1.3936 -2.6188
  350Sol     MW 4408   2.672   0.883   8.636 -0.1955  0.3152  0.2666
  351Sol     OW 4409   0.172   1.100   4.638 -0.6116 -0.6860 -0.5976
  351Sol     HW 4410   0.133   1.092   4.725  0.5772 -0.5265 -0.0498
  351Sol     HW 4411   0.215   1.016   4.623 -0.6540 -0.6459 -0.9632
  351Sol     MW 4412   0.172   1.091   4.644 -0.4873  0.2240 -0.7294
  352Sol     OW 4413   1.029   0.831   6.716  0.7093  0.5403  0.4295
  352Sol     HW 4414   1.086   0.776   6.662  0.4162 -0.5690  1.2573
  352Sol     HW 4415   0.957   0.774   6.743  1.1378  0.9261  2.4551
  352Sol     MW 4416   1.028   0.821   6.713 -0.3719 -0.0072  0.4875
  353Sol     OW 4417   2.900   1.279   7.188 -0.1130 -0.1275  0.5345
  353Sol     HW 4418   2.814   1.303   7.223 -0.2820  2.0132 -1.2567
  353Sol     HW 4419   2.962   1.332   7.238 -0.3003  2.4159 -1.8658
  353Sol     MW 4420   2.898   1.286   7.196  0.2279  0.0584 -0.2889
  354Sol     OW 4421   0.863   2.216   6.005 -0.6458  0.1413 -1.2014
  354Sol     HW 4422   0.893   2.175   6.085  0.9461 -0.5264 -2.1237
  354Sol     HW 4423   0.769   2.199   6.003 -0.6752  0.0516  0.4427
  354Sol     MW 4424   0.857   2.211   6.012  0.0849 -0.0529  0.2537
  355Sol     OW 4425   0.597   0.274   7.396 -0.3194  0.1050  0.0860
  355Sol     HW 4426   0.663   0.293   7.462 -0.8845 -0.2769  0.7636
  355Sol     HW 4427   0.601   0.349   7.336  2.2010 -0.9097 -1.0905
  355Sol     MW 4428   0.603   0.283   7.396  0.7048  0.4479 -0.1114
  356Sol     OW 4429   2.334   3.428   3.469  0.2945 -0.3433  0.6766
  356Sol     HW 4430   2.288   3.399   3.390  3.0624 -2.5383 -0.1941
  356Sol     HW 4431   2.276   3.494   3.507 -1.0020  0.9703 -3.3007
  356Sol     MW 4432   2.325   3.431   3.465 -0.5299  0.1994  0.7434
  357Sol     OW 4433   2.303   0.823   7.158  0.3631  0.3339  0.1811
  357Sol     HW 4434   2.242   0.888   7.123  1.5584  1.3263 -0.1180
  357Sol     HW 4435   2.261   0.739   7.141 -1.2371  1.0211  0.6263
  357Sol     MW 4436   2.294   0.821   7.153  0.1767  0.3706 -0.1070
  358Sol     OW 4437   2.970   1.617   8.562  0.5220 -0.3739 -0.1258
  358Sol     HW 4438   2.954   1.537   8.612 -0.3557  0.6415  1.2746
  358Sol     HW 4439   2.981   1.588   8.472  0.4404 -2.0859  0.3967
  358Sol     MW 4440   2.970   1.607   8.559 -0.0283  0.0550  0.3091
  359Sol     OW 4441   3.212   1.643   2.677 -0.1028 -0.8268 -0.0435
  359Sol     HW 4442   3.131   1.597   2.659 -0.2062 -0.6424 -0.0538
  359Sol     HW 4443   3.278   1.574   2.687  0.0216 -0.9079 -1.4205
  359Sol     MW 4444   3.211   1.633   2.677  0.5109 -0.1603  0.2033
  360Sol     OW 4445   0.718   3.000   5.339  0.1850  1.1148 -0.4465
  360Sol     HW 4446   0.749   3.079   5.294 -1.0486  1.0292 -1.4581
  360Sol     HW 4447   0.784   2.984   5.406  0.5087  2.9412 -0.3037
  360Sol     MW 4448   0.727   3.005   5.341  0.1595 -0.4403 -0.6514
  361Sol     OW 4449   0.221   2.371   4.551 -0.1656  0.5563  0.5718
  361Sol     HW 4450   0.259   2.324   4.624 -1.2678 -1.7982 -0.3073
  361Sol     HW 4451   0.127   2.371   4.568 -0.4751 -0.3432 -0.9953
  361Sol     MW 4452   0.216   2.367   4.559  0.1546  0.0809  0.0083
  362Sol     OW 4453   3.194   1.641   2.197 -0.2234  0.1163 -0.3685
  362Sol     HW 4454   3.145   1.674   2.272  2.2950  1.5137  0.7399
  362Sol     HW 4455   3.129   1.600   2.141 -2.2765 -0.2197  2.1959
  362Sol     MW 4456   3.184   1.640   2.199 -0.2426  0.0826  0.3778
  363Sol     OW 4457   1.050   1.559   3.899  0.1377  0.7086  0.3375
  363Sol     HW 4458   1.082   1.649   3.893 -0.9029  1.1016  0.6262
  363Sol     HW 4459   1.026   1.536   3.809  2.6285 -0.1218 -0.1468
  363Sol     MW 4460   1.051   1.565   3.890  0.1373 -0.2621 -0.3495
  364Sol     OW 4461   1.734   1.919   9.826  0.3049 -0.3464  0.4442
  364Sol     HW 4462   1.799   1.989   9.828  1.4224 -1.2691 -1.6349
  364Sol     HW 4463   1.775   1.846   9.873 -0.5100  0.0878  1.8576
  364Sol     MW 4464   1.743   1.918   9.831  0.0701  0.2048 -0.2246
  365Sol     OW 4465   1.203   1.357   9.917  0.3669  0.0842  0.2519
  365Sol     HW 4466   1.131   1.391   9.864  1.1519  1.5604  0.1036
  365Sol     HW 4467   1.170   1.360  10.007  0.0481  0.2309  0.1314
  365Sol     MW 4468   1.193   1.360   9.920  0.3184 -0.3930 -0.4236
  366Sol     OW 4469   1.464   0.866   4.029 -0.0143 -0.1864 -0.0764
  366Sol     HW 4470   1.371   0.892   4.025 -0.1119 -0.4611  0.3887
  366Sol     HW 4471   1.471   0.794   3.966 -0.5545 -1.4876  1.3222
  366Sol     MW 4472   1.456   0.862   4.023  0.4139 -0.7908 -0.2832
  367Sol     OW 4473   1.551   2.141   9.732  0.8130 -0.0468  0.3681
  367Sol     HW 4474   1.621   2.171   9.790  0.7320 -1.2396  1.1048
  367Sol     HW 4475   1.540   2.048   9.754  0.8880 -0.5514 -1.6738
  367Sol     MW 4476   1.556   2.135   9.739 -0.6608  0.0941  0.5702
  368Sol     OW 4477   1.560   1.310   8.475  0.3405  0.1050  0.0867
  368Sol     HW 4478   1.558   1.226   8.521 -4.5894 -0.0514 -0.1029
  368Sol     HW 4479   1.560   1.376   8.544  1.8930 -0.0382  0.2396
  368Sol     MW 4480   1.560   1.308   8.485 -0.3193  0.7542  0.2603
  369Sol     OW 4481   3.223   2.743   4.337  0.1846  0.4488  0.4297
  369Sol     HW 4482   3.165   2.818   4.344 -2.1323 -1.3059  0.5394
  369Sol     HW 4483   3.267   2.738   4.422 -0.7238  0.8292  0.9260
  369Sol     MW 4484   3.222   2.749   4.345 -0.5970 -0.6323  0.1496
  370Sol     OW 4485   1.896   2.403   4.524 -0.6159 -0.1917  0.0085
  370Sol     HW 4486   1.932   2.420   4.437 -0.7354 -0.7672 -0.1583
  370Sol     HW 4487   1.859   2.315   4.518 -0.6543 -0.2246  0.6319
  370Sol     MW 4488   1.896   2.396   4.516 -0.0775 -0.2955  0.8098
  371Sol     OW 4489   1.045   2.485   3.108  0.3408  0.3171  0.4819
  371Sol     HW 4490   0.954   2.470   3.083  0.1668  0.1921  1.1739
  371Sol     HW 4491   1.080   2.543   3.040 -0.0379 -0.2442 -0.1948
  371Sol     MW 4492   1.040   2.489   3.100 -0.9118  0.1796 -0.4228
  372Sol     OW 4493   2.755   0.661   2.477  0.4033  0.3356 -0.1082
  372Sol     HW 4494   2.673   0.619   2.503  0.2320  0.7406  0.0075
  372Sol     HW 4495   2.817   0.589   2.467  0.3659  0.1384  1.0413
  372Sol     MW 4496   2.753   0.651   2.478  0.4118 -0.1403  0.2542
  373Sol     OW 4497   0.176   1.132   4.358  0.6143  0.4173 -0.7200
  373Sol     HW 4498   0.175   1.040   4.334 -1.6008  0.1085  0.3927
  373Sol     HW 4499   0.174   1.133   4.454 -1.0305  1.5866 -0.7326
  373Sol     MW 4500   0.175   1.124   4.365  0.0117  0.0149 -0.4653
  374Sol     OW 4501   2.970   3.138   7.390  0.4366  0.7864  0.5161
  374Sol     HW 4502   3.065   3.150   7.382  0.5445 -0.1498  0.2786
  374Sol     HW 4503   2.961   3.068   7.454 -0.0087 -0.6219 -1.0400
  374Sol     MW 4504   2.978   3.133   7.395 -0.0309 -0.5604 -0.4659
  375Sol     OW 4505   3.116   0.388   4.502  0.5264  0.1514  0.1480
  375Sol     HW 4506   3.156   0.330   4.437  1.1610 -0.5253  1.1167
  375Sol     HW 4507   3.190   0.432   4.544  0.0385  1.7190 -0.6173
  375Sol     MW 4508   3.126   0.386   4.500  0.8756  0.5875  0.4141
  376Sol     OW 4509   2.422   1.747   7.362 -0.4171  0.1978  0.2071
  376Sol     HW 4510   2.447   1.655   7.371  1.8272  0.7958  0.2241
  376Sol     HW 4511   2.479   1.781   7.293 -1.9027  1.3529 -0.4927
  376Sol     MW 4512   2.429   1.742   7.357  0.2459  0.5282 -0.3558
  377Sol     OW 4513   1.441   2.587   3.253 -0.6041  0.0052  0.2691
  377Sol     HW 4514   1.511   2.532   3.217  1.0109  1.9254  0.4476
  377Sol     HW 4515   1.465   2.600   3.345 -1.9011 -0.4123  0.6833
  377Sol     MW 4516   1.450   2.583   3.258  0.1830 -0.5492  0.2255
  378Sol     OW 4517   2.455   0.971   8.488  0.2039 -0.5451 -0.0684
  378Sol     HW 4518   2.363   0.950   8.504  0.5954 -1.2620  1.3417
  378Sol     HW 4519   2.455   1.017   8.404 -1.6598  1.1580  0.8152
  378Sol     MW 4520   2.446   0.973   8.482  0.2617  0.4599  0.6055
  379Sol     OW 4521   0.581   2.512   9.005 -0.8260  0.2024  0.6480
  379Sol     HW 4522   0.556   2.428   8.966 -1.0775  0.3949  0.3897
  379Sol     HW 4523   0.497   2.556   9.021 -0.6577  0.8571 -0.2302
  379Sol     MW 4524   0.571   2.508   9.003 -0.0083  0.5067 -0.2894
  380Sol     OW 4525   2.161   0.847   4.933 -0.3851 -0.1727  0.7450
  380Sol     HW 4526   2.111   0.784   4.985 -1.9199  0.8274  0.5263
  380Sol     HW 4527   2.097   0.883   4.871  0.7180  0.8181  0.1650
  380Sol     MW 4528   2.150   0.845   4.932 -0.1939  0.9829  0.0599
  381Sol     OW 4529   3.166   1.609   6.251  0.5370  0.5225  0.0073
  381Sol     HW 4530   3.082   1.604   6.296  0.2488 -1.3548 -0.7201
  381Sol     HW 4531   3.174   1.701   6.226  0.1763  1.3663  2.8411
  381Sol     MW 4532   3.159   1.617   6.253  0.7144  0.0258  0.2523
  382Sol     OW 4533   2.081   0.864   4.204  0.8777  0.4035 -0.1214
  382Sol     HW 4534   2.144   0.793   4.211 -0.8892 -1.1582  0.2040
  382Sol     HW 4535   2.043   0.856   4.117 -0.1827  0.2066  0.3482
  382Sol     MW 4536   2.083   0.857   4.197 -0.2451  0.4455  0.2873
  383Sol     OW 4537   1.562   2.914   8.669 -0.3488 -0.2284 -0.3439
  383Sol     HW 4538   1.522   2.872   8.745 -0.1782 -0.6475 -0.4855
  383Sol     HW 4539   1.606   2.991   8.704  1.4707 -1.5220  0.3003
  383Sol     MW 4540   1.562   2.917   8.679  0.2156  0.0226 -0.4401
  384Sol     OW 4541   1.696   0.086   6.341  0.2479  0.0067 -0.8247
  384Sol     HW 4542   1.612   0.102   6.297 -0.4019 -2.0575 -0.4043
  384Sol     HW 4543   1.672   0.043   6.423  1.7916 -2.9211 -1.8110
  384Sol     MW 4544   1.686   0.084   6.344  0.3152  0.5895 -0.3495
  385Sol     OW 4545   2.103   1.598   9.279 -0.3096  0.5249 -0.1504
  385Sol     HW 4546   2.021   1.633   9.243 -0.4830 -0.1934 -0.4778
  385Sol     HW 4547   2.096   1.610   9.373 -0.1588  1.7946 -0.2983
  385Sol     MW 4548   2.095   1.602   9.284  0.2061  0.0291  0.2611
  386Sol     OW 4549   2.796   1.355   8.225  0.3862 -0.3731  0.3650
  386Sol     HW 4550   2.864   1.382   8.287 -0.5297  2.2702  0.2818
  386Sol     HW 4551   2.762   1.437   8.189 -2.0661 -1.6882 -0.4456
  386Sol     MW 4552   2.799   1.365   8.227 -0.3977 -0.1057 -0.4119
  387Sol     OW 4553   2.597   3.159   2.238  0.2564 -0.0272  0.6324
  387Sol     HW 4554   2.525   3.095   2.232  0.0863  0.0984  1.2715
  387Sol     HW 4555   2.619   3.179   2.147 -0.1468 -0.4856  0.4297
  387Sol     MW 4556   2.592   3.155   2.230  0.4562  0.1176 -0.4155
  388Sol     OW 4557   1.092   0.300   8.142  0.1719  0.6577  0.4788
  388Sol     HW 4558   1.010   0.346   8.123 -0.2594 -0.2843  0.0165
  388Sol     HW 4559   1.147   0.318   8.066  0.0001  0.3834  0.2922
  388Sol     MW 4560   1.089   0.306   8.133  0.0720 -0.5920  0.0876
  389Sol     OW 4561   1.871   0.535   6.101  0.1933  0.3897  0.4906
  389Sol     HW 4562   1.953   0.572   6.068  1.2497 -0.9227  1.5705
  389Sol     HW 4563   1.886   0.523   6.194 -0.5869 -1.4639  0.4059
  389Sol     MW 4564   1.880   0.537   6.106  0.0081  0.6349  0.3147
  390Sol     OW 4565   0.382   2.674   5.052 -0.0108  0.1165  0.6141
  390Sol     HW 4566   0.333   2.621   5.114  2.2154 -0.5825  1.8486
  390Sol     HW 4567   0.441   2.727   5.106  0.0206  1.5305 -0.7661
  390Sol     MW 4568   0.383   2.674   5.062  0.1170  0.3142 -0.4256
  391Sol     OW 4569   1.989   1.005   3.667 -0.3118 -0.3597 -0.5180
  391Sol     HW 4570   2.013   1.092   3.701  0.5507 -0.4376 -0.9074
  391Sol     HW 4571   2.041   0.944   3.720  0.9271 -0.4941 -1.8642
  391Sol     MW 4572   1.996   1.007   3.675  0.3950  0.1345 -0.1439
  392Sol     OW 4573   2.705   1.194   2.130  0.0554 -0.5431  0.4595
  392Sol     HW 4574   2.718   1.131   2.059  0.7442 -1.1937  1.1535
  392Sol     HW 4575   2.791   1.204   2.169  0.0087  1.0478  0.1936
  392Sol     MW 4576   2.713   1.190   2.127 -0.4986 -0.6021 -0.0013
  393Sol     OW 4577   3.294   1.048   6.744 -0.2553  0.0713 -0.5872
  393Sol     HW 4578   3.259   0.982   6.804 -0.9631  0.2571 -0.7835
  393Sol     HW 4579   3.221   1.067   6.685  1.1208 -1.7496 -2.9253
  393Sol     MW 4580   3.284   1.044   6.744 -0.0356 -0.0886  0.4709
  394Sol     OW 4581   0.699   1.691   5.963  0.4367 -0.2275  0.5322
  394Sol     HW 4582   0.788   1.716   5.937  0.0311  0.3893 -0.2935
  394Sol     HW 4583   0.711   1.618   6.023  1.3819 -2.3231 -2.1073
  394Sol     MW 4584   0.708   1.687   5.966  0.3324  0.2616  0.8965
  395Sol     OW 4585   2.435   0.284   8.930  0.2725  0.1519 -0.0778
  395Sol     HW 4586   2.475   0.357   8.975  0.1469 -0.1249  0.4874
  395Sol     HW 4587   2.344   0.311   8.914 -0.0541 -0.2714  1.0263
  395Sol     MW 4588   2.430   0.293   8.932 -0.3454  0.0295 -0.3095
  396Sol     OW 4589   2.740   2.080   5.652 -0.0545  0.6617 -0.0352
  396Sol     HW 4590   2.746   1.995   5.608  4.6526  1.1321 -0.5381
  396Sol     HW 4591   2.681   2.131   5.596  1.4375 -0.5552 -2.8598
  396Sol     MW 4592   2.735   2.077   5.643 -0.1721 -0.5887  0.2368
  397Sol     OW 4593   0.388   3.065   5.906  0.1720  0.1201 -0.0285
  397Sol     HW 4594   0.413   2.978   5.939 -0.2394  0.2350  0.6008
  397Sol     HW 4595   0.375   3.052   5.812  0.0082 -0.5250  0.0791
  397Sol     MW 4596   0.389   3.056   5.901 -0.2854  0.1497 -0.3543
  398Sol     OW 4597   1.150   1.517   5.513 -0.0932  0.4261  0.3726
  398Sol     HW 4598   1.074   1.520   5.456  1.2065  2.3254 -1.3347
  398Sol     HW 4599   1.150   1.601   5.558  0.8753  0.3608  0.5111
  398Sol     MW 4600   1.143   1.524   5.512  0.3316 -0.0638  0.2712
  399Sol     OW 4601   0.077   2.281   4.194  0.0102 -0.3472 -0.2200
  399Sol     HW 4602   0.083   2.298   4.100  0.9372 -1.5407 -0.3896
  399Sol     HW 4603   0.024   2.353   4.228 -2.9912 -1.5350 -2.1390
  399Sol     MW 4604   0.073   2.289   4.188  0.0116  0.2082 -0.2578
  400Sol     OW 4605   1.079   1.719   4.529  0.1522  0.1634  0.6748
  400Sol     HW 4606   1.106   1.673   4.449  1.3828  0.2771  1.0091
  400Sol     HW 4607   1.160   1.726   4.580 -0.5708  0.3601  1.7959
  400Sol     MW 4608   1.089   1.715   4.526 -0.3417  0.6531  0.1685
  401Sol     OW 4609   1.352   1.774   9.605 -0.4300 -0.3743  0.4239
  401Sol     HW 4610   1.281   1.827   9.568 -1.0128 -0.8466  0.8551
  401Sol     HW 4611   1.378   1.821   9.684  0.6389  0.4979 -0.4502
  401Sol     MW 4612   1.348   1.783   9.609  0.2783  0.3070  0.6751
  402Sol     OW 4613   0.927   2.137   8.674 -0.5223  0.6226  0.8835
  402Sol     HW 4614   1.020   2.121   8.689 -0.8356 -1.9857  0.2026
  402Sol     HW 4615   0.895   2.171   8.757  0.4044 -1.3303  2.0666
  402Sol     MW 4616   0.933   2.139   8.682 -0.0502  0.0761  0.6114
  403Sol     OW 4617   2.245   1.152   6.057 -0.1791 -0.0509  0.1437
  403Sol     HW 4618   2.183   1.170   6.128  0.2381  1.6146  0.0982
  403Sol     HW 4619   2.328   1.187   6.088 -0.6201  3.3740 -2.3639
  403Sol     MW 4620   2.246   1.156   6.067  0.0123 -0.7756  0.1481
  404Sol     OW 4621   2.008   2.982   8.239 -0.4345 -0.7170  0.1270
  404Sol     HW 4622   1.949   2.982   8.314  0.0128 -3.3263  0.5421
  404Sol     HW 4623   1.989   2.900   8.193  2.3955 -1.3610 -0.0383
  404Sol     MW 4624   2.001   2.975   8.242  0.3855 -0.2553  0.3458
  405Sol     OW 4625   2.158   1.791   6.011  0.4924 -0.1408 -0.3583
  405Sol     HW 4626   2.198   1.878   6.018  0.0179  0.1196 -0.8647
  405Sol     HW 4627   2.107   1.795   5.930 -1.0464 -0.2778  0.5824
  405Sol     MW 4628   2.157   1.800   6.004  0.4611 -0.4502 -0.1091
  406Sol     OW 4629   2.754   0.380   7.515 -0.1392 -0.4482 -0.3844
  406Sol     HW 4630   2.782   0.344   7.599 -1.3070 -0.4795 -0.0125
  406Sol     HW 4631   2.763   0.475   7.525  0.3810 -0.4879 -0.4619
  406Sol     MW 4632   2.758   0.385   7.523  0.1300  0.5201  0.0942
  407Sol     OW 4633   0.157   0.364   6.240 -0.2854  0.3509  0.1711
  407Sol     HW 4634   0.215   0.302   6.286 -0.0672 -0.2148 -0.8479
  407Sol     HW 4635   0.148   0.438   6.301  1.2102  0.2792  0.5034
  407Sol     MW 4636   0.162   0.365   6.250  0.0797 -0.2376  0.5704
  408Sol     OW 4637   1.014   2.073   5.836 -0.0450 -0.0493  0.0987
  408Sol     HW 4638   1.106   2.093   5.852  0.2991 -0.2621 -1.5491
  408Sol     HW 4639   0.967   2.120   5.905  1.2046  0.9944  0.2544
  408Sol     MW 4640   1.018   2.079   5.844 -0.5398  0.6692 -0.3603
  409Sol     OW 4641   0.818   0.461   8.238  0.5334  0.0326  0.1936
  409Sol     HW 4642   0.726   0.482   8.254  0.7125  0.3053  0.8679
  409Sol     HW 4643   0.867   0.519   8.297  1.2152  1.2918 -1.5355
  409Sol     MW 4644   0.814   0.468   8.245 -0.2210 -0.6166  0.3417
  410Sol     OW 4645   1.209   2.631   2.936  0.0741 -0.2417  0.5003
  410Sol     HW 4646   1.230   2.540   2.916  0.4705 -0.3221  1.2608
  410Sol     HW 4647   1.237   2.681   2.859 -1.0107 -0.8690 -0.3158
  410Sol     MW 4648   1.213   2.628   2.928 -0.0345 -0.4387  0.1664
  411Sol     OW 4649   2.764   0.677   9.406 -0.2921  0.1445 -0.0668
  411Sol     HW 4650   2.709   0.756   9.410  0.4096  0.6342 -0.1171
  411Sol     HW 4651   2.838   0.697   9.463 -0.7803 -1.0100  1.0007
  411Sol     MW 4652   2.765   0.686   9.412 -0.1222 -0.6950  0.0286
  412Sol     OW 4653   0.345   2.522   8.554 -0.0860 -0.3670  0.2359
  412Sol     HW 4654   0.313   2.447   8.504 -2.0302  1.3357 -1.1699
  412Sol     HW 4655   0.285   2.529   8.628  0.0452 -0.1515  0.3242
  412Sol     MW 4656   0.337   2.516   8.556  0.5841  0.4135  0.2629
  413Sol     OW 4657   2.135   0.386   4.647  0.7460 -0.7695  0.2142
  413Sol     HW 4658   2.117   0.459   4.588 -2.5210 -0.8446  1.0583
  413Sol     HW 4659   2.151   0.426   4.732  1.9782 -0.8903  0.0565
  413Sol     MW 4660   2.135   0.396   4.649 -0.1351  0.3441 -0.4722
  414Sol     OW 4661   1.102   3.185   9.219  0.3014 -0.0493 -0.5929
  414Sol     HW 4662   1.071   3.141   9.298  1.6349  0.5169  0.2667
  414Sol     HW 4663   1.023   3.203   9.169 -0.4517 -1.5351  0.0181
  414Sol     MW 4664   1.093   3.182   9.222 -0.1349  0.0812  0.2474
  415Sol     OW 4665   1.093   2.158   3.953  0.1591  0.0576  0.0570
  415Sol     HW 4666   1.122   2.249   3.948 -1.4684  0.5341 -1.1549
  415Sol     HW 4667   1.157   2.109   3.902  1.3352  0.4401  1.1518
  415Sol     MW 4668   1.101   2.161   3.948 -0.1555 -0.4310 -0.5843
  416Sol     OW 4669   3.311   2.829   2.751 -0.3031 -0.2492 -0.0618
  416Sol     HW 4670   3.218   2.826   2.733 -0.7421 -1.3728  2.1858
  416Sol     HW 4671   3.327   2.919   2.780 -0.7229 -0.1008 -0.2885
  416Sol     MW 4672   3.304   2.837   2.752 -0.1788 -0.5020 -0.0483
  417Sol     OW 4673   2.600   3.106   9.254 -0.1108  0.3950  0.6180
  417Sol     HW 4674   2.525   3.155   9.288 -0.9679 -0.9979  0.8265
  417Sol     HW 4675   2.674   3.165   9.262 -1.2989  2.0301 -0.1397
  417Sol     MW 4676   2.600   3.115   9.258  0.8967  0.0850  0.0823
  418Sol     OW 4677   1.947   2.886   9.470 -0.0778  0.2585  0.0078
  418Sol     HW 4678   1.900   2.806   9.449  1.0059 -0.6895  1.1313
  418Sol     HW 4679   1.893   2.956   9.432 -1.7289 -0.8832  0.1984
  418Sol     MW 4680   1.938   2.885   9.465  0.1849 -0.1427 -0.1660
  419Sol     OW 4681   1.657   0.692   3.074 -0.0992  0.2890 -0.0299
  419Sol     HW 4682   1.684   0.784   3.067  1.1518 -0.1697 -1.3028
  419Sol     HW 4683   1.684   0.652   2.992  2.0084 -1.9110  1.6574
  419Sol     MW 4684   1.661   0.697   3.066 -0.0681 -0.4328  0.3298
  420Sol     OW 4685   1.796   1.890   8.454  0.5599  0.5062 -0.4044
  420Sol     HW 4686   1.721   1.937   8.492  1.1791  2.2392 -1.2743
  420Sol     HW 4687   1.854   1.875   8.528  1.3062  2.9964 -0.4243
  420Sol     MW 4688   1.794   1.893   8.464  0.4664 -0.0552 -0.0131
  421Sol     OW 4689   0.942   0.096   2.319 -0.2135  0.0366  0.1032
  421Sol     HW 4690   0.928   0.150   2.241  0.4646  0.4552  0.2652
  421Sol     HW 4691   0.870   0.033   2.318  0.2568 -0.5002 -1.3273
  421Sol     MW 4692   0.934   0.095   2.312  0.4818 -0.0572  0.5946
  422Sol     OW 4693   2.943   0.074   8.447  0.2090 -0.3004 -0.1586
  422Sol     HW 4694   2.994   0.145   8.487 -0.3065  0.0740 -0.1479
  422Sol     HW 4695   2.999  -0.003   8.454  0.1987 -0.2094  1.1523
  422Sol     MW 4696   2.952   0.074   8.451 -0.5661 -0.2159  0.3796
  423Sol     OW 4697   2.362   0.930   8.782 -0.0741  0.8751 -0.0710
  423Sol     HW 4698   2.269   0.921   8.762 -0.5177  3.3023  0.7205
  423Sol     HW 4699   2.404   0.943   8.696 -0.6086  0.8301 -0.3390
  423Sol     MW 4700   2.358   0.931   8.772 -0.0413  0.3547 -0.1272
  424Sol     OW 4701   1.274   2.104   1.883 -0.0466 -0.2302  0.2611
  424Sol     HW 4702   1.360   2.080   1.850 -0.0571  0.3494 -0.1793
  424Sol     HW 4703   1.268   2.199   1.871 -0.1752 -0.0433  1.6155
  424Sol     MW 4704   1.281   2.110   1.879 -0.0044 -0.0499  0.3845
  425Sol     OW 4705   1.673   3.156   8.733 -0.3679 -0.1651 -0.0464
  425Sol     HW 4706   1.676   3.251   8.723  1.5123 -0.2579 -0.4541
  425Sol     HW 4707   1.695   3.141   8.825  1.1311 -0.2881 -0.4158
  425Sol     MW 4708   1.675   3.163   8.740 -0.3679  0.4478 -0.0508
  426Sol     OW 4709   2.707   0.594   3.680  0.4923  0.0376  0.0309
  426Sol     HW 4710   2.706   0.675   3.731 -0.0609  0.7633 -1.1141
  426Sol     HW 4711   2.628   0.547   3.707  0.5724  0.0845  0.3525
  426Sol     MW 4712   2.700   0.597   3.687 -0.3024  0.1733  0.1351
  427Sol     OW 4713   0.920   1.128   6.162  0.5922  0.1542 -0.2178
  427Sol     HW 4714   0.887   1.196   6.220  0.6097  0.4220 -0.5193
  427Sol     HW 4715   0.969   1.175   6.095  0.6975 -0.1635 -0.3671
  427Sol     MW 4716   0.922   1.138   6.161  0.2311  0.0550 -0.1697
  428Sol     OW 4717   2.011   2.701   5.867 -0.1651 -0.0130  0.3006
  428Sol     HW 4718   1.931   2.750   5.845  0.1412 -0.2129 -1.2960
  428Sol     HW 4719   2.079   2.768   5.872 -0.1879  0.0031  0.3963
  428Sol     MW 4720   2.010   2.712   5.865  0.2047 -0.3929 -0.7236
  429Sol     OW 4721   1.334   1.747   1.816 -0.3904  0.1508  0.1184
  429Sol     HW 4722   1.376   1.826   1.785  0.7469 -1.0026 -1.3310
  429Sol     HW 4723   1.269   1.726   1.749  0.2958 -0.9180 -0.2306
  429Sol     MW 4724   1.332   1.752   1.807  0.1942 -0.4411  0.1769
  430Sol     OW 4725   1.021   1.889   2.254 -0.1204 -0.0313  0.1057
  430Sol     HW 4726   1.107   1.911   2.217 -0.3756  1.1358  0.2059
  430Sol     HW 4727   0.958   1.933   2.198 -0.5643  0.7647  1.2051
  430Sol     MW 4728   1.023   1.895   2.246 -0.8422  0.6659  0.2679
  431Sol     OW 4729   2.155   3.035   9.792  0.2363 -0.0296  0.9001
  431Sol     HW 4730   2.098   2.959   9.782  2.3713 -1.5892  0.3026
  431Sol     HW 4731   2.161   3.072   9.704  3.2237 -2.1625  0.1584
  431Sol     MW 4732   2.150   3.032   9.783  0.7705  0.5603  0.1138
  432Sol     OW 4733   2.135   1.412   1.453 -0.3190  0.3278 -0.8187
  432Sol     HW 4734   2.171   1.496   1.425 -0.0915  0.2780 -0.6756
  432Sol     HW 4735   2.048   1.434   1.487 -0.4076  0.4527 -1.1245
  432Sol     MW 4736   2.130   1.421   1.454 -0.4838  0.3648  0.1100
  433Sol     OW 4737   1.669   3.258   3.042  0.4955 -0.9042  0.4147
  433Sol     HW 4738   1.658   3.171   3.004 -3.5925 -1.1402  1.8714
  433Sol     HW 4739   1.653   3.245   3.136  0.5810  1.2794  0.7563
  433Sol     MW 4740   1.667   3.249   3.047 -0.0677  0.4933 -0.3624
  434Sol     OW 4741   2.106   1.752   4.211 -0.2372 -0.0189  0.4479
  434Sol     HW 4742   2.115   1.665   4.250  0.6740 -0.2503 -0.2628
  434Sol     HW 4743   2.179   1.803   4.248 -0.5690  0.3500  0.6018
  434Sol     MW 4744   2.113   1.749   4.218 -0.2254 -0.3929 -0.2872
  435Sol     OW 4745   0.245   3.317   8.289  1.0318  0.0158  0.0710
  435Sol     HW 4746   0.337   3.332   8.268  0.5257  1.6033 -1.0788
  435Sol     HW 4747   0.208   3.277   8.210  0.2778  1.2625 -0.2107
  435Sol     MW 4748   0.250   3.314   8.280  0.3063  0.1019  0.1492
  436Sol     OW 4749   1.303   1.408   6.330  0.0662  0.3083 -0.6317
  436Sol     HW 4750   1.387   1.450   6.310  0.1264  0.0574 -0.9136
  436Sol     HW 4751   1.238   1.460   6.283  0.0234  0.7262 -0.1098
  436Sol     MW 4752   1.305   1.416   6.324  0.1361 -0.2844 -0.7021
  437Sol     OW 4753   2.749   0.420   9.336  0.0650  0.6130 -0.4665
  437Sol     HW 4754   2.706   0.363   9.400 -1.5686  0.0297 -2.0697
  437Sol     HW 4755   2.750   0.506   9.378  0.3328 -0.0554  0.9470
  437Sol     MW 4756   2.745   0.423   9.346 -0.2552  0.3887 -0.2678
  438Sol     OW 4757   0.012   0.032   8.480 -0.9748  0.0340  0.4218
  438Sol     HW 4758  -0.029   0.053   8.563 -0.9009  0.7872  0.2711
  438Sol     HW 4759   0.103   0.012   8.502 -1.2751 -1.0740  0.6849
  438Sol     MW 4760   0.016   0.032   8.489  0.1118 -0.1959 -0.4817
  439Sol     OW 4761   0.181   3.061   6.916  0.0385  0.3218  0.1232
  439Sol     HW 4762   0.232   3.121   6.861 -0.9994  1.1168  0.0136
  439Sol     HW 4763   0.213   3.078   7.005  0.5646  0.2081 -0.0417
  439Sol     MW 4764   0.189   3.068   6.919  0.3190  0.4062  0.2812
  440Sol     OW 4765   0.027   2.079   6.077  0.0817  0.1194 -0.3074
  440Sol     HW 4766   0.022   2.134   6.155  0.4891 -0.1235 -0.1076
  440Sol     HW 4767  -0.007   1.994   6.106 -2.1533  0.7157 -1.0474
  440Sol     MW 4768   0.023   2.076   6.086 -0.0053  0.5768  0.0248
  441Sol     OW 4769   0.956   1.799   5.879  0.0183  0.0418 -0.6536
  441Sol     HW 4770   0.967   1.894   5.879 -0.3817  0.0855 -0.2046
  441Sol     HW 4771   0.945   1.776   5.786  2.2231  0.1951 -0.9797
  441Sol     MW 4772   0.956   1.805   5.870 -0.1948 -0.6821  0.1279
  442Sol     OW 4773   0.273   0.667   8.722 -0.1311 -0.4990  0.2016
  442Sol     HW 4774   0.360   0.626   8.725  1.3889  2.4914 -0.6589
  442Sol     HW 4775   0.241   0.661   8.812  1.7725  0.0109  0.9407
  442Sol     MW 4776   0.278   0.663   8.730 -0.2714 -0.9137  0.1524
  443Sol     OW 4777   1.918   1.327   3.442 -0.2402  0.5413  0.1657
  443Sol     HW 4778   2.009   1.300   3.430 -0.2227  1.0592 -0.9142
  443Sol     HW 4779   1.907   1.334   3.536  1.2375  1.8269  0.2493
  443Sol     MW 4780   1.925   1.325   3.449 -0.3570 -0.2218 -0.2713
  444Sol     OW 4781   2.706   1.485   6.843  0.1057 -0.3486 -0.0550
  444Sol     HW 4782   2.647   1.554   6.811 -0.7739 -1.1204 -0.1091
  444Sol     HW 4783   2.658   1.404   6.828  0.8158 -0.9187  0.7290
  444Sol     MW 4784   2.696   1.484   6.839 -0.2889 -0.6815  0.2378
  445Sol     OW 4785   2.811   3.433   3.518  0.1064  0.3538  0.3678
  445Sol     HW 4786   2.760   3.486   3.457 -0.5970 -0.3521  0.3356
  445Sol     HW 4787   2.791   3.470   3.604 -1.4941 -0.7292  0.4884
  445Sol     MW 4788   2.804   3.441   3.520  0.0750  0.0908  0.4425
  446Sol     OW 4789   2.461   2.199   9.660  0.0165 -0.2086  0.1709
  446Sol     HW 4790   2.421   2.153   9.587 -0.1273  2.4986 -1.5220
  446Sol     HW 4791   2.389   2.248   9.700  0.5282  0.0836  0.7508
  446Sol     MW 4792   2.451   2.199   9.657  0.0910  0.5332 -0.0343
  447Sol     OW 4793   1.564   2.528   6.888  0.2324  0.1692 -0.0521
  447Sol     HW 4794   1.602   2.499   6.971 -2.9737 -1.0471  1.0976
  447Sol     HW 4795   1.602   2.471   6.822 -0.6990 -2.0276  1.2615
  447Sol     MW 4796   1.571   2.521   6.890  0.0996 -0.6168  0.0528
  448Sol     OW 4797   2.120   2.253   5.919 -0.3858 -0.3255 -0.1069
  448Sol     HW 4798   2.174   2.186   5.961 -0.6630 -1.8985 -2.2137
  448Sol     HW 4799   2.116   2.228   5.827 -2.3303  1.3673 -0.5346
  448Sol     MW 4800   2.124   2.245   5.915  0.3974 -0.3072  0.6424
  449Sol     OW 4801   1.386   1.961   7.877  0.1126  0.1894 -0.0732
  449Sol     HW 4802   1.465   1.971   7.929  1.5435 -1.8464 -1.7371
  449Sol     HW 4803   1.351   2.050   7.868  2.8006  1.2766 -0.2013
  449Sol     MW 4804   1.390   1.970   7.881  0.1229  0.1944 -0.3354
  450Sol     OW 4805   2.591   0.890   9.437  0.3076  0.2856  0.5934
  450Sol     HW 4806   2.653   0.954   9.471  0.0269  0.7356  0.2606
  450Sol     HW 4807   2.533   0.871   9.512 -0.8853  1.9729  0.1211
  450Sol     MW 4808   2.591   0.894   9.447 -0.0609 -0.4057  0.2739
  451Sol     OW 4809   2.624   2.976   5.365  0.4181 -0.5607 -0.3283
  451Sol     HW 4810   2.558   2.944   5.426  2.0404 -0.8317  1.3506
  451Sol     HW 4811   2.635   3.068   5.387  1.0889 -0.6849 -0.1089
  451Sol     MW 4812   2.619   2.981   5.372 -0.1209  0.1086  0.5785
  452Sol     OW 4813   0.302   2.966   7.877  0.1702 -0.5964  0.1873
  452Sol     HW 4814   0.276   2.909   7.804 -0.5747 -0.6422  0.4902
  452Sol     HW 4815   0.389   2.935   7.902 -0.1169 -1.4212  0.1682
  452Sol     MW 4816   0.308   2.959   7.872  0.3162 -0.4259 -0.4474
  453Sol     OW 4817   1.111   0.008   9.731 -0.1757 -0.3232  0.0242
  453Sol     HW 4818   1.049   0.080   9.732  0.6411  0.4303 -1.3040
  453Sol     HW 4819   1.060  -0.068   9.701 -0.8406 -0.1174  0.6279
  453Sol     MW 4820   1.101   0.007   9.728  0.6210  0.3965 -0.2158
  454Sol     OW 4821   0.074   2.704   4.114 -0.2547 -0.9340 -0.5718
  454Sol     HW 4822   0.016   2.700   4.190  1.7918  0.1896  1.0978
  454Sol     HW 4823   0.162   2.688   4.150  1.0430  1.9046 -2.2847
  454Sol     MW 4824   0.077   2.703   4.124  0.4556  0.2107  0.2768
  455Sol     OW 4825   1.660   0.441   6.398 -0.3756 -0.4406 -0.0490
  455Sol     HW 4826   1.664   0.534   6.415  0.8906 -0.1416 -1.8092
  455Sol     HW 4827   1.573   0.414   6.428 -1.3529  1.6118 -1.0028
  455Sol     MW 4828   1.653   0.447   6.402 -0.6844  0.3754 -0.1545
  456Sol     OW 4829   2.064   0.140   5.465  0.4322 -0.1916 -0.5728
  456Sol     HW 4830   2.064   0.201   5.391  2.0759  0.5972  0.0423
  456Sol     HW 4831   2.064   0.054   5.424 -0.4148  0.2186 -1.4663
  456Sol     MW 4832   2.064   0.138   5.455  0.3679  0.1246 -0.1867
  457Sol     OW 4833   0.875   1.032   1.584  0.0586  0.5052  0.1223
  457Sol     HW 4834   0.841   1.092   1.517 -0.3287 -0.3270 -0.4265
  457Sol     HW 4835   0.802   1.023   1.646 -0.5941 -0.9562 -0.8392
  457Sol     MW 4836   0.865   1.037   1.584 -0.1347 -0.3491  0.1425
  458Sol     OW 4837   1.484   0.533   1.589 -0.3375  0.0808  0.1421
  458Sol     HW 4838   1.528   0.614   1.562 -0.2106 -0.4763 -1.3830
  458Sol     HW 4839   1.556   0.472   1.608 -0.4317  0.3559  1.4302
  458Sol     MW 4840   1.495   0.535   1.588  0.3399 -0.2135 -0.0651
  459Sol     OW 4841   0.434   2.399   1.739  0.1216 -0.4926 -0.5664
  459Sol     HW 4842   0.439   2.488   1.773  0.5907 -0.3591 -0.9567
  459Sol     HW 4843   0.369   2.355   1.793  0.5381 -0.1686  0.2114
  459Sol     MW 4844   0.429   2.403   1.747  0.7009 -0.1475  0.5223
  460Sol     OW 4845   3.005   1.543   2.017  0.2471  0.2915  0.2026
  460Sol     HW 4846   2.971   1.624   1.981 -1.8247 -1.1536 -1.2066
  460Sol     HW 4847   2.939   1.515   2.081  1.0436 -0.1940  0.8393
  460Sol     MW 4848   2.996   1.548   2.020 -0.4390  0.0565  0.8078
  461Sol     OW 4849   2.955   2.135   6.968  0.2660 -0.1117 -0.2926
  461Sol     HW 4850   2.974   2.050   6.930 -0.6839 -0.1355 -0.7337
  461Sol     HW 4851   3.017   2.195   6.926  1.4320 -0.7016  0.5675
  461Sol     MW 4852   2.962   2.133   6.961 -0.0316 -0.5172 -0.0152
  462Sol     OW 4853   0.725   1.239   7.713  0.1051 -0.5681  0.1276
  462Sol     HW 4854   0.629   1.244   7.713  0.0871 -0.9475  0.0070
  462Sol     HW 4855   0.750   1.256   7.622  0.1514 -0.5673  0.1407
  462Sol     MW 4856   0.719   1.241   7.705 -0.2478 -0.0558 -0.5937
  463Sol     OW 4857   1.314   1.483   5.951  0.0969 -0.0542 -0.0366
  463Sol     HW 4858   1.378   1.507   5.883 -0.0896  0.1523 -0.1396
  463Sol     HW 4859   1.276   1.567   5.978 -0.9923 -0.2936 -0.8211
  463Sol     MW 4860   1.316   1.493   5.948 -0.1952 -0.6884 -0.0991
  464Sol     OW 4861   1.768   1.974   2.090 -0.3093 -0.4267 -0.2982
  464Sol     HW 4862   1.854   1.959   2.131 -1.1399 -0.0362  1.6295
  464Sol     HW 4863   1.787   2.029   2.015  1.0464  0.3788  0.6053
  464Sol     MW 4864   1.778   1.978   2.087  0.5350 -0.1732 -0.1474
  465Sol     OW 4865   0.948   3.099   6.093  0.3609 -0.3831 -0.3674
  465Sol     HW 4866   0.962   3.193   6.088  0.4253 -0.4775 -2.5742
  465Sol     HW 4867   0.865   3.085   6.048  0.2972 -1.3704  0.0475
  465Sol     MW 4868   0.942   3.106   6.088 -0.3686  0.1354  0.1584
  466Sol     OW 4869   3.126   1.043   8.028  0.4461 -0.2013  0.3929
  466Sol     HW 4870   3.054   1.002   7.980 -0.2294 -0.0949  1.2957
  466Sol     HW 4871   3.189   1.067   7.960 -0.0224 -0.9853 -0.3323
  466Sol     MW 4872   3.125   1.042   8.017  0.5862 -0.5112 -0.0465
  467Sol     OW 4873   0.092   1.461   4.541  0.1862  0.2369  0.2329
  467Sol     HW 4874   0.117   1.547   4.507 -1.9381  0.4498 -0.9056
  467Sol     HW 4875   0.079   1.407   4.463  1.9007 -1.2629  0.9531
  467Sol     MW 4876   0.093   1.464   4.531  0.2825 -0.7502  0.3271
  468Sol     OW 4877   0.792   1.209   2.051  0.1448  0.6934 -0.3645
  468Sol     HW 4878   0.779   1.221   2.145 -3.1767 -1.9485 -0.3914
  468Sol     HW 4879   0.742   1.281   2.011 -0.4978  0.3775 -0.1375
  468Sol     MW 4880   0.786   1.217   2.056 -0.5451  0.5397 -0.3193
  469Sol     OW 4881   2.503   1.733   8.393 -0.1969  0.2298  0.7082
  469Sol     HW 4882   2.556   1.696   8.322  0.7700  1.8499  0.5508
  469Sol     HW 4883   2.495   1.662   8.457  0.9135 -0.4987  0.0563
  469Sol     MW 4884   2.507   1.723   8.392 -0.6316  0.0440 -0.5442
  470Sol     OW 4885   2.434   2.640   5.487  0.0967 -0.0600  0.0555
  470Sol     HW 4886   2.433   2.735   5.496 -1.9642  0.0590 -1.0782
  470Sol     HW 4887   2.497   2.623   5.417  0.6693  0.4384  0.4443
  470Sol     MW 4888   2.440   2.647   5.481 -0.5404  0.1665 -0.0657
  471Sol     OW 4889   1.239   0.294   6.227  0.1404 -0.2550  0.1416
  471Sol     HW 4890   1.168   0.358   6.221  0.2945  0.0913  1.8966
  471Sol     HW 4891   1.199   0.219   6.272  0.6129 -0.4597  0.2184
  471Sol     MW 4892   1.229   0.293   6.230  0.0064  0.0831  0.0895
  472Sol     OW 4893   0.642   0.709   1.638 -0.4282 -0.7167 -0.2371
  472Sol     HW 4894   0.714   0.702   1.575 -0.3685  1.7100 -0.4809
  472Sol     HW 4895   0.574   0.759   1.592 -1.2759 -0.8450  0.8503
  472Sol     MW 4896   0.642   0.713   1.629  0.3018 -0.2596 -0.4889
  473Sol     OW 4897   2.631   3.174   9.631  0.0180  0.7161 -0.0016
  473Sol     HW 4898   2.671   3.164   9.717 -0.1910 -0.9837 -0.0878
  473Sol     HW 4899   2.537   3.185   9.648  0.0103  0.6549 -0.0048
  473Sol     MW 4900   2.626   3.174   9.640  0.4091  0.2105 -0.0040
  474Sol     OW 4901   0.057   2.032   7.187  0.1826 -0.0039 -0.1315
  474Sol     HW 4902   0.027   1.962   7.130 -0.6970  0.7561 -0.6025
  474Sol     HW 4903   0.141   2.060   7.149  0.5898 -0.8723  0.1242
  474Sol     MW 4904   0.062   2.028   7.179 -0.1475  0.0949 -0.0106
  475Sol     OW 4905   0.475   1.316   5.115  0.1129  0.5507 -0.0687
  475Sol     HW 4906   0.439   1.259   5.183  2.6307 -1.3502 -0.2596
  475Sol     HW 4907   0.445   1.276   5.033 -0.6974  1.3039 -0.1451
  475Sol     MW 4908   0.469   1.307   5.113  0.3488 -0.7728 -0.0582
  476Sol     OW 4909   0.147   0.057   2.700  0.6548  0.0175  0.5234
  476Sol     HW 4910   0.185   0.144   2.714  1.3870 -0.6242  2.8485
  476Sol     HW 4911   0.185   0.003   2.770  0.7121 -2.3390 -1.2397
  476Sol     MW 4912   0.154   0.060   2.708  0.2209  0.0953 -0.1085
  477Sol     OW 4913   0.315   2.926   6.601 -0.2272 -0.7051 -0.1308
  477Sol     HW 4914   0.378   2.867   6.644  0.2809 -0.6465 -0.7935
  477Sol     HW 4915   0.330   2.912   6.508  0.8069  1.4513 -0.3080
  477Sol     MW 4916   0.322   2.919   6.597  0.7544 -0.0549  0.0118
  478Sol     OW 4917   3.025   2.579   9.250  0.6474 -0.1642  0.7544
  478Sol     HW 4918   3.020   2.495   9.295 -0.2415 -0.3999  0.2208
  478Sol     HW 4919   3.049   2.557   9.160  1.7827  0.2585  0.9376
  478Sol     MW 4920   3.027   2.570   9.246 -0.2519 -0.3753  0.2682
  479Sol     OW 4921   1.495   0.184   2.768 -0.6518  0.0914  0.3746
  479Sol     HW 4922   1.565   0.169   2.704 -0.1902 -0.4375  0.9972
  479Sol     HW 4923   1.488   0.101   2.816 -0.0211  0.9375  1.9661
  479Sol     MW 4924   1.501   0.175   2.767  0.4515  0.0419  0.0635
  480Sol     OW 4925   1.325   0.434   3.087 -0.1323 -0.0852  0.4165
  480Sol     HW 4926   1.322   0.448   3.181 -2.9940 -0.3288  0.4147
  480Sol     HW 4927   1.237   0.459   3.057  0.8043  0.1899 -2.1988
  480Sol     MW 4928   1.317   0.438   3.093 -0.3743  0.1906 -0.1821
  481Sol     OW 4929   0.220   0.194   6.654  0.1952 -0.7427  0.3215
  481Sol     HW 4930   0.219   0.181   6.749  0.3220 -0.6921  0.3299
  481Sol     HW 4931   0.131   0.223   6.633  0.4763  0.3664  0.5903
  481Sol     MW 4932   0.212   0.196   6.661 -0.5255  0.5761 -0.2472
  482Sol     OW 4933   1.140   0.412   9.197  0.4502 -0.3990  0.1268
  482Sol     HW 4934   1.131   0.361   9.277  1.8147 -1.1742 -0.1979
  482Sol     HW 4935   1.054   0.451   9.184 -0.5371 -2.3932  0.5189
  482Sol     MW 4936   1.132   0.411   9.203  0.9701  0.2158 -0.1811
  483Sol     OW 4937   2.155   1.218   5.795  0.1678  0.8749  0.0433
  483Sol     HW 4938   2.208   1.292   5.767  1.5798 -0.6289 -1.3913
  483Sol     HW 4939   2.195   1.190   5.878  1.8801 -0.4765 -1.2169
  483Sol     MW 4940   2.163   1.222   5.800 -0.0748  0.5253 -0.3892
  484Sol     OW 4941   2.725   1.915   7.749 -0.3278 -0.0298 -0.0390
  484Sol     HW 4942   2.634   1.901   7.775 -0.4596  2.1730  0.8130
  484Sol     HW 4943   2.720   1.949   7.660 -0.1286 -2.9501 -1.2232
  484Sol     MW 4944   2.717   1.917   7.743  0.7373  0.4998 -0.2727
  485Sol     OW 4945   1.529   0.434   2.891 -0.2148  0.0444  0.0615
  485Sol     HW 4946   1.470   0.428   2.966  2.0999  0.8225  1.9935
  485Sol     HW 4947   1.520   0.349   2.847 -2.8309  0.1942  0.2167
  485Sol     MW 4948   1.523   0.426   2.893  0.7064  0.3554 -0.0746
  486Sol     OW 4949   2.091   1.116   7.482 -0.2223  0.0526  0.0150
  486Sol     HW 4950   2.056   1.199   7.514  0.4237  0.5438 -0.5623
  486Sol     HW 4951   2.014   1.069   7.450 -0.5232  0.6236 -0.1085
  486Sol     MW 4952   2.081   1.119   7.482 -0.2793  0.6320 -0.7899
  487Sol     OW 4953   0.138   0.946   4.000  0.2358  0.5948  0.2387
  487Sol     HW 4954   0.053   0.954   3.957  0.0718  0.5094  0.5386
  487Sol     HW 4955   0.196   0.911   3.933  0.2141  1.3550 -0.1774
  487Sol     MW 4956   0.135   0.943   3.990  0.0015 -0.7335 -0.0874
  488Sol     OW 4957   2.936   0.607   6.807  0.0517  0.1760 -0.0024
  488Sol     HW 4958   2.860   0.553   6.783 -0.0771 -0.1510  1.1144
  488Sol     HW 4959   2.996   0.547   6.849 -0.9978  1.2469  3.1835
  488Sol     MW 4960   2.934   0.597   6.808 -0.0652  0.3890  0.5201
  489Sol     OW 4961   1.783   0.537   2.860  0.0860  0.3142  0.4438
  489Sol     HW 4962   1.840   0.507   2.931 -1.1346 -0.7092  1.0289
  489Sol     HW 4963   1.708   0.478   2.864 -0.1018  0.3818 -1.5731
  489Sol     MW 4964   1.781   0.529   2.867 -0.2113 -0.5882 -0.1348
  490Sol     OW 4965   1.968   2.358   5.096  0.1545 -0.4466 -0.0434
  490Sol     HW 4966   1.884   2.360   5.141  0.2694  0.9440  0.1238
  490Sol     HW 4967   1.993   2.450   5.086  2.6099 -0.8711  1.6828
  490Sol     MW 4968   1.963   2.366   5.099  0.4875 -0.1506  0.1033
  491Sol     OW 4969   2.103   1.346   7.763 -0.1186  0.2537 -0.2148
  491Sol     HW 4970   2.147   1.422   7.726 -0.7369  1.2133  0.9796
  491Sol     HW 4971   2.027   1.332   7.706 -0.3512  0.9247 -0.0709
  491Sol     MW 4972   2.100   1.352   7.754 -0.0353 -0.4700  0.2113
  492Sol     OW 4973   2.524   0.630   2.710 -0.5607 -0.3008 -0.0286
  492Sol     HW 4974   2.576   0.679   2.773 -1.6828 -1.3909  1.7777
  492Sol     HW 4975   2.513   0.544   2.750  0.4614 -1.7241 -2.6481
  492Sol     MW 4976   2.528   0.626   2.719  0.2046 -0.2866  0.0243
  493Sol     OW 4977   1.763   2.250   2.632 -0.1020  0.2798  0.1808
  493Sol     HW 4978   1.840   2.192   2.634 -0.0282  0.3850  0.3921
  493Sol     HW 4979   1.709   2.215   2.562 -0.1152 -0.1231  0.3921
  493Sol     MW 4980   1.765   2.242   2.626 -0.4507 -0.8263 -0.3573
  494Sol     OW 4981   3.171   0.263   4.217 -0.0373  0.7972  0.7593
  494Sol     HW 4982   3.205   0.346   4.182  1.0153 -0.1527 -0.5677
  494Sol     HW 4983   3.117   0.228   4.146  0.5831 -0.2538  0.7901
  494Sol     MW 4984   3.170   0.267   4.207 -0.2846  0.3306 -0.1816
  495Sol     OW 4985   1.948   3.274   3.447 -0.4663  0.4589  0.6391
  495Sol     HW 4986   1.941   3.266   3.542  2.0330 -0.5523  0.7613
  495Sol     HW 4987   1.962   3.185   3.416  0.7695  1.0248 -0.4800
  495Sol     MW 4988   1.949   3.266   3.453  0.1571 -0.0141  0.2270
  496Sol     OW 4989   1.420   2.192   6.807  0.0495  0.1492  0.0837
  496Sol     HW 4990   1.499   2.147   6.777  0.3395  0.8268 -0.1917
  496Sol     HW 4991   1.371   2.210   6.727  0.0925  0.6097  0.1617
  496Sol     MW 4992   1.423   2.190   6.797 -0.0624 -0.0340  0.0486
  497Sol     OW 4993   0.167   1.216   9.781 -0.2068 -0.1623  0.0188
  497Sol     HW 4994   0.139   1.188   9.868 -2.0488  1.0301 -0.1680
  497Sol     HW 4995   0.112   1.166   9.721 -1.3388  1.4819 -0.3674
  497Sol     MW 4996   0.159   1.209   9.783 -0.3422 -0.0613 -0.4636
  498Sol     OW 4997   1.051   1.535   1.913 -0.0050  0.2634  0.0983
  498Sol     HW 4998   0.998   1.515   1.836 -0.3814 -0.5750  0.5720
  498Sol     HW 4999   1.052   1.453   1.963  2.8270 -0.1723 -0.5563
  498Sol     MW 5000   1.047   1.526   1.911  0.0715  0.1478  0.4112
  499Sol     OW 5001   2.378   1.427   9.475 -0.4652 -0.1897 -0.4709
  499Sol     HW 5002   2.333   1.480   9.542  0.4776  1.3021 -0.9807
  499Sol     HW 5003   2.435   1.490   9.431 -0.3205 -1.3884 -1.9941
  499Sol     MW 5004   2.379   1.438   9.477  0.0782 -0.2555  0.1541
  500Sol     OW 5005   1.786   0.141   7.746  0.1384  0.1977  0.2753
  500Sol     HW 5006   1.849   0.077   7.779  0.4834  0.5092  0.2295
  500Sol     HW 5007   1.780   0.124   7.652  0.6135  0.5634  0.1792
  500Sol     MW 5008   1.791   0.134   7.741  0.0175 -0.1389  0.0556
  501Sol     OW 5009   1.414   2.152   4.822  0.0820  0.0934 -0.0171
  501Sol     HW 5010   1.326   2.167   4.785  0.2438  0.8263 -0.1195
  501Sol     HW 5011   1.403   2.076   4.878 -0.1453 -1.1307 -1.6669
  501Sol     MW 5012   1.405   2.147   4.823  0.2590 -0.2096 -0.1146
  502Sol     OW 5013   2.595   3.155   5.817  0.0683 -0.2793 -0.4792
  502Sol     HW 5014   2.604   3.228   5.878 -0.8096  0.1028 -0.8035
  502Sol     HW 5015   2.600   3.196   5.730  0.6467 -0.7361 -0.6614
  502Sol     MW 5016   2.596   3.165   5.814 -0.7025 -0.3636  0.3702
  503Sol     OW 5017   2.060   1.324   5.329 -0.0033  0.5151 -0.1294
  503Sol     HW 5018   2.152   1.309   5.351 -0.4733 -3.3490 -0.5332
  503Sol     HW 5019   2.010   1.280   5.398 -1.5565  1.1843 -0.7881
  503Sol     MW 5020   2.064   1.319   5.337 -0.2883 -0.6449 -0.0792
  504Sol     OW 5021   2.356   3.328   3.731 -0.1904  0.1645 -0.2417
  504Sol     HW 5022   2.348   3.369   3.645  1.4614 -0.7109 -0.8244
  504Sol     HW 5023   2.270   3.342   3.772 -0.7638  1.1872 -1.7512
  504Sol     MW 5024   2.348   3.332   3.727 -0.4235 -0.0382 -0.2643
  505Sol     OW 5025   1.058   0.801   8.781  0.2136  0.3634  0.5150
  505Sol     HW 5026   1.136   0.778   8.731 -0.4980 -1.5998  0.2684
  505Sol     HW 5027   1.006   0.855   8.721  0.4808  0.0335 -0.0150
  505Sol     MW 5028   1.060   0.804   8.771  0.4458  0.2215  0.5072
  506Sol     OW 5029   3.071   2.320   1.425  0.7816 -0.2578  0.1524
  506Sol     HW 5030   3.111   2.273   1.352 -0.3069  1.5810 -1.6561
  506Sol     HW 5031   3.115   2.404   1.427  1.1501 -0.4734  1.9628
  506Sol     MW 5032   3.079   2.323   1.419 -0.6849  0.6210 -0.6932
  507Sol     OW 5033   0.670   1.413   1.938 -0.1267 -0.4788  0.2436
  507Sol     HW 5034   0.614   1.358   1.883 -1.1589 -0.4803  1.2773
  507Sol     HW 5035   0.698   1.483   1.880 -0.1247 -1.2100 -0.6482
  507Sol     MW 5036   0.667   1.415   1.928 -0.3321  0.4607 -0.1958
  508Sol     OW 5037   2.374   0.303   6.357  0.1996  0.0558  0.2272
  508Sol     HW 5038   2.341   0.344   6.277 -1.2389 -1.3054  0.1032
  508Sol     HW 5039   2.356   0.367   6.426  0.0578  0.5884 -0.3051
  508Sol     MW 5040   2.369   0.313   6.356  0.0796  0.7389  0.0290
  509Sol     OW 5041   0.084   2.170   7.625  0.0098 -0.4627  0.4584
  509Sol     HW 5042   0.085   2.170   7.721 -1.1464 -1.8536  0.4935
  509Sol     HW 5043   0.019   2.237   7.602  0.7297  0.2946  0.6371
  509Sol     MW 5044   0.078   2.176   7.632 -0.6144 -0.2464  0.1277
  510Sol     OW 5045   0.973   1.267   1.701 -0.1251 -0.2637 -0.1784
  510Sol     HW 5046   0.922   1.202   1.651 -1.3045  0.9444 -0.5749
  510Sol     HW 5047   1.042   1.294   1.641  0.7486 -1.5933  0.2048
  510Sol     MW 5048   0.974   1.263   1.691  0.5676 -0.2778 -0.0556
  511Sol     OW 5049   1.387   3.284   5.521 -0.5381  0.1892 -0.1217
  511Sol     HW 5050   1.372   3.210   5.579  0.8583  0.4309  0.5815
  511Sol     HW 5051   1.429   3.247   5.444 -1.0467  0.0657 -0.3373
  511Sol     MW 5052   1.390   3.274   5.519  0.4939 -0.6498 -0.3013
  512Sol     OW 5053   0.354   1.507   5.402  0.6666 -0.6846 -0.3469
  512Sol     HW 5054   0.336   1.601   5.407 -1.9446 -1.1642  0.0724
  512Sol     HW 5055   0.382   1.484   5.491 -2.1723 -0.9082  0.5566
  512Sol     MW 5056   0.355   1.513   5.410  0.0680  0.6459  0.1321
  513Sol     OW 5057   1.563   2.417   7.371  0.6683  0.0915  0.5239
  513Sol     HW 5058   1.536   2.502   7.407  0.5067 -0.0406  0.7153
  513Sol     HW 5059   1.576   2.361   7.448  0.9015 -0.0192  0.4032
  513Sol     MW 5060   1.562   2.420   7.382 -0.0788 -0.1688  0.3117
  514Sol     OW 5061   0.676   1.860   9.379  0.2223 -0.0051 -0.1818
  514Sol     HW 5062   0.598   1.870   9.434  0.2562  0.7039 -0.2538
  514Sol     HW 5063   0.724   1.942   9.390  1.4316 -0.8123  0.5741
  514Sol     MW 5064   0.673   1.869   9.385  0.3380  0.0341 -0.3021
  515Sol     OW 5065   3.107   2.235   5.883  0.4371 -0.0638  0.0667
  515Sol     HW 5066   3.078   2.155   5.838  1.1737 -0.0665 -0.4134
  515Sol     HW 5067   3.193   2.213   5.919  0.6534  0.5186 -0.0880
  515Sol     MW 5068   3.112   2.225   5.882 -0.4792 -0.1449  0.2829
  516Sol     OW 5069   0.589   0.826   4.600 -0.0876  0.0748  0.6414
  516Sol     HW 5070   0.660   0.819   4.536  0.1539 -2.8872  1.1185
  516Sol     HW 5071   0.514   0.857   4.550  0.5488 -0.5384 -0.7222
  516Sol     MW 5072   0.588   0.828   4.590  0.4274 -0.5217  0.2215
  517Sol     OW 5073   2.512   0.483   8.387  0.2902 -0.2703 -0.3176
  517Sol     HW 5074   2.602   0.510   8.368  0.5333  0.2470  1.4570
  517Sol     HW 5075   2.466   0.493   8.304  1.8668 -0.5412 -1.2479
  517Sol     MW 5076   2.516   0.486   8.378  0.3287 -0.0939 -0.1417
  518Sol     OW 5077   2.872   0.357   1.890 -0.0897 -0.3088  0.1365
  518Sol     HW 5078   2.964   0.355   1.867 -0.4215  1.0117 -1.4342
  518Sol     HW 5079   2.871   0.388   1.981  0.9395  1.7096 -0.5065
  518Sol     MW 5080   2.880   0.360   1.897  0.1019  0.1142 -0.2557
  519Sol     OW 5081   1.888   1.041   2.887  0.6615 -0.3296 -0.1411
  519Sol     HW 5082   1.901   0.955   2.847 -0.5254 -0.2408 -0.7554
  519Sol     HW 5083   1.863   1.097   2.814  1.8897  0.6533  0.1872
  519Sol     MW 5084   1.887   1.038   2.877  0.5143 -1.0097  0.3216
  520Sol     OW 5085   2.584   0.559   5.252  0.1350 -0.3407  0.1831
  520Sol     HW 5086   2.655   0.549   5.188  1.5849  0.7512  1.5928
  520Sol     HW 5087   2.601   0.492   5.318 -0.7176 -0.7175  0.0330
  520Sol     MW 5088   2.592   0.552   5.252  0.6228  0.1166  0.8255
  521Sol     OW 5089   0.724   0.292   9.051  0.4042  0.3214  0.3283
  521Sol     HW 5090   0.709   0.288   8.957 -0.5368  1.1207  0.4414
  521Sol     HW 5091   0.638   0.306   9.089  0.9503  1.2993  1.2290
  521Sol     MW 5092   0.715   0.293   9.046 -0.2187 -0.1139  0.5921
  522Sol     OW 5093   3.114   0.318   9.535  0.0873  0.3396 -0.0170
  522Sol     HW 5094   3.049   0.251   9.518 -0.2757  1.4139 -3.1302
  522Sol     HW 5095   3.198   0.272   9.532 -0.0445  0.2296 -3.7286
  522Sol     MW 5096   3.116   0.308   9.534  0.0966  0.1315 -1.2093
  523Sol     OW 5097   2.499   2.603   8.839  0.4565 -0.2287 -0.4364
  523Sol     HW 5098   2.431   2.635   8.779 -1.5633 -0.3776  1.6821
  523Sol     HW 5099   2.552   2.680   8.859 -0.6513  0.4683 -0.1339
  523Sol     MW 5100   2.498   2.613   8.836  0.0273  0.3284  0.5054
  524Sol     OW 5101   2.713   2.307   7.846 -0.0911  0.8525 -0.5708
  524Sol     HW 5102   2.710   2.402   7.845  0.6374  0.8854 -0.0884
  524Sol     HW 5103   2.761   2.284   7.766  1.4340  0.9707  0.2975
  524Sol     MW 5104   2.717   2.313   7.838 -0.2800 -0.0602  0.2881
  525Sol     OW 5105   0.624   0.457   6.189 -0.4745  0.3594 -0.0593
  525Sol     HW 5106   0.688   0.404   6.142 -0.8268 -0.5896  0.5162
  525Sol     HW 5107   0.650   0.548   6.171  1.1789 -0.0080  0.3823
  525Sol     MW 5108   0.632   0.461   6.183  0.0412 -0.1577 -0.0573
  526Sol     OW 5109   1.660   2.968   4.315 -0.0026  0.3866 -0.6472
  526Sol     HW 5110   1.611   2.896   4.353 -2.0199  1.5813 -0.9060
  526Sol     HW 5111   1.627   2.974   4.225  4.3885 -2.1389 -2.5443
  526Sol     MW 5112   1.652   2.962   4.310 -0.2362  0.4230  0.1385
  527Sol     OW 5113   1.036   0.531   6.902  0.1758  0.7217  0.1110
  527Sol     HW 5114   1.069   0.471   6.834 -0.5813  0.5624 -0.1218
  527Sol     HW 5115   1.103   0.599   6.908 -0.0350  1.0612 -1.2302
  527Sol     MW 5116   1.045   0.531   6.896 -0.9695 -0.7402  0.1923
  528Sol     OW 5117   0.844   2.297   6.726 -0.1238 -0.5781  0.0591
  528Sol     HW 5118   0.896   2.253   6.659 -0.5004  1.5387 -1.6830
  528Sol     HW 5119   0.759   2.312   6.684  0.6197  3.5685 -0.2047
  528Sol     MW 5120   0.841   2.295   6.716  0.1425 -0.2651 -0.0102
  529Sol     OW 5121   1.244   0.757   3.426 -0.7510 -0.5311 -0.5720
  529Sol     HW 5122   1.220   0.841   3.465  1.8247  0.3442 -0.7471
  529Sol     HW 5123   1.168   0.732   3.374 -3.0016 -0.1216  2.3464
  529Sol     MW 5124   1.235   0.762   3.425  0.3456  0.5171 -0.2529
  530Sol     OW 5125   1.615   1.603   6.962  0.0642 -0.3794  0.1899
  530Sol     HW 5126   1.613   1.573   7.053  2.4804  0.0286  0.4174
  530Sol     HW 5127   1.693   1.561   6.925  0.6462  1.6245 -0.9018
  530Sol     MW 5128   1.621   1.596   6.967 -0.2809  0.2505  1.0006
  531Sol     OW 5129   1.212   3.092   9.800  0.3055 -0.8244  0.5081
  531Sol     HW 5130   1.169   3.008   9.812  0.8516 -1.5009 -1.9051
  531Sol     HW 5131   1.143   3.151   9.772  0.4249 -1.2045 -0.6076
  531Sol     MW 5132   1.202   3.090   9.799  0.1372 -0.2347  0.3759
  532Sol     OW 5133   0.737   3.103   4.249 -0.1213 -0.1617 -0.2726
  532Sol     HW 5134   0.731   3.036   4.317  1.6924  0.3933  0.4830
  532Sol     HW 5135   0.681   3.174   4.280  2.4107  1.0215  1.8254
  532Sol     MW 5136   0.732   3.103   4.258  0.1615  0.1553  0.0757
  533Sol     OW 5137   1.271   2.235   7.874 -0.5573  0.3201  0.3501
  533Sol     HW 5138   1.204   2.249   7.807 -0.5816  0.7407  0.4617
  533Sol     HW 5139   1.306   2.322   7.891 -0.6108  0.2279  0.9480
  533Sol     MW 5140   1.268   2.244   7.870  0.1121 -0.2913  0.5559
  534Sol     OW 5141   0.114   0.173   6.948  0.1292  0.4924 -0.2364
  534Sol     HW 5142   0.102   0.096   7.004  3.0403 -0.5645 -0.9743
  534Sol     HW 5143   0.158   0.237   7.005 -0.0265  0.6740 -0.3225
  534Sol     MW 5144   0.117   0.172   6.958  0.1629  0.1668  0.8788
  535Sol     OW 5145   1.373   3.195   4.504 -0.3454  0.9260 -0.5464
  535Sol     HW 5146   1.368   3.104   4.532 -1.6621  1.3242  0.5470
  535Sol     HW 5147   1.467   3.211   4.493 -0.1469 -0.7685 -1.4802
  535Sol     MW 5148   1.381   3.188   4.506 -0.6911  0.0105  0.2907
  536Sol     OW 5149   2.249   3.217   7.822  0.6745  0.4380 -0.3394
  536Sol     HW 5150   2.247   3.299   7.870  2.6908 -1.0554  2.3901
  536Sol     HW 5151   2.288   3.239   7.737  1.0804  2.2786  0.3207
  536Sol     MW 5152   2.252   3.226   7.818 -0.0218  0.3640  0.0253
  537Sol     OW 5153   2.349   1.176   1.895  0.0354 -0.0946 -0.0820
  537Sol     HW 5154   2.311   1.137   1.816 -0.6074 -0.1995  0.2790
  537Sol     HW 5155   2.442   1.185   1.874 -0.3921  1.4159 -1.4880
  537Sol     MW 5156   2.354   1.173   1.886 -0.1771 -0.2921 -0.3686
  538Sol     OW 5157   1.403   1.145   7.430  0.1878  0.3269  0.5479
  538Sol     HW 5158   1.483   1.093   7.440 -1.1019 -1.8407 -0.0187
  538Sol     HW 5159   1.425   1.208   7.362  1.5058 -0.0556  0.5874
  538Sol     MW 5160   1.412   1.146   7.425  0.5315  0.1590  0.0747
  539Sol     OW 5161   0.069   1.438   2.725  0.0864  0.1123 -0.2052
  539Sol     HW 5162   0.089   1.488   2.804 -3.1297  1.3248 -0.0882
  539Sol     HW 5163   0.134   1.467   2.661  0.3312  1.9570  0.8432
  539Sol     MW 5164   0.077   1.445   2.727 -0.1241 -0.0767 -0.2886
  540Sol     OW 5165   1.767   2.971   7.862  0.0315  0.1936  0.9861
  540Sol     HW 5166   1.853   2.941   7.892 -1.4639 -1.0715  4.2021
  540Sol     HW 5167   1.707   2.945   7.931 -2.9428  1.2838 -1.0924
  540Sol     MW 5168   1.769   2.966   7.871  0.3784  0.2686 -0.3241
  541Sol     OW 5169   1.751   0.152   2.644  0.2383 -0.1346  0.1234
  541Sol     HW 5170   1.806   0.225   2.618  1.3706 -1.2937 -0.8486
  541Sol     HW 5171   1.813   0.084   2.672 -0.7528 -1.0272  0.2068
  541Sol     MW 5172   1.761   0.152   2.645 -0.0480 -0.1342 -0.4852
  542Sol     OW 5173   0.340   1.389   3.600 -0.1653  0.3983  0.1356
  542Sol     HW 5174   0.316   1.355   3.513  0.3378 -0.4522  0.3204
  542Sol     HW 5175   0.422   1.345   3.620  0.2338  1.3541  0.6180
  542Sol     MW 5176   0.345   1.382   3.594 -0.5609 -0.8660  0.3713
  543Sol     OW 5177   2.658   1.712   8.823  0.1871 -0.3566 -0.3031
  543Sol     HW 5178   2.615   1.643   8.873 -0.6746 -1.0275 -1.9454
  543Sol     HW 5179   2.594   1.783   8.819  0.8245  0.2961  0.8186
  543Sol     MW 5180   2.649   1.712   8.827 -0.3306 -0.4203 -0.4162
  544Sol     OW 5181   2.755   3.225   9.872 -0.5525 -0.7863 -0.1628
  544Sol     HW 5182   2.766   3.285   9.945  1.8709  2.2889 -2.8905
  544Sol     HW 5183   2.804   3.146   9.898 -0.0019  0.1323  1.6539
  544Sol     MW 5184   2.761   3.223   9.881  0.4678 -0.1429 -0.2169
  545Sol     OW 5185   3.002   3.368   4.621 -0.8463 -0.0990 -0.0356
  545Sol     HW 5186   2.929   3.306   4.623 -0.6315 -0.3453  0.2347
  545Sol     HW 5187   3.063   3.336   4.688 -1.6262  1.4906  1.4832
  545Sol     MW 5188   3.001   3.360   4.627 -0.7088  0.1043  0.2672
  546Sol     OW 5189   1.766   3.195   7.702  0.3914  0.1962  0.1607
  546Sol     HW 5190   1.702   3.176   7.633  0.2683  2.0578 -0.2620
  546Sol     HW 5191   1.747   3.131   7.770 -1.5316  0.3193 -0.2207
  546Sol     MW 5192   1.759   3.188   7.702 -0.2363 -0.6222 -0.1281
  547Sol     OW 5193   2.835   1.531   3.018  0.7175 -0.2023 -0.2987
  547Sol     HW 5194   2.842   1.625   3.004  4.4468 -0.7237 -2.6472
  547Sol     HW 5195   2.756   1.505   2.971  1.2298  1.3658 -2.0694
  547Sol     MW 5196   2.829   1.537   3.013  0.0392  0.1196  0.3134
  548Sol     OW 5197   3.316   1.427   6.083  0.0587 -0.0156  0.4241
  548Sol     HW 5198   3.379   1.496   6.060  0.3270 -0.3139  0.2590
  548Sol     HW 5199   3.257   1.469   6.146  1.3869 -0.1930  1.8176
  548Sol     MW 5200   3.317   1.437   6.087  0.2954 -0.3808 -0.3871
  549Sol     OW 5201   2.092   1.863   1.570  0.1253 -1.3453 -0.0913
  549Sol     HW 5202   2.055   1.832   1.653 -0.1191  0.5837  0.5423
  549Sol     HW 5203   2.032   1.930   1.540  2.1777  0.6198  0.0889
  549Sol     MW 5204   2.084   1.866   1.575 -0.4639  0.4744 -0.4195
  550Sol     OW 5205   0.725   2.713   8.887 -0.3409 -0.1020  0.3283
  550Sol     HW 5206   0.678   2.644   8.933 -0.4096 -0.6779 -0.5879
  550Sol     HW 5207   0.723   2.686   8.795  1.5624 -0.0128  0.2401
  550Sol     MW 5208   0.721   2.705   8.883  0.7662 -0.1373  0.4105
  551Sol     OW 5209   0.731   1.289   2.312  0.6912 -0.1640  0.7768
  551Sol     HW 5210   0.721   1.383   2.324 -0.3542 -0.1605 -0.0870
  551Sol     HW 5211   0.678   1.250   2.380 -0.9277 -0.1243 -0.4349
  551Sol     MW 5212   0.726   1.294   2.319 -0.2704  0.5820 -0.5296
  552Sol     OW 5213   2.153   0.276   4.085 -0.2587  0.4270 -0.2412
  552Sol     HW 5214   2.217   0.252   4.151 -2.4566  1.3392  2.3147
  552Sol     HW 5215   2.198   0.340   4.030  1.7534 -0.6974  0.0512
  552Sol     MW 5216   2.163   0.280   4.086 -0.2583  0.0122 -0.4172
  553Sol     OW 5217   2.223   0.553   3.754 -0.1489  0.2822 -0.4657
  553Sol     HW 5218   2.208   0.544   3.660 -2.1768  0.8519 -0.2221
  553Sol     HW 5219   2.135   0.554   3.793  0.5836  2.0839  1.2343
  553Sol     MW 5220   2.214   0.552   3.749 -0.3033 -0.1813 -0.7200
  554Sol     OW 5221   0.744   2.386   5.822  0.2704  0.3699 -0.4067
  554Sol     HW 5222   0.789   2.345   5.895  0.1947 -1.3683 -1.3119
  554Sol     HW 5223   0.813   2.431   5.774  0.2275  2.0368  1.0397
  554Sol     MW 5224   0.754   2.387   5.824  0.1070  0.2116 -0.1797
  555Sol     OW 5225   2.809   1.392   4.224  0.6626  0.4790  0.4650
  555Sol     HW 5226   2.749   1.325   4.257  0.0060 -0.0423 -1.7467
  555Sol     HW 5227   2.893   1.347   4.217  0.4847  0.2096  0.0743
  555Sol     MW 5228   2.811   1.382   4.226  0.3800 -0.2801  0.1287
  556Sol     OW 5229   0.505   2.734   3.804 -0.1157  0.2199  0.2025
  556Sol     HW 5230   0.422   2.690   3.789 -0.5113  0.1088  2.6734
  556Sol     HW 5231   0.520   2.729   3.898  1.8323  1.7844  0.0287
  556Sol     MW 5232   0.499   2.730   3.811  0.1260  0.6258 -0.2091
  557Sol     OW 5233   1.060   1.074   9.173  0.0710  0.7794 -0.4614
  557Sol     HW 5234   1.078   1.163   9.144  0.5696  0.5016 -1.0263
  557Sol     HW 5235   1.146   1.034   9.183 -0.1571  0.2178 -0.6796
  557Sol     MW 5236   1.069   1.078   9.171 -0.5588  0.6870  0.5153
  558Sol     OW 5237   2.705   3.105   6.697 -0.1868 -0.2124 -0.4445
  558Sol     HW 5238   2.787   3.099   6.747 -0.2439 -1.4647 -0.4763
  558Sol     HW 5239   2.732   3.135   6.611 -0.1526  2.5225  0.4769
  558Sol     MW 5240   2.715   3.107   6.694  0.5667 -0.4893 -0.3766
  559Sol     OW 5241   0.904   0.637   9.712  0.1973  0.3034 -0.2393
  559Sol     HW 5242   0.926   0.698   9.782 -1.4770 -0.1090  0.6765
  559Sol     HW 5243   0.851   0.688   9.651  0.3029  0.2383 -0.3857
  559Sol     MW 5244   0.901   0.647   9.713 -0.3208  0.1978  0.2768
  560Sol     OW 5245   1.764   3.274   8.349 -0.9863 -0.0548 -0.1509
  560Sol     HW 5246   1.707   3.197   8.348 -0.6629 -0.2939 -0.4521
  560Sol     HW 5247   1.741   3.322   8.269 -1.7016  0.5460  0.4056
  560Sol     MW 5248   1.757   3.271   8.342 -0.2678  0.1145 -0.3879
  561Sol     OW 5249   3.034   2.504   5.761  0.4749  0.3070  0.2401
  561Sol     HW 5250   3.061   2.418   5.795 -1.5811 -1.4476 -2.4143
  561Sol     HW 5251   2.981   2.542   5.831 -0.1062 -1.3628  0.7163
  561Sol     MW 5252   3.032   2.500   5.770  0.0952 -0.0890  0.3152
  562Sol     OW 5253   1.500   2.657   7.817 -0.9435 -0.0869  0.0644
  562Sol     HW 5254   1.563   2.690   7.753 -0.6463 -0.8792 -0.0512
  562Sol     HW 5255   1.419   2.703   7.796 -0.3295  1.2185  0.4472
  562Sol     MW 5256   1.499   2.664   7.809 -0.0332  0.3150 -0.1764
  563Sol     OW 5257   1.668   2.238   6.136 -0.5125  0.5153  0.5132
  563Sol     HW 5258   1.738   2.173   6.133 -2.6948 -1.9072 -1.5508
  563Sol     HW 5259   1.710   2.321   6.118  1.9431 -0.7649  0.1990
  563Sol     MW 5260   1.678   2.240   6.134 -0.1147 -0.0279  1.2702
  564Sol     OW 5261   2.543   0.193   5.899  0.6065  0.1759 -0.5221
  564Sol     HW 5262   2.620   0.245   5.920  1.3754  0.5738 -4.0199
  564Sol     HW 5263   2.570   0.102   5.912  0.5163  0.4185  1.6261
  564Sol     MW 5264   2.552   0.189   5.902 -0.1392 -0.4739  0.3559
  565Sol     OW 5265   0.105   2.626   5.511  0.1943 -0.0323 -0.2583
  565Sol     HW 5266   0.102   2.689   5.439 -0.6896 -1.6238 -1.6461
  565Sol     HW 5267   0.017   2.627   5.549  0.5372  0.4907  0.5489
  565Sol     MW 5268   0.097   2.631   5.508 -0.2572 -0.0841 -0.1489
  566Sol     OW 5269   0.984   1.268   6.523  0.1958  0.8464 -0.0606
  566Sol     HW 5270   1.070   1.275   6.562  1.6417  1.6021 -3.2162
  566Sol     HW 5271   0.965   1.174   6.523  1.3487  0.6072  0.0003
  566Sol     MW 5272   0.990   1.260   6.526  0.1814 -0.4330 -0.1153
  567Sol     OW 5273   0.294   2.955   2.415  0.6025  0.0365 -0.5293
  567Sol     HW 5274   0.203   2.938   2.439  0.7407 -1.3282 -0.9386
  567Sol     HW 5275   0.338   2.974   2.498  0.0501  0.1884 -0.2714
  567Sol     MW 5276   0.290   2.955   2.424 -0.1603  0.4450 -0.4517
  568Sol     OW 5277   1.177   2.433   5.151  0.3853  0.1042 -0.6529
  568Sol     HW 5278   1.109   2.477   5.202  0.2350  0.5402 -1.2232
  568Sol     HW 5279   1.228   2.384   5.216  0.2509  0.7276 -0.0683
  568Sol     MW 5280   1.176   2.433   5.161 -0.3770 -0.2069  0.2697
  569Sol     OW 5281   0.418   2.283   3.882 -0.4155  0.5731 -0.7122
  569Sol     HW 5282   0.485   2.291   3.950 -0.4975  0.5665 -0.6310
  569Sol     HW 5283   0.431   2.360   3.827 -0.7416  0.8948 -0.3420
  569Sol     MW 5284   0.425   2.290   3.883  0.8135 -0.1405 -0.0619
  570Sol     OW 5285   2.449   2.619   9.128  0.1181  0.0935  0.0178
  570Sol     HW 5286   2.522   2.670   9.163  1.3072 -0.6795 -1.2754
  570Sol     HW 5287   2.469   2.609   9.035 -1.5366 -0.3114 -0.3171
  570Sol     MW 5288   2.457   2.623   9.123 -1.2432  0.3617 -0.7957
  571Sol     OW 5289   1.440   0.880   6.957 -0.4286 -0.1435 -0.1830
  571Sol     HW 5290   1.515   0.923   6.916 -0.3210 -0.0860  0.0717
  571Sol     HW 5291   1.365   0.909   6.905 -0.4188  0.7680  0.2855
  571Sol     MW 5292   1.440   0.887   6.949 -0.3340 -0.3021  0.1594
  572Sol     OW 5293   2.377   2.788   7.491  0.0145  0.4048 -0.2808
  572Sol     HW 5294   2.330   2.872   7.482 -0.7228 -0.2051 -2.6550
  572Sol     HW 5295   2.463   2.805   7.453  0.0569  0.2572 -0.2479
  572Sol     MW 5296   2.380   2.797   7.487  0.2436 -0.0508  0.5048
  573Sol     OW 5297   0.149   0.653   6.045  0.1443 -0.2597 -0.3598
  573Sol     HW 5298   0.186   0.599   6.115  0.1433 -0.3860 -0.4562
  573Sol     HW 5299   0.117   0.732   6.089  0.0535 -0.3836 -0.2047
  573Sol     MW 5300   0.150   0.655   6.055 -0.2706  0.1658  0.3682
  574Sol     OW 5301   0.335   1.500   6.857  0.0775  0.4846 -0.6494
  574Sol     HW 5302   0.329   1.463   6.945 -0.1265  0.5898 -0.6202
  574Sol     HW 5303   0.275   1.574   6.857  2.8953  2.8685  0.3361
  574Sol     MW 5304   0.329   1.503   6.864  0.2459  0.0660 -0.4830
  575Sol     OW 5305   3.021   2.838   5.054 -0.4305  0.1740  0.1956
  575Sol     HW 5306   3.010   2.888   4.973  2.1714  0.5658  0.0607
  575Sol     HW 5307   3.078   2.892   5.108 -1.8466 -0.2611  2.1848
  575Sol     MW 5308   3.025   2.847   5.051  0.2314 -0.0699  0.1972
  576Sol     OW 5309   0.810   2.196   8.915  0.5104  0.3220 -0.6118
  576Sol     HW 5310   0.835   2.137   8.986 -1.1254  0.0885 -0.2248
  576Sol     HW 5311   0.723   2.167   8.888  0.4199  1.4592 -1.5943
  576Sol     MW 5312   0.805   2.188   8.919  0.5045  0.7115  0.4521
  577Sol     OW 5313   0.751   1.581   7.450 -0.0240  0.0159 -0.0428
  577Sol     HW 5314   0.814   1.636   7.498 -0.4698  2.4710 -2.1789
  577Sol     HW 5315   0.792   1.494   7.448  1.5337  0.6702  1.8427
  577Sol     MW 5316   0.760   1.578   7.454  0.0351 -0.4028  0.0140
  578Sol     OW 5317   1.963   1.611   3.479 -0.3612 -0.2833  0.4651
  578Sol     HW 5318   1.875   1.646   3.490 -0.0728  0.1552  1.5063
  578Sol     HW 5319   1.950   1.520   3.452 -1.1513 -0.5605  1.7311
  578Sol     MW 5320   1.954   1.606   3.478  0.3150 -0.3488 -0.5268
  579Sol     OW 5321   2.937   1.708   3.830  0.0811  0.0790  0.0959
  579Sol     HW 5322   2.950   1.642   3.897 -1.8021  0.8082  1.2054
  579Sol     HW 5323   2.845   1.699   3.804  0.6252  0.1956 -1.9659
  579Sol     MW 5324   2.930   1.702   3.833 -0.0920 -0.7687  0.1207
  580Sol     OW 5325   1.610   2.297   9.048  0.9064 -0.4879 -0.9801
  580Sol     HW 5326   1.560   2.376   9.070  3.0538  0.3362  1.1719
  580Sol     HW 5327   1.649   2.316   8.963  2.1524  1.1888 -0.0689
  580Sol     MW 5328   1.609   2.306   9.043  0.7527  0.1019  0.4925
  581Sol     OW 5329   0.083   1.527   5.629  0.1501  0.6555 -0.0222
  581Sol     HW 5330   0.014   1.592   5.616  0.8190  0.9877 -2.1527
  581Sol     HW 5331   0.084   1.477   5.548  0.7366 -0.9799  0.9781
  581Sol     MW 5332   0.077   1.529   5.621  0.5470 -0.1378 -0.1820
  582Sol     OW 5333   0.803   0.892   2.894  0.1788 -0.0437  0.5431
  582Sol     HW 5334   0.732   0.861   2.839 -0.0093  0.6495  0.4013
  582Sol     HW 5335   0.844   0.963   2.845  0.4404  0.1237  0.9911
  582Sol     MW 5336   0.801   0.895   2.885 -0.9413 -0.3348  0.2411
  583Sol     OW 5337   0.103   3.136   1.996  0.3355 -0.0588 -0.0579
  583Sol     HW 5338   0.060   3.082   2.062 -1.3449  1.6947  0.3278
  583Sol     HW 5339   0.038   3.144   1.926  1.0522  0.4092 -0.6753
  583Sol     MW 5340   0.093   3.132   1.996 -0.0986 -0.5486 -0.7890
  584Sol     OW 5341   0.200   2.653   3.854 -0.3700 -0.4530  0.2997
  584Sol     HW 5342   0.182   2.559   3.849 -0.3899 -0.4678  0.6530
  584Sol     HW 5343   0.141   2.686   3.922 -1.4971  0.0962 -0.9171
  584Sol     MW 5344   0.193   2.648   3.859  1.0344 -0.1684 -0.4971
  585Sol     OW 5345   2.138   2.263   9.254  0.0772 -0.4136  0.6135
  585Sol     HW 5346   2.169   2.320   9.323  0.8884  2.3979 -1.9558
  585Sol     HW 5347   2.046   2.286   9.243  1.1134  2.7897 -2.4736
  585Sol     MW 5348   2.132   2.270   9.259  0.2353  0.3059 -0.5381
  586Sol     OW 5349   1.841   2.368   2.064  0.2801 -0.1095  0.1750
  586Sol     HW 5350   1.903   2.439   2.043 -0.1811  0.1355 -0.3714
  586Sol     HW 5351   1.805   2.392   2.149  1.3704 -0.5535  0.7779
  586Sol     MW 5352   1.844   2.377   2.069  0.3386  0.3357  0.7683
  587Sol     OW 5353   3.130   0.540   2.153  0.3102  0.3229  0.4655
  587Sol     HW 5354   3.035   0.540   2.153  0.2766 -0.6873  1.9837
  587Sol     HW 5355   3.155   0.581   2.070 -1.4330  0.3947 -0.0401
  587Sol     MW 5356   3.124   0.543   2.146  0.4554 -0.0731  0.3925
  588Sol     OW 5357   1.350   0.399   6.893  0.2339 -0.0605  0.5245
  588Sol     HW 5358   1.440   0.367   6.900  0.1790 -0.7344 -1.4647
  588Sol     HW 5359   1.306   0.335   6.837 -0.8052  1.5630 -0.5775
  588Sol     MW 5360   1.354   0.391   6.888  0.1539  0.1529  0.2112
  589Sol     OW 5361   1.956   0.465   3.336  1.0750  0.1843  0.4791
  589Sol     HW 5362   1.895   0.521   3.384  0.5440  0.4899 -0.5486
  589Sol     HW 5363   1.939   0.377   3.371  0.9239  0.4480  1.0797
  589Sol     MW 5364   1.949   0.462   3.343  0.5171 -0.3553 -0.5285
  590Sol     OW 5365   2.380   2.615   4.790 -0.3060 -0.4189 -0.0187
  590Sol     HW 5366   2.323   2.549   4.750  0.9393 -1.6503  0.1629
  590Sol     HW 5367   2.378   2.595   4.884 -0.7705  0.4792  0.1587
  590Sol     MW 5368   2.375   2.607   4.795 -0.3303 -0.0742  0.0293
  591Sol     OW 5369   3.044   3.122   5.714  0.3296 -0.4348  0.7202
  591Sol     HW 5370   3.138   3.136   5.727  0.1008  1.7399  0.2927
  591Sol     HW 5371   3.006   3.143   5.799 -0.0467  1.8290  0.0143
  591Sol     MW 5372   3.049   3.125   5.723  0.4602 -0.3384  0.3960
  592Sol     OW 5373   2.307   2.044   5.172 -0.2115  0.1511 -0.0860
  592Sol     HW 5374   2.212   2.033   5.173 -0.1901 -0.0984 -0.6400
  592Sol     HW 5375   2.330   2.046   5.079  0.3953 -0.4133  0.0461
  592Sol     MW 5376   2.300   2.043   5.164 -0.1888  0.2619  1.3992
  593Sol     OW 5377   1.322   0.867   8.399 -0.1340 -0.8426  0.1047
  593Sol     HW 5378   1.244   0.850   8.347  0.4512 -0.3396 -0.9437
  593Sol     HW 5379   1.319   0.961   8.416  1.4087 -0.4153 -1.8437
  593Sol     MW 5380   1.315   0.874   8.396  0.1915 -0.2915  0.5845
  594Sol     OW 5381   3.215   1.698   3.554  0.7381 -0.7549  0.3154
  594Sol     HW 5382   3.299   1.695   3.510  1.0012  1.3408  0.6435
  594Sol     HW 5383   3.150   1.695   3.483  1.1464  1.4269 -0.1837
  594Sol     MW 5384   3.216   1.697   3.543  0.3139  0.3887  0.6002
  595Sol     OW 5385   0.483   1.680   2.706 -0.0138  0.1098 -0.0174
  595Sol     HW 5386   0.398   1.721   2.721 -0.0478  0.4951 -1.1707
  595Sol     HW 5387   0.527   1.738   2.643  0.1344 -1.3276 -1.2895
  595Sol     MW 5388   0.479   1.689   2.701  0.4609  0.2762  0.4769
  596Sol     OW 5389   1.787   1.103   3.320  0.4659  0.2406 -0.3759
  596Sol     HW 5390   1.726   1.086   3.391 -1.4402  0.2773 -1.9603
  596Sol     HW 5391   1.837   1.180   3.349 -0.7953  0.7124  0.6012
  596Sol     MW 5392   1.786   1.109   3.329  0.4509 -0.0195 -0.2398
  597Sol     OW 5393   1.441   0.978   1.461 -0.2020 -0.1247  0.6540
  597Sol     HW 5394   1.465   1.033   1.535  0.0850 -1.4430  1.5510
  597Sol     HW 5395   1.346   0.971   1.465 -0.1497 -0.5981  1.2097
  597Sol     MW 5396   1.435   0.982   1.468 -0.1044  0.2156  0.0858
  598Sol     OW 5397   1.826   1.546   7.668 -0.0741  0.0360  0.7281
  598Sol     HW 5398   1.827   1.462   7.622 -0.5293  0.3161  0.2002
  598Sol     HW 5399   1.858   1.609   7.603 -0.9231  0.4672  0.7197
  598Sol     MW 5400   1.829   1.544   7.658  0.2663  0.0773 -0.1449
  599Sol     OW 5401   0.822   1.270   3.565 -0.3141  0.5419 -0.6545
  599Sol     HW 5402   0.858   1.188   3.531 -0.4749  0.1974  0.0041
  599Sol     HW 5403   0.736   1.246   3.598 -0.3117  0.9466 -0.3531
  599Sol     MW 5404   0.818   1.260   3.565 -0.1274  0.2847 -0.2463
  600Sol     OW 5405   0.880   1.768   8.226 -0.1146  0.4200  0.1289
  600Sol     HW 5406   0.975   1.762   8.215 -0.2730  1.3364 -2.1867
  600Sol     HW 5407   0.852   1.831   8.159 -2.2283  1.0043  1.5023
  600Sol     MW 5408   0.886   1.773   8.219  0.0113 -0.5659 -0.2218
  601Sol     OW 5409   1.255   2.412   6.904 -0.5981 -0.0274  0.0237
  601Sol     HW 5410   1.321   2.479   6.927 -0.1477  0.4274 -2.4674
  601Sol     HW 5411   1.307   2.336   6.879 -0.9783  0.3752 -2.0705
  601Sol     MW 5412   1.266   2.411   6.904 -0.5332  0.0750  0.3177
  602Sol     OW 5413   3.116   0.327   6.250 -0.6152  0.6014  0.0465
  602Sol     HW 5414   3.131   0.384   6.325 -1.2994 -0.7289  1.2060
  602Sol     HW 5415   3.037   0.278   6.272  0.6954 -1.7438 -0.3470
  602Sol     MW 5416   3.110   0.328   6.259 -0.0795 -0.6657  0.3546
  603Sol     OW 5417   2.092   3.384   9.928  0.3779  0.2352 -0.4525
  603Sol     HW 5418   2.033   3.379   9.853  1.5462 -0.2801 -1.3408
  603Sol     HW 5419   2.080   3.300   9.974  1.3167 -0.3722 -1.3123
  603Sol     MW 5420   2.085   3.376   9.926  0.4341  0.4790  0.5763
  604Sol     OW 5421   2.362   0.553   3.272  0.0716 -0.1747 -0.2388
  604Sol     HW 5422   2.433   0.615   3.288 -1.4618  1.9302 -1.4018
  604Sol     HW 5423   2.348   0.555   3.178 -1.5727 -0.5148 -0.0226
  604Sol     MW 5424   2.367   0.559   3.265 -0.0130  0.3998  0.5606
  605Sol     OW 5425   1.271   3.366   9.334 -0.4648  0.0826 -0.6419
  605Sol     HW 5426   1.206   3.317   9.285 -0.5878  0.5692 -0.9731
  605Sol     HW 5427   1.229   3.386   9.417 -0.8303  0.6041 -0.9489
  605Sol     MW 5428   1.262   3.364   9.337 -0.0835 -0.4422 -0.2792
  606Sol     OW 5429   0.614   0.733   5.539 -0.6529 -0.0915  0.1916
  606Sol     HW 5430   0.576   0.792   5.605 -0.6353 -0.9311  0.9694
  606Sol     HW 5431   0.591   0.645   5.570  0.3248 -0.5385 -0.3334
  606Sol     MW 5432   0.608   0.730   5.548  0.2634  0.5251  0.3265
  607Sol     OW 5433   2.663   1.518   5.119  0.5583  0.2675  0.1283
  607Sol     HW 5434   2.591   1.579   5.108 -1.1418 -1.5564  0.7761
  607Sol     HW 5435   2.653   1.485   5.208  1.2568 -1.1499 -0.2973
  607Sol     MW 5436   2.656   1.520   5.126  0.1816  0.0164 -0.2945
  608Sol     OW 5437   2.774   2.788   5.518 -0.8876  0.4338  0.0797
  608Sol     HW 5438   2.788   2.693   5.510 -2.4089  0.0997  1.1726
  608Sol     HW 5439   2.724   2.811   5.440 -0.2345  0.3972 -0.3521
  608Sol     MW 5440   2.771   2.781   5.510  0.3062 -0.6466  0.5353
  609Sol     OW 5441   3.125   1.985   6.443 -0.1927 -0.0359 -0.4264
  609Sol     HW 5442   3.196   1.952   6.499 -0.2103 -1.4121 -1.1903
  609Sol     HW 5443   3.056   2.012   6.504  0.2654 -0.3768  0.2501
  609Sol     MW 5444   3.126   1.985   6.453 -0.0288  0.1090  0.1424
  610Sol     OW 5445   2.594   2.566   4.486 -0.0794  0.2846 -0.1816
  610Sol     HW 5446   2.588   2.596   4.395 -0.6225 -1.1892 -0.6367
  610Sol     HW 5447   2.573   2.473   4.482  0.7985  0.0182  1.3367
  610Sol     MW 5448   2.591   2.560   4.477  0.0286 -0.5891  0.0039
  611Sol     OW 5449   3.073   0.345   3.468 -0.5027  0.8460  0.1630
  611Sol     HW 5450   2.997   0.362   3.524 -2.3225 -0.1040 -1.9487
  611Sol     HW 5451   3.137   0.412   3.493 -2.7089  2.8055  0.7667
  611Sol     MW 5452   3.072   0.353   3.475 -0.0673  0.0935  0.0232
  612Sol     OW 5453   0.992   3.003   8.805 -0.4633 -0.2589  0.2803
  612Sol     HW 5454   0.941   3.081   8.785  0.2964 -0.0103 -0.7265
  612Sol     HW 5455   0.960   2.974   8.890 -3.0153 -0.6928 -0.7869
  612Sol     MW 5456   0.985   3.007   8.811 -0.5035 -0.4513  0.0935
  613Sol     OW 5457   1.831   1.005   1.912 -0.5832 -0.1652 -0.5201
  613Sol     HW 5458   1.786   0.932   1.869 -0.8156  0.3661 -1.1810
  613Sol     HW 5459   1.899   0.963   1.965 -1.5914 -0.9503  0.1707
  613Sol     MW 5460   1.833   0.994   1.913 -0.1146  0.5857  0.0394
  614Sol     OW 5461   3.148   2.578   1.437  0.5609 -0.7363 -0.6390
  614Sol     HW 5462   3.211   2.591   1.508  0.0600 -1.0293 -0.1292
  614Sol     HW 5463   3.075   2.636   1.459  0.1321 -1.2967 -0.5748
  614Sol     MW 5464   3.147   2.584   1.446 -0.5994 -0.6295 -1.0029
  615Sol     OW 5465   1.287   0.475   8.750  0.0556  0.2110 -0.0349
  615Sol     HW 5466   1.253   0.416   8.683  1.0938  1.5775 -1.7937
  615Sol     HW 5467   1.295   0.560   8.707  0.7910  1.1119  1.8011
  615Sol     MW 5468   1.285   0.477   8.740  0.6490  0.0375  0.2540
  616Sol     OW 5469   0.609   1.926   6.081  0.9887  0.2022  0.4665
  616Sol     HW 5470   0.592   1.851   6.024 -1.2954 -0.1591  1.5482
  616Sol     HW 5471   0.679   1.897   6.140  1.2616 -0.4875 -0.1959
  616Sol     MW 5472   0.614   1.917   6.081  0.1307 -0.1081 -0.8354
  617Sol     OW 5473   0.569   2.224   7.708 -0.0427 -0.2477  0.0794
  617Sol     HW 5474   0.657   2.192   7.687 -0.0154  0.5599 -1.0857
  617Sol     HW 5475   0.540   2.168   7.780  1.1059 -1.0517 -0.0640
  617Sol     MW 5476   0.575   2.216   7.712  0.0848 -0.2538  0.0749
  618Sol     OW 5477   1.447   1.677  10.005 -0.0680 -0.2985 -0.4504
  618Sol     HW 5478   1.520   1.681  10.066 -0.4361 -1.2561  0.0673
  618Sol     HW 5479   1.457   1.593   9.960 -0.6822 -0.2979 -0.5960
  618Sol     MW 5480   1.454   1.670  10.006 -0.1570  0.1536  0.5600
  619Sol     OW 5481   2.888   1.911   5.368 -0.3062 -0.0982 -0.0207
  619Sol     HW 5482   2.889   1.999   5.330 -0.2156  0.4696  1.2551
  619Sol     HW 5483   2.897   1.853   5.293 -1.3215  0.9481 -0.9740
  619Sol     MW 5484   2.889   1.914   5.358  0.0236  0.3346  0.1872
  620Sol     OW 5485   0.202   2.759   9.618 -0.5271  0.2431 -0.0239
  620Sol     HW 5486   0.207   2.851   9.643  0.3550  0.1084  0.3121
  620Sol     HW 5487   0.114   2.749   9.582 -1.4645  0.6977  2.0357
  620Sol     MW 5488   0.194   2.766   9.617  0.7546  0.4442  0.3610
  621Sol     OW 5489   0.229   2.527   8.802 -0.6267  0.4182  0.3929
  621Sol     HW 5490   0.136   2.549   8.794 -1.0215 -1.3164  0.0229
  621Sol     HW 5491   0.230   2.432   8.811  1.0265  0.5486  1.8489
  621Sol     MW 5492   0.221   2.521   8.802 -0.3583  0.5949 -0.4389
  622Sol     OW 5493   1.569   3.306   2.332  0.4508  0.0339 -0.6872
  622Sol     HW 5494   1.527   3.324   2.248 -1.1378  0.7309  0.2331
  622Sol     HW 5495   1.496   3.292   2.393  1.5497  0.9759  0.8929
  622Sol     MW 5496   1.559   3.306   2.330 -0.3989  0.5829 -0.0766
  623Sol     OW 5497   2.972   1.182   5.094  0.0024  0.0022 -0.1710
  623Sol     HW 5498   2.917   1.246   5.048 -0.0809 -0.9747 -1.4552
  623Sol     HW 5499   3.013   1.130   5.024 -1.0163 -2.2539  0.8580
  623Sol     MW 5500   2.971   1.183   5.084 -0.1109 -0.4351  0.0830
  624Sol     OW 5501   1.865   2.019   4.506 -0.6194 -0.0863 -0.1720
  624Sol     HW 5502   1.898   1.937   4.542 -2.2522 -0.8875 -0.4433
  624Sol     HW 5503   1.813   2.057   4.578 -0.7274  0.1961 -0.3967
  624Sol     MW 5504   1.863   2.015   4.516  0.2370  0.0903 -0.0346
  625Sol     OW 5505   1.844   1.957   2.716 -0.3752 -0.4693 -0.5669
  625Sol     HW 5506   1.917   1.895   2.724 -0.9429 -1.1953 -0.9172
  625Sol     HW 5507   1.865   2.027   2.778  0.0353 -1.2655  0.2131
  625Sol     MW 5508   1.852   1.957   2.722 -0.1079 -0.3347  0.3296
  626Sol     OW 5509   1.426   2.356   6.284 -0.0009  0.2592  0.5067
  626Sol     HW 5510   1.451   2.266   6.304 -0.5527  0.5034  2.3689
  626Sol     HW 5511   1.339   2.348   6.244 -0.2658 -0.0022  1.1274
  626Sol     MW 5512   1.420   2.347   6.282  0.4330 -0.0369 -0.0636
  627Sol     OW 5513   0.068   2.632   7.837 -0.4036 -0.1153  0.3962
  627Sol     HW 5514   0.053   2.538   7.843 -1.4334 -0.1048 -1.6710
  627Sol     HW 5515   0.101   2.646   7.748 -1.7035  1.6445  0.1646
  627Sol     MW 5516   0.069   2.625   7.830  0.5438  0.2035  0.2102
  628Sol     OW 5517   1.266   1.804   4.711  0.1196 -0.1074  0.2638
  628Sol     HW 5518   1.320   1.843   4.780  1.5764 -0.0020 -0.9235
  628Sol     HW 5519   1.284   1.857   4.634 -2.0892  0.2495 -0.0533
  628Sol     MW 5520   1.273   1.812   4.711 -0.3603 -0.2604 -0.3153
  629Sol     OW 5521   2.199   2.306   6.338 -0.5559  0.5391 -0.8486
  629Sol     HW 5522   2.218   2.287   6.246 -2.7889 -0.1016 -1.1999
  629Sol     HW 5523   2.284   2.331   6.375  0.7856 -1.3103 -2.5515
  629Sol     MW 5524   2.209   2.306   6.333 -0.3563  0.2875  0.4187
  630Sol     OW 5525   1.297   0.035   4.713  0.5899  0.0664  0.5537
  630Sol     HW 5526   1.246   0.039   4.794 -0.9662  0.3303 -0.4120
  630Sol     HW 5527   1.337  -0.052   4.714  0.4293 -0.0026  1.5195
  630Sol     MW 5528   1.296   0.028   4.720 -0.0342 -0.8612 -0.0680
  631Sol     OW 5529   3.115   3.016   3.880  0.1876 -0.5602  0.1492
  631Sol     HW 5530   3.201   3.055   3.900 -0.0345  0.0630 -0.1172
  631Sol     HW 5531   3.119   2.995   3.787 -0.3597  0.4996 -0.1154
  631Sol     MW 5532   3.123   3.018   3.873  0.0917 -0.0770  0.4762
  632Sol     OW 5533   2.195   0.529   4.879  0.3943  0.2028  0.0184
  632Sol     HW 5534   2.210   0.538   4.973  0.7401  0.6194 -0.0738
  632Sol     HW 5535   2.256   0.591   4.839  0.2906 -0.0148 -0.4836
  632Sol     MW 5536   2.202   0.535   4.884 -0.3282 -0.3473 -0.2935
  633Sol     OW 5537   1.875   1.982   9.337  0.0846  0.0158  0.6395
  633Sol     HW 5538   1.849   2.062   9.291  1.2017 -0.3149 -0.6001
  633Sol     HW 5539   1.807   1.969   9.404 -1.0562  1.0174 -0.3031
  633Sol     MW 5540   1.867   1.988   9.339  0.2477 -0.6951  0.1595
  634Sol     OW 5541   0.089   0.508   9.192  0.0104  0.1774 -0.5743
  634Sol     HW 5542   0.047   0.427   9.218 -0.3270  0.5414  0.0322
  634Sol     HW 5543   0.139   0.535   9.269  2.2834 -0.8398 -1.6557
  634Sol     MW 5544   0.090   0.503   9.201 -0.5947  0.4297 -0.6388
  635Sol     OW 5545   3.104   1.888   3.691  0.5156 -0.5316  0.4028
  635Sol     HW 5546   3.151   1.838   3.624 -0.4745 -1.1107  0.1201
  635Sol     HW 5547   3.039   1.826   3.725  0.4889  0.0079  1.3402
  635Sol     MW 5548   3.102   1.878   3.688  0.2453  0.0928 -0.4973
  636Sol     OW 5549   2.527   1.169   9.952  0.1717 -0.2386 -0.2362
  636Sol     HW 5550   2.553   1.079   9.974  0.0260 -0.2519 -0.1193
  636Sol     HW 5551   2.574   1.188   9.871 -0.5452 -0.7620 -0.7701
  636Sol     MW 5552   2.534   1.163   9.947  0.0672 -0.3479 -0.1507
  637Sol     OW 5553   3.171   2.410   2.047 -0.3795  0.9526  0.1186
  637Sol     HW 5554   3.116   2.340   2.013  1.1030 -0.4771  0.6406
  637Sol     HW 5555   3.222   2.370   2.117 -0.3315  2.8274  1.1931
  637Sol     MW 5556   3.171   2.400   2.050  0.7013 -0.6177 -0.4868
  638Sol     OW 5557   0.460   1.541   6.570 -0.1039 -0.3257  0.2911
  638Sol     HW 5558   0.434   1.541   6.662  0.2955  0.9687  0.4010
  638Sol     HW 5559   0.379   1.523   6.522 -1.1020  3.0045  0.6754
  638Sol     MW 5560   0.450   1.539   6.574 -0.2086 -0.0106 -0.0449
  639Sol     OW 5561   0.406   2.431   2.247  0.4848  0.1827 -0.0957
  639Sol     HW 5562   0.383   2.524   2.244  1.2914  0.3621 -0.7728
  639Sol     HW 5563   0.502   2.430   2.250  0.4972 -0.6459 -0.6542
  639Sol     MW 5564   0.413   2.439   2.247  0.4071  0.1339 -0.0850
  640Sol     OW 5565   1.045   1.654   7.822  0.3942 -0.0086  0.5830
  640Sol     HW 5566   1.087   1.571   7.845  0.7533  0.1853  0.6412
  640Sol     HW 5567   1.035   1.651   7.727 -2.2681 -1.3587  0.8897
  640Sol     MW 5568   1.048   1.647   7.816  0.3990  0.0481  0.2078
  641Sol     OW 5569   2.361   1.601   4.708  0.4643 -0.1118 -0.4873
  641Sol     HW 5570   2.358   1.592   4.804 -0.2499 -0.5857 -0.5475
  641Sol     HW 5571   2.340   1.514   4.676  2.4903 -0.3988 -1.0799
  641Sol     MW 5572   2.359   1.592   4.714  0.7226  0.1360  0.0627
  642Sol     OW 5573   0.953   0.374   5.998  0.2301 -0.4021  0.2602
  642Sol     HW 5574   0.900   0.454   5.993  1.8480  0.7466  1.0542
  642Sol     HW 5575   0.889   0.304   6.009 -1.2569  0.6942 -1.1700
  642Sol     MW 5576   0.942   0.375   5.999 -0.2453 -0.3370 -0.4994
  643Sol     OW 5577   2.437   3.069   4.099 -0.2766 -0.9275 -0.3686
  643Sol     HW 5578   2.447   3.054   4.193 -0.2469 -4.2778 -0.8785
  643Sol     HW 5579   2.376   3.144   4.094 -0.4811 -0.8629  2.2890
  643Sol     MW 5580   2.432   3.075   4.107 -0.2107 -0.4791 -0.8031
  644Sol     OW 5581   2.484   1.531   7.057 -0.2407  0.0818  0.2509
  644Sol     HW 5582   2.514   1.616   7.089 -2.9282  0.8764  0.8358
  644Sol     HW 5583   2.526   1.521   6.971 -0.0588  2.0878  0.0824
  644Sol     MW 5584   2.490   1.538   7.052 -0.8654  0.0226  0.1892
  645Sol     OW 5585   2.421   3.254   4.720 -0.5939 -0.4898 -0.1896
  645Sol     HW 5586   2.373   3.264   4.802  0.4488  1.8070  0.1742
  645Sol     HW 5587   2.397   3.330   4.668  0.6721 -0.6306 -1.0198
  645Sol     MW 5588   2.415   3.262   4.722  0.3752  0.0584  0.1218
  646Sol     OW 5589   2.004   1.614   6.904 -0.4735 -0.2980 -0.0267
  646Sol     HW 5590   2.095   1.608   6.876 -1.0181 -2.2389 -1.5181
  646Sol     HW 5591   2.002   1.571   6.989  0.0072 -0.2235  0.0231
  646Sol     MW 5592   2.012   1.610   6.909 -0.0823  0.0015 -0.1563
  647Sol     OW 5593   1.695   0.320   1.477  0.1904 -0.2514  0.2097
  647Sol     HW 5594   1.676   0.366   1.395 -0.4192 -0.2205  0.3640
  647Sol     HW 5595   1.781   0.352   1.503  0.3959 -0.2835 -0.4353
  647Sol     MW 5596   1.701   0.327   1.472  0.4001  0.5315  0.0218
  648Sol     OW 5597   1.992   3.227   8.783 -0.1186  0.1058 -0.1750
  648Sol     HW 5598   1.993   3.147   8.731  0.9770  0.5081 -0.7883
  648Sol     HW 5599   2.076   3.268   8.765 -0.7569  1.5033 -0.0321
  648Sol     MW 5600   2.000   3.224   8.777 -0.0661 -0.1918  0.1589
  649Sol     OW 5601   1.929   2.911   2.811 -0.1959 -0.0463 -0.4339
  649Sol     HW 5602   1.924   2.816   2.821 -0.5728 -0.0567 -0.6954
  649Sol     HW 5603   1.964   2.925   2.724  1.3249  0.0517  0.1876
  649Sol     MW 5604   1.931   2.904   2.804 -0.0430  0.6330 -0.1777
  650Sol     OW 5605   1.941   1.728   4.564 -0.1319  0.1534  0.4467
  650Sol     HW 5606   1.919   1.655   4.507 -0.6629  0.2401  0.5389
  650Sol     HW 5607   2.035   1.742   4.550  0.0456 -0.7795  0.7161
  650Sol     MW 5608   1.947   1.723   4.558  0.1947  0.1870  0.1383
  651Sol     OW 5609   0.595   0.599   8.197  0.5720  0.6700  0.3885
  651Sol     HW 5610   0.510   0.635   8.223  1.2523  2.6417 -0.0207
  651Sol     HW 5611   0.578   0.554   8.114 -0.8917 -2.5946  2.3549
  651Sol     MW 5612   0.586   0.598   8.192  0.9410 -0.1246  0.1958
  652Sol     OW 5613   2.870   0.822   4.995 -0.1037 -0.0292 -0.0320
  652Sol     HW 5614   2.905   0.817   4.906  0.5759  0.0973  0.2217
  652Sol     HW 5615   2.815   0.744   5.004 -0.4518  0.1361 -0.6737
  652Sol     MW 5616   2.868   0.815   4.988  0.3019  0.3176 -0.4002
  653Sol     OW 5617   2.110   1.948   9.490  0.2097  0.4346 -0.2411
  653Sol     HW 5618   2.182   1.959   9.427  0.3456  0.9392 -0.0082
  653Sol     HW 5619   2.032   1.975   9.442 -0.0241 -1.4042 -0.9189
  653Sol     MW 5620   2.110   1.952   9.480 -0.4575 -0.3095  0.2482
  654Sol     OW 5621   0.476   0.531   8.814  0.6866 -0.1133  0.5350
  654Sol     HW 5622   0.462   0.570   8.900  1.4408  1.9231 -0.2205
  654Sol     HW 5623   0.571   0.524   8.806  0.6529  0.2885 -0.3469
  654Sol     MW 5624   0.483   0.534   8.821 -0.0612  0.4877 -0.1086
  655Sol     OW 5625   0.273   2.131   7.034 -0.1718  0.4542  0.0286
  655Sol     HW 5626   0.326   2.161   7.108  1.7200  0.7719 -1.4062
  655Sol     HW 5627   0.302   2.186   6.961 -0.9292 -0.8567 -1.2834
  655Sol     MW 5628   0.280   2.139   7.034 -0.8083 -0.0475 -0.3220
  656Sol     OW 5629   1.848   1.569   6.485  0.5723  0.3586  0.1366
  656Sol     HW 5630   1.939   1.539   6.484  0.1829 -1.0211  1.9245
  656Sol     HW 5631   1.810   1.532   6.406  1.2152 -0.2648  0.1115
  656Sol     MW 5632   1.853   1.563   6.478 -0.5044  0.6076  0.2839
  657Sol     OW 5633   0.649   2.180   3.121  0.2479 -0.0047  0.1415
  657Sol     HW 5634   0.728   2.134   3.092 -0.1894 -1.2116  0.8379
  657Sol     HW 5635   0.578   2.139   3.072 -0.0675  0.3902  0.2644
  657Sol     MW 5636   0.650   2.172   3.114  0.2403  0.2827 -0.1968
  658Sol     OW 5637   3.098   2.848   2.085  0.0023 -0.9727  0.3873
  658Sol     HW 5638   3.043   2.789   2.137 -2.2715  0.0641 -0.7749
  658Sol     HW 5639   3.165   2.791   2.047 -1.8419 -2.7251 -0.3049
  658Sol     MW 5640   3.099   2.838   2.087  0.2547 -0.3511  0.0543
  659Sol     OW 5641   3.321   0.304   8.306 -0.0715 -0.4156  0.2863
  659Sol     HW 5642   3.240   0.292   8.356  1.2730 -1.0770  2.3910
  659Sol     HW 5643   3.356   0.388   8.336  0.7704 -0.8385  0.5305
  659Sol     MW 5644   3.317   0.310   8.313  0.5354  0.8413  0.3500
  660Sol     OW 5645   3.031   0.782   6.626  0.4130 -0.1238  0.2671
  660Sol     HW 5646   2.995   0.732   6.699  0.1748  0.7337  0.7358
  660Sol     HW 5647   2.962   0.782   6.560  1.2308 -2.3405 -0.6746
  660Sol     MW 5648   3.022   0.777   6.627  1.0707 -0.1630 -0.0676
  661Sol     OW 5649   1.005   2.200   6.492  0.2253 -0.1231 -0.8017
  661Sol     HW 5650   1.015   2.115   6.536 -0.8753 -0.2137 -0.6895
  661Sol     HW 5651   1.075   2.254   6.528  1.3718 -1.1874 -1.3921
  661Sol     MW 5652   1.012   2.197   6.499  0.3838  0.0438  0.1008
  662Sol     OW 5653   2.242   3.170   6.831 -0.5858 -0.5353 -0.1336
  662Sol     HW 5654   2.166   3.179   6.774 -1.0053 -0.5502  0.4124
  662Sol     HW 5655   2.269   3.079   6.820 -2.3351 -1.3352  1.7208
  662Sol     MW 5656   2.237   3.162   6.825 -0.5144 -0.1074  0.3250
  663Sol     OW 5657   1.874   2.705   8.322  0.6099 -0.0282 -0.2150
  663Sol     HW 5658   1.807   2.646   8.287  0.6809 -1.2669  1.6240
  663Sol     HW 5659   1.954   2.682   8.275  0.6661 -1.5401  0.5722
  663Sol     MW 5660   1.875   2.698   8.315 -0.0162 -0.0607  0.4040
  664Sol     OW 5661   1.144   3.320   3.553 -0.2330 -0.7932  0.2884
  664Sol     HW 5662   1.213   3.286   3.496  1.1718 -1.6692  2.4452
  664Sol     HW 5663   1.188   3.340   3.635 -2.4748 -0.9756  1.5852
  664Sol     MW 5664   1.154   3.318   3.555 -0.1627 -0.7044  0.2386
  665Sol     OW 5665   1.987   1.193   5.556  0.6766  0.4035 -0.4192
  665Sol     HW 5666   2.002   1.113   5.506  1.9483  0.9350 -0.8983
  665Sol     HW 5667   2.047   1.187   5.629  0.5811  0.8061 -0.3089
  665Sol     MW 5668   1.993   1.185   5.558 -0.2812 -0.0009 -0.1676
  666Sol     OW 5669   2.658   2.122   7.155 -0.1081 -0.1600  0.4626
  666Sol     HW 5670   2.727   2.117   7.220  0.2926  1.5480  0.1909
  666Sol     HW 5671   2.577   2.112   7.205  0.3131 -2.4106  0.7482
  666Sol     MW 5672   2.657   2.121   7.165 -0.0363  0.2360  0.1145
  667Sol     OW 5673   0.097   1.447   3.859  0.0934  0.0315 -0.4734
  667Sol     HW 5674   0.173   1.390   3.854 -0.9232 -1.3072 -0.9509
  667Sol     HW 5675   0.060   1.430   3.945  0.0008  0.2335 -0.4736
  667Sol     MW 5676   0.100   1.440   3.866  0.4638  0.0991  0.4451
  668Sol     OW 5677   0.312   1.279   4.153 -0.3326 -0.5589  0.3227
  668Sol     HW 5678   0.286   1.244   4.238 -1.3248  0.3399  0.4076
  668Sol     HW 5679   0.233   1.273   4.099  0.0853 -0.4525 -0.3023
  668Sol     MW 5680   0.302   1.276   4.156 -0.0809  0.8552 -0.0292
  669Sol     OW 5681   2.342   1.979   5.771  0.1533  0.1145 -0.6967
  669Sol     HW 5682   2.315   1.917   5.703 -1.7779  0.2016 -0.0270
  669Sol     HW 5683   2.309   2.063   5.741  0.3012  0.3495 -0.1988
  669Sol     MW 5684   2.337   1.981   5.762 -0.0177  0.2039  0.0784
  670Sol     OW 5685   1.940   2.598   7.019 -0.1625 -0.1222  0.3021
  670Sol     HW 5686   1.924   2.555   6.935  0.4932 -0.4042  0.3201
  670Sol     HW 5687   1.996   2.672   6.998  0.9639 -0.8704  0.6469
  670Sol     MW 5688   1.943   2.601   7.010 -0.2099  0.0125 -0.9929
  671Sol     OW 5689   0.519   1.205   1.776 -0.4826 -0.0268 -0.0356
  671Sol     HW 5690   0.570   1.125   1.762 -0.3940 -0.1914  1.2547
  671Sol     HW 5691   0.432   1.174   1.801 -0.3978  0.2910  0.6446
  671Sol     MW 5692   0.516   1.195   1.777  0.2372 -0.6980  0.4282
  672Sol     OW 5693   2.316   0.058   9.427 -0.1575  0.1376  0.3453
  672Sol     HW 5694   2.285  -0.003   9.360 -1.1611  0.6491  0.3347
  672Sol     HW 5695   2.242   0.116   9.442 -0.3807 -0.7193  2.7875
  672Sol     MW 5696   2.307   0.058   9.422  0.2468 -0.7052  0.3208
  673Sol     OW 5697   0.612   1.037   4.813  0.3530  0.4426 -0.0360
  673Sol     HW 5698   0.639   0.992   4.893 -0.1366  0.7999  0.3261
  673Sol     HW 5699   0.610   0.967   4.747 -0.8252 -0.1562  0.6142
  673Sol     MW 5700   0.615   1.026   4.814  0.0066  0.2596  0.0305
  674Sol     OW 5701   2.551   2.212   5.515 -0.5283  0.4545 -0.5766
  674Sol     HW 5702   2.492   2.149   5.474 -0.9600  0.3377  0.2207
  674Sol     HW 5703   2.496   2.289   5.531 -0.1562  0.8067 -0.9733
  674Sol     MW 5704   2.541   2.213   5.513 -0.2348 -0.0112  0.1109
  675Sol     OW 5705   2.393   0.869   2.677  0.0377 -0.6399 -0.0717
  675Sol     HW 5706   2.428   0.783   2.654  0.9969 -0.4827  0.8008
  675Sol     HW 5707   2.351   0.899   2.596  2.7604 -0.4024 -1.4527
  675Sol     MW 5708   2.392   0.864   2.667  0.2618 -0.1079  0.1020
  676Sol     OW 5709   1.246   2.789   7.710 -0.4313 -0.0854 -0.1562
  676Sol     HW 5710   1.191   2.857   7.670 -0.6989 -0.1751  0.0568
  676Sol     HW 5711   1.184   2.734   7.757 -0.2161 -0.4996 -0.3582
  676Sol     MW 5712   1.235   2.790   7.710 -0.3666 -0.2407  0.6334
  677Sol     OW 5713   2.458   0.523   9.502 -0.0875  0.5795  0.4182
  677Sol     HW 5714   2.479   0.544   9.593  0.7647  0.0465  0.3501
  677Sol     HW 5715   2.450   0.609   9.459  0.1796  0.8196  0.8444
  677Sol     MW 5716   2.459   0.533   9.506 -0.0380 -0.1334 -0.0049
  678Sol     OW 5717   1.635   1.208   6.549  0.3658  0.4890  0.4238
  678Sol     HW 5718   1.673   1.271   6.487  0.0645  0.2511 -0.0019
  678Sol     HW 5719   1.541   1.217   6.537  0.3166  0.2245  0.6345
  678Sol     MW 5720   1.630   1.215   6.542 -0.1644 -0.3279  0.8556
  679Sol     OW 5721   2.486   2.644   5.775  0.0661 -0.4644  0.1037
  679Sol     HW 5722   2.570   2.689   5.772 -1.9259  3.4541  1.0312
  679Sol     HW 5723   2.465   2.626   5.683  1.2804 -0.3599 -0.2040
  679Sol     MW 5724   2.492   2.646   5.767  0.0305 -0.2805 -0.1461
  680Sol     OW 5725   2.829   1.941   4.596  0.2441  0.1605 -0.6257
  680Sol     HW 5726   2.912   1.987   4.587 -0.1887  0.8716 -1.0699
  680Sol     HW 5727   2.844   1.877   4.666  1.0221  0.5959 -0.3870
  680Sol     MW 5728   2.837   1.939   4.602 -0.3901 -0.0461  0.7672
  681Sol     OW 5729   2.625   0.061   5.434  0.0484 -0.1223 -0.0172
  681Sol     HW 5730   2.643  -0.030   5.456 -4.4131 -1.2907 -0.7252
  681Sol     HW 5731   2.623   0.107   5.518 -0.5240 -1.2568  0.5997
  681Sol     MW 5732   2.627   0.057   5.443 -0.2670 -0.2991 -0.5636
  682Sol     OW 5733   0.482   1.279   8.735 -0.2966  0.2901 -0.2832
  682Sol     HW 5734   0.541   1.255   8.663  0.7630 -0.9742  0.9870
  682Sol     HW 5735   0.443   1.197   8.764 -0.8416  0.8095  0.4890
  682Sol     MW 5736   0.484   1.270   8.731  0.0120 -0.3058 -0.1956
  683Sol     OW 5737   2.409   0.968   9.245 -0.2014 -0.0087  0.0436
  683Sol     HW 5738   2.328   0.962   9.296 -0.3050  0.0138 -0.1194
  683Sol     HW 5739   2.478   0.952   9.309 -0.1222  3.3284  0.9240
  683Sol     MW 5740   2.408   0.966   9.256 -0.5125 -0.3046 -0.2988
  684Sol     OW 5741   1.637   0.496   7.576  1.2820 -0.2461 -0.4040
  684Sol     HW 5742   1.677   0.526   7.658  1.8675  0.4422 -0.9351
  684Sol     HW 5743   1.578   0.426   7.603 -0.1483  1.4107  0.8761
  684Sol     MW 5744   1.636   0.493   7.586  0.0828 -0.2041 -0.0269
  685Sol     OW 5745   1.517   1.550   7.620  0.2364 -0.1235  0.1912
  685Sol     HW 5746   1.598   1.581   7.661  1.4640 -0.6767 -1.7119
  685Sol     HW 5747   1.498   1.467   7.664  0.8133 -0.0906  0.5054
  685Sol     MW 5748   1.523   1.546   7.627 -0.3447  0.0640  0.3263
  686Sol     OW 5749   2.848   1.476   6.599 -0.6291  0.1166 -0.0293
  686Sol     HW 5750   2.797   1.493   6.678  0.8599  0.8112  0.8029
  686Sol     HW 5751   2.939   1.479   6.628 -0.0823 -0.2670 -1.6469
  686Sol     MW 5752   2.851   1.478   6.609 -0.0124 -0.5816 -0.2317
  687Sol     OW 5753   1.791   1.302   6.328  0.1262 -0.2333  0.2106
  687Sol     HW 5754   1.745   1.276   6.248 -0.2453  0.5809  0.1564
  687Sol     HW 5755   1.882   1.275   6.313 -0.2539 -1.5836  0.1930
  687Sol     MW 5756   1.795   1.297   6.319 -0.0998  0.0007  0.2470
  688Sol     OW 5757   2.835   1.391   8.964  0.6348  0.3662  0.2948
  688Sol     HW 5758   2.753   1.434   8.941  1.1628  1.1147 -0.2045
  688Sol     HW 5759   2.828   1.374   9.058 -0.4148 -0.2974  0.1076
  688Sol     MW 5760   2.827   1.393   8.970 -1.1395 -0.6086 -0.2691
  689Sol     OW 5761   2.959   2.395   8.131  0.0024  0.3901  0.2730
  689Sol     HW 5762   3.024   2.428   8.193 -1.0622 -1.4168  2.4413
  689Sol     HW 5763   2.933   2.310   8.167 -3.0788  0.7836 -0.8812
  689Sol     MW 5764   2.962   2.390   8.140  0.4345 -0.0943  0.7761
  690Sol     OW 5765   3.042   3.322   4.045  0.0420  0.1784 -0.2543
  690Sol     HW 5766   3.053   3.284   4.133  2.2703  1.0277 -0.1383
  690Sol     HW 5767   2.953   3.298   4.020 -0.3739 -0.7153  1.9378
  690Sol     MW 5768   3.035   3.316   4.051  0.0021 -0.2841  0.0758
  691Sol     OW 5769   2.745   0.318   4.476  0.2172  0.2617 -0.1690
  691Sol     HW 5770   2.812   0.345   4.539 -1.4029  1.8725  0.9394
  691Sol     HW 5771   2.754   0.223   4.470  0.9821  0.1777  1.8414
  691Sol     MW 5772   2.752   0.312   4.481 -0.0801 -0.1555  0.6461
  692Sol     OW 5773   2.767   0.271   3.202 -0.2284 -0.6137 -0.2094
  692Sol     HW 5774   2.713   0.207   3.248 -1.2549  0.6776  0.3944
  692Sol     HW 5775   2.798   0.224   3.124  0.0333 -2.2326  0.8356
  692Sol     MW 5776   2.765   0.261   3.199 -0.0813  0.0510  0.6884
  693Sol     OW 5777   2.218   0.107   6.710 -0.3302  0.2883 -0.4640
  693Sol     HW 5778   2.158   0.167   6.665 -0.7607  1.8219  2.0459
  693Sol     HW 5779   2.162   0.055   6.767  0.5838  0.9832  1.0902
  693Sol     MW 5780   2.208   0.108   6.711  0.4859  0.4408  0.3335
  694Sol     OW 5781   0.706   1.541   2.400  0.3673  0.6524 -0.1855
  694Sol     HW 5782   0.765   1.616   2.410  1.2665 -0.3926  2.6840
  694Sol     HW 5783   0.686   1.513   2.489 -2.5480 -0.5457 -1.1465
  694Sol     MW 5784   0.709   1.545   2.408  0.0289  0.7279 -0.3992
  695Sol     OW 5785   1.203   0.119   2.178 -0.0041  0.3143 -0.5461
  695Sol     HW 5786   1.204   0.204   2.134  0.0620  1.0956  0.9371
  695Sol     HW 5787   1.145   0.132   2.253  0.3623 -0.8259 -0.0610
  695Sol     MW 5788   1.198   0.128   2.180 -0.2762 -0.2565  0.2007
  696Sol     OW 5789   0.972   0.130   9.094 -0.5548  0.4987  0.6063
  696Sol     HW 5790   1.064   0.155   9.089 -0.5604  0.6037  0.9931
  696Sol     HW 5791   0.925   0.198   9.046 -0.2457 -0.6247 -1.3285
  696Sol     MW 5792   0.976   0.138   9.089  0.4740 -0.5985 -0.4379
  697Sol     OW 5793   1.453   3.433   2.941  0.3290 -0.0289 -0.8830
  697Sol     HW 5794   1.432   3.491   3.014  0.7840  0.8276 -1.4324
  697Sol     HW 5795   1.521   3.375   2.975 -2.3974 -2.4570  0.7350
  697Sol     MW 5796   1.457   3.433   2.951 -0.2789 -0.0851  0.2027
  698Sol     OW 5797   1.130   3.141   8.288 -0.5971  0.3503  0.3271
  698Sol     HW 5798   1.103   3.178   8.371  0.2295  0.8352  0.3844
  698Sol     HW 5799   1.191   3.205   8.251 -0.1267 -0.3621 -0.1478
  698Sol     MW 5800   1.133   3.150   8.292 -0.1352 -0.1454  0.0965
  699Sol     OW 5801   2.760   0.647   8.273  0.2938  0.0039  0.0771
  699Sol     HW 5802   2.820   0.637   8.199 -0.2497 -1.3547 -0.2014
  699Sol     HW 5803   2.674   0.656   8.232 -0.2683 -2.7085  0.5404
  699Sol     MW 5804   2.758   0.647   8.263 -0.3875  0.6021  0.5663
  700Sol     OW 5805   0.984   1.785   1.981  0.1852  0.5004  0.1992
  700Sol     HW 5806   1.034   1.714   1.941 -1.0944  0.3280 -1.1346
  700Sol     HW 5807   0.905   1.743   2.015 -0.3343  1.2043 -0.1395
  700Sol     MW 5808   0.981   1.775   1.980  0.3819  0.1947  0.2088
  701Sol     OW 5809   1.617   2.313   7.884 -0.1823  0.2372 -0.3682
  701Sol     HW 5810   1.547   2.372   7.913 -1.1622 -1.0329 -0.0986
  701Sol     HW 5811   1.620   2.324   7.789 -1.6109 -0.6259 -0.5211
  701Sol     MW 5812   1.611   2.320   7.878  0.4341 -0.0948  0.1849
  702Sol     OW 5813   2.801   1.895   9.443 -0.4308 -0.6014 -0.1337
  702Sol     HW 5814   2.771   1.804   9.438 -0.7201 -0.4979 -0.3172
  702Sol     HW 5815   2.755   1.931   9.519  0.5654 -0.9284  0.6363
  702Sol     MW 5816   2.794   1.890   9.450 -0.2831 -0.0373 -0.5738
  703Sol     OW 5817   0.524   1.073   3.833 -0.0721 -0.3260 -0.1441
  703Sol     HW 5818   0.536   1.094   3.925  3.1504 -1.4517 -0.2777
  703Sol     HW 5819   0.538   0.979   3.827 -0.6463 -0.3281 -1.7361
  703Sol     MW 5820   0.526   1.067   3.840 -0.3289 -0.2138  0.0983
  704Sol     OW 5821   2.178   0.779   3.208  0.1811 -0.3424 -0.0145
  704Sol     HW 5822   2.102   0.824   3.245  0.3232 -0.2224  0.1366
  704Sol     HW 5823   2.223   0.846   3.157 -0.9686 -0.9522 -1.8701
  704Sol     MW 5824   2.176   0.789   3.207 -0.0739  0.6165  0.2540
  705Sol     OW 5825   1.271   3.181   6.744 -0.4601  0.4898  0.8457
  705Sol     HW 5826   1.338   3.227   6.794 -1.4040  1.0367  1.6325
  705Sol     HW 5827   1.213   3.144   6.810 -0.0703 -1.3066  0.2024
  705Sol     MW 5828   1.272   3.182   6.754 -0.4458 -0.2997 -0.1347
  706Sol     OW 5829   1.324   1.966   5.332 -0.0196  0.1709  0.1742
  706Sol     HW 5830   1.261   1.965   5.404 -1.6670  3.4448 -1.1114
  706Sol     HW 5831   1.277   1.930   5.258  0.5257  0.0618 -0.1233
  706Sol     MW 5832   1.314   1.963   5.332  0.1797 -0.3864 -0.0414
  707Sol     OW 5833   1.516   3.021   4.962 -0.0411 -0.1894  0.0563
  707Sol     HW 5834   1.514   2.965   5.040 -1.6318  1.2058  1.0320
  707Sol     HW 5835   1.439   2.995   4.912 -1.0694  1.4148  0.7532
  707Sol     MW 5836   1.509   3.014   4.965  0.1097 -0.6743 -0.0691
  708Sol     OW 5837   0.312   0.053   5.980  0.5066 -0.0811 -0.4419
  708Sol     HW 5838   0.324   0.132   5.927  1.4362 -1.6772 -2.7202
  708Sol     HW 5839   0.219   0.052   6.000  0.2082  0.8244 -1.6933
  708Sol     MW 5840   0.305   0.060   5.977 -0.6143  0.2480  0.2315
  709Sol     OW 5841   3.090   2.912   8.804  0.4414  0.5968  0.0109
  709Sol     HW 5842   3.076   2.822   8.775 -0.5410  1.5106 -2.4751
  709Sol     HW 5843   3.051   2.915   8.891  0.8836 -1.4968  0.3144
  709Sol     MW 5844   3.085   2.904   8.809 -0.2493 -0.9925 -0.2066
  710Sol     OW 5845   1.486   1.986   1.753  0.0625 -0.2738  0.0183
  710Sol     HW 5846   1.541   2.063   1.735  2.6191 -1.9770  0.2537
  710Sol     HW 5847   1.528   1.943   1.828 -2.5160 -0.8126  1.2292
  710Sol     MW 5848   1.495   1.989   1.759 -0.7099  0.6785 -0.3545
  711Sol     OW 5849   1.321   0.997   6.237 -0.3783  0.2429 -0.4932
  711Sol     HW 5850   1.387   0.940   6.198 -0.9068 -0.1875 -0.7627
  711Sol     HW 5851   1.332   1.081   6.192  0.2013  0.2678 -0.3039
  711Sol     MW 5852   1.328   1.000   6.230 -0.0645 -0.5583  0.5597
  712Sol     OW 5853   1.616   1.504   9.312  0.4203  0.3560  0.0876
  712Sol     HW 5854   1.625   1.415   9.348  1.6030  0.2540 -0.4362
  712Sol     HW 5855   1.667   1.559   9.371 -0.1607  0.6720  0.3051
  712Sol     MW 5856   1.621   1.501   9.321 -0.3564  0.6004  0.3125
  713Sol     OW 5857   2.147   1.213   4.714  0.8262 -0.4011  0.1856
  713Sol     HW 5858   2.087   1.280   4.746  0.7991  0.0834 -0.8340
  713Sol     HW 5859   2.091   1.136   4.700  1.3437 -1.5442  3.9936
  713Sol     MW 5860   2.137   1.212   4.715  0.1919  0.2581 -0.6000
  714Sol     OW 5861   2.887   0.464   1.395  0.0420 -0.2157  0.3321
  714Sol     HW 5862   2.802   0.419   1.391  0.3633 -0.7491 -0.5422
  714Sol     HW 5863   2.878   0.538   1.335  0.1709 -0.2317  0.2927
  714Sol     MW 5864   2.879   0.467   1.389  0.4625  0.0869 -0.6078
  715Sol     OW 5865   1.456   3.091   7.885 -0.2855 -0.5341 -0.0501
  715Sol     HW 5866   1.468   3.164   7.945  0.0567 -1.1457  0.6181
  715Sol     HW 5867   1.366   3.063   7.900 -0.3611 -0.3706 -0.1855
  715Sol     MW 5868   1.449   3.095   7.892 -0.2938 -0.1043 -0.0290
  716Sol     OW 5869   0.434   1.672   5.853  0.1727 -0.3703 -0.1551
  716Sol     HW 5870   0.526   1.659   5.874 -0.3498  1.0992  3.3635
  716Sol     HW 5871   0.428   1.762   5.821 -0.1982 -0.0272  0.8490
  716Sol     MW 5872   0.442   1.679   5.852  0.4139 -0.6277  0.5202
  717Sol     OW 5873   1.850   1.735   9.206  0.1043 -0.1925 -0.4238
  717Sol     HW 5874   1.800   1.687   9.273  0.2897 -0.5117 -0.5156
  717Sol     HW 5875   1.855   1.824   9.240  1.7369 -0.7403  0.8576
  717Sol     MW 5876   1.846   1.739   9.215  0.0796  1.4809  0.1549
  718Sol     OW 5877   0.442   0.869   5.703 -0.0186 -0.4661 -0.2216
  718Sol     HW 5878   0.388   0.910   5.635 -0.4749 -0.6097  0.0499
  718Sol     HW 5879   0.389   0.796   5.735 -0.5195  0.5824  1.4111
  718Sol     MW 5880   0.432   0.867   5.700  0.3368 -0.5533  0.0766
  719Sol     OW 5881   0.333   2.347   4.313  0.0345 -0.2520  0.7720
  719Sol     HW 5882   0.303   2.362   4.402 -1.0808 -2.7173  0.8346
  719Sol     HW 5883   0.267   2.289   4.275  1.5236 -0.7790 -1.0517
  719Sol     MW 5884   0.324   2.343   4.317  0.1425 -0.1676  0.1285
  720Sol     OW 5885   1.130   1.839   3.460  0.1896  0.0419  0.5550
  720Sol     HW 5886   1.067   1.806   3.395 -0.0755  2.5602 -0.5077
  720Sol     HW 5887   1.165   1.760   3.501 -2.4147 -1.4686 -0.0208
  720Sol     MW 5888   1.128   1.829   3.458  0.7392  0.0903  0.0736
  721Sol     OW 5889   0.267   2.271   8.388  0.1770 -0.3291  0.9143
  721Sol     HW 5890   0.315   2.260   8.306 -2.4699 -0.0422 -0.7262
  721Sol     HW 5891   0.288   2.192   8.438 -0.0744 -1.7106 -1.0566
  721Sol     MW 5892   0.273   2.263   8.385 -0.2787 -0.3626  0.2031
  722Sol     OW 5893   2.179   0.454   8.612  0.0842  0.0256 -0.2913
  722Sol     HW 5894   2.224   0.538   8.618 -0.5308  0.3512 -0.1155
  722Sol     HW 5895   2.086   0.477   8.615 -0.0896 -0.7815  1.4372
  722Sol     MW 5896   2.175   0.464   8.613  0.2639  0.4178 -0.8291
  723Sol     OW 5897   0.721   1.247   9.884  0.1748  0.1238 -0.1763
  723Sol     HW 5898   0.642   1.193   9.886 -0.1858  0.6704  0.3864
  723Sol     HW 5899   0.793   1.184   9.872 -0.2621 -0.4543  0.2349
  723Sol     MW 5900   0.721   1.236   9.883  0.0371 -0.2444 -0.4515
  724Sol     OW 5901   0.980   3.288   8.512  0.2101 -0.1587  0.0215
  724Sol     HW 5902   0.896   3.278   8.467 -0.2352  1.3452  0.4864
  724Sol     HW 5903   0.956   3.306   8.603  1.0824 -1.7941  0.5849
  724Sol     MW 5904   0.970   3.289   8.516  0.4742 -0.4787 -0.0235
  725Sol     OW 5905   2.541   2.079   9.051  0.1378  0.1886 -0.1729
  725Sol     HW 5906   2.456   2.061   9.011  0.0411  0.1257  0.0610
  725Sol     HW 5907   2.603   2.076   8.978 -0.0172 -0.0620 -0.2973
  725Sol     MW 5908   2.539   2.077   9.041  0.0135  0.5975 -0.5479
  726Sol     OW 5909   2.552   1.091   2.733 -0.3710  0.4770  0.0680
  726Sol     HW 5910   2.493   1.016   2.736 -0.8301  0.8330 -0.0014
  726Sol     HW 5911   2.592   1.087   2.646  0.9107 -0.6748  0.6860
  726Sol     MW 5912   2.550   1.084   2.726 -0.1482  0.2004  0.3513
  727Sol     OW 5913   3.016   1.244   9.666 -0.3353  0.2643 -0.3141
  727Sol     HW 5914   3.061   1.192   9.732  2.3501  1.7630 -0.9104
  727Sol     HW 5915   2.983   1.321   9.714  0.6472  0.8037 -0.4960
  727Sol     MW 5916   3.017   1.246   9.676 -0.2161 -0.0227 -0.5788
  728Sol     OW 5917   1.260   2.610   5.938  0.3045 -0.2829  0.8416
  728Sol     HW 5918   1.329   2.544   5.952  0.6607 -0.5504 -1.8676
  728Sol     HW 5919   1.261   2.625   5.844 -2.0944  1.1268  1.0151
  728Sol     MW 5920   1.267   2.605   5.931 -0.1311  0.5907  0.5495
  729Sol     OW 5921   2.553   1.070   4.102  0.0557 -0.1966 -0.3377
  729Sol     HW 5922   2.563   1.113   4.187 -0.0560 -0.5430 -0.1493
  729Sol     HW 5923   2.460   1.045   4.098  0.1243 -0.4423 -0.4332
  729Sol     MW 5924   2.545   1.071   4.109 -1.2449 -0.2930 -0.2457
  730Sol     OW 5925   2.652   0.602   6.629 -0.0232  0.3353  0.3588
  730Sol     HW 5926   2.656   0.691   6.663  2.3093 -0.1350  1.4278
  730Sol     HW 5927   2.559   0.588   6.608 -0.7623  2.2677  2.1660
  730Sol     MW 5928   2.644   0.609   6.630  0.1138 -0.9485  0.2668
  731Sol     OW 5929   2.632   1.601   6.271  0.6093 -0.2126  0.7965
  731Sol     HW 5930   2.716   1.634   6.302  0.8112 -0.2303  0.2766
  731Sol     HW 5931   2.652   1.516   6.233  0.1502 -0.7667  1.7771
  731Sol     MW 5932   2.641   1.597   6.270 -0.0536 -0.2957 -0.4675
  732Sol     OW 5933   2.286   0.363   8.024  0.7137 -0.0063 -0.0547
  732Sol     HW 5934   2.367   0.350   7.974  2.7116 -0.3353  3.1025
  732Sol     HW 5935   2.284   0.457   8.042 -0.2995  0.2006 -1.2199
  732Sol     MW 5936   2.293   0.370   8.021 -0.2627 -0.0401 -0.3823
  733Sol     OW 5937   2.241   2.059   6.091  0.0729  0.0721 -0.3578
  733Sol     HW 5938   2.223   2.018   6.175 -0.5761 -0.0392 -0.5510
  733Sol     HW 5939   2.326   2.102   6.103  1.1435 -1.9926 -0.3968
  733Sol     MW 5940   2.247   2.059   6.099 -0.6313 -0.1873  0.1380
  734Sol     OW 5941   2.031   2.930   1.407  0.3296  0.1686  0.4678
  734Sol     HW 5942   1.970   2.932   1.481  1.6122  3.5032  1.5624
  734Sol     HW 5943   2.007   3.006   1.354  1.0359 -0.7619 -1.2228
  734Sol     MW 5944   2.024   2.937   1.409 -0.1685 -0.1091  0.0955
  735Sol     OW 5945   1.839   2.376   8.044  0.1908  0.3477 -0.7177
  735Sol     HW 5946   1.776   2.404   8.111  0.8707 -0.9314  0.5073
  735Sol     HW 5947   1.787   2.328   7.980 -0.3838  1.0434 -0.7669
  735Sol     MW 5948   1.829   2.374   8.045  0.1642 -0.1328 -0.4744
  736Sol     OW 5949   1.818   1.296   8.048  0.7320 -0.2902  0.2117
  736Sol     HW 5950   1.796   1.211   8.086  0.1489 -0.0462  0.4239
  736Sol     HW 5951   1.789   1.360   8.113  1.8990  0.0484  0.4125
  736Sol     MW 5952   1.813   1.294   8.057 -0.5071 -0.0654 -0.1733
  737Sol     OW 5953   2.668   2.018   7.495 -0.5326 -0.6395  0.7130
  737Sol     HW 5954   2.692   2.111   7.500  0.6530 -0.9848  1.6226
  737Sol     HW 5955   2.573   2.017   7.499 -0.5146  0.4845  1.5545
  737Sol     MW 5956   2.662   2.026   7.495  0.3595  0.1897 -0.0217
  738Sol     OW 5957   2.509   1.099   7.682 -0.3297  0.4803 -0.2849
  738Sol     HW 5958   2.415   1.117   7.679 -0.4233 -0.0206 -0.3815
  738Sol     HW 5959   2.532   1.107   7.775 -1.0134 -2.0790  0.1634
  738Sol     MW 5960   2.503   1.101   7.690  0.2035 -0.0530  0.4440
  739Sol     OW 5961   3.001   1.251   2.189  0.2471  0.4021  0.2591
  739Sol     HW 5962   3.020   1.224   2.279 -2.2193 -3.0458 -0.1214
  739Sol     HW 5963   3.066   1.205   2.136 -0.3789 -0.2840  0.0652
  739Sol     MW 5964   3.008   1.244   2.192 -0.5155  0.1037 -0.6464
  740Sol     OW 5965   3.158   0.910   3.488 -0.1406 -0.2581  0.6937
  740Sol     HW 5966   3.230   0.863   3.531 -0.5242 -0.8545  0.6916
  740Sol     HW 5967   3.104   0.841   3.450 -0.3752  0.2190  0.1543
  740Sol     MW 5968   3.160   0.899   3.489 -0.1024  0.1037  0.0446
  741Sol     OW 5969   1.101   2.145   2.653  0.2305  0.1600 -0.2762
  741Sol     HW 5970   1.073   2.193   2.575  1.1483 -2.2133 -2.1252
  741Sol     HW 5971   1.190   2.176   2.669 -0.0987  0.9371  0.0725
  741Sol     MW 5972   1.107   2.152   2.647 -0.1803  0.1514  0.1154
  742Sol     OW 5973   2.690   1.952   8.346 -0.0018  0.1796  0.1739
  742Sol     HW 5974   2.614   1.943   8.288 -1.7026  3.3549  1.8293
  742Sol     HW 5975   2.667   1.901   8.424  0.5723 -0.7634 -0.2655
  742Sol     MW 5976   2.681   1.946   8.348  0.0131 -0.1616  0.1327
  743Sol     OW 5977   1.148   2.718   9.361  0.7012 -0.4991  0.0816
  743Sol     HW 5978   1.052   2.713   9.363  0.6141 -0.4461 -2.7728
  743Sol     HW 5979   1.169   2.803   9.399 -0.4472  0.0772 -0.5647
  743Sol     MW 5980   1.141   2.725   9.365 -0.1139  0.4895  0.2936
  744Sol     OW 5981   2.343   2.435   8.599  0.2112  0.2678 -0.2576
  744Sol     HW 5982   2.313   2.369   8.536  0.1966  0.6500 -0.6597
  744Sol     HW 5983   2.385   2.385   8.669 -2.0372 -0.3230  0.6999
  744Sol     MW 5984   2.344   2.424   8.599 -0.5311 -0.3474  0.8032
  745Sol     OW 5985   0.573   2.847   5.164  0.2626 -0.3608 -0.2485
  745Sol     HW 5986   0.577   2.899   5.084  1.7632 -0.7510 -0.4334
  745Sol     HW 5987   0.620   2.898   5.229 -2.4725  0.7896  0.8868
  745Sol     MW 5988   0.577   2.856   5.163 -0.3849 -0.3923  0.0156
  746Sol     OW 5989   2.592   1.915   5.850  0.5581  0.3550  0.5157
  746Sol     HW 5990   2.651   1.937   5.778  1.4563 -2.0022  0.4928
  746Sol     HW 5991   2.513   1.965   5.832  1.1988  0.6903 -1.4992
  746Sol     MW 5992   2.590   1.921   5.842 -0.7521 -0.0938 -0.1307
  747Sol     OW 5993   0.013   2.164   3.655  0.4706 -0.4294  0.3624
  747Sol     HW 5994   0.079   2.116   3.705  0.0080 -1.6485 -0.1815
  747Sol     HW 5995   0.048   2.167   3.566  0.3799  0.0260  0.3409
  747Sol     MW 5996   0.022   2.160   3.652  0.0692  0.0281  0.0525
  748Sol     OW 5997   1.463   1.465   9.840 -0.2093  0.0037 -0.2888
  748Sol     HW 5998   1.441   1.492   9.751  0.6133  0.7724 -0.2650
  748Sol     HW 5999   1.379   1.450   9.882 -0.6415  0.8951 -0.8168
  748Sol     MW 6000   1.454   1.466   9.836  0.0834  0.2412  0.0049
  749Sol     OW 6001   0.758   1.348   5.393  0.3972  0.2259 -0.1561
  749Sol     HW 6002   0.678   1.380   5.351 -0.1138 -0.8518 -0.0245
  749Sol     HW 6003   0.828   1.403   5.357  0.0677 -1.1386 -3.0041
  749Sol     MW 6004   0.757   1.356   5.386 -0.5372  0.3645 -0.1637
  750Sol     OW 6005   3.236   2.654   1.959  0.5647 -0.1291 -0.6902
  750Sol     HW 6006   3.280   2.646   1.874  3.1575  1.3728  0.4658
  750Sol     HW 6007   3.217   2.564   1.984  0.1744 -0.6237 -2.6343
  750Sol     MW 6008   3.238   2.645   1.953  0.4265  0.9596  0.4280
  751Sol     OW 6009   0.092   2.698   3.194 -0.0190 -0.0894  0.2861
  751Sol     HW 6010   0.096   2.616   3.244 -2.0097 -1.0501 -1.0865
  751Sol     HW 6011   0.006   2.734   3.213  0.1602  0.7903 -0.5335
  751Sol     MW 6012   0.085   2.694   3.201 -0.8380  0.4311  0.1480
  752Sol     OW 6013   3.074   2.857   9.279  0.2188  0.1382 -0.0582
  752Sol     HW 6014   3.065   2.762   9.281  0.0031  0.1688  0.8656
  752Sol     HW 6015   3.031   2.884   9.198 -2.8918 -0.2740  1.3461
  752Sol     MW 6016   3.069   2.851   9.272 -0.0612 -0.2114  0.4404
  753Sol     OW 6017   2.918   2.773   8.079 -0.0952 -0.5987  0.5784
  753Sol     HW 6018   2.855   2.715   8.123 -2.3629 -1.7115 -3.8550
  753Sol     HW 6019   2.995   2.719   8.065  0.0148 -0.7273  1.5970
  753Sol     MW 6020   2.919   2.763   8.082 -0.1686  0.4127 -0.0618
  754Sol     OW 6021   0.584   2.021   9.032 -0.0477  0.4968 -0.6540
  754Sol     HW 6022   0.633   1.943   9.061 -0.9579  0.0329 -0.3309
  754Sol     HW 6023   0.493   1.991   9.026 -0.1377  1.0718 -2.2664
  754Sol     MW 6024   0.580   2.011   9.034  0.0982 -0.2291  0.5614
  755Sol     OW 6025   0.510   1.430   7.509  0.8987 -0.2940  0.1663
  755Sol     HW 6026   0.512   1.379   7.591  1.7658 -1.0162 -0.2916
  755Sol     HW 6027   0.588   1.485   7.514 -0.6537  1.8803  1.1944
  755Sol     MW 6028   0.517   1.430   7.517  0.0807 -0.1276  0.1466
  756Sol     OW 6029   3.013   2.362   1.690  0.1753 -0.0504  0.4521
  756Sol     HW 6030   3.035   2.455   1.700  2.7990 -0.6018  0.1369
  756Sol     HW 6031   3.022   2.345   1.596 -1.7904 -0.2912  0.2918
  756Sol     MW 6032   3.016   2.369   1.683  0.8596  0.0449  0.0677
  757Sol     OW 6033   2.902   1.806   6.948  0.0322  0.8346 -0.2141
  757Sol     HW 6034   2.890   1.742   7.018  0.3770 -1.8896 -2.5836
  757Sol     HW 6035   2.824   1.862   6.953 -0.3247  0.1868  1.8055
  757Sol     MW 6036   2.894   1.805   6.955  0.1462  0.0585 -0.0481
  758Sol     OW 6037   1.284   1.306   2.218  0.2341  0.2391  0.1171
  758Sol     HW 6038   1.319   1.225   2.255 -0.9665  0.0732  0.8982
  758Sol     HW 6039   1.214   1.278   2.159 -0.4280  0.7295  0.6677
  758Sol     MW 6040   1.281   1.296   2.216 -0.6563  0.0458 -0.3168
  759Sol     OW 6041   3.064   2.876   7.504  0.4633  0.2131  0.1528
  759Sol     HW 6042   3.117   2.801   7.475 -1.8129 -0.7199 -1.7485
  759Sol     HW 6043   3.037   2.853   7.593 -1.5466 -2.0412 -0.9783
  759Sol     MW 6044   3.067   2.867   7.510 -0.5477 -0.1381  0.3665
  760Sol     OW 6045   2.375   0.372   5.121  0.6287  0.9679  0.2649
  760Sol     HW 6046   2.288   0.401   5.150  0.2639  1.6321 -1.4315
  760Sol     HW 6047   2.434   0.443   5.147  0.2636  1.6834 -0.8365
  760Sol     MW 6048   2.372   0.381   5.126  0.3453  0.2646 -0.7923
  761Sol     OW 6049   2.382   1.900   2.240 -0.1784  0.6326  0.1925
  761Sol     HW 6050   2.395   1.806   2.227 -2.4254  0.3905 -0.5417
  761Sol     HW 6051   2.410   1.940   2.158  1.4473  0.6968  0.7569
  761Sol     MW 6052   2.386   1.895   2.231 -0.0578 -0.0418 -0.2415
  762Sol     OW 6053   2.153   1.268   3.726 -0.0138  0.2395 -0.2076
  762Sol     HW 6054   2.099   1.306   3.795 -0.5282 -0.2270 -0.3468
  762Sol     HW 6055   2.238   1.312   3.735  0.0035 -0.0006  0.8769
  762Sol     MW 6056   2.156   1.276   3.733  0.0147  0.3523 -0.2150
  763Sol     OW 6057   2.119   2.451   2.723 -0.1448 -0.5064  0.2040
  763Sol     HW 6058   2.046   2.513   2.727 -0.9050 -1.4340  0.8870
  763Sol     HW 6059   2.078   2.367   2.706  0.6507 -1.2465  1.8755
  763Sol     MW 6060   2.108   2.449   2.722  0.2527  0.1238 -0.1151
  764Sol     OW 6061   2.823   3.193   4.968 -0.0674  0.0071  0.4949
  764Sol     HW 6062   2.788   3.106   4.989  0.4998 -0.3848 -0.1491
  764Sol     HW 6063   2.778   3.252   5.028  1.4804 -1.0541  2.7624
  764Sol     MW 6064   2.816   3.190   4.975  0.2622 -0.0799 -0.2742
  765Sol     OW 6065   2.664   1.316   2.372 -0.2450 -0.1982 -0.1068
  765Sol     HW 6066   2.684   1.245   2.434 -0.8728  0.9400  1.4419
  765Sol     HW 6067   2.675   1.276   2.286  1.0117 -1.7285  0.7293
  765Sol     MW 6068   2.666   1.306   2.370  0.0594  0.2987  0.0772
  766Sol     OW 6069   1.146   0.270   5.836 -0.3627 -0.5338 -0.1972
  766Sol     HW 6070   1.087   0.308   5.901 -0.3324 -0.4453 -0.2220
  766Sol     HW 6071   1.217   0.333   5.828 -1.1304  0.2088 -1.4581
  766Sol     MW 6072   1.147   0.279   5.841  0.0736  0.3449  0.4888
  767Sol     OW 6073   0.238   2.579   3.526 -0.0743 -0.0238 -0.1248
  767Sol     HW 6074   0.282   2.529   3.594  2.4810  2.4637  0.1387
  767Sol     HW 6075   0.169   2.627   3.573 -0.8342 -1.2698  0.0444
  767Sol     MW 6076   0.236   2.579   3.536  0.5609  0.0069  0.7013
  768Sol     OW 6077   2.658   0.213   1.785  0.2556 -0.0065  0.1272
  768Sol     HW 6078   2.635   0.133   1.833 -0.4433  0.1464  0.0434
  768Sol     HW 6079   2.733   0.248   1.833 -0.3243  0.0457  1.0127
  768Sol     MW 6080   2.663   0.209   1.794  0.0277  0.1579 -0.4686
  769Sol     OW 6081   3.290   2.189   9.955 -0.2425  0.1635  0.4571
  769Sol     HW 6082   3.305   2.267  10.009  0.4478 -0.1736  0.7554
  769Sol     HW 6083   3.230   2.219   9.886  0.4302  1.0938  0.2645
  769Sol     MW 6084   3.286   2.199   9.953  0.0267 -0.0455 -0.3480
  770Sol     OW 6085   1.230   2.720   9.110  0.4443 -0.1050  0.1287
  770Sol     HW 6086   1.212   2.717   9.204  0.0072 -0.2909  0.0380
  770Sol     HW 6087   1.145   2.710   9.068  0.5642  0.5707 -0.2851
  770Sol     MW 6088   1.221   2.719   9.115  0.2648 -0.0680  0.4086
  771Sol     OW 6089   2.918   0.588   3.057  0.3776 -0.2338  0.3997
  771Sol     HW 6090   2.966   0.655   3.107  3.4123 -2.1124  0.1010
  771Sol     HW 6091   2.925   0.509   3.110 -2.8799 -0.4794  0.5664
  771Sol     MW 6092   2.923   0.587   3.067 -0.8112 -0.5032  0.2453
  772Sol     OW 6093   0.046   2.467   3.333  0.4228  0.6599 -0.3040
  772Sol     HW 6094   0.084   2.393   3.285 -0.1705 -1.2234  2.0022
  772Sol     HW 6095   0.090   2.465   3.418  0.5789  3.1654 -0.2802
  772Sol     MW 6096   0.054   2.460   3.336  1.1689 -0.5221 -0.0575
  773Sol     OW 6097   2.003   0.014   3.222  0.3977  0.0176 -0.2373
  773Sol     HW 6098   2.098   0.004   3.211  0.3217  0.1248 -0.9879
  773Sol     HW 6099   1.976  -0.063   3.272  0.9184  0.1018  0.1729
  773Sol     MW 6100   2.009   0.007   3.226  0.5938  0.5584  0.4170
  774Sol     OW 6101   3.236   0.386   8.053  0.6952 -0.1651  0.0376
  774Sol     HW 6102   3.256   0.349   8.139  1.1226 -1.4228 -0.5875
  774Sol     HW 6103   3.303   0.453   8.040  2.7634 -2.3113 -0.7599
  774Sol     MW 6104   3.244   0.389   8.060  0.8147 -0.1626  0.4609
  775Sol     OW 6105   1.304   2.258   5.328  0.1400  0.0500 -0.3086
  775Sol     HW 6106   1.311   2.284   5.420 -1.1082  1.4696 -0.5955
  775Sol     HW 6107   1.289   2.163   5.331 -0.8246  0.2354  0.9929
  775Sol     MW 6108   1.303   2.251   5.336 -0.1313  0.4650  0.0300
  776Sol     OW 6109   0.788   3.185   9.258 -0.2416 -0.2130  0.1192
  776Sol     HW 6110   0.768   3.244   9.185  0.3715 -0.8998 -0.6103
  776Sol     HW 6111   0.703   3.157   9.291 -0.5205 -0.2882 -0.6569
  776Sol     MW 6112   0.779   3.188   9.254  0.4016  0.1824  0.2676
  777Sol     OW 6113   0.722   2.197   2.631 -0.0645  0.2250  1.1046
  777Sol     HW 6114   0.633   2.223   2.651 -0.5602  0.2916 -1.1214
  777Sol     HW 6115   0.777   2.267   2.667 -0.9835  0.9127  1.1608
  777Sol     MW 6116   0.719   2.205   2.636  0.3152 -0.1577  0.4395
  778Sol     OW 6117   2.950   1.855   8.247 -0.2110 -0.3692 -0.2026
  778Sol     HW 6118   2.958   1.938   8.201  1.2615 -0.5751 -0.3131
  778Sol     HW 6119   2.860   1.856   8.281 -0.4817  0.8861 -0.9205
  778Sol     MW 6120   2.942   1.863   8.246 -0.1162  0.4760  0.3725
  779Sol     OW 6121   2.632   1.551   4.635 -0.4888  0.7976  0.2302
  779Sol     HW 6122   2.622   1.539   4.540  0.9442  1.2495  0.0178
  779Sol     HW 6123   2.547   1.583   4.664 -1.7748 -1.8017 -0.5055
  779Sol     MW 6124   2.623   1.552   4.629  0.3119  0.1795  0.6285
  780Sol     OW 6125   2.036   0.602   2.018  0.3416  0.0886  0.1196
  780Sol     HW 6126   2.102   0.551   2.065 -0.1951 -0.5133  0.2330
  780Sol     HW 6127   2.014   0.675   2.076 -0.7987 -1.0142  1.1001
  780Sol     MW 6128   2.040   0.604   2.027 -0.5845  0.2999  0.4910
  781Sol     OW 6129   3.122   1.207   9.388 -0.2806  0.1246 -0.5778
  781Sol     HW 6130   3.171   1.287   9.368 -1.2055  0.0783 -3.1718
  781Sol     HW 6131   3.084   1.223   9.474  2.2309  1.1429  0.4005
  781Sol     MW 6132   3.123   1.215   9.394  0.6590 -0.2623  0.2291
  782Sol     OW 6133   2.257   0.854   1.806 -0.5100  0.4057 -0.0621
  782Sol     HW 6134   2.267   0.919   1.737 -3.3855  1.2799  0.2489
  782Sol     HW 6135   2.198   0.789   1.769  1.8527 -1.7505 -0.1433
  782Sol     MW 6136   2.252   0.854   1.797 -0.3343 -0.1642  0.9355
  783Sol     OW 6137   2.550   2.581   3.804 -0.3145  0.0943  0.0118
  783Sol     HW 6138   2.608   2.505   3.807  0.3021  0.3583 -3.7795
  783Sol     HW 6139   2.607   2.655   3.824 -0.1969 -0.0338  0.1616
  783Sol     MW 6140   2.560   2.581   3.806 -0.5537 -0.0580 -0.1256
  784Sol     OW 6141   0.111   0.502   3.815  0.6978  0.3527 -0.4519
  784Sol     HW 6142   0.016   0.501   3.818  0.7348 -0.6905  1.2797
  784Sol     HW 6143   0.133   0.469   3.728 -0.5206 -0.2639 -0.5392
  784Sol     MW 6144   0.105   0.499   3.808 -0.1256  0.0946  0.7866
  785Sol     OW 6145   0.903   2.797   6.878 -0.5397 -0.0371  0.0327
  785Sol     HW 6146   0.891   2.741   6.801 -0.0710 -1.2578  0.8285
  785Sol     HW 6147   0.935   2.737   6.946 -0.2060  1.1726  0.9524
  785Sol     MW 6148   0.905   2.786   6.877  0.0835 -0.4273  0.8493
  786Sol     OW 6149   2.333   1.754   7.989 -0.1333  0.9500 -0.2723
  786Sol     HW 6150   2.330   1.664   7.956  0.8657  1.0430 -0.6274
  786Sol     HW 6151   2.247   1.768   8.029 -0.6162  0.1475 -1.0266
  786Sol     MW 6152   2.325   1.747   7.990 -0.1926 -0.3200 -0.3058
  787Sol     OW 6153   0.678   2.548   6.121 -0.0727  0.5910  0.3880
  787Sol     HW 6154   0.705   2.461   6.150 -0.3324  0.8754  1.5025
  787Sol     HW 6155   0.612   2.531   6.054  1.0138 -0.0783 -0.5167
  787Sol     MW 6156   0.674   2.539   6.118 -0.0346 -0.2723  0.3964
  788Sol     OW 6157   2.272   1.277   9.989 -0.1822  0.1479  0.3849
  788Sol     HW 6158   2.210   1.240   9.926 -0.7167 -0.5714  1.3246
  788Sol     HW 6159   2.356   1.236   9.967 -0.3273  0.0438  0.0258
  788Sol     MW 6160   2.274   1.270   9.982 -0.7064 -0.0072  0.4605
  789Sol     OW 6161   0.454   3.438   3.566  0.7032 -0.1616  0.1737
  789Sol     HW 6162   0.465   3.526   3.532 -1.8164  0.5617  1.1807
  789Sol     HW 6163   0.433   3.385   3.489  1.7141  0.1875 -0.3546
  789Sol     MW 6164   0.453   3.441   3.556 -0.1822  0.6049  0.1030
  790Sol     OW 6165   2.640   2.932   1.773  0.0485 -0.3061  0.5312
  790Sol     HW 6166   2.712   2.913   1.833 -1.0680 -1.9761  1.3638
  790Sol     HW 6167   2.564   2.888   1.811 -0.9343 -0.4382 -1.5026
  790Sol     MW 6168   2.639   2.927   1.782  0.3129 -0.0309 -0.2248
  791Sol     OW 6169   0.888   2.386   6.344  0.2409  0.0329 -0.2027
  791Sol     HW 6170   0.937   2.322   6.396  0.6204 -0.7650 -1.5079
  791Sol     HW 6171   0.800   2.349   6.339  0.3051 -0.0920 -0.4420
  791Sol     MW 6172   0.885   2.377   6.348  0.5482  0.0621 -0.1071
  792Sol     OW 6173   2.885   0.769   2.694 -0.5211 -0.2026  0.0888
  792Sol     HW 6174   2.841   0.735   2.616  2.2666 -0.6651 -1.3201
  792Sol     HW 6175   2.914   0.691   2.741 -1.8489  0.0838  1.4293
  792Sol     MW 6176   2.883   0.759   2.691 -0.1823  0.4914 -0.1663
  793Sol     OW 6177   1.543   2.193   3.206  0.1579  0.2478  0.2441
  793Sol     HW 6178   1.599   2.271   3.213 -0.0467  0.8150 -3.5646
  793Sol     HW 6179   1.468   2.213   3.262  1.0742  1.9104  0.9243
  793Sol     MW 6180   1.541   2.202   3.212  0.1558 -0.1376  0.2058
  794Sol     OW 6181   1.743   1.825   5.072 -0.3128  0.8034  0.2140
  794Sol     HW 6182   1.759   1.912   5.035  1.0789  0.3351 -0.3093
  794Sol     HW 6183   1.802   1.820   5.147  0.9845 -0.3705 -0.8472
  794Sol     MW 6184   1.750   1.832   5.075 -0.3373  0.6026 -0.1170
  795Sol     OW 6185   0.204   0.987   3.571 -0.3589 -0.0801  0.0873
  795Sol     HW 6186   0.158   1.069   3.591  0.1565  0.2907 -0.2395
  795Sol     HW 6187   0.176   0.966   3.482 -0.2239 -0.0810  0.0455
  795Sol     MW 6188   0.197   0.992   3.565  0.4271  0.1171 -0.1442
  796Sol     OW 6189   1.152   1.815   6.910  0.6814 -0.2489  0.2441
  796Sol     HW 6190   1.212   1.777   6.846 -0.0918 -0.8959 -0.1067
  796Sol     HW 6191   1.111   1.739   6.952  0.1194  0.1901  0.5003
  796Sol     MW 6192   1.154   1.805   6.908 -0.6498  0.1301  0.1663
  797Sol     OW 6193   1.422   3.159   9.484 -0.2518  0.0301  0.2002
  797Sol     HW 6194   1.481   3.231   9.509  1.5790 -0.9143 -1.2630
  797Sol     HW 6195   1.376   3.192   9.407 -0.8373  0.3610  0.6911
  797Sol     MW 6196   1.424   3.168   9.479  0.6111 -0.6890 -0.5604
  798Sol     OW 6197   1.035   1.101   7.432  0.1576  0.2469  0.2930
  798Sol     HW 6198   1.129   1.106   7.445  0.2846 -1.5522  0.1771
  798Sol     HW 6199   1.008   1.021   7.477 -1.1156  0.0636 -0.7515
  798Sol     MW 6200   1.041   1.094   7.437  0.3930  0.5936 -0.1223
  799Sol     OW 6201   2.428   3.422   6.209  0.1951 -0.0632  0.1306
  799Sol     HW 6202   2.406   3.500   6.158 -0.1776  0.4373  1.0530
  799Sol     HW 6203   2.381   3.433   6.291  0.5770 -1.0043  0.4806
  799Sol     MW 6204   2.422   3.430   6.211  0.4909 -0.1467 -0.1699
  800Sol     OW 6205   3.243   3.156   6.902  0.4055 -0.0609  0.0606
  800Sol     HW 6206   3.248   3.195   6.989 -0.6955  0.4184 -0.0877
  800Sol     HW 6207   3.334   3.135   6.880  0.9687  1.9543  0.3775
  800Sol     MW 6208   3.252   3.158   6.908  0.1752  0.0880  0.2606
  801Sol     OW 6209   2.301   0.258   3.185  0.4254  0.4732 -0.0084
  801Sol     HW 6210   2.248   0.279   3.109 -0.7651 -2.9582 -0.2370
  801Sol     HW 6211   2.389   0.245   3.151 -0.1262 -1.1496 -0.8684
  801Sol     MW 6212   2.304   0.258   3.175 -0.0798 -0.0947  0.4297
  802Sol     OW 6213   2.801   0.165   6.711 -0.0426  0.2009  0.2173
  802Sol     HW 6214   2.712   0.133   6.722 -0.5786  0.0069 -4.0166
  802Sol     HW 6215   2.793   0.260   6.719 -0.5068  0.1334  0.5833
  802Sol     MW 6216   2.792   0.171   6.713  0.0028  0.1586 -0.1740
  803Sol     OW 6217   2.868   2.668   8.966  0.2591 -0.4886 -0.4468
  803Sol     HW 6218   2.823   2.658   9.050  0.3751 -0.5606 -0.3925
  803Sol     HW 6219   2.798   2.690   8.904  0.0870 -1.0534 -0.4544
  803Sol     MW 6220   2.857   2.669   8.968  0.1048  0.4853 -0.1719
  804Sol     OW 6221   0.032   2.656   2.229  0.0008  0.1800 -0.1783
  804Sol     HW 6222   0.117   2.692   2.255 -1.0532  2.4316  0.2851
  804Sol     HW 6223   0.024   2.677   2.136  0.0904 -0.3338 -0.3040
  804Sol     MW 6224   0.039   2.661   2.223 -0.4553 -0.5339 -0.0191
  805Sol     OW 6225   0.606   2.173   5.674  0.1618 -0.1965 -0.1484
  805Sol     HW 6226   0.591   2.246   5.615  0.4963 -0.4494 -0.5595
  805Sol     HW 6227   0.636   2.213   5.756  0.6798  0.1134 -0.4822
  805Sol     MW 6228   0.608   2.183   5.676  0.6668 -0.1543  0.3850
  806Sol     OW 6229   0.886   0.781   1.498  0.4518 -0.4929  0.0821
  806Sol     HW 6230   0.882   0.867   1.540  1.3458 -0.6859  0.5477
  806Sol     HW 6231   0.887   0.801   1.404  1.3225  0.0366  0.1972
  806Sol     MW 6232   0.885   0.791   1.493 -0.2821  0.4274  0.0778
  807Sol     OW 6233   1.615   3.428   4.532 -0.8109  0.0225  0.3320
  807Sol     HW 6234   1.692   3.377   4.556 -0.3166 -0.0857 -1.4596
  807Sol     HW 6235   1.579   3.458   4.616 -0.1988 -1.9288  1.3229
  807Sol     MW 6236   1.618   3.426   4.542  0.1076 -0.2740  0.1666
  808Sol     OW 6237   1.538   3.175   1.752  0.1119  0.0467 -0.3057
  808Sol     HW 6238   1.472   3.162   1.820  0.3082 -2.8781 -0.6081
  808Sol     HW 6239   1.487   3.187   1.672 -0.0912  0.6412 -0.0857
  808Sol     MW 6240   1.527   3.174   1.751 -0.2785  0.1496 -0.0608
  809Sol     OW 6241   0.367   2.104   3.083 -0.2570  0.0536  0.3205
  809Sol     HW 6242   0.369   2.028   3.142  1.8799  1.6427  2.3887
  809Sol     HW 6243   0.305   2.164   3.124  0.9066  0.9837  0.7494
  809Sol     MW 6244   0.361   2.103   3.092 -0.1277  0.0058  0.2311
  810Sol     OW 6245   2.033   2.079   5.172 -0.1964 -0.0252 -0.2790
  810Sol     HW 6246   1.971   2.016   5.135 -0.5202  0.0735  0.0976
  810Sol     HW 6247   1.995   2.164   5.153 -0.4194  0.0241  0.3747
  810Sol     MW 6248   2.024   2.081   5.167 -0.0960 -0.7207  0.1744
  811Sol     OW 6249   2.417   2.653   1.514  0.0695  0.3706  0.0839
  811Sol     HW 6250   2.357   2.667   1.441 -1.3466 -3.0089  0.4833
  811Sol     HW 6251   2.369   2.683   1.591  1.0320  2.6483 -0.1593
  811Sol     MW 6252   2.408   2.657   1.515 -0.1639  0.0653  0.5007
  812Sol     OW 6253   0.327   1.291   7.944  0.3032  0.1529  0.3298
  812Sol     HW 6254   0.408   1.256   7.981  0.5652 -0.8996 -1.2079
  812Sol     HW 6255   0.260   1.230   7.973  0.1692  0.5887  0.9464
  812Sol     MW 6256   0.328   1.282   7.950  0.0236  0.0458  0.6036
  813Sol     OW 6257   1.208   2.396   3.944  0.1532  0.0996  0.5517
  813Sol     HW 6258   1.126   2.426   3.983  0.7748  0.4662  1.5987
  813Sol     HW 6259   1.214   2.444   3.861 -2.5878 -2.7956 -1.4305
  813Sol     MW 6260   1.202   2.403   3.940  0.1920  0.0622  0.0055
  814Sol     OW 6261   0.810   3.292   5.367  0.1062 -0.6270 -0.0836
  814Sol     HW 6262   0.871   3.231   5.408  2.0601 -0.1479 -2.1890
  814Sol     HW 6263   0.846   3.379   5.387  0.1363 -0.3383 -1.3157
  814Sol     MW 6264   0.818   3.295   5.372 -0.0596 -0.0103 -0.0176
  815Sol     OW 6265   1.986   1.753   1.798  0.2224 -0.1415 -0.3442
  815Sol     HW 6266   1.973   1.664   1.831  0.6236  0.0236  0.2634
  815Sol     HW 6267   1.902   1.797   1.812 -0.0413 -0.4832 -0.8380
  815Sol     MW 6268   1.977   1.749   1.802 -0.4566  0.0002  0.9233
  816Sol     OW 6269   1.231   0.002   7.694 -0.2615 -0.2455 -0.4057
  816Sol     HW 6270   1.160  -0.062   7.697 -0.7967  0.3613  0.1829
  816Sol     HW 6271   1.259   0.011   7.785  0.3733 -0.2560 -0.5945
  816Sol     MW 6272   1.227  -0.003   7.702  0.0593 -0.0170 -0.2393
  817Sol     OW 6273   1.889   2.921   1.658  0.2263  0.3132  0.8373
  817Sol     HW 6274   1.976   2.935   1.694  0.3574 -0.5455  0.8767
  817Sol     HW 6275   1.837   2.994   1.690  1.4027  1.8892 -0.7539
  817Sol     MW 6276   1.892   2.928   1.664 -0.4493 -0.1557  0.0090
  818Sol     OW 6277   0.236   1.202   2.850  0.1444  0.0065  0.4433
  818Sol     HW 6278   0.153   1.247   2.831  0.0378 -1.2140 -2.2056
  818Sol     HW 6279   0.300   1.246   2.794  0.6072 -1.2129  0.0015
  818Sol     MW 6280   0.234   1.210   2.843 -0.3129  0.4177  0.7151
  819Sol     OW 6281   0.344   3.023   9.324 -0.6334  0.3776  0.3710
  819Sol     HW 6282   0.285   3.089   9.361 -0.2330  1.3850 -0.7435
  819Sol     HW 6283   0.350   3.046   9.231  1.9642  0.6337  0.5748
  819Sol     MW 6284   0.339   3.031   9.319 -0.4547 -0.6548  0.4648
  820Sol     OW 6285   3.048   0.701   3.365 -0.6918 -0.3448  0.0265
  820Sol     HW 6286   2.974   0.723   3.421 -0.5273  0.5446 -0.1015
  820Sol     HW 6287   3.077   0.615   3.397 -0.3994  0.2900  1.5013
  820Sol     MW 6288   3.044   0.695   3.373 -0.1478 -0.3062  0.2397
  821Sol     OW 6289   1.835   1.373   7.274 -0.5109  0.2096  0.3620
  821Sol     HW 6290   1.911   1.412   7.231 -1.3421  1.8529  0.3108
  821Sol     HW 6291   1.806   1.304   7.214 -1.2414  2.0054 -1.4156
  821Sol     MW 6292   1.839   1.371   7.265  0.2069  0.0892 -0.4820
  822Sol     OW 6293   1.362   1.440   3.329 -0.0064  0.0477 -0.1857
  822Sol     HW 6294   1.446   1.486   3.340 -1.1315  2.0433  0.3347
  822Sol     HW 6295   1.308   1.501   3.279 -1.8150 -0.3908  1.1996
  822Sol     MW 6296   1.365   1.450   3.326  0.3300  0.0855  0.0332
  823Sol     OW 6297   2.100   0.561   9.026 -0.4348  0.1486 -0.4991
  823Sol     HW 6298   2.092   0.653   9.002  1.7037  0.4140 -0.2938
  823Sol     HW 6299   2.187   0.554   9.066 -1.1791 -1.6523  0.8758
  823Sol     MW 6300   2.107   0.568   9.027  0.0606  0.5523 -0.1972
  824Sol     OW 6301   1.504   1.797   3.169  0.1288  0.0367  0.1831
  824Sol     HW 6302   1.585   1.844   3.148  0.8560 -0.0855  2.6209
  824Sol     HW 6303   1.452   1.859   3.219 -0.2553 -0.6731  0.6775
  824Sol     MW 6304   1.507   1.807   3.171 -0.0099 -0.3519 -0.2568
  825Sol     OW 6305   0.670   2.173   4.235 -0.1173  0.0130  0.5492
  825Sol     HW 6306   0.579   2.155   4.258 -0.5616  2.4226  0.7803
  825Sol     HW 6307   0.664   2.237   4.164  1.4007 -0.3909  0.0420
  825Sol     MW 6308   0.661   2.177   4.231 -0.1973  0.0541 -0.0168
  826Sol     OW 6309   3.041   1.567   4.718  0.5219 -0.3478 -0.1760
  826Sol     HW 6310   2.963   1.619   4.733  0.3628 -0.6273 -0.0390
  826Sol     HW 6311   3.112   1.618   4.758  0.0870 -1.1667  1.6746
  826Sol     MW 6312   3.041   1.576   4.723 -0.1303 -0.3427 -0.3474
  827Sol     OW 6313   2.210   1.665   1.409  0.3167 -0.3638  0.1670
  827Sol     HW 6314   2.172   1.721   1.476  2.3797  0.7657  0.4205
  827Sol     HW 6315   2.294   1.706   1.388  0.9862 -2.2873 -1.0294
  827Sol     MW 6316   2.214   1.673   1.413  0.3336  0.4914 -0.5615
  828Sol     OW 6317   2.893   3.244   5.533 -0.1661  0.4403  0.1820
  828Sol     HW 6318   2.964   3.194   5.575 -1.5631 -0.7988  1.0929
  828Sol     HW 6319   2.875   3.315   5.595  1.2749  1.6278 -0.7409
  828Sol     MW 6320   2.898   3.246   5.543 -0.4724  0.0501  0.4927
  829Sol     OW 6321   0.063   1.297   1.977 -0.9466 -0.4484  0.0400
  829Sol     HW 6322   0.138   1.239   1.963 -1.4167 -1.0477 -0.0097
  829Sol     HW 6323  -0.012   1.250   1.939 -0.8036  1.6000 -3.0105
  829Sol     MW 6324   0.063   1.288   1.972 -0.2330 -0.5988 -0.7535
  830Sol     OW 6325   0.199   2.549   5.217  0.2812  0.2249  0.4289
  830Sol     HW 6326   0.220   2.459   5.193 -1.2426 -0.0528  0.0677
  830Sol     HW 6327   0.103   2.553   5.212  0.3534  1.9303  0.1915
  830Sol     MW 6328   0.192   2.541   5.215  0.3707 -0.0194 -0.4146
  831Sol     OW 6329   3.069   2.153   3.653  0.3180 -0.0801  0.2118
  831Sol     HW 6330   3.159   2.182   3.639  0.1685  0.2029 -0.1815
  831Sol     HW 6331   3.076   2.059   3.665  0.4116 -0.4629 -2.4681
  831Sol     MW 6332   3.078   2.147   3.653 -0.4552  0.2963  0.5009
  832Sol     OW 6333   0.516   1.090   3.378 -0.2346 -0.2818 -0.2666
  832Sol     HW 6334   0.610   1.077   3.372 -0.0913 -0.6006  2.4103
  832Sol     HW 6335   0.480   1.003   3.394 -1.0469 -0.2189 -1.6231
  832Sol     MW 6336   0.521   1.081   3.379 -0.3401 -0.3676 -0.4428
  833Sol     OW 6337   2.203   2.512   6.850  0.4661 -0.0104 -0.1612
  833Sol     HW 6338   2.188   2.579   6.917 -0.0399 -1.0829  0.8045
  833Sol     HW 6339   2.115   2.479   6.829  0.7361 -0.5531 -0.4494
  833Sol     MW 6340   2.193   2.515   6.854  0.2480  0.1913 -0.1724
  834Sol     OW 6341   0.848   3.270   5.104 -0.2941  0.8932 -0.0226
  834Sol     HW 6342   0.848   3.278   5.200 -0.5338 -1.5199  0.2208
  834Sol     HW 6343   0.940   3.254   5.082 -0.0461  2.6764 -0.3375
  834Sol     MW 6344   0.856   3.269   5.111  0.3987  0.0263 -0.0896
  835Sol     OW 6345   2.571   2.172   4.860 -0.1466  0.4604  0.6372
  835Sol     HW 6346   2.593   2.150   4.950 -1.1648 -1.0446  0.5366
  835Sol     HW 6347   2.501   2.237   4.867 -0.7346 -0.2057  0.9291
  835Sol     MW 6348   2.567   2.176   4.869 -0.0779 -0.6837 -0.6983
  836Sol     OW 6349   0.202   1.751   4.149  0.9381 -0.2232  0.0048
  836Sol     HW 6350   0.162   1.755   4.062  0.4497  0.2718  0.2505
  836Sol     HW 6351   0.193   1.839   4.184  0.5888 -0.5672  0.8019
  836Sol     MW 6352   0.197   1.759   4.144 -0.5329  0.9159  0.1217
  837Sol     OW 6353   2.937   1.359   8.703 -0.1842  0.1322 -0.2725
  837Sol     HW 6354   2.938   1.365   8.799  2.4809 -0.8539 -0.1865
  837Sol     HW 6355   2.962   1.268   8.685 -0.2132  0.4389 -1.9047
  837Sol     MW 6356   2.940   1.351   8.710 -0.2383 -0.1367 -0.0669
  838Sol     OW 6357   0.204   1.986   9.580 -0.3027 -0.1542  0.2452
  838Sol     HW 6358   0.175   2.032   9.659  1.0585  0.0007  0.6642
  838Sol     HW 6359   0.204   2.053   9.512  1.9411  0.5635  0.9155
  838Sol     MW 6360   0.201   1.996   9.581  0.2371 -0.4740  1.4417
  839Sol     OW 6361   1.595   3.431   9.773  0.1240  0.2946  0.3765
  839Sol     HW 6362   1.562   3.504   9.825  0.4193  0.0613  0.8841
  839Sol     HW 6363   1.553   3.354   9.810  2.3238 -0.1771  1.9429
  839Sol     MW 6364   1.588   3.431   9.781  0.8954 -0.5371 -0.3549
  840Sol     OW 6365   3.231   1.423   9.249 -0.0522 -0.0892  0.0082
  840Sol     HW 6366   3.187   1.407   9.166 -2.9219  2.2069  0.9675
  840Sol     HW 6367   3.286   1.500   9.234  0.8575 -0.7898 -0.2507
  840Sol     MW 6368   3.232   1.428   9.240 -0.6891 -0.2350 -0.2002
  841Sol     OW 6369   1.496   1.896   2.582  0.1081  0.3801  0.1604
  841Sol     HW 6370   1.440   1.841   2.528  0.1688  0.0972  0.3870
  841Sol     HW 6371   1.576   1.845   2.593  1.0307  1.4012 -1.4418
  841Sol     MW 6372   1.498   1.887   2.578  0.6880  0.3237  0.1128
  842Sol     OW 6373   1.102   2.361   8.335 -0.6607 -0.3273 -0.2464
  842Sol     HW 6374   1.065   2.428   8.278 -1.4678 -0.7325 -0.2095
  842Sol     HW 6375   1.030   2.301   8.352 -0.1345 -0.8218  0.2979
  842Sol     MW 6376   1.092   2.362   8.332 -0.1735  0.2685  0.3380
  843Sol     OW 6377   0.005   0.054   4.308 -0.7232  0.2648  0.1818
  843Sol     HW 6378  -0.032   0.134   4.271 -0.0094 -0.1081 -1.3927
  843Sol     HW 6379   0.076   0.085   4.365 -0.5917  0.7672 -0.2483
  843Sol     MW 6380   0.008   0.064   4.310  0.4386 -0.0464  0.5953
  844Sol     OW 6381   0.897   1.378   7.188  0.1815 -0.5924 -0.3291
  844Sol     HW 6382   0.857   1.297   7.218  2.5329 -0.9928  1.9318
  844Sol     HW 6383   0.937   1.356   7.105  1.0091 -1.8236  0.3836
  844Sol     MW 6384   0.897   1.369   7.183  0.7336 -0.5806 -0.0243
  845Sol     OW 6385   0.973   0.995   8.595 -0.4075  0.0883  0.5440
  845Sol     HW 6386   0.960   0.995   8.500  0.0194 -0.7269  0.4853
  845Sol     HW 6387   0.928   1.074   8.625 -1.7962 -0.4122 -0.1607
  845Sol     MW 6388   0.968   1.002   8.589 -0.0884 -0.2251 -0.2583
  846Sol     OW 6389   0.093   1.597   8.791 -0.5390  0.0147  0.6992
  846Sol     HW 6390   0.013   1.631   8.832 -0.6957 -0.1984  0.5652
  846Sol     HW 6391   0.111   1.516   8.838 -0.4980 -0.0263  0.6118
  846Sol     MW 6392   0.087   1.593   8.799  0.0402  0.4535  0.2744
  847Sol     OW 6393   2.435   0.771   5.188  0.2052 -0.1510  0.2232
  847Sol     HW 6394   2.353   0.772   5.238 -0.1106  0.6691 -0.3004
  847Sol     HW 6395   2.483   0.696   5.223 -1.0790 -1.0877  0.0453
  847Sol     MW 6396   2.432   0.764   5.196  0.0831 -0.3140 -0.5473
  848Sol     OW 6397   3.089   0.059   3.491  0.1522  0.1966  0.6951
  848Sol     HW 6398   3.003   0.020   3.505  0.1163  0.4194  1.0870
  848Sol     HW 6399   3.072   0.152   3.482  0.1310  0.0353 -1.1582
  848Sol     MW 6400   3.080   0.064   3.491  0.3990 -0.0101  0.0675
  849Sol     OW 6401   2.260   1.896   6.351  0.7376  0.0573 -0.1874
  849Sol     HW 6402   2.333   1.856   6.304  0.6578  1.8085 -1.8691
  849Sol     HW 6403   2.298   1.927   6.433  1.8659  0.8562 -1.0037
  849Sol     MW 6404   2.270   1.895   6.354  0.3957  0.2867 -0.1345
  850Sol     OW 6405   1.665   1.630   5.462 -0.4675 -0.0300 -0.1258
  850Sol     HW 6406   1.706   1.546   5.483 -1.3299 -0.8314 -1.5626
  850Sol     HW 6407   1.727   1.674   5.404  0.1439  0.4924  0.9094
  850Sol     MW 6408   1.674   1.627   5.458  0.7023 -0.3571 -0.2253
  851Sol     OW 6409   0.624   2.819   6.891  0.3816  0.4858 -0.6112
  851Sol     HW 6410   0.610   2.912   6.911  2.1796  0.7099 -0.2590
  851Sol     HW 6411   0.718   2.813   6.873  0.5412 -1.5174  0.7330
  851Sol     MW 6412   0.631   2.827   6.891  0.3372  0.1361 -0.0339
  852Sol     OW 6413   1.173   1.013   7.187  0.1662 -0.0656  0.2570
  852Sol     HW 6414   1.102   1.057   7.233 -1.1664 -3.4675  1.6058
  852Sol     HW 6415   1.143   1.008   7.096 -1.6611 -2.0365  0.9365
  852Sol     MW 6416   1.164   1.017   7.183  0.1188 -0.1456 -0.0540
  853Sol     OW 6417   0.096   2.202   5.712  0.2013  0.0533 -0.5017
  853Sol     HW 6418   0.033   2.145   5.669 -2.0366  1.4863  0.7378
  853Sol     HW 6419   0.147   2.144   5.768  0.7576 -1.2970 -2.3767
  853Sol     MW 6420   0.095   2.192   5.713 -0.4956 -0.0365  0.0888
  854Sol     OW 6421   2.823   0.866   4.575  0.2094  0.6103 -0.1062
  854Sol     HW 6422   2.775   0.813   4.512  0.4560 -0.1542  0.3227
  854Sol     HW 6423   2.757   0.894   4.638  0.4568 -1.3303  1.0792
  854Sol     MW 6424   2.813   0.863   4.575  0.2547  0.3061 -0.0472
  855Sol     OW 6425   0.933   0.950   4.101  0.6440  0.1848  0.4605
  855Sol     HW 6426   0.908   1.042   4.100  0.0686  0.0335  0.5815
  855Sol     HW 6427   0.885   0.912   4.027  1.3408  0.1009  0.0465
  855Sol     MW 6428   0.927   0.955   4.094 -0.4605 -0.3942  0.0475
  856Sol     OW 6429   0.221   0.432   3.559  0.5640  0.1483  0.0687
  856Sol     HW 6430   0.294   0.489   3.534 -0.7102  0.1589 -4.0733
  856Sol     HW 6431   0.243   0.347   3.521 -1.8080  0.3108 -1.8049
  856Sol     MW 6432   0.229   0.429   3.553 -0.3701  0.3651 -0.1486
  857Sol     OW 6433   0.456   0.586   4.358 -0.2979 -0.0286 -0.2956
  857Sol     HW 6434   0.547   0.567   4.378 -0.2121 -1.4987 -2.0108
  857Sol     HW 6435   0.454   0.680   4.338  0.8384  0.0002 -0.2559
  857Sol     MW 6436   0.464   0.593   4.358  0.1347  0.5519 -0.4384
  858Sol     OW 6437   3.025   2.849   7.773 -0.2342  0.2552  0.7564
  858Sol     HW 6438   3.090   2.844   7.842 -0.6412  0.5988  1.1640
  858Sol     HW 6439   2.944   2.873   7.817 -0.4925  0.4956  0.1632
  858Sol     MW 6440   3.024   2.850   7.783  0.1072 -0.0063 -0.0057
  859Sol     OW 6441   0.465   1.874   6.523  0.4123 -0.1053  0.0431
  859Sol     HW 6442   0.536   1.836   6.472 -0.2126 -1.2168 -0.0106
  859Sol     HW 6443   0.448   1.959   6.482 -0.7810 -1.4174 -2.2539
  859Sol     MW 6444   0.470   1.878   6.515 -0.2901  0.5084 -0.2970
  860Sol     OW 6445   2.493   1.569   8.625 -0.7023 -0.5590 -0.1581
  860Sol     HW 6446   2.545   1.589   8.703 -1.7257 -0.6499  0.5578
  860Sol     HW 6447   2.403   1.589   8.650 -1.4474 -3.4817 -0.2996
  860Sol     MW 6448   2.490   1.573   8.634  0.5448  0.3928  0.2002
  861Sol     OW 6449   1.599   1.754   6.153  0.3744  0.5355  0.4006
  861Sol     HW 6450   1.638   1.719   6.073  0.9731  0.1109  0.8765
  861Sol     HW 6451   1.520   1.799   6.123 -0.3032 -1.0232 -0.2559
  861Sol     MW 6452   1.595   1.755   6.143 -0.6360 -0.3233 -0.6658
  862Sol     OW 6453   0.533   2.411   8.005 -0.2264 -0.0297  0.4354
  862Sol     HW 6454   0.588   2.441   7.932  0.4710 -2.0296  0.1175
  862Sol     HW 6455   0.450   2.459   7.994  0.6964  1.4429 -0.2827
  862Sol     MW 6456   0.530   2.418   7.997 -0.4793 -0.4183 -0.2291
  863Sol     OW 6457   2.171   0.188   3.559  0.2530 -0.0578 -0.2354
  863Sol     HW 6458   2.150   0.223   3.645  0.7740 -0.8984  0.2380
  863Sol     HW 6459   2.095   0.210   3.505  0.1313  0.8907  0.3103
  863Sol     MW 6460   2.162   0.193   3.562  0.2375 -0.0141  0.1336
  864Sol     OW 6461   2.332   2.004   2.964 -0.3924  0.7053 -0.2264
  864Sol     HW 6462   2.322   2.003   3.059  0.6723  1.1501 -0.0997
  864Sol     HW 6463   2.311   1.915   2.936  2.2084 -0.2293  0.7345
  864Sol     MW 6464   2.329   1.996   2.970 -0.4593 -0.1346 -0.0457
  865Sol     OW 6465   1.102   3.200   5.060 -0.4519  0.0662  0.7127
  865Sol     HW 6466   1.114   3.294   5.048 -1.9448  0.4431  1.9896
  865Sol     HW 6467   1.105   3.163   4.972  0.0806  1.3206  0.2037
  865Sol     MW 6468   1.103   3.205   5.051  0.3711  0.1354 -0.1518
  866Sol     OW 6469   0.188   1.878   8.758  0.0427  0.1067  0.7986
  866Sol     HW 6470   0.238   1.917   8.830  0.5182  0.1488  0.4457
  866Sol     HW 6471   0.192   1.783   8.774 -1.0490  0.1798  1.6124
  866Sol     MW 6472   0.193   1.873   8.766  0.1154 -0.1145 -0.1721
  867Sol     OW 6473   2.909   1.634   5.683  0.0659  0.3922  0.3146
  867Sol     HW 6474   2.997   1.670   5.694  0.3791  0.5764 -2.4325
  867Sol     HW 6475   2.922   1.555   5.630 -1.5151  0.9416 -0.9312
  867Sol     MW 6476   2.918   1.630   5.679  0.2255  0.0297  0.0797
  868Sol     OW 6477   2.119   0.571   6.514  0.3241  0.2975 -0.0461
  868Sol     HW 6478   2.057   0.637   6.543  0.5793  0.6653 -0.3217
  868Sol     HW 6479   2.100   0.559   6.421  0.5188  0.2473 -0.0798
  868Sol     MW 6480   2.112   0.576   6.508 -0.0066 -0.5642 -0.2021
  869Sol     OW 6481   1.517   3.416   9.511 -0.0195 -0.0166  0.1565
  869Sol     HW 6482   1.426   3.445   9.502 -0.2671 -0.7045  0.4151
  869Sol     HW 6483   1.543   3.443   9.598  0.1668  0.5780 -0.0863
  869Sol     MW 6484   1.511   3.421   9.518  0.1386  0.2669  0.1420
  870Sol     OW 6485   0.290   1.674   9.078 -0.7535  0.0945 -0.3411
  870Sol     HW 6486   0.323   1.640   9.161  1.5368  1.3795 -0.6795
  870Sol     HW 6487   0.347   1.633   9.012 -0.7465  1.2567 -1.0597
  870Sol     MW 6488   0.298   1.667   9.079 -0.5133 -0.4858 -0.4852
  871Sol     OW 6489   1.212   2.127   2.157  0.3496  0.2029 -0.1255
  871Sol     HW 6490   1.283   2.075   2.120  0.2408 -1.1147  1.4372
  871Sol     HW 6491   1.181   2.181   2.085  0.6426 -1.7253 -1.7314
  871Sol     MW 6492   1.215   2.127   2.148  0.4277  0.0433 -0.4968
  872Sol     OW 6493   3.016   1.689   3.333 -0.0910 -0.2736  0.2289
  872Sol     HW 6494   2.936   1.677   3.384  1.4399 -1.6251  2.4310
  872Sol     HW 6495   3.033   1.602   3.295 -1.0112  0.6280 -2.3473
  872Sol     MW 6496   3.010   1.680   3.334  0.1474 -0.8122  0.7427
  873Sol     OW 6497   1.591   2.589   4.814 -0.6888  0.0102  0.7101
  873Sol     HW 6498   1.574   2.499   4.841 -1.1214  0.3270  1.5069
  873Sol     HW 6499   1.639   2.580   4.732  0.8262 -0.9737  1.6685
  873Sol     MW 6500   1.593   2.580   4.809  0.3694  0.3444  0.2534
  874Sol     OW 6501   1.303   1.794   6.432  0.0405  0.2972  0.3062
  874Sol     HW 6502   1.277   1.864   6.372 -0.6204 -0.7212 -0.6228
  874Sol     HW 6503   1.399   1.800   6.435  0.0187  0.9367 -0.1430
  874Sol     MW 6504   1.309   1.801   6.427  0.0600 -0.0931 -0.1777
  875Sol     OW 6505   0.289   1.265   3.846  0.0239 -0.1526  0.3555
  875Sol     HW 6506   0.288   1.293   3.755  0.0083  0.2498  0.4803
  875Sol     HW 6507   0.376   1.226   3.858 -0.7129 -2.0927 -0.4028
  875Sol     MW 6508   0.297   1.264   3.839 -0.4282 -0.2340 -0.3715
  876Sol     OW 6509   0.958   1.485   3.648 -0.1733  0.1981  0.2274
  876Sol     HW 6510   0.904   1.412   3.618 -0.7781  0.2439  1.2082
  876Sol     HW 6511   0.908   1.563   3.625  0.0246  0.2756  0.0586
  876Sol     MW 6512   0.949   1.485   3.643 -0.3180 -0.3750  0.0309
  877Sol     OW 6513   1.963   2.613   2.843  0.1501  0.2319 -0.2473
  877Sol     HW 6514   1.889   2.574   2.889 -0.5056 -2.5622 -3.5094
  877Sol     HW 6515   2.038   2.594   2.900 -1.1569  0.4530  1.6142
  877Sol     MW 6516   1.963   2.608   2.852  0.1656  0.0197 -0.5654
  878Sol     OW 6517   0.553   0.167   8.229  0.0804 -0.1592  0.2604
  878Sol     HW 6518   0.611   0.175   8.305  0.1936  0.9530  0.0757
  878Sol     HW 6519   0.465   0.183   8.264  0.1782  0.7937  0.0983
  878Sol     MW 6520   0.551   0.169   8.239  0.5443 -0.1943  0.1814
  879Sol     OW 6521   0.363   1.670   3.681  0.0895  0.0768  0.5987
  879Sol     HW 6522   0.437   1.675   3.742  1.6312  0.5647 -1.2146
  879Sol     HW 6523   0.366   1.581   3.647  0.1366  0.2318  0.1893
  879Sol     MW 6524   0.370   1.663   3.683  0.2202 -0.1022  0.0072
  880Sol     OW 6525   1.615   0.632   1.996  0.2608  0.0126  0.0399
  880Sol     HW 6526   1.699   0.594   2.022 -0.2628  0.5809  2.7767
  880Sol     HW 6527   1.636   0.690   1.923  2.0973 -0.5780  0.0777
  880Sol     MW 6528   1.624   0.634   1.992  0.2864 -0.5756  0.3039
  881Sol     OW 6529   3.142   0.202   2.984  0.0672 -0.0039  0.0399
  881Sol     HW 6530   3.118   0.258   3.058 -0.4997 -0.5456  0.2719
  881Sol     HW 6531   3.195   0.132   3.024  1.6603  0.9333 -0.3989
  881Sol     MW 6532   3.145   0.201   2.994 -0.0236 -0.5099 -0.5255
  882Sol     OW 6533   1.498   1.484   2.104  0.0128  0.0192 -0.2366
  882Sol     HW 6534   1.434   1.413   2.113 -0.1679 -0.0534 -1.9723
  882Sol     HW 6535   1.447   1.564   2.109 -0.4164 -0.0536 -2.8803
  882Sol     MW 6536   1.488   1.485   2.105  0.0730 -0.7108  0.0565
  883Sol     OW 6537   1.229   3.353   5.879 -0.1667 -0.5738  0.1948
  883Sol     HW 6538   1.203   3.407   5.804 -0.7889 -0.5961  0.3913
  883Sol     HW 6539   1.161   3.368   5.944 -0.4899 -1.7872  0.1551
  883Sol     MW 6540   1.220   3.359   5.878 -0.1390 -0.0957  0.0808
  884Sol     OW 6541   2.255   3.060   7.511 -0.1697  0.2201  0.4226
  884Sol     HW 6542   2.306   3.058   7.592  0.5502  1.1193 -0.0068
  884Sol     HW 6543   2.167   3.033   7.538  0.4504 -1.0627  1.2156
  884Sol     MW 6544   2.251   3.057   7.521 -0.8232 -0.4651  0.2275
  885Sol     OW 6545   1.770   0.314   7.957  0.1644  0.0698  0.0534
  885Sol     HW 6546   1.788   0.244   7.894  1.7615 -0.0565  0.6214
  885Sol     HW 6547   1.771   0.394   7.905 -1.3346 -0.2830 -0.5433
  885Sol     MW 6548   1.772   0.315   7.947  0.0273 -0.1772  0.3369
  886Sol     OW 6549   2.644   1.332   7.265 -0.2002  0.4067 -0.5368
  886Sol     HW 6550   2.620   1.421   7.240 -1.0148  0.5312  0.6894
  886Sol     HW 6551   2.641   1.331   7.361  1.1396 -0.5656 -0.4829
  886Sol     MW 6552   2.642   1.340   7.271 -0.0145 -0.0245 -0.0180
  887Sol     OW 6553   1.013   0.844   9.419  0.7445 -0.3363  0.3262
  887Sol     HW 6554   1.033   0.805   9.334  3.4960 -0.6571  1.0410
  887Sol     HW 6555   0.918   0.841   9.426  0.5107 -0.8114 -2.4893
  887Sol     MW 6556   1.007   0.840   9.412 -0.0329  0.3060  0.4310
  888Sol     OW 6557   1.183   1.399   7.788  0.4735 -0.2267  0.0996
  888Sol     HW 6558   1.124   1.324   7.791 -0.3066  0.4061  0.8117
  888Sol     HW 6559   1.271   1.361   7.782 -0.0238 -1.1747 -1.7509
  888Sol     MW 6560   1.186   1.389   7.787  0.3668 -0.2754 -0.1896
  889Sol     OW 6561   0.770   1.938   4.103 -0.0355  0.3948 -0.7183
  889Sol     HW 6562   0.730   2.010   4.153  0.1253  0.8714 -1.2708
  889Sol     HW 6563   0.829   1.896   4.165 -1.2198 -0.1798  0.0518
  889Sol     MW 6564   0.771   1.941   4.113  0.1738  0.0213 -0.2776
  890Sol     OW 6565   3.280   0.108   6.345  0.1492  0.7189  0.3986
  890Sol     HW 6566   3.245   0.189   6.307 -0.0367 -0.0722 -1.1834
  890Sol     HW 6567   3.288   0.127   6.438  2.2269  3.3273 -0.2424
  890Sol     MW 6568   3.278   0.117   6.350  0.8370  0.2665  0.4570
  891Sol     OW 6569   2.679   0.125   4.915  0.4560  0.0880  0.1387
  891Sol     HW 6570   2.667   0.052   4.855 -1.2662  1.7313 -1.5966
  891Sol     HW 6571   2.744   0.181   4.873  0.4387  0.4377  0.5709
  891Sol     MW 6572   2.684   0.124   4.906  0.5379 -0.8237 -0.1143
  892Sol     OW 6573   3.043   1.502   4.004  0.3949  0.2597  0.0147
  892Sol     HW 6574   3.020   1.420   4.048  0.6570  0.5136  0.6317
  892Sol     HW 6575   3.103   1.475   3.934  0.4358 -0.0829  0.1812
  892Sol     MW 6576   3.047   1.492   4.002 -0.0361  0.3007  0.1457
  893Sol     OW 6577   2.901   0.059   1.715 -0.1976  0.1758  0.0891
  893Sol     HW 6578   2.906   0.080   1.622  1.2171 -0.8606 -0.0949
  893Sol     HW 6579   2.828   0.111   1.748 -0.8123  0.4336 -1.6313
  893Sol     MW 6580   2.895   0.065   1.710  0.4259  0.1544  0.3528
  894Sol     OW 6581   0.839   2.105   9.404 -0.2578 -0.3441  0.0041
  894Sol     HW 6582   0.895   2.085   9.329  1.7886 -1.0185  1.6741
  894Sol     HW 6583   0.774   2.166   9.369  0.8473 -0.3982 -2.2418
  894Sol     MW 6584   0.838   2.109   9.394 -0.2879  0.0782 -0.1913
  895Sol     OW 6585   2.280   2.189   4.413 -0.2515  0.3245 -0.0236
  895Sol     HW 6586   2.247   2.267   4.368 -0.2516 -0.0879 -0.7417
  895Sol     HW 6587   2.375   2.203   4.419 -0.3289  0.6762  0.4325
  895Sol     MW 6588   2.286   2.197   4.410  0.2185  0.1864 -0.2107
  896Sol     OW 6589   3.265   2.967   1.587  0.7124 -0.1593 -0.1214
  896Sol     HW 6590   3.345   3.020   1.594  1.9901 -2.1247  0.6111
  896Sol     HW 6591   3.220   3.002   1.510  2.3410  0.8918 -0.6266
  896Sol     MW 6592   3.268   2.975   1.581  0.1887 -0.4696 -0.1858
  897Sol     OW 6593   0.041   0.430   5.917  0.2766  0.3981 -0.0805
  897Sol     HW 6594   0.085   0.347   5.935 -1.7251 -0.3801  1.4134
  897Sol     HW 6595   0.101   0.497   5.949 -0.1128 -0.6884  3.0990
  897Sol     MW 6596   0.050   0.429   5.921  0.3816 -0.4275  0.1451
  898Sol     OW 6597   1.406   1.470   7.998 -0.3128  0.3065 -0.1175
  898Sol     HW 6598   1.397   1.563   8.018 -0.3103  0.1173  0.7635
  898Sol     HW 6599   1.496   1.462   7.963  1.0270  0.0507  3.2363
  898Sol     MW 6600   1.414   1.478   7.996 -0.0124 -0.3242 -0.2529
  899Sol     OW 6601   3.203   1.644   5.391 -0.2244  0.2421 -0.7259
  899Sol     HW 6602   3.126   1.588   5.378 -0.6235  0.6134 -0.0166
  899Sol     HW 6603   3.195   1.712   5.324  1.0184 -1.3407 -2.5085
  899Sol     MW 6604   3.195   1.645   5.384  0.4494  0.3415 -0.2074
  900Sol     OW 6605   2.770   2.296   5.847 -0.0348  0.1933  0.0685
  900Sol     HW 6606   2.821   2.372   5.873  1.2556 -0.2528 -1.1148
  900Sol     HW 6607   2.797   2.278   5.756 -2.0720 -0.2234 -0.4755
  900Sol     MW 6608   2.777   2.301   5.841  0.2038 -0.2070  0.1423
  901Sol     OW 6609   0.740   0.414   3.024  0.1233 -0.1453 -0.2194
  901Sol     HW 6610   0.688   0.353   3.077 -0.6807 -0.0976 -0.9513
  901Sol     HW 6611   0.723   0.500   3.064 -0.2662 -0.1463 -0.3798
  901Sol     MW 6612   0.734   0.416   3.033  0.8051  0.2202  0.2846
  902Sol     OW 6613   3.127   0.133   9.210 -0.2410  0.1178  0.1245
  902Sol     HW 6614   3.081   0.111   9.291 -2.6243 -1.5158 -1.5723
  902Sol     HW 6615   3.066   0.190   9.163 -0.0660 -1.1278 -1.6721
  902Sol     MW 6616   3.117   0.136   9.213  1.1500  0.4212 -0.1860
  903Sol     OW 6617   1.191   0.017   5.617 -0.3541  0.3705 -0.2456
  903Sol     HW 6618   1.265  -0.040   5.597 -0.0301  0.4428  0.7134
  903Sol     HW 6619   1.228   0.105   5.622 -0.9967  0.7911 -2.5384
  903Sol     MW 6620   1.201   0.019   5.616  0.1075 -0.3478  0.8739
  904Sol     OW 6621   1.581   2.667   4.046  0.5139  0.1158 -0.4903
  904Sol     HW 6622   1.499   2.654   4.093  0.3831 -0.4977 -0.8843
  904Sol     HW 6623   1.649   2.637   4.107  0.2257 -2.3782 -1.3489
  904Sol     MW 6624   1.580   2.663   4.056  0.3619  0.3446 -0.1210
  905Sol     OW 6625   1.731   0.627   9.532 -0.4837 -0.2935  0.1824
  905Sol     HW 6626   1.683   0.699   9.574  0.4861  0.0944  0.6621
  905Sol     HW 6627   1.664   0.564   9.507 -1.0765 -0.6136  2.5012
  905Sol     MW 6628   1.721   0.628   9.534 -0.0290  0.4395 -0.9384
  906Sol     OW 6629   0.520   0.469   5.668  0.4383 -0.9221  0.2616
  906Sol     HW 6630   0.471   0.412   5.608  0.5520 -0.8123  0.0614
  906Sol     HW 6631   0.596   0.416   5.693  1.5052 -0.2114 -1.3535
  906Sol     MW 6632   0.522   0.459   5.665 -0.2896  0.0743  0.3907
  907Sol     OW 6633   3.146   3.403   8.286 -0.3677  0.0963  0.4464
  907Sol     HW 6634   3.133   3.322   8.336  0.7997 -0.7519 -0.6111
  907Sol     HW 6635   3.215   3.449   8.334 -1.3351  0.7044  1.3001
  907Sol     MW 6636   3.151   3.400   8.295  0.1202  0.0739 -0.3475
  908Sol     OW 6637   1.225   0.129   3.286  0.4882 -0.2861 -0.0985
  908Sol     HW 6638   1.225   0.191   3.359  0.7795 -0.0014 -0.3357
  908Sol     HW 6639   1.147   0.151   3.236  0.1991 -0.5890  0.2136
  908Sol     MW 6640   1.218   0.136   3.288 -0.3784 -0.3246  0.1323
  909Sol     OW 6641   0.704   3.400   9.110 -0.3444  0.2743  0.3722
  909Sol     HW 6642   0.744   3.480   9.145  0.7098 -0.4032  0.7403
  909Sol     HW 6643   0.647   3.431   9.040  0.6096  1.2883  0.0317
  909Sol     MW 6644   0.703   3.410   9.107 -0.3064 -0.0893 -0.7639
  910Sol     OW 6645   2.590   1.277   5.308  0.7761 -0.0497  0.7568
  910Sol     HW 6646   2.561   1.282   5.217  0.5900 -1.1365  0.7467
  910Sol     HW 6647   2.608   1.184   5.322 -1.5679 -0.2933  2.5326
  910Sol     MW 6648   2.589   1.269   5.301 -0.0466 -0.4060 -0.5548
  911Sol     OW 6649   2.858   0.242   6.351 -0.3347  0.3551  0.1100
  911Sol     HW 6650   2.835   0.309   6.416 -0.1212  0.4597  0.0784
  911Sol     HW 6651   2.774   0.210   6.319 -0.4410  0.1375  0.6085
  911Sol     MW 6652   2.848   0.245   6.354 -0.0726 -0.7746 -0.5964
  912Sol     OW 6653   2.362   2.335   4.849 -0.0298  0.1915 -0.1553
  912Sol     HW 6654   2.317   2.372   4.773  0.8409  1.2766 -0.1554
  912Sol     HW 6655   2.300   2.273   4.886 -0.7270  0.1679 -1.3522
  912Sol     MW 6656   2.353   2.333   4.845  0.4630  0.1621  0.3160
  913Sol     OW 6657   0.539   1.797   7.206  0.6360 -0.1300  0.0747
  913Sol     HW 6658   0.500   1.794   7.118  1.4359 -2.6052 -0.2239
  913Sol     HW 6659   0.583   1.882   7.209  1.6660 -0.5114 -2.4024
  913Sol     MW 6660   0.539   1.804   7.198  0.3345  0.2141  0.3118
  914Sol     OW 6661   1.596   0.081   1.586 -0.7942  0.1504  0.1976
  914Sol     HW 6662   1.672   0.031   1.557 -2.0701 -1.4332 -0.5610
  914Sol     HW 6663   1.622   0.172   1.578  1.1469 -0.3635  0.3339
  914Sol     MW 6664   1.605   0.084   1.583  0.3280  0.4811  0.0769
  915Sol     OW 6665   0.254   2.691   2.016  0.4432  0.1946 -0.0709
  915Sol     HW 6666   0.269   2.776   1.975  1.1543  0.1185  0.0296
  915Sol     HW 6667   0.321   2.634   1.979 -0.9441 -0.7103 -1.2464
  915Sol     MW 6668   0.261   2.694   2.009  0.3805  0.5566 -0.7967
  916Sol     OW 6669   2.208   2.778   2.461  0.2908  0.5134  0.3262
  916Sol     HW 6670   2.129   2.833   2.460 -0.3948 -0.4554  0.8151
  916Sol     HW 6671   2.272   2.830   2.509  0.2304  1.6804 -0.8274
  916Sol     MW 6672   2.206   2.788   2.465 -0.1856  0.3102 -0.4931
  917Sol     OW 6673   0.411   3.420   3.206 -0.3219  0.1063 -0.6681
  917Sol     HW 6674   0.467   3.386   3.136  0.9103  0.2965  0.2035
  917Sol     HW 6675   0.420   3.516   3.200  0.0751  0.1124 -0.0266
  917Sol     MW 6676   0.417   3.426   3.200  0.0909  0.4694  0.1333
  918Sol     OW 6677   0.458   1.245   7.709 -0.2984  0.0496  0.0588
  918Sol     HW 6678   0.397   1.266   7.781 -0.6925  1.3529 -0.6394
  918Sol     HW 6679   0.401   1.219   7.637 -0.0050  0.8343 -0.4573
  918Sol     MW 6680   0.447   1.244   7.709 -0.0818 -0.4355  0.0765
  919Sol     OW 6681   1.219   3.438   1.760 -0.4445 -0.1278 -0.0219
  919Sol     HW 6682   1.296   3.494   1.770 -0.5257  0.1875 -1.0681
  919Sol     HW 6683   1.228   3.372   1.828  0.1478  0.5951  0.6084
  919Sol     MW 6684   1.226   3.437   1.767  0.2212 -0.0289  0.4501
  920Sol     OW 6685   1.654   1.270   6.096 -0.5650 -0.1229 -0.3631
  920Sol     HW 6686   1.663   1.183   6.058 -1.0790 -0.2434 -0.2179
  920Sol     HW 6687   1.695   1.328   6.032  0.4018 -0.5434 -0.1331
  920Sol     MW 6688   1.658   1.267   6.087  0.5302  0.1047 -0.0520
  921Sol     OW 6689   1.786   1.526   5.004 -0.0703 -0.0336  0.5397
  921Sol     HW 6690   1.724   1.578   5.055 -0.2629 -0.7303  1.0237
  921Sol     HW 6691   1.790   1.441   5.050  2.3942  0.5011  1.4243
  921Sol     MW 6692   1.781   1.523   5.013 -0.0044 -0.4733 -0.0154
  922Sol     OW 6693   1.838   2.950   8.461 -0.0565 -0.2037  0.1822
  922Sol     HW 6694   1.771   2.992   8.516 -2.2572  2.6152 -4.4122
  922Sol     HW 6695   1.802   2.863   8.443 -1.4699  0.4802 -0.4054
  922Sol     MW 6696   1.829   2.946   8.465  0.6631 -0.2832 -0.0472
  923Sol     OW 6697   0.188   0.554   5.533 -0.5412 -0.2452  0.0786
  923Sol     HW 6698   0.206   0.622   5.468  2.2671  0.3700  1.3959
  923Sol     HW 6699   0.186   0.600   5.617  1.2566 -1.7161  0.9731
  923Sol     MW 6700   0.190   0.564   5.535  0.2144  0.5520 -0.4675
  924Sol     OW 6701   0.251   1.265   2.369 -0.0143  0.0665 -0.2073
  924Sol     HW 6702   0.203   1.231   2.445 -2.6354  1.8790 -0.9794
  924Sol     HW 6703   0.183   1.301   2.312  2.0320  0.0443 -2.7701
  924Sol     MW 6704   0.240   1.265   2.371  0.7221  0.1481 -0.3172
  925Sol     OW 6705   0.928   1.006   6.518 -0.3161  0.1395  0.5699
  925Sol     HW 6706   0.953   0.938   6.580  2.0114  0.9898  0.6077
  925Sol     HW 6707   0.972   0.982   6.437  0.0788  1.3153  0.4333
  925Sol     MW 6708   0.934   0.998   6.516  0.0655 -0.5199  0.8189
  926Sol     OW 6709   1.163   2.120   9.818 -0.2918 -0.4386 -0.5448
  926Sol     HW 6710   1.243   2.078   9.788 -0.1632 -1.3173  1.0020
  926Sol     HW 6711   1.095   2.086   9.760  0.4509  0.4274 -1.9558
  926Sol     MW 6712   1.164   2.114   9.810 -0.1913 -0.3703 -0.1623
  927Sol     OW 6713   0.876   2.150   7.384 -0.1747  0.7037 -0.0672
  927Sol     HW 6714   0.900   2.096   7.309  0.3002  1.3028 -0.3461
  927Sol     HW 6715   0.910   2.237   7.363  0.1567  0.8193  0.9418
  927Sol     MW 6716   0.881   2.153   7.375  0.0665  0.8884 -0.0618
  928Sol     OW 6717   3.188   0.170   1.419  0.1033  0.1802  0.3682
  928Sol     HW 6718   3.244   0.124   1.482  0.3889  0.0516  0.0260
  928Sol     HW 6719   3.240   0.172   1.338 -0.3859  0.0685  0.0501
  928Sol     MW 6720   3.198   0.166   1.417  0.3410 -0.2562 -0.0209
  929Sol     OW 6721   0.926   0.612   4.865 -0.1892 -0.1921  0.3462
  929Sol     HW 6722   0.850   0.556   4.878  0.6645 -1.2119  0.9916
  929Sol     HW 6723   0.942   0.652   4.950  0.7683 -0.9714  0.5413
  929Sol     MW 6724   0.921   0.611   4.874  0.2421  0.3155  0.5352
  930Sol     OW 6725   1.743   2.638   4.586  0.2042  0.2849 -0.9595
  930Sol     HW 6726   1.820   2.694   4.597  0.0709  0.7519 -2.1986
  930Sol     HW 6727   1.779   2.553   4.560  0.3947 -0.1304  0.6377
  930Sol     MW 6728   1.753   2.635   4.584  0.4578  0.4503 -0.1073
  931Sol     OW 6729   1.253   0.202   9.043  0.0582  0.0481 -0.2202
  931Sol     HW 6730   1.236   0.290   9.078 -0.6869 -1.0271  2.2028
  931Sol     HW 6731   1.330   0.171   9.091  1.2935 -0.0568 -2.1815
  931Sol     MW 6732   1.258   0.207   9.050 -0.4444  0.6838 -0.1035
  932Sol     OW 6733   3.050   2.702   4.717 -0.0754 -0.0424  0.7361
  932Sol     HW 6734   3.008   2.681   4.800 -0.7514 -0.7324  0.2186
  932Sol     HW 6735   2.985   2.682   4.650  0.7595 -0.2905 -0.0204
  932Sol     MW 6736   3.040   2.698   4.718 -0.0628 -0.2180  0.4671
  933Sol     OW 6737   2.419   1.396   2.511 -0.3258 -0.1480  0.2114
  933Sol     HW 6738   2.413   1.487   2.481 -3.0446 -0.5776 -0.6837
  933Sol     HW 6739   2.501   1.364   2.473 -0.4710  1.2686 -1.3601
  933Sol     MW 6740   2.426   1.401   2.505  0.0995  0.5132  0.1736
  934Sol     OW 6741   1.199   2.361   1.899 -0.8624 -0.7920 -0.5597
  934Sol     HW 6742   1.113   2.383   1.865 -0.0165  0.6627 -1.8062
  934Sol     HW 6743   1.259   2.420   1.854  0.5244 -0.0873  2.1169
  934Sol     MW 6744   1.197   2.368   1.892  0.5711 -0.1006 -0.4166
  935Sol     OW 6745   0.929   2.167   1.745  0.2816 -0.4854 -0.3112
  935Sol     HW 6746   0.907   2.176   1.652  2.2635 -0.1191 -0.7804
  935Sol     HW 6747   0.985   2.090   1.749  1.6552  0.5065  0.2726
  935Sol     MW 6748   0.932   2.161   1.737  0.4200  0.2709  0.0699
  936Sol     OW 6749   1.327   3.347   6.385  0.8551  0.2903  0.0022
  936Sol     HW 6750   1.394   3.326   6.319 -1.1761 -1.2452 -1.6517
  936Sol     HW 6751   1.311   3.264   6.429 -0.2426  0.5572  0.1083
  936Sol     MW 6752   1.332   3.338   6.383  0.1243  0.1557  0.1512
  937Sol     OW 6753   1.529   0.807   8.708 -0.1603  0.1045 -0.6791
  937Sol     HW 6754   1.569   0.793   8.793  0.8308 -0.3353 -1.2058
  937Sol     HW 6755   1.601   0.831   8.650 -1.0608  2.0424 -1.0352
  937Sol     MW 6756   1.539   0.808   8.710 -0.7385 -0.2773 -0.2394
  938Sol     OW 6757   2.173   0.364   2.492  0.4228  0.4353  0.1247
  938Sol     HW 6758   2.193   0.458   2.491 -0.4025  0.6458  1.7447
  938Sol     HW 6759   2.081   0.359   2.517  0.2289 -0.7808 -0.8024
  938Sol     MW 6760   2.167   0.372   2.494 -0.3984 -0.0591 -0.0992
  939Sol     OW 6761   2.355   3.211   9.348 -0.6667 -0.4374 -0.2966
  939Sol     HW 6762   2.369   3.228   9.441  0.6451 -0.5248 -0.4564
  939Sol     HW 6763   2.319   3.123   9.344 -0.8751 -0.3685  0.1458
  939Sol     MW 6764   2.353   3.204   9.356  0.7366  0.2171  0.0473
  940Sol     OW 6765   0.006   0.657   3.238 -0.2186 -0.4434  0.0645
  940Sol     HW 6766   0.056   0.735   3.263  0.8049 -0.5167 -1.6770
  940Sol     HW 6767  -0.017   0.616   3.321 -0.9231  1.8032  1.0139
  940Sol     MW 6768   0.009   0.660   3.247 -0.1894 -0.0448 -0.5082
  941Sol     OW 6769   1.651   0.351   1.848 -0.6194  0.0578  0.8596
  941Sol     HW 6770   1.669   0.393   1.931  0.1015 -1.2510  1.3800
  941Sol     HW 6771   1.732   0.304   1.826  0.0289  2.2785 -1.7446
  941Sol     MW 6772   1.660   0.350   1.853  0.4047 -0.3322  0.1414
  942Sol     OW 6773   2.752   2.602   6.216  0.0430 -0.1511 -0.1623
  942Sol     HW 6774   2.702   2.680   6.240  0.1687 -0.1318  0.0333
  942Sol     HW 6775   2.698   2.529   6.246  0.9165 -0.1031  1.5747
  942Sol     MW 6776   2.743   2.603   6.221  0.3052  0.4054  0.1287
  943Sol     OW 6777   1.698   2.154   7.186  0.5256 -0.1034 -0.3530
  943Sol     HW 6778   1.717   2.247   7.171  0.7188  0.2007  1.5839
  943Sol     HW 6779   1.607   2.143   7.159  0.4630  0.6837 -0.4783
  943Sol     MW 6780   1.692   2.161   7.182 -0.7822  0.1279  0.4537
  944Sol     OW 6781   1.016   1.193   7.792 -0.6340  0.1444  0.3107
  944Sol     HW 6782   0.929   1.206   7.753 -0.2585 -1.7129 -1.1909
  944Sol     HW 6783   1.052   1.117   7.747 -0.0077 -1.8734  4.0214
  944Sol     MW 6784   1.011   1.187   7.785  0.1775  0.2657  0.2148
  945Sol     OW 6785   2.359   2.612   5.087  0.5645  0.5399 -0.4294
  945Sol     HW 6786   2.449   2.625   5.119 -0.1564  2.4173  0.9148
  945Sol     HW 6787   2.344   2.518   5.095  1.5334  0.5311  1.8094
  945Sol     MW 6788   2.366   2.605   5.091 -0.1272  0.5340 -0.3717
  946Sol     OW 6789   3.290   2.642   9.280  0.4927  0.2966  0.5194
  946Sol     HW 6790   3.309   2.659   9.188 -0.1308  2.0909  0.6975
  946Sol     HW 6791   3.198   2.617   9.282  0.4636  0.4105  0.6553
  946Sol     MW 6792   3.284   2.642   9.272 -0.1085 -0.7672 -0.5824
  947Sol     OW 6793   0.766   0.666   9.398 -0.3911  0.0660  0.2507
  947Sol     HW 6794   0.728   0.680   9.312 -0.3747  1.2517  0.4306
  947Sol     HW 6795   0.717   0.724   9.456 -0.3159 -0.6267  1.0166
  947Sol     MW 6796   0.758   0.673   9.396 -0.2807  0.0760  0.3600
  948Sol     OW 6797   2.506   0.118   9.143 -0.1871  0.4051 -0.2210
  948Sol     HW 6798   2.501   0.166   9.061 -0.9818 -0.1656 -0.5101
  948Sol     HW 6799   2.506   0.186   9.211  4.2954  1.1032 -0.7655
  948Sol     MW 6800   2.506   0.129   9.142  0.0231  0.2428  0.0521
  949Sol     OW 6801   1.819   2.077   6.517  0.1487 -0.9448  0.3276
  949Sol     HW 6802   1.839   1.997   6.468  1.0764  0.5800 -1.8600
  949Sol     HW 6803   1.904   2.108   6.548 -0.0273  0.0217 -0.1500
  949Sol     MW 6804   1.828   2.073   6.515 -0.4378 -0.3275  0.1340
  950Sol     OW 6805   1.302   0.485   5.759  0.7210 -0.5631  0.2200
  950Sol     HW 6806   1.306   0.473   5.664  1.2649  0.6911  0.0708
  950Sol     HW 6807   1.391   0.507   5.784  0.1220  1.5971  0.6339
  950Sol     MW 6808   1.310   0.486   5.752  0.2643 -0.1447  0.0905
  951Sol     OW 6809   3.080   0.323   5.066 -0.4291 -0.0255 -0.0103
  951Sol     HW 6810   3.143   0.386   5.030 -0.3972  0.1332  0.3171
  951Sol     HW 6811   3.132   0.271   5.128 -0.9131  0.9752  1.2495
  951Sol     MW 6812   3.091   0.324   5.069  0.0724  0.7198 -0.5591
  952Sol     OW 6813   2.346   0.585   9.140 -0.0095  0.0289 -0.2868
  952Sol     HW 6814   2.376   0.658   9.087 -2.7315  0.9538 -0.6131
  952Sol     HW 6815   2.424   0.530   9.152  1.4607  1.6497 -2.1740
  952Sol     MW 6816   2.356   0.586   9.137  0.4723  0.0313  0.4147
  953Sol     OW 6817   1.892   0.241   9.319  0.1364  0.2051  0.3607
  953Sol     HW 6818   1.798   0.231   9.330  0.4810 -0.5733  2.7298
  953Sol     HW 6819   1.916   0.175   9.254 -0.6440 -0.9977  1.2915
  953Sol     MW 6820   1.886   0.234   9.314  0.1585 -0.6107 -0.1892
  954Sol     OW 6821   0.332   1.765   7.472 -0.5662  0.4320  0.5940
  954Sol     HW 6822   0.384   1.777   7.393 -1.2250  1.3059  0.2866
  954Sol     HW 6823   0.249   1.808   7.453 -0.8698  0.3142  1.6222
  954Sol     MW 6824   0.329   1.770   7.464 -0.6296 -0.6868 -0.0653
  955Sol     OW 6825   0.165   3.189   9.477  0.1538 -0.1228 -0.2909
  955Sol     HW 6826   0.175   3.253   9.407  0.0584  1.1319  0.8323
  955Sol     HW 6827   0.075   3.158   9.468  0.0211  0.3118 -0.4906
  955Sol     MW 6828   0.158   3.192   9.470 -0.5146  0.3114 -0.4238
  956Sol     OW 6829   0.948   2.566   3.369  0.0907 -0.4918  0.3967
  956Sol     HW 6830   0.993   2.514   3.303 -0.5774  0.4237 -0.7938
  956Sol     HW 6831   1.003   2.559   3.447  0.1481 -2.7396  0.1818
  956Sol     MW 6832   0.957   2.561   3.370 -0.1947  0.0959 -0.3533
  957Sol     OW 6833   2.787   3.134   1.610 -0.3350  0.0143  0.1469
  957Sol     HW 6834   2.753   3.216   1.575 -0.2507 -0.3311 -0.7550
  957Sol     HW 6835   2.709   3.079   1.623 -0.3006 -0.1028 -0.1429
  957Sol     MW 6836   2.777   3.136   1.608  0.3480  0.7246 -0.2952
  958Sol     OW 6837   2.563   1.724   6.848  0.2063  0.1127 -0.1474
  958Sol     HW 6838   2.584   1.767   6.765 -0.0166  1.0070  0.2543
  958Sol     HW 6839   2.534   1.795   6.905 -0.1234 -0.5673  0.5405
  958Sol     MW 6840   2.562   1.734   6.846 -0.0850  0.0055 -0.5908
  959Sol     OW 6841   1.207   1.019   1.832  0.6328  0.1971  0.2710
  959Sol     HW 6842   1.161   1.007   1.915 -0.4972 -1.6996 -0.5924
  959Sol     HW 6843   1.242   0.932   1.811  1.6981  0.8592 -0.7880
  959Sol     MW 6844   1.206   1.010   1.837 -0.5194 -0.2556  0.1226
  960Sol     OW 6845   2.042   2.181   9.619 -0.4267 -0.1994  0.0116
  960Sol     HW 6846   2.127   2.223   9.630  0.2410 -1.3179 -0.7533
  960Sol     HW 6847   2.061   2.100   9.573 -1.7258 -1.2499  1.2773
  960Sol     MW 6848   2.051   2.178   9.616 -0.5311 -0.5514  1.1710
  961Sol     OW 6849   1.915   2.966   6.338  0.2292  0.3334 -0.3628
  961Sol     HW 6850   1.914   2.874   6.362 -0.6794  0.2512 -0.6869
  961Sol     HW 6851   1.999   2.979   6.294 -0.2781 -0.6956 -1.6671
  961Sol     MW 6852   1.922   2.959   6.336  0.0850  0.1615  0.0038
  962Sol     OW 6853   1.192   3.299   8.838  0.5174  0.2179 -0.1864
  962Sol     HW 6854   1.208   3.247   8.760 -0.6159 -1.1234  0.4528
  962Sol     HW 6855   1.212   3.389   8.812  0.0967 -0.2018 -2.0221
  962Sol     MW 6856   1.195   3.303   8.829 -0.2671 -0.1754  0.3653
  963Sol     OW 6857   1.451   3.153   7.083  0.6403 -0.1697  0.0643
  963Sol     HW 6858   1.520   3.217   7.068 -0.7343  1.1166 -0.8979
  963Sol     HW 6859   1.495   3.068   7.081  2.2939  0.6833  0.1906
  963Sol     MW 6860   1.461   3.151   7.082 -0.1252  0.7425  0.3693
  964Sol     OW 6861   0.435   2.197   8.152 -0.0661  0.3532 -0.4183
  964Sol     HW 6862   0.393   2.145   8.083 -0.3146 -1.2953  0.9279
  964Sol     HW 6863   0.479   2.268   8.105  0.8926 -1.4791 -2.3856
  964Sol     MW 6864   0.435   2.198   8.142 -0.3659  0.0925  0.5982
  965Sol     OW 6865   3.020   1.109   2.426 -0.2214 -0.9514  0.4530
  965Sol     HW 6866   3.079   1.150   2.490  0.0695 -0.2707 -0.2360
  965Sol     HW 6867   3.024   1.015   2.446  1.2187 -0.9241  0.3108
  965Sol     MW 6868   3.026   1.104   2.434 -0.2726  0.1882  0.2063
  966Sol     OW 6869   1.826   3.384   1.565 -0.1094  1.0085 -0.0573
  966Sol     HW 6870   1.882   3.401   1.489 -0.1140  0.8713 -0.0919
  966Sol     HW 6871   1.827   3.289   1.575  1.2868  1.1412  1.1841
  966Sol     MW 6872   1.831   3.377   1.559 -0.8592  0.3457 -0.0868
  967Sol     OW 6873   1.031   0.140   2.589 -0.5673  0.3615 -0.1181
  967Sol     HW 6874   0.994   0.141   2.501 -1.4057 -0.8914  0.2022
  967Sol     HW 6875   1.124   0.122   2.575 -0.8283 -0.5873 -0.7168
  967Sol     MW 6876   1.036   0.138   2.580 -0.0965 -0.3345 -0.2256
  968Sol     OW 6877   0.011   0.844   6.193  0.1520  0.0362  0.0007
  968Sol     HW 6878   0.069   0.896   6.248  3.1400 -1.5822 -1.4927
  968Sol     HW 6879  -0.019   0.772   6.249 -0.1248  0.6445  0.6461
  968Sol     MW 6880   0.013   0.842   6.203  0.0382 -0.3540  0.4150
  969Sol     OW 6881   0.110   0.401   3.140  0.0331  0.1143 -0.2387
  969Sol     HW 6882   0.082   0.488   3.167 -1.0658 -0.6718  1.2128
  969Sol     HW 6883   0.073   0.390   3.052 -0.8617  0.6270  0.0694
  969Sol     MW 6884   0.104   0.408   3.134 -0.0012  0.6205 -0.0012
  970Sol     OW 6885   1.908   2.910   3.976  0.3163  0.6463  0.3261
  970Sol     HW 6886   1.968   2.943   4.043  3.5616 -0.3967 -1.9487
  970Sol     HW 6887   1.928   2.816   3.971 -3.2959 -0.2622  1.2100
  970Sol     MW 6888   1.915   2.904   3.982 -0.6537  0.0432  0.3391
  971Sol     OW 6889   1.659   1.674   5.903  0.6886 -0.0933  0.1868
  971Sol     HW 6890   1.618   1.682   5.817  0.1940 -0.4395  0.3885
  971Sol     HW 6891   1.741   1.723   5.895  1.1355 -0.9975 -0.7920
  971Sol     MW 6892   1.662   1.679   5.895  0.9600  0.1146 -0.1630
  972Sol     OW 6893   1.324   3.273   2.485 -0.1907  0.2247 -0.2505
  972Sol     HW 6894   1.309   3.359   2.525  0.3562 -0.0305  0.5211
  972Sol     HW 6895   1.326   3.213   2.560 -0.2743 -0.4171 -0.7638
  972Sol     MW 6896   1.323   3.276   2.495  0.2588  0.2371 -0.6909
  973Sol     OW 6897   0.266   1.486   2.536  0.2726  0.0671  0.4992
  973Sol     HW 6898   0.262   1.574   2.497 -2.9060 -0.1574  0.2068
  973Sol     HW 6899   0.259   1.426   2.462  1.0106 -0.4263  0.8241
  973Sol     MW 6900   0.265   1.489   2.526 -0.4195  1.0598  0.0760
  974Sol     OW 6901   2.697   2.357   9.762  0.3292  0.1252  0.0657
  974Sol     HW 6902   2.628   2.295   9.739 -0.1647  0.9274 -0.6122
  974Sol     HW 6903   2.651   2.436   9.789  0.9378 -0.1343  1.9132
  974Sol     MW 6904   2.687   2.359   9.762  0.0156  0.2711  0.6320
  975Sol     OW 6905   1.844   1.756   5.304 -0.1614 -0.4467 -0.3139
  975Sol     HW 6906   1.853   1.830   5.365 -1.1766  0.6815 -1.5119
  975Sol     HW 6907   1.923   1.704   5.318  0.5564  0.8551  0.5624
  975Sol     MW 6908   1.852   1.758   5.311 -0.2763  0.3262 -0.1067
  976Sol     OW 6909   1.798   1.527   4.020 -0.3974  0.0839  0.6700
  976Sol     HW 6910   1.721   1.527   3.964  0.8862 -1.1092 -1.1357
  976Sol     HW 6911   1.835   1.615   4.012 -0.3314 -0.0226 -0.2198
  976Sol     MW 6912   1.795   1.535   4.014 -0.0295 -0.3208 -0.2408
  977Sol     OW 6913   1.058   0.924   6.268  0.3492  0.4293 -0.3583
  977Sol     HW 6914   1.151   0.936   6.248  0.7988  0.7915  1.8605
  977Sol     HW 6915   1.017   1.005   6.237  0.7563  0.2743 -1.3357
  977Sol     MW 6916   1.063   0.933   6.264 -0.5572 -0.2302  0.5379
  978Sol     OW 6917   1.922   3.216   9.193  0.5446  0.7072  0.5371
  978Sol     HW 6918   1.995   3.240   9.136 -0.1562  0.3730 -0.5137
  978Sol     HW 6919   1.847   3.261   9.155  0.3250  1.6745  2.0655
  978Sol     MW 6920   1.922   3.222   9.184 -0.5485  0.0306 -0.1763
  979Sol     OW 6921   2.216   0.147   9.156 -0.0513 -0.1684  0.4945
  979Sol     HW 6922   2.312   0.148   9.152 -0.1143  0.1816 -1.3804
  979Sol     HW 6923   2.194   0.224   9.209  0.6819  0.3032  0.1315
  979Sol     MW 6924   2.223   0.154   9.161 -0.5897 -0.5436  0.7278
  980Sol     OW 6925   2.289   3.318   4.945 -0.1010 -0.0755 -0.5939
  980Sol     HW 6926   2.222   3.358   4.889 -2.6811  0.2797  2.6053
  980Sol     HW 6927   2.355   3.386   4.956 -0.5417  0.5216 -1.5665
  980Sol     MW 6928   2.289   3.328   4.941 -0.2693 -0.5263  0.1258
  981Sol     OW 6929   1.607   1.287   6.823 -0.2445 -0.2607  0.1977
  981Sol     HW 6930   1.607   1.248   6.735 -2.2047  1.0653 -0.4243
  981Sol     HW 6931   1.673   1.355   6.818 -0.6688  0.1197 -0.4161
  981Sol     MW 6932   1.613   1.290   6.814  0.5854 -0.2324  0.8260
  982Sol     OW 6933   0.937   2.092   6.245  0.3455 -0.0698 -0.2636
  982Sol     HW 6934   0.945   2.118   6.337 -1.4432  1.0304 -0.3933
  982Sol     HW 6935   0.900   2.004   6.248 -1.3972  0.6590  0.0570
  982Sol     MW 6936   0.935   2.086   6.253  0.7089  0.2620  0.0472
  983Sol     OW 6937   1.070   0.311   5.104 -0.0498  0.1255 -0.8843
  983Sol     HW 6938   1.024   0.395   5.110  1.0482  0.7483 -1.0693
  983Sol     HW 6939   1.036   0.271   5.023 -2.4501 -0.7707  0.5065
  983Sol     MW 6940   1.063   0.315   5.097  0.4886 -0.0527 -0.3829
  984Sol     OW 6941   0.593   1.294   9.609 -0.1808  0.7470  0.1784
  984Sol     HW 6942   0.581   1.387   9.591 -0.2534  1.0608  1.8128
  984Sol     HW 6943   0.686   1.285   9.631  0.0459  0.2655 -0.9517
  984Sol     MW 6944   0.600   1.301   9.609 -0.0544  0.4729 -0.3285
  985Sol     OW 6945   0.873   0.111   9.649 -0.4343  0.0235  0.4442
  985Sol     HW 6946   0.791   0.160   9.646  0.4276  1.4279 -2.6139
  985Sol     HW 6947   0.861   0.041   9.585 -0.0586 -1.1424  1.6353
  985Sol     MW 6948   0.865   0.109   9.643 -0.5908 -0.2797  0.4930
  986Sol     OW 6949   2.333   2.977   3.233  0.0626 -0.0111 -0.1687
  986Sol     HW 6950   2.259   3.000   3.176 -0.6035 -0.1734  0.6109
  986Sol     HW 6951   2.404   2.955   3.173 -0.1543  1.2933 -0.9367
  986Sol     MW 6952   2.333   2.977   3.223  0.2909 -0.4319  0.4817
  987Sol     OW 6953   0.350   2.655   5.698  0.4440 -0.4050 -0.2239
  987Sol     HW 6954   0.285   2.638   5.631 -0.7627  0.2237  0.7648
  987Sol     HW 6955   0.364   2.750   5.695  2.9819 -0.7823 -1.9257
  987Sol     MW 6956   0.345   2.662   5.692 -0.5408  0.2475  0.2886
  988Sol     OW 6957   0.345   0.265   2.525  0.1765 -0.7328 -0.5337
  988Sol     HW 6958   0.436   0.292   2.517 -0.6005  1.7025 -1.5500
  988Sol     HW 6959   0.329   0.263   2.620  0.7042  0.9243 -0.3884
  988Sol     MW 6960   0.351   0.267   2.533  0.1766  0.3245 -0.3297
  989Sol     OW 6961   0.828   1.355   6.317 -0.5997 -0.2281  0.3852
  989Sol     HW 6962   0.749   1.383   6.363 -1.9781 -2.2751 -0.6339
  989Sol     HW 6963   0.885   1.322   6.387 -1.9764 -1.7126  0.8512
  989Sol     MW 6964   0.826   1.354   6.327 -0.7622 -0.0163 -0.0326
  990Sol     OW 6965   0.474   3.006   3.831  0.1710 -0.6577  0.1064
  990Sol     HW 6966   0.488   2.913   3.846  1.9459 -0.6003 -1.0369
  990Sol     HW 6967   0.457   3.014   3.738 -2.2290 -0.0588  0.5561
  990Sol     MW 6968   0.474   2.999   3.824  0.4000  0.0600  0.0431
  991Sol     OW 6969   1.294   2.779   9.778 -0.0388  0.0106  0.0032
  991Sol     HW 6970   1.200   2.795   9.788 -0.0008  1.2793 -1.4727
  991Sol     HW 6971   1.300   2.706   9.717 -0.0626 -0.4331  0.5241
  991Sol     MW 6972   1.286   2.774   9.774 -0.0747  0.1640  0.2703
  992Sol     OW 6973   0.837   1.231   3.984 -0.0756  0.4565 -0.0335
  992Sol     HW 6974   0.879   1.315   4.003 -1.1202  1.3226 -1.4800
  992Sol     HW 6975   0.747   1.241   4.015 -0.3304  0.0372 -0.6226
  992Sol     MW 6976   0.833   1.239   3.989  0.6736 -0.0030 -0.4776
  993Sol     OW 6977   3.303   3.224   5.753  0.0781  1.3411 -0.8833
  993Sol     HW 6978   3.303   3.304   5.806  2.3017  0.5610  0.3762
  993Sol     HW 6979   3.323   3.154   5.816 -0.6035 -0.0470 -2.1855
  993Sol     MW 6980   3.305   3.225   5.763  0.0812 -0.1241 -0.5445
  994Sol     OW 6981   1.472   3.420   5.965 -0.1105 -0.4819  0.2963
  994Sol     HW 6982   1.475   3.496   5.908 -1.0021 -0.0138  0.8512
  994Sol     HW 6983   1.385   3.383   5.951  0.3554 -1.4618 -0.0440
  994Sol     MW 6984   1.465   3.424   5.959  0.7124  0.0591  0.7697
  995Sol     OW 6985   0.183   0.908   2.342 -0.4411 -0.0154  0.0070
  995Sol     HW 6986   0.163   0.949   2.426  1.0822  1.2092 -0.2093
  995Sol     HW 6987   0.241   0.835   2.364 -1.4410 -0.7737  0.1762
  995Sol     MW 6988   0.186   0.905   2.351  0.4300  0.2879 -0.0620
  996Sol     OW 6989   1.980   3.211   5.078  0.2606  0.2918  0.0616
  996Sol     HW 6990   1.975   3.212   4.983 -2.6538 -0.7547  0.1318
  996Sol     HW 6991   1.990   3.118   5.100  0.1766  0.4469  0.7786
  996Sol     MW 6992   1.980   3.202   5.072  0.1763  0.3132 -0.0475
  997Sol     OW 6993   2.024   2.640   4.969  0.8715  0.3055 -0.5500
  997Sol     HW 6994   1.940   2.682   4.989  0.3829 -0.6761 -0.4715
  997Sol     HW 6995   2.090   2.695   5.010  0.2527  1.0513 -0.5563
  997Sol     MW 6996   2.022   2.649   4.975  0.3163  0.4147 -0.0953
  998Sol     OW 6997   1.761   2.995   6.051  0.1713 -0.0994 -0.4647
  998Sol     HW 6998   1.672   3.019   6.076  0.1082 -0.6946 -0.1090
  998Sol     HW 6999   1.812   3.006   6.132  0.2877 -0.4285 -0.4941
  998Sol     MW 7000   1.757   2.998   6.061 -0.2720  0.2296  0.3183
  999Sol     OW 7001   1.222   1.368   4.305  0.3159 -0.0064 -0.3646
  999Sol     HW 7002   1.128   1.359   4.320  0.6192 -1.3181  0.8956
  999Sol     HW 7003   1.262   1.343   4.389  1.8830 -1.6107 -1.5520
  999Sol     MW 7004   1.217   1.365   4.314 -0.5130  0.0176  0.7066
 1000Sol     OW 7005   1.751   3.072   8.998  0.4013  0.0366  0.1768
 1000Sol     HW 7006   1.838   3.103   9.022  1.0042 -1.3105 -0.2082
 1000Sol     HW 7007   1.753   2.978   9.017 -1.9034  0.4401  2.8604
 1000Sol     MW 7008   1.759   3.066   9.002 -0.4154  0.2357 -0.5726
 1001Sol     OW 7009   2.377   2.467   1.909 -0.3886  0.2116  0.1589
 1001Sol     HW 7010   2.417   2.436   1.828 -1.3868  0.3522 -0.3987
 1001Sol     HW 7011   2.400   2.401   1.974 -0.7377 -0.6111 -0.5468
 1001Sol     MW 7012   2.383   2.458   1.907  0.1467 -0.5364  0.3906
 1002Sol     OW 7013   0.892   1.070   4.437 -0.1475  0.2622  0.1595
 1002Sol     HW 7014   0.867   1.154   4.400  1.4248  0.8197  0.3595
 1002Sol     HW 7015   0.972   1.045   4.390  0.7099 -0.0019  1.7263
 1002Sol     MW 7016   0.897   1.075   4.429  0.6213 -0.0014 -0.7671
 1003Sol     OW 7017   2.732   2.980   4.746 -0.0390 -0.2410 -0.1621
 1003Sol     HW 7018   2.654   2.996   4.798 -0.3952 -0.7440 -0.5363
 1003Sol     HW 7019   2.705   2.914   4.681  0.8773 -0.9584  0.1651
 1003Sol     MW 7020   2.723   2.975   4.745 -0.1947  0.0592  0.2660
 1004Sol     OW 7021   2.692   2.787   3.899  0.3298 -0.1630 -0.0053
 1004Sol     HW 7022   2.707   2.760   3.990  0.9561  0.8711  0.2119
 1004Sol     HW 7023   2.777   2.773   3.856 -0.4656 -2.4018 -0.8967
 1004Sol     MW 7024   2.701   2.784   3.904 -0.2388  0.0300 -0.6068
 1005Sol     OW 7025   2.729   1.090   2.501 -0.3960 -0.3506  0.1074
 1005Sol     HW 7026   2.716   1.023   2.435 -1.4242 -0.2095  0.1437
 1005Sol     HW 7027   2.807   1.063   2.549 -1.8540 -2.5395  1.3354
 1005Sol     MW 7028   2.735   1.082   2.500  0.0256 -0.3483 -0.1090
 1006Sol     OW 7029   1.576   1.048   7.928 -0.8116  0.5520  0.1138
 1006Sol     HW 7030   1.581   0.953   7.943  1.3408  0.5978 -0.2291
 1006Sol     HW 7031   1.488   1.071   7.956 -1.5585 -1.6446 -0.2946
 1006Sol     MW 7032   1.569   1.041   7.932  0.1818 -0.0818 -0.2765
 1007Sol     OW 7033   0.718   2.893   6.332  0.0594  0.1459 -0.4687
 1007Sol     HW 7034   0.628   2.924   6.322 -0.4623 -1.8185 -2.2247
 1007Sol     HW 7035   0.708   2.804   6.366  1.3815  0.2609  0.2268
 1007Sol     MW 7036   0.709   2.888   6.334  0.6175 -0.2072  0.1079
 1008Sol     OW 7037   2.617   0.109   3.365 -0.1767 -0.1144  0.2948
 1008Sol     HW 7038   2.593   0.183   3.421 -1.1662 -0.8588  0.8712
 1008Sol     HW 7039   2.541   0.051   3.370 -0.5222  0.0689 -2.2783
 1008Sol     MW 7040   2.608   0.111   3.371  0.2429  0.3681 -0.2658
 1009Sol     OW 7041   2.644   1.340   7.550 -0.0952 -0.1608 -0.0993
 1009Sol     HW 7042   2.615   1.262   7.597 -0.5500  1.0359  1.6351
 1009Sol     HW 7043   2.732   1.357   7.583 -0.4400  0.7224  0.3811
 1009Sol     MW 7044   2.649   1.334   7.557 -0.0290 -0.1106  0.6788
 1010Sol     OW 7045   0.347   0.247   1.724 -0.0739  0.3373  0.4905
 1010Sol     HW 7046   0.255   0.274   1.722 -0.2904 -0.3973  0.3404
 1010Sol     HW 7047   0.361   0.214   1.812  0.1200  0.6909  0.5941
 1010Sol     MW 7048   0.340   0.247   1.731  0.5254 -0.2451 -1.1526
 1011Sol     OW 7049   0.277   0.189   7.657 -0.5119 -0.0918 -0.2674
 1011Sol     HW 7050   0.345   0.148   7.604  0.3562  0.1040  0.6711
 1011Sol     HW 7051   0.232   0.115   7.698  0.7075 -0.1604  1.0036
 1011Sol     MW 7052   0.279   0.178   7.656 -0.0603 -0.2759 -0.1817
 1012Sol     OW 7053   3.153   3.208   9.167  0.0854 -0.3525  0.3549
 1012Sol     HW 7054   3.230   3.150   9.169  0.6964  0.3273 -1.7323
 1012Sol     HW 7055   3.184   3.287   9.124 -1.2622  0.7780  1.4220
 1012Sol     MW 7056   3.163   3.210   9.163  0.0560  0.2383  0.6339
 1013Sol     OW 7057   2.841   2.542   2.485 -0.3677  0.4826  0.6065
 1013Sol     HW 7058   2.880   2.461   2.518 -1.6154 -0.8713 -1.1897
 1013Sol     HW 7059   2.762   2.554   2.539 -0.7947 -0.1083  0.1119
 1013Sol     MW 7060   2.837   2.536   2.493  0.1217 -0.2151 -0.1783
 1014Sol     OW 7061   1.859   0.999   9.429  0.7056 -0.2046 -0.0033
 1014Sol     HW 7062   1.858   0.988   9.524 -2.2130 -1.8077 -0.1649
 1014Sol     HW 7063   1.889   0.915   9.396 -3.5059 -1.5596 -0.6264
 1014Sol     MW 7064   1.862   0.991   9.435 -0.0691 -0.3275 -0.1167
 1015Sol     OW 7065   1.923   0.208   3.437 -0.2880 -0.0470 -0.8390
 1015Sol     HW 7066   1.856   0.170   3.493  0.8420 -0.0595  0.5420
 1015Sol     HW 7067   1.927   0.149   3.361  2.2699 -3.5138  1.8273
 1015Sol     MW 7068   1.918   0.199   3.435 -0.1260 -0.1324  0.3342
 1016Sol     OW 7069   2.284   2.876   7.827 -0.3347  0.4391 -0.0854
 1016Sol     HW 7070   2.260   2.788   7.799  0.3191  0.5028 -0.8640
 1016Sol     HW 7071   2.201   2.919   7.846 -0.6022 -0.9234  2.1176
 1016Sol     MW 7072   2.274   2.872   7.826 -0.7823 -0.3661  0.1982
 1017Sol     OW 7073   0.250   0.161   4.397 -0.0671  0.2122 -0.5618
 1017Sol     HW 7074   0.240   0.253   4.421 -1.3481 -0.4528  1.6135
 1017Sol     HW 7075   0.271   0.162   4.304  0.8415  2.7352 -0.3405
 1017Sol     MW 7076   0.251   0.169   4.391 -0.0287  0.3641  0.5281
 1018Sol     OW 7077   1.520   2.340   5.732 -0.1173  0.5406  0.4640
 1018Sol     HW 7078   1.571   2.421   5.729  2.1142 -0.8791 -2.5566
 1018Sol     HW 7079   1.500   2.328   5.825  0.6927  3.8181  1.1265
 1018Sol     MW 7080   1.523   2.346   5.740  0.5855 -0.4337 -0.3342
 1019Sol     OW 7081   1.665   2.079   6.752  0.1706 -0.0781 -0.2542
 1019Sol     HW 7082   1.670   1.992   6.794 -1.2029  0.1877  0.4881
 1019Sol     HW 7083   1.730   2.075   6.682  0.3344 -1.6098 -0.0409
 1019Sol     MW 7084   1.672   2.070   6.750  0.0418  0.1530 -0.3405
 1020Sol     OW 7085   3.207   2.084   4.923  0.1556 -0.2859  0.1701
 1020Sol     HW 7086   3.244   2.090   4.835  0.0665  0.0602  0.1589
 1020Sol     HW 7087   3.283   2.093   4.981  0.2363 -0.6698  0.1308
 1020Sol     MW 7088   3.217   2.085   4.920  0.0053 -0.4590 -0.1915
 1021Sol     OW 7089   2.832   1.396   4.961  0.2010  0.1172 -0.0566
 1021Sol     HW 7090   2.781   1.444   5.026  1.4253  1.7432 -0.2469
 1021Sol     HW 7091   2.834   1.455   4.885  1.1419 -0.5419 -0.5511
 1021Sol     MW 7092   2.827   1.406   4.960  0.2807  0.3885  0.4867
 1022Sol     OW 7093   1.113   2.992   7.575  0.0133  0.1022 -0.1429
 1022Sol     HW 7094   1.097   3.001   7.481 -0.3263  0.7810 -0.0238
 1022Sol     HW 7095   1.060   3.061   7.615 -0.8202 -0.9860  0.6429
 1022Sol     MW 7096   1.107   2.999   7.570 -0.6593  0.4325 -0.0136
 1023Sol     OW 7097   2.630   3.370   8.885  0.3228 -0.3021  0.0917
 1023Sol     HW 7098   2.594   3.421   8.813 -1.7172 -1.6909  0.0973
 1023Sol     HW 7099   2.707   3.420   8.913  0.3710  0.9567 -2.1428
 1023Sol     MW 7100   2.634   3.379   8.881 -0.0135 -0.1629 -0.2859
 1024Sol     OW 7101   2.109   0.228   7.877  0.2786  0.2107 -0.5130
 1024Sol     HW 7102   2.086   0.296   7.813  2.4157  0.3284 -1.1897
 1024Sol     HW 7103   2.178   0.267   7.930  0.5795 -0.9640 -0.0212
 1024Sol     MW 7104   2.113   0.238   7.876  0.5108 -0.1848  0.2686
 1025Sol     OW 7105   2.068   2.111   1.753 -0.3029 -0.1863  0.4103
 1025Sol     HW 7106   2.029   2.070   1.676  1.5488  0.5140 -0.9410
 1025Sol     HW 7107   2.127   2.044   1.789  1.8283  0.7918 -1.1167
 1025Sol     MW 7108   2.070   2.101   1.749 -0.0715 -0.5409 -0.6970
 1026Sol     OW 7109   0.074   0.347   5.658  0.2378  0.2867 -0.1384
 1026Sol     HW 7110   0.136   0.414   5.631 -0.9350  1.3907 -0.1355
 1026Sol     HW 7111   0.052   0.370   5.749 -0.5542  0.2105 -0.3055
 1026Sol     MW 7112   0.077   0.355   5.664 -0.4969  0.0792  0.3668
 1027Sol     OW 7113   2.150   2.914   8.959  0.1724 -0.2069 -0.7107
 1027Sol     HW 7114   2.223   2.909   8.897  0.6092  0.6281 -0.2776
 1027Sol     HW 7115   2.163   2.998   9.004  0.4735 -1.3088  1.2881
 1027Sol     MW 7116   2.158   2.921   8.957  0.0941  0.4340  1.1092
 1028Sol     OW 7117   0.440   0.640   5.221 -0.1043 -0.4905  0.1923
 1028Sol     HW 7118   0.525   0.596   5.226 -0.3692 -0.8327  1.9186
 1028Sol     HW 7119   0.395   0.596   5.149  0.4792 -1.5391  0.4562
 1028Sol     MW 7120   0.444   0.632   5.215 -0.1704  0.4921 -0.3825
 1029Sol     OW 7121   3.254   2.772   9.525  0.2001  0.0120 -0.1392
 1029Sol     HW 7122   3.189   2.719   9.572 -0.9351  1.2792 -0.2822
 1029Sol     HW 7123   3.267   2.725   9.443  0.1276 -0.7153  0.2520
 1029Sol     MW 7124   3.249   2.763   9.522 -0.3243 -0.4091  0.9533
 1030Sol     OW 7125   3.136   3.150   8.437  0.3491 -0.3989  0.0651
 1030Sol     HW 7126   3.067   3.138   8.502 -1.1074  2.4893 -0.8674
 1030Sol     HW 7127   3.116   3.087   8.368  0.5187 -1.8012  1.2942
 1030Sol     MW 7128   3.128   3.143   8.436  0.0618 -0.1372  0.4824
 1031Sol     OW 7129   2.736   2.345   1.681  0.1711 -0.2899 -0.3794
 1031Sol     HW 7130   2.827   2.374   1.676 -0.0118  0.4561  0.6006
 1031Sol     HW 7131   2.731   2.294   1.761 -0.3051 -0.2371 -0.3756
 1031Sol     MW 7132   2.744   2.343   1.687 -0.4531 -0.7254  0.2980
 1032Sol     OW 7133   1.490   2.535   5.376 -0.0313  0.1037 -0.0575
 1032Sol     HW 7134   1.480   2.543   5.281 -2.5794 -1.7251  0.0008
 1032Sol     HW 7135   1.557   2.467   5.387 -0.0536 -0.0031 -0.5426
 1032Sol     MW 7136   1.495   2.529   5.368  0.5125 -0.2671 -0.0774
 1033Sol     OW 7137   0.588   0.176   7.941  0.2176 -0.3391  0.5453
 1033Sol     HW 7138   0.526   0.246   7.926 -0.2685 -1.2942 -2.0155
 1033Sol     HW 7139   0.581   0.158   8.035 -3.7266 -0.7683  0.2492
 1033Sol     MW 7140   0.582   0.180   7.948 -0.2837 -0.5681  0.2954
 1034Sol     OW 7141   0.650   1.862   7.524 -0.4967  0.5532 -0.3457
 1034Sol     HW 7142   0.678   1.773   7.502  0.9649  1.1680 -1.0270
 1034Sol     HW 7143   0.570   1.849   7.576 -2.3393 -1.0385 -3.4024
 1034Sol     MW 7144   0.645   1.853   7.527 -0.6549  0.2457 -0.0661
 1035Sol     OW 7145   1.131   0.558   4.241  0.0283  0.1683 -0.5027
 1035Sol     HW 7146   1.047   0.604   4.251  0.2961  0.3168  1.1278
 1035Sol     HW 7147   1.156   0.575   4.150 -0.4200  2.3579 -0.2605
 1035Sol     MW 7148   1.126   0.564   4.234 -0.2518 -0.6488  0.3505
 1036Sol     OW 7149   0.868   1.448   6.712 -0.3008  0.2006  0.2477
 1036Sol     HW 7150   0.918   1.420   6.789  2.7682  2.0380 -1.0084
 1036Sol     HW 7151   0.880   1.378   6.649 -0.0385  0.2492  0.2445
 1036Sol     MW 7152   0.873   1.439   6.714  0.0575 -0.9974  0.1823
 1037Sol     OW 7153   0.981   0.609   3.772  0.2829 -0.1850  0.0273
 1037Sol     HW 7154   1.044   0.606   3.700  0.9006 -0.1202  0.5610
 1037Sol     HW 7155   0.917   0.540   3.750  0.0430  0.3398 -0.9553
 1037Sol     MW 7156   0.981   0.602   3.764 -0.2298 -0.5981  0.2640
 1038Sol     OW 7157   2.856   3.373   6.128  0.1399 -0.3080 -0.2755
 1038Sol     HW 7158   2.834   3.378   6.221 -1.2639  0.2301 -0.6250
 1038Sol     HW 7159   2.912   3.450   6.113 -1.0038  0.5444 -0.2294
 1038Sol     MW 7160   2.859   3.380   6.135 -0.3232  0.5488 -0.1563
 1039Sol     OW 7161   1.961   1.491   2.643 -0.1485 -0.1792 -0.1909
 1039Sol     HW 7162   1.988   1.446   2.563  1.0172  0.9734 -0.4736
 1039Sol     HW 7163   1.880   1.448   2.669  0.4402 -1.7946 -0.9632
 1039Sol     MW 7164   1.957   1.483   2.638  0.1515 -0.1802 -0.3499
 1040Sol     OW 7165   1.018   0.220   3.105 -0.5911  0.4273  0.3064
 1040Sol     HW 7166   0.943   0.161   3.101  0.7624 -1.3189  0.0389
 1040Sol     HW 7167   1.035   0.242   3.013 -0.3241  0.2098  0.3015
 1040Sol     MW 7168   1.013   0.216   3.096 -0.4484  0.5489 -0.1652
 1041Sol     OW 7169   3.143   3.247   4.802 -0.1649 -0.2981 -0.4741
 1041Sol     HW 7170   3.210   3.224   4.738  0.0871 -1.0690  0.0590
 1041Sol     HW 7171   3.094   3.166   4.817 -1.3979  0.3153 -1.0525
 1041Sol     MW 7172   3.144   3.238   4.798 -0.3172  0.0844 -0.2821
 1042Sol     OW 7173   1.726   1.301   1.450  0.1275  0.3185  0.5456
 1042Sol     HW 7174   1.783   1.260   1.515  0.4864  0.1997  0.1640
 1042Sol     HW 7175   1.749   1.394   1.453  0.9860  0.1484 -0.2255
 1042Sol     MW 7176   1.734   1.306   1.456  1.2246 -0.0404  0.1707
 1043Sol     OW 7177   3.036   2.683   8.666 -0.0408  0.2015  0.2665
 1043Sol     HW 7178   3.037   2.713   8.575 -0.8706  1.3046  0.6091
 1043Sol     HW 7179   2.956   2.632   8.675  1.4054 -2.2175 -0.3304
 1043Sol     MW 7180   3.029   2.681   8.659  0.6772 -0.1903 -0.0012
 1044Sol     OW 7181   2.644   2.252   4.212  0.2899 -0.5418 -0.1451
 1044Sol     HW 7182   2.685   2.166   4.218 -0.7777 -1.0248  0.1571
 1044Sol     HW 7183   2.594   2.250   4.130  1.5122  0.3435 -0.9502
 1044Sol     MW 7184   2.643   2.244   4.205 -0.4125 -0.0990  0.2798
 1045Sol     OW 7185   3.154   1.815   2.451 -0.5071  0.5568  0.1791
 1045Sol     HW 7186   3.168   1.734   2.500  0.3825  0.6972  0.1688
 1045Sol     HW 7187   3.239   1.858   2.452 -1.1762  1.9047  0.9124
 1045Sol     MW 7188   3.163   1.811   2.456  0.9590 -0.4388  0.0442
 1046Sol     OW 7189   1.462   2.784   8.912 -0.0236  0.0288 -0.1334
 1046Sol     HW 7190   1.441   2.695   8.884 -0.6729 -0.0550  0.5960
 1046Sol     HW 7191   1.377   2.827   8.919  0.1195  0.0365  1.7307
 1046Sol     MW 7192   1.452   2.780   8.910  0.2307  0.3315 -0.0498
 1047Sol     OW 7193   0.990   0.442   9.531  0.1052  0.4195  0.2224
 1047Sol     HW 7194   0.983   0.509   9.599  0.4708  1.2769 -0.5665
 1047Sol     HW 7195   0.900   0.414   9.516 -0.0053  0.4364  0.8602
 1047Sol     MW 7196   0.981   0.446   9.536  0.1463  0.0490  0.2854
 1048Sol     OW 7197   1.480   0.758   9.349  0.0631 -0.4738 -0.2434
 1048Sol     HW 7198   1.473   0.717   9.436  4.3644  0.4290  0.6594
 1048Sol     HW 7199   1.536   0.698   9.299 -1.0870 -0.1893 -1.9144
 1048Sol     MW 7200   1.485   0.749   9.353  0.5094 -0.0458  0.1310
 1049Sol     OW 7201   2.174   0.283   5.655  0.0198  0.5949  0.0328
 1049Sol     HW 7202   2.253   0.230   5.666 -1.1343 -1.7264 -2.4149
 1049Sol     HW 7203   2.122   0.236   5.590 -3.7124  1.7514  2.0388
 1049Sol     MW 7204   2.177   0.274   5.650 -0.0294 -0.0766 -0.4534
 1050Sol     OW 7205   1.463   3.216   1.493 -0.1181 -0.2545 -0.1942
 1050Sol     HW 7206   1.544   3.267   1.487  1.5853 -2.6278  1.5998
 1050Sol     HW 7207   1.402   3.261   1.434  2.3084  1.9093 -1.1659
 1050Sol     MW 7208   1.465   3.225   1.487 -0.3197 -0.0294  0.4040
 1051Sol     OW 7209   0.651   0.018   2.025 -0.0376 -0.0651 -0.3841
 1051Sol     HW 7210   0.572   0.049   1.980 -0.8122 -1.1911  0.1939
 1051Sol     HW 7211   0.619  -0.025   2.104  1.1623 -0.5358 -0.1428
 1051Sol     MW 7212   0.641   0.017   2.028  0.6544 -0.4774  0.3792
 1052Sol     OW 7213   2.566   0.456   9.103  0.1959  0.0383 -0.2215
 1052Sol     HW 7214   2.619   0.437   9.180  0.2235  0.6923 -0.0766
 1052Sol     HW 7215   2.629   0.482   9.035  0.0415  1.1873  0.0641
 1052Sol     MW 7216   2.576   0.457   9.103 -0.1667  0.2904  0.0178
 1053Sol     OW 7217   2.704   2.118   1.945  0.3290  0.2223 -0.3495
 1053Sol     HW 7218   2.629   2.058   1.945  0.5137 -0.0081 -0.3479
 1053Sol     HW 7219   2.694   2.167   2.026  1.2143 -1.1115  0.5858
 1053Sol     MW 7220   2.696   2.117   1.952 -0.1475  0.2533 -0.0864
 1054Sol     OW 7221   1.807   3.260   6.307  0.1019 -0.0766 -1.1389
 1054Sol     HW 7222   1.713   3.271   6.302 -0.0894 -1.3479 -0.6440
 1054Sol     HW 7223   1.832   3.300   6.390 -0.0518 -0.0540 -1.1035
 1054Sol     MW 7224   1.801   3.264   6.314 -0.1715  0.0785 -0.4992
 1055Sol     OW 7225   1.337   2.614   6.400  0.3092  0.1668 -0.3055
 1055Sol     HW 7226   1.400   2.553   6.364  1.4340  0.8906  0.3925
 1055Sol     HW 7227   1.366   2.629   6.490 -0.6313  0.8002 -0.0934
 1055Sol     MW 7228   1.345   2.610   6.405  0.5043  0.0498  0.5875
 1056Sol     OW 7229   2.375   2.506   8.142  0.1894  0.3014  0.1972
 1056Sol     HW 7230   2.456   2.481   8.187  1.6381  0.3303 -2.2747
 1056Sol     HW 7231   2.402   2.576   8.082 -1.0899 -1.4730 -2.5679
 1056Sol     MW 7232   2.385   2.510   8.141 -0.3143  0.3642 -0.0156
 1057Sol     OW 7233   0.994   3.110   5.441 -0.5508 -0.3845  0.1360
 1057Sol     HW 7234   1.070   3.085   5.388  0.7811 -0.3416  1.9666
 1057Sol     HW 7235   1.003   3.057   5.521 -1.1459  1.3309  1.3655
 1057Sol     MW 7236   1.002   3.103   5.444  0.3321  0.2845 -0.0624
 1058Sol     OW 7237   0.132   0.073   5.440 -0.2547  0.5617 -0.6588
 1058Sol     HW 7238   0.056   0.080   5.382 -0.0977  0.1072 -0.9245
 1058Sol     HW 7239   0.203   0.046   5.382 -0.2785 -0.7213 -0.1160
 1058Sol     MW 7240   0.132   0.071   5.429  0.2226  0.1992  1.3542
 1059Sol     OW 7241   1.356   2.477   3.611  0.2847 -0.1269 -0.3861
 1059Sol     HW 7242   1.266   2.509   3.610  0.9969  1.9204 -1.6212
 1059Sol     HW 7243   1.352   2.393   3.566 -1.0102 -0.0453 -0.4324
 1059Sol     MW 7244   1.348   2.472   3.607  0.3035 -0.6792  0.7331
 1060Sol     OW 7245   2.181   2.280   3.614  0.2812  0.5398 -0.0225
 1060Sol     HW 7246   2.254   2.342   3.620  0.5910  0.1564  0.2356
 1060Sol     HW 7247   2.218   2.204   3.568  0.5922 -0.4432  1.7995
 1060Sol     MW 7248   2.191   2.278   3.611 -0.1153 -0.1729  0.2137
 1061Sol     OW 7249   1.040   3.377   4.224  0.0154 -0.1816 -0.0106
 1061Sol     HW 7250   1.121   3.333   4.249 -0.3622 -0.3386  0.9712
 1061Sol     HW 7251   1.059   3.417   4.139  1.7632  1.5831  1.2026
 1061Sol     MW 7252   1.049   3.376   4.218 -0.1695 -0.1690 -0.6652
 1062Sol     OW 7253   0.605   3.093   6.913  0.2286 -0.1636 -0.7414
 1062Sol     HW 7254   0.681   3.123   6.863 -0.1129  1.0954 -0.5268
 1062Sol     HW 7255   0.531   3.113   6.856 -0.1626  1.2821  0.2558
 1062Sol     MW 7256   0.605   3.097   6.903 -0.1273 -0.0206 -0.2996
 1063Sol     OW 7257   0.700   0.985   7.031 -0.4750  0.2745 -0.2708
 1063Sol     HW 7258   0.605   0.990   7.021 -0.6472 -2.3659 -0.3140
 1063Sol     HW 7259   0.717   0.894   7.053  1.7038  1.4780  3.5216
 1063Sol     MW 7260   0.693   0.978   7.032 -0.0550 -0.2122  0.6544
 1064Sol     OW 7261   0.949   2.588   5.733 -0.1112 -0.4653  0.0935
 1064Sol     HW 7262   0.962   2.564   5.825  1.3229  0.7006  0.2090
 1064Sol     HW 7263   0.898   2.669   5.737 -2.1630 -1.7087 -0.2183
 1064Sol     MW 7264   0.945   2.593   5.742 -0.1935  0.6236 -0.6540
 1065Sol     OW 7265   2.683   2.161   8.826  0.1304  0.0126 -0.4326
 1065Sol     HW 7266   2.614   2.227   8.829  0.6471  0.4931  1.5669
 1065Sol     HW 7267   2.760   2.208   8.794  0.4357  0.3397  0.7590
 1065Sol     MW 7268   2.684   2.171   8.823 -0.1276 -0.3711  0.0965
 1066Sol     OW 7269   2.692   3.447   9.508  0.1277  0.2650  0.3465
 1066Sol     HW 7270   2.696   3.436   9.412  1.5705  0.1793  0.4073
 1066Sol     HW 7271   2.681   3.358   9.541 -0.4362  0.3011  0.2626
 1066Sol     MW 7272   2.692   3.438   9.502 -0.6758  0.2124 -0.0813
 1067Sol     OW 7273   0.608   1.687   6.369 -0.2559  0.1740  0.2485
 1067Sol     HW 7274   0.547   1.630   6.320 -1.0545  2.4949 -1.5610
 1067Sol     HW 7275   0.606   1.653   6.458  2.0108 -4.8854 -1.4027
 1067Sol     MW 7276   0.602   1.679   6.372  0.2278  0.1376  0.8232
 1068Sol     OW 7277   2.218   2.919   3.467 -0.0506  0.4799 -0.3339
 1068Sol     HW 7278   2.249   2.983   3.531 -2.5331  0.3828  1.0026
 1068Sol     HW 7279   2.255   2.950   3.384  1.5826  1.7096  0.8016
 1068Sol     MW 7280   2.224   2.928   3.465  0.5949  0.8000 -0.6971
 1069Sol     OW 7281   3.304   0.553   3.496 -0.3212  0.0435 -0.1675
 1069Sol     HW 7282   3.368   0.483   3.507 -1.5428 -1.3079 -1.4169
 1069Sol     HW 7283   3.322   0.614   3.567  0.7980 -1.5260  0.9215
 1069Sol     MW 7284   3.311   0.552   3.504 -0.4141  0.1693 -0.0763
 1070Sol     OW 7285   1.291   1.418   1.837  0.0029 -0.4248  0.4714
 1070Sol     HW 7286   1.364   1.480   1.841  0.4221 -0.9711  1.6046
 1070Sol     HW 7287   1.213   1.472   1.830  0.5996  0.1439 -2.3922
 1070Sol     MW 7288   1.291   1.428   1.837 -0.0503  0.2361  0.5270
 1071Sol     OW 7289   3.020   2.286   6.258  0.0603 -0.7849 -0.2740
 1071Sol     HW 7290   2.992   2.216   6.200  2.5071 -1.2593 -0.9282
 1071Sol     HW 7291   3.109   2.262   6.283 -0.6734 -0.2748  3.1753
 1071Sol     MW 7292   3.025   2.277   6.255 -0.2850 -0.0389 -0.6402
 1072Sol     OW 7293   1.480   0.138   6.185 -0.3824  0.2288 -0.0601
 1072Sol     HW 7294   1.388   0.164   6.185 -0.5396 -0.3104  0.2667
 1072Sol     HW 7295   1.485   0.068   6.119 -0.5286 -0.8199  1.0193
 1072Sol     MW 7296   1.472   0.134   6.179  0.4218  0.3814 -0.5474
 1073Sol     OW 7297   2.764   1.007   1.913 -0.0094 -0.0621 -0.0332
 1073Sol     HW 7298   2.711   1.033   1.837 -0.5893 -1.0773  0.0155
 1073Sol     HW 7299   2.848   0.979   1.876 -0.4228 -0.9089 -0.3344
 1073Sol     MW 7300   2.767   1.007   1.903 -0.3731  0.4906 -0.4373
 1074Sol     OW 7301   2.488   1.524   8.940 -0.0442 -0.1257  0.1395
 1074Sol     HW 7302   2.461   1.534   9.031  2.1280 -0.7482  0.8807
 1074Sol     HW 7303   2.469   1.433   8.919 -1.3306  0.2376 -0.3129
 1074Sol     MW 7304   2.484   1.517   8.946 -0.0565  0.4337  0.9808
 1075Sol     OW 7305   2.668   3.362   1.476 -0.2158  0.2139 -0.4258
 1075Sol     HW 7306   2.591   3.418   1.477 -0.1366  0.3191  0.4238
 1075Sol     HW 7307   2.737   3.416   1.436  0.3127  1.3622  1.9371
 1075Sol     MW 7308   2.668   3.371   1.472  0.4527  0.3766 -0.0322
 1076Sol     OW 7309   2.604   3.053   3.879  0.1793 -0.2115 -0.2647
 1076Sol     HW 7310   2.556   3.052   3.962 -0.4394 -0.9285 -0.6387
 1076Sol     HW 7311   2.637   2.964   3.869  1.0405  0.1047 -0.3392
 1076Sol     MW 7312   2.603   3.045   3.886  0.1422  0.0690  0.6079
 1077Sol     OW 7313   0.599   2.601   5.632  0.1023 -0.9065  0.1581
 1077Sol     HW 7314   0.671   2.645   5.677  0.0371  0.3065 -0.9112
 1077Sol     HW 7315   0.520   2.633   5.675  0.0471  0.1592 -0.7103
 1077Sol     MW 7316   0.598   2.608   5.640  0.0396 -0.4655  0.2852
 1078Sol     OW 7317   2.300   0.943   7.443  0.0224  0.2954  0.4197
 1078Sol     HW 7318   2.228   1.000   7.471 -0.3094  0.6395 -1.1198
 1078Sol     HW 7319   2.285   0.928   7.350  2.0245  0.4911  0.0452
 1078Sol     MW 7320   2.293   0.947   7.438  0.4795 -0.3814 -0.2803
 1079Sol     OW 7321   0.942   2.420   8.996 -0.2042 -0.0178  0.1597
 1079Sol     HW 7322   1.005   2.448   8.930  1.1307  0.2151  1.5037
 1079Sol     HW 7323   0.876   2.370   8.947  0.3877  0.7410 -1.4305
 1079Sol     MW 7324   0.942   2.418   8.985  0.4697 -0.1154 -0.0312
 1080Sol     OW 7325   1.253   0.505   7.463 -0.0801  1.0946  0.3202
 1080Sol     HW 7326   1.186   0.572   7.473 -0.0680  0.9734  1.2650
 1080Sol     HW 7327   1.222   0.432   7.516  1.0065  1.2068  1.1245
 1080Sol     MW 7328   1.244   0.504   7.468 -0.4655  0.2186 -0.0590
 1081Sol     OW 7329   0.676   2.009   2.849 -0.4419  0.0834 -0.1691
 1081Sol     HW 7330   0.678   2.045   2.760  1.4016 -0.6044 -0.4368
 1081Sol     HW 7331   0.768   1.996   2.871 -0.8883  0.3291  1.8935
 1081Sol     MW 7332   0.684   2.011   2.843  0.6176 -0.7846  0.3823
 1082Sol     OW 7333   1.069   3.233   7.759  0.1865 -0.2825 -0.1491
 1082Sol     HW 7334   0.980   3.201   7.772  0.0765  0.4029  0.8267
 1082Sol     HW 7335   1.123   3.173   7.811  0.1870 -0.0430  0.1228
 1082Sol     MW 7336   1.066   3.224   7.765 -0.6230  1.1818 -0.8206
 1083Sol     OW 7337   2.601   3.359   5.987 -0.3114 -0.3545 -0.0884
 1083Sol     HW 7338   2.528   3.375   6.047 -1.1902 -1.7475 -0.7479
 1083Sol     HW 7339   2.679   3.364   6.042 -0.9463  0.4421  0.7640
 1083Sol     MW 7340   2.601   3.361   5.997  0.2454  0.3536  0.1307
 1084Sol     OW 7341   0.909   2.039   2.038 -0.1286 -0.2571 -0.0830
 1084Sol     HW 7342   0.948   2.087   1.965 -1.1453 -0.1363 -0.5623
 1084Sol     HW 7343   0.921   1.947   2.016 -3.9967 -0.2984 -2.4404
 1084Sol     MW 7344   0.913   2.035   2.029  0.0211  0.1004  0.1999
 1085Sol     OW 7345   1.489   0.693   7.451  0.4916  0.4812  0.6011
 1085Sol     HW 7346   1.529   0.612   7.483  0.6774  0.6415  0.7795
 1085Sol     HW 7347   1.408   0.665   7.409  1.8524 -0.0944 -1.7508
 1085Sol     MW 7348   1.485   0.683   7.450  0.7118  0.2910 -0.5130
 1086Sol     OW 7349   3.153   2.799   6.264 -0.6323 -0.4521  0.1969
 1086Sol     HW 7350   3.097   2.723   6.277 -0.5925 -0.5859 -0.4241
 1086Sol     HW 7351   3.173   2.829   6.353 -1.7914 -0.3256  0.4277
 1086Sol     MW 7352   3.149   2.795   6.273 -0.0339  0.3327 -0.4475
 1087Sol     OW 7353   1.346   1.293   4.091 -0.2945  0.3716 -0.6389
 1087Sol     HW 7354   1.302   1.319   4.172  0.4292 -0.1871 -0.0569
 1087Sol     HW 7355   1.275   1.275   4.030 -0.8792  4.9234 -1.5159
 1087Sol     MW 7356   1.336   1.294   4.093  0.0830 -0.0262 -0.2121
 1088Sol     OW 7357   3.274   1.552   6.852 -0.2271 -0.0878  0.1753
 1088Sol     HW 7358   3.234   1.561   6.939 -1.8073  0.6872 -0.5944
 1088Sol     HW 7359   3.348   1.612   6.853  0.4923 -0.9791  1.3839
 1088Sol     MW 7360   3.277   1.558   6.860  0.1718  0.0993 -0.6455
 1089Sol     OW 7361   2.054   1.675   9.542  0.2063 -0.2312  0.0695
 1089Sol     HW 7362   2.055   1.771   9.541 -1.9070 -0.1807 -0.5177
 1089Sol     HW 7363   2.137   1.650   9.581  0.3125  1.8632  1.2330
 1089Sol     MW 7364   2.061   1.681   9.545 -0.2076  0.6888  0.9442
 1090Sol     OW 7365   2.837   2.885   1.959 -0.5327 -0.0229 -0.3009
 1090Sol     HW 7366   2.932   2.895   1.962 -0.3635 -1.3518 -1.0406
 1090Sol     HW 7367   2.809   2.893   2.050  0.5505 -2.1332  0.2468
 1090Sol     MW 7368   2.843   2.887   1.967 -0.1236  0.1409  0.6001
 1091Sol     OW 7369   2.329   0.710   4.680  0.0113 -0.2738 -0.0069
 1091Sol     HW 7370   2.381   0.747   4.751  1.8203  1.6896 -2.2664
 1091Sol     HW 7371   2.273   0.782   4.650 -0.8166 -1.1036 -0.4979
 1091Sol     MW 7372   2.328   0.720   4.683  0.0730  0.3699 -0.0472
 1092Sol     OW 7373   0.453   1.843   7.718 -0.2586 -0.5045 -0.0773
 1092Sol     HW 7374   0.397   1.793   7.658  2.0229 -1.4088 -1.5065
 1092Sol     HW 7375   0.493   1.777   7.774  0.3977  0.0129  0.0617
 1092Sol     MW 7376   0.451   1.832   7.718 -0.2919 -0.0091 -0.3448
 1093Sol     OW 7377   0.470   1.505   8.904 -0.0383 -0.4804 -0.6589
 1093Sol     HW 7378   0.466   1.432   8.843  0.6720 -2.8767  2.0914
 1093Sol     HW 7379   0.563   1.519   8.919 -0.2050  0.1515 -0.1872
 1093Sol     MW 7380   0.478   1.500   8.900  0.2125 -0.5465  0.6116
 1094Sol     OW 7381   2.424   3.209   8.287  0.0013 -0.4788  0.2764
 1094Sol     HW 7382   2.432   3.236   8.195  0.6854 -2.1712 -0.1748
 1094Sol     HW 7383   2.335   3.234   8.311 -0.0726  0.2904 -0.7396
 1094Sol     MW 7384   2.417   3.214   8.281  0.4996  0.3347 -0.2581
 1095Sol     OW 7385   3.295   2.405   4.571  0.5959 -0.2593  0.1314
 1095Sol     HW 7386   3.331   2.490   4.597  1.1935 -1.1356  2.3094
 1095Sol     HW 7387   3.244   2.424   4.492 -1.0090  2.5172  1.7112
 1095Sol     MW 7388   3.293   2.415   4.566  0.1969  0.2420 -0.1456
 1096Sol     OW 7389   2.993   2.672   9.573  0.2343 -0.1972  0.6288
 1096Sol     HW 7390   2.954   2.726   9.505 -0.7612 -0.7723  0.7294
 1096Sol     HW 7391   2.941   2.591   9.572  0.1798 -0.1871  2.0925
 1096Sol     MW 7392   2.985   2.669   9.567 -0.4249 -0.1369  0.5206
 1097Sol     OW 7393   1.337   0.785   1.773 -0.2215  0.8926 -0.4570
 1097Sol     HW 7394   1.290   0.748   1.698  0.2212  3.3082 -2.0094
 1097Sol     HW 7395   1.337   0.716   1.839  0.8946 -1.9356 -3.3286
 1097Sol     MW 7396   1.332   0.776   1.772  0.0611 -0.8137 -0.5158
 1098Sol     OW 7397   1.743   1.456   8.274  0.5522 -0.4457  0.2500
 1098Sol     HW 7398   1.755   1.543   8.237  0.6712 -0.3043  0.6189
 1098Sol     HW 7399   1.648   1.449   8.289  0.6432 -0.0297  1.0620
 1098Sol     MW 7400   1.735   1.463   8.272 -0.1613 -0.1858 -0.1541
 1099Sol     OW 7401   1.286   0.557   5.448  0.2008  0.3642  0.4607
 1099Sol     HW 7402   1.320   0.645   5.441 -2.5728  1.4810  0.3325
 1099Sol     HW 7403   1.313   0.513   5.367  1.9356  0.9492  0.7175
 1099Sol     MW 7404   1.291   0.561   5.440 -0.2567 -0.5754 -0.7352
 1100Sol     OW 7405   2.518   3.076   4.925 -0.1712 -0.1757 -0.6132
 1100Sol     HW 7406   2.470   3.065   5.007 -0.7962 -0.3790 -1.0024
 1100Sol     HW 7407   2.457   3.046   4.858  0.7642 -1.1286 -1.0538
 1100Sol     MW 7408   2.508   3.072   4.927 -0.2526  0.1267  0.2405
 1101Sol     OW 7409   1.119   2.290   7.352 -0.1817  0.0496 -0.1490
 1101Sol     HW 7410   1.066   2.363   7.385  0.5127  0.3279  0.3721
 1101Sol     HW 7411   1.207   2.327   7.343 -0.2636 -0.1414 -1.9165
 1101Sol     MW 7412   1.122   2.300   7.354  0.5665  0.1620 -0.4777
 1102Sol     OW 7413   0.324   0.425   7.790  0.5398  0.3100  0.4664
 1102Sol     HW 7414   0.311   0.338   7.753 -0.8141  0.4781  0.4971
 1102Sol     HW 7415   0.335   0.483   7.715 -0.3868  0.3784  0.3775
 1102Sol     MW 7416   0.324   0.422   7.780 -0.3778 -0.5807  0.5393
 1103Sol     OW 7417   0.904   2.391   2.732 -0.2341  0.2473  0.2679
 1103Sol     HW 7418   0.885   2.440   2.811 -1.9269 -0.7025  0.4905
 1103Sol     HW 7419   0.981   2.339   2.753  0.1756  1.0775  0.8096
 1103Sol     MW 7420   0.909   2.390   2.741 -0.3041 -0.0715  0.0577
 1104Sol     OW 7421   2.323   1.241   5.405 -0.8207 -0.4374 -0.4535
 1104Sol     HW 7422   2.387   1.240   5.334 -1.1351 -0.4656 -0.7394
 1104Sol     HW 7423   2.336   1.157   5.450  0.2561  0.1361  0.3179
 1104Sol     MW 7424   2.330   1.233   5.403  0.0742 -0.1900 -0.6168
 1105Sol     OW 7425   0.319   2.580   7.970  0.3925 -0.1989  0.1208
 1105Sol     HW 7426   0.253   2.626   7.917  0.2662 -0.6023 -0.0763
 1105Sol     HW 7427   0.299   2.605   8.060 -0.8641 -1.3555  0.1867
 1105Sol     MW 7428   0.311   2.586   7.973  0.3733  0.6686  0.2801
 1106Sol     OW 7429   1.748   1.157   7.130  0.4816 -0.2849  0.4504
 1106Sol     HW 7430   1.661   1.127   7.157  0.1561  0.5789  0.3555
 1106Sol     HW 7431   1.752   1.136   7.037 -1.1747  3.2694 -0.4997
 1106Sol     MW 7432   1.740   1.152   7.124 -0.0063 -0.4956 -0.0712
 1107Sol     OW 7433   2.193   0.987   2.248  0.1467  0.0674  0.5169
 1107Sol     HW 7434   2.279   0.945   2.249 -0.4990 -1.2864  0.7747
 1107Sol     HW 7435   2.211   1.078   2.228  1.6646 -0.1628  0.7662
 1107Sol     MW 7436   2.203   0.991   2.246 -0.3939  0.0654  0.7951
 1108Sol     OW 7437   0.386   3.312   3.802  0.1839 -0.0941 -0.2314
 1108Sol     HW 7438   0.407   3.328   3.710  1.7070 -0.3366  0.0626
 1108Sol     HW 7439   0.396   3.218   3.813  0.0074 -0.0668  0.1881
 1108Sol     MW 7440   0.389   3.305   3.795  0.2683  0.7437 -0.2306
 1109Sol     OW 7441   1.780   0.801   2.410 -0.1006 -0.8067 -0.2261
 1109Sol     HW 7442   1.801   0.818   2.502  0.7158 -0.4197 -0.4734
 1109Sol     HW 7443   1.857   0.754   2.377 -1.1552 -2.5516 -0.2550
 1109Sol     MW 7444   1.789   0.798   2.416  0.3438 -0.5195 -0.1394
 1110Sol     OW 7445   0.716   1.837   3.204 -0.3172 -0.0606  0.0622
 1110Sol     HW 7446   0.756   1.912   3.159  1.2999 -0.5252  0.7026
 1110Sol     HW 7447   0.657   1.799   3.138  1.8897 -0.6373 -1.6381
 1110Sol     MW 7448   0.714   1.841   3.194  0.5671 -1.5037 -0.4137
 1111Sol     OW 7449   3.105   1.306   4.738 -0.2954 -0.0555  0.1373
 1111Sol     HW 7450   3.080   1.274   4.651  0.1380 -1.5116  0.5276
 1111Sol     HW 7451   3.075   1.396   4.740 -0.8143 -0.1808 -1.3248
 1111Sol     MW 7452   3.100   1.311   4.730 -0.2056  0.3985 -0.1860
 1112Sol     OW 7453   0.979   0.670   6.345 -0.7584  0.2920 -0.1374
 1112Sol     HW 7454   0.994   0.755   6.303  0.1968  0.5108  0.6098
 1112Sol     HW 7455   1.040   0.670   6.419  0.9764 -2.0057 -1.4775
 1112Sol     MW 7456   0.986   0.678   6.348  0.7251 -0.4635 -0.3758
 1113Sol     OW 7457   0.929   1.691   7.040  0.0384 -0.4827  0.3359
 1113Sol     HW 7458   0.863   1.685   6.971 -1.2017  0.1047  1.4611
 1113Sol     HW 7459   0.907   1.620   7.100  0.7110 -0.5660  0.4877
 1113Sol     MW 7460   0.921   1.684   7.039  0.1699  0.1570  0.4511
 1114Sol     OW 7461   3.267   2.699   7.389  0.0458 -0.1547  0.1685
 1114Sol     HW 7462   3.255   2.781   7.341  0.8087  0.5049  1.0883
 1114Sol     HW 7463   3.241   2.631   7.327  1.5157  0.6622 -1.3680
 1114Sol     MW 7464   3.264   2.700   7.379  0.1885  0.0033  0.5682
 1115Sol     OW 7465   2.109   2.989   4.714  0.1209 -0.3634 -0.0674
 1115Sol     HW 7466   2.187   2.936   4.732 -0.4237 -0.6742  1.4087
 1115Sol     HW 7467   2.136   3.047   4.643  1.5406 -0.8126  0.0834
 1115Sol     MW 7468   2.118   2.989   4.709 -0.3265  0.2866  0.3151
 1116Sol     OW 7469   0.237   2.372   2.903  0.3480 -0.2596 -0.7252
 1116Sol     HW 7470   0.219   2.466   2.904  1.6767  0.0009 -0.6421
 1116Sol     HW 7471   0.234   2.348   2.811 -0.4649 -0.2400 -0.7111
 1116Sol     MW 7472   0.235   2.379   2.895 -0.6841 -1.0766 -0.5068
 1117Sol     OW 7473   2.515   3.149   8.993 -0.3346  0.0855  0.6654
 1117Sol     HW 7474   2.561   3.229   8.967  0.1645 -0.5556 -0.4873
 1117Sol     HW 7475   2.525   3.144   9.088  0.2437  1.0182  0.6501
 1117Sol     MW 7476   2.520   3.155   8.999 -0.0281  0.4153 -0.7836
 1118Sol     OW 7477   1.660   0.739   8.925 -0.0376  0.7120  0.4546
 1118Sol     HW 7478   1.685   0.652   8.896  0.1332  0.7761  0.4123
 1118Sol     HW 7479   1.702   0.748   9.011 -0.9775  0.3136  0.9640
 1118Sol     MW 7480   1.666   0.732   8.930 -0.2837 -0.1450 -0.7391
 1119Sol     OW 7481   0.341   1.114   7.494 -0.0661 -0.3734 -0.4757
 1119Sol     HW 7482   0.345   1.028   7.452  0.8199 -0.4043 -0.3317
 1119Sol     HW 7483   0.263   1.110   7.549 -0.9611 -0.5074 -1.7397
 1119Sol     MW 7484   0.335   1.106   7.495  0.8129 -0.4575 -0.5176
 1120Sol     OW 7485   2.720   2.398   3.805 -0.0080  0.1228  0.1076
 1120Sol     HW 7486   2.798   2.405   3.751 -0.6386 -0.5069 -0.9010
 1120Sol     HW 7487   2.661   2.342   3.755  0.2291 -2.2839  2.3932
 1120Sol     MW 7488   2.722   2.393   3.796  0.2319  0.2960  0.4993
 1121Sol     OW 7489   1.606   1.951   5.337  0.4430 -0.2173 -0.1249
 1121Sol     HW 7490   1.514   1.938   5.358  0.4504 -2.4286 -1.2758
 1121Sol     HW 7491   1.608   2.030   5.282 -0.4123  1.3543  2.0320
 1121Sol     MW 7492   1.598   1.957   5.334 -0.3577 -0.4797 -0.5726
 1122Sol     OW 7493   3.057   0.818   6.004  0.2828 -0.4049  0.3144
 1122Sol     HW 7494   3.147   0.847   5.988 -0.0127  0.2309 -0.2476
 1122Sol     HW 7495   3.062   0.723   6.009  0.9788 -0.3718  0.2060
 1122Sol     MW 7496   3.065   0.812   6.003  0.1026 -0.4351  0.3134
 1123Sol     OW 7497   1.029   0.674   7.477 -0.4461  0.7465  0.1413
 1123Sol     HW 7498   1.065   0.701   7.393 -0.4772  1.0745  0.2339
 1123Sol     HW 7499   0.967   0.604   7.455  0.9543 -0.5104  0.0736
 1123Sol     MW 7500   1.027   0.670   7.468  0.0513  0.0827 -0.2197
 1124Sol     OW 7501   2.925   1.335   6.059 -0.0055 -0.0842  0.4828
 1124Sol     HW 7502   2.927   1.276   5.984  0.4950  0.9292 -0.3154
 1124Sol     HW 7503   2.998   1.306   6.114  0.0684 -0.3733  0.2346
 1124Sol     MW 7504   2.932   1.327   6.057  0.0410 -0.1886  0.4649
 1125Sol     OW 7505   2.173   2.001   9.161  0.4051 -0.1348 -0.5595
 1125Sol     HW 7506   2.160   2.094   9.179  2.5213  0.2643 -1.0302
 1125Sol     HW 7507   2.181   1.996   9.066 -0.8330 -0.9595 -0.6300
 1125Sol     MW 7508   2.173   2.009   9.154  0.1538 -0.6091 -0.3322
 1126Sol     OW 7509   2.413   0.234   6.987  0.2193 -0.2192  0.3687
 1126Sol     HW 7510   2.458   0.180   6.923  0.9544  0.6563  0.1458
 1126Sol     HW 7511   2.411   0.181   7.067 -0.1863 -1.0730 -0.2036
 1126Sol     MW 7512   2.417   0.224   6.989 -0.5189  0.2126  0.0816
 1127Sol     OW 7513   0.716   1.086   7.935  0.2017 -0.1347 -0.8687
 1127Sol     HW 7514   0.779   1.020   7.905 -1.5813 -1.3128 -2.1771
 1127Sol     HW 7515   0.713   1.149   7.863  0.3456  0.2431 -0.5395
 1127Sol     MW 7516   0.721   1.085   7.926 -0.4671 -0.8840 -0.7632
 1128Sol     OW 7517   0.778   1.204   1.411 -0.2733 -0.0467  0.1148
 1128Sol     HW 7518   0.820   1.281   1.375 -1.3315  1.0545  1.1738
 1128Sol     HW 7519   0.694   1.236   1.445  0.1261 -1.2499  2.3624
 1128Sol     MW 7520   0.774   1.214   1.411  0.2109 -0.5196  0.2575
 1129Sol     OW 7521   1.968   2.427   4.798  0.5130  0.2086  0.3092
 1129Sol     HW 7522   1.937   2.449   4.710  1.4771  1.3384  0.2380
 1129Sol     HW 7523   1.996   2.511   4.835  0.8219 -0.3713  1.4091
 1129Sol     MW 7524   1.968   2.437   4.793  0.4274 -0.2846  0.1199
 1130Sol     OW 7525   2.734   2.028   3.670  0.7474 -1.0188 -0.3581
 1130Sol     HW 7526   2.762   2.075   3.592 -0.8548  1.9642  0.7821
 1130Sol     HW 7527   2.805   2.042   3.733 -0.3710  1.2120  0.4619
 1130Sol     MW 7528   2.743   2.033   3.669  0.3261  1.0945  0.4391
 1131Sol     OW 7529   2.810   3.120   6.455 -0.1011  0.0229  0.1156
 1131Sol     HW 7530   2.894   3.092   6.418 -0.4179 -0.6760 -0.0934
 1131Sol     HW 7531   2.801   3.212   6.430  0.7258  0.1765  0.3698
 1131Sol     MW 7532   2.817   3.125   6.450 -0.4435  0.3550  0.0635
 1132Sol     OW 7533   1.346   2.406   7.208  0.4160  0.2666  0.2244
 1132Sol     HW 7534   1.368   2.329   7.154 -0.3056 -1.0543  1.7893
 1132Sol     HW 7535   1.424   2.422   7.259  0.0460 -0.3703  0.9984
 1132Sol     MW 7536   1.355   2.400   7.207 -0.4435 -0.2206 -0.2465
 1133Sol     OW 7537   2.933   2.307   9.341 -0.2252  0.1312 -0.3305
 1133Sol     HW 7538   2.868   2.261   9.288 -0.4143 -0.9098  0.7861
 1133Sol     HW 7539   2.990   2.237   9.374  1.3450  1.0182 -1.1404
 1133Sol     MW 7540   2.932   2.296   9.340  0.4749 -0.0377 -0.9058
 1134Sol     OW 7541   2.931   0.712   8.696  0.4154  0.1382 -0.0275
 1134Sol     HW 7542   2.853   0.766   8.686 -0.4391 -1.0527  0.0189
 1134Sol     HW 7543   3.002   0.765   8.661 -0.5862  0.8356 -1.0349
 1134Sol     MW 7544   2.931   0.721   8.692  0.6801  0.5078  0.1421
 1135Sol     OW 7545   0.972   0.268   1.834  0.0982 -0.4646  0.1075
 1135Sol     HW 7546   0.962   0.178   1.802 -0.9536 -0.2559 -0.1726
 1135Sol     HW 7547   1.034   0.308   1.774 -1.5589 -0.1899 -1.4479
 1135Sol     MW 7548   0.977   0.263   1.826  0.5375  0.4300  0.3087
 1136Sol     OW 7549   2.860   2.640   6.950 -0.0780 -0.2056  0.1601
 1136Sol     HW 7550   2.783   2.697   6.947 -0.4108 -0.5325  1.9647
 1136Sol     HW 7551   2.830   2.560   6.993  0.7866 -1.1204 -0.9068
 1136Sol     MW 7552   2.851   2.638   6.954  0.4549  0.0278 -0.1296
 1137Sol     OW 7553   1.788   1.413   3.179  0.0830  0.2821  0.8049
 1137Sol     HW 7554   1.811   1.395   3.270 -0.9962  1.1014  1.2496
 1137Sol     HW 7555   1.870   1.401   3.131  1.2541  2.1857  2.2287
 1137Sol     MW 7556   1.798   1.410   3.183 -0.3533 -0.6023  0.6112
 1138Sol     OW 7557   2.927   3.098   2.815  0.1192  0.1996  0.2084
 1138Sol     HW 7558   2.998   3.163   2.811  0.0880  0.2412  0.3223
 1138Sol     HW 7559   2.958   3.033   2.879  0.1028  0.1601  0.1760
 1138Sol     MW 7560   2.936   3.098   2.820  0.1480 -0.6967 -0.3627
 1139Sol     OW 7561   2.731   0.413   6.788 -0.5033  0.2337 -0.1873
 1139Sol     HW 7562   2.660   0.420   6.852 -0.0083 -0.7140  0.4922
 1139Sol     HW 7563   2.705   0.471   6.717 -2.2467 -0.5530 -0.2275
 1139Sol     MW 7564   2.722   0.419   6.788  0.4519 -0.2596  0.0791
 1140Sol     OW 7565   1.075   2.326   4.898  0.1663  0.0499  0.4737
 1140Sol     HW 7566   1.035   2.240   4.907 -1.2561  0.8372  1.9634
 1140Sol     HW 7567   1.090   2.356   4.988 -0.0969  1.6825 -0.0041
 1140Sol     MW 7568   1.073   2.321   4.907  0.7012 -0.0281 -0.0277
 1141Sol     OW 7569   1.763   2.466   2.311 -0.0224 -0.4238  0.4246
 1141Sol     HW 7570   1.696   2.480   2.378 -0.4175  2.1527 -0.4390
 1141Sol     HW 7571   1.840   2.511   2.344 -0.2897  1.0739 -0.8889
 1141Sol     MW 7572   1.764   2.472   2.320 -0.4515  0.3005 -0.0544
 1142Sol     OW 7573   1.658   0.808   1.803  0.0126  0.4090  0.3693
 1142Sol     HW 7574   1.564   0.807   1.783 -0.1769  1.5361  1.1697
 1142Sol     HW 7575   1.698   0.763   1.729 -1.1290  0.2534 -0.1684
 1142Sol     MW 7576   1.653   0.804   1.794  0.3481  0.3100 -0.5971
 1143Sol     OW 7577   1.550   0.381   6.132  0.5443  0.3315  0.0417
 1143Sol     HW 7578   1.535   0.289   6.153  0.0281  0.0808 -1.3537
 1143Sol     HW 7579   1.606   0.413   6.203 -0.1240 -0.7797  1.0949
 1143Sol     MW 7580   1.553   0.376   6.140 -0.0426  0.1329  0.2089
 1144Sol     OW 7581   2.728   2.051   7.999  0.2705  0.8070 -0.3237
 1144Sol     HW 7582   2.695   2.132   7.961 -1.8288  0.2766  0.2607
 1144Sol     HW 7583   2.762   2.001   7.925  0.7577  1.8397 -0.7963
 1144Sol     MW 7584   2.728   2.053   7.989  0.1704  0.1654 -0.3348
 1145Sol     OW 7585   1.483   0.188   7.407  0.2406  0.3452 -0.3485
 1145Sol     HW 7586   1.459   0.269   7.362  1.2028  0.7884 -0.0822
 1145Sol     HW 7587   1.577   0.198   7.426  0.1175 -0.3548  0.6726
 1145Sol     MW 7588   1.490   0.196   7.404 -0.5323 -0.6463  0.2920
 1146Sol     OW 7589   0.929   2.021   9.645  0.1234 -0.1282 -0.0991
 1146Sol     HW 7590   0.906   2.060   9.561 -1.6565  1.3402  1.0386
 1146Sol     HW 7591   0.850   1.974   9.672  0.9924 -1.3707  0.3280
 1146Sol     MW 7592   0.920   2.020   9.640  0.1005 -0.2280 -0.0784
 1147Sol     OW 7593   0.168   1.787   5.709  0.3645 -0.0277  0.3103
 1147Sol     HW 7594   0.214   1.820   5.631  0.6414  0.3212  0.6138
 1147Sol     HW 7595   0.147   1.696   5.688  0.4090  0.0727 -0.1832
 1147Sol     MW 7596   0.171   1.782   5.700 -0.3766  0.1439 -0.4449
 1148Sol     OW 7597   2.581   1.421   2.070  0.5312  0.2594  0.1271
 1148Sol     HW 7598   2.620   1.335   2.088 -0.9837 -0.5592 -0.3959
 1148Sol     HW 7599   2.632   1.482   2.123  1.1085 -1.0753  1.1494
 1148Sol     MW 7600   2.589   1.419   2.076 -0.3762 -0.7811  0.2961
 1149Sol     OW 7601   1.650   3.009   9.640  0.5444 -0.6710 -0.0027
 1149Sol     HW 7602   1.720   3.049   9.588  1.6889 -1.5518  0.8361
 1149Sol     HW 7603   1.610   2.945   9.582 -0.6793  1.0163 -1.0429
 1149Sol     MW 7604   1.653   3.007   9.630 -0.2953  0.3668 -0.6167
 1150Sol     OW 7605   2.108   2.521   6.532  0.2519  0.2935  0.2383
 1150Sol     HW 7606   2.072   2.564   6.455 -1.2865 -1.1601  0.1231
 1150Sol     HW 7607   2.124   2.431   6.503  1.2412  0.1714  1.1371
 1150Sol     MW 7608   2.107   2.517   6.523  1.0897 -0.1944 -0.6765
 1151Sol     OW 7609   0.986   2.795   1.590  0.0223  0.2283 -0.1758
 1151Sol     HW 7610   0.931   2.816   1.666 -0.2040 -1.7336  0.2314
 1151Sol     HW 7611   1.067   2.843   1.604 -0.5313  0.9295  0.6368
 1151Sol     MW 7612   0.988   2.801   1.598 -0.1010 -0.2597 -0.3544
 1152Sol     OW 7613   0.334   2.299   6.020  0.2475 -0.0822 -0.1618
 1152Sol     HW 7614   0.280   2.239   5.968 -2.1640  0.6708  1.3451
 1152Sol     HW 7615   0.365   2.364   5.957  0.1521 -1.0555 -1.2300
 1152Sol     MW 7616   0.332   2.299   6.010 -0.4528  0.0300 -0.3659
 1153Sol     OW 7617   3.225   2.487   2.398 -0.4026  0.0229 -0.2097
 1153Sol     HW 7618   3.259   2.543   2.328  1.1727  0.4430  0.8691
 1153Sol     HW 7619   3.226   2.398   2.360 -0.4371  0.3648 -1.0261
 1153Sol     MW 7620   3.228   2.484   2.388  0.0957 -0.3095 -0.2241
 1154Sol     OW 7621   1.216   0.732   7.262  0.3204 -0.0444 -0.2083
 1154Sol     HW 7622   1.214   0.827   7.252  0.1155  0.0314  0.5278
 1154Sol     HW 7623   1.201   0.698   7.174  0.6849  0.6066 -0.5235
 1154Sol     MW 7624   1.214   0.737   7.253  0.6414 -0.0915 -0.0081
 1155Sol     OW 7625   1.227   2.378   6.565  0.3654 -0.2701 -0.1275
 1155Sol     HW 7626   1.241   2.449   6.503 -0.9256 -0.1268 -0.2535
 1155Sol     HW 7627   1.288   2.396   6.636  0.9631  0.2501 -0.7639
 1155Sol     MW 7628   1.234   2.386   6.565  0.1389  0.5066 -0.1020
 1156Sol     OW 7629   1.950   2.977   3.444 -0.2657 -0.2294  0.1708
 1156Sol     HW 7630   2.044   2.960   3.445  0.4874  3.4438 -0.6630
 1156Sol     HW 7631   1.929   2.987   3.351 -1.5700 -1.3456  0.3295
 1156Sol     MW 7632   1.956   2.976   3.436 -0.1813 -0.4582  0.3105
 1157Sol     OW 7633   1.055   0.725   8.030 -0.0331 -0.5383 -0.3794
 1157Sol     HW 7634   1.135   0.678   8.006  0.1843  0.3789 -1.5103
 1157Sol     HW 7635   1.086   0.810   8.062 -0.4930 -0.6500  0.3812
 1157Sol     MW 7636   1.065   0.728   8.031  0.3616 -0.5593  0.4044
 1158Sol     OW 7637   2.265   2.863   8.407 -0.2511  0.4467  0.6305
 1158Sol     HW 7638   2.218   2.946   8.402 -1.0460 -0.0046  0.5366
 1158Sol     HW 7639   2.239   2.816   8.328 -2.1002 -1.0992  2.1238
 1158Sol     MW 7640   2.259   2.867   8.399 -0.0051  0.0078 -0.2938
 1159Sol     OW 7641   1.480   3.250   9.977 -0.5234 -0.2986  0.5064
 1159Sol     HW 7642   1.485   3.168   9.929  0.1867 -0.0715  0.1899
 1159Sol     HW 7643   1.419   3.232  10.049  0.9356 -1.6001  1.4513
 1159Sol     MW 7644   1.475   3.241   9.979 -0.1494  0.4318 -0.2226
 1160Sol     OW 7645   0.603   2.922   1.880  0.2768 -0.0992 -0.3142
 1160Sol     HW 7646   0.621   2.962   1.966  1.6236  0.4424 -0.8278
 1160Sol     HW 7647   0.609   2.995   1.819 -1.6138 -0.3116 -0.7846
 1160Sol     MW 7648   0.605   2.932   1.882 -0.1309 -0.3541 -0.6067
 1161Sol     OW 7649   0.127   0.079   8.848  0.5512  0.1131 -0.1435
 1161Sol     HW 7650   0.062   0.080   8.777 -2.5135 -0.1765  2.5449
 1161Sol     HW 7651   0.163   0.167   8.849 -0.9381  0.7488 -0.7177
 1161Sol     MW 7652   0.124   0.087   8.842  0.1659 -0.1561  0.0886
 1162Sol     OW 7653   2.538   3.004   2.703 -0.1719 -0.3361  0.4587
 1162Sol     HW 7654   2.517   2.912   2.722 -0.7517 -0.2705  0.1506
 1162Sol     HW 7655   2.482   3.026   2.629 -1.3324  0.7864  1.6369
 1162Sol     MW 7656   2.531   2.998   2.698 -0.2185  0.5122 -0.3996
 1163Sol     OW 7657   0.197   2.139   9.124 -0.0021  0.0415 -0.7126
 1163Sol     HW 7658   0.221   2.122   9.215 -0.7154  3.2566  0.1305
 1163Sol     HW 7659   0.101   2.139   9.124 -0.0158 -0.6167 -1.6278
 1163Sol     MW 7660   0.190   2.138   9.132 -0.3826  0.2279  0.4127
 1164Sol     OW 7661   0.566   1.238   3.610 -0.3338 -0.7904 -0.4347
 1164Sol     HW 7662   0.555   1.168   3.674 -1.3778 -0.5436 -0.3301
 1164Sol     HW 7663   0.544   1.199   3.526  0.9986 -1.1032 -0.6541
 1164Sol     MW 7664   0.563   1.229   3.608  0.2670  0.3212  0.7127
 1165Sol     OW 7665   0.622   2.932   4.846  0.4571 -0.1060 -0.4481
 1165Sol     HW 7666   0.650   2.983   4.770 -1.3330  0.7267 -0.5685
 1165Sol     HW 7667   0.608   2.997   4.915 -1.7669 -0.3886 -0.5869
 1165Sol     MW 7668   0.623   2.942   4.846  0.6450  0.8129  0.7018
 1166Sol     OW 7669   2.992   2.901   3.010  0.3767  0.0088 -0.7448
 1166Sol     HW 7670   2.933   2.965   3.049  2.1527  1.6294 -0.6155
 1166Sol     HW 7671   2.936   2.829   2.983 -1.5631  1.2643 -0.1351
 1166Sol     MW 7672   2.982   2.900   3.011  0.0910 -0.2690 -0.1017
 1167Sol     OW 7673   2.713   2.575   7.892 -0.7114  0.7644 -0.0607
 1167Sol     HW 7674   2.678   2.647   7.839  0.3989  0.4185 -1.2649
 1167Sol     HW 7675   2.799   2.557   7.855 -0.6960 -0.7372  0.6796
 1167Sol     MW 7676   2.718   2.580   7.884 -0.1952 -0.0468 -0.0981
 1168Sol     OW 7677   0.424   2.440   3.677 -0.0823 -0.0388  0.2249
 1168Sol     HW 7678   0.410   2.355   3.635 -1.4444  0.4409 -0.3431
 1168Sol     HW 7679   0.518   2.456   3.669  0.0880 -1.2021 -0.2250
 1168Sol     MW 7680   0.431   2.434   3.673  0.0702 -0.2942 -0.4426
 1169Sol     OW 7681   0.892   1.540   6.124  0.5681 -0.0933 -0.2006
 1169Sol     HW 7682   0.874   1.456   6.167 -1.1440  0.1089 -0.4991
 1169Sol     HW 7683   0.946   1.587   6.187  1.2468 -1.2716  0.1291
 1169Sol     MW 7684   0.895   1.536   6.133 -0.4956  0.4697  0.0208
 1170Sol     OW 7685   1.152   1.266   3.913 -0.5688 -0.5258  0.0383
 1170Sol     HW 7686   1.083   1.219   3.866 -0.9872  0.4483 -0.3404
 1170Sol     HW 7687   1.134   1.358   3.896 -0.9652 -0.1311  2.4110
 1170Sol     MW 7688   1.144   1.270   3.907 -0.2403 -0.3578 -0.8891
 1171Sol     OW 7689   0.850   1.355   8.912  0.0738 -0.5158  0.2159
 1171Sol     HW 7690   0.921   1.364   8.975  0.7116 -1.9930 -0.2670
 1171Sol     HW 7691   0.815   1.444   8.902  1.1137  0.0292  1.3004
 1171Sol     MW 7692   0.853   1.364   8.916  0.5203  0.4395 -0.0060
 1172Sol     OW 7693   0.403   1.227   4.843  0.6791  0.3080 -0.1084
 1172Sol     HW 7694   0.368   1.244   4.756  0.0481 -0.1627  0.0475
 1172Sol     HW 7695   0.470   1.160   4.829  0.2738 -0.0868 -0.1778
 1172Sol     MW 7696   0.406   1.223   4.834 -0.3539  0.0139  0.3142
 1173Sol     OW 7697   2.674   2.847   8.865  0.0620 -0.7935  0.5711
 1173Sol     HW 7698   2.685   2.869   8.958 -1.4051  0.4480  0.4750
 1173Sol     HW 7699   2.595   2.895   8.839 -0.5651 -2.5758 -0.8604
 1173Sol     MW 7700   2.668   2.853   8.871  0.2235 -0.0484  1.1839
 1174Sol     OW 7701   1.322   2.027   4.259 -0.5192 -0.6463 -0.0870
 1174Sol     HW 7702   1.372   2.088   4.205  0.9771 -0.7728  1.1054
 1174Sol     HW 7703   1.241   2.073   4.278  0.7626  1.1894  1.1502
 1174Sol     MW 7704   1.320   2.037   4.256  0.3847  0.2679 -0.3453
 1175Sol     OW 7705   0.500   2.506   5.908 -0.7205 -0.2632 -0.2048
 1175Sol     HW 7706   0.573   2.474   5.855 -2.3968 -0.3807 -2.5147
 1175Sol     HW 7707   0.471   2.586   5.863 -3.0699 -1.1374 -0.2655
 1175Sol     MW 7708   0.504   2.511   5.899 -0.5877 -0.0863 -0.2643
 1176Sol     OW 7709   0.830   0.802   3.880  0.0125  0.0758 -0.3809
 1176Sol     HW 7710   0.739   0.776   3.887  0.1499 -0.5089 -0.7457
 1176Sol     HW 7711   0.877   0.721   3.861  0.8029  0.0842  1.3647
 1176Sol     MW 7712   0.826   0.793   3.879  0.3727  0.2026  0.1284
 1177Sol     OW 7713   0.851   0.227   2.071 -0.1028  0.0468 -0.4595
 1177Sol     HW 7714   0.781   0.164   2.054 -1.3464  1.0773  0.7608
 1177Sol     HW 7715   0.893   0.239   1.986 -1.3261 -0.6716 -1.1817
 1177Sol     MW 7716   0.849   0.222   2.062  0.3819 -0.1105  0.0469
 1178Sol     OW 7717   0.395   0.833   3.358 -0.0319 -0.1290 -0.0396
 1178Sol     HW 7718   0.373   0.841   3.265  0.2144  1.6919  0.0433
 1178Sol     HW 7719   0.313   0.849   3.404  0.6035  2.6913  0.1547
 1178Sol     MW 7720   0.386   0.835   3.354 -0.4224  0.3810  0.1137
 1179Sol     OW 7721   1.330   1.303   4.544  0.5606 -0.5315 -0.1791
 1179Sol     HW 7722   1.253   1.313   4.599  0.7233  0.2200 -0.0756
 1179Sol     HW 7723   1.350   1.210   4.547  1.1207 -0.3723  1.7905
 1179Sol     MW 7724   1.325   1.296   4.549  0.3187 -0.5656  0.8113
 1180Sol     OW 7725   2.626   2.775   6.973  0.3124 -0.4243 -0.3352
 1180Sol     HW 7726   2.620   2.792   6.879 -1.3111 -0.0172 -0.1797
 1180Sol     HW 7727   2.586   2.852   7.014  0.1145 -1.0446  0.6584
 1180Sol     MW 7728   2.622   2.783   6.969 -0.0560  0.3573 -0.1328
 1181Sol     OW 7729   0.421   2.619   9.481 -0.0420 -0.1743 -0.3182
 1181Sol     HW 7730   0.351   2.671   9.520 -0.4173  0.9414 -2.4286
 1181Sol     HW 7731   0.434   2.656   9.394  0.5736 -2.8117 -1.4097
 1181Sol     MW 7732   0.416   2.627   9.477 -0.1677  0.1858 -0.1479
 1182Sol     OW 7733   2.811   1.783   4.367  0.1840  0.3197  0.0055
 1182Sol     HW 7734   2.834   1.849   4.433  0.8203  0.6650 -0.5560
 1182Sol     HW 7735   2.851   1.702   4.400 -0.6250  0.1998  0.7104
 1182Sol     MW 7736   2.817   1.782   4.376  0.1080 -0.7617  0.0424
 1183Sol     OW 7737   1.405   2.544   8.759 -0.1613 -0.6468 -0.1270
 1183Sol     HW 7738   1.336   2.514   8.700  1.4341  0.1999 -2.5131
 1183Sol     HW 7739   1.482   2.553   8.703  0.5604  3.5144  1.3815
 1183Sol     MW 7740   1.406   2.542   8.748 -0.2754 -0.5635  0.4812
 1184Sol     OW 7741   2.922   2.258   7.678  0.3074  0.7867  0.1204
 1184Sol     HW 7742   2.957   2.296   7.759 -1.5519 -0.0948  1.3697
 1184Sol     HW 7743   2.996   2.210   7.640  1.0800  0.8211  1.5451
 1184Sol     MW 7744   2.932   2.257   7.682  0.0325  0.8619  0.0418
 1185Sol     OW 7745   3.174   0.496   4.876  0.5563 -0.0285 -0.3144
 1185Sol     HW 7746   3.110   0.537   4.818 -0.1531 -0.4022  0.2010
 1185Sol     HW 7747   3.209   0.569   4.928 -1.2387 -0.1612  1.1151
 1185Sol     MW 7748   3.172   0.506   4.876  0.1845 -0.0159  0.4662
 1186Sol     OW 7749   2.897   1.724   5.176  0.1090 -0.4085  0.1704
 1186Sol     HW 7750   2.826   1.662   5.166  0.2339 -0.5457  0.1317
 1186Sol     HW 7751   2.976   1.675   5.151  0.2394 -0.3120  0.3875
 1186Sol     MW 7752   2.898   1.714   5.173 -0.5200 -0.6039  0.6816
 1187Sol     OW 7753   2.178   1.259   3.452 -0.2945  0.5789 -0.3104
 1187Sol     HW 7754   2.165   1.260   3.547  0.1424 -1.2499 -0.2059
 1187Sol     HW 7755   2.270   1.233   3.441 -0.6931 -0.4591 -1.2407
 1187Sol     MW 7756   2.185   1.257   3.460  0.1500 -0.2291  0.4353
 1188Sol     OW 7757   2.149   1.155   1.425  0.2345  0.7165  0.2564
 1188Sol     HW 7758   2.143   1.250   1.433 -0.5140  0.7208 -0.2254
 1188Sol     HW 7759   2.171   1.141   1.333  0.8393  0.4411  0.4462
 1188Sol     MW 7760   2.150   1.162   1.417 -0.6166  0.2261 -0.2908
 1189Sol     OW 7761   0.792   1.796   4.920  0.1836  0.4620  0.3105
 1189Sol     HW 7762   0.748   1.714   4.942 -0.9656  1.1707  0.7114
 1189Sol     HW 7763   0.820   1.831   5.004 -0.2931  1.0114  0.2408
 1189Sol     MW 7764   0.791   1.792   4.930  0.0439 -0.3868 -0.1575
 1190Sol     OW 7765   1.550   0.937   3.404 -0.7410  0.2276 -0.3039
 1190Sol     HW 7766   1.511   1.024   3.419 -2.6481 -0.9236  1.6724
 1190Sol     HW 7767   1.502   0.903   3.328 -1.3393  0.1315  0.1128
 1190Sol     MW 7768   1.542   0.942   3.399 -0.1979  0.4596 -0.2259
 1191Sol     OW 7769   3.309   3.428   9.059 -0.3478 -0.2627 -0.6809
 1191Sol     HW 7770   3.340   3.465   8.976 -0.7821  2.4471  0.3000
 1191Sol     HW 7771   3.238   3.486   9.085 -1.0110 -1.8114  1.0007
 1191Sol     MW 7772   3.306   3.437   9.054 -0.2238  0.0018 -0.2629
 1192Sol     OW 7773   2.452   2.908   9.751 -0.1125  0.4640 -0.2241
 1192Sol     HW 7774   2.451   2.987   9.805  0.0792  0.5625 -0.3671
 1192Sol     HW 7775   2.417   2.839   9.809 -1.6783  0.9531 -0.5646
 1192Sol     MW 7776   2.449   2.908   9.761  0.6698  0.3991  0.1681
 1193Sol     OW 7777   2.172   0.796   7.631 -0.0104  0.0807  0.0731
 1193Sol     HW 7778   2.102   0.762   7.576  0.5807  0.1761 -0.7516
 1193Sol     HW 7779   2.236   0.833   7.569  0.8565 -0.1802  0.7922
 1193Sol     MW 7780   2.172   0.796   7.620 -0.3792  0.3724  0.3177
 1194Sol     OW 7781   0.163   1.647   2.906  0.2560  0.1929  0.2411
 1194Sol     HW 7782   0.187   1.702   2.831 -1.5611  0.0492 -0.4787
 1194Sol     HW 7783   0.088   1.692   2.944  0.6485 -0.2009  1.4795
 1194Sol     MW 7784   0.159   1.656   2.902  0.0826 -0.2053  0.4467
 1195Sol     OW 7785   2.953   2.771   6.662 -0.2113  0.3422 -0.5542
 1195Sol     HW 7786   2.931   2.816   6.744  1.7425  0.0298  0.1827
 1195Sol     HW 7787   2.885   2.797   6.601 -4.3987 -3.0992  2.3850
 1195Sol     MW 7788   2.945   2.778   6.664 -0.0262  0.3114 -0.0682
 1196Sol     OW 7789   1.008   1.578   2.259 -0.6608  0.1207 -0.4338
 1196Sol     HW 7790   0.999   1.670   2.282 -0.4223  0.4086 -1.4736
 1196Sol     HW 7791   1.082   1.575   2.198  1.4462 -1.1985  2.0991
 1196Sol     MW 7792   1.014   1.586   2.255 -0.0587 -0.5130  0.3404
 1197Sol     OW 7793   0.741   0.263   8.407 -0.3233 -0.7806 -0.0195
 1197Sol     HW 7794   0.775   0.314   8.481 -0.6180  1.2691 -1.2505
 1197Sol     HW 7795   0.779   0.304   8.330 -1.1786 -1.9645 -1.1006
 1197Sol     MW 7796   0.747   0.271   8.407  0.3444 -0.0991  0.2614
 1198Sol     OW 7797   1.062   0.018   8.127 -0.2956 -0.3277 -0.5908
 1198Sol     HW 7798   1.133   0.003   8.065 -0.4354  1.2637 -1.1523
 1198Sol     HW 7799   1.058   0.113   8.137 -1.9737 -0.4324 -0.1346
 1198Sol     MW 7800   1.068   0.025   8.123  0.6417 -0.0531  0.3711
 1199Sol     OW 7801   0.340   0.729   8.307 -0.0331 -0.3270  0.6266
 1199Sol     HW 7802   0.329   0.807   8.253  0.2226 -0.3054  0.6032
 1199Sol     HW 7803   0.345   0.762   8.397  1.6492 -0.1619  0.4953
 1199Sol     MW 7804   0.340   0.739   8.310 -0.4820  0.0052  0.4325
 1200Sol     OW 7805   1.291   1.730   2.984 -0.0448  0.3198 -0.2755
 1200Sol     HW 7806   1.330   1.672   2.918 -0.4432 -0.4954  0.1994
 1200Sol     HW 7807   1.362   1.747   3.046 -0.0042  0.1254 -0.2699
 1200Sol     MW 7808   1.301   1.726   2.983  0.0208  0.4995 -0.0845
 1201Sol     OW 7809   1.408   1.575   8.860 -0.2725  0.3158 -0.0939
 1201Sol     HW 7810   1.393   1.669   8.868 -1.1814  0.1573  0.1378
 1201Sol     HW 7811   1.415   1.544   8.951 -0.0890  0.1477 -0.1656
 1201Sol     MW 7812   1.407   1.580   8.869  0.0511  0.3821  0.1650
 1202Sol     OW 7813   0.839   0.273   7.615 -0.9789  0.2366 -0.5919
 1202Sol     HW 7814   0.932   0.290   7.631 -0.0790 -2.7309 -2.0984
 1202Sol     HW 7815   0.819   0.198   7.671 -1.6950 -0.8330 -2.2177
 1202Sol     MW 7816   0.846   0.267   7.621 -0.2556 -0.2980 -0.6053
 1203Sol     OW 7817   2.619   2.199   2.473  0.1951  0.3055  1.1785
 1203Sol     HW 7818   2.674   2.153   2.536 -1.3868 -0.3889  2.0804
 1203Sol     HW 7819   2.612   2.288   2.507 -0.2256  0.0724  1.7000
 1203Sol     MW 7820   2.623   2.203   2.482 -0.0675 -0.4570 -0.1256
 1204Sol     OW 7821   2.769   1.803   7.341  0.0805 -0.0492  0.3143
 1204Sol     HW 7822   2.757   1.888   7.382 -0.4086 -0.4380  0.9861
 1204Sol     HW 7823   2.853   1.772   7.373 -0.2364 -0.2905  0.9077
 1204Sol     MW 7824   2.775   1.808   7.347 -0.0309 -0.4192  0.2338
 1205Sol     OW 7825   0.318   3.403   5.265  0.5643 -0.2240 -0.2178
 1205Sol     HW 7826   0.398   3.397   5.317 -0.9817 -1.7163  2.0592
 1205Sol     HW 7827   0.283   3.314   5.264 -1.7396  0.6425 -0.1244
 1205Sol     MW 7828   0.322   3.394   5.269 -0.1572  0.3520  0.3327
 1206Sol     OW 7829   0.125   1.017   7.646 -0.3201 -0.1266  0.0294
 1206Sol     HW 7830   0.138   0.922   7.645 -0.2952 -0.1250 -1.4325
 1206Sol     HW 7831   0.091   1.037   7.559  2.1451  1.5700 -0.5765
 1206Sol     MW 7832   0.123   1.010   7.638  0.3988 -0.6237 -0.3065
 1207Sol     OW 7833   1.483   2.424   9.884 -0.6276  0.0246  0.3578
 1207Sol     HW 7834   1.398   2.405   9.844 -0.6393 -1.3543  1.0165
 1207Sol     HW 7835   1.469   2.506   9.930 -1.0283  0.8751 -1.2203
 1207Sol     MW 7836   1.474   2.429   9.884  1.0201 -0.4963 -0.2578
 1208Sol     OW 7837   3.184   1.490   3.739 -0.4482 -0.4686  0.5214
 1208Sol     HW 7838   3.270   1.473   3.778 -0.5632 -1.3822  0.3803
 1208Sol     HW 7839   3.199   1.564   3.679 -0.2238  0.7945  2.0849
 1208Sol     MW 7840   3.193   1.495   3.737 -0.1402 -0.3741 -0.1882
 1209Sol     OW 7841   1.049   0.292   4.231 -0.1290 -0.1279 -0.7236
 1209Sol     HW 7842   1.076   0.256   4.315 -0.3547 -0.4587 -0.7901
 1209Sol     HW 7843   1.072   0.385   4.235  1.4178 -0.4984 -0.9661
 1209Sol     MW 7844   1.053   0.298   4.239 -0.0004 -0.9469  0.1509
 1210Sol     OW 7845   2.463   1.914   4.062  0.2194  0.0939 -0.1675
 1210Sol     HW 7846   2.549   1.920   4.103 -0.7530  1.0545  1.7743
 1210Sol     HW 7847   2.404   1.892   4.133 -1.5501  2.0760 -0.9860
 1210Sol     MW 7848   2.466   1.912   4.072 -0.2353  0.4070 -0.0345
 1211Sol     OW 7849   0.386   1.450   7.136 -0.9305  0.1164 -0.3401
 1211Sol     HW 7850   0.476   1.482   7.133 -0.3494 -1.4246  0.2547
 1211Sol     HW 7851   0.349   1.492   7.214  0.3557 -1.9241  1.4335
 1211Sol     MW 7852   0.391   1.457   7.143 -0.0126 -0.6543 -0.4803
 1212Sol     OW 7853   2.274   1.057   1.642  0.2890  0.3682 -0.7437
 1212Sol     HW 7854   2.358   1.068   1.597  0.9830  2.4485  1.0238
 1212Sol     HW 7855   2.209   1.089   1.578  1.0254  0.7909 -1.2946
 1212Sol     MW 7856   2.276   1.061   1.632  0.2694 -0.4113 -0.1541
 1213Sol     OW 7857   0.016   1.129   7.405  0.0644  0.0025 -0.3025
 1213Sol     HW 7858  -0.025   1.188   7.468  1.6475  1.5132 -0.6598
 1213Sol     HW 7859  -0.008   1.165   7.319  0.2737 -0.4202 -0.5408
 1213Sol     MW 7860   0.010   1.137   7.403 -0.0436 -0.6656 -0.2211
 1214Sol     OW 7861   2.237   0.714   9.362 -0.0710 -0.0930 -0.2581
 1214Sol     HW 7862   2.143   0.734   9.354  0.2644  0.8699 -2.3419
 1214Sol     HW 7863   2.254   0.655   9.289  1.0644  0.2581 -0.2845
 1214Sol     MW 7864   2.230   0.711   9.354 -0.0846 -0.0008 -0.6931
 1215Sol     OW 7865   1.175   1.121   9.674  0.3982  0.0902 -0.2242
 1215Sol     HW 7866   1.165   1.047   9.615 -0.4553  0.7333 -0.8856
 1215Sol     HW 7867   1.206   1.192   9.619 -0.8225  0.8161  0.0112
 1215Sol     MW 7868   1.177   1.121   9.664  0.1201 -0.0830 -0.0823
 1216Sol     OW 7869   1.347   1.516   2.802 -0.1577 -0.4055 -0.6841
 1216Sol     HW 7870   1.279   1.501   2.736  1.2808 -1.6904 -1.9365
 1216Sol     HW 7871   1.424   1.470   2.767  0.7975 -0.6314  1.6339
 1216Sol     MW 7872   1.348   1.510   2.793 -0.7302 -0.6698  0.1012
 1217Sol     OW 7873   3.189   0.376   8.738 -0.2270 -0.8333  0.4286
 1217Sol     HW 7874   3.254   0.434   8.698  0.8173 -2.2870  0.0154
 1217Sol     HW 7875   3.158   0.425   8.814 -0.6049  0.9974 -0.8658
 1217Sol     MW 7876   3.192   0.386   8.741 -0.4836 -0.0290 -0.5313
 1218Sol     OW 7877   0.662   1.242   2.987 -0.4639 -0.2473 -0.2584
 1218Sol     HW 7878   0.689   1.245   3.079 -0.4736  0.4764 -0.2730
 1218Sol     HW 7879   0.666   1.333   2.958  0.8891 -0.6392 -1.3701
 1218Sol     MW 7880   0.665   1.250   2.993 -0.2075  0.0606 -0.0753
 1219Sol     OW 7881   3.011   2.760   8.398 -0.0599  0.0407 -0.4294
 1219Sol     HW 7882   2.918   2.751   8.417  0.1930 -0.9477  0.3769
 1219Sol     HW 7883   3.021   2.851   8.368 -0.6675  1.3690  3.0932
 1219Sol     MW 7884   3.004   2.768   8.397  0.3050  0.2758  0.0840
 1220Sol     OW 7885   1.853   2.002   1.567 -0.0526  0.4337 -0.0821
 1220Sol     HW 7886   1.814   2.051   1.495  0.3389  1.4152  0.3537
 1220Sol     HW 7887   1.781   1.953   1.605 -0.5807  1.1266 -0.1747
 1220Sol     MW 7888   1.843   2.002   1.564  0.4756  0.3542  0.2419
 1221Sol     OW 7889   2.492   0.429   3.778  0.3099  0.2338  0.2943
 1221Sol     HW 7890   2.473   0.380   3.698  0.3758 -0.6708  0.8282
 1221Sol     HW 7891   2.408   0.468   3.803  0.1057 -0.1686  0.2430
 1221Sol     MW 7892   2.483   0.428   3.773 -0.5881  0.0476 -0.2968
 1222Sol     OW 7893   1.178   0.336   2.017 -0.3090 -0.0765 -0.1982
 1222Sol     HW 7894   1.113   0.333   1.946  0.4720 -0.8739 -0.8891
 1222Sol     HW 7895   1.240   0.404   1.990  0.2200 -0.6703 -0.4881
 1222Sol     MW 7896   1.177   0.342   2.008  0.0642  0.1239 -0.2543
 1223Sol     OW 7897   2.206   3.382   8.099  0.0821  0.0899  0.6301
 1223Sol     HW 7898   2.192   3.327   8.176  0.8060  0.7248  1.2179
 1223Sol     HW 7899   2.232   3.467   8.134  2.1081 -0.1030 -0.3674
 1223Sol     MW 7900   2.207   3.385   8.109 -0.5675 -0.2879  0.0337
 1224Sol     OW 7901   1.976   2.956   5.153 -0.1235 -0.0392 -0.3755
 1224Sol     HW 7902   2.057   2.909   5.171 -0.1291  0.2683  0.4774
 1224Sol     HW 7903   1.907   2.900   5.186 -0.1428  0.4799  0.4647
 1224Sol     MW 7904   1.977   2.947   5.157  0.5568  0.4910  0.4789
 1225Sol     OW 7905   1.210   3.044   5.259  1.0683 -0.3173  0.3266
 1225Sol     HW 7906   1.170   3.098   5.190  1.5291 -1.3197 -0.7578
 1225Sol     HW 7907   1.284   3.097   5.290  0.7966  0.1947  0.1133
 1225Sol     MW 7908   1.213   3.054   5.255  0.3716  0.6771  0.2742
 1226Sol     OW 7909   1.164   1.631   4.260  0.3293 -0.5941  0.1536
 1226Sol     HW 7910   1.236   1.675   4.214  1.0998 -0.2631  1.6563
 1226Sol     HW 7911   1.189   1.539   4.261  0.3135 -0.6016 -0.0748
 1226Sol     MW 7912   1.172   1.627   4.256  0.6115  0.2838 -0.0078
 1227Sol     OW 7913   0.065   0.389   7.626 -0.2768  0.5218 -0.0852
 1227Sol     HW 7914   0.080   0.453   7.695 -0.6958  0.1436  0.3543
 1227Sol     HW 7915   0.139   0.329   7.632 -1.0170 -0.3091  0.9318
 1227Sol     MW 7916   0.073   0.390   7.633  0.0849  0.0474  0.1423
 1228Sol     OW 7917   0.657   2.089   8.273 -0.4864  0.4347  0.3634
 1228Sol     HW 7918   0.576   2.112   8.227 -0.7045 -0.2753  0.3940
 1228Sol     HW 7919   0.640   2.003   8.311 -0.1411  0.8240  1.4021
 1228Sol     MW 7920   0.648   2.083   8.272 -0.2899 -0.3433  0.1037
 1229Sol     OW 7921   1.452   2.920   6.519 -0.0669 -0.2926  0.2697
 1229Sol     HW 7922   1.418   2.866   6.591  1.4921 -3.1418 -1.0602
 1229Sol     HW 7923   1.375   2.949   6.472 -0.9697 -0.8460  1.3871
 1229Sol     MW 7924   1.442   2.918   6.522 -0.5933 -0.0532  0.3402
 1230Sol     OW 7925   1.201   1.052   3.556  0.1326  0.0734 -0.2717
 1230Sol     HW 7926   1.131   1.065   3.620  0.3123 -1.2205  0.2162
 1230Sol     HW 7927   1.281   1.050   3.609  0.4580  0.6927 -0.7330
 1230Sol     MW 7928   1.202   1.053   3.567  0.4039  0.0936 -0.1692
 1231Sol     OW 7929   2.246   1.898   1.824 -0.2032  0.0559  0.2720
 1231Sol     HW 7930   2.203   1.814   1.807 -1.6707  0.9831 -0.6984
 1231Sol     HW 7931   2.287   1.921   1.740 -1.1746  1.0819  0.0740
 1231Sol     MW 7932   2.246   1.893   1.815  0.0331  0.3673  0.0069
 1232Sol     OW 7933   2.381   1.957   7.540 -0.4239  0.3050  0.7188
 1232Sol     HW 7934   2.360   1.903   7.463  0.0541 -0.6323  1.2456
 1232Sol     HW 7935   2.305   1.948   7.597 -0.5718  0.6210  0.5758
 1232Sol     MW 7936   2.372   1.951   7.538  0.0875 -0.2373 -0.4725
 1233Sol     OW 7937   1.503   1.490   1.564 -0.3388  0.4428  0.5324
 1233Sol     HW 7938   1.541   1.481   1.651 -0.1936  1.2356  0.5535
 1233Sol     HW 7939   1.524   1.408   1.520 -0.0099  0.2285  1.0885
 1233Sol     MW 7940   1.508   1.482   1.568 -0.1832 -0.5906 -0.2427
 1234Sol     OW 7941   2.486   2.551   7.079 -0.1368 -0.6358  0.7554
 1234Sol     HW 7942   2.567   2.529   7.126 -0.1762  0.3446  1.2866
 1234Sol     HW 7943   2.502   2.637   7.041 -0.6251 -0.8057  0.1576
 1234Sol     MW 7944   2.494   2.556   7.080  0.3972  0.0408 -0.3574
 1235Sol     OW 7945   0.457   1.874   9.545 -0.1492 -0.2110  0.3526
 1235Sol     HW 7946   0.376   1.922   9.530  0.3347  0.6128  0.3325
 1235Sol     HW 7947   0.437   1.814   9.617 -0.3830  0.9626  1.2801
 1235Sol     MW 7948   0.448   1.873   9.550  0.2460 -0.0134  0.3511
 1236Sol     OW 7949   0.748   3.234   8.382  0.5123 -0.0479  0.1201
 1236Sol     HW 7950   0.684   3.278   8.325  0.5981  1.1009  0.8785
 1236Sol     HW 7951   0.703   3.226   8.466  0.5402 -1.3523  0.0183
 1236Sol     MW 7952   0.738   3.238   8.384  0.4964 -0.1430 -0.2179
 1237Sol     OW 7953   1.889   1.378   4.513 -0.2471 -0.0361 -0.0895
 1237Sol     HW 7954   1.821   1.387   4.447  0.9765  2.0809 -1.0776
 1237Sol     HW 7955   1.846   1.403   4.595 -1.4512 -1.6125 -0.1996
 1237Sol     MW 7956   1.879   1.381   4.515 -0.0472 -0.0663  0.0197
 1238Sol     OW 7957   0.590   2.830   3.360 -0.7087 -0.2164 -0.0839
 1238Sol     HW 7958   0.622   2.743   3.336  0.9883  0.4232 -0.2319
 1238Sol     HW 7959   0.495   2.821   3.362 -0.5264 -2.3859  1.0639
 1238Sol     MW 7960   0.584   2.822   3.358 -0.5567  0.1695 -0.0846
 1239Sol     OW 7961   2.667   0.887   2.329  0.3858 -0.1982  0.2795
 1239Sol     HW 7962   2.652   0.849   2.242 -0.1938 -0.4387  0.4812
 1239Sol     HW 7963   2.716   0.819   2.376 -1.9681 -1.3600  1.1386
 1239Sol     MW 7964   2.670   0.877   2.326 -0.2191  0.0005 -0.1060
 1240Sol     OW 7965   2.539   3.005   7.129 -0.0928  0.6337  0.0425
 1240Sol     HW 7966   2.535   2.962   7.214 -0.5503 -0.1003 -0.3491
 1240Sol     HW 7967   2.628   3.039   7.123  0.2228 -0.1180  0.4165
 1240Sol     MW 7968   2.546   3.005   7.136 -0.1341  0.2850  0.5026
 1241Sol     OW 7969   0.112   2.736   6.589 -0.0448  0.1937 -0.2596
 1241Sol     HW 7970   0.026   2.774   6.569 -0.6713 -1.0294  0.0522
 1241Sol     HW 7971   0.169   2.812   6.605 -0.5871  1.0809 -2.3500
 1241Sol     MW 7972   0.109   2.746   6.589  0.5416 -0.2051 -0.1882
 1242Sol     OW 7973   1.530   0.025   3.942 -0.0825 -0.3890  0.2779
 1242Sol     HW 7974   1.550  -0.052   3.995  1.8980  0.3463  0.6555
 1242Sol     HW 7975   1.521   0.096   4.005 -2.2751 -0.3478 -0.0418
 1242Sol     MW 7976   1.531   0.024   3.952 -0.8023 -0.0702 -0.3636
 1243Sol     OW 7977   0.494   2.719   6.257  0.5040 -0.5569  0.3321
 1243Sol     HW 7978   0.474   2.668   6.336  2.4536  0.1073  1.2937
 1243Sol     HW 7979   0.559   2.666   6.210 -0.8533 -1.0767 -0.9818
 1243Sol     MW 7980   0.498   2.710   6.260  0.3656  0.2123 -0.5550
 1244Sol     OW 7981   1.876   2.708   3.469 -0.6852  0.5871 -0.4528
 1244Sol     HW 7982   1.911   2.796   3.483 -1.2930  1.0353 -1.6358
 1244Sol     HW 7983   1.801   2.702   3.528 -0.2895  0.6454  0.0579
 1244Sol     MW 7984   1.872   2.715   3.475 -0.2708 -0.4945 -0.3001
 1245Sol     OW 7985   2.535   0.231   7.473 -0.4191 -0.0274 -0.5086
 1245Sol     HW 7986   2.601   0.294   7.503 -0.0653 -0.2020 -0.9281
 1245Sol     HW 7987   2.581   0.175   7.410 -1.4495  1.0557 -2.2574
 1245Sol     MW 7988   2.545   0.232   7.470 -0.0535  0.1685  0.2846
 1246Sol     OW 7989   2.954   2.076   6.631  0.3695 -0.2453 -0.2469
 1246Sol     HW 7990   3.022   2.113   6.688 -0.3735 -0.6052  0.8979
 1246Sol     HW 7991   2.962   1.981   6.643 -0.1681 -0.3000 -0.2883
 1246Sol     MW 7992   2.961   2.071   6.637 -0.0819 -0.5398  0.0430
 1247Sol     OW 7993   1.363   0.528   1.900 -0.1804  0.2499  0.0260
 1247Sol     HW 7994   1.444   0.562   1.939 -0.0201 -1.0766  0.8947
 1247Sol     HW 7995   1.392   0.478   1.824 -0.1276 -0.5731  0.5746
 1247Sol     MW 7996   1.373   0.526   1.897 -0.8349  0.3987 -0.0916
 1248Sol     OW 7997   0.664   0.278   9.680  0.9512  0.2250 -0.9829
 1248Sol     HW 7998   0.674   0.346   9.746 -0.3203  0.2512 -0.8179
 1248Sol     HW 7999   0.682   0.323   9.597  0.3695  0.7070 -0.8532
 1248Sol     MW 8000   0.667   0.288   9.678  0.7691 -0.7052  0.2656
 1249Sol     OW 8001   1.707   1.992   3.123  0.6588  0.3239 -0.0999
 1249Sol     HW 8002   1.660   2.056   3.178  4.1338  1.5528  1.6373
 1249Sol     HW 8003   1.785   2.040   3.093  1.8932 -2.2415 -1.0934
 1249Sol     MW 8004   1.710   2.002   3.126  0.7545 -0.1548  0.0764
 1250Sol     OW 8005   1.638   0.673   5.970 -0.6042 -0.4449  0.7823
 1250Sol     HW 8006   1.597   0.711   6.048 -0.0434 -0.1317  0.9284
 1250Sol     HW 8007   1.717   0.629   6.003 -0.8417 -1.0821  0.5104
 1250Sol     MW 8008   1.642   0.673   5.980  0.2626  0.5156 -0.1593
 1251Sol     OW 8009   1.494   1.723   7.380 -0.3999 -0.2722  0.0638
 1251Sol     HW 8010   1.479   1.715   7.474  0.6042 -0.5829  0.2006
 1251Sol     HW 8011   1.408   1.744   7.343 -0.9671 -1.0371  0.9462
 1251Sol     MW 8012   1.485   1.724   7.385 -0.1562  0.6042  0.6366
 1252Sol     OW 8013   2.657   2.678   3.437 -0.1942  0.2217 -0.1416
 1252Sol     HW 8014   2.567   2.706   3.452  0.0534  0.6533  0.5449
 1252Sol     HW 8015   2.709   2.731   3.496  0.3692 -1.1358  0.6139
 1252Sol     MW 8016   2.654   2.685   3.444  0.6987  0.3157  0.3745
 1253Sol     OW 8017   2.386   3.024   2.475  0.1801 -0.3053  0.2872
 1253Sol     HW 8018   2.333   3.093   2.434  0.7510  0.6112  1.0710
 1253Sol     HW 8019   2.472   3.033   2.435  0.1060 -0.9189 -0.0044
 1253Sol     MW 8020   2.389   3.031   2.468 -0.4496  0.6039  0.1342
 1254Sol     OW 8021   3.085   1.002   6.349  0.6058  0.3741  0.8326
 1254Sol     HW 8022   3.095   1.085   6.303  2.2168  0.0554  0.5737
 1254Sol     HW 8023   3.164   0.952   6.326  0.0831 -0.8723  1.6973
 1254Sol     MW 8024   3.093   1.005   6.343  0.8235 -0.6148 -0.4987
 1255Sol     OW 8025   3.065   1.901   9.519  0.3326  0.0088 -0.0230
 1255Sol     HW 8026   2.983   1.908   9.471  0.4902 -0.0454 -0.3085
 1255Sol     HW 8027   3.042   1.863   9.603  0.0819 -0.1008 -0.1424
 1255Sol     MW 8028   3.056   1.899   9.522 -0.2641  0.3878  0.1948
 1256Sol     OW 8029   0.737   3.223   6.398 -0.1284 -0.2143  0.2992
 1256Sol     HW 8030   0.780   3.137   6.396 -1.0685 -0.7083  0.7863
 1256Sol     HW 8031   0.644   3.202   6.391 -0.2620  0.8605 -1.2659
 1256Sol     MW 8032   0.732   3.213   6.397 -0.3578  0.3669  0.2658
 1257Sol     OW 8033   1.269   2.986   8.867  0.0137 -0.0574 -0.1787
 1257Sol     HW 8034   1.176   3.008   8.857 -0.2832 -0.3815  1.7486
 1257Sol     HW 8035   1.303   3.051   8.928  1.0468  0.0088 -0.8091
 1257Sol     MW 8036   1.264   2.994   8.871 -0.3070  0.1085  0.0708
 1258Sol     OW 8037   2.886   3.217   8.246 -0.5397  0.2863  0.5009
 1258Sol     HW 8038   2.804   3.232   8.292 -0.2933 -0.5821  1.2316
 1258Sol     HW 8039   2.876   3.264   8.163 -2.0283 -0.3867  0.2986
 1258Sol     MW 8040   2.878   3.223   8.242  0.6182  0.5014  0.3519
 1259Sol     OW 8041   0.681   1.416   8.363 -0.3884 -0.0339  0.0410
 1259Sol     HW 8042   0.622   1.359   8.412  1.5261 -0.5268  1.8291
 1259Sol     HW 8043   0.722   1.358   8.299  0.2326 -0.2971  0.6726
 1259Sol     MW 8044   0.679   1.406   8.362  0.1312 -0.2091 -0.3186
 1260Sol     OW 8045   1.037   2.272   7.747 -1.1427  0.1740 -0.2910
 1260Sol     HW 8046   1.038   2.322   7.665 -0.9922  0.4483 -0.1214
 1260Sol     HW 8047   0.975   2.200   7.730  0.3242 -0.8741 -1.2870
 1260Sol     MW 8048   1.031   2.270   7.738  0.6055  0.4801 -0.5063
 1261Sol     OW 8049   2.516   0.292   7.853 -0.3950 -0.2624 -0.5052
 1261Sol     HW 8050   2.607   0.265   7.844 -0.1738  0.1075  0.4839
 1261Sol     HW 8051   2.466   0.228   7.803  0.3359 -0.9600 -0.3443
 1261Sol     MW 8052   2.520   0.284   7.848  0.1481  0.9552 -0.4060
 1262Sol     OW 8053   1.337   0.038   7.986 -0.1812 -0.2039 -0.4129
 1262Sol     HW 8054   1.368  -0.002   8.067 -0.8939 -0.4016 -0.2325
 1262Sol     HW 8055   1.364   0.130   7.992 -0.9480 -0.0278  0.4233
 1262Sol     MW 8056   1.342   0.043   7.994  0.1255 -0.0762  0.0829
 1263Sol     OW 8057   0.018   3.099   3.278  0.0929  0.5500  0.0471
 1263Sol     HW 8058   0.091   3.062   3.329  0.0435 -0.0122 -0.2898
 1263Sol     HW 8059  -0.032   3.150   3.342 -0.5007 -0.9244  0.7916
 1263Sol     MW 8060   0.020   3.100   3.289  0.2497 -0.1651 -0.2716
 1264Sol     OW 8061   2.679   1.032   3.505 -0.1879 -0.1122 -0.1353
 1264Sol     HW 8062   2.737   1.107   3.514 -0.5062 -0.0838  2.1814
 1264Sol     HW 8063   2.737   0.956   3.505 -0.0094  0.0257 -0.0620
 1264Sol     MW 8064   2.689   1.032   3.506 -0.0215 -0.0115  0.4403
 1265Sol     OW 8065   0.636   0.918   8.865 -0.5340  0.2891  0.7792
 1265Sol     HW 8066   0.667   1.006   8.888 -0.8665  0.1289  1.8584
 1265Sol     HW 8067   0.689   0.859   8.919  1.2874 -0.3318 -1.6067
 1265Sol     MW 8068   0.644   0.921   8.872  0.3754  0.4205 -0.2405
 1266Sol     OW 8069   1.146   2.777   8.728  0.5882  0.1133  0.7024
 1266Sol     HW 8070   1.060   2.808   8.756 -0.3430 -1.0450 -0.8572
 1266Sol     HW 8071   1.208   2.838   8.770 -0.9295  0.5382  2.3951
 1266Sol     MW 8072   1.144   2.786   8.735 -0.0044 -0.5419  0.0225
 1267Sol     OW 8073   1.956   0.952   4.446  0.0159  0.2946  0.1685
 1267Sol     HW 8074   1.992   0.905   4.371 -1.7205  1.0333 -1.1601
 1267Sol     HW 8075   1.930   1.037   4.411 -1.4077  0.4153  1.4579
 1267Sol     MW 8076   1.957   0.955   4.436 -0.2192  0.0429 -0.0819
 1268Sol     OW 8077   0.065   3.124   4.643  0.2892 -0.5017  0.1546
 1268Sol     HW 8078   0.071   3.060   4.714  0.0280 -2.0330 -1.1750
 1268Sol     HW 8079   0.150   3.120   4.599  0.6445  0.8358  0.7018
 1268Sol     MW 8080   0.073   3.118   4.645  0.1520  0.0616  0.2222
 1269Sol     OW 8081   0.183   2.279   3.156  0.1819 -0.2506  0.0382
 1269Sol     HW 8082   0.207   2.314   3.070 -0.0138  1.3611  0.6242
 1269Sol     HW 8083   0.108   2.222   3.138  0.0239  0.2141 -0.8568
 1269Sol     MW 8084   0.178   2.277   3.147 -0.3953 -0.1288 -0.0199
 1270Sol     OW 8085   0.788   1.069   3.344  0.6092 -0.2472  0.2754
 1270Sol     HW 8086   0.850   1.012   3.298 -1.6875 -2.1900 -0.5077
 1270Sol     HW 8087   0.783   1.147   3.289  0.6701 -1.0261 -0.8527
 1270Sol     MW 8088   0.793   1.071   3.335 -0.0381  0.7702  0.1853
 1271Sol     OW 8089   1.379   0.372   9.682  0.0288  0.0441 -0.3368
 1271Sol     HW 8090   1.340   0.289   9.657 -0.6853  0.2891 -0.0290
 1271Sol     HW 8091   1.406   0.412   9.599 -0.5474 -0.0343 -0.5591
 1271Sol     MW 8092   1.378   0.369   9.672  0.4752  0.5447 -0.1212
 1272Sol     OW 8093   2.222   0.545   7.158  0.7295 -0.6464  0.4251
 1272Sol     HW 8094   2.278   0.509   7.227  0.7408 -2.2992 -0.4436
 1272Sol     HW 8095   2.134   0.515   7.180  0.6646 -0.7892 -0.0198
 1272Sol     MW 8096   2.219   0.539   7.166  0.3543 -0.0277  0.3662
 1273Sol     OW 8097   1.389   0.528   6.637  0.4921  0.1916  0.1185
 1273Sol     HW 8098   1.411   0.471   6.710  0.5683 -0.7182 -0.5950
 1273Sol     HW 8099   1.420   0.480   6.560 -0.7289  0.5537 -0.6091
 1273Sol     MW 8100   1.394   0.519   6.636  0.3336 -0.1050 -0.0519
 1274Sol     OW 8101   0.429   3.330   9.205 -0.2968 -0.0144  0.0776
 1274Sol     HW 8102   0.433   3.253   9.149  0.7131 -0.8235  1.2403
 1274Sol     HW 8103   0.504   3.383   9.179  0.1127 -0.3413  0.5764
 1274Sol     MW 8104   0.436   3.328   9.198  0.3592 -0.2087 -0.3921
 1275Sol     OW 8105   3.110   1.064   9.886  0.0018 -0.1570 -0.0865
 1275Sol     HW 8106   3.057   0.989   9.915  1.6228 -0.6535  1.7267
 1275Sol     HW 8107   3.150   1.035   9.804 -3.2740  0.6012 -2.0396
 1275Sol     MW 8108   3.109   1.054   9.882  0.1765  0.2432  0.2908
 1276Sol     OW 8109   2.219   1.737   4.505 -0.2311 -0.2302 -0.3624
 1276Sol     HW 8110   2.188   1.669   4.445 -0.5501 -0.0348 -0.4176
 1276Sol     HW 8111   2.262   1.689   4.575  0.5899 -0.4421 -1.0026
 1276Sol     MW 8112   2.220   1.727   4.505 -0.3673  0.6548 -0.0563
 1277Sol     OW 8113   0.909   0.397   2.461 -0.1712 -0.4381  0.2867
 1277Sol     HW 8114   0.935   0.489   2.456  0.5124 -0.7642 -2.7234
 1277Sol     HW 8115   0.973   0.358   2.521  0.3150  0.7711  0.5813
 1277Sol     MW 8116   0.917   0.402   2.466  0.6445  0.0506  0.0786
 1278Sol     OW 8117   1.411   1.193   3.422  0.1914 -0.5207 -0.7373
 1278Sol     HW 8118   1.329   1.158   3.455  0.3585 -0.8765 -0.7036
 1278Sol     HW 8119   1.385   1.272   3.374 -0.2783 -1.1608 -1.5498
 1278Sol     MW 8120   1.401   1.197   3.420  0.0392 -0.3344  0.3605
 1279Sol     OW 8121   0.451   3.014   8.446 -0.4127  0.6872 -0.2066
 1279Sol     HW 8122   0.527   3.071   8.432 -0.0478  0.1710 -0.3591
 1279Sol     HW 8123   0.383   3.072   8.479  0.1984  1.0776  0.3828
 1279Sol     MW 8124   0.452   3.024   8.448 -0.6420 -0.1035 -0.5632
 1280Sol     OW 8125   0.378   1.093   5.263 -0.7548  0.2619 -0.4216
 1280Sol     HW 8126   0.288   1.096   5.230 -1.4549 -2.0408  1.1175
 1280Sol     HW 8127   0.421   1.028   5.208  0.0649  1.4953 -1.2770
 1280Sol     MW 8128   0.373   1.087   5.255 -0.4234 -0.2014  0.1874
 1281Sol     OW 8129   1.922   0.200   2.215 -0.1814  0.2810  0.1004
 1281Sol     HW 8130   1.909   0.138   2.144  0.6035 -0.4032  0.5481
 1281Sol     HW 8131   1.895   0.154   2.294  0.3864  0.5101  0.4345
 1281Sol     MW 8132   1.919   0.191   2.216 -0.6858  0.3708  0.6014
 1282Sol     OW 8133   1.047   0.374   6.686  0.0695 -0.3652 -0.1992
 1282Sol     HW 8134   0.963   0.329   6.680 -0.0408 -0.4867  1.7781
 1282Sol     HW 8135   1.112   0.303   6.681 -0.0160 -0.4698  0.1344
 1282Sol     MW 8136   1.045   0.363   6.685 -0.8916 -0.1329 -0.3464
 1283Sol     OW 8137   2.314   1.567   6.073  0.7002  0.4553 -0.6633
 1283Sol     HW 8138   2.396   1.590   6.029  1.7285  2.1748  1.9940
 1283Sol     HW 8139   2.254   1.639   6.050 -0.3243 -1.1452 -3.1547
 1283Sol     MW 8140   2.316   1.576   6.067  0.2187 -0.1052  0.0688
 1284Sol     OW 8141   1.192   0.442   8.368 -0.3040  0.0014  0.2724
 1284Sol     HW 8142   1.187   0.390   8.448  2.4520  0.2057  0.6308
 1284Sol     HW 8143   1.170   0.380   8.298 -1.7594 -0.4232  1.0870
 1284Sol     MW 8144   1.190   0.431   8.369 -0.2437  0.2932  0.2058
 1285Sol     OW 8145   0.179   1.234   9.113  0.6393  0.1353  0.3734
 1285Sol     HW 8146   0.100   1.185   9.092  1.3876 -0.1743 -1.8297
 1285Sol     HW 8147   0.153   1.291   9.186 -2.2587  1.6746 -1.7404
 1285Sol     MW 8148   0.170   1.235   9.118  0.4310 -0.4561 -0.0209
 1286Sol     OW 8149   1.393   2.615   4.238  0.0723  0.3346 -0.1955
 1286Sol     HW 8150   1.347   2.699   4.238 -0.0359  0.2838 -1.8642
 1286Sol     HW 8151   1.333   2.555   4.282 -1.0865  0.4659 -1.5731
 1286Sol     MW 8152   1.384   2.617   4.242  0.2964 -0.3942 -0.0561
 1287Sol     OW 8153   0.169   2.230   3.439 -0.0494 -0.4318 -0.5218
 1287Sol     HW 8154   0.180   2.232   3.344 -0.3520  1.7431 -0.5265
 1287Sol     HW 8155   0.258   2.228   3.474  0.0784 -0.0343 -0.8294
 1287Sol     MW 8156   0.178   2.230   3.434 -0.0859 -0.3329  0.1018
 1288Sol     OW 8157   0.475   1.119   2.383  0.4308  0.4309  0.0001
 1288Sol     HW 8158   0.518   1.181   2.443 -1.4823  0.2269  1.6676
 1288Sol     HW 8159   0.397   1.166   2.353  1.2591  0.4329 -2.1764
 1288Sol     MW 8160   0.472   1.129   2.386  0.2195 -0.4137 -0.2250
 1289Sol     OW 8161   2.126   1.541   6.479 -0.4362 -0.0874 -0.2255
 1289Sol     HW 8162   2.219   1.520   6.486 -0.7787 -1.0517  1.8914
 1289Sol     HW 8163   2.121   1.635   6.493  0.0198 -0.3637  1.8277
 1289Sol     MW 8164   2.134   1.547   6.481  0.3549 -0.4672 -0.3986
 1290Sol     OW 8165   3.098   1.299   7.789 -0.3694 -0.3824 -0.8210
 1290Sol     HW 8166   3.031   1.288   7.856 -0.5394  0.9721 -0.7526
 1290Sol     HW 8167   3.163   1.231   7.809 -1.6393 -1.6191 -0.8144
 1290Sol     MW 8168   3.098   1.292   7.797  0.0056 -0.2828  0.2370
 1291Sol     OW 8169   0.389   0.950   7.822 -0.1896 -0.0140  0.2986
 1291Sol     HW 8170   0.396   1.009   7.747  1.8054  3.3459  3.0072
 1291Sol     HW 8171   0.465   0.892   7.814  1.3007  1.8123  0.8922
 1291Sol     MW 8172   0.396   0.950   7.814  0.3113 -0.2613  0.8576
 1292Sol     OW 8173   1.905   2.851   4.327  0.2030  0.6102  0.3384
 1292Sol     HW 8174   1.956   2.895   4.260 -0.3285 -0.1869 -0.6083
 1292Sol     HW 8175   1.822   2.899   4.330 -0.2057 -0.0347 -0.3813
 1292Sol     MW 8176   1.902   2.859   4.321  0.1168 -0.1503  0.7530
 1293Sol     OW 8177   2.408   1.472   7.431 -0.0352  0.2102  0.4433
 1293Sol     HW 8178   2.351   1.494   7.505 -2.1522 -1.1264 -0.7793
 1293Sol     HW 8179   2.475   1.416   7.469  0.7723  2.1370  1.9746
 1293Sol     MW 8180   2.409   1.469   7.441  0.2762 -1.1464 -0.5486
 1294Sol     OW 8181   0.047   2.414   6.502  0.1017 -0.5548 -0.4786
 1294Sol     HW 8182   0.067   2.482   6.439  0.5123 -0.5636 -0.3565
 1294Sol     HW 8183  -0.013   2.455   6.564  2.2559  0.4409  1.0084
 1294Sol     MW 8184   0.043   2.423   6.502  0.2364  0.7895 -0.0062
 1295Sol     OW 8185   0.523   0.652   5.912 -0.3522 -0.0315  0.4034
 1295Sol     HW 8186   0.522   0.581   5.848  0.6576  1.0249 -0.8297
 1295Sol     HW 8187   0.454   0.631   5.974 -2.4944 -0.2374 -1.9917
 1295Sol     MW 8188   0.517   0.644   5.912 -0.2775 -0.2920  0.3523
 1296Sol     OW 8189   2.933   1.944   5.001 -0.2336  0.4085 -0.2865
 1296Sol     HW 8190   2.922   1.871   5.062 -0.3286  0.1925 -0.5614
 1296Sol     HW 8191   2.975   1.906   4.924 -0.5539  0.5812 -0.5512
 1296Sol     MW 8192   2.936   1.934   5.000  0.0371 -0.5356  0.0078
 1297Sol     OW 8193   2.848   0.574   6.407  0.3927  0.4364 -0.0917
 1297Sol     HW 8194   2.835   0.663   6.374 -0.1072  0.8658  1.2204
 1297Sol     HW 8195   2.779   0.563   6.473  0.4119 -0.9473 -0.2848
 1297Sol     MW 8196   2.840   0.581   6.410  0.0159  0.3011  0.0612
 1298Sol     OW 8197   1.051   1.959   2.896  0.4072 -0.3605 -0.0891
 1298Sol     HW 8198   1.144   1.950   2.915  0.3879  1.3372  1.0125
 1298Sol     HW 8199   1.047   2.019   2.821  0.2260 -1.2446 -0.7942
 1298Sol     MW 8200   1.059   1.964   2.891  0.1016  0.3664  0.4292
 1299Sol     OW 8201   2.246   2.361   9.687 -0.2285  0.3657  0.4231
 1299Sol     HW 8202   2.209   2.401   9.766 -0.6114  0.6115  0.1234
 1299Sol     HW 8203   2.252   2.432   9.624  3.0879  0.8803  1.2387
 1299Sol     MW 8204   2.243   2.371   9.688 -0.0730 -1.1184 -0.6466
 1300Sol     OW 8205   1.750   0.335   3.853 -0.4499  0.1995  0.2467
 1300Sol     HW 8206   1.735   0.384   3.934 -1.3051 -3.7476  2.6264
 1300Sol     HW 8207   1.662   0.317   3.820 -0.1626 -0.1745 -0.3253
 1300Sol     MW 8208   1.740   0.338   3.858 -0.8497 -0.1536  0.3452
 1301Sol     OW 8209   0.926   3.424   3.405 -0.0848  0.2178  0.3416
 1301Sol     HW 8210   1.011   3.397   3.441 -0.1996 -1.9323 -0.9374
 1301Sol     HW 8211   0.862   3.386   3.466 -0.1728  0.0614  0.1524
 1301Sol     MW 8212   0.928   3.418   3.414 -0.1185 -0.4474 -0.0011
 1302Sol     OW 8213   2.360   1.631   2.139  0.0769 -0.5249  0.0492
 1302Sol     HW 8214   2.301   1.601   2.070  1.2099 -0.1178 -1.1068
 1302Sol     HW 8215   2.448   1.608   2.108  0.5751 -0.7436  1.5590
 1302Sol     MW 8216   2.363   1.626   2.130 -0.2114 -0.0430 -0.1240
 1303Sol     OW 8217   0.848   1.841   6.292 -0.3525  0.5345 -0.1174
 1303Sol     HW 8218   0.917   1.820   6.354 -0.1791  0.3828 -0.3623
 1303Sol     HW 8219   0.782   1.774   6.306  0.7019 -0.8581 -1.6852
 1303Sol     MW 8220   0.848   1.833   6.299  0.2164  0.0856 -0.6235
 1304Sol     OW 8221   2.691   0.239   5.646 -0.2458  0.0100 -0.0446
 1304Sol     HW 8222   2.753   0.302   5.682 -0.9295  0.9060 -0.4183
 1304Sol     HW 8223   2.611   0.251   5.698 -0.5473 -0.1951 -0.4528
 1304Sol     MW 8224   2.689   0.245   5.654  0.5747  0.3070  0.4864
 1305Sol     OW 8225   1.335   1.038   8.827 -0.3498 -0.1055 -0.4547
 1305Sol     HW 8226   1.371   0.966   8.775  0.7406 -0.6486  1.0102
 1305Sol     HW 8227   1.302   0.996   8.906  1.2897  1.1292  0.9056
 1305Sol     MW 8228   1.335   1.027   8.829 -0.4865 -0.0746  0.1028
 1306Sol     OW 8229   1.758   0.072   5.360 -0.2740  0.5935 -0.5779
 1306Sol     HW 8230   1.668   0.100   5.345 -0.6043 -0.0793  0.0942
 1306Sol     HW 8231   1.758   0.040   5.450  0.3165 -0.6487 -1.0061
 1306Sol     MW 8232   1.750   0.072   5.367  0.6547 -0.1128  0.2847
 1307Sol     OW 8233   3.121   0.503   6.466 -0.0828  0.1123  0.3851
 1307Sol     HW 8234   3.034   0.540   6.450 -0.4071 -0.6240  0.4503
 1307Sol     HW 8235   3.179   0.579   6.470 -0.1119  0.4616 -3.4863
 1307Sol     MW 8236   3.118   0.513   6.465 -0.1172 -0.7998  0.7025
 1308Sol     OW 8237   1.733   2.775   8.963  0.0348 -0.3973 -0.7374
 1308Sol     HW 8238   1.747   2.714   9.036  1.3890  1.9406  1.0270
 1308Sol     HW 8239   1.638   2.774   8.950 -0.0969 -1.8486  0.1730
 1308Sol     MW 8240   1.726   2.769   8.968 -0.1557  0.0239 -0.2624
 1309Sol     OW 8241   3.151   3.259   2.855  0.6040  0.1439 -0.7177
 1309Sol     HW 8242   3.188   3.324   2.914 -0.4032 -0.4942  0.6381
 1309Sol     HW 8243   3.217   3.190   2.851  0.3557 -0.1586  0.2736
 1309Sol     MW 8244   3.160   3.259   2.860  0.5287  0.5969 -0.7245
 1310Sol     OW 8245   1.027   1.282   2.833 -0.0018 -0.6615  0.3733
 1310Sol     HW 8246   1.095   1.337   2.793 -1.1948  0.4426 -0.1423
 1310Sol     HW 8247   1.017   1.317   2.921  0.2525 -0.9734  0.5284
 1310Sol     MW 8248   1.033   1.290   2.837 -0.4131  0.4393 -0.1969
 1311Sol     OW 8249   0.432   2.166   3.560 -0.2004  0.6755  0.0579
 1311Sol     HW 8250   0.512   2.199   3.520  0.2442  1.0046  1.2197
 1311Sol     HW 8251   0.461   2.120   3.638 -1.1579  0.9974  0.6124
 1311Sol     MW 8252   0.441   2.165   3.563  0.2164 -0.0142  0.2374
 1312Sol     OW 8253   2.102   1.843   8.281  0.1475  0.5455  0.3875
 1312Sol     HW 8254   2.111   1.930   8.242  0.8765  0.9327  1.4091
 1312Sol     HW 8255   2.087   1.785   8.206  2.1880  1.1845 -0.5580
 1312Sol     MW 8256   2.101   1.846   8.271 -0.8431  0.1250 -0.0082
 1313Sol     OW 8257   0.245   0.753   5.376  0.4141 -0.3771  0.0464
 1313Sol     HW 8258   0.287   0.828   5.418  0.9449 -0.6027 -0.0678
 1313Sol     HW 8259   0.315   0.712   5.325 -0.4519  0.4371 -1.8317
 1313Sol     MW 8260   0.255   0.756   5.375 -0.2935  0.0441  0.0688
 1314Sol     OW 8261   0.561   1.019   8.278 -0.5223 -0.1143  0.2775
 1314Sol     HW 8262   0.581   1.055   8.365 -1.7847 -2.2114  1.4812
 1314Sol     HW 8263   0.636   0.965   8.257 -1.0759 -1.1832  0.9798
 1314Sol     MW 8264   0.569   1.017   8.284  0.3643  0.0683 -0.5926
 1315Sol     OW 8265   2.992   2.348   9.910  0.0424 -0.0048 -0.3130
 1315Sol     HW 8266   3.029   2.286   9.847  1.9463  1.1511 -0.3801
 1315Sol     HW 8267   2.897   2.337   9.903  0.2666 -0.6413 -2.6269
 1315Sol     MW 8268   2.987   2.342   9.904  0.3895  0.5259  0.0679
 1316Sol     OW 8269   1.640   0.416   5.206  0.5671 -0.4927 -0.1039
 1316Sol     HW 8270   1.545   0.420   5.217  0.8747  1.4366  2.1422
 1316Sol     HW 8271   1.652   0.380   5.118 -2.2643  0.7195 -1.0409
 1316Sol     MW 8272   1.633   0.413   5.199 -0.1634 -0.0113 -0.0969
 1317Sol     OW 8273   0.618   0.620   6.603  0.3090 -0.4643 -0.2611
 1317Sol     HW 8274   0.691   0.647   6.659 -1.1549  0.2018  1.3543
 1317Sol     HW 8275   0.632   0.668   6.522  1.1947  0.3172  0.3427
 1317Sol     MW 8276   0.626   0.627   6.601 -0.6999 -0.0009  0.5221
 1318Sol     OW 8277   1.326   0.612   8.007  0.6307 -0.4255 -0.1041
 1318Sol     HW 8278   1.402   0.660   7.972  1.6532 -1.5268  0.5493
 1318Sol     HW 8279   1.354   0.584   8.094 -0.3633 -1.2516 -0.0435
 1318Sol     MW 8280   1.336   0.614   8.011  0.0841  0.1043 -0.8935
 1319Sol     OW 8281   1.727   3.138   4.524  0.0301 -0.0176  0.3257
 1319Sol     HW 8282   1.691   3.088   4.451  2.1165 -1.5724  0.3253
 1319Sol     HW 8283   1.770   3.073   4.580 -0.8548  1.2469  2.5416
 1319Sol     MW 8284   1.728   3.128   4.523  0.2646  0.0667  0.3963
 1320Sol     OW 8285   1.538   0.594   4.464 -0.4612 -0.2947 -0.6162
 1320Sol     HW 8286   1.546   0.508   4.422  0.3049 -0.7395  0.4475
 1320Sol     HW 8287   1.443   0.611   4.466 -0.5140 -0.2455 -2.5533
 1320Sol     MW 8288   1.530   0.588   4.460  0.3286 -0.3277  0.1232
 1321Sol     OW 8289   0.311   2.286   6.814  0.4597 -0.0107  0.1289
 1321Sol     HW 8290   0.269   2.239   6.742 -0.8463  0.5619  0.4927
 1321Sol     HW 8291   0.271   2.373   6.811  0.5344  0.0687  1.4255
 1321Sol     MW 8292   0.304   2.290   6.807 -0.0904  0.3450 -0.1907
 1322Sol     OW 8293   3.142   0.156   3.772  0.6790 -0.0820 -0.1580
 1322Sol     HW 8294   3.223   0.155   3.722 -0.1576  1.5259 -1.5923
 1322Sol     HW 8295   3.105   0.068   3.759  2.2231 -0.8854  0.6504
 1322Sol     MW 8296   3.146   0.148   3.767 -0.2041 -0.1696  0.9148
 1323Sol     OW 8297   0.030   1.966   6.601  0.4163  1.0762  0.2030
 1323Sol     HW 8298   0.098   2.034   6.605  1.8983 -0.3865  0.2578
 1323Sol     HW 8299   0.076   1.888   6.571 -2.0119  1.0373 -3.8790
 1323Sol     MW 8300   0.041   1.965   6.598  0.1507 -0.1003 -0.1446
 1324Sol     OW 8301   1.022   0.661   8.336 -0.2472 -0.0611 -0.2217
 1324Sol     HW 8302   1.074   0.584   8.359  0.0679  0.0894 -0.4253
 1324Sol     HW 8303   1.034   0.672   8.242  0.1676  0.5739 -0.1005
 1324Sol     MW 8304   1.027   0.655   8.330 -0.4129 -0.5656  0.0570
 1325Sol     OW 8305   2.992   2.556   6.323 -0.1471  0.0933 -0.1451
 1325Sol     HW 8306   3.013   2.463   6.314 -1.1652 -0.2713  1.1634
 1325Sol     HW 8307   2.912   2.568   6.272  0.0566  0.2864 -0.4229
 1325Sol     MW 8308   2.987   2.549   6.317  0.5290  0.5433 -0.1390
 1326Sol     OW 8309   1.275   0.105   8.786 -0.0001  0.0483 -0.0069
 1326Sol     HW 8310   1.272   0.126   8.879  0.7385 -0.0705  0.0451
 1326Sol     HW 8311   1.364   0.073   8.771 -0.5959 -1.4736 -0.4160
 1326Sol     MW 8312   1.283   0.104   8.793 -0.4309 -0.6771  0.4076
 1327Sol     OW 8313   1.202   2.268   8.795 -0.0606 -0.5479  0.0574
 1327Sol     HW 8314   1.208   2.252   8.889 -1.4672 -1.9563 -0.0767
 1327Sol     HW 8315   1.163   2.356   8.789  0.0622 -0.4389  0.7884
 1327Sol     MW 8316   1.199   2.275   8.803  1.1119 -0.1799 -0.5734
 1328Sol     OW 8317   1.202   0.303   3.475 -0.2072  0.7384 -0.0603
 1328Sol     HW 8318   1.232   0.385   3.437  1.4101 -0.2340 -0.9795
 1328Sol     HW 8319   1.230   0.308   3.567  2.3979  0.1035 -0.7615
 1328Sol     MW 8320   1.207   0.311   3.480  0.6030 -0.3310 -0.4424
 1329Sol     OW 8321   0.694   2.464   1.990  0.2134 -0.1235 -0.1858
 1329Sol     HW 8322   0.692   2.368   1.986 -1.0453 -0.0718 -1.2443
 1329Sol     HW 8323   0.699   2.484   2.083  0.8135 -1.2295  0.0241
 1329Sol     MW 8324   0.694   2.457   1.998 -0.1134  0.5358  0.3105
 1330Sol     OW 8325   1.679   1.653   3.524 -0.0669  0.1453 -0.0082
 1330Sol     HW 8326   1.669   1.616   3.436 -1.8766  1.1307 -0.2241
 1330Sol     HW 8327   1.651   1.582   3.583  2.2203 -0.9163 -0.1426
 1330Sol     MW 8328   1.676   1.643   3.522  0.1996  0.2103 -0.0897
 1331Sol     OW 8329   0.071   1.112   5.536  0.1487  0.4126  0.5511
 1331Sol     HW 8330   0.098   1.147   5.621 -0.3704 -0.2376  0.9930
 1331Sol     HW 8331   0.067   1.188   5.478  0.4994  0.8590  1.1168
 1331Sol     MW 8332   0.073   1.122   5.538  0.6770  0.0159  0.0089
 1332Sol     OW 8333   1.453   0.212   2.014 -0.2388  0.2090  0.5299
 1332Sol     HW 8334   1.516   0.272   1.974  2.2087 -2.8467 -0.3445
 1332Sol     HW 8335   1.382   0.206   1.950  0.5860  0.3671 -0.4129
 1332Sol     MW 8336   1.452   0.217   2.005 -0.0912  0.5799 -0.4563
 1333Sol     OW 8337   1.063   0.739   4.640  0.0557  0.3671  0.2170
 1333Sol     HW 8338   0.986   0.756   4.586  1.2158  0.1967 -1.5367
 1333Sol     HW 8339   1.042   0.659   4.687  0.1320 -1.1139 -2.1682
 1333Sol     MW 8340   1.054   0.733   4.639 -0.4125  0.0897  0.9609
 1334Sol     OW 8341   2.063   3.397   6.436  0.1724 -0.5137  0.0051
 1334Sol     HW 8342   2.142   3.451   6.442 -0.7957  1.3546 -2.8962
 1334Sol     HW 8343   1.992   3.459   6.421 -1.2245 -2.4573 -1.7738
 1334Sol     MW 8344   2.064   3.407   6.435  0.4646 -0.2251 -0.1736
 1335Sol     OW 8345   3.223   0.640   9.670  0.1297  0.1665  0.4336
 1335Sol     HW 8346   3.302   0.682   9.705  0.2240 -0.1208  0.5619
 1335Sol     HW 8347   3.228   0.656   9.575 -0.0911  0.8848  0.5354
 1335Sol     MW 8348   3.231   0.646   9.665 -0.4507  0.2862 -0.3882
 1336Sol     OW 8349   2.735   1.078   2.940  0.0107 -0.1473  0.0967
 1336Sol     HW 8350   2.684   1.057   3.018 -0.5509 -1.2470 -0.5568
 1336Sol     HW 8351   2.671   1.087   2.870  0.4848  1.1605 -0.1914
 1336Sol     MW 8352   2.725   1.077   2.940 -0.2541 -0.1026  1.1011
 1337Sol     OW 8353   2.444   0.687   1.956 -0.1943  0.4247 -0.2187
 1337Sol     HW 8354   2.453   0.608   1.902  0.1304  0.5734 -0.3818
 1337Sol     HW 8355   2.410   0.753   1.895  2.2997  1.2080 -0.7894
 1337Sol     MW 8356   2.441   0.686   1.945  0.9523  0.6332 -0.0981
 1338Sol     OW 8357   1.556   3.284   6.197 -0.0798  0.0363 -0.3145
 1338Sol     HW 8358   1.537   3.190   6.192  0.3382 -0.0777  0.2467
 1338Sol     HW 8359   1.557   3.313   6.106  0.2209 -0.5893 -0.5098
 1338Sol     MW 8360   1.554   3.278   6.188 -1.0258 -0.0182  0.3325
 1339Sol     OW 8361   2.155   2.296   8.400 -0.5227  0.3057  0.3290
 1339Sol     HW 8362   2.098   2.219   8.409  0.2874 -0.2245  1.0549
 1339Sol     HW 8363   2.136   2.329   8.313 -0.8811 -0.7276 -0.0002
 1339Sol     MW 8364   2.148   2.292   8.393 -0.7078  0.4836  0.2079
 1340Sol     OW 8365   1.907   0.219   7.009 -0.0957 -0.0058  0.0031
 1340Sol     HW 8366   1.922   0.264   7.092 -0.5973  0.3477 -0.0942
 1340Sol     HW 8367   1.971   0.148   7.008  0.8216  0.8116  0.0771
 1340Sol     MW 8368   1.914   0.217   7.016 -0.2453  0.1440  0.1159
 1341Sol     OW 8369   0.839   2.134   3.876 -0.2267 -0.3865  0.1369
 1341Sol     HW 8370   0.922   2.176   3.899 -0.8998  0.6041  0.7943
 1341Sol     HW 8371   0.824   2.071   3.947 -1.6269  1.7166  1.7856
 1341Sol     MW 8372   0.845   2.132   3.885 -0.0564 -0.8196 -0.1771
 1342Sol     OW 8373   0.385   0.895   9.470 -0.2674 -0.1675 -0.5221
 1342Sol     HW 8374   0.384   0.967   9.533  0.6610 -1.0865  0.5502
 1342Sol     HW 8375   0.426   0.933   9.392  1.4969  0.0884  0.5044
 1342Sol     MW 8376   0.388   0.905   9.469 -0.3884 -0.3839 -0.3944
 1343Sol     OW 8377   2.675   0.053   8.375  0.2094 -0.2667  0.3028
 1343Sol     HW 8378   2.658  -0.041   8.382  0.8560 -0.3652  0.5625
 1343Sol     HW 8379   2.768   0.063   8.394  0.1449  0.4294  0.2952
 1343Sol     MW 8380   2.681   0.046   8.377  0.3062  0.1366  0.9045
 1344Sol     OW 8381   2.936   0.070   1.437 -0.0139  0.7151 -0.0531
 1344Sol     HW 8382   3.024   0.104   1.455  0.0328 -0.4433  2.0312
 1344Sol     HW 8383   2.903   0.127   1.367  2.2334  1.4040 -0.6088
 1344Sol     MW 8384   2.941   0.078   1.432  0.1670  0.0069  0.0597
 1345Sol     OW 8385   1.070   3.008   7.290  0.2024  0.2589  0.0265
 1345Sol     HW 8386   0.988   3.010   7.240  0.3155 -0.8722 -0.2188
 1345Sol     HW 8387   1.107   3.095   7.279 -0.2856  0.3436 -1.0170
 1345Sol     MW 8388   1.066   3.016   7.285  0.0185 -0.2635 -0.2150
 1346Sol     OW 8389   0.562   3.272   4.446 -0.0390 -0.4680  0.0068
 1346Sol     HW 8390   0.540   3.363   4.464  2.7355  0.4442 -1.0030
 1346Sol     HW 8391   0.481   3.234   4.413 -0.8279  2.0187 -1.0436
 1346Sol     MW 8392   0.553   3.277   4.445 -0.6808 -0.8348  0.2521
 1347Sol     OW 8393   0.605   1.549   4.510 -0.6276 -0.0630 -0.6593
 1347Sol     HW 8394   0.600   1.638   4.474 -3.0878  0.0849 -0.0668
 1347Sol     HW 8395   0.678   1.508   4.464  1.5697  2.7682  0.1930
 1347Sol     MW 8396   0.611   1.553   4.503  0.3365 -0.1931 -0.1393
 1348Sol     OW 8397   3.138   0.665   1.912 -0.0720 -0.0797  0.2963
 1348Sol     HW 8398   3.226   0.702   1.916 -0.5361  1.6026 -3.0651
 1348Sol     HW 8399   3.150   0.579   1.870  0.0022  0.0950 -0.0449
 1348Sol     MW 8400   3.147   0.660   1.908  0.3382  0.2010  0.2856
 1349Sol     OW 8401   2.722   1.492   5.416  0.0212  0.3181  0.1701
 1349Sol     HW 8402   2.677   1.518   5.497  0.4469  0.8531  0.2351
 1349Sol     HW 8403   2.687   1.405   5.397  2.1303 -1.1471  2.6125
 1349Sol     MW 8404   2.715   1.487   5.422 -0.1948  0.3050 -0.5278
 1350Sol     OW 8405   0.207   2.531   6.774 -0.1935  0.0022 -0.3013
 1350Sol     HW 8406   0.163   2.541   6.858 -0.2864  0.4708 -0.4037
 1350Sol     HW 8407   0.144   2.565   6.709  0.5438  1.2570 -0.3881
 1350Sol     MW 8408   0.197   2.535   6.775  0.3403  0.0878 -0.2571
 1351Sol     OW 8409   2.907   0.402   4.681 -0.1179  0.0474  0.5764
 1351Sol     HW 8410   2.975   0.402   4.614  0.4393  1.0708  1.1219
 1351Sol     HW 8411   2.935   0.336   4.744  1.3779  1.7452  1.7590
 1351Sol     MW 8412   2.915   0.397   4.681 -0.1458 -0.1521  0.3800
 1352Sol     OW 8413   2.671   2.062   5.089 -0.2239 -0.2640  0.2709
 1352Sol     HW 8414   2.630   2.048   5.174 -0.4298  2.0396  0.5858
 1352Sol     HW 8415   2.764   2.073   5.108  0.4251 -3.9202 -0.2881
 1352Sol     MW 8416   2.676   2.062   5.098 -0.2536 -0.0006  0.0984
 1353Sol     OW 8417   2.407   1.413   8.171  0.0048  0.2389 -0.0487
 1353Sol     HW 8418   2.338   1.465   8.214  0.4317 -0.2166  1.2087
 1353Sol     HW 8419   2.412   1.332   8.222  1.0628  0.0118 -0.4921
 1353Sol     MW 8420   2.401   1.411   8.179  0.2292 -0.1217  0.5963
 1354Sol     OW 8421   2.519   0.874   9.789 -0.0908  0.3760 -0.5138
 1354Sol     HW 8422   2.519   0.797   9.846  1.0447 -0.6140 -1.8245
 1354Sol     HW 8423   2.444   0.860   9.730  0.3314  0.0939 -0.9860
 1354Sol     MW 8424   2.512   0.866   9.789 -0.1940 -0.0803 -0.2499
 1355Sol     OW 8425   1.137   0.976   5.072  0.5407 -0.6981  0.5566
 1355Sol     HW 8426   1.063   0.955   5.015  0.9100 -0.0782 -0.1518
 1355Sol     HW 8427   1.164   0.892   5.109 -0.9478 -0.8456  1.3491
 1355Sol     MW 8428   1.133   0.967   5.071  0.5971  0.8193 -0.1431
 1356Sol     OW 8429   0.409   2.252   5.051  0.3690 -0.0643  0.3691
 1356Sol     HW 8430   0.470   2.304   5.104  1.5903 -0.2281 -0.8345
 1356Sol     HW 8431   0.325   2.259   5.096  0.3080  3.5980 -0.1465
 1356Sol     MW 8432   0.407   2.258   5.059  0.4551 -0.1548 -0.1063
 1357Sol     OW 8433   2.105   1.160   9.814  0.0516  0.0786 -0.7078
 1357Sol     HW 8434   2.111   1.208   9.732  1.9488 -0.2249 -0.7756
 1357Sol     HW 8435   2.037   1.095   9.800  0.6846 -0.2765 -2.2144
 1357Sol     MW 8436   2.100   1.158   9.806 -0.6087 -0.8031 -0.1232
 1358Sol     OW 8437   0.564   1.325   6.417 -0.4609 -0.3831  0.1977
 1358Sol     HW 8438   0.603   1.260   6.475  0.1707  1.0395  1.3958
 1358Sol     HW 8439   0.537   1.396   6.475 -1.5710  0.2176 -1.0376
 1358Sol     MW 8440   0.565   1.325   6.427  0.9655 -0.1843 -0.1471
 1359Sol     OW 8441   2.450   1.263   3.151  0.1884 -0.8200  0.2637
 1359Sol     HW 8442   2.398   1.342   3.168 -3.0626 -2.2583 -2.3739
 1359Sol     HW 8443   2.408   1.195   3.203  0.4896 -1.6428 -0.5615
 1359Sol     MW 8444   2.442   1.264   3.157  0.5464  0.4172 -0.0127
 1360Sol     OW 8445   1.795   0.003   4.152 -0.7473 -0.0254 -0.0648
 1360Sol     HW 8446   1.808   0.081   4.205  0.8094 -0.3205 -0.0002
 1360Sol     HW 8447   1.824   0.029   4.064 -1.9152  0.0097 -0.4509
 1360Sol     MW 8448   1.799   0.012   4.149 -0.2653  0.2702 -0.0265
 1361Sol     OW 8449   0.880   2.668   4.676 -0.0220 -0.2428  0.0570
 1361Sol     HW 8450   0.820   2.659   4.751  0.3839  0.7657  0.5195
 1361Sol     HW 8451   0.939   2.593   4.683 -1.6467 -1.6195 -0.7926
 1361Sol     MW 8452   0.880   2.661   4.684  0.5282 -0.3148  0.4780
 1362Sol     OW 8453   0.488   2.273   8.909 -0.2367 -0.1260  0.3558
 1362Sol     HW 8454   0.401   2.259   8.871 -0.6577  0.5015  1.0872
 1362Sol     HW 8455   0.514   2.187   8.942  0.3590 -0.8115 -1.8072
 1362Sol     MW 8456   0.483   2.264   8.908 -0.1157  0.7699  0.2545
 1363Sol     OW 8457   0.593   0.047   6.998  0.0221  0.3012  0.1604
 1363Sol     HW 8458   0.535  -0.001   7.058  0.0306 -1.5714 -1.2845
 1363Sol     HW 8459   0.567   0.139   7.008 -1.6479 -0.2651  1.2102
 1363Sol     MW 8460   0.585   0.051   7.004  0.1543  0.4213  0.2714
 1364Sol     OW 8461   1.504   0.779   8.209 -0.2604  0.8312 -0.3844
 1364Sol     HW 8462   1.436   0.804   8.272  0.2065 -1.7835  1.2391
 1364Sol     HW 8463   1.586   0.800   8.252  0.0427  2.7865 -1.8259
 1364Sol     MW 8464   1.505   0.783   8.218 -0.6048 -0.0817 -0.5529
 1365Sol     OW 8465   0.892   1.250   8.663  0.1645  0.0703 -0.3336
 1365Sol     HW 8466   0.864   1.250   8.754 -2.8780 -0.2421 -1.2138
 1365Sol     HW 8467   0.977   1.293   8.664  0.5293 -0.6197  2.7403
 1365Sol     MW 8468   0.897   1.254   8.671  0.0796 -0.8898  0.7515
 1366Sol     OW 8469   2.634   1.116   7.094 -0.7497  0.2379 -0.2896
 1366Sol     HW 8470   2.638   1.046   7.159  0.1915 -0.3254 -0.9298
 1366Sol     HW 8471   2.630   1.197   7.145  3.1869  0.0154  0.5611
 1366Sol     MW 8472   2.634   1.117   7.104  0.1205 -0.5333 -0.0474
 1367Sol     OW 8473   0.568   1.323   1.512 -0.2015  1.2642 -0.0863
 1367Sol     HW 8474   0.539   1.283   1.593  1.1791  1.5311  0.5577
 1367Sol     HW 8475   0.491   1.370   1.479 -1.5979 -1.2603 -0.4721
 1367Sol     MW 8476   0.559   1.324   1.516 -0.1724  0.3801  0.2093
 1368Sol     OW 8477   1.708   2.389   8.803 -0.5964  0.0426 -0.0409
 1368Sol     HW 8478   1.650   2.347   8.739 -1.0420 -0.6116  0.7789
 1368Sol     HW 8479   1.785   2.415   8.753 -1.0186 -0.3126 -0.8772
 1368Sol     MW 8480   1.709   2.387   8.793 -0.1523 -1.0401 -0.1340
 1369Sol     OW 8481   1.926   0.410   3.061  0.3990  0.8353  0.2274
 1369Sol     HW 8482   1.847   0.356   3.068  0.1703  1.0858 -0.4130
 1369Sol     HW 8483   1.942   0.440   3.150 -0.0853  0.5779  0.4015
 1369Sol     MW 8484   1.920   0.408   3.070 -0.3667  0.3562  0.2726
 1370Sol     OW 8485   0.565   2.919   7.988 -0.3959 -0.2270  0.6723
 1370Sol     HW 8486   0.559   2.874   8.073  2.2574  1.1889  1.6523
 1370Sol     HW 8487   0.654   2.903   7.958 -0.3991  1.7828 -0.4503
 1370Sol     MW 8488   0.572   2.913   7.993 -0.5356  0.1024 -0.6614
 1371Sol     OW 8489   2.322   0.056   2.060  0.0058  0.5443  0.0084
 1371Sol     HW 8490   2.263  -0.017   2.042 -0.7273  0.9184  0.8496
 1371Sol     HW 8491   2.288   0.094   2.141 -0.7011  2.9417 -1.3808
 1371Sol     MW 8492   2.314   0.053   2.066  0.5921  0.0894 -0.5129
 1372Sol     OW 8493   0.352   0.218   4.129 -0.3949  0.7790 -0.3084
 1372Sol     HW 8494   0.315   0.235   4.043 -0.4150 -2.3025 -0.9853
 1372Sol     HW 8495   0.441   0.187   4.111 -0.9162 -1.3743  0.6334
 1372Sol     MW 8496   0.357   0.216   4.119  0.3866 -1.0963  0.4299
 1373Sol     OW 8497   1.404   1.951   4.520  0.6391  0.1565  0.5384
 1373Sol     HW 8498   1.391   1.923   4.429  1.1000  0.6013  0.3336
 1373Sol     HW 8499   1.468   2.022   4.514  1.2397 -0.3139  1.2831
 1373Sol     MW 8500   1.409   1.954   4.511  0.0683  0.1198  0.1621
 1374Sol     OW 8501   2.766   0.235   7.761  0.4833  0.2879 -0.4135
 1374Sol     HW 8502   2.801   0.226   7.850  0.6246  0.1256 -0.4867
 1374Sol     HW 8503   2.801   0.160   7.714  0.2867  0.2937 -0.5687
 1374Sol     MW 8504   2.772   0.228   7.765 -0.3218  0.5376 -0.2354
 1375Sol     OW 8505   1.323   1.101   4.911 -0.3514 -0.4737 -0.1236
 1375Sol     HW 8506   1.252   1.083   4.972 -0.1160 -0.9508  0.0111
 1375Sol     HW 8507   1.384   1.157   4.960 -0.3699 -0.5066 -0.0639
 1375Sol     MW 8508   1.322   1.105   4.921 -0.8300 -0.1442  0.4648
 1376Sol     OW 8509   1.749   0.497   8.831  0.4385 -0.5986 -0.3268
 1376Sol     HW 8510   1.681   0.444   8.790 -0.7059  0.1389  0.5701
 1376Sol     HW 8511   1.771   0.449   8.911  1.3416 -1.0879 -0.8565
 1376Sol     MW 8512   1.745   0.488   8.835 -0.9671 -0.2077 -0.3325
 1377Sol     OW 8513   1.125   2.911   2.560  0.0434 -0.1650 -0.7355
 1377Sol     HW 8514   1.167   2.969   2.624  0.8869 -2.4374  0.8044
 1377Sol     HW 8515   1.166   2.934   2.476  0.6138  1.2255 -0.0902
 1377Sol     MW 8516   1.132   2.918   2.558  0.3139 -0.1486 -0.8514
 1378Sol     OW 8517   2.745   1.578   2.201 -0.3848 -0.1272  0.6847
 1378Sol     HW 8518   2.764   1.542   2.287 -3.2008 -1.4591  0.8059
 1378Sol     HW 8519   2.723   1.670   2.218  1.0004  0.1328  1.1194
 1378Sol     MW 8520   2.744   1.583   2.210  0.3244 -0.0150  0.5007
 1379Sol     OW 8521   1.548   1.115   4.133 -0.0366  0.1812  0.0514
 1379Sol     HW 8522   1.524   1.030   4.095 -1.4169  0.3315  0.5470
 1379Sol     HW 8523   1.465   1.163   4.138  0.2713  0.5180  2.3488
 1379Sol     MW 8524   1.538   1.112   4.130  0.4752  0.1254 -0.3511
 1380Sol     OW 8525   2.803   1.793   2.997 -1.0221 -0.9426 -0.0990
 1380Sol     HW 8526   2.727   1.839   3.033 -0.9007 -1.8527  1.3779
 1380Sol     HW 8527   2.809   1.823   2.907 -1.6971  0.9507  0.4718
 1380Sol     MW 8528   2.797   1.800   2.992  0.3454  0.3734  0.3093
 1381Sol     OW 8529   2.849   0.275   5.183 -0.1229  0.0869 -0.4979
 1381Sol     HW 8530   2.926   0.297   5.131  0.0004  0.2603 -0.2404
 1381Sol     HW 8531   2.856   0.180   5.198  0.3370  0.1983  0.0091
 1381Sol     MW 8532   2.856   0.268   5.180  0.6568 -0.5547 -0.1189
 1382Sol     OW 8533   2.630   3.293   5.148  0.0858 -0.5851  0.0475
 1382Sol     HW 8534   2.576   3.221   5.114 -1.0722  0.7174 -0.9452
 1382Sol     HW 8535   2.568   3.365   5.162  1.5003  0.8771 -0.9082
 1382Sol     MW 8536   2.619   3.293   5.146 -0.2439 -0.1336 -0.3057
 1383Sol     OW 8537   2.343   3.062   5.773  0.6639  0.7829 -0.0611
 1383Sol     HW 8538   2.431   3.095   5.791  0.9076  0.1487 -0.0625
 1383Sol     HW 8539   2.286   3.137   5.788  1.3768  1.7124 -1.9002
 1383Sol     MW 8540   2.346   3.071   5.776  0.1660  0.2150 -0.5918
 1384Sol     OW 8541   1.087   2.476   2.519  0.0797 -0.6483 -0.3341
 1384Sol     HW 8542   1.118   2.399   2.472 -0.9428 -0.1272 -1.8643
 1384Sol     HW 8543   1.022   2.442   2.581 -0.5440 -0.9673 -1.1713
 1384Sol     MW 8544   1.084   2.466   2.521  0.1236  0.5659 -0.2698
 1385Sol     OW 8545   1.138   2.356   6.188 -0.2297  0.7471 -0.0950
 1385Sol     HW 8546   1.049   2.327   6.208 -0.6732  2.3166  0.3237
 1385Sol     HW 8547   1.126   2.429   6.126  0.7391  1.1749  0.2097
 1385Sol     MW 8548   1.129   2.360   6.184 -0.4106  0.2460 -0.5467
 1386Sol     OW 8549   0.695   0.723   6.355 -0.0558  0.3742 -0.2003
 1386Sol     HW 8550   0.780   0.679   6.360 -0.5753 -0.5127  1.1926
 1386Sol     HW 8551   0.709   0.794   6.292  2.1937  1.2853  1.2222
 1386Sol     MW 8552   0.704   0.726   6.350 -0.2842 -0.3776  0.6500
 1387Sol     OW 8553   3.065   3.316   9.450 -0.2916  0.1183 -0.7074
 1387Sol     HW 8554   3.132   3.310   9.519 -0.9592 -0.8627 -0.1355
 1387Sol     HW 8555   3.105   3.274   9.374 -0.2455 -0.4498 -0.3744
 1387Sol     MW 8556   3.075   3.312   9.450  0.0280 -0.0137  0.9974
 1388Sol     OW 8557   0.197   3.175   2.681  0.0966 -0.1065  0.3237
 1388Sol     HW 8558   0.287   3.148   2.664 -0.5931 -1.5522 -1.1088
 1388Sol     HW 8559   0.181   3.247   2.620  0.5299  0.6941  1.1419
 1388Sol     MW 8560   0.203   3.179   2.674  0.4885  0.2681  0.3727
 1389Sol     OW 8561   1.936   3.172   4.812 -0.2252  0.2234  0.9429
 1389Sol     HW 8562   2.010   3.122   4.778  0.7203  2.3011 -0.1069
 1389Sol     HW 8563   1.863   3.109   4.812  0.9397 -1.1538 -0.3241
 1389Sol     MW 8564   1.936   3.162   4.809 -0.1567 -0.1238  0.3645
 1390Sol     OW 8565   2.184   0.175   2.285  0.2216  0.5289 -0.2087
 1390Sol     HW 8566   2.088   0.169   2.289  0.2003 -0.2620 -1.6797
 1390Sol     HW 8567   2.207   0.236   2.355 -1.3167  0.2838  0.5350
 1390Sol     MW 8568   2.177   0.180   2.292 -0.0654 -0.4371  0.6924
 1391Sol     OW 8569   1.885   0.815   5.624 -0.0570  0.0741 -0.3196
 1391Sol     HW 8570   1.798   0.843   5.597  0.1853  0.7098 -0.4479
 1391Sol     HW 8571   1.874   0.722   5.647 -0.5740 -0.1045 -1.2216
 1391Sol     MW 8572   1.876   0.809   5.623  0.2969  0.3705 -0.4601
 1392Sol     OW 8573   1.684   2.262   4.083  0.5681  0.1210 -0.3589
 1392Sol     HW 8574   1.708   2.234   3.994 -0.7875 -0.4346 -0.5581
 1392Sol     HW 8575   1.709   2.189   4.139 -1.1811 -0.7126 -0.6406
 1392Sol     MW 8576   1.688   2.253   4.080 -0.5674 -0.5766  0.3544
 1393Sol     OW 8577   0.058   0.974   2.126 -0.1214  0.4776  0.2211
 1393Sol     HW 8578   0.108   0.933   2.197 -2.0568 -1.4182  0.5726
 1393Sol     HW 8579   0.122   1.025   2.077  1.6211  0.2562  2.2000
 1393Sol     MW 8580   0.068   0.975   2.128  0.0021  0.0536 -0.4158
 1394Sol     OW 8581   1.627   2.764   8.059 -0.1103 -0.3879 -0.3801
 1394Sol     HW 8582   1.580   2.739   7.979  1.9515  0.3935 -1.8938
 1394Sol     HW 8583   1.679   2.687   8.081  1.7614  0.4897 -1.6565
 1394Sol     MW 8584   1.627   2.755   8.054  0.0861 -0.6133  0.1597
 1395Sol     OW 8585   1.791   0.696   4.520  0.3972 -0.8036  0.2495
 1395Sol     HW 8586   1.702   0.661   4.511  0.1419  0.0619 -0.7396
 1395Sol     HW 8587   1.783   0.788   4.493  1.1214 -0.0563  2.4167
 1395Sol     MW 8588   1.782   0.701   4.517 -0.2783 -0.1544  0.1473
 1396Sol     OW 8589   2.119   0.515   9.577  0.0910  0.4650  0.5082
 1396Sol     HW 8590   2.139   0.591   9.523 -0.0440  1.2412  1.5283
 1396Sol     HW 8591   2.045   0.542   9.631 -0.3211 -0.5876  0.4926
 1396Sol     MW 8592   2.114   0.524   9.577 -0.0656  0.7211 -0.4176
 1397Sol     OW 8593   0.803   1.512   4.024  0.4124 -0.6144  0.3909
 1397Sol     HW 8594   0.788   1.519   4.119  1.0269  2.2037  0.3330
 1397Sol     HW 8595   0.894   1.538   4.012 -0.4248  1.7917 -1.2093
 1397Sol     MW 8596   0.810   1.515   4.032 -0.0213 -0.1351 -0.5259
 1398Sol     OW 8597   3.296   1.819   3.028 -0.0649 -0.4596 -0.7740
 1398Sol     HW 8598   3.214   1.791   3.067 -0.5088 -1.2399 -2.2257
 1398Sol     HW 8599   3.322   1.897   3.078 -1.2096 -0.7461  0.2720
 1398Sol     MW 8600   3.291   1.824   3.036  0.2793 -0.0586 -0.8384
 1399Sol     OW 8601   0.614   0.627   2.167 -0.0921 -0.2748  0.1784
 1399Sol     HW 8602   0.618   0.627   2.072 -0.0696  2.2336  0.1324
 1399Sol     HW 8603   0.694   0.583   2.195  0.0954 -0.6697 -0.9572
 1399Sol     MW 8604   0.621   0.623   2.161 -0.0524  0.4699 -0.4612
 1400Sol     OW 8605   1.275   0.449   2.486 -0.1346  0.2300 -0.3714
 1400Sol     HW 8606   1.322   0.488   2.559  1.5082  0.4525 -1.5127
 1400Sol     HW 8607   1.344   0.410   2.431 -1.4376 -1.0352 -1.1423
 1400Sol     MW 8608   1.285   0.449   2.487  0.1655 -0.0841 -0.2039
 1401Sol     OW 8609   0.383   2.143   6.383 -0.2623  0.1548  0.1584
 1401Sol     HW 8610   0.368   2.080   6.312 -2.3954  0.9877 -0.1687
 1401Sol     HW 8611   0.354   2.227   6.347  1.5663  1.1589  0.9570
 1401Sol     MW 8612   0.379   2.145   6.373 -0.1144 -0.0370  0.2567
 1402Sol     OW 8613   3.028   2.724   2.422 -0.0758 -0.0522 -0.1750
 1402Sol     HW 8614   3.101   2.675   2.384 -0.5490  1.1938 -2.8035
 1402Sol     HW 8615   2.965   2.657   2.447  1.6421 -1.1029  1.5100
 1402Sol     MW 8616   3.029   2.713   2.421  0.2125  0.6094 -0.1820
 1403Sol     OW 8617   3.264   1.194   3.636  0.0775  0.1293  0.3989
 1403Sol     HW 8618   3.258   1.275   3.687  0.0696  0.4455 -0.1002
 1403Sol     HW 8619   3.223   1.215   3.552  0.2309 -0.3397  0.2038
 1403Sol     MW 8620   3.260   1.204   3.633 -0.1845 -0.3728 -0.3915
 1404Sol     OW 8621   2.313   2.707   8.661 -0.2786  0.2854 -0.4867
 1404Sol     HW 8622   2.308   2.621   8.620 -0.8150  0.1082 -0.0688
 1404Sol     HW 8623   2.289   2.768   8.591  2.3549  0.2987 -1.4104
 1404Sol     MW 8624   2.310   2.705   8.651  0.1660 -0.9515  0.1866
 1405Sol     OW 8625   2.751   2.858   6.487 -0.0302 -0.1196 -0.5973
 1405Sol     HW 8626   2.701   2.843   6.406 -2.1450  1.0802  0.4428
 1405Sol     HW 8627   2.783   2.947   6.479 -0.8422  0.2517  0.1783
 1405Sol     MW 8628   2.749   2.864   6.479 -0.2107  0.5106  0.7434
 1406Sol     OW 8629   0.440   0.901   2.531 -0.4209  0.2950  0.2417
 1406Sol     HW 8630   0.475   0.969   2.474 -0.1274 -0.2909 -0.2740
 1406Sol     HW 8631   0.430   0.824   2.475  1.4506 -0.7861  1.3543
 1406Sol     MW 8632   0.442   0.900   2.521 -0.2978 -0.3274 -0.4545
 1407Sol     OW 8633   0.098   1.765   9.446  0.1096  0.2702  0.1956
 1407Sol     HW 8634   0.192   1.760   9.457  0.0613 -0.5629  0.2205
 1407Sol     HW 8635   0.073   1.845   9.493  0.7741  0.3836  0.3620
 1407Sol     MW 8636   0.104   1.772   9.452  0.5461  0.1510  0.0846
 1408Sol     OW 8637   0.688   1.259   5.863 -0.2349 -0.3570 -0.1724
 1408Sol     HW 8638   0.774   1.263   5.906 -0.7070  0.1554  0.7316
 1408Sol     HW 8639   0.666   1.166   5.863  1.2089 -0.7286 -2.1892
 1408Sol     MW 8640   0.694   1.251   5.867  0.5674  0.1315  0.2136
 1409Sol     OW 8641   2.509   2.920   3.033  0.1362  0.5638  0.1124
 1409Sol     HW 8642   2.572   2.865   3.081  2.7666  1.8210 -1.7630
 1409Sol     HW 8643   2.483   2.867   2.958  1.2914  1.1743 -0.7288
 1409Sol     MW 8644   2.512   2.910   3.031 -0.4522  0.4361  0.1130
 1410Sol     OW 8645   2.391   2.052   9.408  0.1110 -0.4338 -0.3162
 1410Sol     HW 8646   2.417   2.106   9.333  0.3789 -1.1551 -0.7444
 1410Sol     HW 8647   2.410   1.962   9.381 -1.7180 -0.8872 -0.1787
 1410Sol     MW 8648   2.395   2.049   9.399  0.1988 -0.6588  0.5252
 1411Sol     OW 8649   2.779   0.908   4.081  0.0875  0.4656  0.3040
 1411Sol     HW 8650   2.717   0.980   4.091 -0.4195  0.0733  0.0036
 1411Sol     HW 8651   2.761   0.872   3.994  1.4156  0.9858 -0.2071
 1411Sol     MW 8652   2.772   0.911   4.074 -0.1798  0.0795  0.4738
 1412Sol     OW 8653   2.906   2.133   6.086  0.5522  0.0246  0.3839
 1412Sol     HW 8654   2.935   2.193   6.019  1.2251 -1.0437 -0.2930
 1412Sol     HW 8655   2.810   2.131   6.077  0.5463  0.8695  0.3124
 1412Sol     MW 8656   2.900   2.138   6.080 -0.3071  0.0131  0.1406
 1413Sol     OW 8657   1.275   3.274   4.273 -0.4834 -0.6059  0.0651
 1413Sol     HW 8658   1.298   3.240   4.359 -0.4304  0.8784  0.6591
 1413Sol     HW 8659   1.357   3.311   4.239 -0.4971 -1.2078 -0.6377
 1413Sol     MW 8660   1.285   3.274   4.278 -0.2349  0.5858 -0.0065
 1414Sol     OW 8661   1.750   2.794   5.323 -0.1408  0.8546 -0.3747
 1414Sol     HW 8662   1.796   2.870   5.359  1.9761 -0.4031 -0.3591
 1414Sol     HW 8663   1.768   2.723   5.385 -0.8381 -0.0380 -1.1709
 1414Sol     MW 8664   1.756   2.794   5.332 -0.3188 -0.1137  1.0037
 1415Sol     OW 8665   1.254   2.784   3.148 -0.1134 -0.7779 -0.0454
 1415Sol     HW 8666   1.230   2.725   3.077  0.6429 -0.8426 -0.2463
 1415Sol     HW 8667   1.334   2.747   3.185 -0.2818 -0.5260  0.5828
 1415Sol     MW 8668   1.259   2.776   3.145 -0.7228  0.6370 -0.0065
 1416Sol     OW 8669   0.970   1.855   4.254 -0.5403  0.2171  0.5484
 1416Sol     HW 8670   1.043   1.793   4.258 -0.9336 -0.3548 -1.0243
 1416Sol     HW 8671   1.011   1.941   4.260  0.1051 -0.1397  1.4563
 1416Sol     MW 8672   0.980   1.857   4.255  0.1534 -0.2469  0.0670
 1417Sol     OW 8673   0.637   2.313   1.575  0.9770 -0.6752  0.0203
 1417Sol     HW 8674   0.565   2.343   1.631 -0.8344 -0.4882 -2.2755
 1417Sol     HW 8675   0.669   2.393   1.533  1.2625 -0.9949 -0.3721
 1417Sol     MW 8676   0.633   2.323   1.576 -0.3858  0.2202  0.0718
 1418Sol     OW 8677   0.101   2.866   4.769  0.6187  0.7978  0.4373
 1418Sol     HW 8678   0.101   2.860   4.864 -0.3229 -0.9925  0.3449
 1418Sol     HW 8679   0.192   2.847   4.744  0.8406  1.1566  0.9641
 1418Sol     MW 8680   0.109   2.864   4.775  0.6503  0.0644 -0.8346
 1419Sol     OW 8681   2.240   1.612   3.466  0.7059 -0.0597 -0.2123
 1419Sol     HW 8682   2.147   1.598   3.480  0.8444  0.4294  1.3321
 1419Sol     HW 8683   2.279   1.603   3.554  1.9463  0.9049 -0.6532
 1419Sol     MW 8684   2.235   1.610   3.475 -0.8207 -0.0657 -0.1363
 1420Sol     OW 8685   3.215   0.198   5.304 -0.4670 -0.5891 -0.1525
 1420Sol     HW 8686   3.240   0.286   5.334 -1.3947  0.8491 -3.2774
 1420Sol     HW 8687   3.129   0.182   5.343  0.4793 -0.8874  1.8488
 1420Sol     MW 8688   3.209   0.205   5.310 -0.4930 -0.0118 -0.1988
 1421Sol     OW 8689   0.700   2.634   8.619  0.0982 -0.1549  0.3955
 1421Sol     HW 8690   0.637   2.626   8.547  0.9135 -0.1316 -0.3235
 1421Sol     HW 8691   0.756   2.557   8.611 -0.5570 -0.7879  1.7414
 1421Sol     MW 8692   0.699   2.626   8.612  0.1121 -0.4267 -0.0614
 1422Sol     OW 8693   1.523   2.050   3.804  0.2394  0.1727 -0.1980
 1422Sol     HW 8694   1.547   1.998   3.727  0.3713  1.0429 -0.7598
 1422Sol     HW 8695   1.576   2.130   3.795 -0.3032  0.5982  0.3986
 1422Sol     MW 8696   1.530   2.053   3.796  0.7595 -0.4176 -0.1259
 1423Sol     OW 8697   1.243   2.216   9.086 -0.0953  0.1283  0.1197
 1423Sol     HW 8698   1.288   2.301   9.092  0.3074 -0.0079 -0.9079
 1423Sol     HW 8699   1.313   2.153   9.068 -0.4110 -0.4146  0.7561
 1423Sol     MW 8700   1.253   2.218   9.085 -0.0187  0.0186 -0.1397
 1424Sol     OW 8701   0.961   0.580   5.170 -0.0647 -0.3159 -0.7266
 1424Sol     HW 8702   1.042   0.622   5.198 -0.2896 -0.4236  0.1147
 1424Sol     HW 8703   0.905   0.583   5.248 -0.6614 -0.7405 -1.1376
 1424Sol     MW 8704   0.963   0.584   5.180  0.5088 -0.5183 -0.0175
 1425Sol     OW 8705   2.824   1.718   4.765 -0.4834 -0.0489 -0.6159
 1425Sol     HW 8706   2.785   1.755   4.845 -1.3788  0.2512 -1.1915
 1425Sol     HW 8707   2.753   1.670   4.723  0.2023 -0.8841 -0.8230
 1425Sol     MW 8708   2.815   1.717   4.769 -0.3004 -0.5305  0.2068
 1426Sol     OW 8709   1.517   0.354   8.773  0.7881 -0.3586 -0.1447
 1426Sol     HW 8710   1.424   0.372   8.783  1.2256  1.6306  0.6116
 1426Sol     HW 8711   1.525   0.259   8.783 -1.1246 -0.5231 -0.0477
 1426Sol     MW 8712   1.510   0.347   8.775 -0.0267  0.5864 -0.4685
 1427Sol     OW 8713   0.518   0.074   8.950 -0.3570 -0.3137  0.3729
 1427Sol     HW 8714   0.467   0.011   8.899 -0.5208 -0.8613  1.2158
 1427Sol     HW 8715   0.520   0.153   8.895 -1.8742 -0.3777  0.2030
 1427Sol     MW 8716   0.514   0.076   8.940 -0.6896 -0.4101 -0.3930
 1428Sol     OW 8717   2.296   3.089   5.121  0.5007 -0.0415 -0.0581
 1428Sol     HW 8718   2.277   3.165   5.065  2.0212  0.5158  0.1554
 1428Sol     HW 8719   2.317   3.127   5.206  1.4763 -0.6895 -0.0078
 1428Sol     MW 8720   2.296   3.099   5.123 -0.1232  0.5371 -0.5766
 1429Sol     OW 8721   0.147   1.737   3.860 -0.0559  0.1277 -0.8720
 1429Sol     HW 8722   0.087   1.663   3.866 -1.2390  1.1734  0.2871
 1429Sol     HW 8723   0.209   1.711   3.792 -0.5520 -1.8517 -0.6026
 1429Sol     MW 8724   0.147   1.728   3.854 -0.5885 -0.0755 -0.8448
 1430Sol     OW 8725   2.733   1.386   1.709 -1.0212 -1.0706  0.1110
 1430Sol     HW 8726   2.685   1.452   1.759 -0.4730 -0.5323 -0.0628
 1430Sol     HW 8727   2.783   1.338   1.775 -0.8412 -0.8214  0.1559
 1430Sol     MW 8728   2.733   1.388   1.719  0.8680 -0.1725 -0.0916
 1431Sol     OW 8729   0.399   0.432   6.043 -0.0281  0.1625 -0.0050
 1431Sol     HW 8730   0.325   0.394   6.090  0.6478  0.9396  1.7445
 1431Sol     HW 8731   0.476   0.395   6.085  0.6164  2.2909  0.7853
 1431Sol     MW 8732   0.399   0.426   6.051 -0.5309  0.0381 -0.6016
 1432Sol     OW 8733   1.693   2.431   3.237  0.0932  0.5109  0.0458
 1432Sol     HW 8734   1.768   2.433   3.296 -0.4673 -2.5809  0.9443
 1432Sol     HW 8735   1.731   2.443   3.150  1.6413 -0.8614  0.5049
 1432Sol     MW 8736   1.703   2.432   3.234 -0.3164 -0.3155 -0.3529
 1433Sol     OW 8737   0.657   1.685   8.359 -0.1420 -0.1168 -0.2263
 1433Sol     HW 8738   0.663   1.591   8.371  0.1163 -0.0073  0.5008
 1433Sol     HW 8739   0.733   1.708   8.305 -0.2161 -0.3224 -0.4172
 1433Sol     MW 8740   0.664   1.679   8.355  0.8022 -0.4662  0.0903
 1434Sol     OW 8741   3.199   2.052   6.799 -0.1316  0.1180 -0.2230
 1434Sol     HW 8742   3.214   1.985   6.866  1.1402 -0.2343 -0.8329
 1434Sol     HW 8743   3.257   2.027   6.727  1.4194  2.6149  0.0679
 1434Sol     MW 8744   3.206   2.044   6.799 -0.2720 -0.1946  0.2530
 1435Sol     OW 8745   3.063   1.418   7.349  0.2414  0.2494 -0.0193
 1435Sol     HW 8746   3.011   1.461   7.416  0.0296  1.7492 -1.1197
 1435Sol     HW 8747   3.154   1.440   7.371  0.1883  0.5067 -0.0547
 1435Sol     MW 8748   3.067   1.424   7.357  0.0109  0.7569  0.1908
 1436Sol     OW 8749   1.017   0.908   7.630  0.2544  0.5986  0.2520
 1436Sol     HW 8750   1.030   0.817   7.603  0.0468  0.4665  0.5985
 1436Sol     HW 8751   1.105   0.937   7.654  0.7408  1.2253 -2.0987
 1436Sol     MW 8752   1.026   0.902   7.629  0.1959  0.5279  0.6414
 1437Sol     OW 8753   1.333   0.449   5.192  0.6164 -0.1594 -0.4350
 1437Sol     HW 8754   1.359   0.522   5.136  0.3706  0.3449  0.1011
 1437Sol     HW 8755   1.250   0.419   5.154 -1.5356  2.6011  1.8240
 1437Sol     MW 8756   1.327   0.453   5.183 -0.0566  0.3389 -0.0063
 1438Sol     OW 8757   1.431   2.474   2.451  0.3795 -0.2484 -0.0587
 1438Sol     HW 8758   1.373   2.544   2.420 -0.4393 -0.4829  0.9278
 1438Sol     HW 8759   1.438   2.415   2.376  1.0488  0.8615 -0.8898
 1438Sol     MW 8760   1.426   2.475   2.441  0.0369  0.3994 -0.3761
 1439Sol     OW 8761   2.514   1.905   8.135 -0.2916  0.2702 -0.1273
 1439Sol     HW 8762   2.589   1.937   8.086 -0.3934  0.7490  0.0261
 1439Sol     HW 8763   2.488   1.824   8.091 -0.9490  1.1695 -1.4037
 1439Sol     MW 8764   2.518   1.900   8.127  0.0609 -0.0422  0.4263
 1440Sol     OW 8765   1.519   0.474   9.422  0.2465  0.0520  0.5867
 1440Sol     HW 8766   1.517   0.379   9.411 -0.0234  0.0704  0.4706
 1440Sol     HW 8767   1.558   0.507   9.342  2.9501 -0.1405  1.7907
 1440Sol     MW 8768   1.522   0.469   9.414  0.0545 -0.3826 -0.0797
 1441Sol     OW 8769   2.849   0.538   2.130  0.2374  0.4408  0.3015
 1441Sol     HW 8770   2.800   0.496   2.200 -1.3040 -0.8150 -1.4828
 1441Sol     HW 8771   2.824   0.631   2.135 -2.8499 -0.2845 -0.9828
 1441Sol     MW 8772   2.842   0.543   2.137 -0.1579 -0.2255 -0.4494
 1442Sol     OW 8773   2.460   3.401   4.342 -0.3369  0.0215 -0.1492
 1442Sol     HW 8774   2.456   3.463   4.415 -1.0051 -0.1237 -0.0597
 1442Sol     HW 8775   2.552   3.374   4.339  0.2536  2.0729 -1.0877
 1442Sol     MW 8776   2.468   3.404   4.348  0.7418  0.3953 -0.4201
 1443Sol     OW 8777   0.573   0.551   4.657  0.0141  0.1793 -0.5654
 1443Sol     HW 8778   0.575   0.645   4.643 -0.0260  0.1735 -0.6117
 1443Sol     HW 8779   0.636   0.516   4.594 -0.1938  0.1497 -0.7570
 1443Sol     MW 8780   0.579   0.556   4.650  0.2974 -0.1247  0.1066
 1444Sol     OW 8781   2.776   0.641   5.544 -0.6057 -0.2049 -0.9169
 1444Sol     HW 8782   2.733   0.663   5.626 -1.2484  0.3703 -1.4038
 1444Sol     HW 8783   2.742   0.554   5.521  1.4730 -1.4964  0.6931
 1444Sol     MW 8784   2.770   0.635   5.549 -0.1377  0.3854  0.4294
 1445Sol     OW 8785   0.150   3.123   9.919 -0.1638 -0.2685 -0.1979
 1445Sol     HW 8786   0.212   3.155   9.984  2.7691 -3.6730 -1.2159
 1445Sol     HW 8787   0.099   3.056   9.966  0.4874 -1.1734 -0.7661
 1445Sol     MW 8788   0.151   3.120   9.929  0.4374  0.1437  0.3074
 1446Sol     OW 8789   3.143   2.718   6.866 -0.6478 -0.0507 -0.2494
 1446Sol     HW 8790   3.115   2.759   6.785  0.2962  0.4318 -0.3391
 1446Sol     HW 8791   3.063   2.708   6.918 -0.9204  1.6581 -0.3310
 1446Sol     MW 8792   3.133   2.721   6.864 -0.6369 -0.3787  0.6658
 1447Sol     OW 8793   2.665   3.016   8.615 -0.5263  0.3708 -0.0449
 1447Sol     HW 8794   2.666   2.933   8.662 -1.8998 -0.6921 -1.7774
 1447Sol     HW 8795   2.594   3.066   8.656 -1.0137 -0.1277 -0.2623
 1447Sol     MW 8796   2.658   3.013   8.623 -0.2789  0.5509 -0.2824
 1448Sol     OW 8797   2.190   3.189   9.028 -1.0948  0.5110  0.3095
 1448Sol     HW 8798   2.267   3.220   9.075 -0.2402 -1.2683  0.1541
 1448Sol     HW 8799   2.195   3.231   8.943  1.8854 -2.5024 -1.1222
 1448Sol     MW 8800   2.197   3.195   9.025  0.1376  0.2852  0.0457
 1449Sol     OW 8801   1.153   1.928   9.493 -0.3086 -0.2165 -0.3809
 1449Sol     HW 8802   1.072   1.935   9.544 -0.0831 -0.3552 -0.0054
 1449Sol     HW 8803   1.190   2.016   9.495  1.2938 -0.9020  2.3251
 1449Sol     MW 8804   1.149   1.936   9.498  0.3050 -0.0425  0.7947
 1450Sol     OW 8805   1.617   1.037   8.352  0.2119  0.0548  0.1426
 1450Sol     HW 8806   1.550   1.091   8.310  0.5143  0.3166 -0.0036
 1450Sol     HW 8807   1.698   1.063   8.310  0.2625 -1.0413 -0.4505
 1450Sol     MW 8808   1.618   1.044   8.345  0.3759  0.0012  0.0445
 1451Sol     OW 8809   0.804   1.543   1.744  0.2696 -0.2004 -0.5594
 1451Sol     HW 8810   0.742   1.609   1.713 -1.4528 -0.9766  1.1631
 1451Sol     HW 8811   0.816   1.484   1.669 -0.9283  0.0562 -0.9601
 1451Sol     MW 8812   0.800   1.544   1.735 -0.1228 -0.0131  0.5503
 1452Sol     OW 8813   1.867   1.625   6.190 -0.1610  0.1926  0.3059
 1452Sol     HW 8814   1.882   1.711   6.152 -1.9677  0.2869 -0.2216
 1452Sol     HW 8815   1.952   1.580   6.181  0.0703  0.9806 -1.8182
 1452Sol     MW 8816   1.876   1.629   6.186 -0.1823  0.0889 -0.2930
 1453Sol     OW 8817   3.316   1.502   8.028  0.1060 -0.0406 -0.7783
 1453Sol     HW 8818   3.348   1.553   7.954  1.5003 -0.0516 -0.1967
 1453Sol     HW 8819   3.227   1.534   8.042  0.9300  2.2327 -0.4521
 1453Sol     MW 8820   3.311   1.510   8.023  0.0468  0.9317  0.3350
 1454Sol     OW 8821   2.089   3.426   6.912  0.6138 -0.0947 -0.3420
 1454Sol     HW 8822   2.135   3.357   6.959 -1.3413 -0.6980  0.7315
 1454Sol     HW 8823   2.010   3.384   6.878  0.4249  1.1217 -1.4443
 1454Sol     MW 8824   2.086   3.416   6.913 -0.1577 -0.1711  0.1858
 1455Sol     OW 8825   1.400   1.468   9.115  0.2362  0.2719  0.2408
 1455Sol     HW 8826   1.460   1.515   9.172 -0.2272  0.5072  0.5333
 1455Sol     HW 8827   1.380   1.387   9.162  1.9710 -0.7956 -0.7839
 1455Sol     MW 8828   1.404   1.465   9.124  0.1228  0.3081  0.1668
 1456Sol     OW 8829   1.538   2.749   4.453  0.3010 -0.1177 -0.3346
 1456Sol     HW 8830   1.473   2.682   4.432 -0.1473  0.1552  0.1800
 1456Sol     HW 8831   1.597   2.707   4.515 -0.1069  0.0239  0.1578
 1456Sol     MW 8832   1.537   2.739   4.457  0.1259 -0.0058 -0.4595
 1457Sol     OW 8833   3.314   0.537   4.578  0.1125 -0.8681  0.1975
 1457Sol     HW 8834   3.303   0.597   4.505  2.9032  0.0707  0.4921
 1457Sol     HW 8835   3.285   0.586   4.655 -1.0999 -1.2087 -0.0442
 1457Sol     MW 8836   3.311   0.547   4.578  0.0858  0.6913 -0.7599
 1458Sol     OW 8837   1.871   1.274   7.583 -0.4309 -0.5517 -0.3764
 1458Sol     HW 8838   1.825   1.192   7.598 -0.1201 -0.8304 -0.9283
 1458Sol     HW 8839   1.861   1.291   7.489 -2.2635  1.1082  0.0865
 1458Sol     MW 8840   1.866   1.268   7.576  0.6928 -0.2969  0.9129
 1459Sol     OW 8841   2.195   2.649   1.686 -0.1354 -0.6662 -0.3587
 1459Sol     HW 8842   2.132   2.623   1.619 -1.5441 -0.5409  0.8771
 1459Sol     HW 8843   2.204   2.572   1.742  0.8769 -0.7044 -0.5630
 1459Sol     MW 8844   2.190   2.640   1.685 -0.1962  0.6441  0.0625
 1460Sol     OW 8845   2.950   1.711   8.854  0.4816 -0.8836 -0.1442
 1460Sol     HW 8846   2.969   1.667   8.771  1.8722 -1.7936  0.6357
 1460Sol     HW 8847   2.856   1.727   8.851  0.5390 -0.7620 -1.9588
 1460Sol     MW 8848   2.943   1.708   8.847 -0.2373  0.0509  0.5406
 1461Sol     OW 8849   3.204   1.220   2.588  0.0844  0.1486 -0.2108
 1461Sol     HW 8850   3.219   1.147   2.649  2.5554 -0.2538 -1.2164
 1461Sol     HW 8851   3.248   1.294   2.628 -1.3692  0.7956  0.2105
 1461Sol     MW 8852   3.209   1.220   2.597 -0.4550 -1.0629 -0.4155
 1462Sol     OW 8853   1.612   1.168   2.492 -0.0008  0.1894  0.3482
 1462Sol     HW 8854   1.623   1.246   2.438  2.6200 -0.3934 -0.0242
 1462Sol     HW 8855   1.529   1.130   2.463  0.0537  1.3524 -1.3690
 1462Sol     MW 8856   1.605   1.172   2.485 -0.1997 -0.7873 -0.4403
 1463Sol     OW 8857   2.571   0.067   8.136  0.0607 -0.8687 -0.4453
 1463Sol     HW 8858   2.623   0.039   8.211  0.8826 -1.0105 -1.0584
 1463Sol     HW 8859   2.480   0.050   8.162  0.0522  2.1889  1.8094
 1463Sol     MW 8860   2.567   0.063   8.145 -0.4831  0.3542  0.1335
 1464Sol     OW 8861   1.515   2.924   2.717 -0.2322  0.2394  0.0459
 1464Sol     HW 8862   1.532   2.837   2.679 -0.6678  0.7183 -1.2718
 1464Sol     HW 8863   1.443   2.959   2.665 -0.2388  1.2877  0.7539
 1464Sol     MW 8864   1.510   2.919   2.709  0.1562  0.0635  0.3000
 1465Sol     OW 8865   1.015   2.461   4.414 -0.3499  0.2625 -0.4833
 1465Sol     HW 8866   0.964   2.505   4.345 -1.0657  2.0453  1.1293
 1465Sol     HW 8867   1.102   2.449   4.375 -1.0290  0.3040 -2.0520
 1465Sol     MW 8868   1.019   2.464   4.404 -0.0592  0.0738  0.0067
 1466Sol     OW 8869   1.424   2.911   7.496  0.2373 -0.0548  0.3218
 1466Sol     HW 8870   1.355   2.901   7.563 -0.1693 -0.8017 -0.2038
 1466Sol     HW 8871   1.454   3.001   7.506  0.6016 -0.3380  1.9219
 1466Sol     MW 8872   1.420   2.918   7.503  0.2817 -0.4303  0.2000
 1467Sol     OW 8873   3.182   0.774   9.401 -0.2741 -0.4751 -0.2449
 1467Sol     HW 8874   3.110   0.802   9.459  0.0063 -0.5805  0.1566
 1467Sol     HW 8875   3.151   0.693   9.362 -0.8280  0.0526 -0.9200
 1467Sol     MW 8876   3.173   0.769   9.403  0.4431  0.3111 -0.0047
 1468Sol     OW 8877   1.693   2.376   6.718  0.1484 -0.3241 -0.8918
 1468Sol     HW 8878   1.674   2.354   6.626  0.3993 -0.3524 -0.9356
 1468Sol     HW 8879   1.711   2.291   6.759 -1.5860 -0.5030 -0.4396
 1468Sol     MW 8880   1.693   2.366   6.713 -0.0236 -0.4393  0.0699
 1469Sol     OW 8881   1.750   1.906   5.787  0.3648 -0.3263  0.1048
 1469Sol     HW 8882   1.721   1.938   5.702  0.8068  1.2128  0.5274
 1469Sol     HW 8883   1.684   1.937   5.849  2.3594  2.4237  0.9427
 1469Sol     MW 8884   1.742   1.912   5.785 -0.5389 -0.0606 -0.1515
 1470Sol     OW 8885   1.542   1.428   3.612  0.0025  0.3598 -0.2465
 1470Sol     HW 8886   1.471   1.364   3.611 -0.4140  0.7904  0.7706
 1470Sol     HW 8887   1.617   1.380   3.650 -0.1694  0.3299  0.0600
 1470Sol     MW 8888   1.543   1.418   3.616  0.3347 -0.0326 -0.1154
 1471Sol     OW 8889   0.450   0.641   9.073 -0.5499  0.6075 -0.3257
 1471Sol     HW 8890   0.537   0.672   9.097 -0.6032  1.4451 -1.1940
 1471Sol     HW 8891   0.390   0.703   9.113 -0.7067  0.7503 -0.7820
 1471Sol     MW 8892   0.453   0.649   9.079 -0.4090 -0.3449 -0.4447
 1472Sol     OW 8893   2.984   2.011   8.845  0.2937  0.3293 -0.2310
 1472Sol     HW 8894   2.925   1.955   8.794  0.0529 -1.2809  1.7444
 1472Sol     HW 8895   3.068   1.966   8.842  0.6184  0.9352 -0.3053
 1472Sol     MW 8896   2.986   2.002   8.840  0.4643 -0.0522  0.8546
 1473Sol     OW 8897   0.709   2.853   4.402 -0.3243 -0.2467  0.0199
 1473Sol     HW 8898   0.723   2.811   4.317  1.1603 -0.0095  0.1376
 1473Sol     HW 8899   0.789   2.833   4.452 -0.3564  1.2491  0.6768
 1473Sol     MW 8900   0.718   2.847   4.399 -0.5876  0.6975 -0.2527
 1474Sol     OW 8901   1.833   1.993   5.497  0.5647 -0.1803 -0.8843
 1474Sol     HW 8902   1.824   2.088   5.510 -0.9777 -0.4025 -0.2538
 1474Sol     HW 8903   1.762   1.971   5.436  0.5947 -1.0138 -0.6175
 1474Sol     MW 8904   1.826   2.000   5.493  0.0868 -0.5490  0.1325
 1475Sol     OW 8905   1.496   1.755   8.114  0.7257 -0.4901  0.3539
 1475Sol     HW 8906   1.514   1.806   8.036  1.2399 -0.8278  0.2508
 1475Sol     HW 8907   1.452   1.816   8.174 -0.1335 -0.3630 -0.3876
 1475Sol     MW 8908   1.493   1.765   8.113 -0.4083 -0.4175 -0.0293
 1476Sol     OW 8909   0.003   2.332   9.441  0.5201  0.3918 -0.0997
 1476Sol     HW 8910  -0.021   2.381   9.519  1.3536  1.1050 -0.2708
 1476Sol     HW 8911  -0.063   2.264   9.433  0.8963 -0.2146  1.7045
 1476Sol     MW 8912  -0.005   2.330   9.447  0.0169  0.1211  0.4744
 1477Sol     OW 8913   0.939   0.436   7.399 -0.2221 -0.1312 -0.4722
 1477Sol     HW 8914   0.934   0.359   7.456 -0.4069 -0.9262 -1.5389
 1477Sol     HW 8915   0.988   0.406   7.323  3.4235  1.9491  0.9033
 1477Sol     MW 8916   0.943   0.426   7.397  1.4357  0.4413 -0.5467
 1478Sol     OW 8917   1.525   2.862   9.443  0.1249  0.2196  0.5637
 1478Sol     HW 8918   1.497   2.851   9.352 -0.4868  1.5054  0.5882
 1478Sol     HW 8919   1.453   2.911   9.484 -0.1930 -1.4454  2.0621
 1478Sol     MW 8920   1.516   2.865   9.439  0.3116  0.3226  0.3076
 1479Sol     OW 8921   2.831   2.671   2.971 -0.1882  0.0120 -0.8555
 1479Sol     HW 8922   2.827   2.613   2.895 -1.1654 -1.7895  0.5357
 1479Sol     HW 8923   2.864   2.616   3.042  2.0124  1.9996 -0.2372
 1479Sol     MW 8924   2.834   2.661   2.970 -0.5329  0.1785 -0.3118
 1480Sol     OW 8925   1.140   0.634   6.559  0.1101 -0.3291  0.4388
 1480Sol     HW 8926   1.233   0.620   6.578  0.0894  1.3586  1.9210
 1480Sol     HW 8927   1.095   0.559   6.598  0.6573 -0.0254  1.6747
 1480Sol     MW 8928   1.144   0.626   6.564 -0.2085  0.6548  0.0539
 1481Sol     OW 8929   2.830   1.895   2.524  0.6784 -0.5613  0.0057
 1481Sol     HW 8930   2.876   1.976   2.501 -1.1665  0.7482  0.7855
 1481Sol     HW 8931   2.764   1.923   2.588 -0.9229 -2.4569 -0.7800
 1481Sol     MW 8932   2.828   1.905   2.528 -0.0955  0.3102 -0.4309
 1482Sol     OW 8933   1.248   1.500   7.521 -0.2649 -0.0471 -0.1584
 1482Sol     HW 8934   1.233   1.453   7.603 -0.8786  0.3405 -0.0439
 1482Sol     HW 8935   1.343   1.510   7.516 -0.1260 -1.2045 -0.1359
 1482Sol     MW 8936   1.255   1.496   7.528  0.0850 -0.8907 -0.5064
 1483Sol     OW 8937   1.988   3.174   3.735 -0.4333 -0.1921  0.3106
 1483Sol     HW 8938   1.932   3.106   3.772 -1.1388 -0.7964 -1.7764
 1483Sol     HW 8939   2.073   3.131   3.725 -0.9059 -0.8423 -1.1088
 1483Sol     MW 8940   1.991   3.164   3.737 -0.3406 -0.2444 -0.2208
 1484Sol     OW 8941   1.033   1.391   4.624  0.1357  0.7549 -0.1850
 1484Sol     HW 8942   1.038   1.457   4.693 -0.2868  1.0777 -0.4661
 1484Sol     HW 8943   0.998   1.313   4.668 -0.5689  1.0969 -0.1293
 1484Sol     MW 8944   1.030   1.390   4.634  0.0764 -0.1218  0.9198
 1485Sol     OW 8945   2.156   0.569   3.026 -0.6406  0.0551 -0.0160
 1485Sol     HW 8946   2.172   0.652   3.071  0.1275  0.8122 -1.6263
 1485Sol     HW 8947   2.085   0.528   3.075 -0.8011  1.5120  1.0002
 1485Sol     MW 8948   2.151   0.573   3.034  0.5600  0.5089  0.2186
 1486Sol     OW 8949   3.069   1.473   2.515 -0.1393  0.4930 -0.1772
 1486Sol     HW 8950   3.118   1.394   2.492 -0.7525  0.2961 -0.8159
 1486Sol     HW 8951   3.002   1.442   2.576 -0.5222  0.4798 -0.6034
 1486Sol     MW 8952   3.068   1.463   2.518 -0.2278  0.4651  0.8800
 1487Sol     OW 8953   0.710   0.213   4.524 -0.1984 -0.4493  0.0816
 1487Sol     HW 8954   0.732   0.146   4.460 -0.1069  0.6427 -1.0593
 1487Sol     HW 8955   0.625   0.187   4.559  0.2839 -1.6732  0.3792
 1487Sol     MW 8956   0.704   0.205   4.522  0.2445  0.0674 -0.5934
 1488Sol     OW 8957   1.082   2.180   7.079  0.1430  0.4319 -0.2380
 1488Sol     HW 8958   1.124   2.200   7.162  0.5871  2.1589 -0.8502
 1488Sol     HW 8959   1.045   2.263   7.050  0.4560 -0.0162 -2.0102
 1488Sol     MW 8960   1.083   2.189   7.083 -0.0150 -0.0463  0.3146
 1489Sol     OW 8961   3.091   2.053   2.128 -0.2853  0.1607 -0.6038
 1489Sol     HW 8962   3.057   2.108   2.057 -0.4222  0.5647 -0.2305
 1489Sol     HW 8963   3.133   1.979   2.083  1.8728  1.6707 -1.2199
 1489Sol     MW 8964   3.092   2.052   2.117 -0.3282  0.0668  0.4742
 1490Sol     OW 8965   0.076   1.217   4.033 -0.4388 -0.2900 -0.0239
 1490Sol     HW 8966   0.055   1.135   4.076  1.8757 -0.0549  1.7016
 1490Sol     HW 8967   0.135   1.193   3.962 -0.5746 -0.2120 -0.1647
 1490Sol     MW 8968   0.080   1.208   4.030  0.3908 -0.3617  0.0250
 1491Sol     OW 8969   2.735   2.820   9.758  0.3099  0.2557  0.3016
 1491Sol     HW 8970   2.666   2.884   9.776  0.2964 -0.0492  1.3715
 1491Sol     HW 8971   2.771   2.847   9.674 -1.7169 -0.1202 -0.7154
 1491Sol     MW 8972   2.732   2.828   9.752  0.5305 -0.9429 -0.3583
 1492Sol     OW 8973   1.654   3.077   6.803  0.0354 -0.4434  0.4174
 1492Sol     HW 8974   1.661   3.073   6.707  0.7426  2.1598  0.3219
 1492Sol     HW 8975   1.650   2.985   6.830  1.4408 -1.2863 -2.0048
 1492Sol     MW 8976   1.654   3.068   6.797  0.1894 -0.4469 -0.1583
 1493Sol     OW 8977   2.996   0.049   7.052  0.4894 -0.3032 -0.0938
 1493Sol     HW 8978   3.047   0.121   7.013 -2.2218  2.0688  0.5658
 1493Sol     HW 8979   3.022  -0.029   7.003  1.6661  1.5753 -2.5270
 1493Sol     MW 8980   3.003   0.049   7.044  0.0075  0.3073  0.6146
 1494Sol     OW 8981   1.673   3.181   3.297 -0.0473  0.3239  0.6810
 1494Sol     HW 8982   1.595   3.135   3.327 -0.2857  0.7775  0.7476
 1494Sol     HW 8983   1.731   3.182   3.373  0.2837 -0.5689  0.4503
 1494Sol     MW 8984   1.671   3.177   3.306 -0.5705 -0.1331  0.3853
 1495Sol     OW 8985   2.262   1.592   8.365 -0.0502 -0.1141  0.1263
 1495Sol     HW 8986   2.332   1.657   8.363 -1.4360  1.4425  1.1994
 1495Sol     HW 8987   2.191   1.631   8.313 -0.6194 -1.0941  0.1438
 1495Sol     MW 8988   2.262   1.602   8.360  0.2691 -0.3047 -0.4910
 1496Sol     OW 8989   0.939   3.445   9.328 -0.0857  0.0698 -0.2210
 1496Sol     HW 8990   0.918   3.358   9.294  0.5547 -0.5124  0.8630
 1496Sol     HW 8991   0.958   3.498   9.250 -0.1988 -0.8332 -0.8597
 1496Sol     MW 8992   0.938   3.442   9.318  0.3477  0.1526  0.0841
 1497Sol     OW 8993   0.365   2.587   7.165 -0.4638 -0.0411 -0.3862
 1497Sol     HW 8994   0.424   2.572   7.092 -1.3269 -0.6175 -0.9736
 1497Sol     HW 8995   0.382   2.677   7.193  1.1465 -0.4164 -0.1226
 1497Sol     MW 8996   0.371   2.594   7.161 -0.2221 -0.1152 -0.1606
 1498Sol     OW 8997   3.053   2.080   2.401 -0.5607  0.2873 -0.4247
 1498Sol     HW 8998   3.078   1.991   2.426  1.4878  1.1910  0.8992
 1498Sol     HW 8999   3.066   2.083   2.306 -0.4720 -0.7682 -0.4586
 1498Sol     MW 9000   3.057   2.072   2.395  0.1046 -0.6869  0.1587
 1499Sol     OW 9001   0.091   2.846   5.305  0.8144  0.3279 -0.6208
 1499Sol     HW 9002   0.023   2.913   5.308  0.7814  0.2851 -0.4084
 1499Sol     HW 9003   0.111   2.836   5.212 -0.2396 -0.4226 -0.7776
 1499Sol     MW 9004   0.087   2.851   5.297 -0.1475  0.2575  0.0679
 1500Sol     OW 9005   1.262   0.605   9.493  0.4131  0.1921  0.5543
 1500Sol     HW 9006   1.175   0.567   9.489  0.7052 -0.4476  0.0726
 1500Sol     HW 9007   1.314   0.552   9.432  0.3181  2.7282 -1.8391
 1500Sol     MW 9008   1.259   0.597   9.487  0.1833  0.2377 -0.3480
 1501Sol     OW 9009   3.082   1.108   6.611 -0.0504 -0.2658  0.1993
 1501Sol     HW 9010   3.082   1.057   6.530  0.6423 -0.3237  0.2323
 1501Sol     HW 9011   3.016   1.065   6.666 -1.6831  0.7406 -0.9250
 1501Sol     MW 9012   3.076   1.100   6.608  0.1913 -0.4488  0.2881
 1502Sol     OW 9013   0.545   1.829   6.807 -0.1186 -0.2691  0.2729
 1502Sol     HW 9014   0.612   1.763   6.828  0.0381 -0.1259  0.2259
 1502Sol     HW 9015   0.521   1.812   6.716 -0.7942 -0.8878  0.5661
 1502Sol     MW 9016   0.549   1.821   6.801 -0.1161  0.2341 -0.6026
 1503Sol     OW 9017   0.814   2.562   4.242 -0.0174  0.0941  0.1407
 1503Sol     HW 9018   0.794   2.634   4.182 -1.6743 -0.1574  0.3950
 1503Sol     HW 9019   0.756   2.575   4.316 -1.7365 -2.6263 -0.6675
 1503Sol     MW 9020   0.807   2.570   4.243  0.1977  0.7321  0.4702
 1504Sol     OW 9021   3.085   0.342   8.478 -0.3081 -0.0740 -0.0005
 1504Sol     HW 9022   3.001   0.387   8.486  0.1231  1.0233 -1.4417
 1504Sol     HW 9023   3.120   0.340   8.567 -2.2960 -1.4206  0.7871
 1504Sol     MW 9024   3.080   0.346   8.486 -0.0415  0.3858  0.1881
 1505Sol     OW 9025   3.255   1.864   4.622 -0.2196  0.1492 -0.9103
 1505Sol     HW 9026   3.250   1.807   4.545  0.1979 -0.0980 -0.7581
 1505Sol     HW 9027   3.334   1.916   4.607  0.6882 -0.9152  0.0425
 1505Sol     MW 9028   3.262   1.864   4.614 -0.9699 -0.0669 -0.2739
 1506Sol     OW 9029   1.189   3.371   2.866 -0.1194  0.1026 -0.0594
 1506Sol     HW 9030   1.284   3.382   2.864 -0.1106 -0.0330 -3.0603
 1506Sol     HW 9031   1.170   3.334   2.952  2.4461  0.9192  0.8776
 1506Sol     MW 9032   1.195   3.368   2.874 -0.6990  0.4647 -0.0345
 1507Sol     OW 9033   2.245   1.645   6.775  0.0535  0.7603 -0.0322
 1507Sol     HW 9034   2.199   1.671   6.696 -1.1144  0.2975  0.4827
 1507Sol     HW 9035   2.298   1.722   6.798 -0.5563  1.3445 -0.5595
 1507Sol     MW 9036   2.246   1.654   6.770  0.2172 -0.1813  0.0758
 1508Sol     OW 9037   0.580   3.053   9.980 -0.3209 -0.1849 -0.9723
 1508Sol     HW 9038   0.598   2.961   9.961  0.1031 -0.1598 -0.7036
 1508Sol     HW 9039   0.667   3.095   9.982 -0.5021  0.1990 -0.9897
 1508Sol     MW 9040   0.590   3.049   9.978  0.4646 -0.4534 -0.2800
 1509Sol     OW 9041   2.864   2.633   4.548  0.5468 -0.1568  0.4255
 1509Sol     HW 9042   2.898   2.550   4.515  0.1835 -0.9129  1.9233
 1509Sol     HW 9043   2.780   2.611   4.586 -0.5894  1.3054 -1.1764
 1509Sol     MW 9044   2.860   2.624   4.548  0.4137  0.0092 -0.2670
 1510Sol     OW 9045   0.047   2.426   8.290 -0.2113 -0.4538  0.0959
 1510Sol     HW 9046   0.104   2.392   8.358  0.7718 -0.7639 -0.8803
 1510Sol     HW 9047   0.086   2.510   8.265 -1.5086  0.4772  1.0791
 1510Sol     MW 9048   0.055   2.431   8.294 -0.1670  0.0844  0.8951
 1511Sol     OW 9049   2.671   0.656   4.469 -0.0934  0.0827 -0.0751
 1511Sol     HW 9050   2.577   0.658   4.453  0.0366 -2.6355 -1.6574
 1511Sol     HW 9051   2.685   0.574   4.517  1.6269 -0.3466 -1.2529
 1511Sol     MW 9052   2.664   0.649   4.472  0.0297 -0.0395  0.5589
 1512Sol     OW 9053   2.743   2.360   5.368  0.2474  0.3489 -0.1925
 1512Sol     HW 9054   2.687   2.295   5.409 -0.4028 -0.6162 -2.5283
 1512Sol     HW 9055   2.803   2.309   5.313  0.6423  1.6203 -0.9742
 1512Sol     MW 9056   2.744   2.350   5.367  0.6796  0.0443  0.4768
 1513Sol     OW 9057   2.302   0.103   6.003  0.4016  0.2912 -0.4946
 1513Sol     HW 9058   2.227   0.155   5.974 -0.3250 -1.1337 -1.1975
 1513Sol     HW 9059   2.374   0.130   5.946  0.4102  1.5874  0.1141
 1513Sol     MW 9060   2.302   0.110   5.995 -0.7234  0.9006  0.4744
 1514Sol     OW 9061   2.214   0.760   5.361 -0.2400 -0.4872  0.4532
 1514Sol     HW 9062   2.133   0.759   5.310  1.5325 -1.5199 -2.4017
 1514Sol     HW 9063   2.209   0.682   5.415 -0.4962 -1.3271 -0.7768
 1514Sol     MW 9064   2.206   0.753   5.362 -0.2470 -0.2633 -0.1488
 1515Sol     OW 9065   2.256   3.089   3.669  0.0214 -0.2006 -0.0485
 1515Sol     HW 9066   2.269   3.029   3.743 -1.8172  0.7999  1.1145
 1515Sol     HW 9067   2.297   3.171   3.697 -1.9633  0.6415  0.5358
 1515Sol     MW 9068   2.261   3.091   3.678 -0.3934  0.3544 -0.5595
 1516Sol     OW 9069   0.206   1.653   2.334 -0.2581 -0.0374  0.6059
 1516Sol     HW 9070   0.187   1.592   2.263 -1.3591  1.1193 -0.1231
 1516Sol     HW 9071   0.295   1.684   2.316 -0.5925  0.3790 -0.3800
 1516Sol     MW 9072   0.212   1.650   2.326 -0.1420  0.5361  0.0898
 1517Sol     OW 9073   2.755   2.142   3.414  0.4245 -0.3284 -0.4936
 1517Sol     HW 9074   2.742   2.236   3.404  0.9792 -0.1324  0.5612
 1517Sol     HW 9075   2.842   2.126   3.377  1.5122  0.0387  1.7585
 1517Sol     MW 9076   2.762   2.149   3.410 -0.2822 -0.9187 -0.0102
 1518Sol     OW 9077   0.160   2.652   2.886 -0.6040  0.2244  0.3924
 1518Sol     HW 9078   0.134   2.636   2.977 -1.2319 -1.8655 -0.1256
 1518Sol     HW 9079   0.087   2.702   2.849 -1.5544 -1.1925  0.3353
 1518Sol     MW 9080   0.151   2.655   2.891  0.0825 -0.2072  0.0527
 1519Sol     OW 9081   2.839   0.784   7.073 -0.0676  0.2786  0.3107
 1519Sol     HW 9082   2.899   0.858   7.067  1.7894 -1.2596 -0.7788
 1519Sol     HW 9083   2.883   0.714   7.024 -1.3551 -1.8167  2.0750
 1519Sol     MW 9084   2.848   0.784   7.068 -0.3324 -0.3141  0.8355
 1520Sol     OW 9085   0.790   0.644   3.383 -0.1252 -0.4172  0.1215
 1520Sol     HW 9086   0.880   0.662   3.355 -0.0572 -0.7995  0.0843
 1520Sol     HW 9087   0.739   0.650   3.303 -0.1212 -0.2506  0.1330
 1520Sol     MW 9088   0.794   0.646   3.373 -0.1673  0.1897  0.0010
 1521Sol     OW 9089   2.076   0.883   8.702 -0.5548 -0.0277  0.5369
 1521Sol     HW 9090   2.045   0.804   8.657  1.7570 -0.1728 -0.8866
 1521Sol     HW 9091   2.019   0.953   8.670 -0.0424 -0.4359 -1.3307
 1521Sol     MW 9092   2.068   0.882   8.695 -0.5083  0.3224 -0.4343
 1522Sol     OW 9093   0.331   2.300   7.540  0.0551 -0.2122 -0.1235
 1522Sol     HW 9094   0.400   2.250   7.583 -0.5632 -1.4346 -0.5362
 1522Sol     HW 9095   0.250   2.259   7.568 -0.4008 -0.4708 -1.7525
 1522Sol     MW 9096   0.330   2.292   7.546 -0.3277  0.1938  0.4824
 1523Sol     OW 9097   2.256   2.115   1.425 -0.2052 -0.1898  0.0141
 1523Sol     HW 9098   2.251   2.032   1.472 -0.4424  0.6157  1.4150
 1523Sol     HW 9099   2.349   2.136   1.421 -0.1264 -0.6314 -0.5485
 1523Sol     MW 9100   2.264   2.110   1.429 -1.0322 -0.4786 -0.1963
 1524Sol     OW 9101   0.752   0.497   7.756  0.1729 -0.1365  0.4630
 1524Sol     HW 9102   0.816   0.496   7.827 -1.4130 -2.1154  1.9462
 1524Sol     HW 9103   0.767   0.415   7.710  0.4403  0.6183 -0.8076
 1524Sol     MW 9104   0.759   0.489   7.758 -0.1760  0.8144  0.2132
 1525Sol     OW 9105   1.173   0.349   3.754  0.2227 -0.5787  0.5143
 1525Sol     HW 9106   1.192   0.443   3.751 -0.9700 -0.3725 -0.7367
 1525Sol     HW 9107   1.078   0.344   3.754  0.2682 -1.7514  2.1768
 1525Sol     MW 9108   1.166   0.357   3.754 -0.3416 -0.5766  0.4473
 1526Sol     OW 9109   2.359   0.082   5.651  0.1527 -1.0530  0.2748
 1526Sol     HW 9110   2.312   0.018   5.705 -2.8269  0.6204 -0.2217
 1526Sol     HW 9111   2.338   0.056   5.561 -0.7320  0.3441  0.0669
 1526Sol     MW 9112   2.353   0.074   5.647 -0.1743 -0.1386  0.1474
 1527Sol     OW 9113   2.793   0.675   7.834  0.0058  0.3956 -0.1030
 1527Sol     HW 9114   2.819   0.632   7.915 -0.5622 -0.0651 -0.1594
 1527Sol     HW 9115   2.699   0.655   7.825  0.0506  0.4966 -0.8306
 1527Sol     MW 9116   2.787   0.669   7.840  0.2607  0.2056  0.2971
 1528Sol     OW 9117   3.257   3.179   7.429 -0.4996 -0.5246  0.7660
 1528Sol     HW 9118   3.258   3.215   7.518  1.9345 -0.4194  0.7099
 1528Sol     HW 9119   3.229   3.088   7.442  0.2970 -0.6488  1.6869
 1528Sol     MW 9120   3.254   3.174   7.438  0.5305  0.1674 -0.1817
 1529Sol     OW 9121   2.718   2.300   9.130 -0.4854  0.2852 -0.1893
 1529Sol     HW 9122   2.673   2.233   9.078  0.9680  1.1808 -2.6914
 1529Sol     HW 9123   2.648   2.344   9.178 -1.5759 -2.3743  0.7807
 1529Sol     MW 9124   2.708   2.298   9.130  0.6670 -0.7848 -0.3134
 1530Sol     OW 9125   0.343   2.716   2.273  0.6349 -0.0007 -0.3461
 1530Sol     HW 9126   0.314   2.728   2.183 -0.2401  0.5015  0.0018
 1530Sol     HW 9127   0.334   2.802   2.313 -0.0447 -0.4784  0.5382
 1530Sol     MW 9128   0.340   2.725   2.269 -0.6668  0.1654  0.3877
 1531Sol     OW 9129   2.183   3.287   1.658  0.1065 -0.6320  0.2288
 1531Sol     HW 9130   2.219   3.208   1.618  1.1684 -1.1209  2.0837
 1531Sol     HW 9131   2.260   3.337   1.685 -0.5580 -1.0321  3.0071
 1531Sol     MW 9132   2.193   3.284   1.657  0.0025  0.2874  0.8374
 1532Sol     OW 9133   2.639   2.302   3.052 -0.4004  0.0758  0.4950
 1532Sol     HW 9134   2.570   2.368   3.046  0.4673  0.8468 -1.7163
 1532Sol     HW 9135   2.611   2.233   2.991  0.1614 -0.1811  0.5236
 1532Sol     MW 9136   2.631   2.301   3.046 -0.2366 -0.0899 -0.3360
 1533Sol     OW 9137   2.086   1.336   8.029  0.0133 -0.4110 -0.3564
 1533Sol     HW 9138   1.995   1.324   8.054  0.0126 -1.0490 -0.6527
 1533Sol     HW 9139   2.083   1.353   7.934  0.2885 -1.6830 -0.6018
 1533Sol     MW 9140   2.078   1.337   8.022 -0.1844 -0.4740 -0.3600
 1534Sol     OW 9141   1.631   2.177   5.137 -0.1734  0.3297  0.9537
 1534Sol     HW 9142   1.689   2.252   5.146  0.6069 -0.0862 -0.4649
 1534Sol     HW 9143   1.609   2.174   5.044 -1.5942 -0.1733  1.2883
 1534Sol     MW 9144   1.634   2.183   5.129  0.2164 -0.1888 -0.6029
 1535Sol     OW 9145   0.778   0.363   4.196  0.2145 -0.2167 -0.8952
 1535Sol     HW 9146   0.734   0.278   4.189 -0.4215 -0.1423  1.5995
 1535Sol     HW 9147   0.871   0.341   4.202  0.0515 -0.7509 -0.2340
 1535Sol     MW 9148   0.783   0.354   4.196 -0.3583 -0.2735  0.0849
 1536Sol     OW 9149   3.163   2.205   7.140  0.2721  0.3952  0.0149
 1536Sol     HW 9150   3.240   2.149   7.143 -0.5212 -0.6752  0.4623
 1536Sol     HW 9151   3.099   2.157   7.088 -1.1054 -0.0158  2.0337
 1536Sol     MW 9152   3.164   2.196   7.136 -0.0751  0.3919 -0.7141
 1537Sol     OW 9153   2.785   2.411   2.852 -0.3828  0.1051  0.4733
 1537Sol     HW 9154   2.753   2.379   2.936 -0.0227  0.9397  0.9334
 1537Sol     HW 9155   2.832   2.336   2.814  1.1184  0.3157  1.8907
 1537Sol     MW 9156   2.787   2.401   2.856  0.3898  0.2815  0.1368
 1538Sol     OW 9157   0.599   3.216   8.638  0.6248  0.0096  0.3293
 1538Sol     HW 9158   0.568   3.302   8.668 -3.5751 -1.7392  1.3666
 1538Sol     HW 9159   0.561   3.154   8.699  2.6638 -2.7159 -1.0824
 1538Sol     MW 9160   0.592   3.219   8.646  0.4119  0.8204 -0.0621
 1539Sol     OW 9161   1.854   0.155   1.747  0.2882 -0.5345 -0.2263
 1539Sol     HW 9162   1.882   0.076   1.699 -1.2039 -0.7266 -0.8037
 1539Sol     HW 9163   1.853   0.128   1.839  0.6999 -0.9026 -0.3254
 1539Sol     MW 9164   1.857   0.145   1.751  0.4040 -0.2004 -0.0851
 1540Sol     OW 9165   0.317   2.924   6.319 -0.5476 -0.5375 -0.3172
 1540Sol     HW 9166   0.385   2.865   6.287 -0.8237 -0.6765 -0.6567
 1540Sol     HW 9167   0.242   2.907   6.261 -0.5674  0.2859 -0.5269
 1540Sol     MW 9168   0.316   2.917   6.311  0.7549  0.2191 -0.0741
 1541Sol     OW 9169   0.229   1.123   3.139  0.2847  0.4897  0.3187
 1541Sol     HW 9170   0.205   1.156   3.052  0.7017  1.4479  0.5580
 1541Sol     HW 9171   0.319   1.093   3.130 -0.6394 -2.2448 -0.3405
 1541Sol     MW 9172   0.235   1.123   3.130 -0.8560 -0.1221 -0.2671
 1542Sol     OW 9173   2.580   3.446   1.918  0.0150  0.2197  0.5706
 1542Sol     HW 9174   2.608   3.357   1.936  0.3765 -0.4141 -2.8825
 1542Sol     HW 9175   2.505   3.460   1.976  0.1210 -2.2197  1.3244
 1542Sol     MW 9176   2.576   3.439   1.925  0.1252 -0.1146  0.3118
 1543Sol     OW 9177   2.891   3.208   5.920 -0.1018 -0.1351  0.2251
 1543Sol     HW 9178   2.813   3.222   5.867 -0.6735 -0.0499  1.0633
 1543Sol     HW 9179   2.886   3.277   5.987  0.4303 -0.4304  0.5671
 1543Sol     MW 9180   2.883   3.216   5.922  0.2107 -0.2028  0.7763
 1544Sol     OW 9181   1.429   0.506   8.233 -0.2547  0.3044 -0.2346
 1544Sol     HW 9182   1.366   0.499   8.304 -0.1389 -0.2232 -0.1797
 1544Sol     HW 9183   1.475   0.588   8.249  1.0862 -0.7227  1.3962
 1544Sol     MW 9184   1.428   0.512   8.241 -0.7753 -0.3130 -0.2267
 1545Sol     OW 9185   0.288   3.223   8.530  0.5667  0.3212  0.2653
 1545Sol     HW 9186   0.264   3.255   8.443  1.9411  1.2194  0.1869
 1545Sol     HW 9187   0.215   3.167   8.556  0.5543 -0.7108 -1.8459
 1545Sol     MW 9188   0.280   3.221   8.524  0.2848  0.1178 -0.4540
 1546Sol     OW 9189   1.277   3.369   8.232 -0.2018 -0.3181 -0.6492
 1546Sol     HW 9190   1.192   3.410   8.217 -0.8178 -0.5952  1.8841
 1546Sol     HW 9191   1.318   3.422   8.300  1.1462 -0.8945 -0.9917
 1546Sol     MW 9192   1.273   3.377   8.236  1.0368  0.1665  0.2116
 1547Sol     OW 9193   1.275   2.912   2.294 -0.4279 -0.3729 -0.6103
 1547Sol     HW 9194   1.213   2.933   2.224 -0.7129  1.4624  0.1574
 1547Sol     HW 9195   1.272   2.817   2.301 -1.2543 -0.4963 -2.3081
 1547Sol     MW 9196   1.269   2.905   2.288  0.3752  0.5985 -0.3578
 1548Sol     OW 9197   1.359   3.388   7.463 -0.4633  0.4572  0.1061
 1548Sol     HW 9198   1.413   3.459   7.426  2.0519 -0.7269  1.3628
 1548Sol     HW 9199   1.314   3.429   7.537  0.0285  1.0709  0.0754
 1548Sol     MW 9200   1.360   3.398   7.466  0.6765  0.0914  0.1023
 1549Sol     OW 9201   2.712   3.337   4.249  0.4585 -0.1542 -0.3107
 1549Sol     HW 9202   2.697   3.246   4.275 -0.9237 -0.0585 -0.7464
 1549Sol     HW 9203   2.748   3.331   4.160 -0.4115 -0.2401 -0.6565
 1549Sol     MW 9204   2.714   3.328   4.244  0.7187  0.1890 -0.3539
 1550Sol     OW 9205   2.168   3.207   7.080 -0.6265 -0.2214  0.4607
 1550Sol     HW 9206   2.245   3.211   7.137  0.1475 -1.6525 -0.4764
 1550Sol     HW 9207   2.202   3.181   6.994 -2.3078 -2.0525  0.3161
 1550Sol     MW 9208   2.178   3.205   7.077  0.1125 -0.4611 -0.5342
 1551Sol     OW 9209   2.432   1.951   7.825 -0.4390  0.3527  0.3877
 1551Sol     HW 9210   2.382   1.886   7.875 -0.7341  0.1663 -0.1454
 1551Sol     HW 9211   2.402   1.940   7.735 -1.0511  1.7469  0.3978
 1551Sol     MW 9212   2.424   1.944   7.822  0.3797 -0.3360  0.1567
 1552Sol     OW 9213   0.126   1.319   9.475 -0.3068 -0.0588 -0.3271
 1552Sol     HW 9214   0.067   1.394   9.485 -1.8336 -1.4314  1.2274
 1552Sol     HW 9215   0.077   1.245   9.510  2.2771 -1.2809  0.7975
 1552Sol     MW 9216   0.116   1.319   9.479  0.4750  0.2495 -0.1019
 1553Sol     OW 9217   0.363   0.610   2.799 -0.0318  0.6212  0.7528
 1553Sol     HW 9218   0.399   0.694   2.771  1.0202  0.6530  2.1983
 1553Sol     HW 9219   0.296   0.632   2.864 -1.8944  0.4935 -1.0533
 1553Sol     MW 9220   0.360   0.619   2.802 -0.0583 -0.5972  0.4725
 1554Sol     OW 9221   2.022   1.127   2.419 -0.0553  0.7676 -0.5101
 1554Sol     HW 9222   2.082   1.054   2.405 -0.2986  0.4204  0.2464
 1554Sol     HW 9223   1.942   1.102   2.373 -0.9601 -0.5085  1.6648
 1554Sol     MW 9224   2.020   1.118   2.414  0.5030 -0.3203  0.4904
 1555Sol     OW 9225   2.943   3.240   1.831  0.2983 -0.3220  0.0245
 1555Sol     HW 9226   2.943   3.334   1.815 -0.7313 -0.1406  1.0139
 1555Sol     HW 9227   2.890   3.204   1.760  1.7109 -0.3025 -1.0642
 1555Sol     MW 9228   2.939   3.245   1.823  0.0675  0.2142 -0.0717
 1556Sol     OW 9229   0.533   2.379   5.494 -0.0434 -0.0788 -0.1635
 1556Sol     HW 9230   0.563   2.457   5.541 -0.4433  0.0163 -0.0652
 1556Sol     HW 9231   0.439   2.376   5.510  0.1229 -1.1613  0.6836
 1556Sol     MW 9232   0.527   2.386   5.500 -0.0873 -0.1586  0.1059
 1557Sol     OW 9233   3.175   1.797   4.867  0.6299 -0.0697  0.4107
 1557Sol     HW 9234   3.204   1.791   4.776  0.4121  0.2858  0.3183
 1557Sol     HW 9235   3.187   1.889   4.890 -1.7067  0.3867 -0.0534
 1557Sol     MW 9236   3.179   1.804   4.861  0.2588 -0.0892  0.1492
 1558Sol     OW 9237   0.802   1.145   2.765  0.1518  0.4850  0.1750
 1558Sol     HW 9238   0.887   1.185   2.780  0.5808 -0.3364 -0.0657
 1558Sol     HW 9239   0.753   1.162   2.845  0.0759  2.1245 -0.2068
 1558Sol     MW 9240   0.805   1.150   2.773  0.1767 -0.2355  0.6331
 1559Sol     OW 9241   2.114   2.363   1.865  0.0962  0.1232 -0.1291
 1559Sol     HW 9242   2.127   2.273   1.834  0.9562 -0.5348  2.0856
 1559Sol     HW 9243   2.195   2.385   1.911 -1.0208  1.1537  1.3943
 1559Sol     MW 9244   2.122   2.357   1.866  0.0746  0.3497  0.0160
 1560Sol     OW 9245   0.716   3.186   4.706  0.4986  0.2982 -0.3282
 1560Sol     HW 9246   0.671   3.225   4.630 -1.0106 -0.0349  0.3753
 1560Sol     HW 9247   0.785   3.133   4.668 -1.2434 -1.1581 -1.5766
 1560Sol     MW 9248   0.718   3.185   4.696  0.2863  0.0772 -0.4736
 1561Sol     OW 9249   1.612   2.118   2.425 -0.4185  0.8615 -0.1635
 1561Sol     HW 9250   1.564   2.051   2.474 -1.6886  0.6950 -1.5821
 1561Sol     HW 9251   1.545   2.182   2.400  0.5682  2.0119  0.1010
 1561Sol     MW 9252   1.602   2.118   2.427 -0.1735  0.4479 -0.6832
 1562Sol     OW 9253   1.435   2.899   5.507 -0.1401 -0.0578  0.2549
 1562Sol     HW 9254   1.393   2.814   5.501  0.0353 -0.1100 -0.2931
 1562Sol     HW 9255   1.528   2.880   5.518 -0.1343  0.0586  0.4077
 1562Sol     MW 9256   1.439   2.890   5.507  0.4977 -0.2321 -0.1827
 1563Sol     OW 9257   1.902   2.098   8.288 -0.1865 -0.8200  0.2377
 1563Sol     HW 9258   1.861   2.036   8.348 -0.1054 -0.7429  0.3713
 1563Sol     HW 9259   1.852   2.179   8.299 -0.9667 -1.1670 -0.7125
 1563Sol     MW 9260   1.894   2.100   8.294  0.1955  0.0582  0.3619
 1564Sol     OW 9261   2.269   1.411   1.721 -0.5908 -0.0942  0.2843
 1564Sol     HW 9262   2.188   1.400   1.672 -0.1194 -1.1740 -0.2604
 1564Sol     HW 9263   2.287   1.325   1.758  1.6010 -0.5242 -1.6428
 1564Sol     MW 9264   2.263   1.402   1.720  0.2601 -0.6821 -0.1179
 1565Sol     OW 9265   0.057   3.016   8.476 -0.2752 -0.1652 -0.5432
 1565Sol     HW 9266   0.050   3.017   8.572  0.1166  0.4878 -0.5193
 1565Sol     HW 9267  -0.009   3.079   8.447  0.9808  1.1429 -0.6063
 1565Sol     MW 9268   0.051   3.022   8.482  0.4185  0.4072 -0.0084
 1566Sol     OW 9269   3.288   1.686   7.532  0.1762 -0.5094 -0.3446
 1566Sol     HW 9270   3.333   1.769   7.521 -0.8395  0.2393  1.0912
 1566Sol     HW 9271   3.343   1.636   7.593 -0.7177  0.2793  1.1473
 1566Sol     MW 9272   3.297   1.689   7.537 -0.9390  0.2727 -0.3844
 1567Sol     OW 9273   0.961   3.034   3.022  0.0759 -0.1322  0.4829
 1567Sol     HW 9274   0.979   2.965   3.085 -0.3258 -0.0807  0.6572
 1567Sol     HW 9275   0.902   2.995   2.958  0.4353 -0.1667  0.1711
 1567Sol     MW 9276   0.957   3.025   3.022 -0.1253 -0.1346  0.7625
 1568Sol     OW 9277   3.127   1.119   3.052 -0.6478 -0.0125  0.6645
 1568Sol     HW 9278   3.129   1.141   3.145  1.7363  1.6149  0.2809
 1568Sol     HW 9279   3.064   1.181   3.015 -0.5414  0.2956  0.9879
 1568Sol     MW 9280   3.122   1.127   3.057 -0.1069 -0.1086  0.4842
 1569Sol     OW 9281   1.310   2.895   4.826  0.3747 -0.5635 -0.0801
 1569Sol     HW 9282   1.311   2.802   4.804  0.8668 -0.8810  1.2320
 1569Sol     HW 9283   1.225   2.909   4.868 -0.6395  0.0789 -2.2897
 1569Sol     MW 9284   1.303   2.888   4.828  0.1868  0.2716  0.0408
 1570Sol     OW 9285   0.304   2.023   8.515  0.1280 -0.3658  0.9958
 1570Sol     HW 9286   0.391   1.991   8.491 -0.2917 -0.4147 -0.5264
 1570Sol     HW 9287   0.284   1.980   8.598  0.6030 -2.1643  0.2034
 1570Sol     MW 9288   0.310   2.016   8.520  0.4628 -0.6127 -0.1079
 1571Sol     OW 9289   0.541   1.980   1.976  0.0516  0.4008 -0.0920
 1571Sol     HW 9290   0.504   1.975   1.888 -0.1970 -0.0703  0.0374
 1571Sol     HW 9291   0.581   2.067   1.980 -0.6237  0.7324 -0.3967
 1571Sol     MW 9292   0.541   1.988   1.968  0.1389  0.5238 -0.0431
 1572Sol     OW 9293   2.177   1.131   7.213 -0.1592  0.1430 -0.4761
 1572Sol     HW 9294   2.162   1.114   7.306 -0.5475 -0.0334 -0.5752
 1572Sol     HW 9295   2.201   1.224   7.210  0.8653 -0.0953 -0.0800
 1572Sol     MW 9296   2.178   1.138   7.221  0.4463 -0.3284 -0.3992
 1573Sol     OW 9297   1.904   2.457   5.930  0.1297  0.4679 -0.3373
 1573Sol     HW 9298   1.978   2.397   5.940 -0.0547  0.2984  0.0186
 1573Sol     HW 9299   1.945   2.542   5.915  0.3975  0.3844 -0.0901
 1573Sol     MW 9300   1.915   2.459   5.929  0.6130  0.7957  0.2950
 1574Sol     OW 9301   0.578   0.794   9.606 -0.4835 -0.1711 -0.5873
 1574Sol     HW 9302   0.504   0.825   9.554 -0.3345  0.5770 -0.3611
 1574Sol     HW 9303   0.632   0.872   9.620 -1.2135 -0.0700  1.8342
 1574Sol     MW 9304   0.576   0.804   9.603  0.6058 -0.4679  0.2061
 1575Sol     OW 9305   1.318   2.448   5.571 -0.0456  0.2039  0.3199
 1575Sol     HW 9306   1.375   2.403   5.633 -0.5517  2.3336  2.3897
 1575Sol     HW 9307   1.377   2.481   5.503  0.6866 -0.9556  0.3836
 1575Sol     MW 9308   1.329   2.447   5.570 -0.1869  0.1403 -0.4327
 1576Sol     OW 9309   2.131   1.098   9.092  0.1664  0.6598 -0.9122
 1576Sol     HW 9310   2.126   1.009   9.055  0.6589  0.7546 -1.2064
 1576Sol     HW 9311   2.046   1.137   9.071 -0.8543 -0.4478  1.0404
 1576Sol     MW 9312   2.123   1.093   9.086 -0.0618 -0.3292  0.5754
 1577Sol     OW 9313   1.430   0.083   6.540 -0.4585 -0.3807  0.1253
 1577Sol     HW 9314   1.397   0.013   6.484  0.4562  0.2239 -1.1978
 1577Sol     HW 9315   1.493   0.040   6.597 -0.1107 -0.6873 -0.4858
 1577Sol     MW 9316   1.432   0.073   6.540  0.2223 -0.0647  0.0868
 1578Sol     OW 9317   1.988   1.353   9.036 -0.1410 -0.4918  0.0099
 1578Sol     HW 9318   1.894   1.368   9.023  0.1135 -0.0648 -1.4791
 1578Sol     HW 9319   2.017   1.427   9.089 -0.7062 -0.7975  0.7484
 1578Sol     MW 9320   1.982   1.361   9.039 -0.0176 -0.8626 -0.0239
 1579Sol     OW 9321   2.036   1.581   5.369  0.0121  0.4035  0.1936
 1579Sol     HW 9322   2.044   1.493   5.332  2.4388  0.8084 -0.3224
 1579Sol     HW 9323   2.051   1.569   5.463  1.4285  0.4035 -0.0278
 1579Sol     MW 9324   2.038   1.572   5.374 -0.0621 -0.1921 -0.0726
 1580Sol     OW 9325   1.407   3.381   2.111 -0.2154 -0.5705 -0.1463
 1580Sol     HW 9326   1.462   3.444   2.063  1.3522 -1.4294  0.4742
 1580Sol     HW 9327   1.325   3.427   2.126  0.1273  0.5556 -1.5981
 1580Sol     MW 9328   1.405   3.391   2.108  0.7874  0.0366 -0.1536
 1581Sol     OW 9329   1.235   0.955   6.802  0.8147  0.0770  0.5428
 1581Sol     HW 9330   1.154   0.910   6.778  1.9433 -2.7439  1.8206
 1581Sol     HW 9331   1.263   0.998   6.721 -2.3935  1.9222  0.3111
 1581Sol     MW 9332   1.230   0.955   6.792  0.4994  0.4814 -0.1057
 1582Sol     OW 9333   1.419   0.424   7.278 -0.3158 -0.3788 -0.3853
 1582Sol     HW 9334   1.349   0.451   7.337 -0.0933  0.0463 -0.3116
 1582Sol     HW 9335   1.386   0.445   7.190  1.1840  3.3560 -0.1726
 1582Sol     MW 9336   1.410   0.428   7.275  0.7072 -0.1067  0.7212
 1583Sol     OW 9337   0.260   0.304   2.787  0.8214  0.0732  0.3282
 1583Sol     HW 9338   0.323   0.283   2.855 -1.8472 -1.1440  2.5194
 1583Sol     HW 9339   0.263   0.399   2.780 -0.0612  0.3749  3.4039
 1583Sol     MW 9340   0.266   0.311   2.792 -0.2140  0.4848  0.2734
 1584Sol     OW 9341   0.714   1.505   3.420  0.3375  0.8025 -0.5675
 1584Sol     HW 9342   0.626   1.510   3.382  0.8915 -0.1988 -2.0560
 1584Sol     HW 9343   0.717   1.419   3.463 -0.6778  2.3985  2.8614
 1584Sol     MW 9344   0.707   1.498   3.420  0.2663  0.5773 -0.2268
 1585Sol     OW 9345   0.217   2.267   5.233 -0.3599 -0.2070 -0.5394
 1585Sol     HW 9346   0.222   2.288   5.326 -1.0031  5.1841 -1.5874
 1585Sol     HW 9347   0.133   2.222   5.223 -0.8417  0.2463  1.3092
 1585Sol     MW 9348   0.210   2.265   5.240  0.2484 -0.3894  0.2431
 1586Sol     OW 9349   2.288   3.441   3.206  0.1550 -0.2825 -0.1006
 1586Sol     HW 9350   2.362   3.402   3.159  0.8940 -0.7813  1.4245
 1586Sol     HW 9351   2.312   3.533   3.216  1.9036 -0.9561  2.7426
 1586Sol     MW 9352   2.297   3.446   3.203 -0.5272 -0.4912 -0.2072
 1587Sol     OW 9353   0.861   2.236   4.446  0.5702 -0.4760  0.0586
 1587Sol     HW 9354   0.886   2.327   4.431  1.3973 -0.7228 -0.1100
 1587Sol     HW 9355   0.787   2.222   4.387 -0.0715  0.3139  0.6713
 1587Sol     MW 9356   0.857   2.243   4.439  0.5011 -0.1178 -1.1537
 1588Sol     OW 9357   2.619   3.009   3.605 -0.6640 -0.2670  0.5243
 1588Sol     HW 9358   2.570   3.067   3.546  1.5525 -0.6409 -1.7739
 1588Sol     HW 9359   2.585   3.029   3.692 -3.7487  0.5971 -0.8254
 1588Sol     MW 9360   2.612   3.016   3.608  0.2234  0.4022  0.1557
 1589Sol     OW 9361   2.747   2.786   5.786 -0.6762 -0.0655  0.3754
 1589Sol     HW 9362   2.796   2.803   5.705 -0.2948 -1.2282  0.3479
 1589Sol     HW 9363   2.718   2.872   5.815  0.3373  0.5123 -0.2775
 1589Sol     MW 9364   2.749   2.795   5.781 -0.2021 -0.5588  0.1568
 1590Sol     OW 9365   2.262   0.612   7.808  0.3465  0.2253 -0.1484
 1590Sol     HW 9366   2.257   0.676   7.737  0.3051  0.6039  0.1924
 1590Sol     HW 9367   2.350   0.575   7.801 -0.2126 -0.8834 -1.3807
 1590Sol     MW 9368   2.269   0.614   7.801 -0.2606  0.1930 -0.2091
 1591Sol     OW 9369   1.614   1.732   1.599  0.1559  0.1338  0.5856
 1591Sol     HW 9370   1.542   1.670   1.586  0.7906 -0.1695 -1.5307
 1591Sol     HW 9371   1.577   1.800   1.656 -1.3886 -0.7284  0.6261
 1591Sol     MW 9372   1.604   1.733   1.603  0.2776 -0.2518  0.4104
 1592Sol     OW 9373   0.932   1.375   4.377  0.2264  0.2109 -0.1806
 1592Sol     HW 9374   0.944   1.390   4.471 -1.7104  3.2670 -0.3475
 1592Sol     HW 9375   0.893   1.456   4.345  3.4092  0.2910 -4.1495
 1592Sol     MW 9376   0.929   1.383   4.383  0.7735  0.2148  0.6581
 1593Sol     OW 9377   2.996   2.669   1.818  0.1911 -0.0558 -0.2782
 1593Sol     HW 9378   2.945   2.734   1.866  0.9677  1.8407 -1.9565
 1593Sol     HW 9379   3.079   2.663   1.866  0.6720  1.2724 -0.9158
 1593Sol     MW 9380   2.999   2.674   1.826 -0.2211  0.6409  0.2937
 1594Sol     OW 9381   2.959   2.983   9.068 -0.0276 -0.4112 -0.2237
 1594Sol     HW 9382   2.865   2.967   9.066  0.2259 -1.8373 -2.7364
 1594Sol     HW 9383   2.968   3.075   9.090 -2.0010 -0.1526 -0.4356
 1594Sol     MW 9384   2.952   2.990   9.070 -0.2452  0.1914 -0.0251
 1595Sol     OW 9385   2.274   2.001   8.908  0.3268  0.1141  0.2461
 1595Sol     HW 9386   2.350   1.994   8.850  0.5819 -1.4828  0.7432
 1595Sol     HW 9387   2.201   1.965   8.858  0.2718 -0.0080  0.4115
 1595Sol     MW 9388   2.275   1.997   8.898  0.4789 -0.1579  0.1922
 1596Sol     OW 9389   2.075   0.813   9.758 -0.2131  0.0086  0.8164
 1596Sol     HW 9390   2.001   0.755   9.773  0.3815 -0.0172  3.8285
 1596Sol     HW 9391   2.035   0.900   9.747 -0.7557 -0.1270  1.6632
 1596Sol     MW 9392   2.064   0.816   9.758  0.0924  0.0353 -0.1380
 1597Sol     OW 9393   2.316   2.902   6.783  0.0033  0.0893 -0.1626
 1597Sol     HW 9394   2.273   2.878   6.701 -1.2182 -3.3642  1.3702
 1597Sol     HW 9395   2.408   2.880   6.769 -0.0074  0.5681 -0.9948
 1597Sol     MW 9396   2.320   2.898   6.774  0.8058 -0.5393 -0.3411
 1598Sol     OW 9397   0.547   0.073   5.658 -0.0115  0.0018 -0.6030
 1598Sol     HW 9398   0.498   0.044   5.735  3.6478 -2.0456  1.0909
 1598Sol     HW 9399   0.552  -0.005   5.603  0.1137  0.5987 -1.4386
 1598Sol     MW 9400   0.543   0.063   5.660 -0.1932  0.1459 -0.0961
 1599Sol     OW 9401   1.893   2.199   2.981  0.4210 -0.5960 -0.3236
 1599Sol     HW 9402   1.933   2.244   3.056 -0.5253 -1.6053  0.7986
 1599Sol     HW 9403   1.962   2.200   2.914  0.8749  1.3682  0.1229
 1599Sol     MW 9404   1.903   2.204   2.982  0.3302  0.4190 -0.0620
 1600Sol     OW 9405   2.415   2.270   2.069  0.4303  0.1746 -0.0742
 1600Sol     HW 9406   2.479   2.257   2.139  0.5768 -3.0487 -0.7171
 1600Sol     HW 9407   2.351   2.200   2.081 -0.6300  0.7634 -1.9777
 1600Sol     MW 9408   2.415   2.263   2.076  0.7503  0.4691  0.6279
 1601Sol     OW 9409   1.177   1.740   2.606 -0.4686  0.7614 -0.1716
 1601Sol     HW 9410   1.225   1.734   2.523 -0.8490 -1.5167 -0.2585
 1601Sol     HW 9411   1.234   1.791   2.663  0.3240  1.3613 -1.4676
 1601Sol     MW 9412   1.187   1.744   2.604 -0.0888 -0.2133 -0.5474
 1602Sol     OW 9413   0.986   2.806   4.476 -0.2469 -0.0572 -0.2582
 1602Sol     HW 9414   1.066   2.761   4.448 -0.1679  1.2288 -2.2012
 1602Sol     HW 9415   0.946   2.746   4.539  1.3873 -1.4789 -0.5254
 1602Sol     MW 9416   0.989   2.796   4.479 -0.1833 -0.4188  0.4292
 1603Sol     OW 9417   0.314   0.565   7.293 -0.1823 -0.3857  0.2323
 1603Sol     HW 9418   0.228   0.528   7.313 -0.6007 -0.9079 -2.3231
 1603Sol     HW 9419   0.297   0.658   7.279 -0.9780 -0.9714 -3.3565
 1603Sol     MW 9420   0.305   0.570   7.293  0.6781  0.1804 -0.1420
 1604Sol     OW 9421   3.027   1.451   8.344 -0.7896 -0.3997 -0.0518
 1604Sol     HW 9422   3.021   1.514   8.272  0.1814 -0.6206 -0.3301
 1604Sol     HW 9423   3.058   1.371   8.303  2.5908  0.2782  1.0626
 1604Sol     MW 9424   3.029   1.450   8.334  0.1992  0.0378  0.2543
 1605Sol     OW 9425   0.985   2.491   7.517  0.1544 -0.0051 -0.5444
 1605Sol     HW 9426   0.897   2.517   7.543 -0.2311 -2.3212  0.5669
 1605Sol     HW 9427   1.015   2.561   7.460 -1.3357  2.1650  1.2788
 1605Sol     MW 9428   0.980   2.499   7.514 -1.1159 -0.7772  0.2200
 1606Sol     OW 9429   2.646   3.348   7.080  0.1924 -0.0479  0.5107
 1606Sol     HW 9430   2.579   3.324   7.015  1.3339  0.3516 -0.8416
 1606Sol     HW 9431   2.681   3.431   7.049  0.2744  0.5094  2.0411
 1606Sol     MW 9432   2.643   3.353   7.071  0.1617 -0.6974  0.3031
 1607Sol     OW 9433   2.444   2.226   7.814  0.2687 -0.1714 -0.5773
 1607Sol     HW 9434   2.533   2.259   7.807 -0.0805  0.6489 -1.3359
 1607Sol     HW 9435   2.453   2.137   7.848  1.3061  0.3166  0.4579
 1607Sol     MW 9436   2.452   2.221   7.817 -0.6605 -0.1120  0.5557
 1608Sol     OW 9437   1.576   0.416   5.561  0.4846  0.0952  0.3253
 1608Sol     HW 9438   1.588   0.505   5.594  1.7268  0.1577 -0.2208
 1608Sol     HW 9439   1.646   0.406   5.496  0.8790 -1.5764  0.9903
 1608Sol     MW 9440   1.584   0.423   5.558  0.1022 -0.1415 -0.2557
 1609Sol     OW 9441   3.254   1.928   3.947 -0.3798  0.0440 -0.1234
 1609Sol     HW 9442   3.233   1.943   3.854 -2.1604  1.0667  0.4279
 1609Sol     HW 9443   3.232   2.010   3.990  1.5215 -0.0409  1.0596
 1609Sol     MW 9444   3.250   1.936   3.942 -0.5259  0.7237  0.0721
 1610Sol     OW 9445   2.559   0.662   4.060 -0.5926 -0.2788 -0.5084
 1610Sol     HW 9446   2.522   0.582   4.023 -1.8250  0.4679 -0.9202
 1610Sol     HW 9447   2.627   0.631   4.120  0.1525 -1.5573 -1.9817
 1610Sol     MW 9448   2.561   0.652   4.062 -0.2206 -0.5773 -0.2425
 1611Sol     OW 9449   3.239   1.858   5.238  0.4397  0.1872  0.1447
 1611Sol     HW 9450   3.190   1.804   5.177 -0.9747 -0.2821  1.6566
 1611Sol     HW 9451   3.328   1.822   5.236 -0.2503 -1.5774  0.4004
 1611Sol     MW 9452   3.242   1.850   5.233  0.3614  0.3754  0.2009
 1612Sol     OW 9453   2.434   1.674   3.941  0.5787  0.2924  0.0530
 1612Sol     HW 9454   2.514   1.627   3.964  0.9461  1.2728  0.7902
 1612Sol     HW 9455   2.450   1.764   3.967 -1.7082  0.0358  2.6322
 1612Sol     MW 9456   2.442   1.677   3.945  0.1763  0.0378 -0.6663
 1613Sol     OW 9457   0.644   0.909   8.593  0.7217  0.4008  0.1004
 1613Sol     HW 9458   0.552   0.889   8.577  1.3045 -1.6936 -0.7617
 1613Sol     HW 9459   0.656   0.895   8.687  0.8698 -2.5091 -0.2943
 1613Sol     MW 9460   0.637   0.906   8.600 -0.0534 -0.7440  0.0141
 1614Sol     OW 9461   3.265   0.737   6.504 -0.1816  0.2283  0.1541
 1614Sol     HW 9462   3.185   0.762   6.551 -0.3209 -1.1550  0.6798
 1614Sol     HW 9463   3.335   0.743   6.569  0.2801  2.1406 -0.4881
 1614Sol     MW 9464   3.264   0.740   6.514 -0.4603  0.3850 -0.3634
 1615Sol     OW 9465   1.657   1.451   7.877  0.1330 -0.0124 -0.0182
 1615Sol     HW 9466   1.714   1.382   7.909  0.4771  0.4817  0.4469
 1615Sol     HW 9467   1.703   1.488   7.801 -0.5686 -1.0209 -0.9563
 1615Sol     MW 9468   1.666   1.448   7.873 -0.0594  0.0546 -0.0247
 1616Sol     OW 9469   1.291   0.126   9.561 -0.0212 -0.1249 -0.7152
 1616Sol     HW 9470   1.229   0.154   9.494 -0.9423  0.2280  0.2583
 1616Sol     HW 9471   1.236   0.087   9.629  0.8850 -0.3627 -0.1028
 1616Sol     MW 9472   1.280   0.125   9.561  0.1473  0.0052 -0.2218
 1617Sol     OW 9473   2.595   1.220   6.810  0.0878  0.7074 -0.2070
 1617Sol     HW 9474   2.537   1.168   6.754  2.0839 -1.0196 -0.7611
 1617Sol     HW 9475   2.598   1.172   6.892  1.4643  0.2319 -0.5142
 1617Sol     MW 9476   2.590   1.211   6.812  0.0956 -0.0033  0.4859
 1618Sol     OW 9477   0.157   0.539   8.385 -0.6614  0.1659 -0.8070
 1618Sol     HW 9478   0.207   0.614   8.351  1.2913 -0.1384  1.2313
 1618Sol     HW 9479   0.116   0.572   8.465 -0.5114 -0.6904 -0.3687
 1618Sol     MW 9480   0.158   0.549   8.389 -0.2683 -0.9149  0.3443
 1619Sol     OW 9481   2.485   2.515   3.082 -0.7208 -0.3880 -0.0163
 1619Sol     HW 9482   2.447   2.479   3.163  0.1573  0.4820  0.8039
 1619Sol     HW 9483   2.524   2.598   3.109 -0.0857 -0.2665 -1.2675
 1619Sol     MW 9484   2.485   2.519   3.092  0.7398 -0.6629 -0.5230
 1620Sol     OW 9485   2.448   1.695   5.113 -0.3357  0.4698  0.4271
 1620Sol     HW 9486   2.463   1.779   5.069  0.8973 -0.2261 -0.5197
 1620Sol     HW 9487   2.400   1.718   5.193 -0.9183  1.9596 -0.3324
 1620Sol     MW 9488   2.445   1.705   5.117  0.2902  0.6010 -0.0117
 1621Sol     OW 9489   1.076   2.060   6.819 -0.4980  0.1079 -0.6179
 1621Sol     HW 9490   1.107   1.974   6.845 -1.8777 -0.6423 -1.3710
 1621Sol     HW 9491   1.086   2.115   6.897  1.8029 -0.3221 -0.5729
 1621Sol     MW 9492   1.079   2.057   6.828  0.1067 -0.4392 -0.0792
 1622Sol     OW 9493   3.123   2.994   5.276  0.0115  0.2358  0.4430
 1622Sol     HW 9494   3.123   3.090   5.272 -0.1343  0.2146 -0.0268
 1622Sol     HW 9495   3.086   2.975   5.363 -1.6010  0.5833 -0.1399
 1622Sol     MW 9496   3.120   3.001   5.284  0.2690  0.0050 -0.3738
 1623Sol     OW 9497   0.914   2.801   6.122  0.4467  0.4665 -0.0596
 1623Sol     HW 9498   0.891   2.807   6.215 -1.0734  0.7242 -0.4427
 1623Sol     HW 9499   0.928   2.892   6.095  0.0458  0.4584 -0.2916
 1623Sol     MW 9500   0.914   2.810   6.128 -0.2575 -0.2622 -0.0670
 1624Sol     OW 9501   1.664   2.294   6.460 -0.1592 -0.4032 -0.3286
 1624Sol     HW 9502   1.727   2.222   6.464  0.9622  0.5561 -0.4741
 1624Sol     HW 9503   1.656   2.313   6.366 -0.6441 -0.5185 -0.3078
 1624Sol     MW 9504   1.669   2.289   6.452 -0.5933 -0.0189  1.2243
 1625Sol     OW 9505   1.256   2.176   5.775 -0.0858  0.1982  0.0817
 1625Sol     HW 9506   1.301   2.243   5.825 -2.1815  1.5123  0.2568
 1625Sol     HW 9507   1.321   2.143   5.713  0.4994  3.6113 -1.2002
 1625Sol     MW 9508   1.266   2.179   5.774 -0.3474 -0.5519 -0.5757
 1626Sol     OW 9509   0.044   0.239   9.254 -0.1860 -0.4960 -1.3442
 1626Sol     HW 9510   0.100   0.198   9.189  0.3746 -1.8625 -0.0268
 1626Sol     HW 9511  -0.042   0.197   9.243  0.2695 -1.7499 -0.3025
 1626Sol     MW 9512   0.041   0.232   9.248 -0.2644  0.0222  0.7370
 1627Sol     OW 9513   2.682   0.288   3.926  0.0439 -0.5330  0.0088
 1627Sol     HW 9514   2.617   0.340   3.879 -0.9972 -1.5289  0.3233
 1627Sol     HW 9515   2.690   0.330   4.011  2.1969  1.4898 -1.1521
 1627Sol     MW 9516   2.677   0.296   3.929 -0.0728 -0.0488  0.2274
 1628Sol     OW 9517   1.747   2.569   5.738  0.2686  0.1088 -0.3720
 1628Sol     HW 9518   1.808   2.516   5.790  0.0869 -1.4915 -1.7780
 1628Sol     HW 9519   1.748   2.655   5.781 -0.4516 -1.3824  2.7322
 1628Sol     MW 9520   1.753   2.572   5.747 -0.1274  0.0693  0.4879
 1629Sol     OW 9521   2.031   1.576   2.226  0.4453  0.4306  0.3664
 1629Sol     HW 9522   1.941   1.593   2.255  0.6190  0.4115  0.9034
 1629Sol     HW 9523   2.070   1.525   2.296  0.2554 -1.3315 -0.7760
 1629Sol     MW 9524   2.026   1.573   2.235  0.5823  1.2395  0.3712
 1630Sol     OW 9525   1.182   0.547   9.823  0.2960 -0.0227  0.7245
 1630Sol     HW 9526   1.113   0.600   9.784  1.0488  0.4419 -0.0271
 1630Sol     HW 9527   1.243   0.531   9.750  0.6023 -1.0316  1.1963
 1630Sol     MW 9528   1.182   0.550   9.813 -0.3731  0.5395 -0.5965
 1631Sol     OW 9529   3.187   0.789   8.618 -0.1305 -0.2723  0.1263
 1631Sol     HW 9530   3.228   0.870   8.648  4.3379 -1.7086 -1.7212
 1631Sol     HW 9531   3.186   0.796   8.523 -0.2349 -2.1241 -0.0295
 1631Sol     MW 9532   3.190   0.797   8.612  0.6083 -0.5360 -0.5188
 1632Sol     OW 9533   3.028   0.144   4.011  0.5793  0.3803  0.2643
 1632Sol     HW 9534   3.086   0.168   3.939  0.1688 -0.1076 -0.2349
 1632Sol     HW 9535   3.047   0.052   4.029  0.2330  0.3204  0.3415
 1632Sol     MW 9536   3.035   0.138   4.006 -0.5323  0.6847  0.0387
 1633Sol     OW 9537   1.771   1.664   9.465  0.0303 -0.2546  0.3868
 1633Sol     HW 9538   1.743   1.750   9.497  1.1797  1.3474 -2.6576
 1633Sol     HW 9539   1.862   1.656   9.494  0.8010  0.8199 -1.6509
 1633Sol     MW 9540   1.777   1.671   9.470  0.3930  0.3179 -0.3153
 1634Sol     OW 9541   0.833   2.811   1.819  0.0021  0.4375 -0.2399
 1634Sol     HW 9542   0.893   2.867   1.868 -2.5273  2.5977  0.4731
 1634Sol     HW 9543   0.746   2.837   1.848 -1.3529 -2.1054 -1.8141
 1634Sol     MW 9544   0.831   2.818   1.826 -0.1975  0.8537  0.5700
 1635Sol     OW 9545   0.734   2.619   5.155 -0.3671 -0.1902  0.0180
 1635Sol     HW 9546   0.682   2.692   5.188 -0.1033  0.4237 -0.8984
 1635Sol     HW 9547   0.727   2.626   5.059  2.1646  0.4764 -0.1361
 1635Sol     MW 9548   0.729   2.626   5.149 -0.7989  0.1634  0.2166
 1636Sol     OW 9549   1.221   2.679   8.467  0.0118 -0.2560  0.2175
 1636Sol     HW 9550   1.226   2.756   8.410 -0.2914 -0.8743 -0.6534
 1636Sol     HW 9551   1.196   2.715   8.553  6.1782  1.4023  1.5669
 1636Sol     MW 9552   1.219   2.689   8.470 -0.2502  0.0079  0.3531
 1637Sol     OW 9553   0.108   0.072   1.535 -0.0028  0.2713 -0.3209
 1637Sol     HW 9554   0.067  -0.012   1.558 -0.6857  0.8654  0.6927
 1637Sol     HW 9555   0.202   0.056   1.545 -0.1839 -0.0805  0.9739
 1637Sol     MW 9556   0.112   0.063   1.538  0.7968 -0.1597 -0.3829
 1638Sol     OW 9557   1.463   3.020   6.160  0.1131 -0.4984 -0.0944
 1638Sol     HW 9558   1.389   3.078   6.146  0.9084  0.2585 -1.2988
 1638Sol     HW 9559   1.426   2.932   6.154 -0.5493 -0.1337 -1.5923
 1638Sol     MW 9560   1.453   3.017   6.158 -0.1489  0.2078 -0.2023
 1639Sol     OW 9561   1.480   3.156   7.611 -0.0333  0.1491 -0.5483
 1639Sol     HW 9562   1.430   3.228   7.572 -0.5128  0.5016  0.7001
 1639Sol     HW 9563   1.460   3.160   7.705  1.2037 -0.6011 -0.2301
 1639Sol     MW 9564   1.474   3.163   7.616 -0.1080  0.0317  0.4863
 1640Sol     OW 9565   1.839   1.028   2.253  0.6991 -0.3054 -0.2549
 1640Sol     HW 9566   1.791   0.948   2.274  0.5922  0.3807  2.3340
 1640Sol     HW 9567   1.777   1.079   2.200  0.0917 -1.1597 -0.3822
 1640Sol     MW 9568   1.829   1.026   2.251  0.1298 -0.2287  0.1595
 1641Sol     OW 9569   0.435   3.234   7.740 -0.2955  0.5422 -0.4082
 1641Sol     HW 9570   0.476   3.227   7.826 -1.4285 -0.1128  0.0941
 1641Sol     HW 9571   0.488   3.298   7.693  0.4662  0.7379  0.6988
 1641Sol     MW 9572   0.443   3.239   7.743  0.1358 -0.0747 -0.0008
 1642Sol     OW 9573   1.301   0.385   1.417 -0.1988  0.5407 -0.6239
 1642Sol     HW 9574   1.323   0.292   1.419 -2.0545  0.1283  1.4911
 1642Sol     HW 9575   1.364   0.426   1.476 -1.7754  0.0611  1.4474
 1642Sol     MW 9576   1.309   0.381   1.422 -0.2039  0.1402 -0.0856
 1643Sol     OW 9577   3.068   2.471   4.095 -0.0001  0.2414  0.5260
 1643Sol     HW 9578   3.083   2.511   4.009  1.6805  1.4298  1.3511
 1643Sol     HW 9579   2.974   2.450   4.095  0.0603 -0.2054 -1.7589
 1643Sol     MW 9580   3.061   2.473   4.087 -0.2996  0.3620  0.2896
 1644Sol     OW 9581   1.646   2.826   6.885 -0.0265  0.3030  0.3612
 1644Sol     HW 9582   1.602   2.834   6.969  1.1841  0.6498  0.9645
 1644Sol     HW 9583   1.677   2.736   6.883 -0.4327  0.1651  0.0878
 1644Sol     MW 9584   1.645   2.819   6.892  0.0305  0.3222 -0.4136
 1645Sol     OW 9585   0.576   1.495   8.109 -0.0348  0.2194  0.4870
 1645Sol     HW 9586   0.627   1.511   8.188 -0.0818  0.2931  0.5028
 1645Sol     HW 9587   0.549   1.403   8.116  0.2428  0.1318  0.3940
 1645Sol     MW 9588   0.578   1.488   8.117  0.4767  0.9866  0.0663
 1646Sol     OW 9589   2.305   1.773   2.843 -0.2799 -0.4637 -0.2256
 1646Sol     HW 9590   2.248   1.697   2.833  0.1198 -0.7645 -0.2290
 1646Sol     HW 9591   2.341   1.788   2.755 -0.5328 -0.1279 -0.2763
 1646Sol     MW 9592   2.303   1.768   2.834 -0.1718  0.7073 -0.6813
 1647Sol     OW 9593   3.230   0.168   2.684  0.4296  0.0631 -0.4315
 1647Sol     HW 9594   3.209   0.198   2.772  0.6804  0.0723 -0.3761
 1647Sol     HW 9595   3.318   0.131   2.690  0.0914 -0.7751 -0.4759
 1647Sol     MW 9596   3.236   0.167   2.692 -0.1853  0.5887 -0.2928
 1648Sol     OW 9597   1.711   1.489   9.021 -0.8738 -0.0325  0.5309
 1648Sol     HW 9598   1.690   1.489   9.115  1.4039 -1.2984  1.0579
 1648Sol     HW 9599   1.773   1.561   9.011  0.9430 -1.5769  0.4906
 1648Sol     MW 9600   1.715   1.496   9.029 -0.6255 -0.1372 -0.1828
 1649Sol     OW 9601   3.031   1.632   8.133 -0.2564  0.4100 -0.0528
 1649Sol     HW 9602   3.061   1.670   8.051 -0.0679  0.3058 -0.0312
 1649Sol     HW 9603   3.002   1.708   8.184 -1.5774  0.3532 -0.7070
 1649Sol     MW 9604   3.031   1.643   8.131 -0.2331 -0.4464 -0.1014
 1650Sol     OW 9605   0.552   3.021   9.669 -0.6815 -0.1421  0.2229
 1650Sol     HW 9606   0.563   2.936   9.710 -1.6273 -0.0358  0.7126
 1650Sol     HW 9607   0.458   3.040   9.677 -0.6087  0.6026 -0.5511
 1650Sol     MW 9608   0.544   3.015   9.673 -0.0095 -0.2260  0.5883
 1651Sol     OW 9609   3.005   0.496   9.339 -0.0004 -0.8854 -0.3850
 1651Sol     HW 9610   2.913   0.482   9.321  0.0070  0.0609 -1.2642
 1651Sol     HW 9611   3.033   0.420   9.389 -1.5974 -0.4926  1.1460
 1651Sol     MW 9612   3.000   0.488   9.342 -0.2070 -0.3736  1.1794
 1652Sol     OW 9613   2.443   1.791   6.184 -0.9032  0.0432  0.1431
 1652Sol     HW 9614   2.499   1.719   6.215 -0.1186  0.0906 -1.1410
 1652Sol     HW 9615   2.373   1.747   6.135  0.2947  0.2035 -1.7574
 1652Sol     MW 9616   2.442   1.780   6.182 -0.4284  0.3814 -0.5380
 1653Sol     OW 9617   1.041   0.562   5.559  0.1159  0.3073 -0.8324
 1653Sol     HW 9618   1.071   0.631   5.618  0.5087 -1.2096  0.7785
 1653Sol     HW 9619   1.112   0.552   5.496  0.4616  0.7288 -0.5131
 1653Sol     MW 9620   1.050   0.567   5.559 -0.1829  0.7331 -0.1468
 1654Sol     OW 9621   0.626   3.118   5.047 -0.3936 -0.2281  0.0375
 1654Sol     HW 9622   0.556   3.181   5.030 -0.8000 -0.2593  1.5086
 1654Sol     HW 9623   0.701   3.172   5.075  0.1898 -0.1954 -1.5170
 1654Sol     MW 9624   0.627   3.128   5.048  0.0496  0.0425  0.2244
 1655Sol     OW 9625   2.639   0.397   1.436  0.4399 -0.1286 -0.0701
 1655Sol     HW 9626   2.664   0.420   1.526  2.1497  1.1881 -0.8422
 1655Sol     HW 9627   2.613   0.480   1.397  1.0071 -0.4731 -1.1881
 1655Sol     MW 9628   2.639   0.407   1.441  0.6505 -0.2170 -0.0078
 1656Sol     OW 9629   0.205   2.101   9.840 -0.2332  0.5394 -0.1723
 1656Sol     HW 9630   0.264   2.175   9.831 -0.4423  0.9223  1.4340
 1656Sol     HW 9631   0.129   2.136   9.887 -0.5971 -0.5429  0.0712
 1656Sol     MW 9632   0.203   2.110   9.844 -0.1978  0.3433 -0.0557
 1657Sol     OW 9633   0.128   3.167   6.017  0.6386  0.1962 -0.1056
 1657Sol     HW 9634   0.216   3.138   5.996  0.2900 -0.6434 -0.4175
 1657Sol     HW 9635   0.075   3.087   6.017 -0.1850  0.7322 -0.2594
 1657Sol     MW 9636   0.131   3.157   6.015 -0.7589  0.2540 -0.1156
 1658Sol     OW 9637   1.039   2.905   5.630 -0.3001 -0.0645 -0.6552
 1658Sol     HW 9638   1.122   2.881   5.672  1.1629  2.6629 -1.8804
 1658Sol     HW 9639   1.048   2.874   5.540 -1.0671 -0.7099 -0.5155
 1658Sol     MW 9640   1.047   2.900   5.626 -0.2033 -0.9729 -0.1593
 1659Sol     OW 9641   1.656   1.251   9.457 -0.2790  0.1573  0.0926
 1659Sol     HW 9642   1.748   1.275   9.470 -0.6633  1.0037  1.3458
 1659Sol     HW 9643   1.659   1.171   9.405  1.1110  1.6295 -2.2242
 1659Sol     MW 9644   1.664   1.246   9.453 -0.6640  0.5444  0.6079
 1660Sol     OW 9645   0.636   0.103   4.134 -0.0047  0.1505 -0.2753
 1660Sol     HW 9646   0.672   0.070   4.217 -0.9437  1.9861  0.9149
 1660Sol     HW 9647   0.626   0.025   4.080 -1.8197 -1.5394  2.3089
 1660Sol     MW 9648   0.638   0.093   4.137 -0.5403  0.2407 -0.3265
 1661Sol     OW 9649   2.178   2.495   9.408 -0.6491  0.3111 -0.6632
 1661Sol     HW 9650   2.127   2.563   9.364 -2.1565 -0.4673 -0.1142
 1661Sol     HW 9651   2.260   2.539   9.431 -1.8907  2.1526  0.3531
 1661Sol     MW 9652   2.181   2.505   9.406 -0.3113  0.3443  0.2786
 1662Sol     OW 9653   0.016   1.552   9.563  0.2146 -0.5119 -0.0282
 1662Sol     HW 9654  -0.077   1.560   9.584  0.1828 -1.6641  0.3504
 1662Sol     HW 9655   0.039   1.634   9.521 -0.8949 -0.0797  0.1976
 1662Sol     MW 9656   0.009   1.560   9.561 -0.5863  0.4713 -0.0516
 1663Sol     OW 9657   1.478   1.590   6.603  0.1924 -0.1248  0.1974
 1663Sol     HW 9658   1.514   1.582   6.515 -0.5477  0.2363 -0.1491
 1663Sol     HW 9659   1.554   1.589   6.661  0.8251  1.4045 -0.5726
 1663Sol     MW 9660   1.488   1.590   6.601  0.6316 -0.2969 -0.3233
 1664Sol     OW 9661   2.409   0.326   3.501 -0.9405 -0.0573  0.1493
 1664Sol     HW 9662   2.318   0.298   3.512 -1.7794  2.5587  0.1820
 1664Sol     HW 9663   2.405   0.392   3.432  1.2272 -1.2214 -1.1338
 1664Sol     MW 9664   2.400   0.330   3.496  0.5045 -0.1588 -0.1192
 1665Sol     OW 9665   0.359   1.637   9.376  0.1230  0.4686 -0.1631
 1665Sol     HW 9666   0.375   1.545   9.396 -0.6918  0.4931  0.6500
 1665Sol     HW 9667   0.445   1.673   9.356  1.0503  0.4562  3.4825
 1665Sol     MW 9668   0.368   1.632   9.376  0.8771 -0.2983 -0.2517
 1666Sol     OW 9669   2.063   3.026   8.584  0.4622 -0.1780  0.1510
 1666Sol     HW 9670   2.081   2.958   8.650 -0.1641  1.6475  2.2653
 1666Sol     HW 9671   1.981   2.998   8.544  0.1182 -0.5994  1.1183
 1666Sol     MW 9672   2.057   3.017   8.586 -0.2652 -0.6526 -0.4602
 1667Sol     OW 9673   2.062   3.389   1.401 -0.1252  0.4586  0.3467
 1667Sol     HW 9674   2.092   3.369   1.489  0.2577 -1.8591 -0.2907
 1667Sol     HW 9675   2.110   3.468   1.377 -1.8735  2.4329  3.0150
 1667Sol     MW 9676   2.069   3.395   1.406 -0.3059 -0.6038 -0.3100
 1668Sol     OW 9677   0.972   0.023   1.438  0.3018  0.2836  0.1226
 1668Sol     HW 9678   1.002   0.097   1.385 -0.0377  0.2010 -0.1951
 1668Sol     HW 9679   0.895  -0.010   1.390  0.7647 -0.6004 -0.0268
 1668Sol     MW 9680   0.968   0.026   1.429 -0.6060  0.0333 -0.5079
 1669Sol     OW 9681   0.517   0.088   4.836  0.9346 -0.0283 -0.1573
 1669Sol     HW 9682   0.611   0.074   4.828  0.5227 -1.8025 -2.8121
 1669Sol     HW 9683   0.504   0.180   4.814  2.0747  0.2968  0.5031
 1669Sol     MW 9684   0.524   0.095   4.833 -0.4221 -0.3262  0.1304
 1670Sol     OW 9685   0.080   2.205   7.889 -0.7344 -0.0210  0.1363
 1670Sol     HW 9686   0.164   2.164   7.909 -0.1175  1.8324  1.4380
 1670Sol     HW 9687   0.027   2.190   7.967 -2.2601 -2.6896 -1.3378
 1670Sol     MW 9688   0.083   2.200   7.898  0.0691 -0.4737 -0.2346
 1671Sol     OW 9689   3.128   2.077   7.579 -0.3582 -0.0218  0.0799
 1671Sol     HW 9690   3.216   2.108   7.602 -0.3374 -0.0031 -0.0232
 1671Sol     HW 9691   3.136   2.053   7.486 -0.7129  0.8693 -0.1881
 1671Sol     MW 9692   3.137   2.078   7.572 -0.3025  1.2605 -0.1542
 1672Sol     OW 9693   2.728   2.196   6.758 -0.4325 -0.2437  0.1436
 1672Sol     HW 9694   2.816   2.176   6.788  0.4047  0.3925 -1.7869
 1672Sol     HW 9695   2.725   2.292   6.755 -0.8014 -0.2770 -0.8436
 1672Sol     MW 9696   2.736   2.203   6.761  1.1653  0.3273 -0.8827
 1673Sol     OW 9697   0.836   0.798   4.486 -0.0424 -0.1246  0.7345
 1673Sol     HW 9698   0.852   0.748   4.406  0.4469 -1.1543  1.4569
 1673Sol     HW 9699   0.810   0.885   4.456 -1.0718 -0.8701 -0.5406
 1673Sol     MW 9700   0.835   0.802   4.476  0.2011 -0.1301 -0.3205
 1674Sol     OW 9701   2.531   0.663   8.744 -0.2122  0.1562  0.4318
 1674Sol     HW 9702   2.604   0.613   8.780  0.8728  1.9902  0.8483
 1674Sol     HW 9703   2.495   0.711   8.818 -0.9650  0.3454 -0.0441
 1674Sol     MW 9704   2.534   0.663   8.754 -0.0675  0.3534 -0.2195
 1675Sol     OW 9705   0.385   0.105   1.985 -0.2638  0.4521  0.1363
 1675Sol     HW 9706   0.353   0.168   2.049  0.3033 -0.1231  1.0093
 1675Sol     HW 9707   0.348   0.021   2.014  0.5379  0.0803  0.1045
 1675Sol     MW 9708   0.379   0.103   1.993 -0.6103  0.0806  0.3074
 1676Sol     OW 9709   3.322   2.995   2.201 -0.6796  0.6165  0.6480
 1676Sol     HW 9710   3.238   2.952   2.183 -1.0741  1.4258  0.4717
 1676Sol     HW 9711   3.337   2.982   2.294 -0.3588 -0.6404  0.4236
 1676Sol     MW 9712   3.316   2.990   2.208  0.0597 -0.5175 -0.4934
 1677Sol     OW 9713   2.412   1.062   6.643  0.1555  0.2260 -0.1547
 1677Sol     HW 9714   2.426   1.080   6.550  0.6769 -1.4922 -0.4438
 1677Sol     HW 9715   2.341   1.120   6.669  0.3909  1.1317 -1.4869
 1677Sol     MW 9716   2.407   1.069   6.637  0.2366 -0.6280  0.2989
 1678Sol     OW 9717   1.082   0.216   9.402  0.4099 -0.3275  0.0581
 1678Sol     HW 9718   1.035   0.274   9.462 -1.0372  1.6150 -2.8235
 1678Sol     HW 9719   1.022   0.143   9.388 -1.0986  1.2344 -2.1375
 1678Sol     MW 9720   1.072   0.215   9.406  0.1343  0.2974  0.0721
 1679Sol     OW 9721   0.434   2.566   4.800  0.0262  0.2218  0.1786
 1679Sol     HW 9722   0.416   2.628   4.729  0.5782 -0.2698 -0.4116
 1679Sol     HW 9723   0.401   2.609   4.879  0.2017  1.1720 -0.2490
 1679Sol     MW 9724   0.430   2.576   4.800 -0.0207  0.0496  0.4462
 1680Sol     OW 9725   1.003   0.802   9.908 -0.0356  0.3314  0.1174
 1680Sol     HW 9726   0.980   0.824   9.998 -2.6686  0.1274 -0.4529
 1680Sol     HW 9727   1.096   0.780   9.911  0.1707  1.3971  2.5657
 1680Sol     MW 9728   1.009   0.802   9.916  0.4341  0.1615  0.4301
 1681Sol     OW 9729   0.257   1.107   1.923 -0.3880  0.3250  0.1701
 1681Sol     HW 9730   0.255   1.030   1.867 -0.0110  0.7532 -0.4350
 1681Sol     HW 9731   0.327   1.089   1.986 -1.0039 -0.2799  0.6895
 1681Sol     MW 9732   0.263   1.099   1.924 -0.2357  0.5361 -0.3062
 1682Sol     OW 9733   3.182   3.133   1.803 -0.2581 -0.2571 -0.4667
 1682Sol     HW 9734   3.184   3.079   1.724 -1.1868 -2.0246  0.7033
 1682Sol     HW 9735   3.092   3.163   1.810 -0.4824 -1.1727  0.6352
 1682Sol     MW 9736   3.175   3.131   1.796  0.1589 -0.1541  0.0787
 1683Sol     OW 9737   0.956   3.017   3.767 -0.0562  0.0929  0.1068
 1683Sol     HW 9738   0.932   3.031   3.859  0.2723 -0.7172  0.3181
 1683Sol     HW 9739   1.051   3.009   3.767  0.0019  0.8096 -0.4000
 1683Sol     MW 9740   0.962   3.017   3.775  0.4637  0.0758  0.0279
 1684Sol     OW 9741   2.495   1.858   2.618  0.1927  0.0515  0.0008
 1684Sol     HW 9742   2.541   1.911   2.682  1.8051  1.1309 -2.0124
 1684Sol     HW 9743   2.446   1.921   2.565 -0.5043 -0.7745 -0.3530
 1684Sol     MW 9744   2.494   1.868   2.619  0.4728 -0.1509  0.4136
 1685Sol     OW 9745   0.048   1.349   4.790 -0.1532 -0.3326 -0.2798
 1685Sol     HW 9746   0.093   1.385   4.713  1.3926 -0.2702  0.6159
 1685Sol     HW 9747  -0.042   1.335   4.762  0.3724 -0.1945 -2.0609
 1685Sol     MW 9748   0.044   1.351   4.781  0.2534  0.0796  0.0235
 1686Sol     OW 9749   0.669   0.810   9.924 -0.9419 -0.2115  0.0491
 1686Sol     HW 9750   0.646   0.718   9.931 -2.5128  0.2408  1.3125
 1686Sol     HW 9751   0.725   0.826  10.000  0.1197 -0.3370 -0.6985
 1686Sol     MW 9752   0.671   0.803   9.931  0.3027 -0.3107  0.5188
 1687Sol     OW 9753   0.815   0.063   3.185 -0.0687 -0.0662  0.0771
 1687Sol     HW 9754   0.819  -0.021   3.139 -0.0027  0.1255 -0.2756
 1687Sol     HW 9755   0.854   0.046   3.270  0.8783 -0.1566 -0.3654
 1687Sol     MW 9756   0.819   0.054   3.188 -0.3861  0.5030 -0.0428
 1688Sol     OW 9757   2.680   0.785   2.068  0.3176  0.1605  0.8491
 1688Sol     HW 9758   2.715   0.863   2.024 -1.1223  0.1840 -0.3067
 1688Sol     HW 9759   2.613   0.752   2.007  0.0238 -1.2309  1.9228
 1688Sol     MW 9760   2.677   0.789   2.058  0.9643 -0.5737  0.1088
 1689Sol     OW 9761   1.079   1.335   9.057 -0.8015 -0.4364 -0.3418
 1689Sol     HW 9762   1.157   1.343   9.002  0.0007  0.0302  0.8495
 1689Sol     HW 9763   1.100   1.385   9.136 -1.1694 -2.6849  1.2483
 1689Sol     MW 9764   1.088   1.340   9.059  0.4792 -0.5390  0.5705
 1690Sol     OW 9765   2.097   3.388   3.866 -0.1167 -0.0559 -0.0295
 1690Sol     HW 9766   2.032   3.454   3.891 -0.6686 -0.6116  0.0097
 1690Sol     HW 9767   2.048   3.324   3.814  0.4612 -0.3294 -0.2464
 1690Sol     MW 9768   2.087   3.389   3.863  0.1499  0.3570  0.1795
 1691Sol     OW 9769   1.922   2.460   3.386  0.1382 -0.3418  0.6316
 1691Sol     HW 9770   1.910   2.547   3.423 -0.4254  0.6573 -1.7667
 1691Sol     HW 9771   1.915   2.400   3.460 -0.0060  1.6154  2.2242
 1691Sol     MW 9772   1.920   2.462   3.396 -0.1975  0.3605  0.1090
 1692Sol     OW 9773   1.906   2.095   8.690  0.8368 -0.3854 -0.3148
 1692Sol     HW 9774   1.897   2.189   8.672 -0.1135 -0.2613  0.7624
 1692Sol     HW 9775   1.978   2.067   8.633  1.1485  0.9998 -0.6309
 1692Sol     MW 9776   1.912   2.101   8.683  0.1178  0.0444  0.6071
 1693Sol     OW 9777   0.471   0.305   3.731  0.5541 -0.0261  0.3531
 1693Sol     HW 9778   0.555   0.266   3.754 -0.3497 -2.5490 -0.4987
 1693Sol     HW 9779   0.407   0.255   3.779 -0.5949  0.9630 -0.1160
 1693Sol     MW 9780   0.473   0.297   3.737  0.2523  0.4441 -0.3056
 1694Sol     OW 9781   1.502   3.250   8.122 -0.1005 -0.4144  0.0956
 1694Sol     HW 9782   1.579   3.304   8.109  1.3747 -2.2994  0.8095
 1694Sol     HW 9783   1.458   3.288   8.198  1.7501 -1.1301  1.5485
 1694Sol     MW 9784   1.505   3.258   8.128 -0.3423 -0.4353 -0.5096
 1695Sol     OW 9785   0.155   0.633   6.347 -0.2522  0.0836 -0.4634
 1695Sol     HW 9786   0.089   0.664   6.409 -1.1322  0.7807 -1.7155
 1695Sol     HW 9787   0.231   0.688   6.364 -1.2016  1.7552 -1.4361
 1695Sol     MW 9788   0.156   0.641   6.354  0.0749  0.5689 -0.8179
 1696Sol     OW 9789   2.995   3.391   5.114  0.5155  0.0416  0.0401
 1696Sol     HW 9790   3.075   3.423   5.072  0.8721 -0.8964 -0.0257
 1696Sol     HW 9791   2.970   3.315   5.061 -1.2071  1.1488 -0.7736
 1696Sol     MW 9792   3.000   3.387   5.105  0.4052  0.2347 -0.3098
 1697Sol     OW 9793   3.020   0.679   7.307  0.0736  0.4144  0.2715
 1697Sol     HW 9794   2.973   0.698   7.226 -1.1677 -1.2435  0.5853
 1697Sol     HW 9795   2.952   0.675   7.374  0.7791 -0.8266  0.9385
 1697Sol     MW 9796   3.010   0.681   7.306 -0.4208 -0.6567 -0.1471
 1698Sol     OW 9797   1.541   1.648   5.187 -0.0041 -0.5127 -0.3790
 1698Sol     HW 9798   1.561   1.609   5.272 -1.8030  1.3533  0.9270
 1698Sol     HW 9799   1.607   1.717   5.177 -0.3690 -0.1228 -0.0823
 1698Sol     MW 9800   1.549   1.651   5.194  0.7562  0.5539  0.2300
 1699Sol     OW 9801   2.265   1.063   4.158  0.5394  0.1847 -0.3837
 1699Sol     HW 9802   2.197   1.005   4.191  0.6919  0.7224  0.9005
 1699Sol     HW 9803   2.225   1.150   4.161  1.0713  0.4227 -0.1874
 1699Sol     MW 9804   2.255   1.066   4.161  0.2659 -0.3462  0.9921
 1700Sol     OW 9805   0.801   2.686   7.455 -0.4740 -0.2047 -0.6105
 1700Sol     HW 9806   0.711   2.711   7.476 -1.1067 -0.8314 -2.4655
 1700Sol     HW 9807   0.811   2.707   7.362  1.5844  0.6540 -0.2406
 1700Sol     MW 9808   0.794   2.690   7.448 -0.8096  0.0751  0.2363
 1701Sol     OW 9809   1.296   0.345   7.863  0.1938 -0.6276  0.2373
 1701Sol     HW 9810   1.300   0.432   7.904  2.2562 -0.9556  0.7911
 1701Sol     HW 9811   1.377   0.339   7.811 -1.3374 -1.0741 -2.2023
 1701Sol     MW 9812   1.304   0.353   7.862  0.3499  0.6599 -0.5155
 1702Sol     OW 9813   2.563   2.867   4.547 -0.4724  0.6518 -0.1293
 1702Sol     HW 9814   2.595   2.932   4.484  1.2949 -0.9296 -0.9296
 1702Sol     HW 9815   2.562   2.785   4.497  0.6469 -0.5690  1.8072
 1702Sol     MW 9816   2.566   2.865   4.537 -0.0478 -0.2017 -0.1547
 1703Sol     OW 9817   0.633   1.782   9.916 -0.7159 -0.5718  0.1121
 1703Sol     HW 9818   0.549   1.820   9.942 -0.1508 -0.8188  2.3921
 1703Sol     HW 9819   0.630   1.692   9.947  0.8687 -0.2176  1.3725
 1703Sol     MW 9820   0.626   1.778   9.921 -0.0290  0.3674 -0.2181
 1704Sol     OW 9821   1.758   2.458   9.758  0.8185  0.6748 -0.4953
 1704Sol     HW 9822   1.666   2.441   9.775  1.2057  0.2397  1.2615
 1704Sol     HW 9823   1.763   2.552   9.743 -0.0029  0.5973 -1.2978
 1704Sol     MW 9824   1.750   2.465   9.758 -0.3078  0.4237  0.2382
 1705Sol     OW 9825   0.970   3.063   9.428 -0.4387 -0.7112 -0.5066
 1705Sol     HW 9826   0.921   3.002   9.483 -1.6119 -0.6301 -1.4500
 1705Sol     HW 9827   0.903   3.114   9.383  0.5167 -0.2169 -1.3974
 1705Sol     MW 9828   0.960   3.062   9.429  0.3157  0.4363 -0.4152
 1706Sol     OW 9829   0.734   1.432   5.656  0.1005  0.2443 -0.0311
 1706Sol     HW 9830   0.749   1.400   5.567  2.9712  1.2385  0.0547
 1706Sol     HW 9831   0.727   1.353   5.709 -1.3758 -0.3497 -1.0810
 1706Sol     MW 9832   0.734   1.422   5.652  0.0076 -0.1143 -1.0209
 1707Sol     OW 9833   2.460   1.333   3.731  0.2602 -0.0919 -0.0633
 1707Sol     HW 9834   2.452   1.328   3.826 -1.2466  0.9706 -0.1224
 1707Sol     HW 9835   2.423   1.419   3.708 -0.2283 -0.7233 -1.6906
 1707Sol     MW 9836   2.456   1.341   3.738 -0.0436 -0.0921 -0.0259
 1708Sol     OW 9837   1.279   0.715   4.450  0.9090  0.2386 -0.1560
 1708Sol     HW 9838   1.220   0.713   4.526  1.6005 -0.9075  0.3631
 1708Sol     HW 9839   1.229   0.675   4.380  0.1182  1.6622 -0.4244
 1708Sol     MW 9840   1.270   0.712   4.451 -0.1480 -1.0910  0.2887
 1709Sol     OW 9841   1.450   2.599   8.351  0.1930 -0.1611 -0.1027
 1709Sol     HW 9842   1.364   2.629   8.381 -0.3905  1.2297 -2.9862
 1709Sol     HW 9843   1.512   2.637   8.413 -1.0806  1.1798  0.3787
 1709Sol     MW 9844   1.448   2.605   8.359  0.2300 -0.7514 -0.3595
 1710Sol     OW 9845   2.457   2.379   9.252  0.0173  0.4295  0.1336
 1710Sol     HW 9846   2.379   2.337   9.215  1.1905 -1.2581 -0.5284
 1710Sol     HW 9847   2.448   2.471   9.229 -1.2602  0.0762 -0.8790
 1710Sol     MW 9848   2.450   2.383   9.246 -0.1630 -0.5081 -0.2598
 1711Sol     OW 9849   0.675   2.466   2.284 -0.0680 -0.0090  0.2308
 1711Sol     HW 9850   0.657   2.527   2.356  1.1884  0.3423  0.2588
 1711Sol     HW 9851   0.713   2.390   2.327 -0.1569 -0.1650  0.0294
 1711Sol     MW 9852   0.677   2.465   2.295  0.2737  0.5476  0.0756
 1712Sol     OW 9853   1.116   1.070   2.350 -0.5488  0.0361 -0.6186
 1712Sol     HW 9854   1.074   1.153   2.374 -1.0269 -0.4872  0.4064
 1712Sol     HW 9855   1.069   1.004   2.401 -0.6037 -0.9504 -1.9249
 1712Sol     MW 9856   1.108   1.072   2.357  0.1203  0.5055  0.3327
 1713Sol     OW 9857   0.351   3.109   4.393  0.2933 -0.4020 -0.4440
 1713Sol     HW 9858   0.360   3.087   4.300  2.4372  0.5875 -0.5097
 1713Sol     HW 9859   0.393   3.035   4.439  1.1514  0.1179 -0.3725
 1713Sol     MW 9860   0.356   3.100   4.389 -0.0779 -0.2246  0.5296
 1714Sol     OW 9861   1.315   2.561   9.609 -0.1218  1.0635 -0.2375
 1714Sol     HW 9862   1.255   2.577   9.536 -1.1133 -1.5045 -0.0216
 1714Sol     HW 9863   1.274   2.491   9.659  1.1315  1.9723  2.1498
 1714Sol     MW 9864   1.306   2.556   9.607 -0.1028 -0.0048 -0.3415
 1715Sol     OW 9865   0.397   3.241   1.763  0.0594  0.2868 -0.4209
 1715Sol     HW 9866   0.486   3.209   1.747  0.0673 -0.2036  0.5600
 1715Sol     HW 9867   0.398   3.269   1.855 -1.1133 -0.8052 -0.0689
 1715Sol     MW 9868   0.405   3.241   1.770 -0.0753  0.6687 -0.1683
 1716Sol     OW 9869   0.543   2.982   8.805 -0.1993 -0.3000  0.4748
 1716Sol     HW 9870   0.618   2.924   8.795  1.6481  2.3641 -1.8689
 1716Sol     HW 9871   0.470   2.935   8.765  0.6859 -1.9741  0.7898
 1716Sol     MW 9872   0.543   2.973   8.801  0.2516  0.1674 -0.2249
 1717Sol     OW 9873   2.970   3.067   2.356 -0.3191  0.0410 -0.2283
 1717Sol     HW 9874   3.016   3.122   2.292  0.4667 -0.5738 -0.2008
 1717Sol     HW 9875   3.034   3.001   2.381 -0.0131  1.3164  2.5684
 1717Sol     MW 9876   2.979   3.066   2.352 -0.4531 -0.4815 -0.1773
 1718Sol     OW 9877   1.335   0.546   9.032  0.3927 -1.0061  0.0500
 1718Sol     HW 9878   1.331   0.503   8.947 -1.0643  0.0796 -0.4494
 1718Sol     HW 9879   1.275   0.496   9.088 -0.0143 -0.6639 -0.0698
 1718Sol     MW 9880   1.329   0.538   9.030  0.3583  0.0893 -0.2128
 1719Sol     OW 9881   2.163   0.704   2.754  0.0887 -0.7773 -0.0589
 1719Sol     HW 9882   2.242   0.757   2.764  0.1708 -1.0306  0.6953
 1719Sol     HW 9883   2.159   0.652   2.834 -1.4763  0.0958  0.4528
 1719Sol     MW 9884   2.170   0.704   2.762 -0.0599 -0.3940  0.5447
 1720Sol     OW 9885   2.430   2.550   6.707 -0.1040 -0.0583 -0.0401
 1720Sol     HW 9886   2.352   2.529   6.758 -0.9513  1.6365 -0.6068
 1720Sol     HW 9887   2.405   2.626   6.654  1.3694 -0.5966 -1.5598
 1720Sol     MW 9888   2.421   2.555   6.707 -0.1180 -0.1772 -0.8199
 1721Sol     OW 9889   1.069   1.426   9.311  0.1408 -0.1272 -0.5476
 1721Sol     HW 9890   0.979   1.408   9.285  0.0352  0.3552 -0.5154
 1721Sol     HW 9891   1.071   1.520   9.327 -0.0184 -0.5286  2.0281
 1721Sol     MW 9892   1.061   1.433   9.310  0.5372  0.3882 -0.3023
 1722Sol     OW 9893   0.874   3.012   2.579  0.2298  0.0508 -0.2128
 1722Sol     HW 9894   0.946   2.953   2.556 -0.4378 -0.8273 -0.1053
 1722Sol     HW 9895   0.853   2.990   2.669  0.5223  1.0486  0.1042
 1722Sol     MW 9896   0.879   3.004   2.585  0.2021  0.5072  0.5720
 1723Sol     OW 9897   1.591   1.237   8.947  0.0197  0.4248  0.7480
 1723Sol     HW 9898   1.626   1.319   8.984  1.0495  0.5513 -0.4958
 1723Sol     HW 9899   1.520   1.213   9.007  0.5464  1.5439  1.8477
 1723Sol     MW 9900   1.588   1.243   8.956  0.1544  0.3312 -0.1388
 1724Sol     OW 9901   2.994   1.578   4.434 -0.8579  0.3084  0.3323
 1724Sol     HW 9902   3.008   1.486   4.412  2.3853  0.9762 -0.7293
 1724Sol     HW 9903   2.998   1.581   4.530 -0.9860 -0.6567  0.3726
 1724Sol     MW 9904   2.996   1.570   4.441 -0.3755 -0.0896 -0.1058
 1725Sol     OW 9905   0.957   0.029   1.714  0.0542 -0.1522 -0.1595
 1725Sol     HW 9906   0.947   0.034   1.619 -0.6063 -0.1711 -0.0941
 1725Sol     HW 9907   1.050   0.012   1.727 -0.3496 -3.3277 -0.9139
 1725Sol     MW 9908   0.964   0.028   1.706  0.3705 -0.2743 -0.7548
 1726Sol     OW 9909   2.035   0.324   6.615  0.0394  0.4757  0.0008
 1726Sol     HW 9910   2.057   0.402   6.564  1.0271 -0.8711 -1.7178
 1726Sol     HW 9911   2.037   0.352   6.706  1.9146  2.0708 -0.5156
 1726Sol     MW 9912   2.037   0.333   6.618 -0.2175  0.0051  0.3253
 1727Sol     OW 9913   3.195   1.703   5.656 -0.5787  0.6366  0.2185
 1727Sol     HW 9914   3.211   1.696   5.562 -1.3866  0.1260  0.1118
 1727Sol     HW 9915   3.207   1.795   5.676 -2.8095  1.1824 -0.8437
 1727Sol     MW 9916   3.197   1.710   5.649 -0.2636 -0.3506 -0.3378
 1728Sol     OW 9917   2.196   0.377   8.873 -0.4780  0.2705  0.3809
 1728Sol     HW 9918   2.190   0.405   8.782 -1.6763 -0.7670  0.1256
 1728Sol     HW 9919   2.140   0.437   8.921 -0.0439  0.6635  0.3945
 1728Sol     MW 9920   2.191   0.385   8.869  0.2188 -0.2030 -0.8955
 1729Sol     OW 9921   0.168   2.606   6.342  0.4477 -0.5534 -0.5195
 1729Sol     HW 9922   0.182   2.640   6.431 -1.7355 -3.2493  0.9276
 1729Sol     HW 9923   0.160   2.685   6.288  0.4772  1.1741  1.8820
 1729Sol     MW 9924   0.169   2.616   6.345  0.0282  0.2407  0.2902
 1730Sol     OW 9925   0.978   1.921   6.608  0.8106 -0.0261 -0.2821
 1730Sol     HW 9926   0.888   1.948   6.590  0.7951 -0.1416 -0.3825
 1730Sol     HW 9927   1.005   1.973   6.683 -0.1242 -1.6595  1.2165
 1730Sol     MW 9928   0.972   1.928   6.613 -0.7892  0.5592 -0.1899
 1731Sol     OW 9929   0.340   2.745   3.322 -0.0707 -0.0051 -0.3972
 1731Sol     HW 9930   0.267   2.739   3.260  0.1450 -2.2534 -0.4791
 1731Sol     HW 9931   0.322   2.677   3.386 -0.0911  2.0599  1.8424
 1731Sol     MW 9932   0.332   2.738   3.322 -0.2550 -0.3175 -0.2544
 1732Sol     OW 9933   0.983   3.015   8.100 -0.2660 -0.3005  0.1536
 1732Sol     HW 9934   1.012   3.086   8.157  1.1192  0.4306 -1.4173
 1732Sol     HW 9935   0.942   2.952   8.159  2.0531 -0.0567  2.0964
 1732Sol     MW 9936   0.982   3.015   8.110  0.2951  0.4100 -0.0840
 1733Sol     OW 9937   2.382   2.482   3.590  0.3367 -0.1467 -0.5027
 1733Sol     HW 9938   2.391   2.575   3.566  0.8607 -0.7724 -2.8565
 1733Sol     HW 9939   2.439   2.471   3.665  1.4294  1.1356 -1.1187
 1733Sol     MW 9940   2.388   2.490   3.594 -0.2896  0.1296 -0.3626
 1734Sol     OW 9941   0.939   3.151   3.515  0.2427  0.2606 -0.4009
 1734Sol     HW 9942   0.935   3.121   3.606  0.8245 -0.8050 -0.7137
 1734Sol     HW 9943   1.012   3.213   3.512 -1.3599  2.2407  0.3900
 1734Sol     MW 9944   0.945   3.154   3.523  0.0708 -0.5439 -0.2104
 1735Sol     OW 9945   2.080   1.787   6.560  0.2412  0.1588  0.5188
 1735Sol     HW 9946   2.156   1.845   6.553  0.3398 -0.2156 -1.6138
 1735Sol     HW 9947   2.011   1.831   6.512  0.5896 -1.9029 -1.9601
 1735Sol     MW 9948   2.081   1.796   6.555  0.5284  0.4082  0.4314
 1736Sol     OW 9949   1.746   1.255   5.149 -0.0498  0.1459  0.1109
 1736Sol     HW 9950   1.816   1.247   5.085 -0.5724  1.6052 -0.6739
 1736Sol     HW 9951   1.765   1.188   5.214  2.0004  0.4368 -0.1464
 1736Sol     MW 9952   1.754   1.248   5.149 -0.0511  0.2404 -0.5380
 1737Sol     OW 9953   2.552   2.472   8.373 -0.1319 -0.3996  0.4822
 1737Sol     HW 9954   2.608   2.546   8.348 -1.1927  0.0582 -0.6077
 1737Sol     HW 9955   2.492   2.508   8.438 -0.0514 -0.5359  0.6325
 1737Sol     MW 9956   2.552   2.482   8.377 -0.1258  0.1450  0.5851
 1738Sol     OW 9957   3.203   0.635   2.652 -0.2835 -0.1558 -0.5575
 1738Sol     HW 9958   3.130   0.591   2.696  0.9169  0.2502  1.9516
 1738Sol     HW 9959   3.231   0.575   2.583 -0.9228 -1.7311  0.5549
 1738Sol     MW 9960   3.199   0.626   2.650  0.0722 -0.2517 -0.3082
 1739Sol     OW 9961   2.950   1.195   5.427  0.7524 -0.1671  0.2117
 1739Sol     HW 9962   2.915   1.114   5.464  2.6358  0.2012  2.9529
 1739Sol     HW 9963   2.935   1.187   5.333 -1.4652 -2.5062  0.7048
 1739Sol     MW 9964   2.945   1.187   5.422  0.2059  0.3457 -0.2909
 1740Sol     OW 9965   1.524   2.871   5.209  0.0656 -0.6277 -1.1960
 1740Sol     HW 9966   1.603   2.839   5.252 -1.5359 -0.6722  1.8542
 1740Sol     HW 9967   1.465   2.795   5.208 -0.8388  0.0594 -1.1583
 1740Sol     MW 9968   1.526   2.861   5.213  0.6635  0.2169  0.1217
 1741Sol     OW 9969   0.921   3.422   6.516  0.1564 -0.4367 -0.0220
 1741Sol     HW 9970   0.952   3.376   6.594 -2.0862  0.1869  1.2670
 1741Sol     HW 9971   0.851   3.367   6.482 -1.5088  1.2164  0.6532
 1741Sol     MW 9972   0.918   3.413   6.520 -0.1668 -0.6764 -0.1019
 1742Sol     OW 9973   1.080   2.545   1.631  0.1669  0.0727  0.4744
 1742Sol     HW 9974   1.043   2.632   1.618 -0.5325  0.4335  4.4461
 1742Sol     HW 9975   1.014   2.497   1.681  1.9676 -1.6452  1.3028
 1742Sol     MW 9976   1.071   2.548   1.634  0.4534 -0.4580  0.1561
 1743Sol     OW 9977   2.943   1.289   2.941  0.2253  0.3128  0.4854
 1743Sol     HW 9978   2.901   1.375   2.940 -2.2753 -0.8726 -1.6366
 1743Sol     HW 9979   2.875   1.230   2.974  0.8685 -1.3199 -1.0432
 1743Sol     MW 9980   2.933   1.292   2.944  0.1160  0.4016  0.4517
 1744Sol     OW 9981   1.577   0.947   7.401  0.1379 -0.0822 -0.2776
 1744Sol     HW 9982   1.546   0.973   7.315 -2.9524 -0.1837  0.7316
 1744Sol     HW 9983   1.534   0.863   7.419  0.5128  0.0638  1.4790
 1744Sol     MW 9984   1.571   0.942   7.395 -0.3969  0.0414  0.1477
 1745Sol     OW 9985   2.294   0.214   8.492 -0.5268  0.1372  0.2328
 1745Sol     HW 9986   2.387   0.196   8.505 -0.7072 -0.0531  1.2443
 1745Sol     HW 9987   2.280   0.300   8.530 -0.6708  0.3760 -0.3472
 1745Sol     MW 9988   2.301   0.220   8.496 -0.2075  0.3162  0.3343
 1746Sol     OW 9989   1.397   1.510   5.656  0.2625  0.0786  0.0055
 1746Sol     HW 9990   1.305   1.530   5.636  0.8618  2.5481 -0.3867
 1746Sol     HW 9991   1.434   1.484   5.572 -0.4529 -2.5800  0.4694
 1746Sol     MW 9992   1.392   1.509   5.647  0.5004 -0.6403 -0.8440
 1747Sol     OW 9993   1.420   2.633   7.453  0.7945 -0.5731  0.5730
 1747Sol     HW 9994   1.352   2.610   7.517 -0.0540 -0.7562 -0.3804
 1747Sol     HW 9995   1.422   2.729   7.454  0.3015 -0.5578  0.3825
 1747Sol     MW 9996   1.414   2.640   7.459  0.8057 -0.0180  0.2083
 1748Sol     OW 9997   0.690   2.942   2.382 -0.1373  0.9007  0.1941
 1748Sol     HW 9998   0.759   2.967   2.444  0.8887  0.6781 -0.8370
 1748Sol     HW 9999   0.667   2.852   2.408  1.0037  0.4346 -0.3509
 1748Sol     MW10000   0.694   2.936   2.390  0.6874  0.0970  0.1080
 1749Sol     OW10001   0.071   1.371   5.420 -0.2823  0.0320 -0.3646
 1749Sol     HW10002   0.134   1.400   5.353 -1.3258  1.9340 -0.5677
 1749Sol     HW10003  -0.013   1.367   5.374 -0.4275 -2.0366  0.0195
 1749Sol     MW10004   0.069   1.373   5.410 -0.4842 -0.1657 -0.5548
 1750Sol     OW10005   2.883   1.058   6.801  0.2056 -0.5279  0.1728
 1750Sol     HW10006   2.887   1.144   6.844  1.7988 -0.0087 -0.9951
 1750Sol     HW10007   2.791   1.048   6.776 -0.1215  0.5352  0.9136
 1750Sol     MW10008   2.875   1.065   6.803  0.4733 -0.1799  0.0806
 1751Sol     OW10009   0.681   2.518   4.515  0.4838  0.1488 -0.7770
 1751Sol     HW10010   0.759   2.556   4.556 -0.1265 -0.3022  0.8574
 1751Sol     HW10011   0.672   2.433   4.557 -0.9672  0.2570 -0.8657
 1751Sol     MW10012   0.687   2.514   4.523 -0.1819  0.3818 -0.1914
 1752Sol     OW10013   1.356   2.272   2.647  0.1896 -0.1091  0.4632
 1752Sol     HW10014   1.395   2.324   2.576 -0.6442 -0.7405 -0.4796
 1752Sol     HW10015   1.427   2.215   2.677  0.6864  0.5050  0.4649
 1752Sol     MW10016   1.366   2.272   2.643  0.3571  0.0260 -0.0358
 1753Sol     OW10017   0.852   1.497   2.657 -0.6878  0.0146 -0.0398
 1753Sol     HW10018   0.885   1.567   2.713 -1.3882  1.7603 -1.7509
 1753Sol     HW10019   0.913   1.424   2.671  2.3666  2.2358 -1.0781
 1753Sol     MW10020   0.861   1.496   2.663  0.4888  0.0560  0.1151
 1754Sol     OW10021   1.967   1.352   3.921 -0.5519  0.3727  0.3181
 1754Sol     HW10022   1.916   1.409   3.978 -1.7547 -1.0377  0.6668
 1754Sol     HW10023   1.963   1.266   3.962  2.0748  0.2287  0.3168
 1754Sol     MW10024   1.962   1.349   3.930  0.3397  0.8444  0.0865
 1755Sol     OW10025   2.947   1.083   5.911  0.0066 -0.1107 -0.1959
 1755Sol     HW10026   2.994   1.111   5.833 -1.5853 -0.9969 -1.4814
 1755Sol     HW10027   2.994   1.006   5.941 -0.0975 -0.4725 -0.9666
 1755Sol     MW10028   2.955   1.079   5.907 -0.7637 -0.1544  0.2546
 1756Sol     OW10029   0.406   0.943   6.102 -0.3537 -0.0391  0.5559
 1756Sol     HW10030   0.357   0.968   6.024 -2.5306 -0.1380  1.8652
 1756Sol     HW10031   0.413   1.023   6.153  0.2497 -0.1916  0.7270
 1756Sol     MW10032   0.403   0.952   6.099  0.0305 -0.3130  0.0301
 1757Sol     OW10033   2.432   0.261   4.809  0.2309  0.1396  0.3735
 1757Sol     HW10034   2.363   0.300   4.863  0.4234  0.3754  0.4512
 1757Sol     HW10035   2.505   0.247   4.869  0.5073  0.5691  0.1450
 1757Sol     MW10036   2.432   0.264   4.819 -0.2643 -0.1631  0.3308
 1758Sol     OW10037   0.371   2.282   4.780 -0.0801  0.1957  0.4346
 1758Sol     HW10038   0.388   2.234   4.861 -1.0670  2.2413  1.8798
 1758Sol     HW10039   0.411   2.368   4.794 -0.5073  0.6712 -1.1377
 1758Sol     MW10040   0.376   2.286   4.788 -0.3647  0.4774  0.6271
 1759Sol     OW10041   1.599   1.017   9.309  0.6069 -0.2916  0.0798
 1759Sol     HW10042   1.527   1.069   9.272  0.2893 -0.2581  0.7479
 1759Sol     HW10043   1.556   0.947   9.357  0.9636  0.7243  1.9469
 1759Sol     MW10044   1.589   1.016   9.310 -0.0418 -0.3271 -0.1959
 1760Sol     OW10045   1.460   2.819   3.486 -0.8727  0.0119 -0.0437
 1760Sol     HW10046   1.437   2.912   3.476 -2.2105 -0.4452 -1.3913
 1760Sol     HW10047   1.502   2.795   3.404 -1.2360 -0.7786 -0.0032
 1760Sol     MW10048   1.462   2.825   3.478  0.1275  0.1104  0.3496
 1761Sol     OW10049   1.683   2.110   7.471  0.0532  0.5598 -0.2436
 1761Sol     HW10050   1.707   2.019   7.487 -0.4487  0.5179  0.2773
 1761Sol     HW10051   1.681   2.118   7.376 -1.2732 -0.3291 -0.2943
 1761Sol     MW10052   1.685   2.103   7.464  0.1853 -0.0236  0.0533
 1762Sol     OW10053   2.415   0.363   4.061  0.1379 -0.0707  0.0357
 1762Sol     HW10054   2.402   0.272   4.034  0.1268 -0.4972  1.4122
 1762Sol     HW10055   2.483   0.358   4.128  0.3400  0.9752 -0.0869
 1762Sol     MW10056   2.420   0.354   4.065  0.2597  0.5588 -0.2880
 1763Sol     OW10057   2.430   2.424   3.319  0.5259 -0.0362  0.0632
 1763Sol     HW10058   2.381   2.345   3.300 -1.0096  1.1698 -1.1107
 1763Sol     HW10059   2.413   2.441   3.412 -1.0054  0.1793 -0.2482
 1763Sol     MW10060   2.424   2.419   3.326  0.3415  0.5895 -1.0611
 1764Sol     OW10061   2.708   2.078   2.695  0.6148 -0.1235  0.3460
 1764Sol     HW10062   2.646   2.111   2.761  0.0048  0.9416 -0.7398
 1764Sol     HW10063   2.793   2.081   2.739  0.0460 -0.6300  1.5089
 1764Sol     MW10064   2.710   2.082   2.705  0.2440  0.0752 -0.0428
 1765Sol     OW10065   0.277   0.282   5.832  0.6784 -0.3462 -0.0244
 1765Sol     HW10066   0.330   0.352   5.869 -0.3469 -0.2742  1.3266
 1765Sol     HW10067   0.293   0.287   5.738  2.1774  0.3974  0.2559
 1765Sol     MW10068   0.283   0.289   5.827 -0.4127 -0.4079 -0.3894
 1766Sol     OW10069   2.330   0.847   9.586 -0.6632 -0.4919  0.1228
 1766Sol     HW10070   2.247   0.842   9.632 -0.8617 -3.7491 -0.4913
 1766Sol     HW10071   2.306   0.845   9.493  0.0500 -0.3126 -0.0672
 1766Sol     MW10072   2.321   0.847   9.582 -0.1344 -0.0271  0.1140
 1767Sol     OW10073   0.350   2.626   9.033 -0.1070 -0.3401 -0.3591
 1767Sol     HW10074   0.315   2.622   8.944  1.0064 -0.7649 -0.7796
 1767Sol     HW10075   0.299   2.561   9.081  0.7999 -1.7113 -1.2224
 1767Sol     MW10076   0.342   2.620   9.029 -0.4408 -0.1871  0.6167
 1768Sol     OW10077   0.370   3.449   1.577  0.0118 -0.3366  0.3311
 1768Sol     HW10078   0.391   3.515   1.644  0.1631 -0.7525  0.6907
 1768Sol     HW10079   0.382   3.365   1.621  0.7149 -0.6208 -0.3988
 1768Sol     MW10080   0.373   3.448   1.587 -0.3365  0.2279  0.8210
 1769Sol     OW10081   2.164   1.214   8.542  0.0175  0.3164 -0.4002
 1769Sol     HW10082   2.253   1.231   8.513  0.2736 -0.9350 -0.3548
 1769Sol     HW10083   2.162   1.244   8.633  1.1375 -2.0727  0.4361
 1769Sol     MW10084   2.172   1.218   8.548  0.5185 -0.5876 -0.1740
 1770Sol     OW10085   2.742   0.160   7.007 -0.0943  0.4115 -0.0548
 1770Sol     HW10086   2.825   0.116   7.028  0.7889  1.6664 -0.8006
 1770Sol     HW10087   2.761   0.209   6.927 -1.4267  1.1018  0.0347
 1770Sol     MW10088   2.751   0.161   7.002  0.3206 -0.2165  0.0123
 1771Sol     OW10089   0.492   1.846   3.506  0.3830 -0.2071 -1.0745
 1771Sol     HW10090   0.493   1.932   3.549  1.7514 -0.3853 -0.7180
 1771Sol     HW10091   0.430   1.794   3.557 -1.3494  0.9130 -2.0051
 1771Sol     MW10092   0.487   1.849   3.515  0.1791  0.0219  0.4823
 1772Sol     OW10093   0.754   3.429   6.783  0.1787  0.1778 -0.2024
 1772Sol     HW10094   0.689   3.462   6.845  0.6273  1.6287 -0.4926
 1772Sol     HW10095   0.749   3.488   6.708 -0.0044 -1.2649 -1.3498
 1772Sol     MW10096   0.748   3.437   6.782  0.0829  0.2539  0.1003
 1773Sol     OW10097   0.844   3.299   1.883  1.0661  0.0190 -0.6536
 1773Sol     HW10098   0.784   3.338   1.948  2.5175 -0.9356  1.3149
 1773Sol     HW10099   0.882   3.374   1.837 -1.1813  0.6579 -1.5393
 1773Sol     MW10100   0.842   3.309   1.885 -0.0458  0.2506 -0.4567
 1774Sol     OW10101   2.013   3.330   1.899 -0.6254  0.2923 -0.7222
 1774Sol     HW10102   2.049   3.315   1.811 -0.4469  0.6120 -0.7053
 1774Sol     HW10103   2.066   3.276   1.957 -0.2430  0.6840 -0.7104
 1774Sol     MW10104   2.021   3.324   1.896 -0.1235  0.3613 -0.5274
 1775Sol     OW10105   0.305   1.801   5.438  0.2576  0.1227 -0.5726
 1775Sol     HW10106   0.377   1.862   5.423  0.1647  0.3700 -0.0347
 1775Sol     HW10107   0.253   1.803   5.357 -0.1455  1.2964 -0.2895
 1775Sol     MW10108   0.306   1.806   5.430 -0.0586 -0.1648 -0.2025
 1776Sol     OW10109   0.269   0.826   3.789 -0.3284 -0.0277  0.5764
 1776Sol     HW10110   0.278   0.872   3.706 -1.3126 -2.7391 -1.0830
 1776Sol     HW10111   0.358   0.797   3.810  0.0436  1.2977  0.8838
 1776Sol     MW10112   0.278   0.828   3.783 -0.0198 -0.1001 -0.4216
 1777Sol     OW10113   1.391   0.112   1.405  0.2947 -0.2225 -0.2270
 1777Sol     HW10114   1.338   0.034   1.418 -0.2078 -0.0022 -0.9460
 1777Sol     HW10115   1.468   0.098   1.460 -0.3933 -0.6474  0.6299
 1777Sol     MW10116   1.393   0.104   1.411  0.2856  0.4640  0.0727
 1778Sol     OW10117   0.919   2.715   3.795 -0.1288  0.1681 -0.6599
 1778Sol     HW10118   0.846   2.696   3.736  0.0804 -2.6524 -0.0631
 1778Sol     HW10119   0.931   2.810   3.788 -1.9323  0.2749 -2.9967
 1778Sol     MW10120   0.914   2.722   3.789 -0.1798 -0.1206  0.3906
 1779Sol     OW10121   0.703   2.673   3.619 -0.1073  0.1997 -0.2423
 1779Sol     HW10122   0.627   2.706   3.667 -0.1220  3.2272 -2.2153
 1779Sol     HW10123   0.683   2.688   3.527  1.6783 -1.6222 -0.9695
 1779Sol     MW10124   0.695   2.678   3.615 -0.3665  0.3798 -0.0183
 1780Sol     OW10125   2.095   1.290   8.793  0.2077 -0.3903  0.3227
 1780Sol     HW10126   2.012   1.328   8.765 -0.4496 -1.3857  0.8727
 1780Sol     HW10127   2.093   1.295   8.889  1.9343  1.9519  0.2632
 1780Sol     MW10128   2.087   1.294   8.799 -0.5574  0.1578  0.1754
 1781Sol     OW10129   2.269   1.555   7.651  0.1326  0.6036 -0.0454
 1781Sol     HW10130   2.341   1.548   7.714  3.2443  1.2876 -3.3408
 1781Sol     HW10131   2.229   1.640   7.670  2.5039  1.8562 -0.3754
 1781Sol     MW10132   2.272   1.562   7.658  0.3957  0.4448 -0.7213
 1782Sol     OW10133   1.567   2.684   2.623  0.2919 -0.1980  0.2223
 1782Sol     HW10134   1.499   2.626   2.589 -0.6595  0.0370  1.6376
 1782Sol     HW10135   1.648   2.634   2.616  0.1700 -0.0952 -2.4636
 1782Sol     MW10136   1.568   2.674   2.619  0.4456  0.7985  0.0455
 1783Sol     OW10137   0.010   2.934   2.478  0.2038  0.0068  0.1060
 1783Sol     HW10138   0.025   2.891   2.562  0.2358  0.6627  0.4434
 1783Sol     HW10139  -0.051   3.005   2.498 -0.0601 -0.0527 -0.4882
 1783Sol     MW10140   0.006   2.937   2.488  0.3091  0.1190  0.1016
 1784Sol     OW10141   2.047   3.066   4.162 -0.0930 -0.2350  0.1231
 1784Sol     HW10142   2.111   3.124   4.120 -0.2367  0.2037  0.4988
 1784Sol     HW10143   1.981   3.126   4.198 -0.4828 -0.6615  0.1225
 1784Sol     MW10144   2.047   3.077   4.161 -0.5953  0.1405 -0.4378
 1785Sol     OW10145   1.556   3.095   8.420 -0.2129  0.3845 -0.2458
 1785Sol     HW10146   1.518   3.020   8.466 -3.0414  2.1985  0.4560
 1785Sol     HW10147   1.542   3.076   8.327  1.9228 -1.3843 -0.2631
 1785Sol     MW10148   1.552   3.086   8.416 -0.5033  0.4971  0.1008
 1786Sol     OW10149   0.340   1.991   2.384 -0.0592 -0.5212 -0.0933
 1786Sol     HW10150   0.425   1.967   2.420 -1.0400 -3.5832  0.2833
 1786Sol     HW10151   0.333   1.941   2.303 -2.0345 -1.3324  0.5568
 1786Sol     MW10152   0.347   1.984   2.380  0.3658  0.0017 -0.9919
 1787Sol     OW10153   1.512   0.313   8.498 -1.0987  0.1201 -0.3556
 1787Sol     HW10154   1.515   0.314   8.594 -0.9949 -1.2416 -0.3310
 1787Sol     HW10155   1.563   0.389   8.472  0.4176 -0.5096  0.6654
 1787Sol     MW10156   1.517   0.320   8.505  0.4740  0.4514  0.2144
 1788Sol     OW10157   1.007   0.106   8.430  0.2826 -0.4630  0.3968
 1788Sol     HW10158   1.013   0.016   8.463  1.5933 -0.3021  0.6136
 1788Sol     HW10159   0.918   0.112   8.395 -0.0410 -1.6391  0.9748
 1788Sol     MW10160   1.000   0.098   8.430 -0.0654  0.5106  0.0229
 1789Sol     OW10161   1.823   1.426   5.607  0.0529 -0.3147 -0.0745
 1789Sol     HW10162   1.848   1.341   5.571 -0.5138 -1.0855  1.3295
 1789Sol     HW10163   1.903   1.477   5.604  0.3014 -0.7561 -1.3108
 1789Sol     MW10164   1.832   1.423   5.604  0.4186  0.1199 -1.0094
 1790Sol     OW10165   2.258   0.444   6.881 -0.0561  0.5952 -0.2818
 1790Sol     HW10166   2.265   0.498   6.961 -2.7826 -0.6640  0.8654
 1790Sol     HW10167   2.284   0.357   6.909 -1.3846  0.0664 -0.6591
 1790Sol     MW10168   2.261   0.441   6.891 -0.0451  0.0454 -0.3690
 1791Sol     OW10169   0.449   1.047   2.883 -0.0347 -0.0860 -0.1097
 1791Sol     HW10170   0.517   1.110   2.909 -0.1815 -0.3812  1.0185
 1791Sol     HW10171   0.371   1.101   2.869 -0.2952 -0.0588  1.3591
 1791Sol     MW10172   0.448   1.058   2.884 -0.8677  0.6385  0.0755
 1792Sol     OW10173   3.005   0.052   2.190 -0.3821  0.0680  0.1482
 1792Sol     HW10174   3.002   0.084   2.099  0.7874 -1.1520 -0.3381
 1792Sol     HW10175   3.055   0.119   2.237 -2.2950  1.4595  0.2277
 1792Sol     MW10176   3.009   0.061   2.186  0.4931  0.5823  0.2426
 1793Sol     OW10177   3.287   0.701   6.997 -0.1654 -0.3693 -0.1320
 1793Sol     HW10178   3.213   0.755   6.969  1.3798  0.7245 -2.2009
 1793Sol     HW10179   3.296   0.719   7.091 -1.2473  1.0151 -0.2858
 1793Sol     MW10180   3.281   0.707   7.003  0.3160  0.3901  0.6333
 1794Sol     OW10181   1.158   1.019   1.558  0.0734 -0.3317 -0.2228
 1794Sol     HW10182   1.180   1.003   1.650 -0.1216  2.0960  0.2904
 1794Sol     HW10183   1.063   1.022   1.556  0.0710 -0.6801 -0.5525
 1794Sol     MW10184   1.152   1.018   1.566  0.3034  0.3956  0.2845
 1795Sol     OW10185   2.376   3.436   5.375 -0.7462  0.7343 -0.0066
 1795Sol     HW10186   2.466   3.462   5.389 -0.6669  0.7646 -0.5307
 1795Sol     HW10187   2.354   3.471   5.288 -1.1919  0.5532  0.0280
 1795Sol     MW10188   2.382   3.441   5.368  0.0003 -0.6683  0.4180
 1796Sol     OW10189   2.965   0.129   5.430 -0.1340 -0.0983 -0.1181
 1796Sol     HW10190   2.879   0.144   5.470  0.5953  1.9170  0.7720
 1796Sol     HW10191   2.996   0.049   5.472 -0.9135  0.0172  0.7158
 1796Sol     MW10192   2.960   0.123   5.437  0.5647 -0.0580 -0.3384
 1797Sol     OW10193   3.133   2.551   8.269  0.4187  0.0571  0.5072
 1797Sol     HW10194   3.111   2.633   8.314 -0.4677 -0.1310  0.4246
 1797Sol     HW10195   3.204   2.513   8.321  1.0168  1.0035  0.4018
 1797Sol     MW10196   3.138   2.555   8.277  0.1551 -0.4031 -0.3036
 1798Sol     OW10197   2.352   1.931   6.609 -0.1244  0.7095 -0.1999
 1798Sol     HW10198   2.444   1.919   6.588  0.1616 -0.4981  1.6579
 1798Sol     HW10199   2.349   1.935   6.704 -2.0395  0.2092 -0.2141
 1798Sol     MW10200   2.360   1.930   6.616  0.5830  0.1924  0.1190
 1799Sol     OW10201   2.699   3.376   9.220  0.1934  0.0022 -0.0158
 1799Sol     HW10202   2.769   3.395   9.158 -0.3902  0.0804 -0.6659
 1799Sol     HW10203   2.629   3.436   9.196 -0.3258 -0.5007  0.2289
 1799Sol     MW10204   2.699   3.383   9.212  1.2692  0.1434 -0.5417
 1800Sol     OW10205   1.139   1.714   8.215  0.0806  0.2743  0.0229
 1800Sol     HW10206   1.229   1.724   8.245 -0.0055  0.4196  0.2389
 1800Sol     HW10207   1.137   1.759   8.130  0.0538  0.8461  0.3220
 1800Sol     MW10208   1.147   1.719   8.210 -0.9689  0.1338  0.0966
 1801Sol     OW10209   0.785   0.007   4.355  0.0397 -0.1238 -0.3064
 1801Sol     HW10210   0.774  -0.082   4.389  0.4456  0.2112  0.7344
 1801Sol     HW10211   0.873   0.007   4.318  0.6004  0.2580  1.0110
 1801Sol     MW10212   0.792  -0.001   4.355  0.4194  0.3604  0.4930
 1802Sol     OW10213   1.886   1.097   8.636  0.7427 -0.2937  0.0697
 1802Sol     HW10214   1.793   1.113   8.648  0.7990 -0.5697  0.8840
 1802Sol     HW10215   1.925   1.185   8.637  0.3331 -0.0650 -1.7866
 1802Sol     MW10216   1.881   1.107   8.637 -0.6159 -0.8349  0.5692
 1803Sol     OW10217   0.308   2.616   4.272 -0.0133 -0.1171 -0.3901
 1803Sol     HW10218   0.313   2.621   4.368  1.4493 -0.9512 -0.3962
 1803Sol     HW10219   0.314   2.522   4.254  1.7321  0.1728 -1.3831
 1803Sol     MW10220   0.309   2.608   4.279  0.1328 -0.0798 -0.6244
 1804Sol     OW10221   0.814   1.836   4.618  0.1992 -0.1167  0.0209
 1804Sol     HW10222   0.884   1.795   4.568  0.2089  1.5277 -1.3863
 1804Sol     HW10223   0.816   1.793   4.703  1.3628 -1.7255 -0.7991
 1804Sol     MW10224   0.820   1.829   4.621  0.2612  0.6069 -0.3317
 1805Sol     OW10225   3.229   2.135   9.127 -0.2623 -0.3882  0.6461
 1805Sol     HW10226   3.168   2.199   9.090  0.3133  0.0638  0.4686
 1805Sol     HW10227   3.184   2.051   9.119 -1.2154  0.0582  1.3242
 1805Sol     MW10228   3.220   2.133   9.123  0.0255 -0.0399 -0.4822
 1806Sol     OW10229   3.099   1.203   8.240 -0.7988 -0.1697  0.1023
 1806Sol     HW10230   3.187   1.212   8.277 -0.7466 -0.7761  0.1245
 1806Sol     HW10231   3.110   1.145   8.165 -1.3610 -1.1599  0.7713
 1806Sol     MW10232   3.108   1.199   8.237  0.3494 -0.3625  0.1568
 1807Sol     OW10233   1.288   0.950   9.236  0.0884  0.3962 -0.1103
 1807Sol     HW10234   1.306   0.881   9.300  0.9679  0.0644 -0.7041
 1807Sol     HW10235   1.262   0.903   9.156 -0.0382  0.7783 -0.2927
 1807Sol     MW10236   1.287   0.940   9.235  0.3856  0.4770 -0.1593
 1808Sol     OW10237   1.664   3.299   9.164  0.2427 -0.3865  0.4814
 1808Sol     HW10238   1.621   3.215   9.144  1.7938 -1.1532  0.2862
 1808Sol     HW10239   1.645   3.314   9.256 -1.4303 -0.1155  0.1089
 1808Sol     MW10240   1.658   3.292   9.170 -0.4641 -1.0160 -0.0424
 1809Sol     OW10241   1.908   0.502   3.703 -0.0235 -0.1903  0.6215
 1809Sol     HW10242   1.849   0.435   3.739  0.0750 -0.6071  0.0297
 1809Sol     HW10243   1.872   0.521   3.616 -0.2318  0.7662  0.9100
 1809Sol     MW10244   1.900   0.497   3.699  0.1773 -0.0362  0.4965
 1810Sol     OW10245   1.501   3.331   6.830 -0.5924 -0.6576 -0.0672
 1810Sol     HW10246   1.540   3.408   6.871  0.2942 -0.4262 -1.3057
 1810Sol     HW10247   1.574   3.270   6.818 -1.1124 -1.3101  0.0584
 1810Sol     MW10248   1.511   3.333   6.832 -0.0332  0.4246  0.0659
 1811Sol     OW10249   0.609   0.340   2.506  0.2524 -0.1248  0.1672
 1811Sol     HW10250   0.689   0.286   2.505  1.8400  2.1447 -0.9771
 1811Sol     HW10251   0.608   0.380   2.593 -0.9178 -1.9437  1.0115
 1811Sol     MW10252   0.616   0.339   2.513 -0.1051 -0.3073 -0.3633
 1812Sol     OW10253   1.382   1.922   6.076  0.4644 -0.4423 -0.1071
 1812Sol     HW10254   1.325   1.845   6.068  0.7199 -0.5472 -0.9506
 1812Sol     HW10255   1.348   1.968   6.154 -0.9188 -0.3935 -0.7130
 1812Sol     MW10256   1.374   1.919   6.083 -0.0338  0.1861 -0.6829
 1813Sol     OW10257   0.012   3.180   5.475  0.0773  0.0692 -0.2989
 1813Sol     HW10258   0.015   3.221   5.562  1.4755  1.9762 -1.2122
 1813Sol     HW10259  -0.047   3.236   5.425  0.8210  0.1047 -1.1365
 1813Sol     MW10260   0.007   3.189   5.479 -0.1727  0.2483 -0.4330
 1814Sol     OW10261   1.107   3.240   2.283  0.1934  0.2340  0.0909
 1814Sol     HW10262   1.109   3.335   2.268  0.2018  0.2892  0.4219
 1814Sol     HW10263   1.178   3.225   2.346  1.3657 -0.2529 -1.3266
 1814Sol     MW10264   1.113   3.247   2.288 -0.4992  0.2963  0.3777
 1815Sol     OW10265   1.253   3.086   6.468  0.5026 -0.1243 -0.1327
 1815Sol     HW10266   1.169   3.043   6.452 -0.3287  1.5978 -0.5454
 1815Sol     HW10267   1.248   3.117   6.558  0.1155  1.2270 -0.6128
 1815Sol     MW10268   1.245   3.085   6.474 -0.2093 -0.4783 -0.4986
 1816Sol     OW10269   1.893   2.268   5.568 -0.2962  0.0687 -0.2733
 1816Sol     HW10270   1.945   2.331   5.519  1.0261 -2.0655 -1.6909
 1816Sol     HW10271   1.804   2.279   5.536  0.6005 -1.5364 -3.4737
 1816Sol     MW10272   1.890   2.275   5.561  0.1625 -0.4949  0.7138
 1817Sol     OW10273   1.958   0.069   9.100  0.0443 -0.5589 -0.0513
 1817Sol     HW10274   2.052   0.074   9.115  0.1353  1.5349 -1.1191
 1817Sol     HW10275   1.943   0.123   9.022 -2.2923  0.9269  1.3499
 1817Sol     MW10276   1.965   0.074   9.094  0.0028  0.2080  0.7207
 1818Sol     OW10277   1.889   2.114   5.977 -0.2392 -0.3314 -0.0786
 1818Sol     HW10278   1.858   2.091   5.890 -0.2061  1.3230 -0.5452
 1818Sol     HW10279   1.953   2.184   5.962 -0.7609  0.4697  1.3157
 1818Sol     MW10280   1.892   2.119   5.968 -0.2778 -0.2712 -0.3240
 1819Sol     OW10281   2.065   0.419   5.204  0.0040  0.2651 -0.1330
 1819Sol     HW10282   2.022   0.443   5.286  1.0913 -2.2482  1.2604
 1819Sol     HW10283   2.018   0.341   5.174  0.1351  0.6897 -1.4621
 1819Sol     MW10284   2.057   0.414   5.209 -0.1524 -0.3788  0.5629
 1820Sol     OW10285   3.271   0.999   1.647 -0.3748 -0.3944  0.8202
 1820Sol     HW10286   3.211   0.973   1.578 -0.9094 -0.4941  1.3154
 1820Sol     HW10287   3.222   1.064   1.698  0.3580  0.3709  0.5474
 1820Sol     MW10288   3.261   1.002   1.646  0.2870  0.0983  0.1433
 1821Sol     OW10289   3.196   0.103   8.719 -0.3591 -0.3885  0.6249
 1821Sol     HW10290   3.178   0.190   8.754 -0.4909 -0.8013  1.5920
 1821Sol     HW10291   3.114   0.055   8.732 -0.3159 -0.6338  0.0084
 1821Sol     MW10292   3.187   0.107   8.723  0.6560 -0.0255  0.2962
 1822Sol     OW10293   2.119   2.010   8.515 -0.3583 -0.5273 -0.3064
 1822Sol     HW10294   2.096   1.951   8.444 -0.8660 -0.2043 -0.4106
 1822Sol     HW10295   2.214   2.000   8.525 -0.3822 -1.0432 -0.6020
 1822Sol     MW10296   2.126   2.004   8.510  0.4255  0.6023  0.2563
 1823Sol     OW10297   3.275   0.098   5.642 -0.4880  0.2546  0.0710
 1823Sol     HW10298   3.308   0.187   5.655 -0.0243  0.1825 -0.6248
 1823Sol     HW10299   3.327   0.063   5.570  0.4032 -1.1462  1.3905
 1823Sol     MW10300   3.282   0.103   5.636  0.1297  0.6103 -0.1971
 1824Sol     OW10301   2.444   1.466   6.726 -0.6897 -0.5525 -0.3015
 1824Sol     HW10302   2.406   1.389   6.767 -1.9836  0.3824  0.2970
 1824Sol     HW10303   2.382   1.537   6.746  1.5082  1.0575  0.9422
 1824Sol     MW10304   2.435   1.466   6.731 -0.1122 -0.3196  0.4814
 1825Sol     OW10305   2.902   0.635   9.793 -0.1203 -0.1090 -0.1366
 1825Sol     HW10306   2.819   0.588   9.779 -0.0874 -0.2713  0.2168
 1825Sol     HW10307   2.968   0.566   9.793  0.0285  0.0330 -0.5280
 1825Sol     MW10308   2.900   0.625   9.791 -0.1311 -0.2054  0.5541
 1826Sol     OW10309   0.694   2.416   3.684 -0.3319 -0.4589  0.1757
 1826Sol     HW10310   0.735   2.351   3.626 -1.8730  1.2387 -2.9407
 1826Sol     HW10311   0.706   2.499   3.639 -0.3060  1.1519  3.0691
 1826Sol     MW10312   0.698   2.417   3.675  0.1208  0.2364 -0.2143
 1827Sol     OW10313   3.068   0.880   6.919 -0.1415  0.0040 -0.2427
 1827Sol     HW10314   3.053   0.923   7.003 -1.2839 -0.3656 -0.2510
 1827Sol     HW10315   3.001   0.916   6.861 -0.6086 -1.1808 -0.4595
 1827Sol     MW10316   3.060   0.887   6.922  0.2089 -0.0970  0.2338
 1828Sol     OW10317   2.465   0.798   9.015  0.3597  0.0932 -0.5186
 1828Sol     HW10318   2.403   0.845   8.959 -0.9585  0.7486  1.4365
 1828Sol     HW10319   2.466   0.848   9.097  2.2749 -0.8258  0.0457
 1828Sol     MW10320   2.460   0.807   9.018  0.0957  0.5122  0.1141
 1829Sol     OW10321   2.954   2.841   7.131 -0.0616  0.2399 -0.2597
 1829Sol     HW10322   2.924   2.804   7.214 -0.2419  0.0765 -0.3965
 1829Sol     HW10323   2.907   2.791   7.065  0.6528 -0.1348 -0.4796
 1829Sol     MW10324   2.947   2.833   7.133 -0.7427  0.2007 -0.6578
 1830Sol     OW10325   0.148   0.198   3.373 -0.6211  0.3031  0.0649
 1830Sol     HW10326   0.158   0.261   3.301 -0.5996 -0.1817 -0.3648
 1830Sol     HW10327   0.237   0.163   3.386 -0.2733  1.6802  1.5356
 1830Sol     MW10328   0.157   0.201   3.367 -0.5293 -0.0591 -0.2210
 1831Sol     OW10329   1.881   0.303   4.731  0.5313  0.4824 -0.1718
 1831Sol     HW10330   1.935   0.381   4.725  0.4723  0.4867 -0.7047
 1831Sol     HW10331   1.917   0.244   4.664  1.5138 -0.5243  1.2118
 1831Sol     MW10332   1.889   0.304   4.724 -0.1948  0.1784  0.1166
 1832Sol     OW10333   0.918   1.297   9.609 -0.3379 -0.1058  0.1117
 1832Sol     HW10334   0.912   1.371   9.670 -0.7292 -0.3337  0.3530
 1832Sol     HW10335   0.986   1.241   9.646  0.5710  0.5606 -0.5367
 1832Sol     MW10336   0.923   1.299   9.618 -0.1350  0.6114 -0.7141
 1833Sol     OW10337   1.390   1.223   9.243 -0.5384  0.1683  0.5080
 1833Sol     HW10338   1.372   1.258   9.330  0.4946  2.0200  0.0038
 1833Sol     HW10339   1.329   1.150   9.234 -3.4009  2.3502  1.2852
 1833Sol     MW10340   1.383   1.220   9.250 -0.1713 -0.6387 -0.2838
 1834Sol     OW10341   1.466   3.092   3.469 -0.1614 -0.9411 -0.0304
 1834Sol     HW10342   1.415   3.163   3.430 -2.3665 -2.1645  0.5698
 1834Sol     HW10343   1.523   3.136   3.533  1.0574  0.6652 -2.1528
 1834Sol     MW10344   1.467   3.102   3.471 -0.1100 -0.2838 -0.0898
 1835Sol     OW10345   2.233   1.104   4.967  0.6429  0.1561  0.0030
 1835Sol     HW10346   2.231   1.009   4.983  0.6181  0.0496 -0.6170
 1835Sol     HW10347   2.217   1.113   4.873 -0.3565  0.8296  0.2337
 1835Sol     MW10348   2.232   1.096   4.960  0.4779 -0.0465 -0.0557
 1836Sol     OW10349   1.952   3.395   7.630 -0.4656  0.0913  0.1785
 1836Sol     HW10350   1.977   3.390   7.723  0.9547 -0.5566 -0.2212
 1836Sol     HW10351   1.880   3.333   7.622 -0.3956 -0.0788  0.7949
 1836Sol     MW10352   1.948   3.389   7.638 -0.5481  0.2755 -0.3541
 1837Sol     OW10353   1.529   1.875   3.595 -0.0770 -0.2473 -0.7384
 1837Sol     HW10354   1.574   1.796   3.563  2.0018  0.3531  0.5930
 1837Sol     HW10355   1.498   1.919   3.516  2.5629 -0.1885 -1.7771
 1837Sol     MW10356   1.530   1.872   3.585 -0.1205 -0.0279 -0.2889
 1838Sol     OW10357   1.879   0.656   6.741  0.3469 -0.0279  0.3517
 1838Sol     HW10358   1.920   0.596   6.803  0.0164 -0.1954  0.4050
 1838Sol     HW10359   1.821   0.601   6.689  1.8303 -0.2028 -1.1958
 1838Sol     MW10360   1.878   0.646   6.742  0.4087 -0.1167  0.3143
 1839Sol     OW10361   3.251   0.716   5.033  0.0656  0.0519  0.3020
 1839Sol     HW10362   3.292   0.793   5.073 -0.4861 -0.6419  2.2586
 1839Sol     HW10363   3.181   0.692   5.093  0.4964 -2.2204 -0.0482
 1839Sol     MW10364   3.249   0.721   5.042  0.2154  0.2526 -0.4873
 1840Sol     OW10365   1.211   0.868   9.582  0.0832  0.4703 -0.8386
 1840Sol     HW10366   1.133   0.850   9.529 -1.5800 -0.1165  1.7391
 1840Sol     HW10367   1.274   0.801   9.555 -1.3674 -0.9301 -0.8384
 1840Sol     MW10368   1.210   0.860   9.575  0.5767  0.4317  0.3261
 1841Sol     OW10369   0.992   3.225   9.659 -0.4428  0.4301 -0.0148
 1841Sol     HW10370   1.000   3.173   9.580  1.0253 -0.4034  0.6696
 1841Sol     HW10371   0.898   3.225   9.678 -0.4418 -2.3265  0.1934
 1841Sol     MW10372   0.984   3.221   9.654  0.4601  0.1025  0.0378
 1842Sol     OW10373   1.185   2.727   8.062  0.2142  0.6534  0.0986
 1842Sol     HW10374   1.132   2.655   8.097 -1.3601  1.6496 -0.2116
 1842Sol     HW10375   1.192   2.789   8.133  0.2738  0.9075 -0.1291
 1842Sol     MW10376   1.181   2.726   8.071  1.0001 -0.6082 -0.0256
 1843Sol     OW10377   1.387   2.492   9.032 -0.0650  0.2218  0.3837
 1843Sol     HW10378   1.329   2.562   9.061  0.2822  0.1406  1.2827
 1843Sol     HW10379   1.388   2.499   8.936  2.3291  3.3742  0.5811
 1843Sol     MW10380   1.382   2.499   9.026  0.0119  0.2384  0.4041
 1844Sol     OW10381   1.880   1.706   8.954  0.5548 -0.2722 -0.3103
 1844Sol     HW10382   1.887   1.791   8.912 -1.6720  0.4371  0.7009
 1844Sol     HW10383   1.873   1.725   9.047  0.9496 -1.6090  0.0049
 1844Sol     MW10384   1.880   1.715   8.958 -0.0897 -0.8298  0.3071
 1845Sol     OW10385   1.632   2.278   5.463 -0.3599  0.2406  0.0300
 1845Sol     HW10386   1.572   2.263   5.389 -0.1496  1.3400 -0.3701
 1845Sol     HW10387   1.588   2.238   5.537 -1.1956  0.2649 -0.4402
 1845Sol     MW10388   1.622   2.273   5.463  0.2867  0.1344  0.4195
 1846Sol     OW10389   1.591   2.462   1.744 -0.1314 -0.0614 -0.1566
 1846Sol     HW10390   1.508   2.510   1.741  0.1719  0.5444  0.8705
 1846Sol     HW10391   1.658   2.531   1.750  0.3706 -0.5835  0.2233
 1846Sol     MW10392   1.590   2.473   1.744 -0.3525  0.4795 -0.0153
 1847Sol     OW10393   2.496   2.345   5.819 -0.0151 -0.2748  0.5585
 1847Sol     HW10394   2.511   2.437   5.840  0.7140 -0.6337  1.6331
 1847Sol     HW10395   2.577   2.300   5.845  0.3108 -0.9730 -1.5922
 1847Sol     MW10396   2.504   2.349   5.823 -0.1718  0.0324  0.1321
 1848Sol     OW10397   1.516   1.030   5.298  0.2515  0.1139  0.5576
 1848Sol     HW10398   1.432   0.989   5.317 -0.2538 -0.0151 -1.8551
 1848Sol     HW10399   1.504   1.074   5.214  2.6622 -0.1310  0.0292
 1848Sol     MW10400   1.508   1.031   5.292 -0.0853  0.1408  0.0480
 1849Sol     OW10401   3.315   3.199   3.977 -0.2813 -0.2804 -0.3681
 1849Sol     HW10402   3.321   3.136   4.048 -1.5403  0.0947  0.0993
 1849Sol     HW10403   3.233   3.245   3.994 -2.0004 -1.9869 -3.5197
 1849Sol     MW10404   3.308   3.197   3.985  0.4330  0.5778 -0.0712
 1850Sol     OW10405   1.315   0.105   2.549  0.0269 -0.0670  0.3489
 1850Sol     HW10406   1.359   0.134   2.630  0.9491 -1.3647  0.3289
 1850Sol     HW10407   1.355   0.160   2.481 -1.6121  1.8709  0.9027
 1850Sol     MW10408   1.323   0.113   2.550 -0.4973  0.5355 -0.4045
 1851Sol     OW10409   1.067   2.230   2.395  0.2684 -0.2890 -0.0717
 1851Sol     HW10410   0.984   2.230   2.348  0.7230  4.3215 -1.0599
 1851Sol     HW10411   1.122   2.169   2.346 -0.1368  2.3783 -3.9890
 1851Sol     MW10412   1.065   2.224   2.387 -0.1369 -0.3995  0.2816
 1852Sol     OW10413   1.867   0.917   5.888  0.2941 -0.5134  0.1219
 1852Sol     HW10414   1.864   0.913   5.792 -1.7481  1.9127  0.0351
 1852Sol     HW10415   1.903   1.004   5.907  0.0893 -0.7347  1.5513
 1852Sol     MW10416   1.870   0.925   5.881 -0.2963 -0.2964  0.1504
 1853Sol     OW10417   0.806   2.933   2.833 -0.2100  0.3309  0.6467
 1853Sol     HW10418   0.724   2.981   2.825 -0.3261  0.3162  1.6382
 1853Sol     HW10419   0.787   2.864   2.896 -0.1011 -1.1535 -0.9181
 1853Sol     MW10420   0.797   2.931   2.838 -0.0590 -0.2820 -0.2175
 1854Sol     OW10421   0.120   2.633   2.529 -0.3015 -0.1968 -0.1891
 1854Sol     HW10422   0.094   2.696   2.596  0.3297 -0.1968  0.0556
 1854Sol     HW10423   0.037   2.603   2.492 -0.6836 -0.5906  0.9577
 1854Sol     MW10424   0.110   2.636   2.532 -0.2775  0.1885 -0.3431
 1855Sol     OW10425   1.743   1.307   9.789 -0.3371  0.5962 -0.2457
 1855Sol     HW10426   1.674   1.350   9.838 -0.5221  0.5064 -0.4270
 1855Sol     HW10427   1.819   1.366   9.796 -0.1420  0.2291  0.7681
 1855Sol     MW10428   1.744   1.316   9.794 -0.6835 -0.3951  0.1693
 1856Sol     OW10429   2.512   1.746   9.668 -0.5424  0.3647 -0.3050
 1856Sol     HW10430   2.530   1.836   9.696  0.9843 -0.2149  0.6640
 1856Sol     HW10431   2.547   1.741   9.579  0.3289  0.4534  0.0216
 1856Sol     MW10432   2.517   1.753   9.663 -0.2686 -0.5624 -0.7863
 1857Sol     OW10433   2.920   2.372   4.483  0.2215 -0.0072 -0.5974
 1857Sol     HW10434   2.995   2.312   4.479 -0.5243 -0.9236 -1.0361
 1857Sol     HW10435   2.874   2.347   4.562 -0.1961 -0.1294 -0.8810
 1857Sol     MW10436   2.923   2.364   4.490  0.4502 -0.1274  0.5719
 1858Sol     OW10437   3.101   0.102   6.072 -0.7901  1.4118  0.3975
 1858Sol     HW10438   3.187   0.059   6.079 -1.2663  0.3341 -0.1890
 1858Sol     HW10439   3.111   0.184   6.120  0.3333  0.9202  1.0317
 1858Sol     MW10440   3.110   0.105   6.077 -0.2758 -0.4452  0.0747
 1859Sol     OW10441   3.096   2.342   7.893 -0.2356 -0.2184 -0.5108
 1859Sol     HW10442   3.052   2.353   7.977 -1.5831 -1.1991 -1.0790
 1859Sol     HW10443   3.168   2.281   7.911  0.1050  0.3616  0.1326
 1859Sol     MW10444   3.098   2.338   7.902 -0.2207 -0.1768 -0.4388
 1860Sol     OW10445   1.870   2.614   8.613  0.1508 -0.4340  0.1771
 1860Sol     HW10446   1.879   2.641   8.521 -1.5017 -2.4022 -0.5973
 1860Sol     HW10447   1.908   2.687   8.663 -0.4148  1.4177 -1.9954
 1860Sol     MW10448   1.874   2.623   8.609 -0.6570  0.8574  0.4708
 1861Sol     OW10449   2.762   2.942   6.091  0.0327 -0.1729 -0.2143
 1861Sol     HW10450   2.851   2.937   6.125 -0.0050  1.7253  0.2136
 1861Sol     HW10451   2.760   3.022   6.039 -1.4618 -0.1080 -0.0893
 1861Sol     MW10452   2.770   2.949   6.089  0.0349 -0.9143  0.3881
 1862Sol     OW10453   2.743   2.827   9.447  0.1830  0.0986  0.3304
 1862Sol     HW10454   2.654   2.851   9.473  0.5513  0.7288  1.0501
 1862Sol     HW10455   2.788   2.911   9.438  0.8459 -0.2362  0.4957
 1862Sol     MW10456   2.739   2.837   9.449  1.1142  0.3210 -0.1852
 1863Sol     OW10457   0.576   1.762   2.953 -0.4512 -0.1139 -0.2940
 1863Sol     HW10458   0.574   1.856   2.934  1.0978 -0.3185 -1.5841
 1863Sol     HW10459   0.557   1.720   2.870 -1.0228 -0.9548  0.2539
 1863Sol     MW10460   0.574   1.767   2.944 -0.6605  0.6501  0.2253
 1864Sol     OW10461   1.267   1.490   1.417  0.0703 -0.5269  0.4162
 1864Sol     HW10462   1.345   1.513   1.467 -0.5372 -0.2125  1.2222
 1864Sol     HW10463   1.239   1.407   1.455 -0.2171 -0.4420  0.3850
 1864Sol     MW10464   1.272   1.484   1.425 -0.3821 -0.3056  0.5327
 1865Sol     OW10465   1.540   2.096   2.759  0.1801 -0.2607 -0.2566
 1865Sol     HW10466   1.511   2.019   2.711 -0.4205 -2.3107  3.1927
 1865Sol     HW10467   1.634   2.100   2.744  0.4852 -2.6350  0.7264
 1865Sol     MW10468   1.545   2.089   2.754 -0.1340  0.4013 -0.2975
 1866Sol     OW10469   0.219   1.821   2.710 -0.1482 -0.0702  0.0855
 1866Sol     HW10470   0.237   1.902   2.759  0.3178  0.3224 -0.7238
 1866Sol     HW10471   0.193   1.851   2.623  0.1766 -0.7963 -0.2666
 1866Sol     MW10472   0.218   1.831   2.707 -0.8654  0.0226 -0.0471
 1867Sol     OW10473   0.925   3.005   6.430  0.2491 -0.3830  0.3162
 1867Sol     HW10474   0.967   3.027   6.347 -0.9202 -0.2807 -0.2530
 1867Sol     HW10475   0.859   2.940   6.407 -0.1904 -0.2360  1.1450
 1867Sol     MW10476   0.923   3.001   6.421  0.4096 -0.3195  0.0911
 1868Sol     OW10477   1.364   1.256   6.542  1.0100 -0.1163  0.2196
 1868Sol     HW10478   1.338   1.307   6.619 -1.8652 -0.2508 -0.6091
 1868Sol     HW10479   1.345   1.313   6.468 -0.8755 -1.8020 -0.6375
 1868Sol     MW10480   1.360   1.266   6.542  0.0491  0.0411 -0.0462
 1869Sol     OW10481   1.840   0.425   2.039  0.9830  0.0610 -0.3807
 1869Sol     HW10482   1.914   0.485   2.030  0.5460  1.0321  2.1542
 1869Sol     HW10483   1.863   0.370   2.113 -0.3301 -0.3865 -0.2986
 1869Sol     MW10484   1.849   0.426   2.045 -0.8520  0.4853 -0.4650
 1870Sol     OW10485   1.552   1.532   3.896  0.3695 -0.1648  0.0259
 1870Sol     HW10486   1.526   1.441   3.907  0.1753  0.0865  1.7137
 1870Sol     HW10487   1.505   1.561   3.817  3.2667 -2.5479 -2.6944
 1870Sol     MW10488   1.545   1.527   3.890 -0.6654 -0.5465  0.2975
 1871Sol     OW10489   1.906   1.302   9.377  0.1013 -0.3349  0.3548
 1871Sol     HW10490   1.921   1.209   9.396  0.9442 -0.2859 -0.0587
 1871Sol     HW10491   1.994   1.339   9.369 -0.2408  0.2481 -0.7119
 1871Sol     MW10492   1.915   1.297   9.378  0.7887  0.4563 -0.0466
 1872Sol     OW10493   3.052   1.224   5.694  0.0467 -0.2583  0.4180
 1872Sol     HW10494   3.142   1.255   5.708 -0.1222 -0.0920  1.1887
 1872Sol     HW10495   3.033   1.246   5.603  0.8672 -0.5020  0.1853
 1872Sol     MW10496   3.058   1.229   5.687  0.5549 -0.6615 -0.1583
 1873Sol     OW10497   2.876   2.546   5.525 -0.2960  0.3129  0.0742
 1873Sol     HW10498   2.918   2.512   5.604 -0.3176  1.4210  0.5643
 1873Sol     HW10499   2.831   2.470   5.487  0.3762 -0.4002  0.6888
 1873Sol     MW10500   2.876   2.536   5.529 -0.1650  0.1348 -0.4113
 1874Sol     OW10501   2.952   0.018   8.093 -0.1286  0.0902  0.5225
 1874Sol     HW10502   2.986  -0.007   8.007 -0.9088 -0.7938  0.4687
 1874Sol     HW10503   3.019  -0.013   8.154  0.5376  0.9281  0.2173
 1874Sol     MW10504   2.961   0.013   8.091  0.0744  0.1839 -0.2788
 1875Sol     OW10505   0.826   0.451   2.220  0.6569 -0.0883 -0.1213
 1875Sol     HW10506   0.838   0.377   2.159  2.4183  0.1112 -0.0134
 1875Sol     HW10507   0.851   0.416   2.305  1.8385  0.7293 -0.1242
 1875Sol     MW10508   0.829   0.441   2.222 -0.9280  0.0448 -0.1317
 1876Sol     OW10509   2.644   2.045   6.096 -0.3444 -0.0706  0.4248
 1876Sol     HW10510   2.628   1.984   6.024 -0.0233 -0.1648  0.4326
 1876Sol     HW10511   2.632   1.993   6.175  0.4734 -0.2649  0.4264
 1876Sol     MW10512   2.641   2.035   6.096 -0.0360 -0.7877  0.1284
 1877Sol     OW10513   0.405   1.118   9.645 -0.0455  0.5672 -0.3842
 1877Sol     HW10514   0.477   1.178   9.627  1.0232 -0.4684  0.3493
 1877Sol     HW10515   0.333   1.174   9.673  0.8544  1.5150  0.0402
 1877Sol     MW10516   0.405   1.128   9.646  0.4025 -0.1830  0.0316
 1878Sol     OW10517   1.916   0.972   1.496 -0.1277  0.4783 -0.1589
 1878Sol     HW10518   1.895   0.983   1.404  0.8722  1.1358 -0.3132
 1878Sol     HW10519   1.996   1.023   1.509  0.1746 -0.2473  0.8896
 1878Sol     MW10520   1.921   0.977   1.489  0.9110 -0.4715 -0.4418
 1879Sol     OW10521   0.177   0.712   2.991  0.0614 -0.0713  0.4592
 1879Sol     HW10522   0.103   0.696   3.050 -0.3727 -2.4292 -0.6675
 1879Sol     HW10523   0.136   0.742   2.909  0.5067  0.7537  0.5325
 1879Sol     MW10524   0.166   0.713   2.989 -0.1315 -0.2397  0.2690
 1880Sol     OW10525   0.453   0.840   4.305 -0.4605  0.6922 -0.4216
 1880Sol     HW10526   0.362   0.868   4.293 -0.0890  0.9259 -3.0152
 1880Sol     HW10527   0.504   0.920   4.299 -0.1162  0.6423  1.6818
 1880Sol     MW10528   0.449   0.850   4.303 -0.0276 -0.6632  0.3077
 1881Sol     OW10529   0.373   2.594   4.527  0.3921 -0.0282 -1.1285
 1881Sol     HW10530   0.322   2.520   4.561 -0.3997  0.9320 -0.2051
 1881Sol     HW10531   0.464   2.564   4.530  0.2612 -0.3009  1.0269
 1881Sol     MW10532   0.376   2.585   4.530 -0.3535  1.1545 -0.2691
 1882Sol     OW10533   1.449   1.279   7.681 -0.0613 -0.1895  0.3169
 1882Sol     HW10534   1.424   1.218   7.611 -1.2285  0.6831 -0.0456
 1882Sol     HW10535   1.506   1.228   7.738 -1.5353 -1.8076  0.3682
 1882Sol     MW10536   1.452   1.269   7.680  0.2054 -0.1914  0.3813
 1883Sol     OW10537   1.876   3.021   3.184  0.4214 -0.3320 -0.1206
 1883Sol     HW10538   1.804   3.083   3.171  1.0425  0.3444 -0.3575
 1883Sol     HW10539   1.949   3.059   3.137  0.5551 -1.7200 -1.0761
 1883Sol     MW10540   1.876   3.030   3.179 -0.1182 -0.1903 -0.6704
 1884Sol     OW10541   0.719   3.163   3.758  0.0625 -0.2016 -0.3157
 1884Sol     HW10542   0.653   3.094   3.753  0.9246 -0.9314 -1.6863
 1884Sol     HW10543   0.802   3.118   3.749  0.6566  0.9593 -0.7524
 1884Sol     MW10544   0.720   3.153   3.757  0.4328 -0.4474 -0.2065
 1885Sol     OW10545   0.232   0.882   7.290 -0.1665 -0.3737 -0.2360
 1885Sol     HW10546   0.244   0.901   7.197  1.8625  1.7928  0.4185
 1885Sol     HW10547   0.138   0.873   7.302 -0.3892 -1.5044 -2.6496
 1885Sol     MW10548   0.225   0.883   7.283 -0.0391 -0.1752 -0.7464
 1886Sol     OW10549   0.558   3.202   7.988  0.1555 -0.0693 -0.2952
 1886Sol     HW10550   0.650   3.227   7.987  0.1826 -0.0643  1.3196
 1886Sol     HW10551   0.559   3.106   7.982  0.4313 -0.3486  3.1732
 1886Sol     MW10552   0.566   3.196   7.987 -0.2819 -0.0365  0.8058
 1887Sol     OW10553   1.604   0.206   9.356 -0.2819 -0.1531 -0.3536
 1887Sol     HW10554   1.620   0.134   9.416  0.2987  0.0672 -0.2468
 1887Sol     HW10555   1.557   0.166   9.283 -2.6314 -0.0898  1.0720
 1887Sol     MW10556   1.601   0.196   9.355  0.0424  0.0320  0.0444
 1888Sol     OW10557   1.394   2.399   4.897  0.8277  0.4346  0.1682
 1888Sol     HW10558   1.421   2.312   4.869  0.6183  0.6481 -0.7170
 1888Sol     HW10559   1.311   2.385   4.943  0.2401  0.2913 -0.9235
 1888Sol     MW10560   1.389   2.390   4.899 -0.4226 -0.3985  0.5442
 1889Sol     OW10561   3.273   2.666   9.978 -1.1380  0.0943 -0.2229
 1889Sol     HW10562   3.183   2.651   9.951 -0.5481 -1.8365 -1.2817
 1889Sol     HW10563   3.324   2.650   9.898  0.0846  1.8752  0.1824
 1889Sol     MW10564   3.270   2.663   9.968  0.2086 -0.1354 -0.4999
 1890Sol     OW10565   1.710   1.048   7.690  0.3152 -0.4828 -0.5525
 1890Sol     HW10566   1.687   1.069   7.780 -1.3755  0.6854 -1.2321
 1890Sol     HW10567   1.632   1.006   7.654  0.4482  0.3528 -1.8822
 1890Sol     MW10568   1.701   1.046   7.695  0.1389  0.3672 -0.4023
 1891Sol     OW10569   0.165   1.142   8.107  0.0307  0.2740  0.0206
 1891Sol     HW10570   0.238   1.084   8.127  0.0502  0.6160  0.9286
 1891Sol     HW10571   0.167   1.209   8.175  0.3983  1.7129 -1.3738
 1891Sol     MW10572   0.172   1.143   8.115  0.6370  0.2259 -0.3572
 1892Sol     OW10573   3.014   0.349   3.200 -0.1172  0.2583  0.1120
 1892Sol     HW10574   2.925   0.318   3.212 -0.1821  0.5875  0.4939
 1892Sol     HW10575   3.050   0.355   3.289 -0.2156  1.5882  0.0740
 1892Sol     MW10576   3.009   0.347   3.209  0.3399  0.9380 -0.1932
 1893Sol     OW10577   2.682   3.183   1.963  0.1315 -0.2985  0.0747
 1893Sol     HW10578   2.777   3.196   1.966  0.1399 -0.6331  1.8958
 1893Sol     HW10579   2.667   3.133   1.883  1.3810  0.5716 -0.7286
 1893Sol     MW10580   2.689   3.180   1.956 -0.2267 -0.4543 -0.2983
 1894Sol     OW10581   1.411   2.619   5.126  0.3627 -0.1121 -0.0103
 1894Sol     HW10582   1.454   2.585   5.048  0.3768  0.3800 -0.2163
 1894Sol     HW10583   1.332   2.564   5.136  0.4075 -0.2301 -0.3155
 1894Sol     MW10584   1.408   2.611   5.120  0.1449  0.3690 -0.3259
 1895Sol     OW10585   3.293   2.613   8.815 -0.2900  0.2972 -0.0778
 1895Sol     HW10586   3.233   2.655   8.754  0.2236 -2.3594 -2.5564
 1895Sol     HW10587   3.238   2.558   8.870 -0.3529 -0.4679 -0.9031
 1895Sol     MW10588   3.283   2.612   8.815  0.3393 -0.7176 -0.4329
 1896Sol     OW10589   0.957   1.958   7.194  0.5623 -0.0460  0.2324
 1896Sol     HW10590   0.992   2.022   7.131  1.7556 -0.7626  0.1407
 1896Sol     HW10591   0.954   1.876   7.145 -2.7259  0.2992 -0.2120
 1896Sol     MW10592   0.960   1.957   7.184  0.5371  0.3628  0.1272
 1897Sol     OW10593   1.503   0.100   8.311 -0.2975  0.0865  0.8220
 1897Sol     HW10594   1.510   0.151   8.231  0.5278  0.9290  1.4157
 1897Sol     HW10595   1.512   0.164   8.381 -1.0549 -0.6323  1.5940
 1897Sol     MW10596   1.504   0.110   8.310  0.0537  0.2940  0.9903
 1898Sol     OW10597   3.290   0.737   7.271  0.4878  0.2638 -0.1905
 1898Sol     HW10598   3.321   0.656   7.310  0.0446  0.5510  0.7761
 1898Sol     HW10599   3.195   0.733   7.281  0.4828  1.0157  0.0973
 1898Sol     MW10600   3.284   0.729   7.275  0.2878  0.7824 -0.0638
 1899Sol     OW10601   0.458   2.860   4.492 -0.0335 -0.5690  0.3344
 1899Sol     HW10602   0.544   2.866   4.450  0.6470 -2.1643  1.4454
 1899Sol     HW10603   0.429   2.771   4.473 -0.6073 -0.6417  1.5595
 1899Sol     MW10604   0.463   2.853   4.486  0.3308  0.0187 -0.1045
 1900Sol     OW10605   2.114   0.080   8.646 -0.2495  0.2408 -0.0248
 1900Sol     HW10606   2.187   0.130   8.608  0.7106 -0.5530  0.7231
 1900Sol     HW10607   2.072   0.038   8.571 -0.8057  1.8239 -0.6075
 1900Sol     MW10608   2.117   0.081   8.636 -0.3249  0.6236 -0.4065
 1901Sol     OW10609   2.370   2.308   7.073 -0.6223 -0.4249 -0.0370
 1901Sol     HW10610   2.434   2.279   7.137 -2.2867 -0.9708  1.4393
 1901Sol     HW10611   2.391   2.400   7.058  1.3818 -0.9845 -0.6746
 1901Sol     MW10612   2.377   2.314   7.078 -0.0536 -0.0316 -0.5192
 1902Sol     OW10613   0.074   0.121   3.652  0.3425  0.0985 -0.1148
 1902Sol     HW10614   0.077   0.133   3.557  0.6381 -1.5803 -0.3397
 1902Sol     HW10615   0.081   0.026   3.664 -0.4615  0.2293  1.5530
 1902Sol     MW10616   0.075   0.113   3.644 -0.1610  0.0340 -0.0087
 1903Sol     OW10617   1.513   0.880   4.944 -0.0503  0.2128 -0.1529
 1903Sol     HW10618   1.450   0.951   4.933 -1.8706 -1.1282  1.3767
 1903Sol     HW10619   1.551   0.868   4.856 -0.5948  2.2147 -0.6978
 1903Sol     MW10620   1.511   0.886   4.935 -0.0737 -0.0551  0.1572
 1904Sol     OW10621   1.699   3.062   6.507 -0.5106  0.1524  0.2232
 1904Sol     HW10622   1.757   3.034   6.437 -0.5527  0.7809 -0.0664
 1904Sol     HW10623   1.617   3.014   6.491 -0.2463 -0.3418  0.3371
 1904Sol     MW10624   1.697   3.055   6.499  0.5612  0.0011 -0.0033
 1905Sol     OW10625   0.059   1.091   4.891 -0.6201  0.2427 -0.4287
 1905Sol     HW10626   0.075   1.185   4.876  3.2307 -0.1434  0.8202
 1905Sol     HW10627   0.105   1.072   4.973 -0.1121 -3.0497 -1.4114
 1905Sol     MW10628   0.065   1.098   4.897 -0.1902  0.1207 -0.2470
 1906Sol     OW10629   2.594   2.828   6.272  0.0492 -0.1093 -0.0968
 1906Sol     HW10630   2.625   2.893   6.209 -0.3947  1.0781  0.8831
 1906Sol     HW10631   2.500   2.842   6.278  0.0295 -0.4774  0.5307
 1906Sol     MW10632   2.589   2.835   6.267  0.0406 -0.1882  0.0111
 1907Sol     OW10633   1.622   1.981   8.652  0.3845  0.1004  0.1170
 1907Sol     HW10634   1.692   2.010   8.710  0.5226 -1.8112  0.9425
 1907Sol     HW10635   1.569   1.922   8.705 -1.1005  0.4944 -0.8848
 1907Sol     MW10636   1.623   1.979   8.662 -0.2330  0.0687  0.9541
 1908Sol     OW10637   3.139   1.233   6.230 -0.0713  0.1153  0.6667
 1908Sol     HW10638   3.107   1.283   6.306 -1.8337  1.5722 -0.9891
 1908Sol     HW10639   3.200   1.293   6.186  0.0898 -0.3034  0.3156
 1908Sol     MW10640   3.141   1.243   6.233 -0.0165  0.0230 -0.4030
 1909Sol     OW10641   1.104   2.090   8.088  0.3361 -0.4181 -0.1215
 1909Sol     HW10642   1.133   2.161   8.030  0.4798 -0.2403  0.1666
 1909Sol     HW10643   1.128   2.010   8.041 -1.0612 -0.2962 -1.0829
 1909Sol     MW10644   1.109   2.089   8.078 -0.0463 -0.3522  0.5158
 1910Sol     OW10645   2.074   0.640   1.751 -0.0946 -0.1443 -0.0649
 1910Sol     HW10646   2.065   0.648   1.846 -2.0769 -0.6702 -0.1852
 1910Sol     HW10647   2.076   0.546   1.735  2.9867 -0.0820 -0.3449
 1910Sol     MW10648   2.074   0.632   1.758 -0.7632  0.0720  0.1588
 1911Sol     OW10649   0.332   0.950   8.128  0.2825 -0.8253  0.2790
 1911Sol     HW10650   0.423   0.962   8.154  0.4470 -0.8334 -0.2796
 1911Sol     HW10651   0.334   0.948   8.032 -0.3640 -0.3293  0.2485
 1911Sol     MW10652   0.340   0.951   8.122  0.1790  0.2777  0.0643
 1912Sol     OW10653   0.957   1.061   6.960  0.3555 -0.9104  0.1578
 1912Sol     HW10654   0.869   1.047   6.994 -0.4198  0.9696 -0.9770
 1912Sol     HW10655   0.970   0.991   6.896 -1.8971  0.9820 -2.5388
 1912Sol     MW10656   0.950   1.054   6.957  0.3814 -0.3195 -0.3394
 1913Sol     OW10657   2.985   3.000   1.457 -0.0640 -0.3966 -0.5377
 1913Sol     HW10658   2.915   3.016   1.521  1.2879 -1.2553  1.2146
 1913Sol     HW10659   2.998   2.905   1.459  1.6987 -0.1638 -0.2040
 1913Sol     MW10660   2.980   2.993   1.463  0.5628  0.2433  0.1670
 1914Sol     OW10661   2.449   1.224   7.950  0.7716  0.1725  0.3206
 1914Sol     HW10662   2.402   1.149   7.914 -0.1410  0.6795  0.4444
 1914Sol     HW10663   2.406   1.242   8.033  0.1515  1.6139 -0.2872
 1914Sol     MW10664   2.441   1.219   7.954  0.2053 -0.0435 -0.2034
 1915Sol     OW10665   0.904   2.426   8.581 -0.5117 -0.6590  0.3374
 1915Sol     HW10666   0.986   2.432   8.530 -1.5659  0.1354 -1.3034
 1915Sol     HW10667   0.876   2.335   8.570  0.8026 -1.2835  1.9675
 1915Sol     MW10668   0.909   2.419   8.575 -0.1918  0.1241  0.4673
 1916Sol     OW10669   2.460   1.784   5.540 -0.9275  0.1475 -0.2178
 1916Sol     HW10670   2.547   1.802   5.574 -0.9417  2.0537 -1.1423
 1916Sol     HW10671   2.456   1.688   5.534  1.8571  0.0942 -2.0864
 1916Sol     MW10672   2.467   1.777   5.542 -0.4722  0.2827  0.7068
 1917Sol     OW10673   0.380   2.029   7.934  0.2401  0.5398  0.4905
 1917Sol     HW10674   0.405   1.982   8.014  0.8927  0.9891  0.5561
 1917Sol     HW10675   0.410   1.972   7.863 -0.1494  0.2399  0.5658
 1917Sol     MW10676   0.385   2.019   7.935  0.2322  0.2163 -0.2943
 1918Sol     OW10677   2.023   0.665   5.094 -0.3700  0.2211  0.0798
 1918Sol     HW10678   2.041   0.580   5.133  1.4443  0.2172 -0.7148
 1918Sol     HW10679   1.956   0.704   5.150 -1.1163 -1.6670  0.5149
 1918Sol     MW10680   2.019   0.661   5.102  0.2942 -0.2581  0.2744
 1919Sol     OW10681   0.239   0.908   9.070  0.5392  0.0602 -0.3915
 1919Sol     HW10682   0.184   0.964   9.124  0.1231 -0.9995  0.3024
 1919Sol     HW10683   0.179   0.842   9.035  1.6023 -2.1095  1.7045
 1919Sol     MW10684   0.228   0.907   9.071 -0.5101 -1.0072 -0.3012
 1920Sol     OW10685   0.954   2.550   6.022 -0.1504 -0.5910  0.4311
 1920Sol     HW10686   0.874   2.553   6.075 -0.9407 -0.9426 -0.7188
 1920Sol     HW10687   0.996   2.635   6.037 -0.8486 -0.3233  0.8818
 1920Sol     MW10688   0.951   2.558   6.028 -0.5082  0.0662 -0.2162
 1921Sol     OW10689   2.572   1.775   7.153  0.1800  0.1907  0.2219
 1921Sol     HW10690   2.614   1.801   7.071  0.0729 -1.6946 -0.4607
 1921Sol     HW10691   2.639   1.787   7.220  0.9726 -0.3000 -0.4720
 1921Sol     MW10692   2.582   1.779   7.152  0.2826 -0.6494  0.1239
 1922Sol     OW10693   1.421   0.669   3.816  0.3944  0.1085 -0.3118
 1922Sol     HW10694   1.450   0.582   3.844  0.2646 -0.4369 -1.8577
 1922Sol     HW10695   1.492   0.702   3.761 -0.7018 -0.1326 -1.9085
 1922Sol     MW10696   1.430   0.664   3.814 -0.0021  0.3157  0.2245
 1923Sol     OW10697   2.476   0.127   5.129 -0.1018 -0.1733 -0.3867
 1923Sol     HW10698   2.546   0.138   5.063  0.7953  0.4737  0.6580
 1923Sol     HW10699   2.431   0.211   5.131 -0.2142 -0.2357 -0.2680
 1923Sol     MW10700   2.479   0.135   5.123  0.3177  0.3821  0.1999
 1924Sol     OW10701   2.584   2.971   8.096 -0.0138  0.0162 -0.0731
 1924Sol     HW10702   2.560   2.961   8.188  0.6213 -0.6585  0.0233
 1924Sol     HW10703   2.535   3.047   8.067  0.0808  0.4726  0.9320
 1924Sol     MW10704   2.578   2.977   8.102 -0.2922 -0.4080  0.0416
 1925Sol     OW10705   0.582   2.180   5.992  0.2617 -0.7889 -0.1541
 1925Sol     HW10706   0.487   2.192   6.000  0.4552 -0.3383  1.5193
 1925Sol     HW10707   0.596   2.088   6.015  0.5255 -0.1649  2.2143
 1925Sol     MW10708   0.574   2.173   5.994  0.4953  0.3091 -0.0606
 1926Sol     OW10709   2.316   1.403   5.674  0.1553 -0.0833 -0.3749
 1926Sol     HW10710   2.399   1.450   5.686 -0.1577  0.6904 -1.2279
 1926Sol     HW10711   2.329   1.350   5.596  0.1122 -0.5582 -0.0617
 1926Sol     MW10712   2.325   1.402   5.668  0.2143 -0.2289 -0.3255
 1927Sol     OW10713   3.261   2.377   7.537 -0.2061  0.2518  0.0655
 1927Sol     HW10714   3.316   2.454   7.552  1.0597 -0.4667 -0.7825
 1927Sol     HW10715   3.196   2.406   7.474 -1.4590  1.4022  1.8533
 1927Sol     MW10716   3.261   2.386   7.532 -0.6275 -0.0168 -0.0235
 1928Sol     OW10717   1.802   0.873   9.128 -0.5564  0.5968  0.6109
 1928Sol     HW10718   1.791   0.951   9.072 -0.8277 -0.8612 -1.4252
 1928Sol     HW10719   1.758   0.897   9.209 -0.8204  2.5075 -0.0460
 1928Sol     MW10720   1.797   0.882   9.130 -0.3832 -0.3058 -0.0024
 1929Sol     OW10721   1.375   1.942   3.356  0.4641  0.3750  0.2001
 1929Sol     HW10722   1.367   2.037   3.359 -1.3175  0.2410 -0.2512
 1929Sol     HW10723   1.287   1.909   3.372  0.7633 -1.1699 -1.1271
 1929Sol     MW10724   1.367   1.948   3.357 -0.0625 -0.5992 -0.5487
 1930Sol     OW10725   0.803   1.793   7.821  0.0009 -0.2671  0.4018
 1930Sol     HW10726   0.810   1.860   7.889  0.4551  0.3121 -0.2101
 1930Sol     HW10727   0.881   1.739   7.832  0.7940  0.6624 -0.5367
 1930Sol     MW10728   0.811   1.794   7.828  0.5174 -0.1838  0.4221
 1931Sol     OW10729   0.578   1.874   2.516  0.2722  0.0119 -0.3682
 1931Sol     HW10730   0.555   1.806   2.453  0.7395  0.0623 -0.5997
 1931Sol     HW10731   0.674   1.876   2.514  0.3396 -0.6642  1.0631
 1931Sol     MW10732   0.585   1.868   2.510 -0.4681 -0.1054 -0.2297
 1932Sol     OW10733   2.466   1.946   1.970 -0.1239  0.2720  0.4737
 1932Sol     HW10734   2.379   1.944   1.930 -0.4293 -1.5196  1.2146
 1932Sol     HW10735   2.524   1.907   1.904 -0.5105 -2.0118  1.4500
 1932Sol     MW10736   2.463   1.943   1.960 -0.4012  0.2899  0.0367
 1933Sol     OW10737   3.111   0.248   2.404 -0.0493 -0.1983  0.2890
 1933Sol     HW10738   3.176   0.317   2.389 -0.4462  0.2736  0.7322
 1933Sol     HW10739   3.144   0.201   2.481 -0.2301  0.0335  0.5066
 1933Sol     MW10740   3.120   0.250   2.410 -0.4490  0.0285  0.5583
 1934Sol     OW10741   1.885   1.729   8.661  0.5731 -0.2502 -0.1036
 1934Sol     HW10742   1.851   1.678   8.734 -1.1296  0.1121 -0.6136
 1934Sol     HW10743   1.891   1.666   8.589 -0.5057  0.0095 -0.4343
 1934Sol     MW10744   1.882   1.719   8.661 -0.1845 -0.0337 -0.1374
 1935Sol     OW10745   3.074   0.036   7.819 -0.1516  0.4923 -0.1484
 1935Sol     HW10746   3.148  -0.022   7.798 -0.0682  0.9775 -1.2443
 1935Sol     HW10747   3.100   0.121   7.783 -1.9481  0.2780 -2.0508
 1935Sol     MW10748   3.083   0.038   7.814 -0.5262  0.7612 -0.2911
 1936Sol     OW10749   0.767   2.489   9.210  0.5341  0.2977 -0.1066
 1936Sol     HW10750   0.845   2.471   9.158  0.3090  1.1564 -0.7464
 1936Sol     HW10751   0.698   2.506   9.146 -0.4615 -1.5456  0.4286
 1936Sol     MW10752   0.768   2.489   9.200  0.4265 -0.3153  0.4772
 1937Sol     OW10753   3.023   2.772   2.699  0.0647 -0.1211 -0.6747
 1937Sol     HW10754   3.029   2.754   2.605 -0.9667  1.0522 -0.9716
 1937Sol     HW10755   2.937   2.812   2.711  0.2939 -0.0149  0.7359
 1937Sol     MW10756   3.016   2.774   2.692  0.1237  0.7384 -0.3170
 1938Sol     OW10757   0.878   3.046   1.980  0.0163 -0.6514  0.3946
 1938Sol     HW10758   0.800   3.061   2.033  0.1782 -0.4827  0.5852
 1938Sol     HW10759   0.883   3.122   1.922 -1.0609 -1.5880 -0.9840
 1938Sol     MW10760   0.871   3.054   1.979  0.1401 -0.3921 -0.3426
 1939Sol     OW10761   0.447   3.366   7.193 -0.2616 -0.7890 -0.1356
 1939Sol     HW10762   0.524   3.387   7.245 -0.8108  2.7009 -0.6227
 1939Sol     HW10763   0.430   3.274   7.211  1.1193 -0.3554  3.8002
 1939Sol     MW10764   0.452   3.360   7.199  0.6698 -0.2020 -0.5779
 1940Sol     OW10765   1.924   1.534   8.461  0.2383 -0.6350  0.0980
 1940Sol     HW10766   1.864   1.494   8.398  1.5722 -1.2935 -0.7909
 1940Sol     HW10767   2.008   1.539   8.414  0.4492  1.9513  0.6642
 1940Sol     MW10768   1.926   1.531   8.451 -0.4133  0.1869 -0.4449
 1941Sol     OW10769   3.296   2.242   2.254 -0.4156 -0.3785  0.0552
 1941Sol     HW10770   3.386   2.230   2.285  0.2508 -0.9664 -1.9700
 1941Sol     HW10771   3.262   2.153   2.243  0.0845 -0.2940 -2.7199
 1941Sol     MW10772   3.301   2.233   2.256  0.2423 -0.6008  0.6989
 1942Sol     OW10773   2.710   3.250   2.737 -0.0594  0.3797  0.4783
 1942Sol     HW10774   2.707   3.219   2.647  0.6208 -1.1134  0.9432
 1942Sol     HW10775   2.782   3.201   2.777  1.1458  2.6927  1.2265
 1942Sol     MW10776   2.716   3.243   2.733  0.0677  0.2411 -0.4761
 1943Sol     OW10777   1.499   0.292   7.683 -0.5826 -0.0204  0.1204
 1943Sol     HW10778   1.578   0.248   7.713 -2.4204 -1.6925  2.6345
 1943Sol     HW10779   1.473   0.242   7.605 -1.4830 -2.1089  1.7281
 1943Sol     MW10780   1.504   0.284   7.678 -0.5219 -0.6699 -0.0633
 1944Sol     OW10781   0.714   0.477   9.861 -0.0620  0.3455 -0.1804
 1944Sol     HW10782   0.777   0.533   9.816  0.8231 -0.3072  0.2373
 1944Sol     HW10783   0.767   0.424   9.920 -0.9803 -0.4041 -0.0251
 1944Sol     MW10784   0.724   0.478   9.862 -1.0181 -0.5553  0.4026
 1945Sol     OW10785   2.376   3.150   4.402 -0.3383  0.3936  0.6341
 1945Sol     HW10786   2.403   3.164   4.493  1.4339 -0.5354  0.2600
 1945Sol     HW10787   2.375   3.238   4.364  0.4506  0.6256  1.1312
 1945Sol     MW10788   2.378   3.159   4.407 -0.2936  0.3970 -0.3114
 1946Sol     OW10789   3.285   1.283   4.320 -0.0028  0.1062 -0.2070
 1946Sol     HW10790   3.352   1.226   4.355 -1.1290 -0.5476  0.9310
 1946Sol     HW10791   3.327   1.329   4.247  1.6568 -0.2692  0.5125
 1946Sol     MW10792   3.294   1.282   4.316 -0.4535  0.1833 -0.3988
 1947Sol     OW10793   2.464   0.610   2.215 -0.1281  0.1175  0.2153
 1947Sol     HW10794   2.469   0.641   2.124 -0.1790 -0.0151  0.1685
 1947Sol     HW10795   2.536   0.548   2.223 -0.1992  0.0384  0.2329
 1947Sol     MW10796   2.471   0.607   2.208  0.0666  0.2348  0.3107
 1948Sol     OW10797   1.095   2.513   8.777  1.0590  0.7346 -0.0780
 1948Sol     HW10798   1.022   2.479   8.725  1.8993 -0.8771 -0.2197
 1948Sol     HW10799   1.122   2.592   8.731 -0.0956  0.9136 -0.4650
 1948Sol     MW10800   1.090   2.517   8.768 -0.1127 -0.0570 -0.0086
 1949Sol     OW10801   2.688   1.331   6.196 -0.3051 -0.1123 -0.5380
 1949Sol     HW10802   2.737   1.289   6.267 -1.5984 -1.4793 -0.4436
 1949Sol     HW10803   2.739   1.310   6.117 -0.8469 -1.7454 -0.4743
 1949Sol     MW10804   2.697   1.325   6.195 -0.2677 -0.1959 -0.0457
 1950Sol     OW10805   2.781   0.756   3.462 -0.5254 -0.0111 -0.3327
 1950Sol     HW10806   2.767   0.684   3.524  1.7793 -1.4268 -1.4093
 1950Sol     HW10807   2.706   0.751   3.403  0.4490 -2.6249 -1.4174
 1950Sol     MW10808   2.773   0.749   3.462 -0.3609 -0.2470 -0.0325
 1951Sol     OW10809   0.347   1.847   7.000 -0.3120  0.1445 -0.3451
 1951Sol     HW10810   0.415   1.864   6.935 -1.1850  0.0882 -1.2793
 1951Sol     HW10811   0.314   1.934   7.023  0.2166  0.1863  0.2648
 1951Sol     MW10812   0.350   1.856   6.996  0.8183  0.0721 -0.4483
 1952Sol     OW10813   2.923   1.408   3.665 -0.5006 -0.6605  0.1774
 1952Sol     HW10814   3.003   1.427   3.714 -1.4774  3.4890  0.3118
 1952Sol     HW10815   2.865   1.368   3.730  0.1264 -0.1884  1.0406
 1952Sol     MW10816   2.925   1.406   3.676 -0.9201  0.0312 -0.0328
 1953Sol     OW10817   0.508   2.806   5.978 -0.5139 -0.7506  0.0961
 1953Sol     HW10818   0.511   2.798   6.073 -0.5911 -3.3627 -0.0968
 1953Sol     HW10819   0.600   2.796   5.950 -0.4024  0.6261 -0.0885
 1953Sol     MW10820   0.517   2.804   5.984  0.0348 -0.3069 -0.1370
 1954Sol     OW10821   0.432   1.037   7.033  0.0590 -0.4423 -0.1587
 1954Sol     HW10822   0.424   1.117   7.086 -0.3854  0.8453 -2.1142
 1954Sol     HW10823   0.358   1.041   6.973  0.3137 -2.1139 -0.5883
 1954Sol     MW10824   0.425   1.045   7.033  0.4296 -0.3967 -0.2271
 1955Sol     OW10825   2.198   1.080   8.136  0.1894 -0.0862 -0.2543
 1955Sol     HW10826   2.174   1.087   8.229 -1.6262 -0.7240 -0.6634
 1955Sol     HW10827   2.169   1.163   8.098  0.6648  0.0492 -0.3364
 1955Sol     MW10828   2.194   1.088   8.141 -0.4248  0.3771  0.2616
 1956Sol     OW10829   2.441   0.656   9.956  0.1809  0.2167 -0.2501
 1956Sol     HW10830   2.391   0.592   9.905  1.3199  0.1282 -1.2904
 1956Sol     HW10831   2.375   0.716   9.990 -1.0040 -2.0210  1.5192
 1956Sol     MW10832   2.430   0.656   9.954 -0.4102 -0.6097 -0.7948
 1957Sol     OW10833   0.979   2.981   8.499  0.1218 -0.6243 -0.4840
 1957Sol     HW10834   1.011   3.061   8.455 -1.2068  1.5944  2.4080
 1957Sol     HW10835   0.991   2.999   8.593  0.3097 -4.1000  0.2353
 1957Sol     MW10836   0.983   2.990   8.504 -0.2026 -0.0721  0.2908
 1958Sol     OW10837   2.034   0.128   4.552  0.4968  0.2001  0.3097
 1958Sol     HW10838   2.091   0.200   4.580 -1.5443  1.9056  0.2247
 1958Sol     HW10839   2.058   0.055   4.609  3.4097  0.5685 -0.3574
 1958Sol     MW10840   2.041   0.128   4.560 -0.7758 -0.0495 -0.3892
 1959Sol     OW10841   1.451   1.874   8.856  0.0570 -0.1045 -0.1060
 1959Sol     HW10842   1.411   1.930   8.790  1.8200 -1.3668 -2.2698
 1959Sol     HW10843   1.449   1.927   8.936  0.6422  2.5977 -1.8221
 1959Sol     MW10844   1.447   1.883   8.858  0.1969  0.0895 -0.5271
 1960Sol     OW10845   0.172   0.859   4.270 -0.2110 -0.2722 -0.0514
 1960Sol     HW10846   0.102   0.800   4.300 -1.8222  1.5090 -0.1981
 1960Sol     HW10847   0.152   0.876   4.178  0.0665  0.7114  0.0606
 1960Sol     MW10848   0.164   0.855   4.265  0.2010  0.3125 -0.0750
 1961Sol     OW10849   0.436   0.730   7.016 -0.3040 -0.0182  0.2116
 1961Sol     HW10850   0.421   0.816   6.976 -1.4547 -0.2080  0.2293
 1961Sol     HW10851   0.372   0.673   6.974 -0.5490 -0.5430  1.2934
 1961Sol     MW10852   0.429   0.733   7.008 -0.1329  0.0742  0.2740
 1962Sol     OW10853   0.437   0.242   3.457  0.3100 -0.0375 -0.3743
 1962Sol     HW10854   0.441   0.291   3.539  2.3113 -0.0660 -0.4232
 1962Sol     HW10855   0.497   0.289   3.399  0.0482 -0.8857 -1.3337
 1962Sol     MW10856   0.443   0.251   3.459  0.7708  0.1481  0.0402
 1963Sol     OW10857   0.835   3.277   8.004  0.1711  0.3316 -0.3068
 1963Sol     HW10858   0.880   3.193   7.990  3.5981  2.4663 -2.9891
 1963Sol     HW10859   0.901   3.332   8.047 -1.3339  2.3154 -0.4847
 1963Sol     MW10860   0.845   3.274   8.007  0.1445 -0.2844 -0.7147
 1964Sol     OW10861   3.288   1.059   9.629  0.1560 -0.2424  0.2545
 1964Sol     HW10862   3.325   0.971   9.631  0.7085 -0.0048  0.4696
 1964Sol     HW10863   3.232   1.060   9.551  1.1418 -0.3789 -0.4687
 1964Sol     MW10864   3.286   1.052   9.622  0.0230  0.0941  0.4804
 1965Sol     OW10865   2.674   1.986   6.937  0.9286 -0.3730  0.3686
 1965Sol     HW10866   2.672   2.034   7.020  0.0645 -0.5580  0.4572
 1965Sol     HW10867   2.686   2.053   6.870  1.0603 -0.1701  0.5934
 1965Sol     MW10868   2.675   1.996   6.939 -0.2743 -0.2031  0.7065
 1966Sol     OW10869   0.698   1.153   8.995 -0.0335  0.2874  0.5572
 1966Sol     HW10870   0.760   1.225   8.989 -2.0798  2.0528 -0.2323
 1966Sol     HW10871   0.614   1.196   9.012 -1.4693 -1.8509 -0.9748
 1966Sol     MW10872   0.696   1.164   8.996  0.0690  0.0103  0.9954
 1967Sol     OW10873   1.417   1.211   8.280 -0.4152  0.4909 -0.0055
 1967Sol     HW10874   1.332   1.201   8.323 -0.2884  0.3514  0.2115
 1967Sol     HW10875   1.466   1.270   8.338 -0.1918  0.1855  0.1156
 1967Sol     MW10876   1.413   1.216   8.289  0.1107 -0.3110 -0.3372
 1968Sol     OW10877   1.064   0.650   1.667 -0.0797 -0.2956 -0.2882
 1968Sol     HW10878   1.039   0.708   1.739  0.2291  2.0561 -1.9995
 1968Sol     HW10879   1.005   0.674   1.596 -0.7951 -3.0192 -0.6629
 1968Sol     MW10880   1.057   0.657   1.667 -0.0604  0.2816  0.2013
 1969Sol     OW10881   0.648   1.498   9.918 -0.5452 -0.3043  0.3182
 1969Sol     HW10882   0.662   1.404   9.911  0.4977 -0.2960  2.0045
 1969Sol     HW10883   0.553   1.509   9.925 -0.6505 -1.2308  0.2991
 1969Sol     MW10884   0.641   1.491   9.918  0.0957 -0.7790  0.9034
 1970Sol     OW10885   1.997   3.020   7.605 -0.1661 -0.3751 -0.5883
 1970Sol     HW10886   1.949   2.947   7.566 -0.8297 -0.5310  0.4976
 1970Sol     HW10887   1.928   3.083   7.630  0.2179 -0.3812  0.5285
 1970Sol     MW10888   1.986   3.019   7.604  0.0427 -0.0650  0.2285
 1971Sol     OW10889   3.212   2.480   4.313 -0.3745  0.4923  0.1013
 1971Sol     HW10890   3.157   2.459   4.238  1.1520 -1.8430 -0.4310
 1971Sol     HW10891   3.205   2.575   4.323 -1.9766  0.6053 -1.8933
 1971Sol     MW10892   3.206   2.486   4.307 -0.0642  0.2237  0.4512
 1972Sol     OW10893   2.469   0.935   3.687  0.1999 -0.1378 -0.2267
 1972Sol     HW10894   2.515   1.019   3.682  0.0727 -0.0588 -0.0686
 1972Sol     HW10895   2.441   0.918   3.597  4.2789 -2.2844 -1.2407
 1972Sol     MW10896   2.471   0.941   3.678 -0.2696  1.1760  0.4355
 1973Sol     OW10897   2.176   3.232   2.143 -0.1897 -0.2375 -0.3490
 1973Sol     HW10898   2.134   3.230   2.229  1.2010 -1.0536  0.3258
 1973Sol     HW10899   2.169   3.142   2.111 -0.2198 -0.0556 -0.8595
 1973Sol     MW10900   2.172   3.224   2.148  0.2822 -0.2074  0.1566
 1974Sol     OW10901   2.857   0.362   3.651  0.1941  0.4052 -0.0027
 1974Sol     HW10902   2.819   0.288   3.700  0.1994  0.4852  0.1217
 1974Sol     HW10903   2.792   0.432   3.659 -0.3438  0.0368 -1.1008
 1974Sol     MW10904   2.848   0.361   3.656 -0.0062 -0.2137 -0.2012
 1975Sol     OW10905   3.092   2.235   9.685  0.3038  0.4932  0.4886
 1975Sol     HW10906   3.126   2.166   9.628 -1.1197 -0.2123  0.4749
 1975Sol     HW10907   3.117   2.316   9.640  1.0212 -0.0252 -0.0675
 1975Sol     MW10908   3.097   2.236   9.676 -0.5584 -0.3989 -0.5528
 1976Sol     OW10909   2.787   0.527   5.064 -0.0407 -0.1443  0.5121
 1976Sol     HW10910   2.863   0.562   5.111  0.4413 -0.3969 -0.0603
 1976Sol     HW10911   2.792   0.432   5.075 -0.3641 -0.1494  0.6129
 1976Sol     MW10912   2.794   0.522   5.069 -0.0960  0.4435  0.0380
 1977Sol     OW10913   0.009   1.314   5.805  0.0207  0.5374  0.6104
 1977Sol     HW10914   0.035   1.392   5.757 -1.3576  0.8431  0.3451
 1977Sol     HW10915   0.013   1.340   5.897  0.8256  0.5156  0.5883
 1977Sol     MW10916   0.012   1.323   5.809  0.3517 -0.2484  0.1492
 1978Sol     OW10917   1.404   1.192   1.951 -0.3589  0.0952  0.8231
 1978Sol     HW10918   1.357   1.275   1.941 -0.0824  0.2917  1.1196
 1978Sol     HW10919   1.352   1.129   1.902  0.3059  0.7706 -0.7616
 1978Sol     MW10920   1.395   1.194   1.946  0.3808 -0.5693 -0.2635
 1979Sol     OW10921   1.294   3.263   3.331 -0.4837 -0.1036  0.6279
 1979Sol     HW10922   1.257   3.229   3.250  0.7439 -0.8516  0.3533
 1979Sol     HW10923   1.273   3.356   3.331 -0.0519  0.0053 -0.8143
 1979Sol     MW10924   1.289   3.268   3.324 -0.2902  0.5105  0.3180
 1980Sol     OW10925   2.458   1.286   1.463  0.1963 -0.0862  0.7405
 1980Sol     HW10926   2.418   1.346   1.526  1.2946  1.0556  0.3787
 1980Sol     HW10927   2.462   1.336   1.382  2.0146 -0.3049  0.6809
 1980Sol     MW10928   2.455   1.296   1.461 -0.5437 -0.1697  0.5174
 1981Sol     OW10929   1.252   1.280   8.857  0.5382 -0.2587 -0.3691
 1981Sol     HW10930   1.337   1.321   8.872  0.5345  0.6629 -2.5681
 1981Sol     HW10931   1.272   1.188   8.840  1.1477 -0.0114 -1.0441
 1981Sol     MW10932   1.261   1.276   8.857  0.4994  0.0201  0.4204
 1982Sol     OW10933   2.546   0.561   7.815 -0.1799  0.1991 -0.0517
 1982Sol     HW10934   2.552   0.586   7.723  0.2694  0.4912  0.0553
 1982Sol     HW10935   2.536   0.466   7.813 -0.9768  0.2898 -0.4258
 1982Sol     MW10936   2.546   0.555   7.807  0.4794 -0.7294  0.4440
 1983Sol     OW10937   2.758   0.049   4.446  0.1645 -0.3671 -0.2755
 1983Sol     HW10938   2.760  -0.005   4.367 -0.5789 -0.8823  0.0586
 1983Sol     HW10939   2.838   0.025   4.493  0.3828 -0.3860 -0.6496
 1983Sol     MW10940   2.766   0.042   4.443  0.0730  0.2388 -1.0522
 1984Sol     OW10941   3.215   2.904   7.204  1.1069 -0.7122  0.6339
 1984Sol     HW10942   3.128   2.903   7.165  1.9377  2.2918 -1.5239
 1984Sol     HW10943   3.275   2.908   7.129  3.0252 -1.1456  2.1081
 1984Sol     MW10944   3.212   2.904   7.194  0.9290  0.2047  0.4415
 1985Sol     OW10945   2.657   0.587   4.768 -0.6791 -0.0239  0.4959
 1985Sol     HW10946   2.596   0.640   4.819  0.3381  0.3436  1.3561
 1985Sol     HW10947   2.696   0.528   4.832 -0.1648 -0.2885 -0.0579
 1985Sol     MW10948   2.655   0.587   4.778 -0.2761 -0.9587 -0.1263
 1986Sol     OW10949   0.018   0.757   3.668  0.6062 -0.6574 -0.3819
 1986Sol     HW10950   0.108   0.727   3.677  0.2866 -1.8534 -1.0787
 1986Sol     HW10951   0.015   0.839   3.718  1.8076 -1.1327  0.4888
 1986Sol     MW10952   0.026   0.762   3.674 -0.0735  0.2218  0.3551
 1987Sol     OW10953   0.038   0.201   9.552  0.0650 -0.1770 -0.6612
 1987Sol     HW10954   0.071   0.192   9.462  1.7789 -0.4413 -0.0231
 1987Sol     HW10955   0.036   0.111   9.586 -2.3085 -0.2854 -1.0064
 1987Sol     MW10956   0.041   0.192   9.547 -0.6687 -0.7434 -0.1849
 1988Sol     OW10957   1.155   1.440   2.633 -0.4339  0.2619 -0.0936
 1988Sol     HW10958   1.148   1.529   2.601 -0.4904  0.2615 -0.0833
 1988Sol     HW10959   1.123   1.386   2.560  2.0038  0.0780 -1.0536
 1988Sol     MW10960   1.151   1.443   2.623 -0.2878  0.3964  0.2377
 1989Sol     OW10961   3.199   1.652   8.965 -0.5798  0.4167 -0.2930
 1989Sol     HW10962   3.245   1.703   9.031  0.9932 -0.9269 -0.3372
 1989Sol     HW10963   3.124   1.707   8.941 -1.3594  0.7918  2.7925
 1989Sol     MW10964   3.196   1.661   8.968  0.2585  0.0075 -0.4982
 1990Sol     OW10965   2.807   1.576   3.489 -0.2794 -0.0848 -0.1195
 1990Sol     HW10966   2.866   1.522   3.542  1.5101 -0.3035 -2.2692
 1990Sol     HW10967   2.732   1.519   3.471  0.0894 -0.7212  0.3379
 1990Sol     MW10968   2.805   1.566   3.493 -0.7351 -0.3556  0.0781
 1991Sol     OW10969   0.563   0.413   2.778 -0.0617  0.5328 -0.0283
 1991Sol     HW10970   0.639   0.424   2.836  0.9292  0.9755 -1.3719
 1991Sol     HW10971   0.524   0.500   2.773 -0.9091  0.2172  0.9848
 1991Sol     MW10972   0.567   0.422   2.783  0.3191  0.7264 -0.2931
 1992Sol     OW10973   1.262   2.846   4.263  0.2626  0.1006 -0.5268
 1992Sol     HW10974   1.237   2.926   4.217 -1.5884 -0.0470  0.1759
 1992Sol     HW10975   1.269   2.872   4.355 -0.9453 -0.6561 -0.2089
 1992Sol     MW10976   1.260   2.856   4.267 -0.6207  0.2581  0.3333
 1993Sol     OW10977   1.143   0.719   5.768  0.0481  0.2015 -0.5126
 1993Sol     HW10978   1.103   0.755   5.847 -0.7377 -1.8865  0.0585
 1993Sol     HW10979   1.190   0.641   5.798  0.6670  0.0114 -1.9334
 1993Sol     MW10980   1.144   0.715   5.778 -0.2409  0.0424 -0.0769
 1994Sol     OW10981   2.127   1.789   5.005  0.0214 -0.4965  0.1272
 1994Sol     HW10982   2.034   1.772   4.989 -0.3807  1.9361 -0.3201
 1994Sol     HW10983   2.167   1.786   4.918 -0.5383  3.3383 -0.3570
 1994Sol     MW10984   2.123   1.788   4.996 -0.1386  0.6549 -0.5703
 1995Sol     OW10985   2.516   2.187   2.849 -0.1986 -0.0068  0.2834
 1995Sol     HW10986   2.451   2.118   2.858  0.2407 -0.5168 -0.3693
 1995Sol     HW10987   2.470   2.257   2.803 -0.5392 -0.0091  0.6201
 1995Sol     MW10988   2.506   2.187   2.845  0.4078 -0.1007  0.0030
 1996Sol     OW10989   1.708   2.318   4.890 -0.3138  0.0254  0.5795
 1996Sol     HW10990   1.798   2.350   4.887 -0.3968  0.3056  1.0177
 1996Sol     HW10991   1.705   2.249   4.823  0.5961 -0.9285  1.4981
 1996Sol     MW10992   1.716   2.315   4.884 -0.5658 -0.1649  0.1065
 1997Sol     OW10993   2.209   0.133   7.374 -0.7382  0.1516 -0.2504
 1997Sol     HW10994   2.191   0.073   7.447 -0.9555  0.0298 -0.4022
 1997Sol     HW10995   2.281   0.091   7.326 -0.5308  0.2791 -0.0528
 1997Sol     MW10996   2.214   0.124   7.376  0.1433 -0.2636  0.1437
 1998Sol     OW10997   0.529   3.353   8.245  0.5575 -0.1991  0.1727
 1998Sol     HW10998   0.512   3.299   8.168 -3.5420  1.5375 -0.2646
 1998Sol     HW10999   0.541   3.441   8.210 -0.0118  0.3779  1.4092
 1998Sol     MW11000   0.529   3.356   8.235 -0.4778 -0.2462  0.0140
 1999Sol     OW11001   2.235   1.106   7.777 -0.1470  0.2860  0.3410
 1999Sol     HW11002   2.157   1.053   7.795 -0.3255  0.3241 -0.2743
 1999Sol     HW11003   2.205   1.197   7.785 -0.5774  0.3311 -1.4226
 1999Sol     MW11004   2.225   1.109   7.779 -0.2709 -0.0729  0.3215
 2000Sol     OW11005   0.730   1.865   9.686 -0.0978 -0.1631  0.4775
 2000Sol     HW11006   0.646   1.879   9.642 -0.3368  0.2899  1.0654
 2000Sol     HW11007   0.706   1.825   9.770  0.3761 -1.3247  0.0627
 2000Sol     MW11008   0.720   1.862   9.689 -0.4731 -0.1590 -0.5858
 2001Sol     OW11009   0.900   2.190   8.387 -0.0458 -0.4154  0.3659
 2001Sol     HW11010   0.826   2.152   8.339  0.6818 -1.0517 -0.2544
 2001Sol     HW11011   0.896   2.149   8.473  0.7311 -1.9224 -0.2936
 2001Sol     MW11012   0.893   2.183   8.390  0.4919 -0.3751  0.3859
 2002Sol     OW11013   2.457   1.189   8.322  0.5194  0.1050 -0.0806
 2002Sol     HW11014   2.454   1.240   8.402  1.9305 -0.4046  0.3162
 2002Sol     HW11015   2.550   1.169   8.310  0.2745 -0.2090 -1.5921
 2002Sol     MW11016   2.465   1.192   8.328 -0.1294  0.4431 -0.0614
 2003Sol     OW11017   1.212   3.369   1.447 -0.1903  0.3950  0.0286
 2003Sol     HW11018   1.126   3.407   1.430 -0.2338  0.7444  1.0357
 2003Sol     HW11019   1.225   3.379   1.541 -0.2477 -2.1571  0.3539
 2003Sol     MW11020   1.206   3.373   1.454 -0.6337  0.0183  0.2755
 2004Sol     OW11021   0.711   1.188   7.213 -0.0701  0.1273  0.3114
 2004Sol     HW11022   0.619   1.207   7.231 -0.5150 -0.2316 -1.4685
 2004Sol     HW11023   0.709   1.129   7.138  1.6022 -0.2296  0.5265
 2004Sol     MW11024   0.702   1.185   7.208 -0.2518 -0.0076  0.6468
 2005Sol     OW11025   3.146   0.927   5.454 -0.0198  0.1954 -0.5876
 2005Sol     HW11026   3.099   1.010   5.450 -0.9827 -0.1397  2.2799
 2005Sol     HW11027   3.232   0.950   5.490 -0.8382 -0.1969  1.7200
 2005Sol     MW11028   3.150   0.937   5.457  0.1480 -0.0515  0.1284
 2006Sol     OW11029   0.461   2.767   4.074 -0.1124  0.0644  0.4774
 2006Sol     HW11030   0.403   2.841   4.092  0.5204  0.4003  1.1667
 2006Sol     HW11031   0.435   2.700   4.137  0.7462  0.4902  1.2857
 2006Sol     MW11032   0.454   2.768   4.081  0.0937 -0.2524 -0.1287
 2007Sol     OW11033   1.961   0.222   8.862  0.1148  0.0653 -0.2312
 2007Sol     HW11034   2.049   0.256   8.876 -0.1653  0.4278  0.6736
 2007Sol     HW11035   1.972   0.153   8.797  1.3586 -1.1737  1.2528
 2007Sol     MW11036   1.970   0.218   8.857 -0.1839 -0.4246 -0.4045
 2008Sol     OW11037   1.561   3.304   4.151  0.1645  0.2314  0.2467
 2008Sol     HW11038   1.635   3.362   4.165  0.7338 -0.3387 -0.3567
 2008Sol     HW11039   1.599   3.216   4.154 -0.3228 -0.0293 -1.0612
 2008Sol     MW11040   1.571   3.301   4.153 -0.0077  0.0579 -0.8467
 2009Sol     OW11041   1.964   3.341   5.724  0.8360 -0.2316  0.2747
 2009Sol     HW11042   1.898   3.306   5.785 -0.2856  0.5301 -0.4808
 2009Sol     HW11043   1.920   3.415   5.681  1.9145 -0.2156 -0.8226
 2009Sol     MW11044   1.954   3.344   5.726  0.1088 -0.1604  0.0374
 2010Sol     OW11045   1.798   1.511   6.761  0.0313 -0.4475 -0.1251
 2010Sol     HW11046   1.884   1.528   6.798 -0.3419  2.3295 -0.4603
 2010Sol     HW11047   1.810   1.521   6.666 -0.9641  1.5284 -0.0701
 2010Sol     MW11048   1.807   1.513   6.756 -0.5806 -0.0619 -0.2155
 2011Sol     OW11049   2.130   1.140   3.009  0.5680  0.6643  0.5104
 2011Sol     HW11050   2.125   1.235   3.023  0.7653  0.7000  0.3267
 2011Sol     HW11051   2.043   1.117   2.975  0.3053  0.6809  1.1582
 2011Sol     MW11052   2.121   1.147   3.008  0.2794  0.3383 -0.6561
 2012Sol     OW11053   2.225   0.164   1.362 -0.3723  1.0140 -0.6008
 2012Sol     HW11054   2.200   0.253   1.335 -0.4472  1.1664 -0.0325
 2012Sol     HW11055   2.311   0.174   1.403 -0.7542  0.9558  0.2264
 2012Sol     MW11056   2.230   0.173   1.363 -0.0294  0.2125  0.3485
 2013Sol     OW11057   2.637   0.905   7.253 -0.0996  0.2798 -0.4033
 2013Sol     HW11058   2.573   0.836   7.237  0.2079 -0.1668  0.2683
 2013Sol     HW11059   2.721   0.866   7.228  0.2346 -0.0290  1.1478
 2013Sol     MW11060   2.639   0.895   7.250  0.8009  0.5122  0.0585
 2014Sol     OW11061   0.462   1.967   4.319  0.0557  0.6075 -0.5362
 2014Sol     HW11062   0.501   1.884   4.294  1.9709  1.3638 -0.1127
 2014Sol     HW11063   0.496   1.985   4.407  2.3954  3.4745 -1.9572
 2014Sol     MW11064   0.468   1.961   4.325  0.2350  0.1514  0.6986
 2015Sol     OW11065   2.535   1.628   5.920 -0.2153  0.6346 -0.0206
 2015Sol     HW11066   2.537   1.721   5.896  0.9791  0.2545 -1.4615
 2015Sol     HW11067   2.626   1.606   5.936 -0.3070 -0.6659 -1.1876
 2015Sol     MW11068   2.543   1.635   5.919  0.3170 -0.6970 -0.0321
 2016Sol     OW11069   3.022   0.330   1.582  0.1796 -0.0544  0.6060
 2016Sol     HW11070   3.102   0.298   1.541  0.1487 -0.6892  1.0393
 2016Sol     HW11071   2.972   0.369   1.510  0.4279 -0.5654  0.1534
 2016Sol     MW11072   3.024   0.331   1.571 -0.3362 -0.1714  0.0428
 2017Sol     OW11073   2.417   2.067   7.278 -0.1869 -0.1027 -0.3171
 2017Sol     HW11074   2.398   2.046   7.370 -0.0887 -1.6420 -0.6398
 2017Sol     HW11075   2.331   2.069   7.236 -0.1614 -0.3245 -0.3804
 2017Sol     MW11076   2.407   2.066   7.283  0.1585  0.7321 -1.2601
 2018Sol     OW11077   1.783   2.620   4.209 -0.3647 -0.5641  0.2322
 2018Sol     HW11078   1.810   2.539   4.253  0.8711 -1.1231 -1.4911
 2018Sol     HW11079   1.810   2.690   4.269  1.7445 -1.2957  0.1801
 2018Sol     MW11080   1.788   2.619   4.218  0.0448  0.0545 -0.0149
 2019Sol     OW11081   1.889   2.027   4.914  0.0128  0.5285 -0.0366
 2019Sol     HW11082   1.859   2.069   4.834 -2.4520  0.2387  0.6916
 2019Sol     HW11083   1.902   1.935   4.889 -0.2290  0.5489 -0.2420
 2019Sol     MW11084   1.887   2.022   4.904  0.1331 -0.2282 -0.2630
 2020Sol     OW11085   1.633   1.760   2.157 -0.1942 -0.2223 -0.0798
 2020Sol     HW11086   1.689   1.702   2.208 -1.6686  0.6170  2.5987
 2020Sol     HW11087   1.684   1.841   2.149  0.3831 -0.6459 -0.6378
 2020Sol     MW11088   1.643   1.762   2.161 -0.4172 -0.1106  0.1545
 2021Sol     OW11089   1.480   3.017   9.853 -0.0272 -0.0654 -0.6083
 2021Sol     HW11090   1.538   3.016   9.776  1.4281 -0.1110  0.4592
 2021Sol     HW11091   1.392   3.025   9.817  0.5580 -1.1330 -2.3291
 2021Sol     MW11092   1.478   3.018   9.843  0.2576 -0.2082  0.0043
 2022Sol     OW11093   0.850   0.234   9.956 -0.1236 -0.5476  0.5896
 2022Sol     HW11094   0.939   0.263   9.976 -0.6477  0.2112  1.8498
 2022Sol     HW11095   0.857   0.195   9.869  1.3486 -0.0790  0.4813
 2022Sol     MW11096   0.859   0.233   9.950  0.3667 -0.2769 -0.8322
 2023Sol     OW11097   2.717   1.108   8.277 -0.3226  0.0033 -0.1182
 2023Sol     HW11098   2.749   1.198   8.270 -2.4164  0.8953  1.2153
 2023Sol     HW11099   2.789   1.061   8.318  0.8691  1.0081 -0.9869
 2023Sol     MW11100   2.726   1.112   8.280  0.2875  0.4430 -0.6372
 2024Sol     OW11101   2.382   1.877   4.793  0.1788 -0.3125  0.3572
 2024Sol     HW11102   2.400   1.803   4.735 -0.3440 -1.1688  1.2665
 2024Sol     HW11103   2.324   1.934   4.741 -0.7231 -1.3333  0.2110
 2024Sol     MW11104   2.378   1.875   4.783 -0.1404  0.2794 -0.1483
 2025Sol     OW11105   0.930   0.900   4.858  0.1935 -0.0933  0.3040
 2025Sol     HW11106   0.933   0.823   4.801 -1.5690 -0.7104  1.0054
 2025Sol     HW11107   0.852   0.887   4.912  1.7419  0.5524  2.7792
 2025Sol     MW11108   0.923   0.892   4.858  0.0748  0.2474 -0.4512
 2026Sol     OW11109   3.036   1.832   3.107 -0.4911  0.4541 -0.0408
 2026Sol     HW11110   2.946   1.839   3.073 -0.2795  0.0476 -0.6944
 2026Sol     HW11111   3.027   1.784   3.189 -0.9141  0.7250  0.0762
 2026Sol     MW11112   3.027   1.828   3.111  0.6650  0.2185  0.3311
 2027Sol     OW11113   2.274   0.684   4.216 -0.3694 -0.3168 -0.8803
 2027Sol     HW11114   2.304   0.649   4.300 -0.6370 -0.2810 -0.7727
 2027Sol     HW11115   2.335   0.646   4.152 -0.5384 -0.8234 -0.7418
 2027Sol     MW11116   2.283   0.678   4.218  0.5331 -0.6096  0.0461
 2028Sol     OW11117   0.744   0.473   4.443  1.0524  0.6614 -0.6285
 2028Sol     HW11118   0.740   0.445   4.351 -1.7367 -0.0615 -0.3373
 2028Sol     HW11119   0.744   0.391   4.492 -1.1259  1.0774  0.0897
 2028Sol     MW11120   0.744   0.463   4.439 -0.0347 -0.0596  0.2560
 2029Sol     OW11121   0.627   3.166   2.759 -0.2641 -0.6822 -0.5268
 2029Sol     HW11122   0.583   3.206   2.834 -2.2091  0.9737 -2.4555
 2029Sol     HW11123   0.696   3.229   2.735  1.9616 -2.3492  1.2881
 2029Sol     MW11124   0.629   3.176   2.763  0.4794  0.2366 -0.0472
 2030Sol     OW11125   0.999   0.785   1.941  0.5685 -0.5676 -0.5073
 2030Sol     HW11126   1.031   0.862   1.989  1.6627 -0.0326 -2.0399
 2030Sol     HW11127   1.003   0.714   2.004  2.1746  0.0874  0.1526
 2030Sol     MW11128   1.002   0.786   1.951 -0.2767 -0.5285  0.4954
 2031Sol     OW11129   3.146   1.073   2.000  0.0269  0.2913 -0.4599
 2031Sol     HW11130   3.204   1.032   2.064 -1.8465 -0.2428  0.9798
 2031Sol     HW11131   3.110   1.000   1.950 -0.6042  0.4497 -0.2554
 2031Sol     MW11132   3.148   1.063   2.001  0.5101  0.0529  0.0449
 2032Sol     OW11133   3.153   0.500   8.985 -0.2986 -0.0470  0.5278
 2032Sol     HW11134   3.221   0.513   9.050 -0.0290 -0.1082  0.2616
 2032Sol     HW11135   3.099   0.579   8.989  0.1480  0.2707  0.3143
 2032Sol     MW11136   3.154   0.508   8.991  0.3465  0.2573 -0.0475
 2033Sol     OW11137   1.693   2.258   3.790 -0.0324 -0.1916  0.0107
 2033Sol     HW11138   1.661   2.347   3.775 -0.6086 -0.3275  0.4334
 2033Sol     HW11139   1.749   2.239   3.715 -0.3930  0.3001 -0.3777
 2033Sol     MW11140   1.695   2.264   3.782 -0.0860 -0.5385  0.2789
 2034Sol     OW11141   0.760   0.857   8.165  0.0379 -0.0694 -0.0286
 2034Sol     HW11142   0.722   0.771   8.146  3.2519 -1.3804 -0.8391
 2034Sol     HW11143   0.737   0.911   8.089 -2.2442 -0.0867  0.6155
 2034Sol     MW11144   0.755   0.854   8.156  0.2002  0.5651 -0.0016
 2035Sol     OW11145   1.849   2.624   9.163 -0.0612 -0.0960  0.2406
 2035Sol     HW11146   1.800   2.618   9.244  0.4059 -0.5319  0.4891
 2035Sol     HW11147   1.938   2.646   9.189 -0.0771  0.5184 -0.1993
 2035Sol     MW11148   1.853   2.625   9.172 -0.1902 -0.1566  0.3040
 2036Sol     OW11149   1.616   2.058   8.030  0.4447 -0.0821  0.2738
 2036Sol     HW11150   1.629   2.137   7.977  1.2548  0.5562  1.4094
 2036Sol     HW11151   1.700   2.013   8.027 -0.1023 -1.0840 -0.6222
 2036Sol     MW11152   1.625   2.061   8.025 -0.4411  0.6321  0.1460
 2037Sol     OW11153   2.070   2.565   9.853 -0.5413 -0.2061 -0.0596
 2037Sol     HW11154   1.980   2.538   9.866 -0.6874  1.7527  3.7859
 2037Sol     HW11155   2.065   2.638   9.791 -1.9273  1.4468  1.9291
 2037Sol     MW11156   2.062   2.569   9.849 -0.2204  0.9375  0.2841
 2038Sol     OW11157   1.393   2.472   7.982 -0.3908 -0.1506  0.5235
 2038Sol     HW11158   1.437   2.545   7.938  0.1867 -0.0398  1.2765
 2038Sol     HW11159   1.350   2.512   8.057 -0.3846 -0.5281  0.7269
 2038Sol     MW11160   1.393   2.482   7.985  0.2253  0.5976 -0.0514
 2039Sol     OW11161   0.634   2.284   3.388  0.6985 -0.2593 -0.1407
 2039Sol     HW11162   0.699   2.247   3.448  2.0138 -0.4721 -1.6679
 2039Sol     HW11163   0.656   2.247   3.302 -1.2306 -0.0604 -0.7503
 2039Sol     MW11164   0.642   2.278   3.386  0.2090 -0.5559  0.9023
 2040Sol     OW11165   2.537   2.628   7.676 -0.1040 -0.2313 -0.1587
 2040Sol     HW11166   2.465   2.579   7.716 -0.7753  0.7187 -0.1809
 2040Sol     HW11167   2.494   2.700   7.631  0.8640  0.3089 -0.2217
 2040Sol     MW11168   2.527   2.630   7.676  0.3148  0.0895  0.0715
 2041Sol     OW11169   0.446   2.705   6.713 -0.5111  0.1891 -0.3700
 2041Sol     HW11170   0.502   2.730   6.786 -0.4819 -0.9855  0.0218
 2041Sol     HW11171   0.381   2.647   6.751 -0.2685 -0.7392 -1.3440
 2041Sol     MW11172   0.446   2.702   6.723  0.6241 -0.4170  0.0202
 2042Sol     OW11173   2.601   1.806   1.778  0.5481  0.7988  0.0383
 2042Sol     HW11174   2.560   1.722   1.796 -0.0229  1.2683  0.9146
 2042Sol     HW11175   2.693   1.795   1.804  0.5207  0.3845 -0.0479
 2042Sol     MW11176   2.606   1.798   1.782 -0.3086 -0.0373  0.1941
 2043Sol     OW11177   1.886   0.097   2.995 -0.3673 -0.4619  0.2770
 2043Sol     HW11178   1.850   0.018   2.954  2.2993 -0.8767 -1.3832
 2043Sol     HW11179   1.913   0.068   3.083  1.4915 -1.7244 -0.6626
 2043Sol     MW11180   1.886   0.087   2.999 -0.4159 -0.4505  0.2375
 2044Sol     OW11181   2.013   2.688   6.320  0.1678 -0.2214  0.1218
 2044Sol     HW11182   2.072   2.678   6.245  1.2260 -0.1730  0.9331
 2044Sol     HW11183   1.953   2.613   6.314 -0.7443  0.6349 -1.6278
 2044Sol     MW11184   2.013   2.680   6.313 -0.0074  0.1642  0.9742
 2045Sol     OW11185   1.835   2.205   9.218  0.3734 -0.0907 -0.4876
 2045Sol     HW11186   1.768   2.241   9.160 -0.3419 -1.0623 -0.2799
 2045Sol     HW11187   1.824   2.254   9.300 -1.1941 -1.3626  0.0908
 2045Sol     MW11188   1.828   2.213   9.220  0.0417 -0.2553 -0.2531
 2046Sol     OW11189   1.597   0.319   6.851  0.5854  0.0769 -0.6206
 2046Sol     HW11190   1.649   0.314   6.770 -1.1971 -1.6105 -1.7308
 2046Sol     HW11191   1.649   0.272   6.916  1.4431  0.3173 -1.1265
 2046Sol     MW11192   1.606   0.314   6.849  0.9502 -0.1026  0.2824
 2047Sol     OW11193   0.081   3.328   3.757 -0.0114 -0.0172 -0.6196
 2047Sol     HW11194   0.176   3.330   3.766  0.3655 -0.9222 -3.9446
 2047Sol     HW11195   0.052   3.272   3.830  1.7749  1.7016  1.4945
 2047Sol     MW11196   0.087   3.323   3.765 -0.4628 -0.2184 -0.3683
 2048Sol     OW11197   2.633   1.194   4.336  0.0576  0.7443 -0.3661
 2048Sol     HW11198   2.704   1.145   4.376  0.1310  1.3948  0.3251
 2048Sol     HW11199   2.582   1.227   4.411 -1.5532 -0.5771 -0.8724
 2048Sol     MW11200   2.635   1.193   4.347 -0.0930  0.1751 -0.1174
 2049Sol     OW11201   0.870   0.695   5.392 -0.3838  0.0714 -0.4600
 2049Sol     HW11202   0.933   0.651   5.449 -0.8171 -0.3267 -0.2888
 2049Sol     HW11203   0.805   0.732   5.452  1.0360  2.6750 -0.4411
 2049Sol     MW11204   0.870   0.695   5.402 -0.3632 -0.4924 -0.2230
 2050Sol     OW11205   1.775   3.070   9.367 -0.2242 -0.1590 -0.0965
 2050Sol     HW11206   1.702   3.051   9.309  0.5737 -2.1711 -0.4971
 2050Sol     HW11207   1.833   3.127   9.316 -0.3283 -0.5714 -0.6719
 2050Sol     MW11208   1.774   3.073   9.358  0.6949 -0.2692  0.2902
 2051Sol     OW11209   2.353   3.192   9.617  0.0928  0.4910 -0.6270
 2051Sol     HW11210   2.337   3.277   9.660  4.3729  1.0233  0.1813
 2051Sol     HW11211   2.361   3.130   9.689  1.7126  0.3529 -0.8881
 2051Sol     MW11212   2.353   3.194   9.627 -0.2350 -0.1703  0.2126
 2052Sol     OW11213   1.107   2.601   3.598  0.3752 -0.7034 -0.6353
 2052Sol     HW11214   1.129   2.690   3.571  0.7733 -0.7824 -0.5672
 2052Sol     HW11215   1.042   2.613   3.668  1.5538 -0.4205  0.4278
 2052Sol     MW11216   1.103   2.610   3.602 -0.4321 -0.1998  0.0059
 2053Sol     OW11217   1.931   1.124   4.063  0.7479  0.0913  0.5740
 2053Sol     HW11218   1.937   1.040   4.019  0.1210  0.9840 -1.2631
 2053Sol     HW11219   1.942   1.103   4.156  1.6373 -1.8705  0.0494
 2053Sol     MW11220   1.932   1.115   4.067 -0.1318 -0.6209 -0.5158
 2054Sol     OW11221   0.174   1.016   6.337 -0.0365 -0.4032 -0.1501
 2054Sol     HW11222   0.233   1.087   6.314  0.7496 -1.1918 -0.5811
 2054Sol     HW11223   0.210   0.980   6.418 -0.0556 -0.7401 -0.2904
 2054Sol     MW11224   0.182   1.019   6.342 -0.2074  0.3791  0.5084
 2055Sol     OW11225   2.837   3.444   7.691 -0.1182  0.4058 -0.0990
 2055Sol     HW11226   2.774   3.411   7.755 -2.2571  1.0981 -1.7653
 2055Sol     HW11227   2.915   3.465   7.742 -1.0152 -1.0339  1.9357
 2055Sol     MW11228   2.838   3.443   7.701 -0.1322 -0.4166  0.2493
 2056Sol     OW11229   0.731   2.841   9.280 -0.2264 -0.0105 -0.0388
 2056Sol     HW11230   0.718   2.931   9.309  1.4121  0.3999 -0.5388
 2056Sol     HW11231   0.647   2.816   9.242 -0.7815  1.2066  0.3640
 2056Sol     MW11232   0.723   2.847   9.279 -0.2494  0.2295 -0.1073
 2057Sol     OW11233   0.751   0.049   7.761 -0.1181 -0.3838 -0.2597
 2057Sol     HW11234   0.788  -0.026   7.809  0.0864 -0.5245 -0.6336
 2057Sol     HW11235   0.699   0.095   7.826  1.6102  0.4427  0.5797
 2057Sol     MW11236   0.750   0.046   7.772  0.3407 -0.1309  0.4746
 2058Sol     OW11237   1.658   1.152   2.096 -0.7786 -0.0586  0.3972
 2058Sol     HW11238   1.716   1.131   2.022  0.2400 -1.6513  1.6310
 2058Sol     HW11239   1.569   1.141   2.060 -0.3276  0.5710 -0.9717
 2058Sol     MW11240   1.655   1.149   2.086  0.4380  0.2214 -0.3216
 2059Sol     OW11241   2.668   0.821   3.859 -0.0316  0.0427 -0.5249
 2059Sol     HW11242   2.602   0.861   3.801 -0.7312  0.6279  0.6620
 2059Sol     HW11243   2.620   0.754   3.907  0.6300 -0.6782 -0.8615
 2059Sol     MW11244   2.658   0.819   3.858 -0.1001 -0.0737 -0.1160
 2060Sol     OW11245   1.968   1.398   1.698 -0.2797  0.1525 -0.2582
 2060Sol     HW11246   1.912   1.458   1.649 -0.2508  1.0322  0.7859
 2060Sol     HW11247   1.908   1.341   1.745 -0.3133  1.5801  1.4560
 2060Sol     MW11248   1.958   1.398   1.698 -0.5566  0.3230  0.3428
 2061Sol     OW11249   0.449   1.022   2.092  0.3142  0.1381 -0.2188
 2061Sol     HW11250   0.459   1.073   2.172  0.6502  1.9452 -1.3828
 2061Sol     HW11251   0.537   0.987   2.075  0.0132 -1.1153  0.7532
 2061Sol     MW11252   0.458   1.023   2.098  0.4324  0.1963 -0.4268
 2062Sol     OW11253   1.854   1.021   7.355 -0.4167  0.5865  0.1108
 2062Sol     HW11254   1.823   1.063   7.275 -0.6569  2.5493  1.2204
 2062Sol     HW11255   1.778   0.971   7.387 -0.7499  0.9444 -0.1258
 2062Sol     MW11256   1.844   1.020   7.351  0.2357  0.0219 -0.6486
 2063Sol     OW11257   1.664   2.738   3.635 -0.0614 -0.1816  0.1121
 2063Sol     HW11258   1.639   2.655   3.675  0.1297 -0.2352  0.1228
 2063Sol     HW11259   1.594   2.757   3.573  1.7487 -2.3079 -2.7308
 2063Sol     MW11260   1.655   2.733   3.633 -0.0093  0.1711  0.4543
 2064Sol     OW11261   1.939   1.212   5.953  0.3851 -0.4515 -0.3893
 2064Sol     HW11262   2.013   1.227   5.895  0.2944  2.1547  0.1008
 2064Sol     HW11263   1.869   1.268   5.918 -0.6873 -1.2734  0.3858
 2064Sol     MW11264   1.939   1.218   5.944  0.2614  0.2668 -0.1550
 2065Sol     OW11265   2.503   2.180   6.634  0.8055  0.1345 -0.1509
 2065Sol     HW11266   2.457   2.193   6.717 -0.5363 -1.5454 -0.5896
 2065Sol     HW11267   2.595   2.175   6.658  0.4934  0.4354  1.1464
 2065Sol     MW11268   2.507   2.181   6.644  0.2876  0.3283  0.4536
 2066Sol     OW11269   3.299   1.848   6.984  0.0428 -0.3140 -0.6259
 2066Sol     HW11270   3.351   1.809   6.913  0.0756 -2.2472  0.4216
 2066Sol     HW11271   3.247   1.775   7.019 -0.7700  0.8418  0.6308
 2066Sol     MW11272   3.299   1.838   6.981 -0.3644 -1.0544 -0.4448
 2067Sol     OW11273   1.300   2.128   8.353 -0.6257 -0.2955  0.1848
 2067Sol     HW11274   1.286   2.219   8.380  0.0842  0.0951 -0.6914
 2067Sol     HW11275   1.223   2.107   8.300 -0.4446  0.0509 -0.2231
 2067Sol     MW11276   1.292   2.135   8.350 -0.2526 -0.5302  0.0581
 2068Sol     OW11277   2.443   0.447   7.327  0.3600  0.0616  0.0448
 2068Sol     HW11278   2.485   0.366   7.357  1.2738  1.4313  2.6612
 2068Sol     HW11279   2.515   0.499   7.291 -0.0485  0.1593 -0.6320
 2068Sol     MW11280   2.453   0.444   7.327 -0.9576  0.3423 -0.1736
 2069Sol     OW11281   2.418   1.972   8.475  0.5162  0.1854 -0.2600
 2069Sol     HW11282   2.452   1.901   8.420  1.5081  0.6713 -0.2817
 2069Sol     HW11283   2.460   2.051   8.441  0.9954  0.5218  1.0716
 2069Sol     MW11284   2.425   1.973   8.467 -0.2663 -0.1541 -0.8072
 2070Sol     OW11285   1.851   1.847   6.390  0.3733  0.1576  0.3093
 2070Sol     HW11286   1.870   1.866   6.299  2.7688  1.5346  1.0645
 2070Sol     HW11287   1.857   1.752   6.398  2.8099  0.2392 -0.4015
 2070Sol     MW11288   1.853   1.840   6.383 -0.0888 -0.3580  0.4294
 2071Sol     OW11289   2.987   2.258   9.015  0.0283 -0.6616  0.6599
 2071Sol     HW11290   2.987   2.187   8.950  0.1333  0.6508 -0.7990
 2071Sol     HW11291   2.896   2.266   9.042 -0.6078  1.0281 -1.8499
 2071Sol     MW11292   2.979   2.252   9.011 -0.4258 -0.5814  0.3471
 2072Sol     OW11293   0.509   2.823   7.206  0.3365 -0.3107 -0.0945
 2072Sol     HW11294   0.601   2.807   7.186  0.6980  0.7715  0.6481
 2072Sol     HW11295   0.507   2.833   7.302  0.0729  3.3298 -0.4130
 2072Sol     MW11296   0.517   2.822   7.213  0.3609  0.1940  0.3638
 2073Sol     OW11297   0.605   2.351   5.232 -0.0483 -0.2903  0.4831
 2073Sol     HW11298   0.621   2.355   5.326  0.2386  0.8226  0.3935
 2073Sol     HW11299   0.630   2.437   5.200  0.6541 -0.9433 -0.7481
 2073Sol     MW11300   0.608   2.359   5.238  0.7089  0.2524 -0.7760
 2074Sol     OW11301   1.776   0.273   5.696  0.3024  0.3469 -0.2641
 2074Sol     HW11302   1.778   0.282   5.791  1.4050 -0.3382 -0.2114
 2074Sol     HW11303   1.697   0.319   5.669 -0.3754 -0.0143  1.0512
 2074Sol     MW11304   1.769   0.278   5.702  0.3077 -0.1814  0.0363
 2075Sol     OW11305   1.189   0.960   8.105 -0.0097  0.0802  0.4290
 2075Sol     HW11306   1.136   1.028   8.147  1.9528  0.6620  2.0017
 2075Sol     HW11307   1.275   1.001   8.093  1.1886 -2.1150  1.3704
 2075Sol     MW11308   1.192   0.970   8.107 -0.0191 -0.1098 -0.0645
 2076Sol     OW11309   0.373   2.230   7.267  0.0180 -0.1971 -0.6573
 2076Sol     HW11310   0.323   2.258   7.343  0.0323 -0.0521 -0.7008
 2076Sol     HW11311   0.455   2.196   7.303 -0.0794 -0.3633 -0.5918
 2076Sol     MW11312   0.376   2.229   7.277 -0.3214  0.0392  0.1696
 2077Sol     OW11313   0.765   1.836   9.127  0.4060  0.1735 -0.5865
 2077Sol     HW11314   0.734   1.831   9.218  0.5471 -1.5754 -0.6259
 2077Sol     HW11315   0.861   1.837   9.135  0.4235 -0.3096 -0.7277
 2077Sol     MW11316   0.771   1.836   9.136  0.2270 -0.1950 -0.0355
 2078Sol     OW11317   2.664   0.949   4.817  0.6035 -0.2118  0.5540
 2078Sol     HW11318   2.653   1.033   4.862  2.5147  0.1592  0.3477
 2078Sol     HW11319   2.737   0.907   4.863  1.9088 -0.2711 -1.5169
 2078Sol     MW11320   2.669   0.953   4.825  0.0530 -0.3422  0.1986
 2079Sol     OW11321   3.034   0.998   4.052 -0.0904 -0.5333  0.2332
 2079Sol     HW11322   2.940   0.981   4.051 -0.4040  0.8113  2.1547
 2079Sol     HW11323   3.067   0.947   4.126  0.3775  0.3562  0.6545
 2079Sol     MW11324   3.029   0.992   4.059 -0.6958  0.0120  0.7687
 2080Sol     OW11325   2.016   1.770   5.797 -0.4338 -0.5511 -0.3373
 2080Sol     HW11326   2.076   1.810   5.735  1.4774 -0.4827  1.5034
 2080Sol     HW11327   1.933   1.817   5.783  0.7135  1.3741 -0.9102
 2080Sol     MW11328   2.014   1.778   5.791  0.6434  0.1513 -0.4115
 2081Sol     OW11329   1.796   2.653   1.717  0.2489 -0.6053 -0.3805
 2081Sol     HW11330   1.858   2.619   1.653  1.6899 -1.0837  1.2099
 2081Sol     HW11331   1.814   2.747   1.719  0.4019 -0.6313 -0.4810
 2081Sol     MW11332   1.804   2.658   1.712  0.2575 -0.1658 -0.1420
 2082Sol     OW11333   1.348   0.232   1.763  0.6146  0.1018  0.2201
 2082Sol     HW11334   1.437   0.247   1.732  0.0284 -1.1063 -2.1519
 2082Sol     HW11335   1.297   0.305   1.727  0.2656 -0.3037 -0.1100
 2082Sol     MW11336   1.351   0.240   1.757  0.2016  0.4730  0.5271
 2083Sol     OW11337   1.514   1.102   9.676 -0.0246  0.2095  0.1786
 2083Sol     HW11338   1.493   1.145   9.592  1.6542 -0.3030 -0.5324
 2083Sol     HW11339   1.587   1.154   9.711 -0.8933  0.5780  1.4609
 2083Sol     MW11340   1.519   1.111   9.671  0.8269 -0.3915 -0.1730
 2084Sol     OW11341   2.113   2.194   4.881  0.5582  0.0899 -0.0494
 2084Sol     HW11342   2.055   2.270   4.871  1.1893  0.5061 -0.5675
 2084Sol     HW11343   2.055   2.122   4.906 -0.2264  0.4245 -0.8993
 2084Sol     MW11344   2.103   2.194   4.883  0.6156 -0.1993 -0.0932
 2085Sol     OW11345   2.094   2.341   8.125 -0.2084 -0.1851  0.0133
 2085Sol     HW11346   2.003   2.342   8.096  0.0973  1.2488 -0.9719
 2085Sol     HW11347   2.144   2.360   8.046  0.8138  1.0479  0.9347
 2085Sol     MW11348   2.090   2.343   8.116 -0.3888  0.5331  0.2019
 2086Sol     OW11349   0.106   0.936   3.322  0.4260 -0.0336  0.1308
 2086Sol     HW11350   0.148   0.991   3.256  0.7514  0.6945  0.9340
 2086Sol     HW11351   0.014   0.960   3.319  0.7134  1.2517  1.1318
 2086Sol     MW11352   0.102   0.943   3.316  0.5005  0.2634  0.0594
 2087Sol     OW11353   1.800   2.838   5.828  0.5405  0.6316 -0.2272
 2087Sol     HW11354   1.756   2.883   5.755  0.5223  0.4573 -0.3226
 2087Sol     HW11355   1.765   2.881   5.906 -0.0172  0.2951 -0.2916
 2087Sol     MW11356   1.793   2.846   5.828  0.3333 -0.3841 -0.1372
 2088Sol     OW11357   0.884   2.648   9.397  0.0946 -0.2752 -0.1658
 2088Sol     HW11358   0.816   2.709   9.368  0.5978 -0.9001 -2.7238
 2088Sol     HW11359   0.859   2.564   9.358  0.7503 -1.1731  1.3052
 2088Sol     MW11360   0.876   2.646   9.391 -0.0793 -0.3049  0.2874
 2089Sol     OW11361   0.798   3.339   7.109 -0.3437 -0.4240 -0.0414
 2089Sol     HW11362   0.742   3.387   7.049 -1.0293 -0.7952  0.2834
 2089Sol     HW11363   0.887   3.359   7.081 -0.6545 -0.7321 -1.2781
 2089Sol     MW11364   0.801   3.345   7.101 -0.4961 -0.3981 -0.2413
 2090Sol     OW11365   0.879   1.898   1.573  0.0986  0.1786  0.1002
 2090Sol     HW11366   0.891   1.976   1.520  2.7313 -0.3742 -0.1863
 2090Sol     HW11367   0.943   1.906   1.643  0.0675 -1.4705  0.3501
 2090Sol     MW11368   0.886   1.906   1.574  0.3382 -0.7863  0.0618
 2091Sol     OW11369   2.091   0.289   5.918  0.1296  0.0765 -0.5214
 2091Sol     HW11370   2.120   0.298   5.827 -0.1755  1.0877 -0.5269
 2091Sol     HW11371   1.998   0.267   5.912 -0.1451  1.1620 -0.4563
 2091Sol     MW11372   2.085   0.288   5.909 -0.4842 -0.1907 -0.1081
 2092Sol     OW11373   1.825   0.473   7.371 -0.9600  0.4890 -0.1822
 2092Sol     HW11374   1.754   0.489   7.432  0.1537  0.5296  1.1133
 2092Sol     HW11375   1.820   0.546   7.309 -1.5688  0.8841  0.3292
 2092Sol     MW11376   1.818   0.481   7.371  0.4818  0.2479 -0.1010
 2093Sol     OW11377   1.694   1.913   9.539  0.5454  0.2783 -0.5154
 2093Sol     HW11378   1.625   1.977   9.520  0.2591 -0.2336 -1.2437
 2093Sol     HW11379   1.703   1.915   9.634  1.8263  2.7304 -0.6521
 2093Sol     MW11380   1.688   1.919   9.546 -0.1151 -0.3413  0.3940
 2094Sol     OW11381   3.229   2.358   2.718  0.1570  0.2707  0.0556
 2094Sol     HW11382   3.187   2.427   2.769  0.1883  0.7759 -0.5870
 2094Sol     HW11383   3.296   2.404   2.667  1.8561 -0.6140  1.4694
 2094Sol     MW11384   3.231   2.368   2.718  0.1997  0.0552 -0.6832
 2095Sol     OW11385   0.347   0.311   5.527  0.1898  0.2101  0.5912
 2095Sol     HW11386   0.285   0.240   5.513  0.4526  0.2075 -0.5884
 2095Sol     HW11387   0.300   0.390   5.498  0.8090  0.1782 -0.5372
 2095Sol     MW11388   0.337   0.312   5.523  0.0726  0.4328 -0.5185
 2096Sol     OW11389   0.815   3.222   2.340  0.3651 -0.2464  0.9018
 2096Sol     HW11390   0.908   3.209   2.323  0.3629 -0.1351  0.8096
 2096Sol     HW11391   0.802   3.188   2.429  0.3251 -1.0524  0.5949
 2096Sol     MW11392   0.822   3.218   2.346  0.3533  0.4642  0.3685
 2097Sol     OW11393   1.374   1.176   3.758 -0.0194  0.0506  0.4915
 2097Sol     HW11394   1.307   1.178   3.826  1.0879 -1.1972  1.6527
 2097Sol     HW11395   1.450   1.137   3.801  0.4587 -1.5034 -1.6937
 2097Sol     MW11396   1.375   1.173   3.768 -0.6046 -0.9418  0.1092
 2098Sol     OW11397   2.022   0.372   7.224  0.2598  0.1311  0.1934
 2098Sol     HW11398   1.945   0.420   7.254  0.7971  0.9897  0.2076
 2098Sol     HW11399   2.037   0.305   7.291 -0.5523 -0.1155  0.1238
 2098Sol     MW11400   2.017   0.370   7.233 -0.2335  0.6226 -0.0824
 2099Sol     OW11401   0.756   0.882   6.118  0.3066 -0.3754 -0.0589
 2099Sol     HW11402   0.816   0.956   6.121 -1.1563  0.9290 -2.2352
 2099Sol     HW11403   0.708   0.892   6.036  0.1251 -3.7851 -0.4553
 2099Sol     MW11404   0.757   0.889   6.111 -0.0950 -0.1054  0.1477
 2100Sol     OW11405   2.302   1.363   4.552  0.2593  0.5949 -0.3028
 2100Sol     HW11406   2.387   1.321   4.555 -0.6215 -1.2344 -0.0929
 2100Sol     HW11407   2.245   1.306   4.604 -1.4849  0.7941 -1.9353
 2100Sol     MW11408   2.304   1.354   4.557  0.2709  0.1726  0.1800
 2101Sol     OW11409   1.571   3.299   4.964  0.2383  0.0004  0.2453
 2101Sol     HW11410   1.536   3.211   4.955 -0.2274 -0.0651  2.3413
 2101Sol     HW11411   1.640   3.291   5.031  0.7370  1.0727 -0.1276
 2101Sol     MW11412   1.574   3.291   4.970 -0.4495  0.1232 -0.1514
 2102Sol     OW11413   2.752   0.348   7.209  0.0814 -0.4474 -0.7710
 2102Sol     HW11414   2.750   0.276   7.146 -0.8252 -1.9292  0.9333
 2102Sol     HW11415   2.811   0.318   7.279 -0.9840  0.0876  0.3701
 2102Sol     MW11416   2.757   0.339   7.210  0.7112 -0.0704 -0.5194
 2103Sol     OW11417   2.727   3.189   2.465  0.2196  0.0372 -0.0709
 2103Sol     HW11418   2.680   3.171   2.383 -2.0369  0.2056  1.1534
 2103Sol     HW11419   2.792   3.119   2.471  0.2883 -0.0968 -1.8909
 2103Sol     MW11420   2.728   3.181   2.458 -0.4600 -0.3188 -0.0876
 2104Sol     OW11421   3.116   3.239   2.218  0.0784  0.0076 -0.2010
 2104Sol     HW11422   3.089   3.327   2.192  0.7816  0.6447  1.1585
 2104Sol     HW11423   3.173   3.209   2.147 -1.9364 -0.2582 -1.7465
 2104Sol     MW11424   3.119   3.244   2.210 -0.1186  0.0749 -0.1135
 2105Sol     OW11425   3.258   3.329   1.583  0.0198  0.3121 -0.5564
 2105Sol     HW11426   3.202   3.300   1.512  0.7255 -1.5470 -0.3692
 2105Sol     HW11427   3.230   3.278   1.659  0.2976  1.1778  0.1459
 2105Sol     MW11428   3.251   3.322   1.583 -0.0965  0.1190 -0.2533
 2106Sol     OW11429   0.869   2.913   9.039  0.0318 -0.5542 -0.2276
 2106Sol     HW11430   0.811   2.855   8.989 -0.4339 -0.0435 -0.2884
 2106Sol     HW11431   0.837   2.906   9.129 -0.1563 -0.2356 -0.2701
 2106Sol     MW11432   0.861   2.907   9.043 -0.1852  0.4128  0.5888
 2107Sol     OW11433   2.985   2.313   2.569 -0.3351 -0.2232 -0.1906
 2107Sol     HW11434   3.001   2.252   2.497  0.3623 -1.0165  0.6157
 2107Sol     HW11435   3.072   2.338   2.600 -0.6226  0.9550 -0.3228
 2107Sol     MW11436   2.994   2.310   2.566 -0.0451  0.0726 -0.1780
 2108Sol     OW11437   1.243   1.106   8.469  0.2257  0.3296  0.0999
 2108Sol     HW11438   1.169   1.056   8.504  1.2788 -1.4978 -0.2060
 2108Sol     HW11439   1.237   1.191   8.512 -1.4505 -0.1492  0.8547
 2108Sol     MW11440   1.235   1.109   8.476 -0.2609  0.1297 -0.5123
 2109Sol     OW11441   1.694   2.537   8.219 -0.4265  0.5269 -0.0993
 2109Sol     HW11442   1.604   2.566   8.231 -0.7117 -0.9619  1.6849
 2109Sol     HW11443   1.708   2.474   8.290  1.2870 -0.9644 -1.7107
 2109Sol     MW11444   1.687   2.534   8.227  0.5817  0.3165  0.4160
 2110Sol     OW11445   0.262   0.406   4.510 -0.0828 -0.0544  0.0423
 2110Sol     HW11446   0.312   0.473   4.463  0.9364 -1.3008 -0.6947
 2110Sol     HW11447   0.182   0.451   4.537  0.2948  1.2895 -0.9843
 2110Sol     MW11448   0.260   0.416   4.508 -0.3425  0.1835  0.3149
 2111Sol     OW11449   1.012   1.657   7.552 -0.2352  0.4948 -0.6106
 2111Sol     HW11450   1.032   1.743   7.514  1.4907  0.6996  0.6635
 2111Sol     HW11451   1.095   1.610   7.548 -1.0697 -0.9698 -0.8869
 2111Sol     MW11452   1.021   1.660   7.548  0.1802  0.4317  0.3882
 2112Sol     OW11453   0.021   2.911   5.877 -1.0932 -0.1625  0.0832
 2112Sol     HW11454   0.036   2.816   5.878  1.6820  0.2211  0.2913
 2112Sol     HW11455   0.011   2.933   5.784 -0.5440 -0.4994 -0.0565
 2112Sol     MW11456   0.022   2.904   5.868 -0.2266  0.5867  0.0642
 2113Sol     OW11457   0.369   3.368   8.776  0.4121  0.1360  0.4248
 2113Sol     HW11458   0.287   3.406   8.808 -0.4198 -1.2494 -0.0077
 2113Sol     HW11459   0.343   3.318   8.699  1.2283 -2.5601  1.8725
 2113Sol     MW11460   0.359   3.367   8.772  0.5339  0.1141  0.2433
 2114Sol     OW11461   1.124   2.061   5.522  0.2557  0.3353  0.3131
 2114Sol     HW11462   1.038   2.092   5.492  1.5542  2.1368 -1.6207
 2114Sol     HW11463   1.153   2.127   5.585 -0.0379 -0.6181  1.4740
 2114Sol     MW11464   1.119   2.070   5.525 -0.8608 -0.1652 -0.4813
 2115Sol     OW11465   1.732   2.996   3.793 -0.4335  0.4217 -1.1159
 2115Sol     HW11466   1.706   2.924   3.736  0.7757  0.5288 -1.8129
 2115Sol     HW11467   1.807   2.963   3.842 -0.3906  0.9282 -0.8311
 2115Sol     MW11468   1.736   2.987   3.793 -0.1758 -0.6653  0.8809
 2116Sol     OW11469   2.454   2.248   6.137 -0.0680 -0.1053  0.5707
 2116Sol     HW11470   2.509   2.322   6.164 -0.3319  1.2999 -2.5810
 2116Sol     HW11471   2.515   2.186   6.097 -0.7331  1.6715 -3.3795
 2116Sol     MW11472   2.464   2.249   6.136  0.2408  0.6475 -0.1413
 2117Sol     OW11473   2.045   0.892   7.109 -0.1767  0.0752 -0.3567
 2117Sol     HW11474   2.050   0.885   7.014  0.5133 -0.0269 -0.3097
 2117Sol     HW11475   2.002   0.977   7.124  0.5629  0.5237 -0.7453
 2117Sol     MW11476   2.041   0.899   7.102  0.0792 -0.2930  0.1074
 2118Sol     OW11477   2.221   2.036   8.088 -0.0646  0.4341  0.7686
 2118Sol     HW11478   2.186   2.125   8.096 -1.5764 -0.0021 -0.6831
 2118Sol     HW11479   2.315   2.046   8.097 -0.1748  2.2516  0.0991
 2118Sol     MW11480   2.226   2.045   8.090  0.4885  0.7443  0.7728
 2119Sol     OW11481   0.892   0.502   9.094 -0.3072 -0.2254  0.0399
 2119Sol     HW11482   0.831   0.429   9.102  0.0836 -0.5510  0.0434
 2119Sol     HW11483   0.931   0.492   9.007  0.8607 -0.8858  0.6309
 2119Sol     MW11484   0.890   0.495   9.087  0.0879  0.0433  0.2375
 2120Sol     OW11485   1.190   0.897   4.036 -0.7030  0.2301 -0.1349
 2120Sol     HW11486   1.099   0.929   4.036 -1.0068 -0.5910  0.8063
 2120Sol     HW11487   1.181   0.802   4.037  0.1729  0.1490  0.1147
 2120Sol     MW11488   1.181   0.891   4.036  0.2931 -0.0299 -0.2617
 2121Sol     OW11489   2.006   2.722   7.967 -0.1554  1.3052 -0.5321
 2121Sol     HW11490   1.943   2.655   7.940 -0.1810  1.0713  0.1160
 2121Sol     HW11491   2.082   2.706   7.912  1.0811 -1.3256  1.8603
 2121Sol     MW11492   2.007   2.715   7.959  0.2714 -0.5884  0.7697
 2122Sol     OW11493   0.272   1.914   2.125 -0.0683 -0.0164 -0.2205
 2122Sol     HW11494   0.207   1.856   2.084  0.2052 -2.0510  2.0761
 2122Sol     HW11495   0.345   1.916   2.064 -1.2370  0.2351 -1.6506
 2122Sol     MW11496   0.272   1.909   2.116 -0.0548 -0.1202  0.4905
 2123Sol     OW11497   1.896   3.247   4.317 -0.4266 -0.2592 -0.8383
 2123Sol     HW11498   1.852   3.320   4.275 -0.3808 -0.0357 -0.4982
 2123Sol     HW11499   1.840   3.225   4.392  0.6353  0.7628  0.2582
 2123Sol     MW11500   1.887   3.251   4.320  0.1692  0.3455  0.1693
 2124Sol     OW11501   0.981   2.413   6.981  0.4182  0.3267  0.2994
 2124Sol     HW11502   0.919   2.395   6.910  0.3662 -2.1283  0.9305
 2124Sol     HW11503   1.066   2.413   6.939  0.0950  2.9861 -0.4459
 2124Sol     MW11504   0.983   2.411   6.971 -0.1924 -0.5760  0.5747
 2125Sol     OW11505   0.397   1.670   9.746 -0.4323 -0.0797  0.2236
 2125Sol     HW11506   0.334   1.599   9.754 -1.0621  0.1413 -2.2506
 2125Sol     HW11507   0.387   1.722   9.825 -2.9338 -0.3876  0.1255
 2125Sol     MW11508   0.391   1.668   9.754 -0.8263 -0.0543 -0.0625
 2126Sol     OW11509   2.870   2.437   9.579 -0.0385 -0.1236  0.1424
 2126Sol     HW11510   2.869   2.403   9.490  1.2134 -0.0273  0.0767
 2126Sol     HW11511   2.786   2.411   9.616 -0.6850  0.0808 -1.1550
 2126Sol     MW11512   2.863   2.432   9.574 -0.5512  0.2621  0.0647
 2127Sol     OW11513   0.591   0.775   7.905  0.7987  0.0597  0.2035
 2127Sol     HW11514   0.679   0.776   7.869  1.1222 -0.4427  0.9689
 2127Sol     HW11515   0.568   0.683   7.912  0.5650  0.1624  0.8485
 2127Sol     MW11516   0.597   0.767   7.902  0.0817 -0.1680  0.4177
 2128Sol     OW11517   1.689   2.830   7.660  0.4231  0.4105 -0.1223
 2128Sol     HW11518   1.710   2.891   7.731 -0.5946 -1.0826  1.4820
 2128Sol     HW11519   1.605   2.862   7.626 -0.3473 -0.3351  1.0308
 2128Sol     MW11520   1.683   2.839   7.663 -0.7021 -0.2986 -0.6230
 2129Sol     OW11521   1.689   2.995   2.910 -0.5995 -0.0993  0.2425
 2129Sol     HW11522   1.639   2.957   2.838 -0.0606  0.4491 -0.4271
 2129Sol     HW11523   1.781   2.979   2.886 -0.4362 -0.9610  1.3760
 2129Sol     MW11524   1.693   2.990   2.901 -0.1210  0.0515  0.1437
 2130Sol     OW11525   0.767   3.412   4.839 -0.2050  0.5049  0.0704
 2130Sol     HW11526   0.737   3.343   4.779  2.1284 -0.4577 -0.0523
 2130Sol     HW11527   0.780   3.367   4.922 -3.4976  1.8482  1.4037
 2130Sol     MW11528   0.765   3.402   4.841  0.2643 -0.0160  0.0211
 2131Sol     OW11529   0.235   2.816   8.471 -0.3727  0.1458  0.2898
 2131Sol     HW11530   0.325   2.850   8.463  0.1107 -1.1882 -0.0920
 2131Sol     HW11531   0.182   2.893   8.489  0.9380  0.8858  1.1131
 2131Sol     MW11532   0.239   2.826   8.472  0.4146 -0.0501  0.1929
 2132Sol     OW11533   0.769   2.633   6.434 -0.7761  0.1004 -0.3766
 2132Sol     HW11534   0.810   2.570   6.375 -1.3520 -0.1892 -0.4737
 2132Sol     HW11535   0.684   2.594   6.455 -1.1260  0.8402 -0.4178
 2132Sol     MW11536   0.765   2.624   6.431  0.1129  0.2450 -0.9551
 2133Sol     OW11537   3.048   2.983   4.149  0.6098 -0.0252  0.0448
 2133Sol     HW11538   3.102   3.053   4.185  1.3007 -0.5076 -0.0424
 2133Sol     HW11539   3.059   2.990   4.054 -1.7952  1.7146 -0.1444
 2133Sol     MW11540   3.053   2.989   4.144 -0.1258  0.3206  0.0551
 2134Sol     OW11541   1.469   0.184   9.922  0.3249  0.0173  0.0582
 2134Sol     HW11542   1.439   0.219   9.838  0.2677  1.5311  0.7064
 2134Sol     HW11543   1.403   0.118   9.945 -0.8862  1.1958  0.0110
 2134Sol     MW11544   1.460   0.181   9.916  0.0708  0.1333  0.4111
 2135Sol     OW11545   2.816   0.674   4.228 -0.0580  0.3025 -0.0546
 2135Sol     HW11546   2.811   0.758   4.182 -2.4881  0.9258  1.2699
 2135Sol     HW11547   2.755   0.683   4.301  0.8266 -2.0770  1.0268
 2135Sol     MW11548   2.810   0.682   4.231  0.3044  0.5515  0.1405
 2136Sol     OW11549   1.726   2.784   9.814  0.6179 -0.8546  0.5856
 2136Sol     HW11550   1.702   2.859   9.761  1.2179  0.2689  1.8857
 2136Sol     HW11551   1.643   2.750   9.848  0.1950 -1.8536 -1.4083
 2136Sol     MW11552   1.717   2.787   9.813  0.6457  0.1304 -0.0435
 2137Sol     OW11553   0.930   0.295   5.627 -0.4533  0.2886 -0.2285
 2137Sol     HW11554   1.001   0.286   5.691 -1.6823  0.7057  1.2234
 2137Sol     HW11555   0.949   0.378   5.582 -0.1604  0.5245  0.3280
 2137Sol     MW11556   0.938   0.302   5.628 -0.5364 -0.1798  0.4293
 2138Sol     OW11557   1.635   0.931   4.392 -0.0470  0.2756  0.5938
 2138Sol     HW11558   1.547   0.934   4.355 -0.9876 -0.9019  2.6335
 2138Sol     HW11559   1.683   1.000   4.346 -2.6820  2.4846  1.0584
 2138Sol     MW11560   1.632   0.938   4.385  0.0181 -0.4020 -0.7254
 2139Sol     OW11561   2.882   1.399   7.660 -0.0339 -0.7764 -0.2592
 2139Sol     HW11562   2.855   1.478   7.708 -1.6312 -0.9817 -0.7804
 2139Sol     HW11563   2.965   1.373   7.701  1.0126  1.7167 -0.7243
 2139Sol     MW11564   2.887   1.404   7.668  0.5371  0.0242  0.5476
 2140Sol     OW11565   0.384   2.313   9.787 -0.1318  1.1331 -0.2932
 2140Sol     HW11566   0.419   2.318   9.698  0.7845 -0.8044 -0.0814
 2140Sol     HW11567   0.445   2.255   9.833 -1.8352  0.3123  0.9827
 2140Sol     MW11568   0.393   2.308   9.783 -0.2892  0.7512 -0.4432
 2141Sol     OW11569   0.952   1.014   8.322  0.3760 -0.2172 -0.5725
 2141Sol     HW11570   0.912   1.099   8.304  1.0668  0.0817 -0.7238
 2141Sol     HW11571   0.887   0.950   8.293 -0.7560  0.2395  0.8505
 2141Sol     MW11572   0.943   1.016   8.318  0.2351  0.9525  0.3033
 2142Sol     OW11573   1.601   0.784   3.625 -0.1040  0.0033 -0.3673
 2142Sol     HW11574   1.637   0.848   3.686 -1.7654  0.5848  0.0207
 2142Sol     HW11575   1.596   0.830   3.542  0.2305 -0.1472 -0.4732
 2142Sol     MW11576   1.604   0.794   3.623 -0.0480 -0.3007 -0.0536
 2143Sol     OW11577   0.170   0.855   6.634  0.0566 -0.3023 -0.4570
 2143Sol     HW11578   0.259   0.887   6.643  0.7224 -1.7218 -1.5880
 2143Sol     HW11579   0.114   0.930   6.652  1.4796  0.5463  0.4490
 2143Sol     MW11580   0.173   0.864   6.636 -0.6064 -0.0827 -0.2822
 2144Sol     OW11581   2.915   0.936   5.239  0.2770  0.4637  0.1596
 2144Sol     HW11582   2.934   1.019   5.194 -0.3877  0.6577  0.2383
 2144Sol     HW11583   2.896   0.874   5.169  3.8532 -0.4468 -0.0979
 2144Sol     MW11584   2.915   0.938   5.229 -0.0457 -0.0609  0.0629
 2145Sol     OW11585   0.853   1.913   5.168 -0.3038  0.0718 -0.1332
 2145Sol     HW11586   0.776   1.871   5.208 -0.9181  0.3443 -1.0315
 2145Sol     HW11587   0.928   1.865   5.205 -0.9411 -0.8730 -0.0460
 2145Sol     MW11588   0.853   1.905   5.175 -0.5273  0.1523  0.7975
 2146Sol     OW11589   1.970   2.791   4.597 -0.0138 -0.6425  0.1564
 2146Sol     HW11590   1.973   2.811   4.504 -2.0527  0.2552  0.2711
 2146Sol     HW11591   2.002   2.871   4.640  2.3426 -1.5556  0.2179
 2146Sol     MW11592   1.973   2.800   4.593 -0.0724  0.2228 -0.0165
 2147Sol     OW11593   0.523   1.875   4.018 -0.1638  0.2673  0.3034
 2147Sol     HW11594   0.614   1.902   4.027 -0.9074  2.1542  2.6531
 2147Sol     HW11595   0.527   1.789   3.975  2.5597  1.4625 -1.9326
 2147Sol     MW11596   0.531   1.869   4.015 -0.2361  0.2245 -0.3510
 2148Sol     OW11597   0.425   1.371   2.710 -0.9027 -0.1000  0.1532
 2148Sol     HW11598   0.374   1.401   2.636  1.1693  0.8438 -0.9351
 2148Sol     HW11599   0.451   1.451   2.756  0.4489 -0.5043  0.1095
 2148Sol     MW11600   0.423   1.381   2.708 -0.5449  0.3079 -0.4293
 2149Sol     OW11601   1.314   2.546   1.760  0.4284  0.0245  0.0258
 2149Sol     HW11602   1.238   2.572   1.707 -0.7141 -0.0615  1.5942
 2149Sol     HW11603   1.337   2.624   1.810 -0.1509 -0.6234  1.3413
 2149Sol     MW11604   1.309   2.555   1.760  0.1051  0.3012 -0.5041
 2150Sol     OW11605   0.269   0.301   8.526  0.2698  0.1540 -0.6007
 2150Sol     HW11606   0.240   0.382   8.484  0.9319  0.6519 -0.1085
 2150Sol     HW11607   0.264   0.235   8.457 -1.4607  0.3517 -0.6837
 2150Sol     MW11608   0.266   0.303   8.516 -0.2028 -0.2377  0.5293
 2151Sol     OW11609   2.117   2.154   2.825 -0.2380 -0.1938 -0.0906
 2151Sol     HW11610   2.178   2.102   2.878  0.7810  0.2561 -0.8215
 2151Sol     HW11611   2.124   2.117   2.737 -0.6198  0.2170 -0.2978
 2151Sol     MW11612   2.123   2.146   2.822  0.0645 -0.3953  0.5387
 2152Sol     OW11613   0.898   0.493   7.988  0.5288 -0.0747 -0.0104
 2152Sol     HW11614   0.843   0.489   8.066 -0.5342  0.0680 -0.7403
 2152Sol     HW11615   0.940   0.579   7.993  0.5794 -0.1282  0.4797
 2152Sol     MW11616   0.897   0.501   7.996  0.3990 -0.4119  0.4445
 2153Sol     OW11617   2.460   1.632   3.025  0.0672 -0.4682  0.1561
 2153Sol     HW11618   2.416   1.701   2.976  0.0809 -0.6324 -0.0871
 2153Sol     HW11619   2.490   1.570   2.958 -1.6183 -1.6716  0.4883
 2153Sol     MW11620   2.459   1.633   3.015  0.2439  0.2224  0.5317
 2154Sol     OW11621   2.856   2.824   4.352  0.7190  0.5579  0.9319
 2154Sol     HW11622   2.939   2.827   4.306  0.4022 -0.0636  0.3112
 2154Sol     HW11623   2.871   2.763   4.425  0.5084 -0.3689  0.2098
 2154Sol     MW11624   2.865   2.818   4.355 -0.3266 -0.1268  0.3700
 2155Sol     OW11625   2.075   1.824   2.057  0.6443 -0.0899 -0.1096
 2155Sol     HW11626   2.064   1.788   1.969  0.0419 -1.3765  0.4801
 2155Sol     HW11627   2.100   1.749   2.111 -1.3903  0.2002  1.3037
 2155Sol     MW11628   2.076   1.814   2.054  0.1804  0.2301 -0.6642
 2156Sol     OW11629   1.829   1.221   2.652  0.6206  0.2522  0.3237
 2156Sol     HW11630   1.914   1.204   2.611  0.3091  1.4012 -0.8199
 2156Sol     HW11631   1.766   1.210   2.581 -0.1454 -0.1290  1.0618
 2156Sol     MW11632   1.831   1.218   2.642  0.4138  0.0315 -0.0430
 2157Sol     OW11633   0.036   3.005   4.155  0.5376  0.1538 -0.2405
 2157Sol     HW11634   0.056   2.914   4.174 -1.0186  0.0506  1.0698
 2157Sol     HW11635   0.027   3.046   4.241 -0.9888  1.0135 -0.7881
 2157Sol     MW11636   0.037   3.001   4.165  0.3532 -0.5197  0.3159
 2158Sol     OW11637   0.488   0.390   2.274  0.1223 -0.5190 -0.0949
 2158Sol     HW11638   0.526   0.379   2.362 -0.0602 -0.4539 -0.0082
 2158Sol     HW11639   0.541   0.459   2.234 -1.1371  0.9516  0.7320
 2158Sol     MW11640   0.496   0.395   2.279  0.2793  0.3766  0.0394
 2159Sol     OW11641   1.264   2.886   5.898  0.6024  0.0006 -0.3444
 2159Sol     HW11642   1.276   2.794   5.875 -2.2174 -0.3961 -0.4055
 2159Sol     HW11643   1.276   2.890   5.992 -2.7232 -1.1149  0.1829
 2159Sol     MW11644   1.266   2.878   5.904 -0.5833  0.1535 -0.6833
 2160Sol     OW11645   2.461   1.302   4.007  0.4752 -0.4587  0.1324
 2160Sol     HW11646   2.494   1.223   4.050  0.9282 -0.0952  0.4581
 2160Sol     HW11647   2.378   1.321   4.051 -0.7860 -2.0453 -1.4721
 2160Sol     MW11648   2.457   1.297   4.015 -0.2031  0.4663  0.4352
 2161Sol     OW11649   0.741   0.197   6.058  0.1668  0.5010 -0.3664
 2161Sol     HW11650   0.658   0.172   6.099  1.0448 -2.6591 -0.3886
 2161Sol     HW11651   0.720   0.203   5.964 -0.4523  1.7014 -0.1659
 2161Sol     MW11652   0.732   0.195   6.053  0.2369  0.1457  0.1324
 2162Sol     OW11653   2.557   1.277   4.597  0.5678  0.6137 -0.4671
 2162Sol     HW11654   2.563   1.213   4.668 -0.4504 -1.0484 -1.8408
 2162Sol     HW11655   2.574   1.361   4.639 -0.4778 -0.2887  1.8350
 2162Sol     MW11656   2.559   1.279   4.607  0.1516 -0.1887  0.0210
 2163Sol     OW11657   2.162   0.638   8.064 -0.0799  0.2090  0.7022
 2163Sol     HW11658   2.122   0.724   8.078 -2.3454 -0.8745  1.2080
 2163Sol     HW11659   2.179   0.634   7.970 -0.3491  1.0588  0.6149
 2163Sol     MW11660   2.160   0.645   8.057 -0.1926  0.2083  0.3570
 2164Sol     OW11661   0.662   0.636   3.656  0.2713  0.4636 -0.5398
 2164Sol     HW11662   0.713   0.555   3.646  1.5047  1.2266 -0.4626
 2164Sol     HW11663   0.704   0.698   3.597 -0.8114  0.9943 -0.7568
 2164Sol     MW11664   0.670   0.634   3.650  0.2967  0.0966 -0.4146
 2165Sol     OW11665   2.358   1.579   4.225 -0.2459  0.7651 -0.0172
 2165Sol     HW11666   2.423   1.592   4.293  0.7143 -0.2871 -0.7160
 2165Sol     HW11667   2.376   1.647   4.160 -0.3008  0.9174  0.1271
 2165Sol     MW11668   2.365   1.586   4.225  0.4124  0.4389  0.1875
 2166Sol     OW11669   1.102   0.083   6.333  0.2294 -0.6502 -0.0276
 2166Sol     HW11670   1.176   0.023   6.337 -0.0392 -0.9537  0.4438
 2166Sol     HW11671   1.037   0.045   6.392 -0.0883 -0.0988 -0.0176
 2166Sol     MW11672   1.103   0.075   6.339 -0.1466 -0.3481 -0.6360
 2167Sol     OW11673   0.554   3.429   7.599 -1.0671 -0.1056 -0.4933
 2167Sol     HW11674   0.576   3.433   7.506 -0.7430 -0.9296 -0.4528
 2167Sol     HW11675   0.636   3.446   7.644 -1.4146  1.2657 -0.3522
 2167Sol     MW11676   0.563   3.431   7.595  0.3504 -0.4234  0.4642
 2168Sol     OW11677   2.401   0.612   4.432  0.4731  0.3876 -0.3738
 2168Sol     HW11678   2.372   0.643   4.518 -0.0986  1.3322 -0.9000
 2168Sol     HW11679   2.397   0.516   4.439 -0.4185  0.4649  0.3764
 2168Sol     MW11680   2.398   0.606   4.441 -0.2335 -0.2231  0.2985
 2169Sol     OW11681   2.456   1.218   3.486  0.1932 -0.0069  0.4722
 2169Sol     HW11682   2.462   1.265   3.569  0.2797  0.1397  0.3834
 2169Sol     HW11683   2.519   1.147   3.494  0.0059 -0.1567  0.6372
 2169Sol     MW11684   2.462   1.216   3.494 -0.1568 -0.0448 -0.1132
 2170Sol     OW11685   1.034   2.650   7.100  0.1259 -0.2205 -0.5690
 2170Sol     HW11686   1.068   2.648   7.189  3.2867  2.1162 -1.6256
 2170Sol     HW11687   1.027   2.558   7.074  0.0696 -0.8872  1.7147
 2170Sol     MW11688   1.036   2.642   7.105 -0.0879  0.4933 -0.3738
 2171Sol     OW11689   2.794   1.049   9.545  0.3901  0.1134 -0.7734
 2171Sol     HW11690   2.761   1.127   9.500  2.0028  0.6468 -1.0353
 2171Sol     HW11691   2.791   1.073   9.638 -3.0235 -1.0201 -0.5197
 2171Sol     MW11692   2.790   1.058   9.550  0.5023  0.2325  0.4191
 2172Sol     OW11693   0.026   2.120   2.814 -0.1239  0.0215  0.5807
 2172Sol     HW11694  -0.038   2.052   2.791  0.6782 -0.4301 -0.3495
 2172Sol     HW11695  -0.015   2.202   2.787 -0.1639 -0.3009 -0.3577
 2172Sol     MW11696   0.016   2.121   2.809  0.0023  0.2966  0.1137
 2173Sol     OW11697   1.272   2.380   2.877 -0.2451 -0.2630  0.1562
 2173Sol     HW11698   1.323   2.308   2.915 -1.2830 -0.4498  1.2141
 2173Sol     HW11699   1.283   2.370   2.782  0.0602 -1.4913  0.3166
 2173Sol     MW11700   1.277   2.373   2.872 -0.2457  0.5434 -0.1770
 2174Sol     OW11701   2.364   3.354   9.859 -0.1167  0.4589 -0.3458
 2174Sol     HW11702   2.382   3.438   9.817 -0.7394  0.8824  0.2053
 2174Sol     HW11703   2.269   3.353   9.870 -0.2110 -0.7580 -1.2406
 2174Sol     MW11704   2.357   3.361   9.856 -0.2185 -0.2164  0.2545
 2175Sol     OW11705   1.564   2.303   1.998 -0.0073  0.3567  0.3649
 2175Sol     HW11706   1.539   2.356   1.923  0.0139 -0.6986 -0.3937
 2175Sol     HW11707   1.659   2.312   2.003 -0.0922  1.0997  0.7869
 2175Sol     MW11708   1.571   2.309   1.992 -0.3535 -0.2090 -0.3635
 2176Sol     OW11709   2.614   1.214   4.886  0.2373  0.1968  0.0738
 2176Sol     HW11710   2.548   1.249   4.946 -2.2016 -0.5638 -2.0884
 2176Sol     HW11711   2.693   1.263   4.907 -1.7853  3.3812  0.6691
 2176Sol     MW11712   2.615   1.222   4.893 -0.2920  0.3720 -0.0114
 2177Sol     OW11713   0.046   0.814   2.740  0.1228 -0.3049 -0.0351
 2177Sol     HW11714  -0.012   0.746   2.707 -0.4005  0.2242 -0.2239
 2177Sol     HW11715  -0.013   0.888   2.760  0.2797 -0.9164  2.9581
 2177Sol     MW11716   0.035   0.815   2.739  0.1206 -0.6366  0.1043
 2178Sol     OW11717   2.623   2.703   5.038  0.0244 -0.4119  0.7798
 2178Sol     HW11718   2.633   2.661   4.952 -0.8884  0.1377  0.3961
 2178Sol     HW11719   2.668   2.787   5.029 -0.4062 -0.1873  0.7134
 2178Sol     MW11720   2.628   2.706   5.029  0.2618  0.0906  0.3732
 2179Sol     OW11721   0.883   2.429   5.521 -0.3884  0.3138 -0.2177
 2179Sol     HW11722   0.869   2.341   5.555 -0.2016  0.8323  1.2164
 2179Sol     HW11723   0.929   2.475   5.591  0.4081  1.2594 -1.3456
 2179Sol     MW11724   0.886   2.425   5.530  0.7829  0.1934 -0.3639
 2180Sol     OW11725   0.136   2.583   7.567  0.2873 -1.0952 -0.0876
 2180Sol     HW11726   0.106   2.639   7.495  0.2704  1.4468  1.8199
 2180Sol     HW11727   0.216   2.541   7.534  0.9294  0.9498 -1.1899
 2180Sol     MW11728   0.141   2.584   7.558  0.0607  0.2844  0.2281
 2181Sol     OW11729   2.106   1.455   6.227 -0.3885 -0.6168  0.0645
 2181Sol     HW11730   2.179   1.493   6.179  0.0591 -1.4685  0.0719
 2181Sol     HW11731   2.114   1.491   6.315 -1.2338  0.9835 -0.4830
 2181Sol     MW11732   2.113   1.462   6.230  0.1444 -0.0521  0.0698
 2182Sol     OW11733   3.289   3.435   3.311 -0.4916 -0.7149  0.3330
 2182Sol     HW11734   3.214   3.449   3.369  0.2869 -1.6175  1.5775
 2182Sol     HW11735   3.351   3.503   3.334 -1.0144  0.1815 -0.8666
 2182Sol     MW11736   3.288   3.442   3.318 -0.0518  0.0812 -0.1609
 2183Sol     OW11737   1.490   3.147   5.295 -0.4060  0.2239  0.6427
 2183Sol     HW11738   1.509   3.058   5.264 -1.6944 -0.0650  0.6526
 2183Sol     HW11739   1.512   3.203   5.221  0.2073 -0.1179  0.5585
 2183Sol     MW11740   1.494   3.144   5.285 -0.1054  0.5982 -0.1393
 2184Sol     OW11741   0.797   0.221   6.617  0.1284  0.8210 -0.1227
 2184Sol     HW11742   0.833   0.169   6.545 -1.4012  1.0056 -1.0388
 2184Sol     HW11743   0.737   0.283   6.575 -1.8162  0.0441  1.4163
 2184Sol     MW11744   0.795   0.222   6.607 -0.1599 -0.0498  0.1393
 2185Sol     OW11745   2.439   1.276   5.075  0.0858 -0.7420  0.0330
 2185Sol     HW11746   2.376   1.216   5.035 -1.5130  0.1787  1.0831
 2185Sol     HW11747   2.396   1.362   5.070  1.4187 -0.0389  0.4578
 2185Sol     MW11748   2.430   1.278   5.071  0.2938  0.4772  0.0702
 2186Sol     OW11749   2.035   0.564   8.283  0.0116 -0.1518  0.1277
 2186Sol     HW11750   1.978   0.487   8.277 -0.4222  0.1340  0.4946
 2186Sol     HW11751   2.073   0.573   8.196 -2.5630  1.2180 -0.9250
 2186Sol     MW11752   2.033   0.558   8.275  0.0638 -0.7891  0.2354
 2187Sol     OW11753   2.009   2.390   3.141 -0.5264 -0.4141 -0.1252
 2187Sol     HW11754   1.980   2.414   3.229 -0.2497  2.4275 -0.7503
 2187Sol     HW11755   2.059   2.466   3.111 -0.5558 -1.3671 -2.7057
 2187Sol     MW11756   2.011   2.399   3.146 -0.3786 -0.7040 -0.1742
 2188Sol     OW11757   2.176   3.309   6.066 -0.0207  0.1349  0.1672
 2188Sol     HW11758   2.244   3.374   6.086  0.6456 -0.7626  0.8543
 2188Sol     HW11759   2.096   3.346   6.102 -0.1494  1.7564 -1.6638
 2188Sol     MW11760   2.175   3.318   6.071  0.0552 -0.2676 -0.3013
 2189Sol     OW11761   0.131   0.840   9.680 -0.6826  0.0644  0.3921
 2189Sol     HW11762   0.161   0.839   9.589 -1.9292 -0.4312 -0.0154
 2189Sol     HW11763   0.188   0.778   9.725 -1.1027 -0.8867 -0.3816
 2189Sol     MW11764   0.139   0.835   9.676 -0.2487  0.1816  0.2948
 2190Sol     OW11765   1.815   3.170   1.757  0.6244  0.0158  0.3327
 2190Sol     HW11766   1.869   3.230   1.809 -0.3905  0.8117  0.4905
 2190Sol     HW11767   1.732   3.165   1.805  0.2251 -0.4629 -0.3982
 2190Sol     MW11768   1.812   3.175   1.766 -0.3080 -0.3393  0.3736
 2191Sol     OW11769   2.978   3.393   8.725 -0.2346 -0.3698 -0.2527
 2191Sol     HW11770   2.979   3.300   8.704  0.2177 -0.2805 -0.6194
 2191Sol     HW11771   2.902   3.428   8.678 -0.2652 -0.5056 -0.3041
 2191Sol     MW11772   2.971   3.388   8.719 -0.0779 -0.1834 -0.2019
 2192Sol     OW11773   1.580   0.774   7.947 -0.6450 -0.0306  0.9563
 2192Sol     HW11774   1.567   0.784   8.041  1.5679  1.6452  1.1374
 2192Sol     HW11775   1.643   0.702   7.939  0.1942  0.7105  0.8411
 2192Sol     MW11776   1.585   0.768   7.955 -0.3386 -0.4779 -0.3622
 2193Sol     OW11777   2.632   1.580   8.205 -0.8059 -0.3907 -0.6252
 2193Sol     HW11778   2.649   1.585   8.111 -0.3225 -0.1669 -0.5289
 2193Sol     HW11779   2.554   1.526   8.213  0.3094 -2.1003 -1.0448
 2193Sol     MW11780   2.627   1.576   8.197  0.3359  0.4345  0.2032
 2194Sol     OW11781   2.137   0.253   9.443 -0.7304  1.0295 -0.4340
 2194Sol     HW11782   2.132   0.337   9.489 -2.6061  0.8407 -0.2451
 2194Sol     HW11783   2.047   0.235   9.418 -0.3342 -0.9459 -0.4672
 2194Sol     MW11784   2.129   0.259   9.445  0.0356  0.2133  0.4723
 2195Sol     OW11785   0.385   1.035   8.854 -1.3042  0.4724 -0.2356
 2195Sol     HW11786   0.467   0.985   8.856 -0.6056  1.6287  0.5370
 2195Sol     HW11787   0.339   1.009   8.934 -1.9845 -0.6363 -0.9714
 2195Sol     MW11788   0.388   1.028   8.861 -0.1639  0.0989  0.0358
 2196Sol     OW11789   1.579   2.522   3.791 -0.2709  0.1235  0.1753
 2196Sol     HW11790   1.579   2.576   3.870  0.6446  0.8034 -0.2837
 2196Sol     HW11791   1.497   2.543   3.748 -0.7495 -0.2077  0.9194
 2196Sol     MW11792   1.572   2.529   3.794 -0.3834  0.3652  0.0862
 2197Sol     OW11793   0.124   1.103   5.167 -0.8406  0.9508  0.2009
 2197Sol     HW11794   0.045   1.157   5.171 -1.9167 -0.5250 -0.7301
 2197Sol     HW11795   0.092   1.013   5.170  1.0207  0.3041  3.7819
 2197Sol     MW11796   0.114   1.100   5.168 -0.1073 -0.2345 -0.0338
 2198Sol     OW11797   2.303   2.163   6.864  0.1256  0.3668 -0.0726
 2198Sol     HW11798   2.322   2.234   6.925  0.6427  0.3219 -0.1750
 2198Sol     HW11799   2.208   2.153   6.867  0.1811  0.1273  0.9791
 2198Sol     MW11800   2.296   2.168   6.869  0.5465  0.3890  0.1039
 2199Sol     OW11801   2.180   2.707   9.206  0.1165  0.3781  0.4749
 2199Sol     HW11802   2.274   2.690   9.197  0.0220  0.2160 -0.2651
 2199Sol     HW11803   2.158   2.757   9.127 -0.3333  0.8013  0.8645
 2199Sol     MW11804   2.186   2.710   9.198 -0.5567 -0.4403 -0.0751
 2200Sol     OW11805   3.281   0.266   6.593  0.0166 -0.0955  0.0785
 2200Sol     HW11806   3.232   0.341   6.558 -0.1017 -0.5212 -0.6698
 2200Sol     HW11807   3.233   0.242   6.672 -1.2172 -0.7405 -0.8503
 2200Sol     MW11808   3.272   0.270   6.597 -0.5475 -0.2215 -0.2723
 2201Sol     OW11809   2.397   2.575   9.576 -0.0887  0.1827  0.5296
 2201Sol     HW11810   2.448   2.650   9.545  0.4623 -0.0199  0.9341
 2201Sol     HW11811   2.449   2.539   9.648  0.7763 -1.9091 -1.0622
 2201Sol     MW11812   2.406   2.579   9.579 -0.0906  0.0861  0.0093
 2202Sol     OW11813   1.745   0.182   7.479  0.0848 -0.1879  0.2081
 2202Sol     HW11814   1.761   0.272   7.451  2.3635 -0.4224  0.6838
 2202Sol     HW11815   1.793   0.129   7.415 -0.8467 -1.0443  0.2145
 2202Sol     MW11816   1.751   0.185   7.471  0.0570  0.3354 -0.2544
 2203Sol     OW11817   0.672   1.539   7.132 -0.2922 -0.4643 -0.2516
 2203Sol     HW11818   0.651   1.616   7.185 -0.5048  0.3981 -1.5540
 2203Sol     HW11819   0.734   1.490   7.185  0.1304  0.7845  0.4460
 2203Sol     MW11820   0.675   1.542   7.142  0.0955 -0.3357  0.3293
 2204Sol     OW11821   0.160   1.504   7.613  0.1228 -0.2351  0.3278
 2204Sol     HW11822   0.215   1.483   7.537 -0.5429  0.2416 -0.2877
 2204Sol     HW11823   0.222   1.509   7.686  1.2533  2.7198 -0.7602
 2204Sol     MW11824   0.171   1.502   7.613  0.2462 -0.4041  0.4645
 2205Sol     OW11825   1.151   0.958   4.340 -0.3169  0.5797 -0.3876
 2205Sol     HW11826   1.187   0.924   4.422  0.8053  0.8007 -0.7886
 2205Sol     HW11827   1.216   0.937   4.274 -1.7920 -0.7257 -1.4668
 2205Sol     MW11828   1.160   0.953   4.341  0.0016 -0.7189 -0.3605
 2206Sol     OW11829   1.232   1.663   6.674 -0.8207 -0.6093  0.1132
 2206Sol     HW11830   1.200   1.720   6.604  0.2744  0.0291  0.1270
 2206Sol     HW11831   1.319   1.636   6.646 -0.5126 -0.6367  1.0572
 2206Sol     MW11832   1.237   1.666   6.665 -0.3701 -0.1240  0.3815
 2207Sol     OW11833   2.035   0.992   3.386 -0.1471 -0.1012  0.7329
 2207Sol     HW11834   2.039   0.984   3.481 -0.9173  0.5484  0.8205
 2207Sol     HW11835   1.943   0.979   3.364  0.1078 -0.7818  0.0192
 2207Sol     MW11836   2.027   0.990   3.392  0.5721  0.0050 -0.2304
 2208Sol     OW11837   0.719   0.721   9.123 -0.4990  0.4701 -0.5263
 2208Sol     HW11838   0.750   0.811   9.131 -0.2639  0.5305 -2.0002
 2208Sol     HW11839   0.793   0.672   9.087 -0.7821 -0.2190 -0.1987
 2208Sol     MW11840   0.728   0.724   9.120  0.5606  0.3353  0.1935
 2209Sol     OW11841   1.784   1.141   4.303 -0.6043  0.3394 -0.7234
 2209Sol     HW11842   1.767   1.227   4.343 -1.5935 -0.0957 -0.1945
 2209Sol     HW11843   1.736   1.143   4.220  2.8466  1.8949 -2.7734
 2209Sol     MW11844   1.778   1.149   4.299  0.2776  0.9052 -0.4479
 2210Sol     OW11845   2.295   0.297   1.925 -0.2439 -0.4988 -0.0976
 2210Sol     HW11846   2.273   0.355   1.997  1.0896 -1.8277  1.4449
 2210Sol     HW11847   2.286   0.209   1.961  0.8811 -1.1869 -1.4117
 2210Sol     MW11848   2.293   0.294   1.934  0.0245 -0.1879 -0.2382
 2211Sol     OW11849   2.566   0.875   7.526 -0.1939  0.3991  0.2724
 2211Sol     HW11850   2.591   0.924   7.448 -0.0592  0.7066  0.5039
 2211Sol     HW11851   2.550   0.943   7.592  0.6526  0.1015  0.7877
 2211Sol     MW11852   2.567   0.885   7.525  0.0880  0.1685  0.1166
 2212Sol     OW11853   0.103   1.878   2.455 -0.7209 -0.0865  0.2064
 2212Sol     HW11854   0.176   1.934   2.430 -2.1656  1.0810 -1.4950
 2212Sol     HW11855   0.113   1.799   2.402 -1.3971  0.6082 -0.9669
 2212Sol     MW11856   0.110   1.876   2.448  0.8926 -0.3133  0.2407
 2213Sol     OW11857   3.214   0.969   3.849 -0.7160  0.3281 -0.2572
 2213Sol     HW11858   3.146   0.990   3.913 -0.8547  0.0292 -0.3036
 2213Sol     HW11859   3.184   1.010   3.768 -1.0520 -0.1460 -0.3805
 2213Sol     MW11860   3.205   0.974   3.848  0.4223  0.2410 -0.5932
 2214Sol     OW11861   1.499   2.862   7.118 -0.5392 -0.1991  0.1911
 2214Sol     HW11862   1.431   2.801   7.088 -1.8812  0.7044  1.3126
 2214Sol     HW11863   1.488   2.865   7.213  0.0465  1.1506  0.2251
 2214Sol     MW11864   1.492   2.857   7.124 -0.0853  0.8701  0.1693
 2215Sol     OW11865   1.103   2.496   4.682 -0.0485  0.0759 -0.3871
 2215Sol     HW11866   1.123   2.467   4.593  0.5971 -0.5100 -0.0609
 2215Sol     HW11867   1.082   2.416   4.730 -2.9076  0.6373 -0.6144
 2215Sol     MW11868   1.103   2.486   4.679 -0.6184 -0.4664  0.1801
 2216Sol     OW11869   1.421   1.050   5.859  0.7415 -0.0319 -0.4638
 2216Sol     HW11870   1.366   1.113   5.906 -0.9773 -0.2826 -2.0789
 2216Sol     HW11871   1.495   1.035   5.917  0.8320  2.9505  0.2942
 2216Sol     MW11872   1.423   1.055   5.868  0.2625 -0.4776 -0.4990
 2217Sol     OW11873   1.561   2.173   4.485  0.2108 -0.0324 -0.8574
 2217Sol     HW11874   1.529   2.257   4.453 -0.0493 -0.3177 -1.3605
 2217Sol     HW11875   1.626   2.146   4.420  0.7357  0.0713 -0.3716
 2217Sol     MW11876   1.564   2.178   4.476 -0.0556  0.2918 -0.2027
 2218Sol     OW11877   0.821   1.626   4.289 -0.5561  0.5116 -0.0128
 2218Sol     HW11878   0.878   1.703   4.291  0.1900 -0.0656  1.9107
 2218Sol     HW11879   0.736   1.659   4.260 -0.6490  2.3304  2.1803
 2218Sol     MW11880   0.819   1.636   4.286  0.5202 -0.1662  0.3479
 2219Sol     OW11881   1.534   0.061   8.740 -0.5292 -0.3675  0.3972
 2219Sol     HW11882   1.616   0.037   8.784  0.9622  2.5341 -0.6631
 2219Sol     HW11883   1.521  -0.008   8.674  2.5154  0.4592 -1.1766
 2219Sol     MW11884   1.540   0.053   8.738  0.0241 -0.1693  0.3431
 2220Sol     OW11885   0.319   3.297   2.049 -0.3881  0.2165  0.1303
 2220Sol     HW11886   0.229   3.267   2.041 -0.3903 -0.4749  2.3813
 2220Sol     HW11887   0.343   3.279   2.140  1.3544  2.2254  0.1272
 2220Sol     MW11888   0.313   3.293   2.057  0.3515 -0.2746  0.3872
 2221Sol     OW11889   2.470   0.069   9.646  0.0366  0.1211  0.1961
 2221Sol     HW11890   2.409   0.049   9.575 -0.2894  1.2825  0.1450
 2221Sol     HW11891   2.554   0.083   9.602 -0.1315  0.6837  0.0513
 2221Sol     MW11892   2.472   0.068   9.636  0.6650 -0.8067  0.1808
 2222Sol     OW11893   0.174   2.018   3.860 -0.2152 -0.3498  0.2702
 2222Sol     HW11894   0.099   1.979   3.905 -0.8393 -0.5392 -0.9056
 2222Sol     HW11895   0.241   1.950   3.860 -0.8669 -1.0026 -0.6935
 2222Sol     MW11896   0.173   2.009   3.864 -0.0019  0.6011  0.0434
 2223Sol     OW11897   1.833   0.681   8.065 -0.5592 -0.1114  0.1309
 2223Sol     HW11898   1.805   0.694   8.155 -1.0586 -1.2120  0.1419
 2223Sol     HW11899   1.918   0.725   8.059 -0.2889 -0.4648  1.2838
 2223Sol     MW11900   1.838   0.686   8.072  0.3083 -0.2407  0.1452
 2224Sol     OW11901   3.116   1.296  10.012 -0.5449  0.6144  0.1998
 2224Sol     HW11902   3.098   1.214   9.966  0.8582  1.0963 -1.2532
 2224Sol     HW11903   3.117   1.272  10.104  0.1586 -1.0602 -0.2241
 2224Sol     MW11904   3.114   1.287  10.016 -0.8159 -0.6076  0.6300
 2225Sol     OW11905   0.757   1.453   9.219 -0.2163  0.0849  0.1124
 2225Sol     HW11906   0.757   1.508   9.297  1.2810  0.5919 -0.2263
 2225Sol     HW11907   0.737   1.365   9.252  2.1352 -0.0364  1.3389
 2225Sol     MW11908   0.756   1.450   9.229  0.6325  0.3985  0.0876
 2226Sol     OW11909   0.449   1.476   5.654 -0.2963 -0.0431 -0.4011
 2226Sol     HW11910   0.446   1.552   5.711 -0.7888  0.2610 -0.8205
 2226Sol     HW11911   0.541   1.450   5.652 -0.2105  0.2220  0.1593
 2226Sol     MW11912   0.457   1.480   5.659  0.8682 -0.5012  0.2345
 2227Sol     OW11913   2.882   0.389   2.417  0.1573  0.3199 -0.2544
 2227Sol     HW11914   2.968   0.347   2.408  0.9903  1.3756  2.3145
 2227Sol     HW11915   2.853   0.364   2.505 -3.1051 -1.6549 -1.8078
 2227Sol     MW11916   2.887   0.383   2.424 -0.0598 -0.3073  0.5925
 2228Sol     OW11917   2.761   2.586   8.662 -0.3540  0.1164 -0.3918
 2228Sol     HW11918   2.740   2.619   8.575  0.1741 -0.1467 -0.6198
 2228Sol     HW11919   2.677   2.586   8.709 -0.7839 -0.5362 -1.1574
 2228Sol     MW11920   2.752   2.589   8.658  0.1114 -0.1024 -0.3972
 2229Sol     OW11921   0.791   3.169   6.711  0.2229  0.4705  0.9129
 2229Sol     HW11922   0.760   3.153   6.622  2.2597  0.8463  0.0900
 2229Sol     HW11923   0.774   3.262   6.726 -0.7313  0.2561  1.1731
 2229Sol     MW11924   0.787   3.176   6.704  0.5030  0.3162  0.2629
 2230Sol     OW11925   2.310   1.928   4.327  0.0612 -0.8507 -0.2252
 2230Sol     HW11926   2.293   1.865   4.398  2.6455 -0.1284  1.0927
 2230Sol     HW11927   2.301   2.013   4.370 -0.8113 -0.3660 -1.3738
 2230Sol     MW11928   2.308   1.930   4.337 -0.4465  0.3284  0.0915
 2231Sol     OW11929   2.825   1.623   2.472  0.4396  0.0597 -0.0281
 2231Sol     HW11930   2.911   1.581   2.480  0.0881 -0.7395 -0.3372
 2231Sol     HW11931   2.843   1.716   2.483  1.4288 -0.0428 -0.6591
 2231Sol     MW11932   2.835   1.627   2.473 -0.4800 -0.3260 -0.1227
 2232Sol     OW11933   1.718   2.331   7.614 -0.3814  0.3183 -0.1968
 2232Sol     HW11934   1.716   2.259   7.552 -0.3108  0.4548 -0.3606
 2232Sol     HW11935   1.798   2.379   7.594 -0.3042  0.3041  0.0688
 2232Sol     MW11936   1.725   2.329   7.607 -0.4655  0.4469 -0.2345
 2233Sol     OW11937   0.302   1.519   7.363  0.0248  0.4019 -0.6022
 2233Sol     HW11938   0.368   1.477   7.418 -0.2431  1.4861  0.5530
 2233Sol     HW11939   0.296   1.609   7.396 -1.4838  0.5274 -1.1823
 2233Sol     MW11940   0.307   1.523   7.371 -0.0401  0.1593 -0.2568
 2234Sol     OW11941   0.022   0.543   8.615 -1.0791 -0.3320  0.2126
 2234Sol     HW11942  -0.050   0.606   8.622 -1.4219 -0.5325 -1.2970
 2234Sol     HW11943   0.076   0.560   8.691  0.2682  3.5850 -1.5088
 2234Sol     MW11944   0.020   0.550   8.622  0.1275 -0.0079  0.1205
 2235Sol     OW11945   2.638   2.020   6.380 -0.1755  0.0525 -0.2141
 2235Sol     HW11946   2.567   2.077   6.352  0.1748  0.4831 -0.2293
 2235Sol     HW11947   2.712   2.079   6.396  0.4915 -0.4992 -1.2046
 2235Sol     MW11948   2.638   2.030   6.379  0.3166 -0.0682 -0.2117
 2236Sol     OW11949   1.369   2.102   2.959 -0.3404 -0.1552 -0.7010
 2236Sol     HW11950   1.430   2.084   2.887 -0.9955  0.7438 -1.5078
 2236Sol     HW11951   1.414   2.072   3.037  1.2310  0.6960 -1.2558
 2236Sol     MW11952   1.379   2.098   2.959  0.9641 -0.7653  0.1519
 2237Sol     OW11953   0.700   0.264   5.767  0.0593  0.5531 -0.3797
 2237Sol     HW11954   0.776   0.278   5.711  0.0449 -0.3237 -0.6220
 2237Sol     HW11955   0.652   0.193   5.725 -0.6193  0.7487  0.0585
 2237Sol     MW11956   0.703   0.259   5.758 -0.6600  0.1335  0.8060
 2238Sol     OW11957   1.194   2.829   3.495  0.2620  0.1573  0.0101
 2238Sol     HW11958   1.161   2.857   3.409 -0.3308  2.2202  0.8856
 2238Sol     HW11959   1.285   2.806   3.479 -0.4182 -1.6618 -1.6139
 2238Sol     MW11960   1.199   2.829   3.486 -0.6881  0.4475  0.7332
 2239Sol     OW11961   2.539   2.159   1.445 -0.3507  0.1301 -0.3886
 2239Sol     HW11962   2.612   2.142   1.386 -0.5588 -0.5268 -0.4577
 2239Sol     HW11963   2.566   2.236   1.495 -0.0725  0.5482 -1.1733
 2239Sol     MW11964   2.548   2.164   1.444 -0.4138 -0.3603  0.1614
 2240Sol     OW11965   2.788   2.252   7.409 -0.3011  0.7695  0.1938
 2240Sol     HW11966   2.840   2.281   7.484  1.1993 -0.7747 -0.2322
 2240Sol     HW11967   2.751   2.333   7.373 -0.0711  1.6478  1.8643
 2240Sol     MW11968   2.789   2.262   7.413 -0.4078 -0.0211 -0.6379
 2241Sol     OW11969   2.676   2.867   9.135 -0.4283  0.1206 -0.1135
 2241Sol     HW11970   2.659   2.939   9.196  0.7051  0.0374  0.2891
 2241Sol     HW11971   2.709   2.796   9.189 -1.4041 -0.6661 -0.5395
 2241Sol     MW11972   2.677   2.867   9.145 -0.4334 -0.2918  0.1553
 2242Sol     OW11973   0.936   0.945   3.156  0.0387  0.7832  0.3571
 2242Sol     HW11974   0.900   0.955   3.068  0.5705  1.0112  0.1612
 2242Sol     HW11975   1.017   0.997   3.154  0.4135  0.2093  0.7667
 2242Sol     MW11976   0.940   0.951   3.148  0.1453 -0.6833  0.3505
 2243Sol     OW11977   2.994   0.882   1.812  0.6782  0.5714  0.5783
 2243Sol     HW11978   3.032   0.880   1.724 -0.1449 -0.7398  0.2380
 2243Sol     HW11979   3.032   0.806   1.856 -0.1077  0.3266  0.8400
 2243Sol     MW11980   3.001   0.875   1.808 -0.1135  0.0983 -0.4114
 2244Sol     OW11981   0.515   3.118   6.266  0.4391 -0.2890 -0.2020
 2244Sol     HW11982   0.508   3.168   6.184 -1.4738  0.2710  0.2869
 2244Sol     HW11983   0.428   3.082   6.280  0.6669 -0.1422  1.7522
 2244Sol     MW11984   0.507   3.119   6.260  0.1823  0.1624  0.3479
 2245Sol     OW11985   2.743   1.022   9.806  0.0998 -0.4620 -0.0185
 2245Sol     HW11986   2.662   0.972   9.800 -0.7259  0.8229  0.2257
 2245Sol     HW11987   2.800   0.969   9.862 -1.6271 -0.0423  2.2465
 2245Sol     MW11988   2.741   1.013   9.811  0.1303  0.4980 -0.1034
 2246Sol     OW11989   2.546   2.228   3.696 -0.2513 -0.0114 -0.0092
 2246Sol     HW11990   2.619   2.166   3.690 -0.4327 -0.2420  0.1771
 2246Sol     HW11991   2.480   2.194   3.636 -0.2880  0.0880 -0.0253
 2246Sol     MW11992   2.547   2.219   3.690 -0.1248  0.2319  0.1812
 2247Sol     OW11993   0.196   3.059   1.654  0.1149  0.6957  0.3017
 2247Sol     HW11994   0.218   2.988   1.715  1.3662 -0.6525 -1.6540
 2247Sol     HW11995   0.269   3.121   1.662  0.5168  0.2873 -0.1407
 2247Sol     MW11996   0.205   3.058   1.660  0.1039  0.1723  0.2838
 2248Sol     OW11997   0.361   1.869   9.938  0.0690  0.5377 -0.2225
 2248Sol     HW11998   0.320   1.843  10.021  1.9110 -0.7249  0.3255
 2248Sol     HW11999   0.299   1.931   9.899 -0.4520  1.7810  2.4879
 2248Sol     MW12000   0.352   1.872   9.942 -0.1154 -0.2210 -0.3600
 2249Sol     OW12001   2.699   2.426   3.365  0.2904  0.1338  0.1107
 2249Sol     HW12002   2.616   2.414   3.319 -0.2435  1.4515  0.6923
 2249Sol     HW12003   2.691   2.512   3.407  1.9518  0.2933  0.1525
 2249Sol     MW12004   2.691   2.433   3.364 -0.3592 -0.4182  0.5355
 2250Sol     OW12005   0.744   3.313   6.116 -0.6329 -0.2511  0.0407
 2250Sol     HW12006   0.749   3.274   6.203 -0.3216  1.1913  0.6817
 2250Sol     HW12007   0.650   3.322   6.099 -0.6908 -0.0929  0.4373
 2250Sol     MW12008   0.736   3.311   6.122  0.1134  0.4205  0.0546
 2251Sol     OW12009   2.612   1.815   6.570 -0.0104  0.1649  0.1166
 2251Sol     HW12010   2.706   1.804   6.588  0.5149  1.9736 -1.4047
 2251Sol     HW12011   2.609   1.867   6.490 -2.3043  1.8977  1.2710
 2251Sol     MW12012   2.620   1.819   6.565 -0.0795 -0.1602  0.2695
 2252Sol     OW12013   1.982   2.544   1.504 -0.3317 -0.3748 -0.1277
 2252Sol     HW12014   2.064   2.502   1.476  0.6956  1.0501  0.6278
 2252Sol     HW12015   1.934   2.559   1.423  0.4552 -0.6426 -0.6577
 2252Sol     MW12016   1.985   2.542   1.495 -0.1979  0.3327 -0.1366
 2253Sol     OW12017   1.603   0.657   5.679 -0.6487  0.1366 -0.3585
 2253Sol     HW12018   1.617   0.706   5.760  1.4258  1.4788 -1.4755
 2253Sol     HW12019   1.514   0.678   5.653 -0.9572  0.5725  0.9852
 2253Sol     MW12020   1.597   0.663   5.684  0.6078  0.2601  0.5643
 2254Sol     OW12021   2.131   2.362   2.325  0.1299  0.4035  0.6626
 2254Sol     HW12022   2.114   2.304   2.251 -0.0310  0.3327  0.7538
 2254Sol     HW12023   2.076   2.439   2.309  2.1139  1.5837 -0.6666
 2254Sol     MW12024   2.124   2.363   2.317  0.1028 -0.5866  0.4535
 2255Sol     OW12025   1.198   1.382   6.735  0.5129  0.2153  0.5846
 2255Sol     HW12026   1.257   1.354   6.805  0.8260  1.2174  0.7312
 2255Sol     HW12027   1.220   1.475   6.721 -1.2681  0.6987  0.8902
 2255Sol     MW12028   1.205   1.388   6.740  0.2505  0.3356 -0.1338
 2256Sol     OW12029   3.122   3.282   5.336  0.6083  0.5910 -0.6464
 2256Sol     HW12030   3.103   3.334   5.258 -0.2032  0.1600 -0.7444
 2256Sol     HW12031   3.040   3.284   5.386  1.2954  1.3333  0.4590
 2256Sol     MW12032   3.113   3.287   5.334 -0.1447 -0.7567 -0.3557
 2257Sol     OW12033   0.820   1.639   9.434 -0.0092  0.5925  0.2204
 2257Sol     HW12034   0.766   1.717   9.418  1.2359  1.3258 -0.5077
 2257Sol     HW12035   0.791   1.607   9.519  0.5859  2.8253  1.3140
 2257Sol     MW12036   0.812   1.643   9.440 -0.9056  0.2835  0.2019
 2258Sol     OW12037   2.403   1.733   9.980 -0.3255 -0.4834 -0.4807
 2258Sol     HW12038   2.401   1.780   9.896  1.2637 -0.1969 -0.3779
 2258Sol     HW12039   2.422   1.801  10.045  2.2925 -1.2853 -0.3620
 2258Sol     MW12040   2.405   1.744   9.978 -0.7494  0.1842 -0.0387
 2259Sol     OW12041   2.935   0.287   9.092  0.4950  0.1137  0.2954
 2259Sol     HW12042   2.973   0.363   9.049 -2.4367  1.3586 -0.1813
 2259Sol     HW12043   2.913   0.318   9.180 -1.4591  0.1071 -0.1619
 2259Sol     MW12044   2.937   0.297   9.096  0.2459 -0.2798 -0.1733
 2260Sol     OW12045   0.882   1.665   5.644  0.1309 -0.1499 -0.1472
 2260Sol     HW12046   0.819   1.730   5.614 -0.5504 -0.3233  0.8842
 2260Sol     HW12047   0.829   1.585   5.658  0.7536 -0.5894 -0.2978
 2260Sol     MW12048   0.871   1.663   5.643 -0.2068 -0.2944  0.2173
 2261Sol     OW12049   0.355   0.699   2.347 -0.2589 -0.1151  0.4640
 2261Sol     HW12050   0.294   0.625   2.347 -1.7851  1.1145 -0.2975
 2261Sol     HW12051   0.428   0.671   2.291 -1.2292 -0.7374 -0.4982
 2261Sol     MW12052   0.356   0.690   2.342 -0.6970 -0.2276 -0.5286
 2262Sol     OW12053   2.499   1.988   5.334 -0.8249 -0.5906 -0.4154
 2262Sol     HW12054   2.471   1.902   5.366 -1.4116 -1.4262 -3.1050
 2262Sol     HW12055   2.421   2.025   5.293 -0.5870  1.2765  0.7242
 2262Sol     MW12056   2.489   1.984   5.334  0.1466 -0.4755 -0.2195
 2263Sol     OW12057   0.652   0.018   7.341  0.0273  0.0568  0.1649
 2263Sol     HW12058   0.621   0.108   7.346 -0.7237 -0.2235  0.7445
 2263Sol     HW12059   0.728   0.021   7.283 -0.4180  0.9516 -0.3818
 2263Sol     MW12060   0.656   0.026   7.336 -0.6442  0.4947 -0.3589
 2264Sol     OW12061   2.326   1.511   4.972 -0.1927 -0.3968 -0.0379
 2264Sol     HW12062   2.355   1.581   5.030 -1.9036  0.0018  0.3771
 2264Sol     HW12063   2.231   1.523   4.965 -0.2667 -1.5687 -1.4266
 2264Sol     MW12064   2.320   1.518   4.976 -0.1459 -0.2880  0.4376
 2265Sol     OW12065   0.805   0.409   3.704 -0.5278  0.2486  0.2637
 2265Sol     HW12066   0.763   0.349   3.766  1.4065 -1.0199  0.3931
 2265Sol     HW12067   0.817   0.357   3.624  0.1629  0.7876  0.0078
 2265Sol     MW12068   0.802   0.399   3.702  0.1686  0.4441 -0.3231
 2266Sol     OW12069   0.271   3.034   9.683 -0.0155 -0.2442 -0.4931
 2266Sol     HW12070   0.241   3.062   9.769  0.1943 -0.2639 -0.4153
 2266Sol     HW12071   0.240   3.102   9.623 -1.0645 -0.7562 -0.5439
 2266Sol     MW12072   0.265   3.042   9.685 -0.0783 -0.0022  0.2465
 2267Sol     OW12073   3.088   0.431   9.782 -0.5794  0.4164  0.3260
 2267Sol     HW12074   3.111   0.518   9.749 -1.1664  0.0557 -1.0410
 2267Sol     HW12075   3.105   0.372   9.709 -0.4652 -0.5873  1.1592
 2267Sol     MW12076   3.092   0.434   9.773 -0.8264  0.1338 -0.7572
 2268Sol     OW12077   2.822   3.191   3.643 -0.5589 -0.4174 -0.2832
 2268Sol     HW12078   2.753   3.127   3.625 -0.4040  0.2165 -3.3410
 2268Sol     HW12079   2.800   3.266   3.588  0.8028  1.0854  1.1722
 2268Sol     MW12080   2.814   3.192   3.636  0.7082  0.2296  0.5821
 2269Sol     OW12081   2.220   0.397   7.478  0.1022 -0.2746  0.2158
 2269Sol     HW12082   2.213   0.318   7.424  3.5107 -2.5467  2.8909
 2269Sol     HW12083   2.294   0.446   7.441  1.7406 -1.2956  2.0637
 2269Sol     MW12084   2.226   0.394   7.470 -0.1241  0.1510 -0.6202
 2270Sol     OW12085   0.385   1.185   6.270 -0.1239 -0.1684 -0.5455
 2270Sol     HW12086   0.397   1.233   6.188 -0.3758 -0.3400 -0.6834
 2270Sol     HW12087   0.441   1.231   6.333 -0.7494  0.6130 -0.5504
 2270Sol     MW12088   0.391   1.193   6.268  0.0915  0.2959 -0.7036
 2271Sol     OW12089   3.106   2.519   3.829  0.0395  0.1575  0.0024
 2271Sol     HW12090   3.177   2.545   3.770  1.5793 -3.4264  0.1522
 2271Sol     HW12091   3.053   2.459   3.778 -0.2681 -0.7186  1.3293
 2271Sol     MW12092   3.108   2.516   3.819  0.1685 -0.7198  0.2317
 2272Sol     OW12093   2.330   0.057   6.461 -0.3642  0.3593 -0.2417
 2272Sol     HW12094   2.325   0.143   6.420  0.5885  0.5943  0.1365
 2272Sol     HW12095   2.307   0.072   6.553  0.3716  0.3050 -0.0477
 2272Sol     MW12096   2.327   0.066   6.466  0.7929  0.3781 -0.5107
 2273Sol     OW12097   1.409   2.278   4.124  0.3505 -0.5211  0.6939
 2273Sol     HW12098   1.352   2.317   4.057  0.7977  0.9666  1.1639
 2273Sol     HW12099   1.490   2.257   4.077  0.7302  0.6896  0.8104
 2273Sol     MW12100   1.411   2.279   4.113  0.3607 -0.4650  0.0354
 2274Sol     OW12101   1.268   3.079   2.737 -0.3268 -0.7872  0.5106
 2274Sol     HW12102   1.202   3.138   2.774  0.9375  1.2447 -0.4197
 2274Sol     HW12103   1.314   3.044   2.813 -0.5977 -0.0008  1.0462
 2274Sol     MW12104   1.266   3.081   2.747 -0.5071 -0.7750 -0.5458
 2275Sol     OW12105   2.794   2.577   7.572 -0.5129 -0.1039 -0.4648
 2275Sol     HW12106   2.844   2.561   7.652 -0.9431 -0.2843 -0.2320
 2275Sol     HW12107   2.703   2.578   7.601 -0.5635  1.5745 -0.6700
 2275Sol     MW12108   2.791   2.575   7.582 -0.3433 -0.2765  0.1992
 2276Sol     OW12109   2.756   2.949   5.092 -0.1187  0.0532 -0.0009
 2276Sol     HW12110   2.717   2.944   5.180  1.4343 -1.2057  0.6395
 2276Sol     HW12111   2.846   2.918   5.104  0.6216  1.4510 -1.7315
 2276Sol     MW12112   2.761   2.946   5.101  0.4308  0.4519  0.4078
 2277Sol     OW12113   2.586   1.945   3.065 -0.2743 -0.6215  0.2018
 2277Sol     HW12114   2.508   1.972   3.017  0.7846 -0.9920 -1.7867
 2277Sol     HW12115   2.568   1.970   3.156 -2.0626  0.6753 -0.4707
 2277Sol     MW12116   2.578   1.950   3.069  0.4524 -0.5968 -0.4690
 2278Sol     OW12117   0.679   2.206   2.060 -0.0028 -0.1661  0.1413
 2278Sol     HW12118   0.665   2.233   2.150  0.0877 -0.4354  0.2381
 2278Sol     HW12119   0.758   2.152   2.063  0.8440  1.0367 -0.3359
 2278Sol     MW12120   0.685   2.203   2.068 -0.2255  0.2739  0.2071
 2279Sol     OW12121   2.250   2.836   5.914 -0.6482 -0.1785  0.1891
 2279Sol     HW12122   2.323   2.778   5.934 -1.1099  0.0415  2.6307
 2279Sol     HW12123   2.289   2.910   5.869  0.9286  0.7543  2.9773
 2279Sol     MW12124   2.260   2.838   5.912  0.2523  0.4409  0.0996
 2280Sol     OW12125   0.874   2.179   5.622  0.0726 -0.5970 -0.2796
 2280Sol     HW12126   0.780   2.164   5.625  0.1263 -0.6904  1.0516
 2280Sol     HW12127   0.909   2.132   5.698  0.9333  1.2872  0.5128
 2280Sol     MW12128   0.869   2.173   5.629 -0.0863 -0.0226  0.8778
 2281Sol     OW12129   1.632   1.184   3.891 -0.5518 -0.8437 -0.5002
 2281Sol     HW12130   1.679   1.101   3.881  0.6744 -0.1865 -0.3060
 2281Sol     HW12131   1.606   1.187   3.983  2.0123  0.3323  0.2176
 2281Sol     MW12132   1.634   1.177   3.898 -0.2331  0.2177 -0.5774
 2282Sol     OW12133   0.638   1.671   1.364  0.3360 -0.3973 -0.4572
 2282Sol     HW12134   0.644   1.665   1.459 -2.7029  2.4825  0.0146
 2282Sol     HW12135   0.697   1.742   1.340 -1.1705  0.9322 -0.3260
 2282Sol     MW12136   0.644   1.677   1.370 -0.3719  0.2521 -0.6933
 2283Sol     OW12137   3.014   0.024   6.606  0.0321 -0.3622  0.1028
 2283Sol     HW12138   2.946   0.083   6.638 -1.7068 -1.1909 -1.9325
 2283Sol     HW12139   3.065   0.077   6.544  0.2801 -0.1794  0.4625
 2283Sol     MW12140   3.013   0.034   6.603 -0.7188  0.3876  0.0087
 2284Sol     OW12141   0.793   2.457   2.998  0.3702 -0.2521  0.0588
 2284Sol     HW12142   0.742   2.538   2.992  0.5186 -0.1201  0.5626
 2284Sol     HW12143   0.726   2.389   3.011  0.3844  0.1083  2.4028
 2284Sol     MW12144   0.782   2.458   2.999  0.5297 -0.1009  0.5097
 2285Sol     OW12145   1.670   3.215   3.630 -0.2812 -0.0470 -0.4058
 2285Sol     HW12146   1.705   3.300   3.657 -1.0449  0.4954 -1.0824
 2285Sol     HW12147   1.708   3.153   3.691  0.3076  0.7827  0.0847
 2285Sol     MW12148   1.676   3.217   3.637  0.7964  0.4311  0.2019
 2286Sol     OW12149   0.499   0.163   6.171  0.5040 -0.5220  0.3843
 2286Sol     HW12150   0.442   0.115   6.110 -0.0501  1.8181 -1.0144
 2286Sol     HW12151   0.440   0.190   6.242  0.5740 -0.9494  0.6040
 2286Sol     MW12152   0.488   0.161   6.172  0.0151  1.1204  0.4148
 2287Sol     OW12153   0.181   2.012   4.275  0.0107  0.7529  0.2275
 2287Sol     HW12154   0.151   2.092   4.231 -0.9583 -0.1664 -0.8296
 2287Sol     HW12155   0.276   2.015   4.268  0.0351  2.3341  1.1305
 2287Sol     MW12156   0.186   2.019   4.270 -0.1000 -0.4109 -0.1885
 2288Sol     OW12157   1.754   1.421   5.879  0.3281 -0.2322  0.4116
 2288Sol     HW12158   1.752   1.423   5.784  2.5268  1.4246  0.3702
 2288Sol     HW12159   1.740   1.512   5.906  0.3147 -0.5818  1.6508
 2288Sol     MW12160   1.752   1.429   5.873  0.3063 -0.1348 -0.2282
 2289Sol     OW12161   2.255   3.042   1.553  0.0591  0.1998 -0.2400
 2289Sol     HW12162   2.198   3.003   1.487 -0.9046 -0.4308  0.9324
 2289Sol     HW12163   2.329   3.077   1.504 -0.3809 -0.7241 -1.5821
 2289Sol     MW12164   2.256   3.042   1.543 -0.4993  0.3873 -0.5956
 2290Sol     OW12165   1.771   3.391   8.862  0.1285 -0.3937 -0.3877
 2290Sol     HW12166   1.849   3.343   8.834 -0.1858 -0.0519 -1.9040
 2290Sol     HW12167   1.799   3.438   8.940  1.4364 -0.3309 -0.8814
 2290Sol     MW12168   1.781   3.391   8.867 -0.3296 -0.5624 -0.3254
 2291Sol     OW12169   3.288   1.327   7.582 -0.5726  0.3951 -0.5922
 2291Sol     HW12170   3.367   1.368   7.617 -0.3835 -0.7417  0.3527
 2291Sol     HW12171   3.217   1.362   7.635 -0.4793 -0.0271 -0.1838
 2291Sol     MW12172   3.289   1.334   7.590  0.3257 -0.6060  0.1454
 2292Sol     OW12173   2.338   0.903   6.007  0.2486 -0.2758 -0.6304
 2292Sol     HW12174   2.273   0.841   5.974  0.8507 -0.3871 -1.6217
 2292Sol     HW12175   2.288   0.982   6.027 -0.0631 -0.0298 -2.2998
 2292Sol     MW12176   2.328   0.905   6.006 -0.1525  0.6522  0.5609
 2293Sol     OW12177   1.945   1.896   6.132  0.0250 -0.6906 -0.0469
 2293Sol     HW12178   1.922   1.963   6.067  0.9372 -0.5948 -0.2865
 2293Sol     HW12179   2.023   1.853   6.095 -1.1868 -2.6275 -0.4220
 2293Sol     MW12180   1.950   1.898   6.122  0.3986 -0.1784 -0.0800
 2294Sol     OW12181   1.196   1.542   3.521  0.0513 -0.4833  0.0441
 2294Sol     HW12182   1.244   1.479   3.466  1.0189 -1.2437  1.7056
 2294Sol     HW12183   1.114   1.498   3.542  0.4585 -0.9345  0.6913
 2294Sol     MW12184   1.193   1.533   3.518  0.5428  0.3234 -0.3835
 2295Sol     OW12185   1.151   0.045   4.983  0.2185 -0.1499 -0.4994
 2295Sol     HW12186   1.105   0.120   4.946  0.3927 -0.4103 -1.2713
 2295Sol     HW12187   1.221   0.083   5.035 -0.7570  0.2453  0.5357
 2295Sol     MW12188   1.153   0.055   4.984  0.3497 -0.5678  0.1080
 2296Sol     OW12189   2.364   3.185   7.256  0.0377 -0.3497 -0.0842
 2296Sol     HW12190   2.341   3.150   7.343 -0.3256  0.2141  0.0494
 2296Sol     HW12191   2.414   3.114   7.215 -0.0704 -0.7520  0.4576
 2296Sol     MW12192   2.366   3.175   7.260  0.2345 -0.6139  0.0068
 2297Sol     OW12193   1.234   2.676   2.663 -0.2349 -0.0277  0.5297
 2297Sol     HW12194   1.204   2.761   2.632 -0.2140  1.0130  3.1887
 2297Sol     HW12195   1.185   2.612   2.611  0.7320  1.5671 -2.4040
 2297Sol     MW12196   1.227   2.678   2.656  0.7295  0.1793  0.3382
 2298Sol     OW12197   1.504   2.056   5.668  0.0597  0.4740  0.2489
 2298Sol     HW12198   1.516   2.063   5.762  0.4993 -2.3537  0.4541
 2298Sol     HW12199   1.522   1.964   5.648 -2.3998  0.4567 -2.2457
 2298Sol     MW12200   1.507   2.048   5.674 -0.9682 -0.7117 -0.0001
 2299Sol     OW12201   1.385   1.514   9.559  0.1829 -0.2911 -0.2024
 2299Sol     HW12202   1.371   1.604   9.589  0.6493  0.4625 -2.1643
 2299Sol     HW12203   1.465   1.518   9.506  1.5109 -2.3237  1.5350
 2299Sol     MW12204   1.391   1.522   9.557  0.0763 -0.1919 -0.3705
 2300Sol     OW12205   3.022   3.334   3.746  0.0621  0.0326  0.0207
 2300Sol     HW12206   2.942   3.294   3.713 -0.7172  0.8018  0.9525
 2300Sol     HW12207   3.049   3.277   3.818  0.3540 -0.2214 -0.2870
 2300Sol     MW12208   3.017   3.325   3.750 -0.3524  0.8252 -0.0580
 2301Sol     OW12209   1.182   1.718   6.045  0.1244  0.3889  0.0327
 2301Sol     HW12210   1.142   1.684   6.125  0.2421  0.4365  0.1130
 2301Sol     HW12211   1.109   1.735   5.987  0.1624 -1.7807 -0.7160
 2301Sol     MW12212   1.172   1.716   6.047  0.7508  0.4218 -0.3148
 2302Sol     OW12213   0.008   0.501   4.118  0.1751 -0.3846  0.2233
 2302Sol     HW12214  -0.019   0.528   4.030  0.3520 -2.0656 -0.3795
 2302Sol     HW12215   0.101   0.480   4.109 -0.0395 -1.5218  0.5474
 2302Sol     MW12216   0.014   0.501   4.109 -0.5812  0.0450  0.1026
 2303Sol     OW12217   1.962   2.404   4.273 -0.3870 -0.1571  0.3857
 2303Sol     HW12218   2.054   2.432   4.273 -1.0749  2.1658 -0.5485
 2303Sol     HW12219   1.966   2.313   4.243  1.5664  0.1106 -0.2675
 2303Sol     MW12220   1.971   2.398   4.270  0.0552 -0.2154  0.3966
 2304Sol     OW12221   1.766   0.590   3.475  0.3241  0.4035  0.0250
 2304Sol     HW12222   1.687   0.557   3.433  0.4697 -0.0503  0.1040
 2304Sol     HW12223   1.738   0.669   3.522 -0.2482 -0.2034  0.7169
 2304Sol     MW12224   1.757   0.594   3.476 -0.2546 -0.3876 -0.1238
 2305Sol     OW12225   3.166   1.863   6.189 -0.0259 -0.1882  0.5007
 2305Sol     HW12226   3.137   1.907   6.269  0.7175  0.6022  0.3408
 2305Sol     HW12227   3.088   1.861   6.133 -0.3628 -0.1044  0.9600
 2305Sol     MW12228   3.156   1.867   6.192 -0.3506 -0.9133  0.2426
 2306Sol     OW12229   2.027   1.903   8.817  0.5531  0.6992 -0.4059
 2306Sol     HW12230   1.971   1.970   8.776  1.2310  0.2493 -2.1352
 2306Sol     HW12231   2.007   1.823   8.768 -0.0016 -0.3076  1.4310
 2306Sol     MW12232   2.020   1.902   8.809  0.0235 -0.5777  0.4597
 2307Sol     OW12233   0.100   0.668   8.988 -0.2176  0.0160 -0.4698
 2307Sol     HW12234   0.008   0.693   8.978 -0.5127 -0.0057  2.0580
 2307Sol     HW12235   0.100   0.598   9.053  1.3995 -1.4278 -1.9383
 2307Sol     MW12236   0.092   0.664   8.993  0.1187  0.2597 -0.5546
 2308Sol     OW12237   1.433   2.144   6.454 -0.5999  0.2150  0.2574
 2308Sol     HW12238   1.502   2.208   6.468 -0.7514  0.6858 -0.9975
 2308Sol     HW12239   1.476   2.059   6.459  0.3988  0.5490 -2.1284
 2308Sol     MW12240   1.443   2.142   6.455 -0.7319  0.4116 -0.3014
 2309Sol     OW12241   0.198   0.488   2.384  0.2027 -0.0794 -0.0417
 2309Sol     HW12242   0.195   0.444   2.299  0.9528  0.4366 -0.3504
 2309Sol     HW12243   0.257   0.434   2.437  0.6382  0.2123 -0.2231
 2309Sol     MW12244   0.203   0.479   2.381 -0.5229 -0.3258  0.0492
 2310Sol     OW12245   2.236   2.358   5.190  0.2409  0.0296 -0.0539
 2310Sol     HW12246   2.156   2.344   5.141 -1.0265 -1.6001  2.3598
 2310Sol     HW12247   2.285   2.276   5.182  0.2474 -0.0781  0.9294
 2310Sol     MW12248   2.233   2.349   5.185  0.2163 -0.1567 -0.3856
 2311Sol     OW12249   2.058   1.051   8.362 -0.4759  0.0064  0.0064
 2311Sol     HW12250   2.097   1.107   8.430 -0.4626 -0.7201  0.6123
 2311Sol     HW12251   2.047   0.967   8.406 -0.0269 -0.6053 -1.0502
 2311Sol     MW12252   2.061   1.049   8.372  0.1637  0.3646  0.6371
 2312Sol     OW12253   0.787   0.980   9.603  0.0626  0.1563  0.3908
 2312Sol     HW12254   0.801   1.058   9.549 -0.0568 -1.4934 -2.1167
 2312Sol     HW12255   0.850   0.989   9.675 -0.4549  2.9048  0.5619
 2312Sol     MW12256   0.794   0.988   9.604 -0.1013 -0.5427  0.1006
 2313Sol     OW12257   1.628   1.132   8.702  0.4468 -0.0747  0.0179
 2313Sol     HW12258   1.621   1.216   8.747  0.7357  0.4331 -0.8740
 2313Sol     HW12259   1.569   1.074   8.750 -1.2494  1.1592 -0.5256
 2313Sol     MW12260   1.622   1.134   8.710  0.6478  0.0165 -0.3173
 2314Sol     OW12261   0.575   2.381   6.726  0.5029  0.0514  0.7152
 2314Sol     HW12262   0.489   2.339   6.730 -1.0386  2.6436 -2.4204
 2314Sol     HW12263   0.575   2.444   6.798 -0.6728  0.7382  0.1351
 2314Sol     MW12264   0.568   2.383   6.733 -0.2782 -0.0715 -0.1212
 2315Sol     OW12265   1.981   2.587   1.912 -0.3941 -0.2848  0.2501
 2315Sol     HW12266   2.021   2.503   1.889  0.9023  0.1823  0.7429
 2315Sol     HW12267   1.930   2.612   1.835  2.0034  0.1380 -1.2258
 2315Sol     MW12268   1.980   2.581   1.903 -0.1044  0.8389 -0.1258
 2316Sol     OW12269   1.979   3.427   7.916 -0.4038  0.1724  0.0541
 2316Sol     HW12270   2.035   3.382   7.979  0.3681  0.5131 -0.3791
 2316Sol     HW12271   2.011   3.517   7.915 -2.0877  0.8052  1.0970
 2316Sol     MW12272   1.987   3.431   7.921  0.2415 -0.1980  0.0376
 2317Sol     OW12273   0.835   3.167   9.963 -0.2923  0.2858  0.5634
 2317Sol     HW12274   0.860   3.238  10.022  0.5711  0.0060  0.5364
 2317Sol     HW12275   0.808   3.211   9.882  1.2913  0.5444  0.1599
 2317Sol     MW12276   0.835   3.177   9.961  0.0290  0.3147  0.1343
 2318Sol     OW12277   1.942   1.474   9.779  0.4315  0.2005  0.4419
 2318Sol     HW12278   2.018   1.483   9.837  0.5206  1.4096  0.1311
 2318Sol     HW12279   1.980   1.463   9.692  0.2994 -1.7709  0.6062
 2318Sol     MW12280   1.953   1.473   9.777  0.2879  0.0760  0.2345
 2319Sol     OW12281   2.139   0.766   8.418  0.8826  0.0882  0.2887
 2319Sol     HW12282   2.110   0.685   8.375 -0.1701  0.5581  0.1110
 2319Sol     HW12283   2.220   0.741   8.463  0.9808 -0.8778 -0.4029
 2319Sol     MW12284   2.144   0.756   8.418  0.3745 -0.0768 -0.1825
 2320Sol     OW12285   2.579   1.497   5.697 -0.1139 -0.6562 -0.4050
 2320Sol     HW12286   2.620   1.417   5.729 -2.6717 -1.6964  0.3961
 2320Sol     HW12287   2.548   1.542   5.775 -1.2763 -0.3357 -1.0358
 2320Sol     MW12288   2.580   1.494   5.706 -0.0473  0.0924 -0.2345
 2321Sol     OW12289   1.751   2.962   4.752 -0.3307 -0.0300 -0.3978
 2321Sol     HW12290   1.805   2.882   4.761  0.3470  0.3465 -1.0725
 2321Sol     HW12291   1.682   2.951   4.817 -0.9887 -1.7706 -1.3514
 2321Sol     MW12292   1.750   2.953   4.759 -0.2451  0.1355 -0.8681
 2322Sol     OW12293   3.309   1.145   7.863  0.0173  0.4990 -0.1335
 2322Sol     HW12294   3.380   1.117   7.806 -0.8704 -2.0773 -0.0487
 2322Sol     HW12295   3.351   1.165   7.946  0.9845  1.8003 -0.9116
 2322Sol     MW12296   3.319   1.144   7.865  0.2309 -0.0646 -0.5357
 2323Sol     OW12297   1.480   2.049   2.104 -0.2989  0.1580 -0.6678
 2323Sol     HW12298   1.555   2.010   2.150 -0.0643 -1.9150 -2.6848
 2323Sol     HW12299   1.517   2.125   2.059  0.8425 -1.3869 -2.4047
 2323Sol     MW12300   1.490   2.052   2.104  0.4180 -0.0077 -0.9363
 2324Sol     OW12301   0.696   2.357   4.014 -0.4505  0.1698  0.4163
 2324Sol     HW12302   0.785   2.384   4.039 -0.4072  0.4555 -0.0564
 2324Sol     HW12303   0.708   2.305   3.935 -0.5770 -0.8730  1.0715
 2324Sol     MW12304   0.705   2.355   4.009 -0.0801 -0.4059  0.4285
 2325Sol     OW12305   0.080   1.430   2.231 -0.2584 -0.0208  0.3852
 2325Sol     HW12306   0.033   1.512   2.244 -0.3971 -0.0253 -0.0908
 2325Sol     HW12307   0.052   1.399   2.145  0.8854  0.1578 -0.0664
 2325Sol     MW12308   0.073   1.434   2.225  0.6767  0.1433  0.5548
 2326Sol     OW12309   1.798   0.547   7.803  0.2012 -0.0667  0.0452
 2326Sol     HW12310   1.874   0.506   7.760  0.2869 -1.0366  1.0832
 2326Sol     HW12311   1.835   0.592   7.878 -0.1754  0.0241  0.1753
 2326Sol     MW12312   1.808   0.547   7.806 -0.1467 -0.0802  1.1075
 2327Sol     OW12313   1.659   1.346   2.295  0.4710 -0.2886 -0.0355
 2327Sol     HW12314   1.660   1.272   2.234  1.7449 -1.0488  0.8804
 2327Sol     HW12315   1.596   1.407   2.257  0.1333 -1.4039 -1.3271
 2327Sol     MW12316   1.653   1.345   2.286 -0.3871  0.4608  0.2361
 2328Sol     OW12317   2.364   3.289   2.339 -0.0975 -0.3095 -0.8745
 2328Sol     HW12318   2.322   3.322   2.260  1.1862 -0.0118 -1.4469
 2328Sol     HW12319   2.454   3.268   2.312  0.4028 -0.0493  0.5386
 2328Sol     MW12320   2.369   3.290   2.329 -0.0676 -0.0074 -0.6250
 2329Sol     OW12321   0.030   1.510   7.328 -0.1560  0.7243 -0.1621
 2329Sol     HW12322  -0.005   1.568   7.396  0.4205  0.8243  0.0589
 2329Sol     HW12323   0.124   1.507   7.347 -0.3096 -1.0102  0.3881
 2329Sol     MW12324   0.035   1.515   7.336 -0.1082  0.4123 -0.0756
 2330Sol     OW12325   2.299   0.275   2.716  0.4130  0.5098 -0.0236
 2330Sol     HW12326   2.227   0.275   2.779  0.8425  3.3467  0.5045
 2330Sol     HW12327   2.258   0.299   2.633 -0.0104 -2.4464 -0.7360
 2330Sol     MW12328   2.289   0.277   2.714 -0.0275 -0.3381 -0.1790
 2331Sol     OW12329   2.777   2.903   7.899 -0.9480  0.6707  0.0573
 2331Sol     HW12330   2.829   2.857   7.964 -0.8487  0.4628 -0.1721
 2331Sol     HW12331   2.707   2.945   7.950 -0.2626  1.3709  0.4209
 2331Sol     MW12332   2.775   2.903   7.910 -0.6453 -0.2998  0.0921
 2332Sol     OW12333   0.713   0.416   4.876 -0.3437 -0.0958  0.3931
 2332Sol     HW12334   0.650   0.464   4.822 -0.3866  0.4223  0.8976
 2332Sol     HW12335   0.669   0.405   4.961  0.4231  0.7189  0.9119
 2332Sol     MW12336   0.704   0.420   4.879 -0.1696  0.5192 -0.3817
 2333Sol     OW12337   2.390   2.928   5.522  0.6472 -0.0568  0.3361
 2333Sol     HW12338   2.357   3.014   5.495 -0.7112 -0.6809 -0.0309
 2333Sol     HW12339   2.374   2.925   5.616  0.4779 -0.0117  0.3082
 2333Sol     MW12340   2.386   2.936   5.528 -0.3067 -0.3428 -0.2608
 2334Sol     OW12341   0.168   1.001   2.581  0.1465  0.2980  0.1435
 2334Sol     HW12342   0.124   0.925   2.619  1.3272 -1.6933 -2.3633
 2334Sol     HW12343   0.259   0.991   2.606  0.3899  0.5985 -0.6018
 2334Sol     MW12344   0.172   0.993   2.586  0.0532 -0.2636 -0.0863
 2335Sol     OW12345   0.972   2.559   5.306  0.1225 -0.3755  0.0136
 2335Sol     HW12346   0.894   2.570   5.251  0.4585  2.2691 -0.0122
 2335Sol     HW12347   0.941   2.507   5.381 -0.6104 -3.0170 -2.0490
 2335Sol     MW12348   0.962   2.556   5.308 -0.1658 -0.0249 -0.0131
 2336Sol     OW12349   2.239   3.357   7.568  0.0043 -0.6212 -0.0755
 2336Sol     HW12350   2.218   3.265   7.558 -1.9368 -0.0620 -1.3476
 2336Sol     HW12351   2.156   3.399   7.592  0.5541  1.0105 -0.9200
 2336Sol     MW12352   2.230   3.353   7.570 -0.1404 -0.1024  0.6514
 2337Sol     OW12353   2.862   1.224   3.456 -0.4298 -0.2373 -0.0103
 2337Sol     HW12354   2.840   1.301   3.403  1.9884  0.7607  0.3265
 2337Sol     HW12355   2.892   1.261   3.539  0.9621 -1.5247  0.0860
 2337Sol     MW12356   2.863   1.235   3.459  0.2471  0.1059  0.1133
 2338Sol     OW12357   0.645   2.249   6.240 -0.5653  0.6254 -0.3988
 2338Sol     HW12358   0.630   2.236   6.147 -1.2267  2.8542 -0.6283
 2338Sol     HW12359   0.566   2.216   6.283  0.2535 -1.5636 -0.4975
 2338Sol     MW12360   0.637   2.245   6.236 -0.1707 -0.8605 -0.0429
 2339Sol     OW12361   2.789   0.921   1.368  0.1849 -0.1298  0.6416
 2339Sol     HW12362   2.822   0.991   1.311 -1.2580 -0.3408 -0.4818
 2339Sol     HW12363   2.715   0.961   1.414  1.5735  0.1527  2.6651
 2339Sol     MW12364   2.785   0.931   1.367  0.2406  0.4300  0.2435
 2340Sol     OW12365   0.478   3.056   3.161 -0.7116 -0.1883  0.0859
 2340Sol     HW12366   0.550   3.072   3.222 -1.8092  1.2211  1.0437
 2340Sol     HW12367   0.495   2.968   3.127  1.0410 -0.1802  0.8627
 2340Sol     MW12368   0.486   3.049   3.163  0.9892 -0.0198  0.2046
 2341Sol     OW12369   1.315   3.173   9.060  0.2139  0.3264  0.4378
 2341Sol     HW12370   1.293   3.226   8.983  1.5066  0.4284  0.1222
 2341Sol     HW12371   1.239   3.181   9.117 -0.8434  0.1002 -0.9058
 2341Sol     MW12372   1.306   3.178   9.058  0.7456 -0.2756 -0.0406
 2342Sol     OW12373   3.244   0.486   2.429  0.1902  0.4675  0.0446
 2342Sol     HW12374   3.211   0.525   2.349  0.1102  0.5399  0.1141
 2342Sol     HW12375   3.339   0.481   2.416  0.0255 -0.9578 -0.7045
 2342Sol     MW12376   3.250   0.489   2.421 -0.0694  0.1143  0.2352
 2343Sol     OW12377   0.475   2.635   1.907 -0.3599  0.1262  0.1427
 2343Sol     HW12378   0.547   2.575   1.926 -0.0813  0.7300  1.0460
 2343Sol     HW12379   0.514   2.722   1.915 -1.4428  0.4899  1.7192
 2343Sol     MW12380   0.485   2.638   1.909  0.4942  0.4802  0.4107
 2344Sol     OW12381   2.913   1.609   7.150 -0.6830  0.5226 -0.3928
 2344Sol     HW12382   2.927   1.615   7.244  1.2958  0.6381 -0.6679
 2344Sol     HW12383   2.875   1.523   7.136  0.8156 -0.2650  0.3171
 2344Sol     MW12384   2.911   1.602   7.157 -0.6626  0.3977  0.2946
 2345Sol     OW12385   2.418   1.939   1.615  0.2558  0.3524 -0.1584
 2345Sol     HW12386   2.472   1.999   1.564  0.8005 -0.7034 -0.8417
 2345Sol     HW12387   2.477   1.902   1.680  0.8965 -2.3200 -2.1855
 2345Sol     MW12388   2.428   1.941   1.616  0.1476 -0.2058 -0.2623
 2346Sol     OW12389   1.247   0.184   6.718  0.3431 -0.6716  0.2441
 2346Sol     HW12390   1.185   0.112   6.727 -1.1145  0.2424 -1.9329
 2346Sol     HW12391   1.310   0.154   6.652 -0.9898  0.4363 -1.6139
 2346Sol     MW12392   1.247   0.175   6.713  0.3438 -0.5947 -0.2982
 2347Sol     OW12393   0.150   0.939   7.006 -0.7149 -0.0711 -0.4140
 2347Sol     HW12394   0.096   0.861   6.993 -1.6242  0.3452  0.7650
 2347Sol     HW12395   0.091   1.002   7.047  0.0826  1.1562 -1.1247
 2347Sol     MW12396   0.140   0.938   7.008 -0.3602  0.1890 -0.4390
 2348Sol     OW12397   3.074   2.753   3.464  0.0025 -0.1820 -0.5798
 2348Sol     HW12398   2.992   2.799   3.477  0.1689  0.0407 -0.3144
 2348Sol     HW12399   3.109   2.788   3.383 -0.2060 -0.3400 -0.7384
 2348Sol     MW12400   3.070   2.760   3.458 -0.0004 -0.4168 -0.1827
 2349Sol     OW12401   2.713   0.389   4.192  0.1117  0.3854  0.3683
 2349Sol     HW12402   2.738   0.356   4.279  1.5855 -0.0680 -0.2143
 2349Sol     HW12403   2.758   0.473   4.184 -1.0452  1.0384  0.5371
 2349Sol     MW12404   2.719   0.393   4.199  0.1182  0.0904  0.1885
 2350Sol     OW12405   0.149   1.637   5.967  0.6700  0.8935 -0.2597
 2350Sol     HW12406   0.243   1.635   5.952  0.7262  3.5113 -0.4952
 2350Sol     HW12407   0.115   1.696   5.899 -0.6580  2.8751  2.0468
 2350Sol     MW12408   0.154   1.642   5.959 -0.2624 -0.8107 -0.3028
 2351Sol     OW12409   0.240   2.186   9.414  0.1577 -0.5431  0.0634
 2351Sol     HW12410   0.311   2.240   9.449  0.4173 -1.4059  0.8784
 2351Sol     HW12411   0.163   2.242   9.418  0.3696 -0.3287  1.1706
 2351Sol     MW12412   0.239   2.196   9.417 -0.3827  0.0261 -0.0252
 2352Sol     OW12413   0.659   1.850   5.567 -1.0252 -0.2832  0.0262
 2352Sol     HW12414   0.632   1.917   5.505  0.0967  1.5298  1.4549
 2352Sol     HW12415   0.602   1.863   5.643  1.0864  0.9693  1.4487
 2352Sol     MW12416   0.651   1.857   5.568  0.4625 -0.0745  0.4780
 2353Sol     OW12417   1.157   1.879   5.097  0.5922 -0.0812 -0.7762
 2353Sol     HW12418   1.109   1.911   5.021  0.8017  1.7559 -0.1493
 2353Sol     HW12419   1.146   1.784   5.094 -0.2197  0.0515 -2.5426
 2353Sol     MW12420   1.152   1.873   5.089 -0.1020  0.2634 -0.0950
 2354Sol     OW12421   0.620   2.065   7.334  0.2946 -0.5180  0.4200
 2354Sol     HW12422   0.640   1.992   7.392  0.7136  0.8167  1.9682
 2354Sol     HW12423   0.698   2.120   7.336 -0.5129  0.6579  0.3247
 2354Sol     MW12424   0.629   2.063   7.339 -0.7705 -0.6115  0.3364
 2355Sol     OW12425   2.056   0.742   6.000 -0.0641 -0.1567  0.3877
 2355Sol     HW12426   2.006   0.823   5.994 -0.1112 -0.0276  2.3450
 2355Sol     HW12427   2.080   0.722   5.909 -0.0372  2.0561 -0.1150
 2355Sol     MW12428   2.054   0.747   5.991 -0.0409  0.3988 -0.4729
 2356Sol     OW12429   0.821   0.425   8.657 -0.0770  0.7996 -0.3614
 2356Sol     HW12430   0.820   0.521   8.648  1.2309  0.9394  0.7831
 2356Sol     HW12431   0.884   0.409   8.727 -0.0003 -0.9285 -0.8175
 2356Sol     MW12432   0.827   0.433   8.662  0.6216  0.3632 -0.0470
 2357Sol     OW12433   2.546   0.257   3.032 -0.3096 -0.0459 -0.4388
 2357Sol     HW12434   2.625   0.264   3.085 -0.9975  0.6626  0.4983
 2357Sol     HW12435   2.530   0.163   3.025  0.3214 -0.1733 -0.2185
 2357Sol     MW12436   2.552   0.249   3.036  0.0028  0.5488 -0.1705
 2358Sol     OW12437   0.011   3.253   7.141  0.4289 -0.2896  0.2191
 2358Sol     HW12438  -0.014   3.221   7.227 -0.8146  2.0896  0.7930
 2358Sol     HW12439   0.092   3.302   7.155  0.6636 -0.5785 -0.1098
 2358Sol     MW12440   0.016   3.254   7.150  0.3786  0.4960 -0.5258
 2359Sol     OW12441   0.384   2.860   4.742  0.7989 -0.1774 -0.4296
 2359Sol     HW12442   0.407   2.873   4.650  2.6374  0.1992  0.0592
 2359Sol     HW12443   0.467   2.871   4.789 -0.5654  2.1169  1.5087
 2359Sol     MW12444   0.394   2.862   4.738  0.3498 -0.1867 -0.3929
 2360Sol     OW12445   3.169   1.891   8.447 -0.4727  0.9129 -0.1684
 2360Sol     HW12446   3.133   1.944   8.517 -0.1601  0.3966  0.3840
 2360Sol     HW12447   3.093   1.857   8.400 -0.9446 -3.6659  3.5209
 2360Sol     MW12448   3.159   1.893   8.449 -0.3599 -0.1641 -0.3290
 2361Sol     OW12449   0.079   1.733   2.044 -0.4615 -0.3464  0.2739
 2361Sol     HW12450   0.012   1.698   2.103  0.4426 -0.8140  1.0419
 2361Sol     HW12451   0.094   1.663   1.981 -0.4915 -0.3578  0.2794
 2361Sol     MW12452   0.074   1.724   2.044  0.1193  0.1215  0.6142
 2362Sol     OW12453   0.727   0.392   9.438  0.3135  0.4962  0.3847
 2362Sol     HW12454   0.733   0.487   9.441  0.0840  0.4861  1.2181
 2362Sol     HW12455   0.659   0.374   9.373  0.6475  0.8837 -0.0835
 2362Sol     MW12456   0.722   0.399   9.432 -0.5332 -0.0977 -0.5835
 2363Sol     OW12457   0.669   0.977   1.749 -0.2983 -0.0011 -0.6329
 2363Sol     HW12458   0.631   0.890   1.736 -1.1060  0.4301 -1.1723
 2363Sol     HW12459   0.700   0.976   1.840 -2.6621  0.0320  0.1939
 2363Sol     MW12460   0.669   0.969   1.756 -0.6027 -0.8206  0.4842
 2364Sol     OW12461   1.585   2.078   8.312 -0.0684 -0.4219  0.5624
 2364Sol     HW12462   1.491   2.097   8.314  0.4967  2.3733  1.8675
 2364Sol     HW12463   1.604   2.059   8.220 -1.3376  1.9911 -0.2185
 2364Sol     MW12464   1.578   2.078   8.304 -0.1318 -0.3792  0.2835
 2365Sol     OW12465   0.111   2.554   7.063  0.0361 -0.3235 -1.0616
 2365Sol     HW12466   0.096   2.645   7.037  0.3312  0.6895  2.0646
 2365Sol     HW12467   0.200   2.553   7.097 -0.7050 -1.2694  0.9233
 2365Sol     MW12468   0.118   2.562   7.064 -0.4175 -0.6394  0.5491
 2366Sol     OW12469   1.057   1.623   4.820 -0.0114 -0.5807  0.3335
 2366Sol     HW12470   0.993   1.681   4.861  0.7415  0.7763 -0.3752
 2366Sol     HW12471   1.125   1.681   4.787  0.1542 -1.7656 -1.4964
 2366Sol     MW12472   1.058   1.633   4.821  0.3128  0.6519 -0.2880
 2367Sol     OW12473   0.701   3.079   3.330 -0.2565 -0.0635  0.3378
 2367Sol     HW12474   0.689   2.984   3.336 -3.0586  0.3215  1.6214
 2367Sol     HW12475   0.775   3.098   3.387  0.7266 -1.5296 -0.4262
 2367Sol     MW12476   0.706   3.072   3.335 -0.1057 -0.2580  0.4273
 2368Sol     OW12477   1.604   0.299   4.947 -0.4717 -0.4456  0.3079
 2368Sol     HW12478   1.552   0.229   4.988  0.3969 -1.5724 -0.4719
 2368Sol     HW12479   1.651   0.255   4.876  1.7300  0.4947  1.1448
 2368Sol     MW12480   1.604   0.288   4.945 -0.3664  0.2090  0.9835
 2369Sol     OW12481   2.444   2.225   8.375  0.6995 -0.3727 -0.0631
 2369Sol     HW12482   2.355   2.252   8.352 -0.3922 -1.4712  2.6043
 2369Sol     HW12483   2.496   2.304   8.368 -0.3415  0.1447 -2.3232
 2369Sol     MW12484   2.441   2.234   8.372  0.0441  0.1803  0.0025
 2370Sol     OW12485   1.388   1.666   3.706 -0.0465 -0.0109  0.0600
 2370Sol     HW12486   1.351   1.610   3.638 -1.8318  1.7393 -0.4335
 2370Sol     HW12487   1.426   1.740   3.659 -1.2163  1.1629  0.9434
 2370Sol     MW12488   1.388   1.667   3.696  0.3324 -0.3286 -0.2439
 2371Sol     OW12489   1.424   0.100   4.379 -0.3760 -0.7191 -0.0606
 2371Sol     HW12490   1.345   0.066   4.422 -0.6742  1.5707  1.2674
 2371Sol     HW12491   1.495   0.047   4.416 -0.9337 -0.5566  1.2920
 2371Sol     MW12492   1.424   0.092   4.386  0.3560 -0.5789 -0.7583
 2372Sol     OW12493   1.958   0.171   6.304 -0.2644  0.3702 -0.3557
 2372Sol     HW12494   1.953   0.124   6.221 -0.1211  1.2261 -0.8603
 2372Sol     HW12495   1.878   0.149   6.350 -0.5677  0.2740 -0.9327
 2372Sol     MW12496   1.951   0.165   6.301  0.4674 -0.0802  0.2519
 2373Sol     OW12497   1.113   1.617   6.282 -0.4857  0.6576  0.1256
 2373Sol     HW12498   1.065   1.569   6.349 -0.0616  0.2553  0.1425
 2373Sol     HW12499   1.168   1.679   6.330  0.3990 -0.1695  0.1827
 2373Sol     MW12500   1.113   1.619   6.292 -0.0948 -0.0625 -0.0439
 2374Sol     OW12501   3.247   3.209   3.559 -0.2517 -0.6115 -0.2408
 2374Sol     HW12502   3.197   3.290   3.571  0.2917 -0.3827  0.4931
 2374Sol     HW12503   3.325   3.220   3.614 -0.5962 -1.9913  0.5415
 2374Sol     MW12504   3.250   3.217   3.565  0.0469 -0.2134 -0.8405
 2375Sol     OW12505   1.267   0.874   9.877 -0.4685 -0.0225  0.2216
 2375Sol     HW12506   1.280   0.969   9.885 -3.0248  0.4329 -0.5123
 2375Sol     HW12507   1.231   0.863   9.789 -3.8019 -1.2286  1.6710
 2375Sol     MW12508   1.265   0.882   9.870  0.1364  0.0357 -0.5195
 2376Sol     OW12509   0.609   1.197   4.552  0.8692  0.2573  0.3996
 2376Sol     HW12510   0.627   1.146   4.631  1.2152  0.3714  0.3947
 2376Sol     HW12511   0.559   1.272   4.582 -0.7165 -0.7078  0.2441
 2376Sol     MW12512   0.606   1.199   4.562 -0.0001  0.0752  0.1353
 2377Sol     OW12513   0.895   2.597   6.684  0.9952  0.0095  0.1785
 2377Sol     HW12514   0.850   2.617   6.602  0.2563 -1.5025  0.2027
 2377Sol     HW12515   0.893   2.501   6.690  0.4097  0.1290  2.3079
 2377Sol     MW12516   0.891   2.590   6.677  0.5933  0.3353  0.0140
 2378Sol     OW12517   2.626   2.524   2.666  0.0773  0.2382  0.6727
 2378Sol     HW12518   2.691   2.499   2.732  0.9248 -0.8737 -0.5450
 2378Sol     HW12519   2.544   2.486   2.697  0.4119 -0.0104  1.2510
 2378Sol     MW12520   2.625   2.518   2.674  0.0049 -0.1525  0.1179
 2379Sol     OW12521   2.653   0.620   7.251 -0.5962  0.0436 -0.0468
 2379Sol     HW12522   2.704   0.539   7.248 -0.0735  0.3144  1.3014
 2379Sol     HW12523   2.668   0.661   7.167  0.8116 -0.2467  0.0610
 2379Sol     MW12524   2.659   0.616   7.244  0.5230  0.0203 -0.3154
 2380Sol     OW12525   2.737   2.737   8.416  0.3449 -0.3890  0.0539
 2380Sol     HW12526   2.760   2.694   8.334  1.7060  0.4630 -0.0293
 2380Sol     HW12527   2.657   2.786   8.395  0.6324 -0.2490 -0.7549
 2380Sol     MW12528   2.732   2.738   8.406  0.4277  0.6638  0.1822
 2381Sol     OW12529   0.145   1.766   8.114 -0.0300 -0.9455 -0.2581
 2381Sol     HW12530   0.139   1.838   8.176 -1.0595 -1.2569  0.0185
 2381Sol     HW12531   0.124   1.688   8.166  2.5683 -1.6538 -0.1981
 2381Sol     MW12532   0.143   1.765   8.124  0.4512  0.4037 -0.4894
 2382Sol     OW12533   0.473   1.308   6.031  0.0998 -0.1036  0.1310
 2382Sol     HW12534   0.546   1.275   5.978  0.5823 -0.9534  1.3042
 2382Sol     HW12535   0.396   1.296   5.975  0.5851 -1.0942 -0.3366
 2382Sol     MW12536   0.472   1.304   6.021  0.1250 -0.3815  0.3499
 2383Sol     OW12537   2.346   2.401   5.581  0.0319  0.2836 -0.1733
 2383Sol     HW12538   2.392   2.387   5.664 -1.2608  0.2180  0.5451
 2383Sol     HW12539   2.383   2.483   5.547 -0.2760  0.9432  1.0530
 2383Sol     MW12540   2.354   2.407   5.586 -0.0160 -0.2733  0.4403
 2384Sol     OW12541   2.079   1.528   5.644 -0.1315  0.6448  0.5115
 2384Sol     HW12542   2.166   1.497   5.668 -1.1494 -1.5225  1.5068
 2384Sol     HW12543   2.063   1.602   5.702  1.1452  1.2572  0.1075
 2384Sol     MW12544   2.085   1.532   5.651  0.1555  0.5363  0.0703
 2385Sol     OW12545   2.909   1.331   2.653  0.1488 -0.0066  0.5100
 2385Sol     HW12546   2.939   1.303   2.740 -1.3427 -0.0920  1.0010
 2385Sol     HW12547   2.878   1.251   2.611 -1.5823  0.4532  0.8925
 2385Sol     MW12548   2.909   1.321   2.657  0.5049  0.5230  0.2739
 2386Sol     OW12549   0.341   3.043   4.108 -0.3220  0.1645 -0.4208
 2386Sol     HW12550   0.251   3.049   4.077 -0.2648  1.1889 -0.4056
 2386Sol     HW12551   0.391   3.099   4.048  0.3209 -0.5186 -0.5217
 2386Sol     MW12552   0.338   3.049   4.100  0.0384 -0.1888 -0.2063
 2387Sol     OW12553   0.844   0.850   7.857 -0.4649 -0.2488  0.1918
 2387Sol     HW12554   0.916   0.831   7.916  0.2199  2.7796  0.3943
 2387Sol     HW12555   0.883   0.847   7.769 -0.4959 -0.3805  0.1821
 2387Sol     MW12556   0.854   0.848   7.854 -0.5989  0.5216  0.3602
 2388Sol     OW12557   2.268   3.339   8.772  0.5162 -0.3585 -0.0680
 2388Sol     HW12558   2.352   3.384   8.782 -0.0008  0.4708  0.5816
 2388Sol     HW12559   2.210   3.404   8.735 -0.2188 -0.4983  0.8183
 2388Sol     MW12560   2.271   3.349   8.770 -0.0206 -0.0474 -0.4730
 2389Sol     OW12561   1.840   2.170   1.893  0.7681  0.0902  0.3106
 2389Sol     HW12562   1.840   2.241   1.957 -0.2842 -0.9118  1.4457
 2389Sol     HW12563   1.926   2.176   1.850  0.6147  2.1570  0.2517
 2389Sol     MW12564   1.848   2.177   1.895  0.1884 -0.0189  0.4906
 2390Sol     OW12565   1.366   2.353   5.996  0.0115  0.0502  0.0096
 2390Sol     HW12566   1.413   2.329   6.076  0.3588 -0.4793 -0.3574
 2390Sol     HW12567   1.274   2.338   6.018  0.1212 -0.2945  0.2415
 2390Sol     MW12568   1.362   2.350   6.005 -0.4208  0.2977 -0.2063
 2391Sol     OW12569   1.534   3.216   5.791 -0.2557 -0.2092  0.2767
 2391Sol     HW12570   1.526   3.295   5.844 -1.3128  0.5336 -0.9623
 2391Sol     HW12571   1.444   3.184   5.781  0.1125 -1.3218  0.3950
 2391Sol     MW12572   1.525   3.220   5.795  0.2080  0.2202 -0.3245
 2392Sol     OW12573   0.163   2.837   5.040 -0.1678 -0.7198  0.0336
 2392Sol     HW12574   0.206   2.919   5.013 -2.3361  1.3661  2.6163
 2392Sol     HW12575   0.231   2.770   5.031  1.5802  1.2898 -2.4397
 2392Sol     MW12576   0.173   2.839   5.037  0.2293 -0.3494  0.0930
 2393Sol     OW12577   0.034   1.680   9.185  0.2477 -0.0263  0.3868
 2393Sol     HW12578   0.058   1.721   9.268  1.5960  0.0790 -0.0354
 2393Sol     HW12579   0.116   1.678   9.135 -0.9861  1.8918 -1.8022
 2393Sol     MW12580   0.044   1.684   9.187 -0.1905 -0.0364 -0.0823
 2394Sol     OW12581   0.203   3.113   8.098  1.1006 -0.1113  0.2112
 2394Sol     HW12582   0.243   3.058   8.030  1.4986 -0.7124  0.9284
 2394Sol     HW12583   0.139   3.055   8.140 -0.4548  0.7903 -0.8301
 2394Sol     MW12584   0.201   3.103   8.096  0.2011  0.7973 -0.0570
 2395Sol     OW12585   1.139   2.700   7.366 -0.3162 -0.4352  0.1817
 2395Sol     HW12586   1.235   2.704   7.368 -0.3614  0.3062  1.2085
 2395Sol     HW12587   1.112   2.789   7.345 -0.7898 -0.5853  0.1470
 2395Sol     MW12588   1.145   2.708   7.364 -0.1559  0.0241 -0.3066
 2396Sol     OW12589   1.576   2.068   5.947  0.7356 -0.9070  0.0670
 2396Sol     HW12590   1.505   2.018   5.987  0.1030 -0.6607 -0.7434
 2396Sol     HW12591   1.602   2.131   6.014 -0.1255 -0.6845  0.1963
 2396Sol     MW12592   1.572   2.069   5.957 -0.7789 -0.0649  0.8766
 2397Sol     OW12593   1.290   2.026   8.701 -0.2195 -0.3789  0.8146
 2397Sol     HW12594   1.262   2.109   8.738  0.6532 -0.1069  0.8715
 2397Sol     HW12595   1.291   2.041   8.606  3.1662  0.7470  0.9461
 2397Sol     MW12596   1.288   2.035   8.696  0.8601 -0.4397  0.1942
 2398Sol     OW12597   0.650   1.932   2.218 -0.2517  0.1053 -0.5530
 2398Sol     HW12598   0.611   1.961   2.135 -1.1280 -2.8695 -1.2312
 2398Sol     HW12599   0.710   1.862   2.192 -1.4953 -1.7327  1.4706
 2398Sol     MW12600   0.652   1.929   2.208 -0.5371 -0.3437  0.8639
 2399Sol     OW12601   0.313   1.936   8.978  0.2933  0.2926  0.3746
 2399Sol     HW12602   0.285   1.854   9.019  1.9218 -0.9356 -0.9165
 2399Sol     HW12603   0.259   2.003   9.020 -1.1236 -1.4377  1.4003
 2399Sol     MW12604   0.305   1.935   8.986  0.8504  0.1062  0.6902
 2400Sol     OW12605   1.963   0.870   3.967  0.4675 -0.2317  0.1927
 2400Sol     HW12606   2.050   0.862   3.927  0.3420 -2.3015  0.2830
 2400Sol     HW12607   1.916   0.791   3.939 -1.2858  0.7195  0.4004
 2400Sol     MW12608   1.967   0.862   3.961  0.0791 -0.3934  0.5734
 2401Sol     OW12609   2.854   0.013   5.702  0.4446 -0.0575 -0.5172
 2401Sol     HW12610   2.786   0.080   5.699 -0.6696 -1.0418  1.4500
 2401Sol     HW12611   2.934   0.061   5.725 -0.0145  0.8150 -0.7200
 2401Sol     MW12612   2.855   0.023   5.704 -0.5973  0.0378  0.3450
 2402Sol     OW12613   0.307   1.280   5.796 -0.5785 -0.0591 -0.0197
 2402Sol     HW12614   0.212   1.294   5.801 -0.3240  2.3459 -1.1250
 2402Sol     HW12615   0.339   1.351   5.740  2.2790  0.9911  2.7783
 2402Sol     MW12616   0.301   1.288   5.791  0.0931 -0.4455  0.4235
 2403Sol     OW12617   1.340   1.797   4.115 -0.2637 -0.1610 -0.2756
 2403Sol     HW12618   1.430   1.778   4.089  0.4065 -0.6924  2.2790
 2403Sol     HW12619   1.346   1.881   4.162 -1.3142  0.4099 -1.1344
 2403Sol     MW12620   1.349   1.803   4.117  0.3143  0.0634  0.2566
 2404Sol     OW12621   2.598   1.715   3.287 -0.8760  0.0226 -0.0645
 2404Sol     HW12622   2.616   1.634   3.334 -0.5306 -0.4141 -0.9426
 2404Sol     HW12623   2.567   1.686   3.201 -0.7968  0.8238 -0.3651
 2404Sol     MW12624   2.596   1.705   3.283 -0.5237 -0.1915  0.3745
 2405Sol     OW12625   3.046   3.056   6.295  0.0108  0.6987 -0.1432
 2405Sol     HW12626   3.074   2.971   6.261  1.9514  1.5588 -0.6939
 2405Sol     HW12627   3.055   3.117   6.222  0.5087  1.7858  0.8091
 2405Sol     MW12628   3.049   3.054   6.286  0.4285 -0.3560 -0.0506
 2406Sol     OW12629   0.366   1.894   3.256 -0.2374  0.2015 -0.0947
 2406Sol     HW12630   0.432   1.881   3.324  0.6250  1.0356 -0.7729
 2406Sol     HW12631   0.358   1.808   3.214  1.8653  0.5650 -1.3106
 2406Sol     MW12632   0.371   1.885   3.258 -0.2748 -0.1131 -0.0147
 2407Sol     OW12633   2.433   0.297   9.343  0.0048  0.2111 -0.1612
 2407Sol     HW12634   2.416   0.366   9.408  0.3810  0.0235  0.1423
 2407Sol     HW12635   2.395   0.218   9.382 -0.3706  0.2324 -0.4810
 2407Sol     MW12636   2.428   0.296   9.353 -0.2360 -0.1132 -0.3970
 2408Sol     OW12637   1.639   0.997   6.022  0.2159 -0.4338 -0.2196
 2408Sol     HW12638   1.702   0.949   5.968 -0.3438 -0.9104 -0.4533
 2408Sol     HW12639   1.586   0.929   6.063  0.0704 -0.0444  0.2495
 2408Sol     MW12640   1.640   0.987   6.021  0.2225  0.0081 -1.1066
 2409Sol     OW12641   2.406   0.023   2.735 -0.3398 -0.3082 -0.2055
 2409Sol     HW12642   2.471   0.032   2.665 -1.1081 -1.9986 -1.1770
 2409Sol     HW12643   2.346   0.096   2.721 -0.5432 -0.6938 -1.3847
 2409Sol     MW12644   2.407   0.031   2.727 -0.4800  0.2198 -0.3134
 2410Sol     OW12645   0.215   3.112   5.313  0.1108 -0.1858  0.2120
 2410Sol     HW12646   0.185   3.022   5.296 -0.2985 -0.0129  0.0230
 2410Sol     HW12647   0.146   3.150   5.368  0.5772 -0.1781  0.8000
 2410Sol     MW12648   0.206   3.107   5.317 -0.2093  0.1339  0.1936
 2411Sol     OW12649   3.127   0.417   7.287  0.1068 -0.0114  0.1474
 2411Sol     HW12650   3.065   0.350   7.312 -0.1214  0.5915  1.2277
 2411Sol     HW12651   3.084   0.500   7.310  0.6402  0.4776 -0.5770
 2411Sol     MW12652   3.118   0.419   7.291 -0.3902 -0.2853 -0.5951
 2412Sol     OW12653   1.345   3.063   5.685 -0.3626 -0.1854  0.4549
 2412Sol     HW12654   1.315   3.009   5.758 -2.1958 -0.2036 -0.2810
 2412Sol     HW12655   1.367   3.000   5.616  0.3699 -0.1269  0.6398
 2412Sol     MW12656   1.344   3.052   5.685 -0.3397  0.1684 -0.1926
 2413Sol     OW12657   3.116   1.065   4.906  0.3385 -0.3334  0.2805
 2413Sol     HW12658   3.211   1.052   4.899  0.5265  0.8245  0.6034
 2413Sol     HW12659   3.095   1.127   4.836  0.1129  0.8635  1.4010
 2413Sol     MW12660   3.123   1.069   4.899 -0.4580 -0.2640 -0.4825
 2414Sol     OW12661   0.719   0.590   4.061 -0.3962  0.0968  0.4953
 2414Sol     HW12662   0.626   0.568   4.048 -0.0710 -0.6870 -0.5827
 2414Sol     HW12663   0.759   0.508   4.091 -0.1619  0.5937  1.5671
 2414Sol     MW12664   0.714   0.581   4.062 -0.0468  0.0121 -0.1174
 2415Sol     OW12665   2.087   2.445   5.467  0.5752  0.5533  1.1476
 2415Sol     HW12666   2.124   2.440   5.379  1.2354 -1.6772  1.5143
 2415Sol     HW12667   2.162   2.461   5.524  0.0584  2.7245  1.2702
 2415Sol     MW12668   2.097   2.446   5.464  0.4630 -0.1480 -0.3117
 2416Sol     OW12669   1.683   3.349   6.568 -0.1208  0.1396  0.0695
 2416Sol     HW12670   1.747   3.353   6.638  2.6971  0.3709 -2.4381
 2416Sol     HW12671   1.681   3.257   6.542 -0.3443  0.2447 -0.2945
 2416Sol     MW12672   1.688   3.341   6.572 -0.3698  0.4339  0.2632
 2417Sol     OW12673   2.376   0.545   6.644  0.0193  0.6363  0.3091
 2417Sol     HW12674   2.351   0.498   6.724 -0.6057  0.9417  0.2915
 2417Sol     HW12675   2.295   0.553   6.594  0.5269 -0.0581 -0.6241
 2417Sol     MW12676   2.367   0.542   6.647  0.2875  0.4061  1.3201
 2418Sol     OW12677   2.345   1.885   6.915  0.5174 -0.1437 -0.3955
 2418Sol     HW12678   2.342   1.981   6.910 -0.4840 -0.0543  1.3476
 2418Sol     HW12679   2.282   1.863   6.984 -0.0736 -2.1344 -1.5332
 2418Sol     MW12680   2.339   1.892   6.921 -0.1017  0.4582 -0.3902
 2419Sol     OW12681   2.252   0.895   9.947  0.0750  1.1943  0.1276
 2419Sol     HW12682   2.263   0.985   9.917 -0.4464  0.9885 -0.6783
 2419Sol     HW12683   2.192   0.856   9.884 -0.6455  0.6309  1.1529
 2419Sol     MW12684   2.247   0.900   9.939 -0.1873 -0.1705 -0.4950
 2420Sol     OW12685   2.641   2.621   5.295 -0.0177 -0.1786 -0.1712
 2420Sol     HW12686   2.664   2.658   5.210 -0.3626 -0.1763 -0.2635
 2420Sol     HW12687   2.696   2.542   5.302 -0.6702 -0.6927 -0.8039
 2420Sol     MW12688   2.648   2.617   5.288  0.5225  0.5341  0.4704
 2421Sol     OW12689   2.848   2.844   3.551  0.0403  0.3892 -0.0655
 2421Sol     HW12690   2.868   2.810   3.638 -0.0053 -0.5287 -0.3965
 2421Sol     HW12691   2.796   2.923   3.566  1.6621  1.3153  0.7656
 2421Sol     MW12692   2.845   2.848   3.560 -0.7550  0.0172 -0.1303
 2422Sol     OW12693   0.728   2.779   4.116 -0.1337 -0.1818  0.3337
 2422Sol     HW12694   0.636   2.773   4.091  0.1959 -1.4001 -0.6148
 2422Sol     HW12695   0.754   2.868   4.091 -0.6658 -0.3253 -0.7613
 2422Sol     MW12696   0.723   2.787   4.112 -0.0027  0.7775  0.4499
 2423Sol     OW12697   2.392   0.825   2.372 -0.3475 -0.2866 -0.2522
 2423Sol     HW12698   2.405   0.746   2.320  1.1148 -0.5181  0.4106
 2423Sol     HW12699   2.479   0.865   2.375 -0.9732  1.0636 -0.1401
 2423Sol     MW12700   2.401   0.821   2.368 -0.4083  0.1786 -0.2860
 2424Sol     OW12701   2.148   1.757   7.289 -0.1538 -0.0223 -0.0584
 2424Sol     HW12702   2.242   1.766   7.302 -0.5330  2.9913  0.9391
 2424Sol     HW12703   2.134   1.784   7.198  0.1671 -2.7733 -0.9927
 2424Sol     MW12704   2.155   1.760   7.282 -0.4351 -0.5971  0.4053
 2425Sol     OW12705   3.031   2.904   5.514 -0.2327 -0.5593 -0.2128
 2425Sol     HW12706   2.941   2.870   5.510 -0.2352 -0.3749 -2.2359
 2425Sol     HW12707   3.028   2.970   5.584 -1.4746 -1.0762  0.2490
 2425Sol     MW12708   3.023   2.907   5.520  0.2808 -0.0709  0.4247
 2426Sol     OW12709   1.182   0.734   5.199 -0.4487  0.4166 -0.2498
 2426Sol     HW12710   1.239   0.745   5.274 -0.9230  0.1763  0.1490
 2426Sol     HW12711   1.237   0.690   5.133 -0.2837 -0.1628  0.2659
 2426Sol     MW12712   1.192   0.731   5.200 -0.1767  0.0217 -0.4475
 2427Sol     OW12713   1.183   3.184   3.081 -0.1472 -0.6507  0.1902
 2427Sol     HW12714   1.253   3.126   3.051 -0.5610 -0.4375 -1.2238
 2427Sol     HW12715   1.102   3.138   3.060 -0.4609  0.0416 -0.1537
 2427Sol     MW12716   1.182   3.175   3.076 -0.1194 -0.1799 -0.7611
 2428Sol     OW12717   1.892   0.052   4.882  0.3521 -0.3547 -0.0420
 2428Sol     HW12718   1.811   0.004   4.861 -0.7545  0.2314  2.7200
 2428Sol     HW12719   1.873   0.143   4.859  0.6536 -0.3967 -0.4727
 2428Sol     MW12720   1.883   0.056   4.878 -0.0775 -0.0978 -0.0698
 2429Sol     OW12721   0.674   0.666   3.130 -0.6626 -0.5986  0.4248
 2429Sol     HW12722   0.581   0.690   3.130 -0.8300 -1.2235  1.4655
 2429Sol     HW12723   0.717   0.735   3.079 -1.8003 -0.7117 -0.7079
 2429Sol     MW12724   0.670   0.674   3.125 -0.6121  0.4341 -0.2699
 2430Sol     OW12725   1.487   1.202   1.632  0.2425  0.3431  0.0399
 2430Sol     HW12726   1.578   1.181   1.609 -0.0294 -1.9199  0.8619
 2430Sol     HW12727   1.490   1.220   1.726  0.1674  2.4426 -0.3272
 2430Sol     MW12728   1.496   1.202   1.639  0.2537 -0.4715  0.4467
 2431Sol     OW12729   2.143   3.226   8.322 -0.6501 -0.0280 -0.0051
 2431Sol     HW12730   2.097   3.155   8.276 -1.0896  1.0177 -1.2197
 2431Sol     HW12731   2.089   3.245   8.398 -1.2058 -0.1319 -0.3739
 2431Sol     MW12732   2.134   3.221   8.325 -0.7420 -0.3425 -0.8214
 2432Sol     OW12733   2.528   2.892   8.375 -0.2630  0.1632 -0.1871
 2432Sol     HW12734   2.558   2.966   8.428 -1.5814  1.7264 -1.5861
 2432Sol     HW12735   2.434   2.888   8.389 -0.5509  0.2718 -2.0060
 2432Sol     MW12736   2.523   2.898   8.381 -0.5637  0.7570  0.0687
 2433Sol     OW12737   1.448   0.838   7.688  0.0604  0.3240  0.3288
 2433Sol     HW12738   1.447   0.777   7.614  0.1502  2.1533 -1.2253
 2433Sol     HW12739   1.506   0.798   7.752 -0.5403 -1.6074 -0.3070
 2433Sol     MW12740   1.453   0.829   7.687 -0.0080  0.2135 -0.4732
 2434Sol     OW12741   1.207   2.159   4.554 -0.5060 -0.1883 -0.0729
 2434Sol     HW12742   1.271   2.094   4.526 -0.6655  0.8206 -2.9629
 2434Sol     HW12743   1.132   2.107   4.584  0.4709 -1.3472  0.3971
 2434Sol     MW12744   1.206   2.148   4.554  0.7730 -0.2205 -0.4278
 2435Sol     OW12745   0.001   3.428   3.029  0.7479 -0.3958 -0.2092
 2435Sol     HW12746   0.097   3.431   3.021  0.6536  2.7027 -0.7684
 2435Sol     HW12747  -0.015   3.418   3.123  1.6287  0.8389  0.0858
 2435Sol     MW12748   0.008   3.427   3.037 -0.0104 -0.3373  0.4429
 2436Sol     OW12749   2.921   0.356   5.720 -0.2720 -0.0938 -0.0563
 2436Sol     HW12750   2.991   0.404   5.675 -1.1011 -0.1112 -1.4126
 2436Sol     HW12751   2.965   0.280   5.759  0.7832  0.9229  0.7546
 2436Sol     MW12752   2.931   0.353   5.719  0.5822  0.3469 -0.2438
 2437Sol     OW12753   3.295   2.666   4.594 -0.1371 -0.0935 -0.2982
 2437Sol     HW12754   3.351   2.735   4.630 -1.0052  0.1161  0.6877
 2437Sol     HW12755   3.212   2.677   4.640 -0.3711 -1.6265 -0.3452
 2437Sol     MW12756   3.292   2.673   4.602  0.7657  0.0351 -0.2260
 2438Sol     OW12757   0.625   3.337   3.960 -0.1218 -0.1611 -0.0108
 2438Sol     HW12758   0.536   3.355   3.928  0.0385  0.7244  0.0349
 2438Sol     HW12759   0.663   3.279   3.895 -0.7980 -0.6772  0.0541
 2438Sol     MW12760   0.620   3.334   3.952 -0.4139  0.2691 -0.2581
 2439Sol     OW12761   1.329   1.727   2.104  0.1825  0.3689  0.0062
 2439Sol     HW12762   1.410   1.776   2.116  0.4269  0.1812 -0.8486
 2439Sol     HW12763   1.321   1.717   2.009  1.0387 -2.7660  0.2216
 2439Sol     MW12764   1.335   1.731   2.097  0.8573 -0.1470 -0.4433
 2440Sol     OW12765   2.984   2.221   1.938  0.9589  0.5431  0.2533
 2440Sol     HW12766   2.991   2.264   1.852  0.5192  0.7467  0.3140
 2440Sol     HW12767   2.890   2.205   1.948  1.1133 -0.3127  0.2952
 2440Sol     MW12768   2.976   2.224   1.931  0.4205 -0.1964  0.4156
 2441Sol     OW12769   2.694   2.727   1.572 -0.1409 -0.3107 -0.0539
 2441Sol     HW12770   2.683   2.792   1.641 -0.5802 -1.3724  0.8785
 2441Sol     HW12771   2.605   2.702   1.548  0.0491 -1.5959  0.5627
 2441Sol     MW12772   2.685   2.731   1.576  0.0143 -0.3737 -0.0999
 2442Sol     OW12773   3.056   3.414   2.628 -0.2144 -0.1397 -0.0743
 2442Sol     HW12774   3.112   3.491   2.636  0.1311 -0.2677 -1.1198
 2442Sol     HW12775   3.085   3.356   2.699  1.8481 -0.7187 -1.3275
 2442Sol     MW12776   3.064   3.415   2.635 -0.2591  0.4308 -0.6183
 2443Sol     OW12777   0.196   1.350   8.846  0.2461 -0.4725  0.1825
 2443Sol     HW12778   0.191   1.308   8.932 -0.8741  1.2970  1.0178
 2443Sol     HW12779   0.288   1.344   8.822  0.6996 -0.3712  1.8173
 2443Sol     MW12780   0.204   1.345   8.852  0.0308 -0.0503 -0.0546
 2444Sol     OW12781   1.062   2.623   7.788  0.3571 -0.1838  0.5955
 2444Sol     HW12782   1.029   2.590   7.705 -0.3825  0.1470  0.7524
 2444Sol     HW12783   1.017   2.571   7.855 -0.6143  0.9524  0.8364
 2444Sol     MW12784   1.055   2.615   7.787 -0.2340  0.1009  0.2640
 2445Sol     OW12785   0.978   2.092   9.132 -0.6446  0.0079  0.3530
 2445Sol     HW12786   1.006   2.014   9.084 -1.4290 -0.2130  0.2475
 2445Sol     HW12787   1.051   2.153   9.123  0.1649 -0.8678  0.8114
 2445Sol     MW12788   0.987   2.090   9.127  0.4819 -0.5108 -0.3402
 2446Sol     OW12789   0.218   2.032   5.882  0.3581  0.4376  0.4453
 2446Sol     HW12790   0.201   1.948   5.840 -0.7026  1.2471 -0.7808
 2446Sol     HW12791   0.145   2.043   5.944  0.9298  0.0990  1.1942
 2446Sol     MW12792   0.210   2.025   5.884  0.7506 -0.8508 -0.5266
 2447Sol     OW12793   0.927   1.145   4.707 -0.4424  0.1129 -0.1696
 2447Sol     HW12794   0.931   1.107   4.619 -0.2624 -0.3589  0.0434
 2447Sol     HW12795   0.925   1.070   4.765 -0.4538  0.4291  0.2371
 2447Sol     MW12796   0.927   1.135   4.704 -0.3598 -0.6866  0.2931
 2448Sol     OW12797   2.221   0.542   5.554 -0.3779  0.1334  1.1959
 2448Sol     HW12798   2.238   0.455   5.590  0.8375  0.4153  1.3338
 2448Sol     HW12799   2.183   0.591   5.627  0.5646  0.2249  1.6378
 2448Sol     MW12800   2.219   0.539   5.564  0.0494  0.6884  0.2168
 2449Sol     OW12801   3.265   0.050   5.075 -0.4142 -0.5896 -0.3843
 2449Sol     HW12802   3.272   0.087   5.163 -0.2410 -1.9360  0.1768
 2449Sol     HW12803   3.318   0.109   5.021  0.6924 -0.5870  0.6770
 2449Sol     MW12804   3.271   0.059   5.078 -0.3654 -0.0089  0.7892
 2450Sol     OW12805   0.383   1.350   9.362 -0.3098  0.3335  0.0851
 2450Sol     HW12806   0.432   1.268   9.364  0.4001  0.7521  0.2192
 2450Sol     HW12807   0.299   1.329   9.402 -0.4256 -0.5149 -0.5844
 2450Sol     MW12808   0.380   1.341   9.366  0.1775  0.6955 -0.7919
 2451Sol     OW12809   0.016   3.022   8.737  0.1430  0.5265 -0.2874
 2451Sol     HW12810   0.040   3.067   8.818 -1.1340  0.8664 -0.0889
 2451Sol     HW12811  -0.065   2.976   8.758  1.6491 -2.2490 -0.3760
 2451Sol     MW12812   0.011   3.022   8.746 -0.0099  0.5466  0.4345
 2452Sol     OW12813   0.639   1.043   4.315  0.0069  0.3096 -0.3638
 2452Sol     HW12814   0.733   1.060   4.310  0.0759  0.1666  0.3911
 2452Sol     HW12815   0.606   1.107   4.377 -0.3709  0.2455 -0.4942
 2452Sol     MW12816   0.644   1.050   4.320  0.5850 -0.3010 -0.0211
 2453Sol     OW12817   3.227   0.792   4.748  0.4883  0.1691  0.0625
 2453Sol     HW12818   3.222   0.785   4.844 -0.6949  1.6215  0.1357
 2453Sol     HW12819   3.141   0.762   4.718  0.2695  1.2652 -0.4251
 2453Sol     MW12820   3.219   0.789   4.754  0.4948 -0.3612 -0.4042
 2454Sol     OW12821   2.939   1.026   8.406 -0.5420 -0.2206  0.0360
 2454Sol     HW12822   2.993   1.099   8.376 -1.0353 -0.0730 -0.4928
 2454Sol     HW12823   2.978   0.949   8.365 -0.1427 -0.2327  0.4362
 2454Sol     MW12824   2.947   1.025   8.400 -0.6273  0.2349  0.3679
 2455Sol     OW12825   3.211   1.014   4.568 -0.0975  0.0515 -0.0748
 2455Sol     HW12826   3.300   1.042   4.585 -0.2471  0.1834  0.5002
 2455Sol     HW12827   3.208   0.923   4.598 -0.3171  0.2338  0.4687
 2455Sol     MW12828   3.218   1.008   4.572  0.3147  0.8815  0.5140
 2456Sol     OW12829   1.212   1.802   3.863  0.4624  0.4890 -0.4833
 2456Sol     HW12830   1.257   1.805   3.948 -1.4631  0.9317  0.5599
 2456Sol     HW12831   1.252   1.729   3.817  1.8231  0.4928  0.6480
 2456Sol     MW12832   1.219   1.796   3.867 -0.2274 -0.1457  0.5974
 2457Sol     OW12833   2.018   3.154   6.593 -0.6606  0.2524 -0.1120
 2457Sol     HW12834   1.953   3.100   6.547 -2.8631  1.0842  1.9141
 2457Sol     HW12835   2.033   3.229   6.536 -1.3784 -0.0293 -0.6711
 2457Sol     MW12836   2.013   3.156   6.584  0.0500  0.6857 -0.0400
 2458Sol     OW12837   2.120   2.187   2.521  0.2112  0.0835  0.2096
 2458Sol     HW12838   2.117   2.247   2.445  0.1166  0.4675  0.5147
 2458Sol     HW12839   2.058   2.117   2.498  0.0669  0.2785 -0.0036
 2458Sol     MW12840   2.114   2.186   2.512  0.6963  0.6189  0.0500
 2459Sol     OW12841   1.407   0.946   3.122 -0.0833 -0.0996 -0.1115
 2459Sol     HW12842   1.426   0.858   3.088  0.5391  1.1359 -3.0892
 2459Sol     HW12843   1.485   0.997   3.102 -0.5275  1.2142  1.4047
 2459Sol     MW12844   1.415   0.943   3.117 -0.0770  0.4299  0.1541
 2460Sol     OW12845   1.513   0.744   9.907  0.0530  0.2817  0.4370
 2460Sol     HW12846   1.439   0.803   9.921 -0.7059 -0.4543 -0.3736
 2460Sol     HW12847   1.488   0.662   9.949 -0.4419 -0.5811 -1.4441
 2460Sol     MW12848   1.504   0.742   9.912  0.1716 -0.2749  0.5337
 2461Sol     OW12849   0.423   3.010   2.634 -0.0495  0.1862  0.5109
 2461Sol     HW12850   0.408   2.946   2.704  1.7757 -0.4744  0.3285
 2461Sol     HW12851   0.497   3.062   2.665  0.9367 -0.2741 -1.0291
 2461Sol     MW12852   0.429   3.009   2.643  0.6032 -1.0390 -0.1231
 2462Sol     OW12853   2.234   2.747   1.320 -0.1655 -0.7114  0.4257
 2462Sol     HW12854   2.178   2.697   1.260  0.6908  0.1634 -1.1501
 2462Sol     HW12855   2.175   2.806   1.365 -0.4380  0.9171 -1.9499
 2462Sol     MW12856   2.224   2.748   1.318 -0.2487  0.0200  0.9628
 2463Sol     OW12857   2.957   0.703   9.121  0.0322 -0.2461 -0.1167
 2463Sol     HW12858   2.869   0.720   9.087  0.6143  1.6926 -0.7430
 2463Sol     HW12859   2.944   0.683   9.213 -1.2543 -2.1146 -0.6821
 2463Sol     MW12860   2.948   0.703   9.126 -0.0063  0.4994  0.0198
 2464Sol     OW12861   2.404   3.426   1.697 -0.4587  0.0471  0.1367
 2464Sol     HW12862   2.472   3.445   1.762 -1.0723 -0.3078  0.8839
 2464Sol     HW12863   2.428   3.480   1.621  0.1005  0.6836  0.7554
 2464Sol     MW12864   2.412   3.433   1.696 -0.0498  0.3645 -0.3504
 2465Sol     OW12865   0.444   2.006   3.781 -0.5788  0.1003  0.3974
 2465Sol     HW12866   0.406   2.088   3.812  1.8135  0.8148  1.5833
 2465Sol     HW12867   0.471   1.961   3.861  0.4600 -0.6760 -0.3760
 2465Sol     MW12868   0.443   2.009   3.791 -0.2595  0.1425  0.1387
 2466Sol     OW12869   1.968   2.337   8.616 -0.2119 -0.2157  0.1947
 2466Sol     HW12870   1.975   2.425   8.653 -0.9343 -0.5485  1.1251
 2466Sol     HW12871   2.045   2.329   8.559 -1.0979  1.6928 -1.3550
 2466Sol     MW12872   1.976   2.344   8.614  0.1208  0.2799  0.3948
 2467Sol     OW12873   1.375   0.989   6.544 -0.1204  0.1471 -0.2192
 2467Sol     HW12874   1.369   1.085   6.539  1.3477  0.3250  0.8876
 2467Sol     HW12875   1.373   0.960   6.453  0.4403  1.3084 -0.6153
 2467Sol     MW12876   1.375   0.995   6.536 -0.4802 -0.3621  0.0020
 2468Sol     OW12877   2.725   1.608   9.213 -0.2265  0.2471  0.4202
 2468Sol     HW12878   2.812   1.569   9.211  0.1334  1.0739 -0.6530
 2468Sol     HW12879   2.740   1.700   9.189 -1.2988  0.5689  0.9668
 2468Sol     MW12880   2.734   1.613   9.211  0.1394  0.2682  0.2456
 2469Sol     OW12881   0.116   1.732   7.835  0.2435  0.0105 -0.6582
 2469Sol     HW12882   0.202   1.690   7.830 -0.0660 -0.7973  0.7413
 2469Sol     HW12883   0.109   1.762   7.926 -1.5757 -1.2517 -0.3650
 2469Sol     MW12884   0.123   1.731   7.843  0.7997  0.0650  0.5886
 2470Sol     OW12885   2.108   2.164   6.550 -0.4992 -0.3909 -0.0194
 2470Sol     HW12886   2.137   2.203   6.468  2.2788 -2.1344  0.0596
 2470Sol     HW12887   2.186   2.167   6.607 -1.9111 -0.6787  1.9715
 2470Sol     MW12888   2.118   2.168   6.548  0.5485  0.7498  0.3440
 2471Sol     OW12889   1.257   2.375   4.351  0.2532  0.4138 -0.0280
 2471Sol     HW12890   1.320   2.344   4.287 -0.4865 -1.1765 -0.0103
 2471Sol     HW12891   1.235   2.298   4.403 -1.5179  0.9918  0.1184
 2471Sol     MW12892   1.261   2.365   4.350 -0.1983 -0.9409 -0.0346
 2472Sol     OW12893   1.292   3.411   3.813  0.2719  0.4064  0.1583
 2472Sol     HW12894   1.229   3.444   3.876 -0.6514 -0.2852 -0.3853
 2472Sol     HW12895   1.377   3.438   3.847 -0.1723 -0.3834  1.9494
 2472Sol     MW12896   1.294   3.416   3.822  0.3048 -0.0155 -0.0623
 2473Sol     OW12897   2.101   1.620   8.109 -0.3194 -0.1978  0.4602
 2473Sol     HW12898   2.125   1.529   8.092 -1.7395 -0.5360  0.1681
 2473Sol     HW12899   2.026   1.637   8.051  0.4441  1.4124 -0.0868
 2473Sol     MW12900   2.096   1.614   8.103 -0.3657  0.4020  0.3397
 2474Sol     OW12901   0.348   1.656   3.115 -0.3404  0.8550  0.0100
 2474Sol     HW12902   0.287   1.641   3.043  1.7014 -2.1995 -1.1550
 2474Sol     HW12903   0.432   1.676   3.073  0.3471  1.3715  1.5764
 2474Sol     MW12904   0.350   1.657   3.105 -0.0731  0.4602  0.3703
 2475Sol     OW12905   2.905   1.302   6.910  0.3090 -0.0779  0.3759
 2475Sol     HW12906   2.903   1.301   7.006  1.9806 -0.1776  0.4298
 2475Sol     HW12907   2.838   1.365   6.885 -0.9315 -0.8931  1.5763
 2475Sol     MW12908   2.899   1.307   6.916  0.2925  0.7335 -0.2444
 2476Sol     OW12909   1.377   0.169   5.108  0.1988 -0.1678  0.5976
 2476Sol     HW12910   1.365   0.258   5.141 -3.0344 -0.4714  0.3976
 2476Sol     HW12911   1.405   0.119   5.185 -0.0188  0.6087  1.1858
 2476Sol     MW12912   1.379   0.172   5.118 -0.2417 -0.3968  0.2928
 2477Sol     OW12913   2.031   1.755   2.596  1.2276 -0.0904  0.1651
 2477Sol     HW12914   1.997   1.667   2.607  0.1238  0.2422 -0.5250
 2477Sol     HW12915   2.107   1.744   2.538  1.0063 -0.5708 -0.0356
 2477Sol     MW12916   2.035   1.746   2.592  1.1089 -0.7931  0.4002
 2478Sol     OW12917   1.918   0.073   7.295  0.3279 -0.2175 -0.9217
 2478Sol     HW12918   1.999   0.058   7.343  0.3638 -0.7267 -1.1409
 2478Sol     HW12919   1.912  -0.001   7.234  1.4279  1.5273 -3.2409
 2478Sol     MW12920   1.924   0.065   7.293  1.1445 -0.3046 -1.0356
 2479Sol     OW12921   0.952   2.078   4.635 -0.1652  0.0141 -0.1616
 2479Sol     HW12922   0.915   1.990   4.626  0.6009 -0.4743  1.2098
 2479Sol     HW12923   0.897   2.133   4.580 -0.4853 -1.3758 -1.2526
 2479Sol     MW12924   0.944   2.075   4.630  0.0493 -0.1450 -0.6434
 2480Sol     OW12925   2.155   2.907   1.763 -0.4349  0.0419  0.0056
 2480Sol     HW12926   2.150   2.817   1.731 -1.3122  0.1201 -0.0901
 2480Sol     HW12927   2.190   2.958   1.689 -0.2846 -0.1564 -0.0599
 2480Sol     MW12928   2.158   2.904   1.754  0.2091 -0.2534  0.0295
 2481Sol     OW12929   2.032   1.192   6.217 -0.4212  0.3077 -0.1571
 2481Sol     HW12930   2.063   1.282   6.217 -1.1645  0.5723 -0.2700
 2481Sol     HW12931   1.978   1.185   6.138 -0.3140 -0.2536 -0.1848
 2481Sol     MW12932   2.030   1.200   6.210  0.1933 -0.2734 -0.1067
 2482Sol     OW12933   1.062   1.323   3.116  0.3634 -0.0765  0.5006
 2482Sol     HW12934   1.115   1.401   3.131  0.8165 -0.2372 -0.2226
 2482Sol     HW12935   1.120   1.250   3.139 -0.4070 -0.1783  2.2064
 2482Sol     MW12936   1.072   1.323   3.119  0.3363 -0.0317 -0.6133
 2483Sol     OW12937   0.566   0.807   3.845  0.3981 -0.4274  0.2390
 2483Sol     HW12938   0.583   0.742   3.777  2.4787 -1.3074  1.5417
 2483Sol     HW12939   0.541   0.755   3.922  1.5914  0.3074  1.1437
 2483Sol     MW12940   0.566   0.796   3.846 -0.2819 -0.8951 -0.4852
 2484Sol     OW12941   1.583   2.601   9.571 -0.8189 -0.0016 -0.3134
 2484Sol     HW12942   1.552   2.673   9.516  0.6251  0.5863 -0.3718
 2484Sol     HW12943   1.503   2.559   9.603 -1.6869  1.9212  0.1008
 2484Sol     MW12944   1.573   2.604   9.569 -0.3233  1.2143  0.4580
 2485Sol     OW12945   3.182   1.014   2.797  0.2795  0.4688 -0.2889
 2485Sol     HW12946   3.093   1.014   2.761 -0.2383 -0.2640  0.9643
 2485Sol     HW12947   3.175   1.061   2.880  0.9494 -0.0314  0.0613
 2485Sol     MW12948   3.174   1.018   2.801 -0.1358  0.8514  0.2882
 2486Sol     OW12949   1.058   3.295   6.993 -0.3803 -0.1720  0.5036
 2486Sol     HW12950   1.017   3.213   6.966 -1.0430  0.5099 -0.6169
 2486Sol     HW12951   1.119   3.270   7.062  0.3675 -1.7825 -0.7167
 2486Sol     MW12952   1.059   3.285   6.997  0.6106  1.0289 -0.2636
 2487Sol     OW12953   1.152   1.839   7.965 -0.2900  0.3128  0.2099
 2487Sol     HW12954   1.222   1.870   7.907  0.7969 -0.3051  1.1874
 2487Sol     HW12955   1.097   1.785   7.909 -0.3337  1.2856 -0.7074
 2487Sol     MW12956   1.153   1.837   7.955 -0.2839  0.0523 -0.2086
 2488Sol     OW12957   2.401   0.018   7.217  0.4612 -0.3378 -0.8543
 2488Sol     HW12958   2.395  -0.078   7.217  1.3210 -0.4124  1.1954
 2488Sol     HW12959   2.489   0.037   7.247 -0.8595  1.1148  2.3049
 2488Sol     MW12960   2.408   0.011   7.219 -0.0509 -0.3301 -0.1220
 2489Sol     OW12961   0.648   1.776   1.653  0.2952 -0.1928  0.1522
 2489Sol     HW12962   0.583   1.844   1.671  0.2185 -0.3809  0.5878
 2489Sol     HW12963   0.729   1.823   1.639  0.0444  0.0525 -0.4967
 2489Sol     MW12964   0.649   1.786   1.653  0.0719  0.0761  0.5240
 2490Sol     OW12965   0.237   1.065   8.624  0.1667 -0.6063 -0.1680
 2490Sol     HW12966   0.296   1.066   8.699  0.6583 -0.5491 -0.5548
 2490Sol     HW12967   0.266   1.138   8.569 -0.0927 -0.7456 -0.4927
 2490Sol     MW12968   0.245   1.072   8.626 -0.3433 -1.0593 -0.3374
 2491Sol     OW12969   1.863   1.934   8.055 -0.5540 -0.0190 -0.2020
 2491Sol     HW12970   1.894   1.989   8.127  2.0838 -1.6243 -0.0275
 2491Sol     HW12971   1.825   1.858   8.098  1.1219 -1.0316 -0.4470
 2491Sol     MW12972   1.862   1.932   8.065 -0.1510  0.1799 -0.4679
 2492Sol     OW12973   1.365   0.238   5.487 -0.3075  0.0919 -0.3754
 2492Sol     HW12974   1.420   0.317   5.491  0.1201 -0.2535  0.9453
 2492Sol     HW12975   1.286   0.266   5.442 -1.1578  1.9189  2.1261
 2492Sol     MW12976   1.363   0.248   5.484  0.0791  0.4456  0.3117
 2493Sol     OW12977   2.972   0.892   3.114  0.0679 -0.4057 -0.0517
 2493Sol     HW12978   3.004   0.844   3.190  0.2385  0.8924  0.7117
 2493Sol     HW12979   3.043   0.952   3.091 -0.2750 -0.2670 -0.7653
 2493Sol     MW12980   2.981   0.893   3.118 -0.0722  0.2090  0.1662
 2494Sol     OW12981   2.168   0.524   3.497  0.5510 -0.2529  0.0052
 2494Sol     HW12982   2.231   0.541   3.427  1.4162  1.1187  1.1130
 2494Sol     HW12983   2.087   0.498   3.451  2.0489 -2.6155 -1.4156
 2494Sol     MW12984   2.166   0.523   3.487 -0.1969  0.2719 -0.2466
 2495Sol     OW12985   0.552   2.802   8.216  0.0449 -0.0101 -0.1088
 2495Sol     HW12986   0.560   2.714   8.252  0.5561  0.0572 -0.0495
 2495Sol     HW12987   0.508   2.852   8.285 -1.5342 -0.5471 -0.7007
 2495Sol     MW12988   0.549   2.799   8.226  0.7197 -0.1753 -0.3090
 2496Sol     OW12989   2.247   2.675   4.002  0.1270  0.2362  0.0108
 2496Sol     HW12990   2.156   2.645   3.999 -0.3487  1.5352  0.8280
 2496Sol     HW12991   2.299   2.596   4.017 -1.0753 -0.1860  2.0065
 2496Sol     MW12992   2.244   2.665   4.003  0.4806  0.1558 -0.4044
 2497Sol     OW12993   3.110   1.165   3.348 -0.1752 -0.4181 -0.1902
 2497Sol     HW12994   3.029   1.209   3.373  0.3567  0.8517 -0.6305
 2497Sol     HW12995   3.104   1.079   3.389 -1.9306 -0.5025 -0.5837
 2497Sol     MW12996   3.102   1.161   3.354  0.2099 -0.0799  0.3319
 2498Sol     OW12997   1.315   2.219   3.385 -0.3176  0.2220  0.0501
 2498Sol     HW12998   1.261   2.243   3.309 -0.3648 -1.2655 -0.3979
 2498Sol     HW12999   1.253   2.193   3.452 -0.2182  0.0891  0.0916
 2498Sol     MW13000   1.305   2.219   3.384 -0.0596  0.0921  0.2659
 2499Sol     OW13001   0.727   3.373   3.586 -0.3132  0.1121 -0.2299
 2499Sol     HW13002   0.748   3.288   3.625  1.1738  0.7641  0.4263
 2499Sol     HW13003   0.632   3.382   3.596 -0.4898 -1.5000 -0.3739
 2499Sol     MW13004   0.720   3.366   3.590 -0.0886  0.1919 -0.1609
 2500Sol     OW13005   2.259   1.078   3.238 -0.4744  0.0959  0.4007
 2500Sol     HW13006   2.227   1.087   3.148  0.1248 -0.1326  0.1640
 2500Sol     HW13007   2.184   1.103   3.292 -0.7137  0.6288 -0.1650
 2500Sol     MW13008   2.249   1.081   3.234  0.2506  0.0269 -0.7867
 2501Sol     OW13009   1.879   2.820   7.478 -0.1563  0.1985 -0.3183
 2501Sol     HW13010   1.806   2.823   7.539  0.4696  0.9332  0.4062
 2501Sol     HW13011   1.838   2.825   7.392 -0.9389  0.9731  0.0910
 2501Sol     MW13012   1.869   2.821   7.476 -0.2019  0.2617  0.4972
 2502Sol     OW13013   2.048   0.580   4.465  0.3612 -0.6382 -0.5350
 2502Sol     HW13014   2.104   0.657   4.465 -0.9074  0.3296  1.1543
 2502Sol     HW13015   1.961   0.614   4.485 -0.3634 -2.4109 -0.5879
 2502Sol     MW13016   2.045   0.590   4.467 -0.0599  0.1338  0.3052
 2503Sol     OW13017   1.945   0.354   2.655  0.3348  0.0606 -0.3241
 2503Sol     HW13018   1.984   0.307   2.728 -0.1479 -0.3719 -0.3452
 2503Sol     HW13019   1.902   0.430   2.696 -1.3815 -1.0836  0.0418
 2503Sol     MW13020   1.945   0.357   2.665  0.3066  0.2219  0.0672
 2504Sol     OW13021   0.405   0.789   6.334  0.3513  0.5138  0.2800
 2504Sol     HW13022   0.408   0.807   6.240  0.3200 -4.5065 -0.8231
 2504Sol     HW13023   0.487   0.744   6.353 -0.3682 -0.0162  2.2836
 2504Sol     MW13024   0.412   0.787   6.327  0.2315  0.2311  0.1849
 2505Sol     OW13025   2.957   2.155   5.187  0.3431 -0.3279  0.2243
 2505Sol     HW13026   3.013   2.231   5.171 -1.6768  0.3685 -4.1884
 2505Sol     HW13027   2.989   2.089   5.126 -0.5082 -1.6355  1.1793
 2505Sol     MW13028   2.965   2.156   5.180 -0.3789  0.4496  0.3940
 2506Sol     OW13029   0.724   2.037   6.650  0.1746 -0.1370  0.4246
 2506Sol     HW13030   0.689   1.972   6.712 -1.2222  0.7213  0.5643
 2506Sol     HW13031   0.725   2.119   6.698 -1.2536  0.6104 -0.7645
 2506Sol     MW13032   0.721   2.038   6.660  0.2522  0.0355  0.0375
 2507Sol     OW13033   2.234   3.269   4.052  0.2283  1.0705 -0.7647
 2507Sol     HW13034   2.182   3.301   3.978 -0.7792  0.9015 -0.1544
 2507Sol     HW13035   2.272   3.347   4.091  2.1185  1.0195 -2.4300
 2507Sol     MW13036   2.232   3.279   4.048 -0.3969  0.5644 -0.4570
 2508Sol     OW13037   1.104   2.097   3.543 -0.7761  0.0010 -0.2077
 2508Sol     HW13038   1.136   2.103   3.633 -2.6635  0.5908  0.4548
 2508Sol     HW13039   1.132   2.011   3.513  1.7391  0.6624  0.1940
 2508Sol     MW13040   1.109   2.090   3.548  0.0434 -0.2584  0.1985
 2509Sol     OW13041   1.743   3.282   5.170  0.3997 -0.5821  0.4032
 2509Sol     HW13042   1.763   3.358   5.225  1.3626 -0.7625  0.2977
 2509Sol     HW13043   1.827   3.256   5.132 -0.1353 -0.9072 -0.5840
 2509Sol     MW13044   1.752   3.286   5.172  0.0105  0.1121  0.0592
 2510Sol     OW13045   1.225   2.683   5.684 -0.1080 -0.3333  0.2829
 2510Sol     HW13046   1.132   2.705   5.680  0.5434  2.2095 -3.1742
 2510Sol     HW13047   1.233   2.604   5.631 -0.5357 -1.5147  1.9698
 2510Sol     MW13048   1.218   2.678   5.679 -0.7500  0.3908  0.5309
 2511Sol     OW13049   3.044   1.251   4.157  0.1893 -0.0138 -0.1510
 2511Sol     HW13050   3.049   1.175   4.099  0.6730  0.0213 -0.1563
 2511Sol     HW13051   3.127   1.250   4.205  0.9660  1.5629 -1.4494
 2511Sol     MW13052   3.052   1.244   4.156 -0.0963  0.2245  0.1035
 2512Sol     OW13053   2.099   1.851   7.049 -0.3128  0.0691 -0.0652
 2512Sol     HW13054   2.052   1.934   7.038  0.1643 -0.0589 -3.6776
 2512Sol     HW13055   2.045   1.787   7.004  0.8363 -1.0385  0.1126
 2512Sol     MW13056   2.090   1.853   7.044  0.0332 -0.0410  0.2768
 2513Sol     OW13057   2.670   1.654   2.712 -0.2672  0.2599 -0.7263
 2513Sol     HW13058   2.614   1.717   2.668 -1.2704 -0.7837 -0.9831
 2513Sol     HW13059   2.723   1.616   2.643  2.4357  2.8893 -0.1631
 2513Sol     MW13060   2.669   1.656   2.702  0.7020 -0.2548 -0.3432
 2514Sol     OW13061   2.729   1.342   3.211 -0.1311  0.0510 -0.1900
 2514Sol     HW13062   2.651   1.319   3.161  0.2849 -0.5568 -0.5669
 2514Sol     HW13063   2.784   1.391   3.148 -0.7273  1.5380  0.4151
 2514Sol     MW13064   2.727   1.345   3.201  0.0627 -0.0888 -0.3107
 2515Sol     OW13065   0.795   2.147   3.597 -0.2475 -0.2736  0.1822
 2515Sol     HW13066   0.790   2.141   3.692  0.5682 -1.2596  0.1682
 2515Sol     HW13067   0.886   2.126   3.576 -0.7222 -1.2941 -0.8936
 2515Sol     MW13068   0.803   2.145   3.603 -0.6722  0.9734 -0.0422
 2516Sol     OW13069   1.592   0.332   4.354 -0.0619  0.3117  0.0355
 2516Sol     HW13070   1.674   0.286   4.371 -0.1040 -0.0177 -0.6351
 2516Sol     HW13071   1.524   0.269   4.379 -0.1129  1.0903  1.9139
 2516Sol     MW13072   1.593   0.322   4.358 -0.3056 -0.6250  0.8269
 2517Sol     OW13073   2.727   0.743   8.974 -0.2669 -0.0045 -1.0520
 2517Sol     HW13074   2.638   0.774   8.993 -0.5240 -1.1464 -0.3000
 2517Sol     HW13075   2.774   0.821   8.945 -0.2864  1.5868  2.8889
 2517Sol     MW13076   2.723   0.752   8.973  0.1931  0.1073  0.2295
 2518Sol     OW13077   1.364   1.706   2.389 -0.3012  0.3962 -0.5172
 2518Sol     HW13078   1.353   1.713   2.294 -0.6721 -0.2182 -0.5217
 2518Sol     HW13079   1.389   1.615   2.404 -1.8301  0.0561  0.1064
 2518Sol     MW13080   1.365   1.699   2.382  0.1633  0.3477  0.1967
 2519Sol     OW13081   2.868   1.323   9.235  0.1041  0.0645 -0.2061
 2519Sol     HW13082   2.784   1.334   9.281  0.0706  0.5343 -0.3749
 2519Sol     HW13083   2.921   1.272   9.295 -1.1175 -2.3157 -1.0992
 2519Sol     MW13084   2.865   1.320   9.245  0.0004  0.1918  0.3465
 2520Sol     OW13085   1.858   0.875   6.320 -0.0731 -0.6407  0.0885
 2520Sol     HW13086   1.884   0.955   6.275  0.7152 -0.9304  0.0167
 2520Sol     HW13087   1.924   0.862   6.387 -1.5065  0.0425  1.6575
 2520Sol     MW13088   1.866   0.881   6.322 -0.1739 -0.0049  0.3345
 2521Sol     OW13089   3.112   2.487   3.399  0.3140  0.1455  0.3605
 2521Sol     HW13090   3.200   2.461   3.371  0.4759 -0.7215  1.6367
 2521Sol     HW13091   3.116   2.583   3.403  1.4260  0.0834  1.0924
 2521Sol     MW13092   3.120   2.493   3.397 -0.0027  0.0043  0.0886
 2522Sol     OW13093   2.781   1.914   9.172 -0.0386 -0.1780 -0.3944
 2522Sol     HW13094   2.700   1.952   9.138 -1.0902 -1.6557  0.4430
 2522Sol     HW13095   2.774   1.923   9.267  1.3032  0.7149 -0.3566
 2522Sol     MW13096   2.773   1.918   9.177  0.1565 -0.1457  0.5944
 2523Sol     OW13097   2.264   2.959   3.914 -0.1735  0.1235  0.6914
 2523Sol     HW13098   2.337   2.994   3.964  0.4493  0.6178 -0.5429
 2523Sol     HW13099   2.249   2.871   3.950  0.0425  0.5979  1.9497
 2523Sol     MW13100   2.269   2.954   3.922  0.7111  0.0294 -0.0501
 2524Sol     OW13101   0.859   3.078   7.152  0.0466 -0.0603 -0.2274
 2524Sol     HW13102   0.882   3.071   7.059 -1.2639 -1.4183 -0.4612
 2524Sol     HW13103   0.842   3.171   7.165  0.2223  0.1443 -1.3494
 2524Sol     MW13104   0.860   3.086   7.145  0.1233  0.0587  0.3691
 2525Sol     OW13105   1.326   0.820   5.423  0.0092 -0.0737  0.0019
 2525Sol     HW13106   1.363   0.852   5.505  2.1727 -1.0918 -0.5432
 2525Sol     HW13107   1.245   0.869   5.413 -0.1136  0.3181  2.5671
 2525Sol     MW13108   1.322   0.828   5.429  0.2903 -0.6480 -0.5317
 2526Sol     OW13109   1.663   3.007   5.646 -0.7004 -0.0784  0.8903
 2526Sol     HW13110   1.599   3.059   5.695 -2.3758 -1.9061  0.6867
 2526Sol     HW13111   1.656   3.039   5.556 -1.1242 -0.0696  0.9249
 2526Sol     MW13112   1.657   3.014   5.642  0.5725  0.0630 -0.7899
 2527Sol     OW13113   2.987   1.480   5.414 -0.1724  0.3730 -0.1406
 2527Sol     HW13114   2.986   1.385   5.424  1.1597  0.3554 -0.0726
 2527Sol     HW13115   2.895   1.505   5.407 -0.5957 -0.7696  1.2439
 2527Sol     MW13116   2.979   1.474   5.414 -0.5148  0.5344  0.0009
 2528Sol     OW13117   0.469   1.513   3.308  0.1497 -0.2785 -0.2580
 2528Sol     HW13118   0.419   1.571   3.251 -0.4462 -1.5113 -1.0069
 2528Sol     HW13119   0.408   1.442   3.329  0.8783 -0.6481  0.6379
 2528Sol     MW13120   0.459   1.512   3.305  0.0237 -0.0769  0.0399
 2529Sol     OW13121   1.869   1.036   9.785 -0.1837 -0.6770 -0.0508
 2529Sol     HW13122   1.850   0.993   9.868 -0.0600  0.6266  0.6771
 2529Sol     HW13123   1.824   1.121   9.791 -1.1660 -1.0542 -1.8103
 2529Sol     MW13124   1.864   1.040   9.793  0.1856 -0.3694 -0.1018
 2530Sol     OW13125   0.778   2.192   2.363  0.2565 -0.2545  0.0525
 2530Sol     HW13126   0.747   2.196   2.453  0.5017  0.5731  0.1047
 2530Sol     HW13127   0.749   2.106   2.331 -0.2421 -0.3523  0.7655
 2530Sol     MW13128   0.772   2.185   2.368 -0.2089  0.4403 -0.0293
 2531Sol     OW13129   1.841   1.292   1.906  0.5515 -0.4333  0.2218
 2531Sol     HW13130   1.841   1.197   1.895  1.4389 -0.3882 -0.1164
 2531Sol     HW13131   1.919   1.310   1.958  0.6719  0.1694 -0.1702
 2531Sol     MW13132   1.848   1.285   1.910 -0.3906 -0.1018  0.8855
 2532Sol     OW13133   0.176   2.526   9.807  0.0913  0.2292 -0.3632
 2532Sol     HW13134   0.238   2.458   9.834  0.8399  1.5463  1.2997
 2532Sol     HW13135   0.220   2.574   9.737 -0.9226 -1.7119 -2.4131
 2532Sol     MW13136   0.185   2.524   9.803  0.2476 -0.0824  0.2255
 2533Sol     OW13137   2.208   0.637   2.486 -0.1103 -0.5067 -0.2550
 2533Sol     HW13138   2.278   0.700   2.470  0.9867 -1.2986  1.3133
 2533Sol     HW13139   2.173   0.662   2.572 -0.8799 -0.9377 -0.4374
 2533Sol     MW13140   2.211   0.645   2.492 -0.5114 -0.0125  0.1447
 2534Sol     OW13141   0.652   1.476   2.876 -0.3513 -0.0930  0.3594
 2534Sol     HW13142   0.663   1.563   2.916  0.9736 -1.0330  2.1004
 2534Sol     HW13143   0.694   1.484   2.791 -0.0660  0.9193  0.5825
 2534Sol     MW13144   0.657   1.485   2.872 -0.2022  0.2728 -0.2770
 2535Sol     OW13145   2.721   1.553   7.953  0.0515 -0.0785  0.3354
 2535Sol     HW13146   2.767   1.626   7.911 -0.2880  0.8441  1.5412
 2535Sol     HW13147   2.786   1.483   7.958  0.6404  0.4374 -0.0402
 2535Sol     MW13148   2.731   1.554   7.950 -0.0481  0.3545 -0.3544
 2536Sol     OW13149   1.476   2.131  10.022 -0.1089  0.2877  0.1323
 2536Sol     HW13150   1.446   2.191   9.954  0.1364  0.3766  0.0997
 2536Sol     HW13151   1.513   2.188  10.090 -0.2907  0.1961  0.3104
 2536Sol     MW13152   1.477   2.141  10.022  0.3699  0.4354  0.6165
 2537Sol     OW13153   0.280   0.312   8.814 -0.3713 -0.1614  0.5744
 2537Sol     HW13154   0.277   0.303   8.718  1.6504 -0.1455  0.4884
 2537Sol     HW13155   0.328   0.393   8.829 -0.0415 -0.5414  1.6189
 2537Sol     MW13156   0.284   0.319   8.806 -0.1117  0.1323  0.0800
 2538Sol     OW13157   2.657   1.508   4.017 -0.9029 -0.1017 -0.4336
 2538Sol     HW13158   2.590   1.439   4.027  0.3229 -1.4697 -1.4189
 2538Sol     HW13159   2.725   1.484   4.080  0.1045 -0.5091 -1.6595
 2538Sol     MW13160   2.657   1.499   4.024 -0.3839  0.1979  0.3271
 2539Sol     OW13161   1.161   1.464   7.265 -0.0097  0.2272 -0.2213
 2539Sol     HW13162   1.184   1.464   7.358  0.3530  1.3774 -0.3048
 2539Sol     HW13163   1.066   1.457   7.264 -0.1618  1.8775  0.3017
 2539Sol     MW13164   1.155   1.464   7.273 -0.0764 -0.5281 -0.5172
 2540Sol     OW13165   1.785   1.881   7.105  0.4080  0.2473 -0.1405
 2540Sol     HW13166   1.762   1.971   7.126 -2.9288 -0.5174 -0.2224
 2540Sol     HW13167   1.720   1.854   7.041  1.0932 -2.3787  0.2144
 2540Sol     MW13168   1.777   1.886   7.101 -0.3113  0.2462 -0.0128
 2541Sol     OW13169   0.434   3.301   5.015 -0.4656  0.0085  0.4665
 2541Sol     HW13170   0.470   3.356   4.945 -1.9104 -1.6102 -1.6097
 2541Sol     HW13171   0.379   3.361   5.066 -0.2893  0.9620 -0.4455
 2541Sol     MW13172   0.432   3.312   5.013 -0.3528  0.0192  0.1136
 2542Sol     OW13173   2.173   2.775   5.232 -0.0268  0.0741  0.4157
 2542Sol     HW13174   2.219   2.837   5.289  0.2049 -0.8123  1.1889
 2542Sol     HW13175   2.242   2.719   5.197 -0.2858  0.0066  0.0010
 2542Sol     MW13176   2.183   2.776   5.234  0.1474  0.5870  0.2729
 2543Sol     OW13177   1.226   3.136   6.053 -0.2214 -0.2136  0.4729
 2543Sol     HW13178   1.238   3.194   5.977  1.7295 -0.3391  0.6775
 2543Sol     HW13179   1.132   3.116   6.052 -0.5629  1.2941 -0.8095
 2543Sol     MW13180   1.218   3.140   6.046  0.0230  0.0570  0.2642
 2544Sol     OW13181   0.923   3.296   8.802 -0.1032 -0.4802  0.2084
 2544Sol     HW13182   0.884   3.324   8.885  0.0012  0.7823 -0.1546
 2544Sol     HW13183   1.017   3.309   8.814 -0.0334 -0.9293  0.1346
 2544Sol     MW13184   0.928   3.300   8.810 -0.2797 -0.0292 -0.8252
 2545Sol     OW13185   1.430   0.185   3.120 -0.6169  0.2609  0.0476
 2545Sol     HW13186   1.402   0.260   3.067 -0.7149  1.4001  1.6751
 2545Sol     HW13187   1.355   0.166   3.176 -0.3899 -0.7138  0.0284
 2545Sol     MW13188   1.421   0.190   3.120 -0.1214  0.4021 -0.3388
 2546Sol     OW13189   2.594   3.389   7.867  0.6066 -0.4950 -0.1962
 2546Sol     HW13190   2.593   3.432   7.952  1.0195 -1.4140  0.2772
 2546Sol     HW13191   2.548   3.449   7.809  0.8076  0.3853  0.5539
 2546Sol     MW13192   2.590   3.398   7.869 -0.0684 -0.0117  0.1438
 2547Sol     OW13193   1.205   3.000   7.936  0.1737 -0.0599  0.1911
 2547Sol     HW13194   1.203   2.911   7.899 -0.1201 -0.9071  2.2044
 2547Sol     HW13195   1.155   2.994   8.017 -0.5360  2.1568 -0.0477
 2547Sol     MW13196   1.201   2.991   7.940 -0.3959 -0.5872  0.0005
 2548Sol     OW13197   1.606   0.479   3.256  0.2982  0.3766  0.9618
 2548Sol     HW13198   1.680   0.420   3.245 -0.2623 -0.0192 -0.8876
 2548Sol     HW13199   1.624   0.552   3.196 -0.1724  0.9120  1.4611
 2548Sol     MW13200   1.614   0.480   3.249 -0.1238  0.3891 -0.3009
 2549Sol     OW13201   0.940   1.636   6.540  0.0949  0.2990 -0.0852
 2549Sol     HW13202   0.911   1.573   6.606 -0.1516  0.9694  0.4552
 2549Sol     HW13203   0.987   1.704   6.590  3.6870 -1.3576 -1.0730
 2549Sol     MW13204   0.941   1.637   6.551 -0.1885  0.0582 -0.4613
 2550Sol     OW13205   2.052   1.507   7.173  0.3428 -0.3477 -0.0849
 2550Sol     HW13206   2.137   1.462   7.176  0.0109 -0.8886  1.4983
 2550Sol     HW13207   2.065   1.586   7.225 -0.1095 -0.4214  0.1389
 2550Sol     MW13208   2.061   1.510   7.178  0.3874  0.0548  0.2706
 2551Sol     OW13209   2.781   1.317   5.757 -0.5036  0.8039  0.1566
 2551Sol     HW13210   2.874   1.297   5.749 -0.7612 -0.4300  0.2178
 2551Sol     HW13211   2.738   1.232   5.759 -1.8433  1.3737 -2.3168
 2551Sol     MW13212   2.785   1.308   5.756 -0.2107  0.6224 -0.1274
 2552Sol     OW13213   2.210   2.391   1.506 -0.6515 -0.2008 -0.2468
 2552Sol     HW13214   2.220   2.296   1.495 -1.3982 -0.6554  2.7340
 2552Sol     HW13215   2.282   2.416   1.563 -0.5047  1.0498 -0.9584
 2552Sol     MW13216   2.217   2.384   1.510 -0.3251  0.1801 -0.0077
 2553Sol     OW13217   3.029   3.310   6.839 -0.4155  0.0694 -0.1198
 2553Sol     HW13218   3.110   3.260   6.832 -0.0953  0.3908  1.2134
 2553Sol     HW13219   3.025   3.362   6.758  0.5828 -0.1184 -0.2858
 2553Sol     MW13220   3.036   3.310   6.831 -0.5755 -0.1313 -0.4636
 2554Sol     OW13221   1.892   2.025   2.425  0.1296 -0.2165 -0.0031
 2554Sol     HW13222   1.800   2.051   2.422  0.2068  0.2728  1.6576
 2554Sol     HW13223   1.894   1.946   2.478  0.7064 -0.0038  0.3011
 2554Sol     MW13224   1.884   2.020   2.429  0.4612  0.8834  0.4053
 2555Sol     OW13225   0.702   0.717   7.074  0.3468 -0.5621  0.0683
 2555Sol     HW13226   0.730   0.661   7.146  0.2722 -1.5656 -0.6630
 2555Sol     HW13227   0.606   0.715   7.078  0.3464 -0.2416  0.2262
 2555Sol     MW13228   0.695   0.712   7.080  0.3007 -0.1391 -0.4762
 2556Sol     OW13229   2.275   2.763   6.540  0.3061  0.2559  0.3481
 2556Sol     HW13230   2.225   2.682   6.529  1.1314 -0.0806 -0.9823
 2556Sol     HW13231   2.238   2.823   6.475  1.8958 -0.1322 -0.9383
 2556Sol     MW13232   2.267   2.761   6.533 -0.0235 -0.5842 -0.1128
 2557Sol     OW13233   0.537   1.218   8.091  0.1296  0.0943 -0.0044
 2557Sol     HW13234   0.600   1.177   8.032 -1.0289 -1.4107 -0.2443
 2557Sol     HW13235   0.545   1.168   8.173 -2.0189 -1.3298 -0.6260
 2557Sol     MW13236   0.543   1.210   8.093  0.6140  0.2809 -0.4306
 2558Sol     OW13237   0.417   0.355   4.733 -0.4132  0.2289  0.2773
 2558Sol     HW13238   0.474   0.433   4.730  1.8247 -1.3798 -0.9038
 2558Sol     HW13239   0.375   0.353   4.647 -1.0018  0.5250  0.5606
 2558Sol     MW13240   0.419   0.362   4.725 -0.5974  0.0430 -0.0252
 2559Sol     OW13241   0.077   1.936   7.474 -0.3040  0.0466  0.3551
 2559Sol     HW13242   0.079   2.024   7.510  0.5463  0.3539 -0.4390
 2559Sol     HW13243   0.050   1.947   7.383 -0.8914 -0.5827  0.4444
 2559Sol     MW13244   0.075   1.945   7.469 -0.6839  0.3667  0.1256
 2560Sol     OW13245   0.060   1.341   6.677  0.1257 -0.1979  0.2590
 2560Sol     HW13246   0.055   1.257   6.724  1.6420  0.4820  1.6590
 2560Sol     HW13247  -0.003   1.397   6.722 -0.8772 -0.5498 -0.6694
 2560Sol     MW13248   0.054   1.338   6.685  0.6854 -0.3847 -0.5710
 2561Sol     OW13249   1.121   0.523   6.162  0.5117  0.7870  0.0347
 2561Sol     HW13250   1.064   0.464   6.113  0.6481  1.0809 -0.4872
 2561Sol     HW13251   1.069   0.548   6.238  0.6602 -0.4280  0.5464
 2561Sol     MW13252   1.111   0.520   6.164  0.1850  0.2937 -0.5518
 2562Sol     OW13253   2.848   0.521   8.505 -0.4002  0.0960 -0.7792
 2562Sol     HW13254   2.880   0.597   8.555 -0.7272  0.3370 -0.9337
 2562Sol     HW13255   2.824   0.557   8.420  0.4290 -0.3691 -1.2088
 2562Sol     MW13256   2.849   0.531   8.502  0.5947  0.2848 -0.0552
 2563Sol     OW13257   2.962   3.098   8.648  0.0924 -0.0891 -0.4369
 2563Sol     HW13258   3.009   3.028   8.695 -0.1803  0.8974  1.3279
 2563Sol     HW13259   2.870   3.078   8.662  0.0085  1.5222  1.4680
 2563Sol     MW13260   2.958   3.090   8.654 -0.4022 -0.4708  0.4327
 2564Sol     OW13261   2.966   0.195   7.306 -0.0486 -0.3200  0.8951
 2564Sol     HW13262   2.950   0.129   7.374  0.4648  0.6156  1.9455
 2564Sol     HW13263   2.979   0.144   7.226 -0.1171 -1.4787  1.6034
 2564Sol     MW13264   2.966   0.185   7.305 -0.2030  0.3137  0.5533
 2565Sol     OW13265   0.299   2.952   1.918  0.5336 -0.2168 -0.1215
 2565Sol     HW13266   0.233   3.014   1.948  0.0755 -1.1478  0.8584
 2565Sol     HW13267   0.374   3.006   1.892  0.4830  0.7004  1.5806
 2565Sol     MW13268   0.300   2.962   1.919 -0.2213  0.8412 -0.3428
 2566Sol     OW13269   0.835   0.948   9.125 -0.1683  0.3745  0.0254
 2566Sol     HW13270   0.788   1.026   9.096 -0.9590 -0.2035 -0.2635
 2566Sol     HW13271   0.928   0.972   9.119 -0.3540  0.7062 -1.7413
 2566Sol     MW13272   0.839   0.957   9.122  0.1792 -0.2350  0.1091
 2567Sol     OW13273   2.429   1.304   6.167 -0.1499  0.2708 -0.9388
 2567Sol     HW13274   2.522   1.320   6.180 -0.3298 -0.0206  1.0208
 2567Sol     HW13275   2.393   1.387   6.137  0.7792  0.3043 -1.9766
 2567Sol     MW13276   2.434   1.313   6.166 -0.6138 -0.0541  0.3659
 2568Sol     OW13277   2.626   1.841   4.933  0.3153 -0.0144 -0.0632
 2568Sol     HW13278   2.549   1.871   4.884 -0.0766  0.3779  0.7731
 2568Sol     HW13279   2.659   1.920   4.976  0.0944 -0.5192  1.0560
 2568Sol     MW13280   2.622   1.851   4.932  0.2787 -0.2805 -0.8432
 2569Sol     OW13281   0.737   1.585   8.963  0.2543  0.1874 -0.0553
 2569Sol     HW13282   0.750   1.679   8.970  1.3856  0.2284 -2.1545
 2569Sol     HW13283   0.747   1.552   9.052  0.8969  1.9172  0.5279
 2569Sol     MW13284   0.739   1.590   8.971 -0.9302 -0.1752 -0.3175
 2570Sol     OW13285   0.199   1.778   5.199  0.1596  0.5006 -0.6673
 2570Sol     HW13286   0.245   1.828   5.132 -2.0193 -1.7614 -3.9562
 2570Sol     HW13287   0.235   1.690   5.192 -0.2164  0.1906  1.0476
 2570Sol     MW13288   0.207   1.775   5.193 -0.2667 -0.3464  0.5140
 2571Sol     OW13289   2.867   1.068   4.409 -0.5513 -0.2899 -0.4537
 2571Sol     HW13290   2.937   1.024   4.360 -1.1487  0.0011 -1.5912
 2571Sol     HW13291   2.842   1.005   4.476  0.8728 -0.3582  0.0302
 2571Sol     MW13292   2.871   1.058   4.410  0.4923 -0.4875  0.3299
 2572Sol     OW13293   2.451   0.475   1.782 -0.2175  0.1298 -0.5056
 2572Sol     HW13294   2.529   0.429   1.749 -0.7181 -0.3787 -0.9874
 2572Sol     HW13295   2.393   0.405   1.812 -0.6346  0.4895 -0.4691
 2572Sol     MW13296   2.453   0.464   1.782  0.2186  0.0006 -0.5998
 2573Sol     OW13297   2.917   0.884   9.960  0.2691 -0.2912 -0.6942
 2573Sol     HW13298   2.921   0.798   9.917 -0.1866 -1.0395  0.7266
 2573Sol     HW13299   2.878   0.866  10.045  0.4710  1.2913 -0.2591
 2573Sol     MW13300   2.914   0.874   9.964  0.5286  0.2604  0.1663
 2574Sol     OW13301   0.271   0.335   2.126 -0.1247  0.1210  0.1013
 2574Sol     HW13302   0.354   0.370   2.159  0.0749 -0.5893  0.3536
 2574Sol     HW13303   0.244   0.272   2.193 -1.7800  1.6592  0.9212
 2574Sol     MW13304   0.276   0.333   2.135  0.3874 -0.1477 -0.0970
 2575Sol     OW13305   2.474   1.217   9.181 -0.2170 -0.0683  0.1328
 2575Sol     HW13306   2.477   1.237   9.087 -0.9787  1.1029  0.3423
 2575Sol     HW13307   2.430   1.132   9.186  0.8970 -0.6982 -0.6378
 2575Sol     MW13308   2.470   1.211   9.173 -0.0894  0.1662  0.1313
 2576Sol     OW13309   1.033   0.698   3.262 -0.5532 -0.1281  0.6715
 2576Sol     HW13310   0.998   0.774   3.217 -0.3230  0.5402  1.5946
 2576Sol     HW13311   1.038   0.630   3.195 -1.0719  0.5688 -0.0833
 2576Sol     MW13312   1.030   0.698   3.252 -0.1704  0.3512 -0.1202
 2577Sol     OW13313   0.464   3.089   5.447  0.6551  0.1945 -0.0186
 2577Sol     HW13314   0.537   3.040   5.408 -1.3525 -2.6444 -0.3862
 2577Sol     HW13315   0.395   3.085   5.381 -0.5561  0.9729  1.1824
 2577Sol     MW13316   0.465   3.084   5.437 -0.4177 -0.0925  0.6405
 2578Sol     OW13317   2.453   0.617   7.535  0.7396  0.6418  0.0857
 2578Sol     HW13318   2.452   0.709   7.508  1.4377  0.0998 -1.8282
 2578Sol     HW13319   2.450   0.568   7.453  0.5310 -1.0512  1.0910
 2578Sol     MW13320   2.452   0.621   7.525  0.6456 -0.0643 -0.1661
 2579Sol     OW13321   2.210   3.352   2.562  0.3872 -0.3077  0.2239
 2579Sol     HW13322   2.253   3.379   2.644  0.5562 -2.2895  0.8157
 2579Sol     HW13323   2.277   3.362   2.495  0.1499  1.6539  0.2363
 2579Sol     MW13324   2.220   3.355   2.564 -0.2049  0.1260 -0.1536
 2580Sol     OW13325   2.788   0.241   8.073  0.3501 -0.0537 -0.3231
 2580Sol     HW13326   2.850   0.173   8.096 -1.0024 -0.6138  1.7387
 2580Sol     HW13327   2.702   0.207   8.098 -0.6044  1.4861 -1.3310
 2580Sol     MW13328   2.786   0.232   8.077 -0.0355  0.3530  0.2663
 2581Sol     OW13329   2.965   2.115   2.773 -0.2459  0.1936 -0.5555
 2581Sol     HW13330   3.012   2.186   2.730 -0.6181  0.0414 -1.2408
 2581Sol     HW13331   3.034   2.057   2.806  0.0578 -0.4463 -2.2593
 2581Sol     MW13332   2.975   2.116   2.772  0.4573  0.1295 -0.1378
 2582Sol     OW13333   0.826   2.105   7.644  0.5510  0.2548 -0.2674
 2582Sol     HW13334   0.844   2.125   7.552 -1.2397  0.9124 -0.4904
 2582Sol     HW13335   0.824   2.010   7.648  0.0165  0.2327 -1.0370
 2582Sol     MW13336   0.828   2.099   7.636 -0.0011  0.3290  0.6011
 2583Sol     OW13337   1.220   1.738   7.239 -0.1464  0.0597  0.3111
 2583Sol     HW13338   1.177   1.654   7.223  0.3310 -0.0829 -0.2121
 2583Sol     HW13339   1.150   1.794   7.275 -0.2933 -0.7695  1.3278
 2583Sol     MW13340   1.210   1.736   7.241 -0.5918 -0.4318  0.9409
 2584Sol     OW13341   2.981   1.080   8.669 -0.2969 -0.0305 -0.2382
 2584Sol     HW13342   2.962   1.057   8.578 -0.8775 -2.3985  0.4227
 2584Sol     HW13343   3.076   1.071   8.677 -0.1186  1.2076 -0.8525
 2584Sol     MW13344   2.988   1.077   8.662  0.3157  0.5901 -0.3230
 2585Sol     OW13345   2.659   2.258   2.194  0.0393  0.7199 -0.0701
 2585Sol     HW13346   2.687   2.349   2.201  0.3835  0.6171 -0.1338
 2585Sol     HW13347   2.649   2.229   2.285 -1.1866  1.1644 -0.0487
 2585Sol     MW13348   2.661   2.263   2.203 -0.0270 -0.1235  0.5419
 2586Sol     OW13349   1.705   2.670   5.042 -0.2892 -0.0940 -0.1888
 2586Sol     HW13350   1.639   2.731   5.075  0.3081  0.5158 -0.1218
 2586Sol     HW13351   1.670   2.640   4.958 -0.9522 -0.2687  0.1434
 2586Sol     MW13352   1.696   2.673   5.038 -0.1969  0.3935  0.2743
 2587Sol     OW13353   2.831   2.236   6.445 -0.3344  0.3979 -0.5250
 2587Sol     HW13354   2.901   2.240   6.381 -1.1200 -0.8897 -1.4850
 2587Sol     HW13355   2.868   2.188   6.519 -0.2251 -0.3452 -1.0599
 2587Sol     MW13356   2.840   2.232   6.446 -0.2218  0.0590 -0.1413
 2588Sol     OW13357   2.143   1.267   9.525  0.1351 -0.4037 -0.0787
 2588Sol     HW13358   2.231   1.304   9.515  0.3671 -0.1292  2.7569
 2588Sol     HW13359   2.147   1.184   9.476  0.8119  1.3028 -3.0728
 2588Sol     MW13360   2.151   1.262   9.519 -0.4377  0.3029 -0.2599
 2589Sol     OW13361   2.677   0.746   2.932 -0.2426 -0.5574 -0.1000
 2589Sol     HW13362   2.727   0.804   2.874  1.4518 -0.8726  0.9926
 2589Sol     HW13363   2.744   0.700   2.982 -1.6661  0.9608  3.3581
 2589Sol     MW13364   2.688   0.747   2.931  0.8925 -0.0436 -0.3198
 2590Sol     OW13365   3.254   1.038   8.709  0.1073 -0.3382  0.2852
 2590Sol     HW13366   3.342   1.053   8.675 -0.4397  2.4267 -0.1143
 2590Sol     HW13367   3.260   1.055   8.803  0.0624 -0.3812  0.2952
 2590Sol     MW13368   3.262   1.041   8.714 -0.0186 -0.1636  0.2612
 2591Sol     OW13369   2.611   1.138   1.701  0.3760 -0.3103  0.5374
 2591Sol     HW13370   2.602   1.103   1.613 -0.6973 -1.4064  1.0622
 2591Sol     HW13371   2.629   1.231   1.689  0.9981 -0.6111 -0.8433
 2591Sol     MW13372   2.612   1.143   1.692 -0.4887 -0.1421  0.0522
 2592Sol     OW13373   0.466   0.553   3.949  0.2052  0.7618 -0.3721
 2592Sol     HW13374   0.444   0.514   3.864  1.8961  0.2878 -0.6001
 2592Sol     HW13375   0.393   0.527   4.006  0.0560 -0.6392 -1.1619
 2592Sol     MW13376   0.457   0.547   3.946 -0.1970  0.9986 -0.1288
 2593Sol     OW13377   1.589   2.986   4.059 -0.5207 -0.3483  0.1306
 2593Sol     HW13378   1.595   2.890   4.061  0.6072 -0.2674  1.7616
 2593Sol     HW13379   1.617   3.010   3.971  0.1720 -1.4547  0.0351
 2593Sol     MW13380   1.592   2.979   4.051  0.4627  0.5504  0.4158
 2594Sol     OW13381   0.336   2.944   5.647 -0.0238 -0.0965 -0.6468
 2594Sol     HW13382   0.243   2.955   5.630 -0.2254 -0.5210  0.1797
 2594Sol     HW13383   0.379   2.983   5.570 -0.8412  1.3157 -0.3956
 2594Sol     MW13384   0.332   2.949   5.638  0.2931  0.2213  0.2137
 2595Sol     OW13385   2.284   1.381   7.198 -0.0475  0.5232 -0.1027
 2595Sol     HW13386   2.342   1.433   7.143  0.6418 -0.1080  0.0097
 2595Sol     HW13387   2.325   1.383   7.285  0.0409 -0.2753 -0.1210
 2595Sol     MW13388   2.293   1.386   7.201 -0.0196  0.0805  0.0484
 2596Sol     OW13389   1.785   1.034   6.888 -0.1187  0.0720 -0.0919
 2596Sol     HW13390   1.759   1.045   6.796  0.1682 -0.2135 -0.2065
 2596Sol     HW13391   1.867   0.987   6.884  0.0186  0.2758  0.3064
 2596Sol     MW13392   1.790   1.031   6.879 -0.5448 -0.6855 -0.9732
 2597Sol     OW13393   2.967   0.810   9.575 -0.5139  0.0164 -0.2296
 2597Sol     HW13394   2.918   0.891   9.563 -0.5807  0.0648  0.3231
 2597Sol     HW13395   2.942   0.781   9.663 -0.3196 -0.4835 -0.3407
 2597Sol     MW13396   2.960   0.815   9.582 -0.0152  0.2034 -0.3602
 2598Sol     OW13397   1.526   3.352   8.531  0.0818 -0.2189 -0.4023
 2598Sol     HW13398   1.533   3.424   8.468 -1.0663  0.4498  0.2198
 2598Sol     HW13399   1.563   3.276   8.485 -2.6068 -0.2284 -2.6761
 2598Sol     MW13400   1.530   3.352   8.521  0.2839  0.1194 -0.5279
 2599Sol     OW13401   2.683   2.461   6.772  0.1162 -0.4875 -0.0484
 2599Sol     HW13402   2.735   2.500   6.701  1.0940 -0.6713  0.5507
 2599Sol     HW13403   2.593   2.486   6.752  0.2292 -1.5151 -2.0049
 2599Sol     MW13404   2.680   2.467   6.764  0.0553 -0.4375 -0.2982
 2600Sol     OW13405   2.558   0.462   6.984 -0.7684 -0.6125 -0.2377
 2600Sol     HW13406   2.599   0.443   7.068 -0.9851  0.2512  0.0711
 2600Sol     HW13407   2.493   0.393   6.973 -1.3125 -0.2603  0.7012
 2600Sol     MW13408   2.556   0.454   6.991  0.2133 -0.1199  0.0906
 2601Sol     OW13409   0.413   0.821   3.085 -0.1444  0.3803  0.4953
 2601Sol     HW13410   0.334   0.785   3.044 -1.0301  2.1705  0.6025
 2601Sol     HW13411   0.458   0.867   3.015  0.2468  0.3201  0.7004
 2601Sol     MW13412   0.410   0.822   3.075  0.1082 -0.2601 -0.3251
 2602Sol     OW13413   0.548   3.282   2.996  0.8009 -0.0351 -0.1741
 2602Sol     HW13414   0.513   3.206   3.042  0.6339 -0.5168 -1.0886
 2602Sol     HW13415   0.641   3.284   3.021  0.4516  0.4621  1.1804
 2602Sol     MW13416   0.554   3.276   3.003 -0.1548 -0.0012  0.1048
 2603Sol     OW13417   1.790   1.295   3.706  0.3780  0.0459 -0.4878
 2603Sol     HW13418   1.850   1.329   3.772  1.6527  0.0485 -1.6150
 2603Sol     HW13419   1.725   1.245   3.755  0.5671  1.1161  0.8649
 2603Sol     MW13420   1.790   1.293   3.716  0.2885 -0.1704 -0.5237
 2604Sol     OW13421   2.884   0.149   2.997 -0.1255 -0.0915 -0.2186
 2604Sol     HW13422   2.849   0.128   2.910  1.1628 -1.5932 -0.3994
 2604Sol     HW13423   2.977   0.166   2.981  0.4438 -1.8758  1.0744
 2604Sol     MW13424   2.890   0.149   2.987 -0.1058 -0.2964 -0.7765
 2605Sol     OW13425   1.669   1.765   1.881  0.2446  0.2088 -0.2027
 2605Sol     HW13426   1.647   1.742   1.971  0.0229  1.1488 -0.0115
 2605Sol     HW13427   1.670   1.681   1.834 -1.8798 -0.0566  0.1897
 2605Sol     MW13428   1.667   1.756   1.885 -0.3029 -0.0435  0.2921
 2606Sol     OW13429   1.725   3.387   8.066  0.3014  0.4152  0.1511
 2606Sol     HW13430   1.675   3.451   8.015  0.1394 -0.3677 -0.6985
 2606Sol     HW13431   1.800   3.366   8.010  1.0686  0.8643  1.0033
 2606Sol     MW13432   1.727   3.391   8.056  0.2180  1.2853  0.4938
 2607Sol     OW13433   0.035   1.452   5.041  0.3785  0.5907 -0.2586
 2607Sol     HW13434   0.021   1.402   4.961 -4.2425  1.3094 -0.0471
 2607Sol     HW13435   0.087   1.528   5.013 -0.5195  0.4488 -2.4222
 2607Sol     MW13436   0.039   1.454   5.031 -0.0763  0.2250  0.2050
 2608Sol     OW13437   2.494   1.696   1.352 -0.2995 -0.1573 -0.0107
 2608Sol     HW13438   2.468   1.778   1.310 -1.1696 -0.3925  0.0517
 2608Sol     HW13439   2.588   1.689   1.336 -0.3704  0.4476 -0.7229
 2608Sol     MW13440   2.500   1.702   1.347  0.2322 -0.3616 -0.2550
 2609Sol     OW13441   1.589   2.254   8.581 -0.2269  0.2358 -0.0421
 2609Sol     HW13442   1.496   2.266   8.561 -0.0094  1.8376 -0.1264
 2609Sol     HW13443   1.598   2.159   8.592 -1.8971  0.0652  0.1140
 2609Sol     MW13444   1.581   2.246   8.580 -0.2059  0.1919  0.1468
 2610Sol     OW13445   3.158   2.136   9.392 -0.3682 -0.0746 -0.0766
 2610Sol     HW13446   3.166   2.120   9.298  1.6228  0.4262 -0.0107
 2610Sol     HW13447   3.130   2.052   9.429 -2.8713  0.1661 -1.2834
 2610Sol     MW13448   3.156   2.127   9.387  0.0824  0.2446  0.1395
 2611Sol     OW13449   3.045   0.627   5.185 -0.6131 -0.0620 -0.2912
 2611Sol     HW13450   3.022   0.700   5.242  0.3519  1.2721 -1.6064
 2611Sol     HW13451   3.098   0.570   5.241 -2.9416 -0.7505  1.2994
 2611Sol     MW13452   3.048   0.628   5.195 -0.3336 -0.3099 -0.4392
 2612Sol     OW13453   2.700   1.864   2.257 -0.0060  0.3791 -0.2452
 2612Sol     HW13454   2.615   1.907   2.250  1.3288  2.9240 -1.0877
 2612Sol     HW13455   2.738   1.899   2.337  0.3405 -0.6539  0.0548
 2612Sol     MW13456   2.696   1.871   2.264  0.4177  0.3812 -0.7198
 2613Sol     OW13457   2.461   1.315   8.548 -0.1770  0.1157 -0.0284
 2613Sol     HW13458   2.480   1.405   8.577 -1.3193  0.0711  0.8725
 2613Sol     HW13459   2.514   1.260   8.605 -0.4378  0.1585  0.2584
 2613Sol     MW13460   2.467   1.318   8.555 -0.0719 -0.1022  0.4232
 2614Sol     OW13461   0.813   0.688   8.576 -0.0556 -0.0264 -0.6479
 2614Sol     HW13462   0.770   0.773   8.568  0.8581  0.9698  3.7054
 2614Sol     HW13463   0.894   0.697   8.526 -0.8729  0.9865 -1.8225
 2614Sol     MW13464   0.816   0.696   8.571 -0.3112  0.1745 -0.1563
 2615Sol     OW13465   2.331   3.118   8.630 -0.1513  0.5466 -0.5806
 2615Sol     HW13466   2.319   3.198   8.682 -0.0934 -0.0438  0.3390
 2615Sol     HW13467   2.247   3.106   8.585 -0.9777 -0.1852  1.1238
 2615Sol     MW13468   2.322   3.124   8.630 -0.5261 -0.3249  0.4913
 2616Sol     OW13469   3.114   1.576   6.626  0.1286  0.5874 -0.1566
 2616Sol     HW13470   3.129   1.504   6.564 -0.8800  0.9287 -0.8168
 2616Sol     HW13471   3.177   1.561   6.696 -0.0137 -0.8965 -0.3268
 2616Sol     MW13472   3.121   1.568   6.627  0.0194  0.3636 -0.2491
 2617Sol     OW13473   2.437   1.516   7.888  0.2039  0.6631 -0.2124
 2617Sol     HW13474   2.423   1.447   7.953  0.2947  1.0802  0.2576
 2617Sol     HW13475   2.532   1.522   7.881  0.1952  0.7002 -0.2885
 2617Sol     MW13476   2.444   1.511   7.894 -0.2379  0.5436  0.3233
 2618Sol     OW13477   3.016   1.306   4.460  0.1334  0.2415 -0.0878
 2618Sol     HW13478   2.964   1.225   4.458 -0.4955  0.6559 -1.8916
 2618Sol     HW13479   3.105   1.277   4.442  0.1700 -0.2310  0.8341
 2618Sol     MW13480   3.019   1.296   4.458 -0.0850  0.2075  0.2138
 2619Sol     OW13481   0.473   2.009   5.369 -0.0979 -0.3274 -0.0507
 2619Sol     HW13482   0.459   1.990   5.276  0.9041  0.4830 -0.3804
 2619Sol     HW13483   0.469   2.104   5.375 -1.2599 -0.4311  0.9295
 2619Sol     MW13484   0.471   2.016   5.361 -0.1062  0.2590  0.5919
 2620Sol     OW13485   2.991   2.966   4.784 -0.0982 -0.5387  0.4023
 2620Sol     HW13486   2.900   2.976   4.758  0.6932  1.0302 -1.8394
 2620Sol     HW13487   3.018   2.882   4.747  0.9726  1.6005 -3.9305
 2620Sol     MW13488   2.986   2.959   4.779  0.3826 -0.1683  0.6885
 2621Sol     OW13489   0.199   0.894   1.738  0.0964  0.2500  0.0795
 2621Sol     HW13490   0.118   0.929   1.702 -0.2775 -0.2831  0.3979
 2621Sol     HW13491   0.171   0.822   1.794  0.9584 -1.5914 -1.7794
 2621Sol     MW13492   0.189   0.890   1.740  0.3140  0.1122 -0.3229
 2622Sol     OW13493   0.803   1.279   7.464 -0.0305  0.0674  0.3640
 2622Sol     HW13494   0.752   1.258   7.385 -0.8456  0.0204  0.8963
 2622Sol     HW13495   0.893   1.256   7.441 -0.1102  0.8903 -0.8675
 2622Sol     MW13496   0.806   1.275   7.455  0.2551 -0.1708  0.0557
 2623Sol     OW13497   0.567   1.962   4.590  0.3203  0.1636  0.5987
 2623Sol     HW13498   0.643   1.907   4.568 -0.1542 -1.2093  2.2676
 2623Sol     HW13499   0.564   1.962   4.686 -1.2756  0.9227  0.5676
 2623Sol     MW13500   0.574   1.957   4.597 -0.6161 -0.1881 -0.2770
 2624Sol     OW13501   1.987   2.802   9.729  0.5204  0.0241 -0.5517
 2624Sol     HW13502   1.902   2.791   9.771 -0.4757  0.0435 -2.5388
 2624Sol     HW13503   1.971   2.787   9.636  2.9263 -1.1530 -0.8087
 2624Sol     MW13504   1.978   2.800   9.725  0.5176  0.0046  0.0291
 2625Sol     OW13505   0.660   1.192   8.515  0.1591 -0.2293 -0.4518
 2625Sol     HW13506   0.749   1.219   8.536  0.7413 -0.4090 -2.6072
 2625Sol     HW13507   0.656   1.100   8.544  0.6648 -0.2277 -0.3640
 2625Sol     MW13508   0.668   1.186   8.520 -0.2521  0.4406  0.3200
 2626Sol     OW13509   1.138   1.348   8.604  0.1271 -0.3730 -0.0768
 2626Sol     HW13510   1.179   1.370   8.687  1.6304 -1.2949 -0.5689
 2626Sol     HW13511   1.141   1.429   8.553  0.6450 -0.2468  0.1603
 2626Sol     MW13512   1.142   1.358   8.607  0.0110 -0.0723  0.1238
 2627Sol     OW13513   0.780   1.321   3.211 -0.0279 -0.5467 -0.5412
 2627Sol     HW13514   0.748   1.396   3.261 -1.0279  1.0472 -3.4355
 2627Sol     HW13515   0.866   1.349   3.179  0.3639 -1.3357 -0.1884
 2627Sol     MW13516   0.785   1.331   3.213  0.0087  0.0301  0.1249
 2628Sol     OW13517   1.513   0.824   6.181  0.4669  0.4087 -0.3892
 2628Sol     HW13518   1.458   0.747   6.164  2.6048 -1.0358 -1.0204
 2628Sol     HW13519   1.552   0.808   6.267  1.5894  0.3442 -0.8967
 2628Sol     MW13520   1.512   0.815   6.187 -0.3843  0.6788 -0.3397
 2629Sol     OW13521   2.968   1.684   7.469  0.0918 -0.1566 -0.1115
 2629Sol     HW13522   2.925   1.683   7.555 -0.6819  1.9162 -0.4435
 2629Sol     HW13523   3.057   1.715   7.487 -1.1123  3.6880 -0.4552
 2629Sol     MW13524   2.972   1.686   7.479  0.7195  0.3564  0.6391
 2630Sol     OW13525   2.525   1.053   5.842 -0.0653 -0.1901 -0.4556
 2630Sol     HW13526   2.586   1.023   5.909  0.7209 -1.8576 -1.8839
 2630Sol     HW13527   2.440   1.018   5.870 -0.2226  1.3314  1.0264
 2630Sol     MW13528   2.523   1.047   5.851 -0.2974  0.2149 -0.0963
 2631Sol     OW13529   1.821   1.065   8.933  0.3724  0.6669 -0.1714
 2631Sol     HW13530   1.763   1.133   8.967 -1.9722 -1.4700  0.2880
 2631Sol     HW13531   1.838   1.091   8.843 -0.8236  1.6636 -0.1327
 2631Sol     MW13532   1.817   1.074   8.928 -0.1120 -0.7137 -0.0916
 2632Sol     OW13533   0.972   2.794   3.208  0.7572 -0.5706 -0.2878
 2632Sol     HW13534   0.948   2.724   3.268 -0.5420 -0.3832 -0.5630
 2632Sol     HW13535   1.068   2.796   3.209  0.7593  0.5156  3.0600
 2632Sol     MW13536   0.978   2.788   3.213 -0.1164  0.0835  0.5050
 2633Sol     OW13537   0.427   0.596   3.519  0.5646 -0.3212  0.2004
 2633Sol     HW13538   0.427   0.669   3.458  1.4250  0.5817  1.2621
 2633Sol     HW13539   0.514   0.598   3.559  0.9124 -2.4785 -0.4112
 2633Sol     MW13540   0.435   0.603   3.517  0.5378 -0.1851  0.2856
 2634Sol     OW13541   0.685   2.682   4.888 -0.0278  0.1202 -0.4232
 2634Sol     HW13542   0.660   2.773   4.870  1.5836  0.7593  0.5565
 2634Sol     HW13543   0.605   2.632   4.869 -1.0412  1.7636 -0.6207
 2634Sol     MW13544   0.675   2.686   4.884 -0.1650  0.1983 -0.3328
 2635Sol     OW13545   2.161   1.524   1.939  0.5001 -0.0982  0.9510
 2635Sol     HW13546   2.113   1.467   1.999 -0.0396 -0.2864  0.3567
 2635Sol     HW13547   2.181   1.468   1.864 -2.8444  1.2667 -1.0734
 2635Sol     MW13548   2.158   1.514   1.937 -0.1691  0.0096  0.3935
 2636Sol     OW13549   0.255   0.160   8.299 -0.3386  0.0699 -0.0228
 2636Sol     HW13550   0.170   0.198   8.279  0.4650  1.4066 -1.0125
 2636Sol     HW13551   0.247   0.068   8.277 -1.0423  0.5126 -1.6488
 2636Sol     MW13552   0.247   0.155   8.296 -0.4420  0.3339  0.3894
 2637Sol     OW13553   3.190   3.222   2.472  0.2635  0.2863  0.5849
 2637Sol     HW13554   3.120   3.280   2.503 -0.4751 -1.1000  1.5369
 2637Sol     HW13555   3.172   3.211   2.379  0.8762  2.2087  0.1994
 2637Sol     MW13556   3.182   3.227   2.466 -0.1581  0.1161 -0.5537
 2638Sol     OW13557   3.041   2.645   9.839  0.3109 -0.0336  0.1353
 2638Sol     HW13558   2.992   2.567   9.864  0.0870 -0.3198 -1.1623
 2638Sol     HW13559   2.983   2.692   9.779  1.5097 -0.2370 -1.2066
 2638Sol     MW13560   3.031   2.643   9.836 -0.0740  0.5458 -0.0484
 2639Sol     OW13561   2.106   1.518   4.399  0.0988 -0.3387  0.4490
 2639Sol     HW13562   2.186   1.469   4.421 -0.3357  0.2824  3.6911
 2639Sol     HW13563   2.036   1.454   4.408  0.0995 -0.6967 -1.7000
 2639Sol     MW13564   2.107   1.508   4.402 -0.1777 -0.0262  0.5891
 2640Sol     OW13565   0.400   0.572   7.551 -0.5290  0.1242 -0.3813
 2640Sol     HW13566   0.491   0.597   7.563 -1.2478  2.0299  1.3327
 2640Sol     HW13567   0.390   0.564   7.456  1.2081  0.6623 -0.6287
 2640Sol     MW13568   0.407   0.574   7.544 -0.6555 -0.2935  0.3980
 2641Sol     OW13569   3.165   2.858   3.227 -0.0392  0.6696  0.0290
 2641Sol     HW13570   3.198   2.947   3.236  1.2270  0.2951 -0.8105
 2641Sol     HW13571   3.107   2.862   3.150  1.7000  0.3107 -1.3314
 2641Sol     MW13572   3.163   2.867   3.221 -0.1509  0.2309  0.4569
 2642Sol     OW13573   1.856   1.047   5.328  0.4431  1.0421  0.4309
 2642Sol     HW13574   1.791   1.031   5.396  0.3819  1.8858  0.5855
 2642Sol     HW13575   1.868   0.963   5.284 -0.1666  0.7040  0.9177
 2642Sol     MW13576   1.851   1.038   5.330  0.2846  0.0592 -0.1466
 2643Sol     OW13577   1.266   2.907   9.539  0.5770  0.0335 -0.1347
 2643Sol     HW13578   1.291   3.000   9.544  0.8051 -0.0808  1.2684
 2643Sol     HW13579   1.277   2.875   9.629 -0.4069 -1.1239 -0.4108
 2643Sol     MW13580   1.269   2.913   9.548 -0.2826 -0.3778 -0.1090
 2644Sol     OW13581   0.597   0.233   3.168 -0.0009  0.4757  0.1436
 2644Sol     HW13582   0.647   0.152   3.159 -0.1603  0.4476 -0.5009
 2644Sol     HW13583   0.636   0.276   3.244  1.6727  0.9343 -0.9328
 2644Sol     MW13584   0.605   0.229   3.174  0.0092  0.1888 -0.0690
 2645Sol     OW13585   2.495   0.161   1.505 -0.4124  0.2426  0.0677
 2645Sol     HW13586   2.490   0.187   1.597  1.5535  1.0011 -0.0185
 2645Sol     HW13587   2.551   0.227   1.465 -0.9647 -0.2943 -1.6060
 2645Sol     MW13588   2.500   0.169   1.510 -0.4133  0.5414 -0.0645
 2646Sol     OW13589   2.547   3.437   3.917  0.3910 -0.5445  0.5995
 2646Sol     HW13590   2.599   3.484   3.852  2.1179 -0.1686  2.1809
 2646Sol     HW13591   2.491   3.378   3.866  1.7455 -0.3168 -1.1948
 2646Sol     MW13592   2.547   3.436   3.907  0.5645  0.2935 -0.2538
 2647Sol     OW13593   0.473   1.263   9.091 -0.2137  0.3480 -0.5086
 2647Sol     HW13594   0.494   1.353   9.067  1.5825 -0.0948 -0.6793
 2647Sol     HW13595   0.378   1.263   9.103 -0.0996  2.5172  0.6525
 2647Sol     MW13596   0.467   1.271   9.090  0.1162 -0.5190  0.3237
 2648Sol     OW13597   0.335   3.222   2.323 -0.2122  0.0060 -0.2705
 2648Sol     HW13598   0.346   3.129   2.342 -1.4739  0.0632  0.7889
 2648Sol     HW13599   0.257   3.247   2.372 -1.3483  1.0484 -2.5833
 2648Sol     MW13600   0.329   3.216   2.329  0.1085  0.7049 -0.3464
 2649Sol     OW13601   0.256   3.288   3.388  0.3413  0.0164 -0.2324
 2649Sol     HW13602   0.165   3.300   3.361  0.6420 -0.4083 -1.4542
 2649Sol     HW13603   0.308   3.320   3.314  1.2122  1.9702  1.1709
 2649Sol     MW13604   0.253   3.292   3.379 -0.1304  0.0506  0.0894
 2650Sol     OW13605   0.050   0.500   7.359 -0.5217 -0.1557 -0.2278
 2650Sol     HW13606   0.072   0.456   7.441  1.3528 -0.4673 -0.8553
 2650Sol     HW13607  -0.033   0.461   7.332 -2.0048  1.1047  2.3123
 2650Sol     MW13608   0.045   0.493   7.364 -0.4298  0.1409  0.1653
 2651Sol     OW13609   0.487   2.343   9.518 -0.0598  0.6480  0.4102
 2651Sol     HW13610   0.549   2.310   9.453 -0.5714 -0.9000  0.6771
 2651Sol     HW13611   0.459   2.428   9.484 -0.9534 -0.4963 -1.8288
 2651Sol     MW13612   0.490   2.348   9.509 -0.1836  0.6138 -0.4209
 2652Sol     OW13613   0.905   3.034   4.040  0.0529 -0.1209  0.0827
 2652Sol     HW13614   0.991   3.065   4.067 -0.3020  2.5442 -1.6336
 2652Sol     HW13615   0.845   3.066   4.108 -0.1742  2.1988 -1.1614
 2652Sol     MW13616   0.907   3.040   4.048  0.1424 -1.0597  0.2444
 2653Sol     OW13617   2.326   0.888   3.439 -0.4924  0.0274  0.6454
 2653Sol     HW13618   2.348   0.972   3.398  0.6666 -1.2344 -1.3804
 2653Sol     HW13619   2.258   0.851   3.383 -1.3588 -0.1733  1.8159
 2653Sol     MW13620   2.322   0.892   3.431  0.2044  0.2852 -0.2411
 2654Sol     OW13621   0.823   2.152   5.039  0.5839  0.8254  0.1684
 2654Sol     HW13622   0.833   2.075   5.096  1.5374  1.4076  0.8061
 2654Sol     HW13623   0.766   2.211   5.088  0.4644  0.8443  0.0072
 2654Sol     MW13624   0.819   2.150   5.048  0.0208 -0.0666  1.0875
 2655Sol     OW13625   0.646   2.261   9.305  0.5133  0.3033  0.0716
 2655Sol     HW13626   0.687   2.339   9.268 -0.9849  0.8425 -0.4984
 2655Sol     HW13627   0.609   2.215   9.229  0.5377 -0.4420  0.5115
 2655Sol     MW13628   0.646   2.264   9.295 -0.2797 -0.0722  0.5353
 2656Sol     OW13629   2.779   2.936   2.222 -0.1956 -0.8737 -1.2537
 2656Sol     HW13630   2.842   2.984   2.275 -0.6021 -2.0709  0.3922
 2656Sol     HW13631   2.702   2.993   2.217  0.4596 -0.0579 -1.9643
 2656Sol     MW13632   2.777   2.945   2.227  0.4931 -0.0985 -0.6102
 2657Sol     OW13633   2.207   0.833   3.802 -0.3165 -0.2965 -0.1934
 2657Sol     HW13634   2.280   0.889   3.773  2.1504 -1.6013  3.1542
 2657Sol     HW13635   2.229   0.746   3.768 -0.6486 -0.5567  0.2568
 2657Sol     MW13636   2.216   0.830   3.797  0.5956  0.2054  0.1379
 2658Sol     OW13637   1.358   1.045   4.621 -0.6380  0.6057  0.0521
 2658Sol     HW13638   1.335   1.043   4.714 -0.7736 -0.2852  0.0041
 2658Sol     HW13639   1.429   0.981   4.613  0.0109  1.3642 -0.2892
 2658Sol     MW13640   1.363   1.039   4.629 -0.3589 -0.2191  0.2922
 2659Sol     OW13641   2.376   0.048   4.103 -0.3978  0.5440  0.4153
 2659Sol     HW13642   2.414   0.044   4.191  1.0220 -1.3439 -0.2356
 2659Sol     HW13643   2.446   0.016   4.046 -1.5707  1.0080 -1.3205
 2659Sol     MW13644   2.386   0.045   4.106  0.7125 -0.1711  0.3002
 2660Sol     OW13645   2.912   0.935   7.857 -0.1751 -0.6320 -0.2314
 2660Sol     HW13646   2.835   0.991   7.864  0.6023  0.2298  1.9536
 2660Sol     HW13647   2.877   0.849   7.831 -2.0350 -0.5546  1.8497
 2660Sol     MW13648   2.902   0.932   7.856 -0.2350  0.0656 -0.0733
 2661Sol     OW13649   1.827   2.306   9.471  0.0153 -0.2610  0.6770
 2661Sol     HW13650   1.764   2.337   9.536  1.1664  1.1242  1.1615
 2661Sol     HW13651   1.894   2.262   9.523  0.8601  0.7163  0.4210
 2661Sol     MW13652   1.827   2.305   9.482 -0.6389  0.0488 -0.4154
 2662Sol     OW13653   2.249   2.402   7.914 -0.0507 -0.0610  0.1091
 2662Sol     HW13654   2.299   2.444   7.983  0.7849 -0.5063 -0.2206
 2662Sol     HW13655   2.308   2.336   7.878 -1.0797 -0.9853  0.0996
 2662Sol     MW13656   2.258   2.400   7.917  0.0126 -0.7252  0.0276
 2663Sol     OW13657   1.956   2.802   8.792  0.2969 -0.1276 -0.2534
 2663Sol     HW13658   1.875   2.798   8.842  0.3374 -1.1800 -0.2720
 2663Sol     HW13659   2.024   2.823   8.857  0.6699 -3.4828  0.5177
 2663Sol     MW13660   1.955   2.804   8.802  0.4011  0.0676 -0.3173
 2664Sol     OW13661   3.041   2.988   8.211 -0.0264  0.4477 -0.3539
 2664Sol     HW13662   2.995   2.922   8.159 -1.0151 -0.2297  1.3279
 2664Sol     HW13663   2.974   3.052   8.233 -0.0558 -0.2253  1.6000
 2664Sol     MW13664   3.031   2.988   8.208  0.0410 -0.1952 -0.0683
 2665Sol     OW13665   0.587   0.368   6.473 -0.0973  0.4961 -0.6734
 2665Sol     HW13666   0.602   0.392   6.381 -0.6594  1.5577 -0.5036
 2665Sol     HW13667   0.586   0.452   6.519 -0.8549  0.0421  0.1511
 2665Sol     MW13668   0.588   0.378   6.469  0.5165  0.3689  0.0645
 2666Sol     OW13669   1.865   0.462   9.139  0.1440  0.2161 -0.4137
 2666Sol     HW13670   1.893   0.395   9.201 -1.1700  1.1952  1.2947
 2666Sol     HW13671   1.945   0.510   9.117  0.5450  0.1746  0.9322
 2666Sol     MW13672   1.874   0.460   9.142 -0.1763  0.3156  0.0915
 2667Sol     OW13673   2.836   3.098   9.465  0.2179  0.4510 -0.0338
 2667Sol     HW13674   2.761   3.124   9.519 -0.3511 -0.6013 -0.2899
 2667Sol     HW13675   2.890   3.176   9.460 -0.3202  0.9160  1.0640
 2667Sol     MW13676   2.834   3.107   9.470 -0.0235  0.0497 -0.1827
 2668Sol     OW13677   1.450   2.296   2.264 -0.3621 -0.1825  0.5446
 2668Sol     HW13678   1.501   2.291   2.184  0.8282 -1.9114  1.3846
 2668Sol     HW13679   1.376   2.238   2.250 -0.2270 -0.3805  0.6538
 2668Sol     MW13680   1.448   2.291   2.256  0.0113 -0.3366  0.0051
 2669Sol     OW13681   1.861   3.301   6.821 -0.1537 -0.0400 -0.4980
 2669Sol     HW13682   1.848   3.207   6.825 -0.5042  0.0263 -0.0362
 2669Sol     HW13683   1.785   3.338   6.866 -0.1618  0.4714 -0.9233
 2669Sol     MW13684   1.853   3.296   6.825 -0.2336 -0.7017 -0.2137
 2670Sol     OW13685   1.128   0.279   7.669  0.0919  0.2315  0.1004
 2670Sol     HW13686   1.181   0.316   7.739 -1.4935 -0.2046  1.5627
 2670Sol     HW13687   1.159   0.188   7.661 -0.5548 -0.0839  1.0955
 2670Sol     MW13688   1.136   0.274   7.675  0.2006 -0.1329  0.4122
 2671Sol     OW13689   1.534   0.420   5.870  0.1310  0.1282 -0.6073
 2671Sol     HW13690   1.519   0.424   5.964 -0.7849  0.3790 -0.7534
 2671Sol     HW13691   1.601   0.485   5.853 -0.6738  1.0448 -0.3070
 2671Sol     MW13692   1.538   0.426   5.877  0.1548  0.0360  0.0277
 2672Sol     OW13693   2.463   2.723   8.000  0.2359 -0.0881 -0.1858
 2672Sol     HW13694   2.416   2.749   7.921  0.3170  1.6014  0.2939
 2672Sol     HW13695   2.517   2.799   8.022 -0.6596 -0.0700  2.1235
 2672Sol     MW13696   2.463   2.732   7.995  0.0003  0.2906  0.0642
 2673Sol     OW13697   0.640   1.262   2.588 -0.2611 -0.7341  0.4579
 2673Sol     HW13698   0.702   1.242   2.658 -0.1498  1.3688  0.9916
 2673Sol     HW13699   0.560   1.288   2.635  0.0978  1.5639 -0.1701
 2673Sol     MW13700   0.638   1.263   2.599 -0.0050  0.0018  0.0008
 2674Sol     OW13701   2.089   0.265   2.898  0.0759  1.0651 -0.2449
 2674Sol     HW13702   2.075   0.346   2.946 -0.8624  0.9689 -0.3409
 2674Sol     HW13703   2.017   0.208   2.926  0.7580  0.2563 -0.1433
 2674Sol     MW13704   2.081   0.267   2.905 -0.2548  0.0622 -0.2073
 2675Sol     OW13705   0.601   1.645   3.847  0.1758 -0.2650 -0.0599
 2675Sol     HW13706   0.656   1.674   3.775  0.7670  1.0246  0.8995
 2675Sol     HW13707   0.663   1.611   3.912 -0.0138  2.5283  1.6368
 2675Sol     MW13708   0.612   1.645   3.846 -0.3715  0.2232 -0.5187
 2676Sol     OW13709   0.632   1.578   9.626  0.0138  0.5664  0.1969
 2676Sol     HW13710   0.553   1.625   9.655  0.3909  1.4691 -0.2176
 2676Sol     HW13711   0.673   1.549   9.708 -0.3246  0.7940  0.4534
 2676Sol     MW13712   0.629   1.580   9.636  0.3039 -0.2933  0.0189
 2677Sol     OW13713   1.609   0.572   9.187 -0.0306  0.3296 -0.4888
 2677Sol     HW13714   1.566   0.564   9.102 -0.8230  1.2077 -0.1826
 2677Sol     HW13715   1.693   0.527   9.176  1.0052  2.6932 -2.5074
 2677Sol     MW13716   1.612   0.567   9.178 -0.1438 -0.1730 -0.0915
 2678Sol     OW13717   2.126   3.168   4.511  0.2922 -0.3884 -0.4400
 2678Sol     HW13718   2.207   3.152   4.462  0.9902 -0.2832  0.6555
 2678Sol     HW13719   2.061   3.187   4.444  1.1378 -0.6354 -1.3492
 2678Sol     MW13720   2.128   3.168   4.501  0.3380 -0.2854 -0.5292
 2679Sol     OW13721   0.591   1.631   7.852  0.1099 -0.4210  0.2510
 2679Sol     HW13722   0.667   1.688   7.846 -0.0875 -0.3254 -1.7524
 2679Sol     HW13723   0.604   1.583   7.934  2.5105 -0.6623 -0.2205
 2679Sol     MW13724   0.599   1.632   7.859 -0.0983  0.0527 -0.1971
 2680Sol     OW13725   1.429   0.333   6.449  0.0892 -0.2121 -0.5173
 2680Sol     HW13726   1.370   0.337   6.374 -1.1361 -0.2748  0.4148
 2680Sol     HW13727   1.444   0.240   6.463 -1.8762 -0.3326  0.9628
 2680Sol     MW13728   1.425   0.325   6.444  0.2926  0.4074  0.4125
 2681Sol     OW13729   1.816   0.350   5.399  0.0149  0.0101 -0.2208
 2681Sol     HW13730   1.748   0.374   5.337  0.7970  0.5311 -0.8872
 2681Sol     HW13731   1.814   0.254   5.401  0.8366 -0.0612 -2.0137
 2681Sol     MW13732   1.810   0.343   5.394  0.6777 -0.2684 -1.0463
 2682Sol     OW13733   2.384   2.890   4.747  0.5730  0.1243 -0.0695
 2682Sol     HW13734   2.398   2.807   4.792  0.8650 -0.0123 -0.4164
 2682Sol     HW13735   2.433   2.883   4.666 -1.7964 -0.5033 -1.4927
 2682Sol     MW13736   2.389   2.882   4.744 -0.5248 -0.3779 -0.2348
 2683Sol     OW13737   1.519   3.033   9.171 -0.2272 -0.2385 -0.6614
 2683Sol     HW13738   1.586   3.014   9.105 -0.3399  1.8714 -1.4101
 2683Sol     HW13739   1.447   3.072   9.121 -0.9316 -0.0158  0.5150
 2683Sol     MW13740   1.518   3.034   9.160  0.0365  0.0758  0.1012
 2684Sol     OW13741   0.531   2.789   7.477  0.2599 -0.2404  0.0826
 2684Sol     HW13742   0.463   2.722   7.470 -0.4939  0.4378  0.7545
 2684Sol     HW13743   0.496   2.851   7.541  1.6900 -0.0942  0.7418
 2684Sol     MW13744   0.521   2.788   7.482 -0.0768  0.0816 -0.1092
 2685Sol     OW13745   2.575   2.056   4.595  0.1795 -0.3767 -0.3581
 2685Sol     HW13746   2.564   2.100   4.679  2.6955  0.6951 -0.5600
 2685Sol     HW13747   2.648   1.996   4.609 -1.2481 -2.3096 -0.9735
 2685Sol     MW13748   2.580   2.054   4.604  0.2220  0.3070 -0.1019
 2686Sol     OW13749   1.598   3.434   1.850  0.5920 -0.1620 -0.1611
 2686Sol     HW13750   1.557   3.360   1.805  1.6595 -0.1427 -1.2013
 2686Sol     HW13751   1.639   3.484   1.780 -0.8138  1.8775  0.4378
 2686Sol     MW13752   1.598   3.432   1.840  0.1110 -0.4629 -0.5120
 2687Sol     OW13753   1.977   2.974   2.526  0.0464 -0.2793  0.0863
 2687Sol     HW13754   1.897   2.925   2.512  0.9574 -1.4484 -1.0532
 2687Sol     HW13755   1.965   3.056   2.477  0.1236 -1.0732 -1.2689
 2687Sol     MW13756   1.969   2.977   2.521  0.4636 -0.0070  0.0685
 2688Sol     OW13757   1.650   0.730   6.416  0.3279 -0.3582 -0.4191
 2688Sol     HW13758   1.709   0.796   6.378 -0.7672  0.2879 -1.0153
 2688Sol     HW13759   1.629   0.764   6.503  1.3052 -0.8854  0.0276
 2688Sol     MW13760   1.654   0.739   6.420  0.3226 -0.3044 -0.1643
 2689Sol     OW13761   1.913   0.125   3.952 -0.9857 -0.1189  0.1611
 2689Sol     HW13762   1.983   0.172   3.997 -1.0320 -0.5389  0.6829
 2689Sol     HW13763   1.856   0.193   3.917  1.4013  0.3215 -3.0530
 2689Sol     MW13764   1.914   0.135   3.953 -0.4824 -0.1909  0.2704
 2690Sol     OW13765   0.874   2.053   3.078 -0.3869  0.5293  0.1394
 2690Sol     HW13766   0.948   2.024   3.025 -1.7511  1.8140 -2.5615
 2690Sol     HW13767   0.914   2.089   3.157  1.8812  1.0055 -1.1834
 2690Sol     MW13768   0.884   2.054   3.080 -0.4086  0.0167 -0.2444
 2691Sol     OW13769   0.330   1.544   7.826 -0.7073 -0.0760  0.0147
 2691Sol     HW13770   0.423   1.565   7.834 -0.6212  0.8993 -2.9994
 2691Sol     HW13771   0.319   1.465   7.878  2.4282 -1.8566 -1.8294
 2691Sol     MW13772   0.338   1.539   7.831  0.9188  0.1839  0.1708
 2692Sol     OW13773   0.408   2.831   2.858 -0.0872  0.0663 -0.5554
 2692Sol     HW13774   0.450   2.791   2.934  0.3618  0.7214 -0.4576
 2692Sol     HW13775   0.345   2.765   2.828  0.0602 -0.3764  0.1046
 2692Sol     MW13776   0.406   2.821   2.862 -0.5738  0.4197  0.3699
 2693Sol     OW13777   0.506   1.036   9.933  0.0272 -0.1164 -0.2291
 2693Sol     HW13778   0.446   1.022   9.860  0.7933 -1.3524 -0.6458
 2693Sol     HW13779   0.542   0.949   9.950 -0.8639 -0.0330  2.2529
 2693Sol     MW13780   0.504   1.027   9.928 -0.2707 -0.0650  0.4958
 2694Sol     OW13781   1.253   2.647   2.343 -0.4665 -0.0538  0.3325
 2694Sol     HW13782   1.186   2.623   2.407  0.3109 -1.8337  0.4956
 2694Sol     HW13783   1.215   2.620   2.259  0.4858 -2.1408  0.5341
 2694Sol     MW13784   1.244   2.642   2.341  0.0680 -0.2258  0.0500
 2695Sol     OW13785   2.877   2.120   8.219 -0.3103  0.0239 -0.2634
 2695Sol     HW13786   2.817   2.082   8.282  0.7294  0.2285  0.8708
 2695Sol     HW13787   2.833   2.110   8.134 -2.2361  0.7853  0.6117
 2695Sol     MW13788   2.868   2.116   8.217 -0.1507  0.0756 -0.4228
 2696Sol     OW13789   1.049   1.257   1.969  0.1149  0.0524  0.4320
 2696Sol     HW13790   0.956   1.257   1.989  0.0595 -1.5462  0.1906
 2696Sol     HW13791   1.054   1.230   1.877  0.8321 -0.1186  0.5192
 2696Sol     MW13792   1.041   1.255   1.962 -0.1927  0.1082  0.4953
 2697Sol     OW13793   1.365   1.270   6.929  0.5479  0.1927  0.0699
 2697Sol     HW13794   1.451   1.292   6.894 -0.4658  4.2511 -0.1671
 2697Sol     HW13795   1.376   1.277   7.024  0.3954  1.2837  0.0211
 2697Sol     MW13796   1.374   1.273   6.934  0.6106  0.5378  0.5567
 2698Sol     OW13797   2.132   3.389   4.731  0.5043 -0.0806  0.1394
 2698Sol     HW13798   2.046   3.368   4.768 -0.1917 -0.8751 -1.8878
 2698Sol     HW13799   2.140   3.333   4.654  1.7279  1.8480 -1.1857
 2698Sol     MW13800   2.125   3.382   4.728 -0.7819  0.2943  0.2907
 2699Sol     OW13801   2.809   2.441   4.065 -0.2284  0.4249 -0.1444
 2699Sol     HW13802   2.772   2.385   4.134 -2.3431  1.5268 -0.3333
 2699Sol     HW13803   2.761   2.416   3.986 -0.6529  1.9443 -0.3840
 2699Sol     MW13804   2.801   2.434   4.064  0.4380 -0.0441 -0.0618
 2700Sol     OW13805   1.809   0.313   5.978  0.3941 -0.5994 -0.0754
 2700Sol     HW13806   1.729   0.320   6.031  0.6994  0.7446  0.2061
 2700Sol     HW13807   1.871   0.372   6.020  1.1832 -0.7980 -0.9559
 2700Sol     MW13808   1.807   0.319   5.987  0.0032 -0.3678 -0.6504
 2701Sol     OW13809   1.710   0.270   3.117  0.4039  0.0237  0.5740
 2701Sol     HW13810   1.756   0.194   3.081 -0.6653 -0.9062  1.1154
 2701Sol     HW13811   1.617   0.246   3.113 -0.2432  2.7519 -2.5254
 2701Sol     MW13812   1.705   0.261   3.114 -0.1481 -0.1220 -0.0771
 2702Sol     OW13813   3.235   2.017   5.612  0.6135 -0.1111  0.1326
 2702Sol     HW13814   3.196   2.020   5.525  1.8826 -3.3148 -0.6259
 2702Sol     HW13815   3.160   2.021   5.672 -0.6042 -2.1119 -1.2053
 2702Sol     MW13816   3.225   2.018   5.609 -0.2648 -0.7087 -0.1143
 2703Sol     OW13817   2.150   1.877   5.577  0.2510  0.2417 -0.2617
 2703Sol     HW13818   2.226   1.846   5.527 -0.2742 -0.4143 -0.6572
 2703Sol     HW13819   2.090   1.911   5.510  0.8675  2.2628  0.1580
 2703Sol     MW13820   2.152   1.878   5.566  0.3582  0.0384  0.3217
 2704Sol     OW13821   0.186   1.692   4.433  0.1323 -0.1939 -0.3813
 2704Sol     HW13822   0.102   1.729   4.405  0.3684 -0.0941 -0.9711
 2704Sol     HW13823   0.237   1.684   4.352 -0.2612 -2.6984 -0.4259
 2704Sol     MW13824   0.183   1.695   4.423  0.5587 -0.1033 -0.5947
 2705Sol     OW13825   0.017   3.070   2.847 -0.0854  0.2685  0.5305
 2705Sol     HW13826   0.058   3.071   2.934  1.3925  0.5309 -0.1406
 2705Sol     HW13827   0.081   3.115   2.791  0.2772 -2.3873 -1.2704
 2705Sol     MW13828   0.027   3.074   2.850  0.2549 -0.4074 -0.2906
 2706Sol     OW13829   0.113   1.971   8.310 -0.0880  0.2199 -0.2872
 2706Sol     HW13830   0.176   1.993   8.378 -0.3275  1.1474 -0.3585
 2706Sol     HW13831   0.038   1.934   8.358  0.4794 -0.8606 -0.2037
 2706Sol     MW13832   0.112   1.969   8.321 -0.2032 -0.4086 -0.1294
 2707Sol     OW13833   2.612   1.356   2.964  0.8207  0.2016 -0.0384
 2707Sol     HW13834   2.544   1.325   3.024  0.0812 -0.5487 -1.2573
 2707Sol     HW13835   2.571   1.354   2.878  1.3508  2.8717 -0.3860
 2707Sol     MW13836   2.602   1.353   2.962  0.0236  0.0301 -0.5615
 2708Sol     OW13837   1.432   1.915   9.850 -0.1551 -0.3933 -0.0396
 2708Sol     HW13838   1.424   1.987   9.913 -2.8472 -1.3458  0.7384
 2708Sol     HW13839   1.474   1.845   9.900  1.8177  0.3425 -0.6028
 2708Sol     MW13840   1.435   1.916   9.860 -0.4231 -0.2682 -0.1960
 2709Sol     OW13841   1.100   2.831   5.385 -0.1372  0.1917  0.0893
 2709Sol     HW13842   1.087   2.742   5.350 -1.9391  0.3087  0.4001
 2709Sol     HW13843   1.157   2.873   5.322 -0.2095 -0.8376 -0.6833
 2709Sol     MW13844   1.104   2.827   5.376 -0.4197 -0.1229  0.3908
 2710Sol     OW13845   0.578   2.265   4.577  0.2529 -0.2808 -0.1424
 2710Sol     HW13846   0.611   2.175   4.583 -0.7014 -0.6996 -0.9957
 2710Sol     HW13847   0.524   2.276   4.655 -0.0188 -0.6119 -0.2840
 2710Sol     MW13848   0.576   2.258   4.585  0.2336 -0.3032  0.3096
 2711Sol     OW13849   1.174   1.552   3.166 -0.1243 -0.5519  1.1729
 2711Sol     HW13850   1.220   1.595   3.095  1.8363 -1.4328  1.8757
 2711Sol     HW13851   1.098   1.609   3.184  0.6890  0.9221  0.0111
 2711Sol     MW13852   1.171   1.561   3.162 -0.2785  0.6301 -0.0148
 2712Sol     OW13853   2.164   1.818   7.668  0.3329  0.0032 -0.3185
 2712Sol     HW13854   2.115   1.868   7.733  1.3404  1.5117 -0.6893
 2712Sol     HW13855   2.099   1.794   7.602  0.2676  2.9840 -1.3934
 2712Sol     MW13856   2.154   1.820   7.667 -0.4075  0.1721  0.3381
 2713Sol     OW13857   1.184   1.094   3.208  0.2154  0.2116  0.3266
 2713Sol     HW13858   1.171   1.102   3.302 -3.0496 -1.2907  0.0572
 2713Sol     HW13859   1.264   1.042   3.200  0.0817 -0.3447  2.2753
 2713Sol     MW13860   1.190   1.090   3.216  0.1509 -0.4219 -0.0256
 2714Sol     OW13861   2.786   1.832   8.590  0.3041 -0.6799  0.1781
 2714Sol     HW13862   2.862   1.778   8.568  1.7816  0.8470  1.3930
 2714Sol     HW13863   2.747   1.788   8.665  0.5155 -0.9518  0.1319
 2714Sol     MW13864   2.789   1.823   8.594  0.3393  0.3163 -0.0784
 2715Sol     OW13865   0.945   1.752   2.728  0.7525  0.2076 -0.0713
 2715Sol     HW13866   1.027   1.761   2.680  0.7981 -0.8313 -0.2035
 2715Sol     HW13867   0.953   1.813   2.801  1.0704  1.1109 -0.8470
 2715Sol     MW13868   0.953   1.758   2.730  0.1059  0.3175 -0.2875
 2716Sol     OW13869   1.852   3.404   2.380  0.2663 -0.7358 -0.1229
 2716Sol     HW13870   1.838   3.445   2.466 -0.2435  1.4201 -1.2030
 2716Sol     HW13871   1.766   3.368   2.358 -0.7825  2.4542 -1.5916
 2716Sol     MW13872   1.843   3.404   2.386 -0.3199 -0.4435  0.0592
 2717Sol     OW13873   2.189   2.634   7.785 -0.4290 -0.1617 -0.3061
 2717Sol     HW13874   2.198   2.549   7.829  2.6069 -0.9925 -2.3603
 2717Sol     HW13875   2.179   2.611   7.693  2.0028  1.7112 -1.0850
 2717Sol     MW13876   2.189   2.624   7.781  0.9842  0.5144  0.8670
 2718Sol     OW13877   0.708   0.561   7.311 -0.2571  0.3716 -0.5762
 2718Sol     HW13878   0.774   0.503   7.348  0.9621  1.6545 -0.6897
 2718Sol     HW13879   0.688   0.623   7.382  0.1469  1.2205 -1.1967
 2718Sol     MW13880   0.712   0.562   7.321 -0.2416  0.3013  0.1570
 2719Sol     OW13881   2.547   1.676   9.400  0.8853  0.2742 -0.7965
 2719Sol     HW13882   2.602   1.638   9.331 -0.1816  0.2304 -1.6286
 2719Sol     HW13883   2.468   1.706   9.355 -0.2177 -0.5656  0.5293
 2719Sol     MW13884   2.545   1.675   9.390  0.3365  0.1623  0.1303
 2720Sol     OW13885   1.021   0.535   8.857 -0.0117  0.1867 -0.2082
 2720Sol     HW13886   1.010   0.628   8.838 -1.5119  0.0934  0.1020
 2720Sol     HW13887   1.112   0.516   8.836  0.6298  2.0018  0.8851
 2720Sol     MW13888   1.028   0.542   8.853 -0.2155  0.7905  0.2104
 2721Sol     OW13889   1.410   1.425   2.446  0.3370  0.0357  0.4271
 2721Sol     HW13890   1.396   1.386   2.532  0.5842 -0.3608  0.2874
 2721Sol     HW13891   1.365   1.366   2.386  0.1890  0.2981  0.2818
 2721Sol     MW13892   1.404   1.416   2.449  0.1247  0.3431 -0.0359
 2722Sol     OW13893   0.331   2.377   6.284 -0.3680  0.5595  0.5680
 2722Sol     HW13894   0.260   2.441   6.274 -0.2357  0.3723 -1.9055
 2722Sol     HW13895   0.344   2.342   6.195  1.6356 -0.6729  1.3235
 2722Sol     MW13896   0.326   2.380   6.275 -0.9137  0.0033 -0.6317
 2723Sol     OW13897   3.242   3.042   9.418  0.2444  0.0307 -0.0619
 2723Sol     HW13898   3.259   2.962   9.467 -1.4542 -0.5173 -0.3457
 2723Sol     HW13899   3.168   3.021   9.361  0.5078  1.4534 -0.9718
 2723Sol     MW13900   3.237   3.033   9.417  0.2154  0.7570 -0.5689
 2724Sol     OW13901   0.907   0.241   3.495 -0.0244 -0.1733 -0.4010
 2724Sol     HW13902   0.902   0.147   3.484  0.9685 -0.3560  0.6105
 2724Sol     HW13903   1.000   0.262   3.484 -0.3340  0.7816 -1.3313
 2724Sol     MW13904   0.915   0.235   3.493 -0.2819  0.3594 -0.0471
 2725Sol     OW13905   2.428   0.084   7.680  0.5395  0.1413  0.0272
 2725Sol     HW13906   2.440   0.149   7.611 -1.0745  2.0951  1.5495
 2725Sol     HW13907   2.373   0.017   7.640 -0.0440  1.0573 -0.7304
 2725Sol     MW13908   2.424   0.084   7.670  0.3807  0.5200 -0.3805
 2726Sol     OW13909   0.199   2.366   5.479  0.6985 -0.8954  0.1767
 2726Sol     HW13910   0.172   2.457   5.479  0.6288 -0.9168  0.0519
 2726Sol     HW13911   0.163   2.330   5.560  1.3907 -0.6117  0.6188
 2726Sol     MW13912   0.194   2.371   5.487 -0.0513 -0.3776  0.5731
 2727Sol     OW13913   2.695   1.102   7.996  0.1457  0.2087 -0.6706
 2727Sol     HW13914   2.712   1.071   8.086  1.9671 -0.3054 -1.1654
 2727Sol     HW13915   2.612   1.149   8.002  0.7439  1.0480  1.5032
 2727Sol     MW13916   2.689   1.103   8.005  0.2033  0.1858  0.4425
 2728Sol     OW13917   0.253   3.371   2.923 -0.1510 -0.0025 -0.2810
 2728Sol     HW13918   0.322   3.400   2.982 -1.5118 -0.5496  1.6123
 2728Sol     HW13919   0.240   3.278   2.945 -1.0095 -0.0798 -1.1029
 2728Sol     MW13920   0.258   3.365   2.930 -0.0091 -0.3166 -0.4738
 2729Sol     OW13921   2.298   1.510   3.213  0.1147  0.7606  0.0167
 2729Sol     HW13922   2.348   1.563   3.152 -0.0629  0.2089 -0.6080
 2729Sol     HW13923   2.308   1.555   3.297  2.4625  0.1328  0.1142
 2729Sol     MW13924   2.303   1.518   3.215  0.1156 -0.0082 -0.3870
 2730Sol     OW13925   1.177   3.061   4.099 -0.1991 -0.1994  0.1967
 2730Sol     HW13926   1.205   3.084   4.010 -0.7466  1.0035  0.3291
 2730Sol     HW13927   1.198   3.138   4.152 -3.1122  0.5373  0.4213
 2730Sol     MW13928   1.181   3.070   4.096 -0.1411 -0.0977 -0.1998
 2731Sol     OW13929   0.952   3.075   6.898  0.4244 -0.0536 -0.6306
 2731Sol     HW13930   0.909   3.119   6.824 -1.1694 -0.2320  0.1651
 2731Sol     HW13931   0.928   2.983   6.888  0.7660 -0.1828 -0.2582
 2731Sol     MW13932   0.946   3.071   6.890  0.2496 -0.1571  0.0001
 2732Sol     OW13933   2.457   0.331   4.522  0.7418  0.1746 -0.1760
 2732Sol     HW13934   2.439   0.343   4.616  0.1271 -0.3038 -0.2325
 2732Sol     HW13935   2.552   0.338   4.515  0.7706  0.4709  0.4477
 2732Sol     MW13936   2.464   0.333   4.530 -0.0902  0.1896  0.0966
 2733Sol     OW13937   2.592   2.818   7.341 -0.4824  0.3116 -0.6350
 2733Sol     HW13938   2.577   2.736   7.294 -1.8230  0.5357 -0.6218
 2733Sol     HW13939   2.685   2.817   7.364 -0.0060 -0.1824 -2.5557
 2733Sol     MW13940   2.599   2.811   7.339  0.5110  0.0568 -0.2429
 2734Sol     OW13941   3.153   1.915   2.786  0.3884  0.1841  0.1326
 2734Sol     HW13942   3.142   1.831   2.740  0.3261  0.3491 -0.1552
 2734Sol     HW13943   3.165   1.891   2.878 -1.6206 -0.0381  0.3609
 2734Sol     MW13944   3.153   1.905   2.790 -0.3333  0.0881  0.1479
 2735Sol     OW13945   0.656   2.574   3.345 -0.0704 -0.3052  0.2499
 2735Sol     HW13946   0.631   2.484   3.366  1.7267 -0.2728  2.7422
 2735Sol     HW13947   0.751   2.574   3.345 -0.0196  0.9795 -2.7027
 2735Sol     MW13948   0.662   2.566   3.347 -0.3983  0.1172  0.1731
 2736Sol     OW13949   1.167   2.253   3.157 -0.1853 -0.2782 -0.1087
 2736Sol     HW13950   1.133   2.337   3.125 -1.7441 -0.9284 -0.1924
 2736Sol     HW13951   1.194   2.207   3.078  1.0531  0.3064 -0.0288
 2736Sol     MW13952   1.166   2.256   3.147 -0.3970  0.4124 -0.0710
 2737Sol     OW13953   0.909   0.207   4.879  0.0730  0.3277  0.7560
 2737Sol     HW13954   0.867   0.125   4.856  1.4914  0.0007 -0.7614
 2737Sol     HW13955   0.841   0.274   4.867 -1.0486 -0.5850  1.8905
 2737Sol     MW13956   0.899   0.206   4.876  0.2711 -0.1687 -0.1712
 2738Sol     OW13957   1.601   1.515   7.224  0.0540  0.2578  0.1981
 2738Sol     HW13958   1.599   1.588   7.287  0.1022  1.6501 -1.3636
 2738Sol     HW13959   1.683   1.471   7.241  0.0171  0.5486  1.1901
 2738Sol     MW13960   1.608   1.518   7.231  0.4950 -0.7743 -0.2593
 2739Sol     OW13961   3.321   2.119   5.206 -0.1867  0.0320  0.2725
 2739Sol     HW13962   3.286   2.034   5.235 -0.2573  0.8126  2.6400
 2739Sol     HW13963   3.248   2.179   5.218  0.6400  0.8871  1.0749
 2739Sol     MW13964   3.311   2.117   5.210  0.3842  0.2847 -0.1288
 2740Sol     OW13965   2.152   2.689   8.192 -0.2017 -0.0312  0.6736
 2740Sol     HW13966   2.111   2.700   8.106 -1.4939 -1.0368  1.1556
 2740Sol     HW13967   2.204   2.609   8.183  1.0270  0.7861  0.3219
 2740Sol     MW13968   2.153   2.683   8.183 -0.1571 -0.0684  0.0885
 2741Sol     OW13969   2.923   2.397   3.623 -0.1235 -0.4393 -0.7058
 2741Sol     HW13970   2.957   2.308   3.632 -1.0564 -0.6818  0.6476
 2741Sol     HW13971   2.960   2.429   3.541 -1.1062 -2.6714 -2.0593
 2741Sol     MW13972   2.929   2.392   3.617  0.2608 -0.1691 -0.4218
 2742Sol     OW13973   0.235   2.452   9.226 -0.1461  0.9247  1.1141
 2742Sol     HW13974   0.166   2.475   9.288 -2.3886 -0.0605 -0.9246
 2742Sol     HW13975   0.224   2.358   9.211  2.6182  0.4474  1.8668
 2742Sol     MW13976   0.228   2.446   9.230 -0.0952  0.2276 -0.3940
 2743Sol     OW13977   0.136   3.184   8.947 -0.0449 -0.3756 -0.1339
 2743Sol     HW13978   0.078   3.257   8.965  0.3301 -0.2535  0.5772
 2743Sol     HW13979   0.118   3.121   9.016  0.8428 -0.2309  0.2369
 2743Sol     MW13980   0.129   3.185   8.955  0.0581  0.0505 -0.2729
 2744Sol     OW13981   0.298   2.085   2.808  0.3109 -1.0152  0.5216
 2744Sol     HW13982   0.326   2.097   2.899 -0.4277 -1.5945  0.8367
 2744Sol     HW13983   0.205   2.110   2.809  0.0088 -2.0878  0.1774
 2744Sol     MW13984   0.292   2.088   2.816  0.2705 -0.0252 -0.4991
 2745Sol     OW13985   0.609   0.983   5.904  0.0143 -0.0155 -0.5756
 2745Sol     HW13986   0.548   0.942   5.843  0.3697 -2.1867  0.4704
 2745Sol     HW13987   0.557   0.999   5.982  0.0855  0.7820 -0.6884
 2745Sol     MW13988   0.599   0.980   5.906 -0.1367  0.5763 -0.1652
 2746Sol     OW13989   0.499   2.394   3.012  0.0099  0.0537 -0.1974
 2746Sol     HW13990   0.421   2.380   2.959  1.1376 -1.4784 -1.4974
 2746Sol     HW13991   0.508   2.314   3.064  0.1042  0.6735  0.7554
 2746Sol     MW13992   0.493   2.386   3.012 -0.1451  0.3922  0.0802
 2747Sol     OW13993   1.987   0.430   6.857 -0.2971  0.0908 -0.1870
 2747Sol     HW13994   2.073   0.443   6.895 -1.3815  0.4293  2.2273
 2747Sol     HW13995   1.947   0.360   6.910 -1.6852  0.2553 -0.9769
 2747Sol     MW13996   1.991   0.425   6.865  0.3000  0.1746 -0.2863
 2748Sol     OW13997   1.362   0.483  10.011 -0.6223  0.0584  0.3522
 2748Sol     HW13998   1.296   0.492   9.942 -0.4160  1.1107  0.2905
 2748Sol     HW13999   1.335   0.404  10.059 -0.8026 -0.6404 -0.8733
 2748Sol     MW14000   1.353   0.477  10.009 -0.2637  0.1307  0.1636
 2749Sol     OW14001   2.382   2.373   2.724 -0.0535 -0.0790 -0.2108
 2749Sol     HW14002   2.292   2.402   2.740 -0.6730 -2.2447  0.4012
 2749Sol     HW14003   2.385   2.352   2.631  0.0420  0.7372 -0.3930
 2749Sol     MW14004   2.375   2.374   2.717  0.1809 -0.8723 -0.2089
 2750Sol     OW14005   0.751   2.748   3.016 -0.2235 -0.3424  0.1102
 2750Sol     HW14006   0.659   2.734   3.038  0.0393 -1.8667  0.2727
 2750Sol     HW14007   0.791   2.773   3.099 -0.7830  1.9797 -0.2734
 2750Sol     MW14008   0.746   2.749   3.025 -0.0199 -0.7106 -0.2578
 2751Sol     OW14009   2.013   0.746   2.274 -0.1494 -0.3640 -0.6398
 2751Sol     HW14010   2.030   0.832   2.237  0.9658 -1.0144 -1.6780
 2751Sol     HW14011   2.082   0.734   2.339 -0.5546 -0.3093 -0.1925
 2751Sol     MW14012   2.021   0.752   2.277 -0.4469 -0.0519  0.1818
 2752Sol     OW14013   1.909   0.593   8.619  0.5108  0.8419  0.6165
 2752Sol     HW14014   1.857   0.617   8.696 -0.5445  0.2731  0.0912
 2752Sol     HW14015   1.847   0.551   8.560  1.3046  1.3263 -0.5766
 2752Sol     MW14016   1.899   0.591   8.621  0.1077 -0.1049  0.2543
 2753Sol     OW14017   1.094   1.015   2.077 -0.0970  0.2410 -0.2810
 2753Sol     HW14018   1.067   1.102   2.046 -0.8183  0.0875 -0.0896
 2753Sol     HW14019   1.105   1.025   2.172 -1.0356 -0.0876 -0.1300
 2753Sol     MW14020   1.093   1.024   2.083 -0.2682 -0.0056 -0.4866
 2754Sol     OW14021   2.666   0.412   2.280 -0.2167  0.0335 -0.2987
 2754Sol     HW14022   2.744   0.409   2.335  0.4873  0.6180 -1.2550
 2754Sol     HW14023   2.650   0.320   2.256 -0.9771 -0.3285  1.4636
 2754Sol     MW14024   2.671   0.403   2.283  0.1856 -0.2982  0.1524
 2755Sol     OW14025   2.477   2.838   9.497 -0.1854  0.2649  0.5240
 2755Sol     HW14026   2.459   2.874   9.584 -0.9686 -0.1774  0.5551
 2755Sol     HW14027   2.396   2.854   9.448  0.3220  0.6844 -0.1804
 2755Sol     MW14028   2.468   2.842   9.501  0.6050  0.6869 -0.0257
 2756Sol     OW14029   1.942   2.507   6.753  0.1360 -0.1737 -0.0025
 2756Sol     HW14030   1.859   2.489   6.710  0.0628  0.4765 -0.1382
 2756Sol     HW14031   2.005   2.513   6.681  0.3465 -0.9335  0.1209
 2756Sol     MW14032   1.940   2.506   6.743 -0.2741  0.1082 -0.3864
 2757Sol     OW14033   0.912   2.464   7.947  0.1957  0.5031  0.0287
 2757Sol     HW14034   0.831   2.478   7.898  0.4333 -1.0770 -0.8692
 2757Sol     HW14035   0.953   2.389   7.903  2.6297  1.9038 -0.1656
 2757Sol     MW14036   0.908   2.459   7.939  0.4471 -0.1188 -0.0608
 2758Sol     OW14037   0.962   2.182   3.301  0.2738  0.0022 -0.0658
 2758Sol     HW14038   1.033   2.214   3.245  1.0918 -1.9333 -0.1555
 2758Sol     HW14039   1.003   2.162   3.385 -0.1116 -1.3329 -0.1829
 2758Sol     MW14040   0.972   2.183   3.303  0.3311  0.3788 -0.1782
 2759Sol     OW14041   2.497   1.974   8.728  0.0977  0.0507  0.2862
 2759Sol     HW14042   2.465   1.966   8.638 -1.0474 -1.2868  0.7771
 2759Sol     HW14043   2.560   2.046   8.726  0.7468 -0.5552 -1.7587
 2759Sol     MW14044   2.499   1.980   8.720  0.5394 -0.7966 -0.3950
 2760Sol     OW14045   0.451   1.935   5.736  0.0478 -0.5937 -0.1943
 2760Sol     HW14046   0.516   2.004   5.724 -0.3824 -0.1880 -0.2009
 2760Sol     HW14047   0.369   1.982   5.751 -0.1885 -1.1036  0.1166
 2760Sol     MW14048   0.450   1.946   5.737 -0.1225  0.5740  0.4853
 2761Sol     OW14049   1.767   1.118   1.659 -0.4164  0.4224 -0.0646
 2761Sol     HW14050   1.809   1.059   1.597  2.1429  2.4903 -0.4140
 2761Sol     HW14051   1.766   1.069   1.742  0.6923 -0.4960 -0.5825
 2761Sol     MW14052   1.771   1.108   1.661  0.9821 -0.2101  0.0898
 2762Sol     OW14053   0.142   2.299   3.932  0.2592  0.0215 -0.1542
 2762Sol     HW14054   0.234   2.323   3.919  0.5839  0.0061  2.0296
 2762Sol     HW14055   0.141   2.203   3.930  0.2150  0.0318 -0.6532
 2762Sol     MW14056   0.150   2.293   3.930 -0.2449 -0.2197 -0.0812
 2763Sol     OW14057   1.602   1.554   3.293 -0.0888 -0.1349  0.5105
 2763Sol     HW14058   1.582   1.631   3.239 -0.4302 -0.9749 -0.5867
 2763Sol     HW14059   1.657   1.500   3.237  1.8379  0.2221  1.9979
 2763Sol     MW14060   1.605   1.556   3.283  0.4799  0.1916 -0.6558
 2764Sol     OW14061   0.875   1.220   9.351 -0.2969 -0.3278 -0.6888
 2764Sol     HW14062   0.944   1.168   9.310 -0.4388 -0.0020 -1.3513
 2764Sol     HW14063   0.917   1.259   9.428  0.6257  0.8523 -1.7482
 2764Sol     MW14064   0.885   1.219   9.354 -0.5067 -0.7492  0.2117
 2765Sol     OW14065   1.843   0.052   2.007  0.1372  0.1078  0.1668
 2765Sol     HW14066   1.751   0.039   1.982  0.1669  0.4043 -0.0935
 2765Sol     HW14067   1.882  -0.035   1.995 -0.2655 -0.1835  0.9440
 2765Sol     MW14068   1.838   0.043   2.003 -0.1621  0.1635  0.5640
 2766Sol     OW14069   1.725   1.737   2.595 -0.5611  0.6682 -0.5951
 2766Sol     HW14070   1.711   1.667   2.659 -1.9069  2.0213  0.6249
 2766Sol     HW14071   1.771   1.806   2.644 -1.8598  1.8353 -0.9975
 2766Sol     MW14072   1.728   1.737   2.605 -0.2393  0.5697  0.3656
 2767Sol     OW14073   1.567   1.533   6.333  0.6959 -0.3579  0.2255
 2767Sol     HW14074   1.564   1.593   6.259  0.2665  0.1032  0.6083
 2767Sol     HW14075   1.628   1.465   6.307  0.9938  0.1140 -0.3179
 2767Sol     MW14076   1.572   1.533   6.324  0.5423  0.0993  0.2529
 2768Sol     OW14077   2.683   1.730   3.697  0.6411 -0.3544  0.2817
 2768Sol     HW14078   2.722   1.694   3.617  1.2462  1.6354 -0.3495
 2768Sol     HW14079   2.705   1.823   3.695 -3.8827  0.8257  0.0708
 2768Sol     MW14080   2.689   1.735   3.690  0.1677 -0.7771  0.0024
 2769Sol     OW14081   2.448   2.930   2.188 -0.1898 -0.3294  0.1109
 2769Sol     HW14082   2.471   2.845   2.149  1.1001 -0.2528  0.6584
 2769Sol     HW14083   2.365   2.914   2.233 -0.5600 -0.9921 -0.7874
 2769Sol     MW14084   2.443   2.921   2.188 -0.1990  0.4339  0.2331
 2770Sol     OW14085   0.947   0.059   5.463  0.3244 -0.3925  0.2392
 2770Sol     HW14086   0.917   0.114   5.536 -0.5098  0.1096 -0.4731
 2770Sol     HW14087   1.029   0.021   5.495  0.6750  0.8860  0.9400
 2770Sol     MW14088   0.952   0.061   5.473  0.3570  0.3279 -0.2503
 2771Sol     OW14089   1.964   3.340   8.508 -0.0428  0.1710  0.2237
 2771Sol     HW14090   1.894   3.319   8.446  0.7585 -2.6454  0.2297
 2771Sol     HW14091   1.941   3.292   8.587  1.5521 -0.2309  0.4572
 2771Sol     MW14092   1.955   3.334   8.509 -0.1866  0.0145  0.0947
 2772Sol     OW14093   2.660   0.023   7.323 -0.1098 -0.3870  0.5177
 2772Sol     HW14094   2.653  -0.040   7.252 -1.6901 -2.2075  2.2117
 2772Sol     HW14095   2.745   0.006   7.363  0.2222 -0.2263 -0.1062
 2772Sol     MW14096   2.667   0.016   7.320  1.0433  0.4310 -0.1958
 2773Sol     OW14097   2.967   2.563   7.785 -0.4221  0.2924 -0.0045
 2773Sol     HW14098   3.038   2.623   7.765 -1.1235  1.1375  0.0169
 2773Sol     HW14099   3.008   2.493   7.836  0.5495  0.3350 -0.7277
 2773Sol     MW14100   2.977   2.562   7.788 -0.4312  0.9112  0.0875
 2774Sol     OW14101   0.429   1.817   8.135 -0.2978 -0.2418 -0.3588
 2774Sol     HW14102   0.335   1.806   8.122 -0.6151  0.8968  0.8610
 2774Sol     HW14103   0.467   1.734   8.105 -1.6546 -0.6031 -1.1278
 2774Sol     MW14104   0.424   1.808   8.131  0.1765  0.3445 -0.1298
 2775Sol     OW14105   2.222   2.252   3.271  0.2050  0.8695  0.4482
 2775Sol     HW14106   2.152   2.308   3.236  1.7963  2.0998 -0.8375
 2775Sol     HW14107   2.216   2.171   3.219  0.9550  1.7176 -0.9669
 2775Sol     MW14108   2.215   2.249   3.263  0.2843 -0.2671 -0.4485
 2776Sol     OW14109   1.847   0.213   4.337 -0.2654  0.4116  0.1216
 2776Sol     HW14110   1.919   0.186   4.395 -0.9251 -0.1007  0.7156
 2776Sol     HW14111   1.873   0.299   4.305  1.2644 -0.3715 -0.7711
 2776Sol     MW14112   1.856   0.218   4.340  0.0791 -0.3992 -0.1285
 2777Sol     OW14113   0.102   3.342   2.483  0.8083 -0.2587  0.7308
 2777Sol     HW14114   0.070   3.416   2.533 -0.1918 -0.4405  0.3577
 2777Sol     HW14115   0.028   3.282   2.476  0.6916  0.1275 -1.6560
 2777Sol     MW14116   0.093   3.343   2.487 -0.0206 -0.5174 -0.4724
 2778Sol     OW14117   0.168   2.004   4.540 -0.2477 -0.4750 -0.2612
 2778Sol     HW14118   0.162   2.002   4.444  0.7813 -0.6628 -0.3249
 2778Sol     HW14119   0.260   1.987   4.559 -0.1151  1.2441  0.7248
 2778Sol     MW14120   0.175   2.002   4.533 -1.3408 -0.3766  0.2057
 2779Sol     OW14121   1.100   0.285   9.818  0.3924  0.6275 -0.6142
 2779Sol     HW14122   1.160   0.285   9.892 -2.1812  2.1818  1.5752
 2779Sol     HW14123   1.114   0.371   9.777  0.2307  0.6694 -0.5805
 2779Sol     MW14124   1.107   0.293   9.821 -0.2833  0.4867 -0.0897
 2780Sol     OW14125   0.240   2.243   2.374 -0.4267  0.2348 -0.2211
 2780Sol     HW14126   0.279   2.156   2.370 -0.7278  0.1166 -0.6561
 2780Sol     HW14127   0.313   2.303   2.362 -0.0842  0.0628  0.9950
 2780Sol     MW14128   0.250   2.241   2.372 -0.0435  0.1160 -0.3330
 2781Sol     OW14129   1.985   2.587   2.361  0.5345 -0.1495 -0.1394
 2781Sol     HW14130   2.063   2.612   2.411  1.6542 -1.3391 -1.2788
 2781Sol     HW14131   1.989   2.640   2.282  1.3439 -1.7735 -1.1956
 2781Sol     MW14132   1.993   2.594   2.359  0.7067  0.1364 -0.1676
 2782Sol     OW14133   1.745   1.745   8.208  0.5829  0.2186  0.5858
 2782Sol     HW14134   1.759   1.775   8.298 -0.3580 -0.3089  0.9021
 2782Sol     HW14135   1.652   1.758   8.192  0.6158 -0.3474 -0.0799
 2782Sol     MW14136   1.738   1.749   8.215 -0.1141 -0.0090  0.9463
 2783Sol     OW14137   2.384   2.076   2.494  0.3037  0.5367 -0.1535
 2783Sol     HW14138   2.305   2.129   2.491 -1.1073 -1.6276 -3.2981
 2783Sol     HW14139   2.455   2.136   2.470 -0.7780  1.7916 -0.2286
 2783Sol     MW14140   2.383   2.086   2.492  0.7834 -0.5835  0.2161
 2784Sol     OW14141   2.749   0.916   5.963 -0.2020 -0.3121  0.8028
 2784Sol     HW14142   2.813   0.852   5.996  1.0324  0.5958  0.2222
 2784Sol     HW14143   2.797   0.999   5.961 -0.4755 -0.1610 -2.5092
 2784Sol     MW14144   2.759   0.918   5.966  0.1604 -0.0519  0.8448
 2785Sol     OW14145   1.793   0.731   8.334  0.6559 -0.0800 -0.3505
 2785Sol     HW14146   1.773   0.786   8.410  0.6026  0.4156 -0.7208
 2785Sol     HW14147   1.880   0.697   8.351  0.9482  0.6317 -0.4243
 2785Sol     MW14148   1.799   0.733   8.343 -0.0339 -0.1598 -0.4015
 2786Sol     OW14149   1.825   1.554   1.504 -0.4631  0.2242 -0.2497
 2786Sol     HW14150   1.765   1.620   1.540 -1.4463 -0.6621 -0.2177
 2786Sol     HW14151   1.843   1.584   1.415 -0.0853  1.0710  0.1033
 2786Sol     MW14152   1.821   1.563   1.500 -0.3956 -0.5236 -0.4403
 2787Sol     OW14153   2.390   2.378   2.433 -0.0627 -0.1619  0.1776
 2787Sol     HW14154   2.409   2.463   2.394 -0.1887 -0.4885 -0.6030
 2787Sol     HW14155   2.302   2.356   2.401  0.8943 -1.6607 -1.5664
 2787Sol     MW14156   2.384   2.383   2.426  0.1468 -0.6783  0.1193
 2788Sol     OW14157   2.927   1.788   1.921  0.0840  0.1741  0.4487
 2788Sol     HW14158   3.005   1.842   1.910  1.4685 -1.4505  1.8238
 2788Sol     HW14159   2.885   1.821   2.001  0.7239 -0.5040  1.0775
 2788Sol     MW14160   2.930   1.796   1.928 -0.2441 -0.3324  0.5064
 2789Sol     OW14161   1.519   0.822   9.628 -0.5438 -0.2990  0.3406
 2789Sol     HW14162   1.533   0.776   9.711 -0.7972 -2.0193 -0.5466
 2789Sol     HW14163   1.519   0.915   9.652 -1.1189 -0.7831  2.3397
 2789Sol     MW14164   1.520   0.827   9.638  0.2680 -0.4318  0.1483
 2790Sol     OW14165   0.347   1.258   8.454 -0.0293 -0.0629  0.8500
 2790Sol     HW14166   0.355   1.263   8.358 -0.8694 -1.0254  0.7256
 2790Sol     HW14167   0.280   1.323   8.475  0.6496  0.6453  0.8647
 2790Sol     MW14168   0.342   1.264   8.447  0.6504 -0.6983  0.3101
 2791Sol     OW14169   0.932   1.091   3.754 -0.0813  0.2419 -0.0043
 2791Sol     HW14170   0.893   1.004   3.769  0.7706 -0.4476 -1.6807
 2791Sol     HW14171   0.892   1.146   3.821 -1.8261 -1.0836  0.0965
 2791Sol     MW14172   0.924   1.088   3.761 -0.3597  0.0231 -0.4473
 2792Sol     OW14173   2.645   2.742   3.171 -0.0188  0.2452  0.2677
 2792Sol     HW14174   2.724   2.721   3.121  0.4998  2.0842  0.2746
 2792Sol     HW14175   2.673   2.741   3.262  0.2311  1.8084  0.2183
 2792Sol     MW14176   2.654   2.740   3.174 -0.4529 -0.5641  0.0709
 2793Sol     OW14177   0.252   0.394   7.092 -0.5119 -0.1052  0.1278
 2793Sol     HW14178   0.227   0.451   7.019 -0.2877 -2.0303 -1.5059
 2793Sol     HW14179   0.262   0.453   7.166 -0.3652  1.9621 -1.4845
 2793Sol     MW14180   0.251   0.404   7.092 -0.6505 -0.7274 -0.4194
 2794Sol     OW14181   1.354   1.218   6.072  0.2299 -0.1862  0.2331
 2794Sol     HW14182   1.449   1.229   6.068  0.1014  1.7896  1.5015
 2794Sol     HW14183   1.320   1.306   6.053 -1.5198 -1.8799 -5.0877
 2794Sol     MW14184   1.360   1.227   6.070 -0.2107  0.3158  0.1826
 2795Sol     OW14185   2.481   3.449   2.993  0.0710 -0.1913  0.3519
 2795Sol     HW14186   2.448   3.444   2.903  0.5521  0.3323  0.1397
 2795Sol     HW14187   2.530   3.368   3.005  1.3951  0.4687 -0.4330
 2795Sol     MW14188   2.483   3.442   2.986  0.0748 -0.3042  0.9682
 2796Sol     OW14189   2.966   0.525   2.789  0.0117 -0.3553 -0.7457
 2796Sol     HW14190   2.949   0.522   2.883  0.9142  0.2659 -0.5502
 2796Sol     HW14191   2.925   0.446   2.754 -2.5512  0.7195 -0.2156
 2796Sol     MW14192   2.961   0.518   2.794  0.0490 -0.6445 -0.1512
 2797Sol     OW14193   3.108   2.559   2.878  0.2341 -0.1242  0.0874
 2797Sol     HW14194   3.056   2.630   2.839 -1.7278 -1.4203  0.2625
 2797Sol     HW14195   3.077   2.554   2.968  1.9854  0.2816  0.7254
 2797Sol     MW14196   3.100   2.565   2.882 -0.0528  0.1335 -0.1157
 2798Sol     OW14197   3.181   1.892   1.922 -0.3614 -0.2532 -0.1460
 2798Sol     HW14198   3.201   1.931   1.837  0.6005 -1.2051 -0.3727
 2798Sol     HW14199   3.264   1.852   1.949 -0.9915 -1.0025  0.6690
 2798Sol     MW14200   3.190   1.892   1.916 -0.6864  0.5593  0.3305
 2799Sol     OW14201   1.065   1.944   1.780  0.5407  0.0322  0.2971
 2799Sol     HW14202   1.152   1.968   1.814 -0.1914 -0.4026  2.6005
 2799Sol     HW14203   1.024   1.898   1.853 -1.9463  0.9829 -0.4737
 2799Sol     MW14204   1.069   1.942   1.790  0.1070 -0.1223 -0.0703
 2800Sol     OW14205   1.918   3.400   6.107  0.0737  0.1757 -0.6236
 2800Sol     HW14206   1.882   3.368   6.025  0.3564 -0.5268 -0.4726
 2800Sol     HW14207   1.881   3.343   6.174 -0.0103  0.6292 -0.2736
 2800Sol     MW14208   1.911   3.392   6.106  0.3006 -0.4144  0.0332
 2801Sol     OW14209   0.005   2.907   8.212 -0.6426 -0.2802 -0.3773
 2801Sol     HW14210   0.042   2.931   8.297 -0.1082  0.0461 -0.6980
 2801Sol     HW14211  -0.089   2.916   8.224 -0.5865 -0.4850  0.2589
 2801Sol     MW14212   0.000   2.910   8.221  0.4644  0.4554 -0.3747
 2802Sol     OW14213   1.555   1.890   6.384 -0.6627  0.2373  0.1565
 2802Sol     HW14214   1.574   1.840   6.304 -1.9770 -1.1798  0.6988
 2802Sol     HW14215   1.632   1.877   6.439  1.3973  3.3326 -1.8453
 2802Sol     MW14216   1.564   1.884   6.382 -0.6057 -0.3747  0.1009
 2803Sol     OW14217   2.270   1.612   9.681 -0.6277  0.1058  0.0426
 2803Sol     HW14218   2.354   1.657   9.695 -0.3420  0.0521 -1.4207
 2803Sol     HW14219   2.249   1.575   9.766  0.4219  0.8455  0.6387
 2803Sol     MW14220   2.276   1.613   9.690 -0.7540  0.2398  0.0397
 2804Sol     OW14221   2.796   0.670   7.524  0.0478  0.5090 -0.6046
 2804Sol     HW14222   2.796   0.692   7.617  1.1031 -0.6256 -0.3208
 2804Sol     HW14223   2.723   0.720   7.487  0.8214  2.4710  0.4712
 2804Sol     MW14224   2.789   0.676   7.529 -0.2791  0.8508 -0.5824
 2805Sol     OW14225   0.964   2.490   4.024 -0.6687  0.2867  0.0763
 2805Sol     HW14226   0.942   2.572   3.981  1.8429  1.7474  1.4363
 2805Sol     HW14227   0.935   2.502   4.114  0.3305 -0.0211  0.4494
 2805Sol     MW14228   0.960   2.499   4.028 -0.5512 -0.0320  0.2156
 2806Sol     OW14229   3.135   3.298   4.311 -0.4255 -0.8233 -0.0334
 2806Sol     HW14230   3.074   3.319   4.382  0.6438 -2.0994  1.3036
 2806Sol     HW14231   3.204   3.364   4.318 -1.1833  0.0796 -0.9797
 2806Sol     MW14232   3.136   3.306   4.318 -0.6457  0.1746 -0.6312
 2807Sol     OW14233   0.450   0.074   4.567 -0.1217 -0.1336 -0.1177
 2807Sol     HW14234   0.426   0.054   4.658  0.5258  0.1620  0.1182
 2807Sol     HW14235   0.367   0.101   4.526 -0.6570 -1.4875  0.0478
 2807Sol     MW14236   0.440   0.075   4.572 -0.4937  0.2038  0.4460
 2808Sol     OW14237   2.087   3.022   7.941 -0.0197 -0.2582  0.5226
 2808Sol     HW14238   2.103   3.001   8.033  1.5892  0.9583  0.5447
 2808Sol     HW14239   2.146   3.095   7.923 -1.1726  0.2818 -1.1631
 2808Sol     MW14240   2.094   3.027   7.948 -0.3183  0.7684  0.0094
 2809Sol     OW14241   0.570   1.547   5.220  0.1868  0.0846 -0.0333
 2809Sol     HW14242   0.553   1.467   5.170 -0.6698  0.5697 -0.5479
 2809Sol     HW14243   0.497   1.552   5.282  0.8334 -0.1130  0.7397
 2809Sol     MW14244   0.562   1.541   5.221  0.0455 -0.4431 -0.1546
 2810Sol     OW14245   0.057   2.757   9.033  0.5785  0.3915  0.5762
 2810Sol     HW14246   0.041   2.718   8.946 -0.2740 -0.9859  1.3267
 2810Sol     HW14247   0.152   2.759   9.041  0.6604  0.0543 -0.1881
 2810Sol     MW14248   0.064   2.753   9.026 -0.6757  0.3828  0.3362
 2811Sol     OW14249   2.582   0.970   5.570 -0.1359 -0.0621 -0.0941
 2811Sol     HW14250   2.570   0.997   5.662 -0.5291 -0.8035  0.0823
 2811Sol     HW14251   2.676   0.975   5.556 -0.4011  4.3034 -0.9937
 2811Sol     MW14252   2.589   0.973   5.577  0.5189 -0.0099  0.7589
 2812Sol     OW14253   0.461   2.783   9.255 -0.0506 -0.6568  0.0465
 2812Sol     HW14254   0.411   2.759   9.177  2.1435 -0.1345 -1.5719
 2812Sol     HW14255   0.414   2.858   9.291 -0.4609 -0.1748 -1.4439
 2812Sol     MW14256   0.452   2.787   9.251  0.1530 -0.7951 -0.3054
 2813Sol     OW14257   2.323   0.937   5.544  0.2347  0.2859 -0.4730
 2813Sol     HW14258   2.311   0.872   5.475  1.2214  2.2167 -2.5374
 2813Sol     HW14259   2.417   0.939   5.558  0.1294  0.6622  0.1830
 2813Sol     MW14260   2.330   0.932   5.539 -0.5081 -0.0805 -0.3333
 2814Sol     OW14261   0.530   3.337   5.410  0.2121  0.4008 -0.0590
 2814Sol     HW14262   0.622   3.332   5.381  0.3487  0.6869  0.3201
 2814Sol     HW14263   0.504   3.246   5.424  0.6195  0.3558  0.3991
 2814Sol     MW14264   0.536   3.328   5.409 -0.5351 -0.1436 -0.0645
 2815Sol     OW14265   2.764   2.632   9.246  0.1600  0.4387 -0.5688
 2815Sol     HW14266   2.853   2.596   9.251 -1.2621 -3.2850 -0.3209
 2815Sol     HW14267   2.757   2.689   9.322  1.0089 -2.6012  1.8936
 2815Sol     MW14268   2.771   2.634   9.253 -0.0438  0.7578  0.6189
 2816Sol     OW14269   1.790   3.059   5.395 -0.5407 -0.2727  0.0040
 2816Sol     HW14270   1.878   3.082   5.425 -1.3848  1.9504  0.9366
 2816Sol     HW14271   1.752   3.143   5.369 -2.8851 -0.9968  0.9965
 2816Sol     MW14272   1.795   3.069   5.396  0.6089 -0.7634  0.6755
 2817Sol     OW14273   2.451   1.262   8.879  0.2444 -0.1659 -0.1697
 2817Sol     HW14274   2.371   1.214   8.856 -0.3770  2.0689 -2.8663
 2817Sol     HW14275   2.519   1.221   8.826  0.9698 -2.1018  2.1643
 2817Sol     MW14276   2.450   1.254   8.872 -0.2504 -0.0076 -0.6948
 2818Sol     OW14277   2.219   2.432   4.636 -0.1809 -0.2675  0.3770
 2818Sol     HW14278   2.235   2.505   4.576 -1.4268  0.2248  0.6241
 2818Sol     HW14279   2.137   2.393   4.604  0.0374 -1.0311  0.7565
 2818Sol     MW14280   2.213   2.435   4.627  0.0216  0.6744 -0.3001
 2819Sol     OW14281   2.795   2.920   2.675  0.0715  0.2879 -0.0438
 2819Sol     HW14282   2.713   2.958   2.707 -0.9079  0.2759 -2.4343
 2819Sol     HW14283   2.863   2.979   2.708 -0.9028  0.4887  1.6807
 2819Sol     MW14284   2.794   2.929   2.681 -0.3864  0.2275  0.1857
 2820Sol     OW14285   0.299   0.977   5.511 -0.0409 -0.2557 -0.4290
 2820Sol     HW14286   0.339   1.029   5.441  0.1984 -1.4228 -1.1757
 2820Sol     HW14287   0.209   1.010   5.517  0.1530  0.3494 -0.7850
 2820Sol     MW14288   0.294   0.985   5.505  0.1044 -0.2705 -0.4691
 2821Sol     OW14289   2.153   0.793   5.712 -0.2162 -0.4292 -0.7922
 2821Sol     HW14290   2.209   0.829   5.643 -0.5262  1.0271 -0.3161
 2821Sol     HW14291   2.065   0.795   5.675 -0.6378  1.9429  0.1834
 2821Sol     MW14292   2.150   0.797   5.703  0.0587 -0.8856  0.2982
 2822Sol     OW14293   3.199   2.769   7.972 -0.9354 -0.2072 -0.2974
 2822Sol     HW14294   3.256   2.707   7.927 -1.1884 -0.9894  0.4517
 2822Sol     HW14295   3.252   2.803   8.044 -0.6246  0.8336 -1.0096
 2822Sol     MW14296   3.209   2.767   7.974 -0.2708 -0.2047 -0.8145
 2823Sol     OW14297   1.776   2.769   7.220  0.0978  0.0522  0.2137
 2823Sol     HW14298   1.694   2.777   7.172  0.0372 -0.7706  0.1622
 2823Sol     HW14299   1.839   2.737   7.155 -0.2309 -2.0603  0.8885
 2823Sol     MW14300   1.774   2.767   7.210 -0.3057  0.2896  0.1093
 2824Sol     OW14301   0.735   1.655   6.859  0.2434 -0.1397 -0.2540
 2824Sol     HW14302   0.695   1.613   6.936  2.9689  1.0921  1.9412
 2824Sol     HW14303   0.772   1.582   6.809 -2.1227 -1.0194 -0.7664
 2824Sol     MW14304   0.735   1.645   6.862  0.6554  0.1957 -0.0697
 2825Sol     OW14305   1.299   3.165   8.633  0.3107  0.0064 -0.2044
 2825Sol     HW14306   1.372   3.213   8.595  0.7587 -0.1039  0.5264
 2825Sol     HW14307   1.331   3.075   8.643  1.1347  0.5930  2.9418
 2825Sol     MW14308   1.308   3.161   8.630  0.1815 -0.2079 -0.3465
 2826Sol     OW14309   3.072   2.950   6.024 -0.8124  0.2270  0.0538
 2826Sol     HW14310   3.092   2.922   5.935  1.0083  2.1650 -0.1748
 2826Sol     HW14311   3.122   2.889   6.079  0.9783  1.2437 -0.3811
 2826Sol     MW14312   3.078   2.942   6.021  0.1989  0.1218  0.1339
 2827Sol     OW14313   2.022   0.880   6.851 -0.0385  1.1414 -0.4690
 2827Sol     HW14314   1.973   0.807   6.814  0.6000 -1.1947  3.1335
 2827Sol     HW14315   2.108   0.874   6.809  0.7742 -1.6442  1.4903
 2827Sol     MW14316   2.025   0.873   6.844  0.1460  0.9179 -0.0553
 2828Sol     OW14317   1.653   2.189   1.699 -0.2645  0.0017 -0.1515
 2828Sol     HW14318   1.730   2.189   1.756  1.6973 -1.8808 -2.6917
 2828Sol     HW14319   1.626   2.280   1.695  1.0036  0.5113  1.8296
 2828Sol     MW14320   1.658   2.197   1.704 -0.2456  0.0848  0.2641
 2829Sol     OW14321   2.587   1.447   3.404  0.1737 -0.3761 -0.2546
 2829Sol     HW14322   2.635   1.415   3.328  1.2704 -0.9526  0.6681
 2829Sol     HW14323   2.530   1.374   3.428 -0.4687 -0.0476 -0.7535
 2829Sol     MW14324   2.586   1.437   3.399  0.2868  0.4842  0.1683
 2830Sol     OW14325   2.344   1.065   7.022  0.4978 -0.4144  0.2143
 2830Sol     HW14326   2.283   1.082   7.094  0.7005 -0.5106  0.4109
 2830Sol     HW14327   2.430   1.068   7.063  0.6297 -0.1831 -0.0840
 2830Sol     MW14328   2.346   1.066   7.032 -0.3945 -0.9124 -0.0510
 2831Sol     OW14329   3.159   0.439   1.784 -0.1029 -0.0108 -0.0208
 2831Sol     HW14330   3.114   0.399   1.710  0.7846 -0.0474 -0.5565
 2831Sol     HW14331   3.246   0.398   1.783 -0.8130 -1.6220  2.3574
 2831Sol     MW14332   3.163   0.432   1.777  0.2486 -0.0783 -0.4007
 2832Sol     OW14333   2.547   1.973   3.355 -0.4371  0.0670  0.0008
 2832Sol     HW14334   2.571   1.881   3.340 -1.7595 -0.1328 -1.0598
 2832Sol     HW14335   2.630   2.019   3.360  0.2778 -1.3353  1.5896
 2832Sol     MW14336   2.557   1.969   3.354 -0.0139  0.2608 -0.3245
 2833Sol     OW14337   1.128   0.253   5.374 -0.0393  0.1039  1.0399
 2833Sol     HW14338   1.120   0.259   5.279 -0.3758  0.9681  1.1203
 2833Sol     HW14339   1.061   0.190   5.400  0.3709 -0.4922  0.6572
 2833Sol     MW14340   1.122   0.248   5.368 -0.2231  0.3673  0.4208
 2834Sol     OW14341   1.730   1.850   7.385  0.1708 -0.2742  0.0392
 2834Sol     HW14342   1.749   1.870   7.294 -0.4179  1.7979  0.3406
 2834Sol     HW14343   1.649   1.798   7.382  0.7808 -1.1985 -0.6643
 2834Sol     MW14344   1.724   1.847   7.377  0.3737  0.3768  0.6309
 2835Sol     OW14345   2.664   0.966   3.195 -0.6098 -0.3767 -0.3204
 2835Sol     HW14346   2.675   1.001   3.283  0.4318  3.2488 -1.7968
 2835Sol     HW14347   2.747   0.923   3.175 -0.7049 -0.8506  0.3063
 2835Sol     MW14348   2.672   0.965   3.201 -0.0014 -0.0226 -0.2984
 2836Sol     OW14349   2.708   3.075   4.363  0.1528  0.0383  0.6641
 2836Sol     HW14350   2.741   3.115   4.444 -0.8150 -0.5074  1.3375
 2836Sol     HW14351   2.774   3.010   4.340  0.8655  0.8014  0.5303
 2836Sol     MW14352   2.717   3.073   4.368 -0.1648 -0.1712  0.0480
 2837Sol     OW14353   1.788   3.247   5.903 -0.5667 -0.1500 -0.6019
 2837Sol     HW14354   1.784   3.171   5.961  0.8719 -1.0367 -1.6254
 2837Sol     HW14355   1.714   3.236   5.843 -0.2831 -0.8363 -0.8316
 2837Sol     MW14356   1.781   3.239   5.902  0.0479  0.1245 -0.2099
 2838Sol     OW14357   3.243   3.042   4.405  0.0100  0.3763 -0.5116
 2838Sol     HW14358   3.194   3.123   4.391 -0.3780  0.2955  0.3434
 2838Sol     HW14359   3.310   3.065   4.469  0.4983  0.2499 -0.9723
 2838Sol     MW14360   3.245   3.051   4.409  0.5252 -0.2322 -0.2072
 2839Sol     OW14361   2.596   3.177   2.973 -0.5808 -0.3887  0.0326
 2839Sol     HW14362   2.557   3.091   2.989  0.0826 -0.6552  0.2584
 2839Sol     HW14363   2.621   3.176   2.881  2.0076 -1.5239  0.7021
 2839Sol     MW14364   2.595   3.169   2.966  1.1114 -0.5871  0.1856
 2840Sol     OW14365   1.941   1.663   7.886  0.0347 -0.0472 -0.1746
 2840Sol     HW14366   1.953   1.758   7.883 -0.6550  0.0644  0.3443
 2840Sol     HW14367   1.898   1.642   7.802  1.8251 -0.1565 -1.0752
 2840Sol     MW14368   1.938   1.669   7.878 -0.2515  0.0858 -0.0092
 2841Sol     OW14369   0.440   3.090   7.144  0.6201  0.2115 -0.1718
 2841Sol     HW14370   0.434   3.001   7.180 -0.8639  0.3016 -0.1657
 2841Sol     HW14371   0.503   3.083   7.073 -0.8340 -1.2593 -1.3475
 2841Sol     MW14372   0.445   3.081   7.141  0.6215 -0.1449  0.2378
 2842Sol     OW14373   1.717   2.072   4.250  0.4573 -0.3460  0.1308
 2842Sol     HW14374   1.667   1.996   4.222  0.1743 -0.2138  0.2729
 2842Sol     HW14375   1.782   2.037   4.311  1.3114 -0.6808 -0.9692
 2842Sol     MW14376   1.718   2.062   4.253 -0.1826  0.6354  0.2702
 2843Sol     OW14377   0.160   0.167   2.308 -0.0944  0.1935 -0.0016
 2843Sol     HW14378   0.168   0.073   2.293  1.5779  0.3299 -0.1406
 2843Sol     HW14379   0.208   0.182   2.389 -3.6221  0.3924  2.1383
 2843Sol     MW14380   0.165   0.160   2.314 -0.1030  0.1016  0.5914
 2844Sol     OW14381   2.865   1.974   3.970  0.3089  0.0463  0.5750
 2844Sol     HW14382   2.900   1.896   3.927 -0.1065  0.5143 -0.6443
 2844Sol     HW14383   2.936   2.038   3.965  0.4873 -0.1012  1.1674
 2844Sol     MW14384   2.874   1.973   3.966  0.0148 -0.1489  0.0062
 2845Sol     OW14385   1.388   1.338   7.198  0.1468 -0.9405  0.2296
 2845Sol     HW14386   1.464   1.397   7.196 -0.1068 -0.5568  1.8186
 2845Sol     HW14387   1.315   1.392   7.227 -0.2148 -1.9032  1.1377
 2845Sol     MW14388   1.389   1.348   7.200  0.3095  0.2772  0.7474
 2846Sol     OW14389   0.949   1.057   9.833 -0.2445  0.3694  0.2107
 2846Sol     HW14390   1.031   1.079   9.788 -0.4419 -0.9033 -0.8128
 2846Sol     HW14391   0.960   0.966   9.859 -1.1848  0.3164  0.4268
 2846Sol     MW14392   0.957   1.051   9.831 -0.1107  0.4187  0.8078
 2847Sol     OW14393   0.200   2.178   6.586 -0.2918  0.2646  0.1842
 2847Sol     HW14394   0.258   2.167   6.511  0.6991  0.9200  0.8506
 2847Sol     HW14395   0.135   2.241   6.557  0.4444  0.9849  0.0789
 2847Sol     MW14396   0.199   2.182   6.577  0.2675 -0.0564  0.0593
 2848Sol     OW14397   1.321   2.648   4.708 -0.0945 -0.0540  0.3710
 2848Sol     HW14398   1.248   2.586   4.705  0.6897 -0.9288 -1.0087
 2848Sol     HW14399   1.394   2.599   4.745  0.4571  0.1145 -0.4766
 2848Sol     MW14400   1.321   2.638   4.711  0.1996 -0.0418 -0.3766
 2849Sol     OW14401   3.302   2.141   4.674 -0.3802 -0.0946  0.0742
 2849Sol     HW14402   3.298   2.235   4.657  1.0479  0.2523  1.5243
 2849Sol     HW14403   3.378   2.111   4.625  0.7670  0.0153  1.7502
 2849Sol     MW14404   3.308   2.147   4.668  0.3476 -0.0963  0.4695
 2850Sol     OW14405   0.158   1.730   6.833  0.5417  0.0454  0.1461
 2850Sol     HW14406   0.230   1.767   6.884  0.8871  1.9673 -1.6665
 2850Sol     HW14407   0.192   1.727   6.743 -1.0547 -0.6343 -0.4468
 2850Sol     MW14408   0.168   1.733   6.829  0.7733 -0.7689  0.0259
 2851Sol     OW14409   3.282   0.997   5.968  0.2110 -0.3252  0.5140
 2851Sol     HW14410   3.297   0.944   6.046 -0.1696  0.7481  1.3306
 2851Sol     HW14411   3.248   1.080   6.002  1.8248  0.8410 -0.6807
 2851Sol     MW14412   3.280   1.000   5.978  0.0486 -0.6211 -0.0385
 2852Sol     OW14413   2.690   0.382   5.420  0.1416 -0.4191  0.3585
 2852Sol     HW14414   2.760   0.348   5.363  1.0542  0.1540  1.1195
 2852Sol     HW14415   2.679   0.315   5.486 -0.8274 -1.0249 -0.4072
 2852Sol     MW14416   2.695   0.373   5.420 -0.3477 -0.2360  0.0343
 2853Sol     OW14417   1.383   0.832   5.698 -0.4351  0.0619 -0.2204
 2853Sol     HW14418   1.293   0.803   5.711 -0.6788 -0.0378 -2.0021
 2853Sol     HW14419   1.394   0.905   5.759 -1.4273 -0.4906  0.6385
 2853Sol     MW14420   1.376   0.836   5.705  0.6529  0.5174  0.4196
 2854Sol     OW14421   1.343   1.206   8.017 -0.3086  0.2882 -0.5532
 2854Sol     HW14422   1.366   1.200   8.110  2.6933 -0.2119 -1.2459
 2854Sol     HW14423   1.366   1.296   7.993  3.8055 -0.9799 -1.8806
 2854Sol     MW14424   1.347   1.213   8.024 -0.1952  0.3224 -0.1104
 2855Sol     OW14425   2.665   2.552   4.767 -0.1185  0.1655  0.0839
 2855Sol     HW14426   2.680   2.459   4.753 -0.6663  0.1700 -0.5209
 2855Sol     HW14427   2.571   2.564   4.753  0.1348  1.0087 -0.9498
 2855Sol     MW14428   2.657   2.545   4.765 -0.2687  0.2911  0.7373
 2856Sol     OW14429   0.185   1.478   6.486 -0.1318  0.2464 -0.3161
 2856Sol     HW14430   0.155   1.434   6.566 -0.8464  1.6353  0.2071
 2856Sol     HW14431   0.190   1.409   6.421 -0.4074 -0.7584  0.7073
 2856Sol     MW14432   0.183   1.468   6.488  0.1959 -0.4196  0.0862
 2857Sol     OW14433   0.354   0.239   3.058  0.5565 -0.3739  0.6896
 2857Sol     HW14434   0.441   0.266   3.089  0.2127 -0.1237  1.4544
 2857Sol     HW14435   0.297   0.312   3.082  0.4166  0.2043 -1.2885
 2857Sol     MW14436   0.357   0.248   3.063 -0.0802 -0.2339 -0.4440
 2858Sol     OW14437   2.742   1.321   3.833 -0.1866 -0.1610 -0.0669
 2858Sol     HW14438   2.731   1.396   3.891 -1.1507 -0.9282  0.7780
 2858Sol     HW14439   2.654   1.304   3.799 -0.1093 -1.3385  0.3071
 2858Sol     MW14440   2.733   1.326   3.835 -0.8448  0.0684  0.0937
 2859Sol     OW14441   1.006   1.340   2.422  0.1796  0.4837 -0.3361
 2859Sol     HW14442   1.017   1.422   2.374 -0.6649 -0.1161 -1.5773
 2859Sol     HW14443   0.912   1.325   2.422  0.3623 -0.7278 -0.5524
 2859Sol     MW14444   0.999   1.346   2.417 -0.0037 -0.0031 -0.0684
 2860Sol     OW14445   0.045   3.417   6.073 -0.8416 -0.4794  0.3402
 2860Sol     HW14446   0.080   3.331   6.049 -0.9929 -0.9149  1.6395
 2860Sol     HW14447   0.052   3.420   6.169 -0.3313  1.1728  0.2615
 2860Sol     MW14448   0.049   3.409   6.080 -0.2694 -0.0310 -0.2770
 2861Sol     OW14449   3.166   1.334   6.490  0.1561  0.3488 -0.1568
 2861Sol     HW14450   3.242   1.321   6.546 -0.1419 -1.1242 -0.0703
 2861Sol     HW14451   3.105   1.265   6.515 -0.5695  0.5462 -1.3045
 2861Sol     MW14452   3.167   1.327   6.497 -0.2178 -0.4212 -0.0802
 2862Sol     OW14453   2.232   2.443   4.288  0.2132  0.6933 -0.2220
 2862Sol     HW14454   2.260   2.531   4.313  0.1405  0.6680 -0.0504
 2862Sol     HW14455   2.283   2.423   4.210  1.3258  0.2982  0.5922
 2862Sol     MW14456   2.239   2.449   4.283  0.1436 -0.4576 -0.4592
 2863Sol     OW14457   2.810   3.181   4.600 -0.2165  0.0026 -0.4225
 2863Sol     HW14458   2.798   3.105   4.657 -0.6846 -2.0318 -3.1495
 2863Sol     HW14459   2.760   3.251   4.643  0.7353 -1.0342  2.4430
 2863Sol     MW14460   2.804   3.181   4.609  0.5712 -0.7456  1.0218
 2864Sol     OW14461   1.736   0.938   3.803  0.6839  0.1067  0.0452
 2864Sol     HW14462   1.818   0.966   3.763  1.7538 -0.7247  1.6010
 2864Sol     HW14463   1.750   0.845   3.823 -1.5286 -0.6941 -1.8642
 2864Sol     MW14464   1.745   0.932   3.801  0.7572 -0.2017 -0.1601
 2865Sol     OW14465   1.635   1.454   1.839  0.2152  0.2528 -0.2137
 2865Sol     HW14466   1.697   1.384   1.861  0.5573  0.1022 -1.5926
 2865Sol     HW14467   1.602   1.484   1.924 -0.2066 -1.8264  0.3842
 2865Sol     MW14468   1.638   1.450   1.849  0.3652  0.9834 -0.3986
 2866Sol     OW14469   0.008   0.668   4.340  0.0840 -0.1377 -0.8754
 2866Sol     HW14470   0.010   0.612   4.262 -0.5097 -1.6043  0.1311
 2866Sol     HW14471  -0.083   0.698   4.346  0.1912  0.1916 -0.9067
 2866Sol     MW14472  -0.000   0.666   4.334  0.1517  0.5922 -0.2030
 2867Sol     OW14473   3.090   1.880   9.171 -0.0686 -0.1091  0.5501
 2867Sol     HW14474   3.106   1.788   9.191 -0.0993  0.1270  1.6945
 2867Sol     HW14475   2.998   1.885   9.145  0.2691 -0.6016 -0.7638
 2867Sol     MW14476   3.083   1.872   9.170  0.2309  0.3556 -0.0740
 2868Sol     OW14477   2.553   0.243   8.525  0.0456 -0.1653 -0.2926
 2868Sol     HW14478   2.563   0.334   8.496  1.1655  0.7855  2.8877
 2868Sol     HW14479   2.618   0.195   8.474 -0.3016  0.8726 -1.7496
 2868Sol     MW14480   2.560   0.247   8.518  0.2773 -0.1424 -0.5259
 2869Sol     OW14481   3.255   0.510   5.363 -0.5672  0.6561 -0.2779
 2869Sol     HW14482   3.336   0.526   5.412 -0.6964 -0.7657  0.4339
 2869Sol     HW14483   3.186   0.536   5.423 -0.7013 -0.4421  0.0707
 2869Sol     MW14484   3.256   0.513   5.373 -0.0896  0.1695 -1.1181
 2870Sol     OW14485   2.921   1.297   1.897  0.1770  0.6245 -0.4797
 2870Sol     HW14486   2.958   1.384   1.908  0.3490  0.5020 -0.0760
 2870Sol     HW14487   2.945   1.250   1.977 -0.3992  0.3825 -0.4499
 2870Sol     MW14488   2.927   1.300   1.905  0.1725 -0.0537 -0.3360
 2871Sol     OW14489   0.440   1.506   6.235  0.2101  0.2912  0.0567
 2871Sol     HW14490   0.438   1.494   6.140  2.3191  1.0422 -0.0933
 2871Sol     HW14491   0.495   1.434   6.267 -0.4153  0.0990  0.7151
 2871Sol     MW14492   0.444   1.498   6.230 -0.2515 -0.4314  0.2661
 2872Sol     OW14493   0.286   0.621   9.384 -0.2446 -0.2708 -0.2249
 2872Sol     HW14494   0.333   0.704   9.394 -0.9200  0.0086  0.6733
 2872Sol     HW14495   0.291   0.580   9.470  0.4236 -1.3472 -0.7674
 2872Sol     MW14496   0.291   0.625   9.392  0.2201  0.0389 -0.0839
 2873Sol     OW14497   2.940   0.483   8.002 -0.0219 -0.0204  0.1955
 2873Sol     HW14498   3.027   0.445   7.991 -0.6249 -1.9331  1.7224
 2873Sol     HW14499   2.882   0.408   8.017 -1.8206  1.2638 -0.0875
 2873Sol     MW14500   2.942   0.473   8.002  0.9936  0.0597 -0.6957
 2874Sol     OW14501   3.219   2.462   7.255 -0.4645  0.0089  0.5837
 2874Sol     HW14502   3.182   2.380   7.222  0.8168 -0.7229  0.9244
 2874Sol     HW14503   3.294   2.479   7.199 -0.6856  0.9383  0.5481
 2874Sol     MW14504   3.222   2.456   7.247 -0.0324  0.3041  0.2033
 2875Sol     OW14505   2.004   0.925   7.814 -0.1529  0.3221 -0.2643
 2875Sol     HW14506   2.060   0.880   7.751  0.6218  0.5737  0.2384
 2875Sol     HW14507   1.927   0.952   7.764 -0.5226 -1.3658 -0.6305
 2875Sol     MW14508   2.002   0.923   7.804 -0.2550 -0.4338 -0.2064
 2876Sol     OW14509   0.294   0.488   4.158 -0.0768 -0.1717 -0.4939
 2876Sol     HW14510   0.346   0.552   4.207 -0.2485  0.5966 -1.3017
 2876Sol     HW14511   0.340   0.405   4.170  0.4604  0.2095  0.0957
 2876Sol     MW14512   0.303   0.486   4.164  0.5098  0.3680 -0.2714
 2877Sol     OW14513   0.046   2.817   6.994 -0.1097  0.3077  0.0484
 2877Sol     HW14514   0.096   2.888   6.956  0.0980  0.9153  1.4203
 2877Sol     HW14515  -0.024   2.800   6.931  0.9115  0.4841 -1.1470
 2877Sol     MW14516   0.044   2.821   6.985  0.8605  0.1567  0.0764
 2878Sol     OW14517   1.302   2.794   6.147 -0.3750 -0.2840  0.3714
 2878Sol     HW14518   1.241   2.783   6.221  0.6528  0.2091  1.3049
 2878Sol     HW14519   1.339   2.707   6.135  0.5486 -0.0466  1.4126
 2878Sol     MW14520   1.300   2.785   6.153  0.2719  0.1584 -0.2457
 2879Sol     OW14521   0.401   1.429   9.952  0.0534  0.1380 -0.0617
 2879Sol     HW14522   0.331   1.440   9.888 -0.0963  2.4254  0.4480
 2879Sol     HW14523   0.378   1.349   9.999 -0.2487 -1.1214 -2.3232
 2879Sol     MW14524   0.392   1.423   9.951 -0.5645 -0.5412  0.5112
 2880Sol     OW14525   0.772   2.779   5.871 -0.3058 -0.7083  0.3367
 2880Sol     HW14526   0.817   2.766   5.954 -0.0500 -1.9461  0.0250
 2880Sol     HW14527   0.772   2.874   5.858  2.0782 -0.6627  0.4296
 2880Sol     MW14528   0.776   2.786   5.877 -0.1178  0.5619  0.3505
 2881Sol     OW14529   2.042   1.336   2.072 -0.1137  0.2065 -0.6870
 2881Sol     HW14530   2.015   1.405   2.131  0.5953 -0.2920  0.2326
 2881Sol     HW14531   2.123   1.302   2.110 -1.2973 -2.2170 -0.2114
 2881Sol     MW14532   2.047   1.339   2.080  0.4560  0.4288 -0.3701
 2882Sol     OW14533   2.699   2.492   7.260 -0.4005 -0.1662 -0.6087
 2882Sol     HW14534   2.788   2.526   7.275 -0.3439 -0.1943 -0.8831
 2882Sol     HW14535   2.710   2.424   7.194 -0.3551 -1.5134  0.7558
 2882Sol     MW14536   2.708   2.489   7.256  0.1428 -0.0116 -0.1253
 2883Sol     OW14537   1.033   0.591   2.123 -0.2194  0.5036  0.0115
 2883Sol     HW14538   0.956   0.549   2.161  0.6191  1.1471  2.4596
 2883Sol     HW14539   1.085   0.518   2.088 -1.9807  0.0757 -1.8589
 2883Sol     MW14540   1.031   0.580   2.123  0.0209 -0.1961 -0.8664
 2884Sol     OW14541   2.081   0.363   1.741 -0.3289  0.4451 -0.2414
 2884Sol     HW14542   2.155   0.350   1.801  1.6522 -1.1317 -2.9609
 2884Sol     HW14543   2.023   0.289   1.758  1.0391 -0.9045 -1.4363
 2884Sol     MW14544   2.082   0.355   1.748 -0.1883  0.3852 -0.1680
 2885Sol     OW14545   1.339   2.921   4.532  0.2754  0.0211 -0.4916
 2885Sol     HW14546   1.413   2.860   4.524  1.0805  0.9921 -0.5588
 2885Sol     HW14547   1.314   2.916   4.625  0.2767 -0.4744 -0.5167
 2885Sol     MW14548   1.343   2.915   4.540 -0.3175  0.6640  0.5434
 2886Sol     OW14549   2.415   0.829   3.025  0.1007 -0.4524 -0.8263
 2886Sol     HW14550   2.457   0.912   3.049  1.1137 -0.7188 -1.6128
 2886Sol     HW14551   2.479   0.787   2.967  0.3275 -2.5390  0.9069
 2886Sol     MW14552   2.425   0.833   3.022 -0.0541 -0.0198  0.0045
 2887Sol     OW14553   3.109   1.389   8.998  0.0150 -0.3046  0.4072
 2887Sol     HW14554   3.136   1.470   8.956  0.2197 -0.9074 -0.6508
 2887Sol     HW14555   3.014   1.387   8.988 -0.1805  0.6693  2.0264
 2887Sol     MW14556   3.103   1.396   8.993  0.4307  0.7661 -0.3711
 2888Sol     OW14557   0.172   0.730   7.607 -0.2979  0.0932  0.3501
 2888Sol     HW14558   0.114   0.696   7.539 -0.8894 -0.2765  1.0439
 2888Sol     HW14559   0.257   0.690   7.588 -0.4015  0.1801 -0.3132
 2888Sol     MW14560   0.175   0.723   7.599  0.0410 -0.3765 -0.6300
 2889Sol     OW14561   2.236   1.743   5.280 -0.1355  0.7017  0.0529
 2889Sol     HW14562   2.188   1.788   5.211 -0.3022  0.4044 -0.0282
 2889Sol     HW14563   2.172   1.683   5.318 -0.2454  1.3733  0.9417
 2889Sol     MW14564   2.226   1.742   5.277  0.1328  0.5661 -0.2540
 2890Sol     OW14565   1.594   0.757   1.429 -0.4063 -0.1853 -0.2842
 2890Sol     HW14566   1.543   0.838   1.429  0.5292  0.4246 -1.5942
 2890Sol     HW14567   1.643   0.759   1.346 -0.2489 -2.0113 -0.2680
 2890Sol     MW14568   1.594   0.764   1.421  0.0133  0.4698 -0.5203
 2891Sol     OW14569   1.819   2.607   9.424  0.5198  0.4912 -0.2842
 2891Sol     HW14570   1.849   2.518   9.443 -0.1390  0.3365  0.0518
 2891Sol     HW14571   1.748   2.622   9.487  0.5440  1.2066 -0.4227
 2891Sol     MW14572   1.816   2.600   9.432  0.2581 -0.1751  0.3071
 2892Sol     OW14573   2.332   1.810   9.313 -0.3986 -0.0039  0.4269
 2892Sol     HW14574   2.261   1.747   9.322  1.1065 -2.0323 -1.2031
 2892Sol     HW14575   2.303   1.869   9.244 -0.5452 -0.7872 -0.1926
 2892Sol     MW14576   2.323   1.809   9.307 -0.6772  0.5222  0.5640
 2893Sol     OW14577   2.876   0.029   9.017 -0.0915  0.1857 -0.0152
 2893Sol     HW14578   2.938   0.014   8.946 -0.2338  0.4252 -0.1915
 2893Sol     HW14579   2.876   0.124   9.029  1.1406  0.0393  1.3857
 2893Sol     MW14580   2.882   0.037   9.012 -1.0655  0.0125  0.3847
 2894Sol     OW14581   1.249   2.056   3.760 -0.2047 -0.5526  0.3698
 2894Sol     HW14582   1.340   2.070   3.785 -0.8668 -1.4128  3.4094
 2894Sol     HW14583   1.232   1.964   3.779 -1.2486 -0.8430 -1.7781
 2894Sol     MW14584   1.255   2.049   3.764  0.0357 -1.0829 -0.1582
 2895Sol     OW14585   1.906   2.531   7.516 -0.4504 -0.0290 -0.0754
 2895Sol     HW14586   2.000   2.542   7.533 -0.3487 -1.5404  0.3751
 2895Sol     HW14587   1.878   2.617   7.484  1.2897  0.1718 -1.1534
 2895Sol     MW14588   1.912   2.540   7.514  0.0243 -0.5624  0.2933
 2896Sol     OW14589   2.705   1.953   4.194  0.2792 -0.4000 -0.0165
 2896Sol     HW14590   2.768   1.927   4.127 -1.3157 -0.5452 -1.5171
 2896Sol     HW14591   2.734   1.909   4.274  1.1583 -1.7528 -1.0628
 2896Sol     MW14592   2.713   1.946   4.195 -0.9930  0.9984 -0.0690
 2897Sol     OW14593   2.786   3.091   7.121 -0.7322  0.2885 -0.5880
 2897Sol     HW14594   2.755   3.182   7.118  2.2272  1.3194 -2.0486
 2897Sol     HW14595   2.835   3.085   7.203 -0.0248  0.3469 -1.0007
 2897Sol     MW14596   2.788   3.099   7.128  0.1350 -0.4715 -0.6249
 2898Sol     OW14597   2.803   0.077   2.732  0.4088 -0.2994  0.3268
 2898Sol     HW14598   2.884   0.040   2.696 -0.1215 -0.6616 -0.5333
 2898Sol     HW14599   2.744   0.002   2.739  0.0043  0.0373  0.5244
 2898Sol     MW14600   2.805   0.067   2.729  0.0406 -0.5772 -0.1176
 2899Sol     OW14601   1.038   2.029   4.905  0.0284 -1.0942 -0.2204
 2899Sol     HW14602   1.025   2.051   4.813  2.5555  3.1122  0.3332
 2899Sol     HW14603   0.955   2.052   4.948  0.5530  1.7280 -0.6633
 2899Sol     MW14604   1.029   2.033   4.900  0.7339 -0.2423 -0.1225
 2900Sol     OW14605   1.306   3.199   1.916 -0.4307  0.4399  0.5960
 2900Sol     HW14606   1.345   3.256   1.982 -1.4070  1.3370  0.4169
 2900Sol     HW14607   1.261   3.132   1.967  1.2613 -0.5682  0.8019
 2900Sol     MW14608   1.305   3.198   1.926 -0.1273 -0.4709  0.0299
 2901Sol     OW14609   1.969   0.440   4.211 -0.1487  0.4994 -0.3051
 2901Sol     HW14610   2.003   0.495   4.280 -1.3060  1.2817 -0.3423
 2901Sol     HW14611   2.045   0.394   4.176  0.5906  0.9290  0.7430
 2901Sol     MW14612   1.979   0.440   4.214 -0.5421  0.1400 -0.2443
 2902Sol     OW14613   0.880   2.184   1.487 -0.1814 -0.5159 -0.2675
 2902Sol     HW14614   0.792   2.219   1.495 -0.0241 -0.4952  1.5868
 2902Sol     HW14615   0.915   2.224   1.408 -1.6009 -0.0336 -0.6576
 2902Sol     MW14616   0.876   2.190   1.481  0.2989 -0.5673  0.3826
 2903Sol     OW14617   0.028   2.938   5.614  0.3333  0.8012 -0.0472
 2903Sol     HW14618   0.001   2.998   5.545 -0.6414  0.9777  0.4801
 2903Sol     HW14619  -0.026   2.860   5.601  0.7742  0.4856 -0.0160
 2903Sol     MW14620   0.021   2.936   5.607 -0.3275 -0.2521  0.0528
 2904Sol     OW14621   1.062   1.707   9.358 -0.3086  0.0125  0.2444
 2904Sol     HW14622   0.980   1.699   9.405  0.2045  0.5235  1.2399
 2904Sol     HW14623   1.114   1.769   9.409  0.9823 -0.8766  0.0625
 2904Sol     MW14624   1.060   1.711   9.367  0.6610  0.1818  0.1874
 2905Sol     OW14625   2.912   1.032   2.696 -0.3271  0.0149  0.0483
 2905Sol     HW14626   2.917   0.937   2.688  1.4764 -0.0200  1.5133
 2905Sol     HW14627   2.854   1.046   2.771  1.2486  0.0076  1.3005
 2905Sol     MW14628   2.907   1.025   2.702  0.0817  0.5720 -0.4667
 2906Sol     OW14629   1.521   1.767   5.666 -0.5584  0.4667 -0.0215
 2906Sol     HW14630   1.577   1.738   5.594 -0.7306  0.4778 -0.1629
 2906Sol     HW14631   1.457   1.696   5.677  0.6328 -0.4105  1.4066
 2906Sol     MW14632   1.520   1.758   5.660 -0.0496 -0.6998  0.1626
 2907Sol     OW14633   1.142   3.032   2.089  0.3211  0.3502 -0.1139
 2907Sol     HW14634   1.057   3.018   2.047  0.6338  1.3720 -1.0901
 2907Sol     HW14635   1.127   3.104   2.150  0.0940 -0.5277  0.8707
 2907Sol     MW14636   1.133   3.037   2.091 -1.0661  0.1279 -0.8349
 2908Sol     OW14637   0.434   0.944   6.544  0.0933 -0.6786 -0.3509
 2908Sol     HW14638   0.422   0.892   6.464 -1.2291  0.9607 -1.2607
 2908Sol     HW14639   0.481   1.022   6.514 -1.8058  0.6907  0.1545
 2908Sol     MW14640   0.437   0.946   6.534 -0.2846  0.1695  0.5194
 2909Sol     OW14641   0.686   0.371   3.393 -0.0546 -0.0350  0.0529
 2909Sol     HW14642   0.765   0.324   3.418 -0.0269 -0.5049 -0.9006
 2909Sol     HW14643   0.713   0.462   3.385  0.0071  0.0768  1.3856
 2909Sol     MW14644   0.695   0.375   3.395  0.1071 -0.1994  0.3664
 2910Sol     OW14645   1.607   2.667   8.576  0.0565  0.6153 -0.1598
 2910Sol     HW14646   1.605   2.754   8.617 -0.4971 -0.1437  1.4497
 2910Sol     HW14647   1.698   2.638   8.585  0.0209  0.6118  0.1984
 2910Sol     MW14648   1.615   2.672   8.580 -0.2005  0.2796 -0.3337
 2911Sol     OW14649   1.473   1.255   5.068 -0.1030  0.4637  0.4417
 2911Sol     HW14650   1.421   1.331   5.089 -0.1241  0.9348 -1.2271
 2911Sol     HW14651   1.561   1.276   5.100  0.0321  1.4511 -0.5620
 2911Sol     MW14652   1.477   1.263   5.073 -0.2799 -0.3314 -0.2669
 2912Sol     OW14653   2.594   0.866   6.747  0.0718 -0.7685  0.6448
 2912Sol     HW14654   2.539   0.825   6.814 -0.6815 -1.0940 -0.1748
 2912Sol     HW14655   2.549   0.948   6.726  1.4208  0.3528  2.0675
 2912Sol     MW14656   2.585   0.870   6.751 -0.3734  0.3242 -0.3033
 2913Sol     OW14657   1.323   2.384   8.509  0.0346 -0.2809 -0.0923
 2913Sol     HW14658   1.386   2.441   8.464  0.3089 -1.3342 -1.0848
 2913Sol     HW14659   1.242   2.395   8.460 -0.3618  0.5315  0.7478
 2913Sol     MW14660   1.322   2.390   8.500  0.3798 -0.0222  0.4600
 2914Sol     OW14661   2.942   1.860   5.993  0.6925  0.6236  0.1475
 2914Sol     HW14662   2.902   1.931   6.043 -0.0917  0.5712 -0.3946
 2914Sol     HW14663   2.873   1.794   5.985  0.5481  0.9358 -1.5960
 2914Sol     MW14664   2.932   1.861   5.996 -0.2211  0.0002 -0.1041
 2915Sol     OW14665   1.233   2.014   6.287  0.1742  0.3938  0.0480
 2915Sol     HW14666   1.271   2.065   6.358  2.0546  3.2150 -2.8387
 2915Sol     HW14667   1.140   2.036   6.288  0.5386  1.9148  0.4278
 2915Sol     MW14668   1.228   2.020   6.293  0.3357 -0.6257  0.0496
 2916Sol     OW14669   1.510   1.051   7.173 -0.0681 -0.6439 -0.2382
 2916Sol     HW14670   1.479   0.991   7.104 -1.2768 -0.0580 -0.2285
 2916Sol     HW14671   1.431   1.097   7.202  0.3054 -1.3483  2.0148
 2916Sol     MW14672   1.500   1.050   7.169  0.4908  0.8660  0.1433
 2917Sol     OW14673   0.392   2.551   7.436  0.1138  0.2908  0.5011
 2917Sol     HW14674   0.381   2.458   7.457  1.5264  0.0230  0.1322
 2917Sol     HW14675   0.393   2.554   7.340 -0.2874  0.7386  0.5075
 2917Sol     MW14676   0.391   2.543   7.429  0.3936  0.2479 -0.0935
 2918Sol     OW14677   2.042   0.429   6.309 -0.5680 -0.3582 -0.1243
 2918Sol     HW14678   1.999   0.344   6.312 -0.3435 -0.4101  2.1534
 2918Sol     HW14679   2.116   0.417   6.248 -0.3070 -1.8920  0.4847
 2918Sol     MW14680   2.045   0.420   6.304 -0.5054  0.0501 -0.5485
 2919Sol     OW14681   3.187   2.707   5.633  0.6196  0.0487  0.4081
 2919Sol     HW14682   3.105   2.738   5.594  1.7378  0.7485 -1.4830
 2919Sol     HW14683   3.163   2.628   5.681 -1.2188  0.4582  0.1841
 2919Sol     MW14684   3.177   2.703   5.633  0.2265 -0.3876 -0.1217
 2920Sol     OW14685   1.844   2.180   9.798 -0.2158 -0.6332 -0.5750
 2920Sol     HW14686   1.835   2.263   9.845 -0.4821  0.5148 -2.5686
 2920Sol     HW14687   1.918   2.194   9.739  0.1055 -2.0249 -0.5054
 2920Sol     MW14688   1.850   2.189   9.797  0.3946 -0.2576 -0.5076
 2921Sol     OW14689   2.536   3.278   6.844 -0.3401  0.5680 -0.4489
 2921Sol     HW14690   2.600   3.233   6.789  0.2551  0.6386  0.1845
 2921Sol     HW14691   2.452   3.238   6.822 -0.0023  0.1053 -0.8873
 2921Sol     MW14692   2.534   3.271   6.837 -0.1448 -0.2022  0.0525
 2922Sol     OW14693   1.849   1.834   6.729  0.3193  0.4208  0.0419
 2922Sol     HW14694   1.860   1.765   6.795  0.0234 -0.6401 -0.9916
 2922Sol     HW14695   1.929   1.829   6.677 -0.6361 -0.6340 -1.3767
 2922Sol     MW14696   1.857   1.827   6.730 -0.0138 -0.4195  0.2493
 2923Sol     OW14697   1.841   0.717   1.595 -0.3020  0.1822  0.5178
 2923Sol     HW14698   1.856   0.800   1.549  0.0222  0.6698  1.4801
 2923Sol     HW14699   1.909   0.714   1.662 -1.5863  0.1338  1.8479
 2923Sol     MW14700   1.849   0.724   1.597 -0.4850  0.3547 -0.2529
 2924Sol     OW14701   2.674   2.793   2.430 -0.0434  0.2211  0.2256
 2924Sol     HW14702   2.732   2.825   2.361  0.4759  2.3211  1.5994
 2924Sol     HW14703   2.710   2.828   2.511 -0.9179 -1.8107  1.5581
 2924Sol     MW14704   2.682   2.799   2.431 -0.0904 -0.0516  0.0442
 2925Sol     OW14705   0.834   2.892   7.906  0.0396 -0.0523 -0.0255
 2925Sol     HW14706   0.892   2.816   7.898 -1.2841 -1.2231  1.2681
 2925Sol     HW14707   0.877   2.949   7.969  0.4390 -0.3065 -0.0694
 2925Sol     MW14708   0.843   2.890   7.911  0.8870 -1.0595 -0.8080
 2926Sol     OW14709   2.051   3.216   2.400  0.1522  0.0594  0.6663
 2926Sol     HW14710   2.114   3.259   2.457  0.8851  1.7867 -1.3778
 2926Sol     HW14711   1.992   3.286   2.371 -0.3676 -0.8229 -0.4780
 2926Sol     MW14712   2.051   3.226   2.402 -0.5980 -0.1156 -0.0785
 2927Sol     OW14713   1.489   0.158   5.781 -0.0622 -0.7821  0.6419
 2927Sol     HW14714   1.449   0.183   5.698  0.9888 -3.1850 -0.6371
 2927Sol     HW14715   1.522   0.240   5.818 -0.5522  0.3073 -1.3027
 2927Sol     MW14716   1.489   0.167   5.777  0.2325 -0.0360  0.1322
 2928Sol     OW14717   0.849   1.993   8.040 -0.0626  0.0913 -0.2173
 2928Sol     HW14718   0.930   2.023   8.081 -0.9040  1.4031  0.5516
 2928Sol     HW14719   0.781   2.049   8.079 -1.1370  0.0375 -1.9850
 2928Sol     MW14720   0.850   2.001   8.047  0.2833  0.5041 -0.0237
 2929Sol     OW14721   1.694   0.972   3.086  0.3546  0.1540  0.2235
 2929Sol     HW14722   1.743   1.017   3.017  1.6222  0.4029  1.2530
 2929Sol     HW14723   1.717   1.020   3.166 -0.6174 -0.5015  0.9038
 2929Sol     MW14724   1.701   0.981   3.087 -0.4955 -0.5842 -0.5082
 2930Sol     OW14725   2.650   3.222   5.417 -0.3974 -0.4096 -0.1095
 2930Sol     HW14726   2.738   3.229   5.455 -0.4080 -1.0057  0.0230
 2930Sol     HW14727   2.659   3.260   5.329 -0.2667  0.5490  0.3111
 2930Sol     MW14728   2.659   3.226   5.412  0.0847  0.9963 -0.7274
 2931Sol     OW14729   0.305   1.294   3.343  0.4883 -0.0846  0.1792
 2931Sol     HW14730   0.369   1.224   3.346 -0.0097 -0.5408  0.1400
 2931Sol     HW14731   0.256   1.279   3.263  0.4873  0.4047  0.0837
 2931Sol     MW14732   0.306   1.287   3.336  0.0787 -0.1188 -0.1718
 2932Sol     OW14733   2.244   2.941   9.364 -0.3687 -0.0109 -0.4412
 2932Sol     HW14734   2.233   2.879   9.293  1.8653  0.5193 -1.2914
 2932Sol     HW14735   2.157   2.949   9.403 -1.4391 -0.9395 -2.5710
 2932Sol     MW14736   2.236   2.936   9.362  0.0594  0.1454 -0.0462
 2933Sol     OW14737   1.593   1.495   8.692  0.2055 -0.3574  0.1198
 2933Sol     HW14738   1.514   1.507   8.745 -0.2055 -1.7968 -0.1339
 2933Sol     HW14739   1.622   1.584   8.672  0.1045  0.2185  2.3491
 2933Sol     MW14740   1.589   1.504   8.695 -0.5675  0.5065 -0.9978
 2934Sol     OW14741   0.091   2.821   3.638  0.0815 -0.7614  0.3895
 2934Sol     HW14742   0.128   2.817   3.726  0.3512  0.3194  0.3267
 2934Sol     HW14743  -0.002   2.838   3.653  0.0127 -1.2063  0.4801
 2934Sol     MW14744   0.086   2.822   3.648 -0.1056 -0.2128  0.4724
 2935Sol     OW14745   1.239   1.005   7.738  0.2667 -0.2583 -0.4389
 2935Sol     HW14746   1.248   1.037   7.828  1.9407 -0.6866 -0.4338
 2935Sol     HW14747   1.310   0.941   7.728 -0.7941 -1.2777 -1.6139
 2935Sol     MW14748   1.247   1.002   7.745 -0.6074  0.5257  0.1242
 2936Sol     OW14749   3.249   1.859   8.726  0.0447  0.5774 -0.5666
 2936Sol     HW14750   3.257   1.814   8.642  0.7921 -1.2068  0.4427
 2936Sol     HW14751   3.340   1.880   8.750  0.1098 -1.5126  1.1651
 2936Sol     MW14752   3.258   1.857   8.720 -0.8232 -0.6909 -0.3326
 2937Sol     OW14753   0.539   0.820   2.780 -0.0715 -0.2913  0.7200
 2937Sol     HW14754   0.532   0.815   2.684  1.5663  0.4677  0.5392
 2937Sol     HW14755   0.504   0.906   2.802  0.6649  0.0255  0.6716
 2937Sol     MW14756   0.535   0.827   2.773 -0.3200  0.2555  0.5558
 2938Sol     OW14757   0.898   0.703   4.239 -0.1483  0.0699  0.0982
 2938Sol     HW14758   0.846   0.665   4.168  2.3893 -0.2539 -1.6488
 2938Sol     HW14759   0.934   0.783   4.202  2.2386 -0.7526  0.5891
 2938Sol     MW14760   0.896   0.707   4.229  0.5862  0.2809 -0.0697
 2939Sol     OW14761   3.252   2.465   9.682 -0.6687  0.2981  0.3604
 2939Sol     HW14762   3.318   2.468   9.751 -0.9021 -1.3104  0.6745
 2939Sol     HW14763   3.178   2.514   9.718  0.5349  2.6035 -0.2269
 2939Sol     MW14764   3.251   2.470   9.692 -0.2409 -0.2478  0.5937
 2940Sol     OW14765   2.032   1.267   5.072 -0.5851 -0.0422 -0.5687
 2940Sol     HW14766   2.044   1.275   5.166 -0.8623  0.7917 -0.5978
 2940Sol     HW14767   2.097   1.203   5.045  0.5472  0.8463 -0.0243
 2940Sol     MW14768   2.039   1.262   5.078 -0.1043  0.0069  0.3331
 2941Sol     OW14769   1.896   0.202   5.138  0.1184 -0.3206 -0.3003
 2941Sol     HW14770   1.889   0.154   5.055 -1.3685  0.2792 -0.5392
 2941Sol     HW14771   1.874   0.139   5.205  0.6565 -0.6283 -0.4086
 2941Sol     MW14772   1.894   0.192   5.136 -0.7508 -0.7382  0.3455
 2942Sol     OW14773   1.273   3.446   9.972 -0.4821 -0.4686  0.5567
 2942Sol     HW14774   1.219   3.434   9.894  2.1150  1.6417 -1.6914
 2942Sol     HW14775   1.341   3.379   9.965  0.2864  0.3009  0.4651
 2942Sol     MW14776   1.275   3.439   9.964 -0.4519 -0.4370  0.4575
 2943Sol     OW14777   2.801   0.344   2.666 -0.2537  0.0797 -0.4686
 2943Sol     HW14778   2.707   0.352   2.686 -0.5468 -1.2529 -1.2580
 2943Sol     HW14779   2.819   0.250   2.673  0.7201  0.1689 -1.6373
 2943Sol     MW14780   2.794   0.336   2.668 -0.1860  0.0251 -0.1332
 2944Sol     OW14781   2.425   2.962   8.837  0.1395 -0.2321  0.7465
 2944Sol     HW14782   2.453   3.027   8.901  2.9087 -0.6454 -0.0169
 2944Sol     HW14783   2.380   3.014   8.769 -0.9839  0.4238  1.9479
 2944Sol     MW14784   2.423   2.973   8.837 -0.6087 -0.3479 -0.1113
 2945Sol     OW14785   0.025   1.510   4.126  0.2498  0.0475 -0.1773
 2945Sol     HW14786   0.112   1.530   4.162 -0.4451  1.4134  0.7710
 2945Sol     HW14787  -0.029   1.584   4.151 -1.9681 -2.1769  1.9208
 2945Sol     MW14788   0.028   1.518   4.132 -0.4501 -0.0840  0.1458
 2946Sol     OW14789   1.300   0.709   8.629  0.2251  0.1732  0.1918
 2946Sol     HW14790   1.385   0.734   8.664  1.5596 -1.4317 -1.7689
 2946Sol     HW14791   1.293   0.755   8.546 -0.5794 -0.1627  0.0644
 2946Sol     MW14792   1.307   0.715   8.625 -0.0525  0.6859  0.2798
 2947Sol     OW14793   0.593   3.358   2.272 -0.3854 -0.0441 -0.1402
 2947Sol     HW14794   0.520   3.312   2.313 -0.8329  1.1266  0.4154
 2947Sol     HW14795   0.669   3.334   2.324 -0.5428 -0.4775 -0.1081
 2947Sol     MW14796   0.593   3.352   2.280 -0.8541  0.3309 -0.0704
 2948Sol     OW14797   1.234   1.302   9.472 -0.1216  0.4662  0.2333
 2948Sol     HW14798   1.275   1.379   9.514  0.4909  1.1847 -1.6301
 2948Sol     HW14799   1.163   1.339   9.420  1.0454 -0.0445 -1.7848
 2948Sol     MW14800   1.232   1.313   9.471 -0.8018  0.4179  0.4434
 2949Sol     OW14801   0.794   2.803   7.209  0.5044 -0.1605  0.7889
 2949Sol     HW14802   0.781   2.898   7.199  1.3006 -0.1037  0.1907
 2949Sol     HW14803   0.885   2.789   7.181 -0.2058 -1.3560 -1.0134
 2949Sol     MW14804   0.801   2.810   7.205  0.1690  0.1958  0.2814
 2950Sol     OW14805   0.524   1.078   9.288 -0.4516 -0.0027  0.3901
 2950Sol     HW14806   0.495   1.115   9.205 -0.9092 -2.2652 -0.4960
 2950Sol     HW14807   0.619   1.088   9.287 -0.6005  1.5521  0.4033
 2950Sol     MW14808   0.530   1.082   9.281  0.4811 -0.0404  0.1148
 2951Sol     OW14809   2.021   0.839   6.525  0.2993 -0.1134  0.0920
 2951Sol     HW14810   2.105   0.856   6.568  0.7781 -1.8523 -0.1053
 2951Sol     HW14811   1.955   0.872   6.586  1.1371  2.2171 -0.2082
 2951Sol     MW14812   2.023   0.843   6.534  0.1902 -0.5411 -0.1522
 2952Sol     OW14813   2.475   2.633   2.331 -0.1105  0.3259  0.1812
 2952Sol     HW14814   2.536   2.592   2.270 -1.5098  1.9821 -2.4206
 2952Sol     HW14815   2.525   2.703   2.373 -0.0828  1.4041 -1.6234
 2952Sol     MW14816   2.485   2.635   2.329 -0.3191  0.1233  0.8218
 2953Sol     OW14817   1.560   1.193   5.661  0.5224 -0.1014  0.5714
 2953Sol     HW14818   1.527   1.283   5.671  2.2941  0.3418  3.0238
 2953Sol     HW14819   1.513   1.142   5.726  0.1953 -0.7641 -0.1774
 2953Sol     MW14820   1.553   1.197   5.668 -0.4210  0.1975  0.4056
 2954Sol     OW14821   1.889   0.753   2.699 -0.1043  0.1092  0.3628
 2954Sol     HW14822   1.844   0.698   2.763 -3.0113  1.5097 -0.3862
 2954Sol     HW14823   1.980   0.723   2.701 -1.3130 -3.8047  0.9172
 2954Sol     MW14824   1.893   0.745   2.705  0.1487 -0.0280  0.6868
 2955Sol     OW14825   1.802   0.687   3.862  1.1414 -0.3569 -0.0061
 2955Sol     HW14826   1.758   0.642   3.933 -3.0470  0.5123 -1.8453
 2955Sol     HW14827   1.847   0.618   3.813 -0.0309 -1.6618  0.7235
 2955Sol     MW14828   1.802   0.677   3.864 -0.5937 -0.6073  0.6817
 2956Sol     OW14829   2.172   1.027   9.361 -0.0487 -0.3881  0.2573
 2956Sol     HW14830   2.168   1.051   9.268 -1.6968  0.4987  0.5549
 2956Sol     HW14831   2.086   0.990   9.380 -0.7672  2.0960  2.1343
 2956Sol     MW14832   2.164   1.026   9.354  0.0206  0.3522 -0.1889
 2957Sol     OW14833   0.202   2.969   3.417 -0.7033  0.2260 -0.0423
 2957Sol     HW14834   0.261   2.901   3.385  0.1740  0.1394  1.7316
 2957Sol     HW14835   0.161   2.932   3.494 -1.9461  0.8625 -0.3817
 2957Sol     MW14836   0.204   2.960   3.421 -0.4536 -0.1251  0.1806
 2958Sol     OW14837   2.069   0.844   8.999  0.2865  0.5107 -0.1396
 2958Sol     HW14838   2.055   0.845   8.904 -0.5111 -1.8248 -0.0699
 2958Sol     HW14839   1.983   0.862   9.036  0.6914  1.9074  0.1704
 2958Sol     MW14840   2.060   0.846   8.994 -0.1476 -0.0432 -0.2894
 2959Sol     OW14841   1.658   0.979   5.532  0.1849  0.4436 -0.2400
 2959Sol     HW14842   1.629   1.065   5.563  1.6387  1.5244 -1.7175
 2959Sol     HW14843   1.608   0.965   5.452 -0.7465 -0.5454  0.5077
 2959Sol     MW14844   1.651   0.986   5.527  0.0833 -0.1066  0.7615
 2960Sol     OW14845   2.355   0.680   8.550  0.3448  0.0726  0.0978
 2960Sol     HW14846   2.412   0.676   8.627  0.2999  0.5949  0.1615
 2960Sol     HW14847   2.388   0.612   8.492 -0.5536 -1.3507  1.2163
 2960Sol     MW14848   2.363   0.674   8.552  0.2700  0.0137  0.1519
 2961Sol     OW14849   2.765   3.290   3.959  0.3676 -0.0120  0.1745
 2961Sol     HW14850   2.730   3.211   3.918 -1.3602  0.4042  0.7946
 2961Sol     HW14851   2.699   3.357   3.944  0.4893  0.5842  2.1163
 2961Sol     MW14852   2.756   3.289   3.954 -0.0378  0.2523  0.5722
 2962Sol     OW14853   0.861   2.854   8.274  0.1192 -0.3949  0.4041
 2962Sol     HW14854   0.880   2.888   8.362  0.2892 -0.0922  0.2519
 2962Sol     HW14855   0.766   2.848   8.272 -0.1227  2.7697 -0.5377
 2962Sol     MW14856   0.854   2.857   8.282  0.4158 -0.0639 -0.1470
 2963Sol     OW14857   0.361   0.857   8.539  0.8480 -0.3515 -0.0041
 2963Sol     HW14858   0.316   0.791   8.592  1.9303  0.8065  2.4696
 2963Sol     HW14859   0.310   0.937   8.552  0.7505 -0.1963 -1.2866
 2963Sol     MW14860   0.352   0.858   8.545  0.0047 -0.5764  0.1358
 2964Sol     OW14861   1.332   0.494   3.344  0.0393  0.0520 -0.0582
 2964Sol     HW14862   1.313   0.587   3.356  1.1516  0.1237  1.1908
 2964Sol     HW14863   1.426   0.490   3.328  0.1525 -0.9267  0.7633
 2964Sol     MW14864   1.339   0.502   3.344 -0.2472  0.0261 -0.3992
 2965Sol     OW14865   2.478   3.155   3.409  0.6006 -0.1442 -0.3635
 2965Sol     HW14866   2.423   3.109   3.345  0.0015  1.2918 -0.8813
 2965Sol     HW14867   2.425   3.228   3.439  1.3413 -0.1109  0.8946
 2965Sol     MW14868   2.468   3.157   3.406  0.0071 -0.0070  0.2590
 2966Sol     OW14869   2.844   0.915   5.510  0.6924 -0.6573  0.2445
 2966Sol     HW14870   2.876   0.916   5.420  0.8627  0.7030  0.2991
 2966Sol     HW14871   2.831   0.823   5.531  0.3832 -0.9642 -1.2663
 2966Sol     MW14872   2.846   0.907   5.504  0.5976  0.5664  0.0351
 2967Sol     OW14873   3.058   3.288   1.369  0.2074 -0.0108  1.0834
 2967Sol     HW14874   3.002   3.362   1.388 -0.2133  0.1446 -0.7356
 2967Sol     HW14875   3.006   3.211   1.393 -0.3355  0.1837  0.5414
 2967Sol     MW14876   3.049   3.287   1.373  0.3291  0.2664 -0.3298
 2968Sol     OW14877   2.285   1.230   2.174 -0.2924 -0.1469  0.0041
 2968Sol     HW14878   2.286   1.192   2.087  0.2537 -1.1514  0.4469
 2968Sol     HW14879   2.359   1.291   2.175  0.0283 -0.5342 -0.0551
 2968Sol     MW14880   2.291   1.232   2.167  0.6871 -0.1337  0.1863
 2969Sol     OW14881   2.793   0.499   8.789 -0.1140 -0.0641 -0.2130
 2969Sol     HW14882   2.766   0.485   8.698 -0.5344  1.0158 -0.2591
 2969Sol     HW14883   2.861   0.567   8.783  1.2811 -1.4002  0.0871
 2969Sol     MW14884   2.797   0.504   8.780  0.0029 -0.1060 -0.9148
 2970Sol     OW14885   1.820   0.981   6.610  0.1428  0.6573  0.0718
 2970Sol     HW14886   1.745   0.928   6.636  1.1005 -1.2734 -1.0382
 2970Sol     HW14887   1.782   1.052   6.558 -1.0687  0.6332  0.9012
 2970Sol     MW14888   1.810   0.983   6.608  0.2619  0.3533  0.4376
 2971Sol     OW14889   2.141   2.195   5.656  0.2118 -0.0221  0.1912
 2971Sol     HW14890   2.053   2.191   5.619 -0.8143  2.6670  2.2329
 2971Sol     HW14891   2.185   2.264   5.607  0.0791  0.8987  1.3256
 2971Sol     MW14892   2.137   2.201   5.649 -0.1703  0.5076 -0.8627
 2972Sol     OW14893   0.793   3.240   3.121 -0.9609  0.0889 -0.5336
 2972Sol     HW14894   0.755   3.207   3.203  1.8771  0.9736  1.2089
 2972Sol     HW14895   0.837   3.164   3.083 -3.1750 -0.5823 -1.8142
 2972Sol     MW14896   0.794   3.230   3.125 -0.0425 -0.1145 -0.2430
 2973Sol     OW14897   0.149   2.677   8.228  0.1216  0.3309  0.2559
 2973Sol     HW14898   0.076   2.734   8.203 -1.1689  0.1865  3.4112
 2973Sol     HW14899   0.187   2.719   8.305  3.1581  0.1838 -1.1142
 2973Sol     MW14900   0.146   2.685   8.233  0.7401 -0.1550 -0.0718
 2974Sol     OW14901   2.192   1.525   2.809  0.5368  0.2631 -0.0964
 2974Sol     HW14902   2.253   1.451   2.807 -0.6369 -0.7350  0.6424
 2974Sol     HW14903   2.126   1.503   2.743 -0.1893  0.3179  0.6059
 2974Sol     MW14904   2.192   1.516   2.803 -0.5899 -0.4660 -0.6742
 2975Sol     OW14905   1.310   2.674   7.103  0.1376 -0.4345  0.1088
 2975Sol     HW14906   1.323   2.580   7.117  0.3518 -0.4830 -0.4156
 2975Sol     HW14907   1.215   2.684   7.098  0.1305 -0.7037 -0.3766
 2975Sol     MW14908   1.302   2.666   7.104  0.1017  0.0885 -0.2712
 2976Sol     OW14909   0.709   0.188   3.854  0.3128  0.3036  0.0611
 2976Sol     HW14910   0.675   0.184   3.943 -1.2870  1.2727 -0.4828
 2976Sol     HW14911   0.715   0.096   3.826  0.4786  0.0173  1.0342
 2976Sol     MW14912   0.706   0.179   3.859 -0.4761  0.4827  0.2943
 2977Sol     OW14913   1.379   2.982   2.991  0.3336 -0.7002 -0.7249
 2977Sol     HW14914   1.472   2.978   2.970  0.6720  2.9491 -0.2318
 2977Sol     HW14915   1.359   2.897   3.030  3.6492 -1.2293 -0.0728
 2977Sol     MW14916   1.385   2.974   2.992  0.2599 -0.5348 -0.1068
 2978Sol     OW14917   2.460   0.059   4.596 -0.0504 -0.4041  0.5583
 2978Sol     HW14918   2.418   0.133   4.639 -1.5435 -1.2558  0.5752
 2978Sol     HW14919   2.548   0.057   4.634  0.0635  1.4533  0.4298
 2978Sol     MW14920   2.464   0.065   4.603 -0.2634 -0.1198  0.6269
 2979Sol     OW14921   2.867   1.683   7.724 -0.5013  0.1670  0.3027
 2979Sol     HW14922   2.816   1.763   7.713 -1.6809 -0.2563  2.2968
 2979Sol     HW14923   2.944   1.710   7.774 -0.7802  0.1122  0.7674
 2979Sol     MW14924   2.869   1.692   7.727 -0.1232  0.8148  0.9840
 2980Sol     OW14925   2.937   2.760   3.803  0.1808 -0.0163 -0.0684
 2980Sol     HW14926   2.976   2.673   3.803 -1.8017 -0.9344  0.0118
 2980Sol     HW14927   2.995   2.813   3.858  1.0079 -1.4646  0.4675
 2980Sol     MW14928   2.946   2.757   3.808 -0.3501  0.0445  0.3828
 2981Sol     OW14929   3.158   0.300   7.769  0.2992  0.1095  0.1984
 2981Sol     HW14930   3.232   0.319   7.711 -0.0545  1.7874  0.2576
 2981Sol     HW14931   3.192   0.315   7.857  0.9901 -2.9649  0.4960
 2981Sol     MW14932   3.168   0.303   7.771  0.0363  0.0566 -0.2045
 2982Sol     OW14933   1.477   0.042   5.355 -0.7047 -0.0319 -0.3644
 2982Sol     HW14934   1.437   0.115   5.403  0.5117  0.6545 -0.3661
 2982Sol     HW14935   1.471  -0.032   5.415 -0.8510  0.3649  0.1189
 2982Sol     MW14936   1.473   0.042   5.365 -0.0993 -0.1947 -0.1687
 2983Sol     OW14937   2.550   0.381   2.793  0.2076  0.0161  0.0549
 2983Sol     HW14938   2.468   0.349   2.755  1.3708 -0.1678 -2.4183
 2983Sol     HW14939   2.553   0.342   2.880 -0.7366 -2.6687 -1.0557
 2983Sol     MW14940   2.543   0.375   2.797  0.5081 -0.3668 -0.5909
 2984Sol     OW14941   1.704   0.009   5.617 -0.3083  0.2726 -0.1085
 2984Sol     HW14942   1.728   0.092   5.659  0.9844  0.1554 -0.6024
 2984Sol     HW14943   1.613  -0.006   5.644  0.6439 -0.0912  3.1700
 2984Sol     MW14944   1.698   0.015   5.624  0.3664  0.2210  0.0350
 2985Sol     OW14945   2.810   3.411   6.405 -0.4883 -0.5039  0.3785
 2985Sol     HW14946   2.872   3.460   6.460 -0.7502  0.3325 -0.0564
 2985Sol     HW14947   2.728   3.460   6.413 -0.5936 -0.5161 -0.5472
 2985Sol     MW14948   2.808   3.420   6.410 -0.3693  0.4485  0.3266
 2986Sol     OW14949   1.016   3.417   6.047 -0.0302  0.0533  0.0825
 2986Sol     HW14950   0.922   3.403   6.056 -0.2509  0.4403 -1.4731
 2986Sol     HW14951   1.032   3.503   6.085 -0.8040  1.3119 -2.3598
 2986Sol     MW14952   1.009   3.423   6.051  0.1592  1.1375  0.2660
 2987Sol     OW14953   0.221   0.745   5.785  0.4830 -0.2068  0.3531
 2987Sol     HW14954   0.215   0.706   5.873  1.2919 -0.1617  0.4304
 2987Sol     HW14955   0.205   0.838   5.800 -1.3342 -0.4825  0.1858
 2987Sol     MW14956   0.219   0.750   5.794 -0.2228  0.1311  0.3537
 2988Sol     OW14957   3.041   0.666   4.388  0.4942 -0.4747 -0.6635
 2988Sol     HW14958   2.968   0.673   4.327 -0.1871  1.8695  0.3414
 2988Sol     HW14959   3.010   0.604   4.455 -0.4656  0.2160 -0.4441
 2988Sol     MW14960   3.031   0.661   4.389  0.2102  0.2930  0.7134
 2989Sol     OW14961   0.946   1.684   3.290  0.4851  0.2500  0.3300
 2989Sol     HW14962   0.875   1.731   3.246  1.2898  0.2541 -0.9981
 2989Sol     HW14963   0.902   1.630   3.356 -0.5960  1.5597  0.7231
 2989Sol     MW14964   0.936   1.684   3.292 -0.3874 -0.0611 -0.4211
 2990Sol     OW14965   3.006   2.011   5.759 -0.0246 -1.0344 -0.3460
 2990Sol     HW14966   3.000   1.953   5.835 -3.4034  1.3824  1.3367
 2990Sol     HW14967   2.916   2.029   5.735  0.8246  4.6292  0.1225
 2990Sol     MW14968   2.998   2.007   5.764  1.1715 -0.3360 -0.3186
 2991Sol     OW14969   0.468   2.254   2.671 -0.3915  0.2676  0.4980
 2991Sol     HW14970   0.427   2.172   2.698 -1.1394  0.4080 -0.1963
 2991Sol     HW14971   0.394   2.310   2.646  0.2892 -0.0475 -2.4096
 2991Sol     MW14972   0.457   2.252   2.671  0.1374  0.0021 -0.2972
 2992Sol     OW14973   1.571   0.052   4.785 -0.0445  0.1699  0.0644
 2992Sol     HW14974   1.578  -0.034   4.827  0.4193  0.9189  1.5597
 2992Sol     HW14975   1.479   0.076   4.794 -0.0588  0.0771  0.1705
 2992Sol     MW14976   1.564   0.046   4.790 -0.9602  0.3126 -0.1219
 2993Sol     OW14977   1.608   1.895   4.056  0.1130 -0.3815 -0.7857
 2993Sol     HW14978   1.700   1.877   4.034 -0.2723 -0.1353 -2.6936
 2993Sol     HW14979   1.576   1.947   3.983 -0.8996  1.6092  1.0438
 2993Sol     MW14980   1.614   1.898   4.047  0.0763 -0.2470 -0.2596
 2994Sol     OW14981   3.228   1.719   4.391 -0.1743 -0.4927 -0.2874
 2994Sol     HW14982   3.156   1.665   4.425 -0.2396  0.0980  0.5294
 2994Sol     HW14983   3.203   1.738   4.301 -1.7829  0.9197  0.4213
 2994Sol     MW14984   3.219   1.716   4.386  0.2909  0.6849 -0.2558
 2995Sol     OW14985   0.515   2.527   6.469 -0.6622 -0.5345  0.0300
 2995Sol     HW14986   0.520   2.537   6.564 -0.2049 -0.4805  0.0013
 2995Sol     HW14987   0.446   2.461   6.456 -4.0285  2.7980  0.1999
 2995Sol     MW14988   0.509   2.522   6.477 -0.2754  0.6719 -0.1232
 2996Sol     OW14989   0.768   1.663   2.117  0.7221 -0.4083  0.0106
 2996Sol     HW14990   0.698   1.601   2.100  0.3174 -0.5926  2.2234
 2996Sol     HW14991   0.828   1.617   2.176  0.4245  1.2485  1.6618
 2996Sol     MW14992   0.767   1.654   2.121 -0.1359  0.1519 -0.7372
 2997Sol     OW14993   1.084   3.399   6.747  0.0635  0.1800 -0.6054
 2997Sol     HW14994   1.084   3.380   6.841  0.0818  0.7639 -0.4882
 2997Sol     HW14995   1.155   3.344   6.712 -0.4439 -0.6175 -0.4013
 2997Sol     MW14996   1.091   3.392   6.752 -0.0044 -0.0984  0.2417
 2998Sol     OW14997   2.277   1.693   2.469 -0.4541  0.2209  0.5043
 2998Sol     HW14998   2.260   1.725   2.380  1.3695  0.9905  0.4003
 2998Sol     HW14999   2.342   1.754   2.504 -0.4534 -0.6299  2.0322
 2998Sol     MW15000   2.281   1.701   2.464 -0.4005 -0.4402  0.5266
 2999Sol     OW15001   1.330   1.472   5.148  0.0877  0.4749  0.7040
 2999Sol     HW15002   1.343   1.421   5.228  0.4005 -0.3636  0.1177
 2999Sol     HW15003   1.398   1.538   5.151  0.6968 -0.1470  0.6570
 2999Sol     MW15004   1.337   1.473   5.156  0.2334  0.1805  0.0306
 3000Sol     OW15005   0.399   1.973   5.068 -0.2285 -0.0689 -0.0761
 3000Sol     HW15006   0.383   2.065   5.088 -2.0756 -0.0813 -1.3141
 3000Sol     HW15007   0.481   1.973   5.019  0.0021  0.8741  0.3093
 3000Sol     MW15008   0.405   1.981   5.065  1.0221  0.3201 -0.0669
 3001Sol     OW15009   2.205   0.437   2.156 -0.0887  0.0813  0.4929
 3001Sol     HW15010   2.191   0.379   2.230  2.3791 -1.2789 -0.0533
 3001Sol     HW15011   2.284   0.487   2.179 -1.2535  2.1137  0.2530
 3001Sol     MW15012   2.211   0.436   2.164 -0.0933  0.9037  0.4040
   3.32330   3.45000  11.31290
