Water-ethanol mixture in organosilica
14962
    1Sil     Ob    1   0.151   2.221  11.472  0.1009  0.0619 -0.4338
    1Sil     Ob    2   0.703   2.214  10.734  0.3167 -0.3083 -0.2892
    1Sil     Ob    3   0.431   2.193  11.111  0.5314  0.3250  0.1836
    1Sil     Ob    4  -0.044   2.694  11.052 -0.4016 -0.1194  0.2753
    1Sil     Ob    5   0.544   2.582  11.500 -0.0486 -0.0233 -0.1204
    1Sil     Ob    6   0.273   2.620  10.682 -0.8760  0.0140  0.0846
    1Sil     Ob    7   0.301   2.515  11.567  0.4316  0.1817 -0.2398
    1Sil     Ob    8   0.034   2.573  10.697  0.8036 -0.0799 -0.1942
    1Sil     Ob    9   0.580   2.486  11.197 -0.1382  0.3354  0.4793
    1Sil     Ob   10   0.084   2.359  11.257 -0.4608 -0.3033 -0.1844
    1Sil     Ob   11   0.778   2.428  10.588 -0.0441 -0.1131 -0.1582
    1Sil     Ob   12   0.392   2.285  10.869  0.4989 -0.3876 -0.1092
    1Sil     Ob   13   0.057   2.458  11.495  0.0489 -0.4355  0.4051
    1Sil     Ob   14   0.360   2.428  11.070 -0.2564  0.6354 -0.5565
    1Sil     Ob   15   0.017   2.442  11.028  0.4660  0.0434  0.3127
    1Sil     Ob   16   0.469   2.342  11.485 -0.0848 -0.5040 -0.3468
    1Sil     Ob   17   0.220   2.365  10.680 -0.1849  0.2970 -0.1633
    1Sil     Ob   18   0.491   2.325  10.623 -0.4197  0.1721  0.0657
    1Sil     Ob   19  -0.092   2.267  11.426  0.4691  0.3029 -0.2633
    1Sil     Ob   20   0.192   2.254  11.029  0.2626  0.0715 -0.6286
    1Sil     Ob   21  -0.161   2.559  10.860 -0.0103  0.1412  0.2092
    1Sil     Ob   22   0.363   2.516  11.320  0.2337 -0.1181 -0.4222
    1Sil     Ob   23   0.027   2.120  12.639  0.6801  0.4319  0.2500
    1Sil     Ob   24   0.639   2.205  11.936  0.2931  0.4149  0.0347
    1Sil     Ob   25   0.371   2.210  12.321  0.1878 -0.1562 -0.5756
    1Sil     Ob   26  -0.058   2.586  12.282 -0.0236 -0.1931 -0.2253
    1Sil     Ob   27   0.430   2.638  12.744 -0.1058 -0.0257 -0.5050
    1Sil     Ob   28   0.254   2.622  11.921 -0.3536  0.1401  0.2420
    1Sil     Ob   29   0.173   2.570  12.748  0.3666  0.3762 -0.2428
    1Sil     Ob   30   0.020   2.525  11.963 -0.3698 -0.2577 -0.2452
    1Sil     Ob   31   0.529   2.519  12.378  0.0871  0.0204  0.1222
    1Sil     Ob   32  -0.007   2.302  12.460  0.1423 -0.2319  0.5167
    1Sil     Ob   33   0.626   2.280  11.686  0.2938 -0.5956  0.0420
    1Sil     Ob   34   0.335   2.314  12.081 -0.0202 -0.3816 -0.4499
    1Sil     Ob   35   0.006   2.387  12.711  0.6409  0.2595 -0.0457
    1Sil     Ob   36   0.304   2.460  12.290  0.3434  0.2276 -0.0698
    1Sil     Ob   37  -0.117   2.332  12.242 -0.2009 -0.3747  0.5470
    1Sil     Ob   38   0.370   2.396  12.695  0.0792 -0.3324  0.2254
    1Sil     Ob   39   0.197   2.363  11.871 -0.1886 -0.0431 -0.3950
    1Sil     Ob   40   0.421   2.274  11.834 -0.1990  0.1950 -0.5210
    1Sil     Ob   41  -0.194   2.248  12.635 -0.7166 -0.0042  0.0189
    1Sil     Ob   42   0.131   2.267  12.231 -0.3373  0.1969 -0.4274
    1Sil     Ob   43  -0.203   2.520  12.090 -0.1249 -0.4136 -0.2040
    1Sil     Ob   44   0.308   2.576  12.522  1.1057  0.0923 -0.3327
    1Sil     Ob   45   0.105   2.552  11.727  0.2078 -0.0976 -0.0403
    1Sil     Ob   46   0.760   3.121  12.810  0.2406 -0.1958 -0.0287
    1Sil     Ob   47  -0.039   3.374  12.823  0.7669 -0.4833 -0.1591
    1Sil     Ob   48  -0.090   4.367  12.785 -0.0620 -0.1347 -0.2725
    1Sil     Ob   49   0.703   5.314  12.797 -0.4033 -0.1759 -0.0491
    1Sil     Ob   50  -0.098   1.917  12.789  0.1084  0.7739  0.2920
    1Sil     Ob   51   1.550   2.645  12.817 -0.4020  0.6001 -0.0071
    1Sil     Ob   52   0.727   3.856  12.789 -0.1364  0.9525 -0.3687
    1Sil     Ob   53   2.356   2.391  12.802 -0.2608  0.0854 -0.2243
    1Sil     Ob   54   1.950   3.116  12.775  0.3824  0.1685 -0.1078
    1Sil     Ob   55   1.535   4.090  12.787  0.1371  0.5192 -0.0256
    1Sil     Ob   56   2.373   4.116  12.794  0.4543 -0.1748  0.4932
    1Sil     Ob   57   1.551   4.828  12.792 -0.6008  0.1414 -0.8748
    1Sil     Ob   58   2.353   5.070  12.781 -0.0900 -0.3934  0.6308
    1Sil     Ob   59  -0.118   2.633  12.799  0.0281  0.2419  1.0527
    1Sil     Ob   60   0.143   2.713  11.507  0.1513 -0.4593 -0.1378
    1Sil     Ob   61   0.672   2.696  10.787 -0.7021  0.6392 -0.0591
    1Sil     Ob   62   0.419   2.667  11.107 -0.2718  0.3768  0.4445
    1Sil     Ob   63  -0.054   3.172  11.145 -0.0852  0.5511 -0.0084
    1Sil     Ob   64   0.568   3.070  11.502 -0.1395 -0.1461  0.2959
    1Sil     Ob   65   0.243   3.084  10.788 -0.2856  0.2926 -0.7164
    1Sil     Ob   66   0.318   3.042  11.555  0.0471  0.3994  0.6314
    1Sil     Ob   67   0.016   3.042  10.665 -0.5770 -0.2563  0.0642
    1Sil     Ob   68   0.604   2.972  11.156  0.0031  0.0255 -0.8249
    1Sil     Ob   69  -0.007   2.778  11.306 -0.4357  0.2335 -0.1983
    1Sil     Ob   70   0.274   2.747  10.904  0.4078 -0.1052 -1.0349
    1Sil     Ob   71   0.090   2.959  11.463  0.0383 -0.0518  0.0523
    1Sil     Ob   72   0.370   2.911  11.084  0.5411  0.0448  0.1800
    1Sil     Ob   73   0.033   2.929  11.099  0.0192  0.2312 -0.4067
    1Sil     Ob   74   0.476   2.833  11.531  0.5083 -0.2187  0.3823
    1Sil     Ob   75   0.209   2.866  10.677  0.5721  0.5397 -0.4403
    1Sil     Ob   76   0.442   2.815  10.734  0.5425  0.4518 -0.3646
    1Sil     Ob   77  -0.092   2.798  11.539  0.1004 -0.5718  0.4164
    1Sil     Ob   78   0.184   2.745  11.147 -0.3245  0.3445 -0.1489
    1Sil     Ob   79  -0.047   3.074  10.909  0.4600  0.1134 -0.9343
    1Sil     Ob   80   0.415   2.951  11.332 -0.5321 -0.0931  0.4479
    1Sil     Ob   81   0.011   2.611  12.593 -0.5221  0.3360 -0.6761
    1Sil     Ob   82   0.651   2.699  11.950 -0.2197  0.4758  0.0795
    1Sil     Ob   83   0.369   2.693  12.296 -0.0701 -0.0046  0.1788
    1Sil     Ob   84  -0.041   3.073  12.272  0.2469 -0.0861 -0.5006
    1Sil     Ob   85   0.497   3.095  12.738  0.2261 -0.0970  0.5840
    1Sil     Ob   86   0.258   3.106  11.922  0.4093  0.0152 -0.3675
    1Sil     Ob   87   0.252   3.013  12.729  0.2371 -0.1676  0.1604
    1Sil     Ob   88   0.016   3.022  11.941 -0.1300 -0.2822  0.0720
    1Sil     Ob   89   0.539   2.978  12.353  0.3889  0.0786 -0.0419
    1Sil     Ob   90   0.008   2.786  12.409 -0.6542 -0.1965 -0.1747
    1Sil     Ob   91   0.636   2.728  11.692  0.1048  0.0815  0.1576
    1Sil     Ob   92   0.339   2.822  12.073  0.0361 -0.0929 -0.0969
    1Sil     Ob   93   0.064   2.844  12.647  0.2544  0.4248  0.6302
    1Sil     Ob   94   0.293   2.930  12.303 -0.1487  0.0106 -0.0329
    1Sil     Ob   95  -0.098   2.837  12.197  0.1517  0.0138 -0.1539
    1Sil     Ob   96   0.459   2.872  12.647 -0.0489 -0.4276  0.1563
    1Sil     Ob   97   0.197   2.864  11.862 -0.0664 -0.2297  0.2620
    1Sil     Ob   98   0.432   2.776  11.835  0.1429  0.5078 -0.5223
    1Sil     Ob   99  -0.178   2.766  12.598  0.3290 -0.3619 -0.0971
    1Sil     Ob  100   0.136   2.754  12.194 -0.0276  0.2357  0.2211
    1Sil     Ob  101  -0.199   3.035  12.080  0.1250  0.8539 -0.4990
    1Sil     Ob  102   0.362   3.069  12.514 -0.1993 -0.2393 -0.3613
    1Sil     Ob  103   0.114   3.042  11.710  0.2044 -0.8353  0.3200
    1Sil     Ob  104   0.131   3.211  11.525 -0.0780 -0.4152 -0.2892
    1Sil     Ob  105   0.593   3.161  10.665 -0.1184  0.3966 -0.3994
    1Sil     Ob  106   0.424   3.147  11.186 -0.7662 -0.2267 -0.5212
    1Sil     Ob  107  -0.059   3.653  11.083  0.7111 -0.1459 -0.1007
    1Sil     Ob  108   0.524   3.564  11.549  0.0957 -0.0154 -0.0633
    1Sil     Ob  109   0.310   3.564  10.778  0.2517 -0.2800 -0.2238
    1Sil     Ob  110   0.288   3.478  11.584 -0.1683  0.5605  0.3804
    1Sil     Ob  111   0.102   3.472  10.645 -0.1049  0.3095  0.0509
    1Sil     Ob  112   0.591   3.480  11.192  0.4802  0.1349  0.0103
    1Sil     Ob  113  -0.024   3.306  11.351  0.3628 -0.0970 -0.2323
    1Sil     Ob  114   0.377   3.351  10.628  0.3823 -0.6124 -0.2359
    1Sil     Ob  115   0.269   3.194  11.011 -0.7535  0.3062  0.3326
    1Sil     Ob  116   0.030   3.458  11.538  0.3695 -0.1197 -0.3591
    1Sil     Ob  117   0.373   3.400  11.120 -0.3187  0.2649  0.1964
    1Sil     Ob  118   0.023   3.412  11.120  0.4455 -0.5946 -0.3419
    1Sil     Ob  119   0.467   3.319  11.494  0.3927 -0.6498 -0.2218
    1Sil     Ob  120   0.214   3.334  10.808  0.0108  0.5104  0.2408
    1Sil     Ob  121   0.440   3.245  10.832 -0.0120  0.1895 -0.9319
    1Sil     Ob  122  -0.114   3.259  11.570  0.2201  0.3923  0.2637
    1Sil     Ob  123   0.188   3.236  11.226 -0.0653 -0.1737 -0.1067
    1Sil     Ob  124  -0.061   3.463  10.878  0.2420 -0.0267  0.2321
    1Sil     Ob  125   0.384   3.512  11.342 -0.1043  0.4070 -0.1561
    1Sil     Ob  126   0.029   3.083  12.617 -0.1536  0.2360 -0.5658
    1Sil     Ob  127   0.640   3.187  11.929 -0.2891  0.0984  0.1534
    1Sil     Ob  128   0.383   3.164  12.278  0.7194 -0.0184  0.4006
    1Sil     Ob  129  -0.030   3.551  12.328 -0.2689  0.2559  0.1064
    1Sil     Ob  130   0.523   3.616  12.777  0.5526  0.0936  0.5189
    1Sil     Ob  131   0.255   3.583  11.963 -0.0675 -0.3909  0.3845
    1Sil     Ob  132   0.278   3.458  12.799  0.2836 -0.1261  0.0336
    1Sil     Ob  133   0.015   3.512  11.992 -0.3527  0.3153  0.1465
    1Sil     Ob  134   0.563   3.486  12.356  0.5388  0.0614  0.1401
    1Sil     Ob  135   0.060   3.248  12.424  0.1869  0.1965  0.5071
    1Sil     Ob  136   0.637   3.243  11.674 -0.2361 -0.0100  0.1997
    1Sil     Ob  137   0.360   3.292  12.078  0.3528  0.9461 -0.1865
    1Sil     Ob  138   0.119   3.316  12.653 -0.5143  0.5600  0.1162
    1Sil     Ob  139   0.315   3.403  12.318 -0.2781 -0.1175 -0.3845
    1Sil     Ob  140  -0.096   3.323  12.242 -0.1401  0.0179 -0.7556
    1Sil     Ob  141   0.548   3.349  12.789 -0.7164 -0.0104  0.4771
    1Sil     Ob  142   0.197   3.352  11.888  0.7962  0.1221  0.2391
    1Sil     Ob  143   0.421   3.269  11.827 -0.2356  0.0834 -0.4238
    1Sil     Ob  144  -0.126   3.287  12.608 -0.1663  0.4305 -0.2294
    1Sil     Ob  145   0.144   3.232  12.193 -0.1002 -0.2569  0.6756
    1Sil     Ob  146  -0.193   3.505  12.133  0.2012 -0.3932 -0.2124
    1Sil     Ob  147   0.414   3.451  12.571 -0.1186  0.3613  0.2966
    1Sil     Ob  148   0.107   3.559  11.752 -0.1768 -0.1593  0.0188
    1Sil     Ob  149   0.117   3.694  11.551  0.0299 -0.1356  0.2883
    1Sil     Ob  150   0.701   3.659  10.765 -0.2955  0.3401 -0.0775
    1Sil     Ob  151   0.421   3.651  11.120  0.1585  0.1104 -0.3090
    1Sil     Ob  152  -0.042   4.162  11.115 -0.3838  0.1229 -0.4676
    1Sil     Ob  153   0.562   4.056  11.534  0.3672 -0.0046 -0.0266
    1Sil     Ob  154   0.244   4.040  10.611  0.0919 -0.1895  0.0321
    1Sil     Ob  155   0.323   3.993  11.572 -0.1941 -0.0086  0.3059
    1Sil     Ob  156   0.057   3.981  10.777  0.2777  0.4086  0.4827
    1Sil     Ob  157   0.595   3.970  11.196  0.0406  0.3382 -0.1498
    1Sil     Ob  158   0.087   3.728  11.296 -0.4541  0.0291 -0.6588
    1Sil     Ob  159   0.364   3.773  10.900 -0.3026 -0.1471  0.0377
    1Sil     Ob  160   0.111   3.926  11.467 -0.2793 -0.4683 -0.4273
    1Sil     Ob  161   0.351   3.896  11.121  0.8791 -0.4546 -0.3198
    1Sil     Ob  162   0.024   3.903  11.125 -0.0622  0.2103 -0.4120
    1Sil     Ob  163   0.477   3.810  11.484 -0.3177 -0.1346 -0.0959
    1Sil     Ob  164   0.213   3.793  10.695  0.5179 -0.8018 -0.3255
    1Sil     Ob  165   0.467   3.732  10.668  0.1922 -0.2478  0.2758
    1Sil     Ob  166  -0.107   3.778  11.460  0.1502  0.1850 -0.6328
    1Sil     Ob  167   0.182   3.720  11.055  0.3056 -0.5284 -0.1217
    1Sil     Ob  168  -0.131   3.990  10.960 -0.8940  0.0205 -0.1609
    1Sil     Ob  169   0.400   4.023  11.336 -0.3772 -0.1897  0.1534
    1Sil     Ob  170   0.068   3.566  12.661  0.0008  0.4157  0.5190
    1Sil     Ob  171   0.642   3.683  11.923 -0.1003  0.0948  0.0438
    1Sil     Ob  172   0.364   3.651  12.392 -0.4830 -0.1125 -0.2276
    1Sil     Ob  173  -0.013   4.036  12.289  0.2211  0.6190  0.6423
    1Sil     Ob  174   0.506   4.103  12.744 -0.1503  0.2617 -0.9960
    1Sil     Ob  175   0.272   4.068  11.908 -0.1034  0.5536 -0.1288
    1Sil     Ob  176   0.284   3.982  12.759  0.2142 -0.2081 -0.2869
    1Sil     Ob  177   0.030   4.014  11.964 -0.1770  0.0160  0.5691
    1Sil     Ob  178   0.551   3.952  12.359  0.2043 -0.4956 -0.7245
    1Sil     Ob  179   0.019   3.748  12.487  0.6455 -0.3286 -0.3165
    1Sil     Ob  180   0.627   3.763  11.690  0.0682  0.6412  0.0897
    1Sil     Ob  181   0.349   3.756  12.129  0.2181 -0.2127 -0.1415
    1Sil     Ob  182   0.087   3.817  12.739 -0.8368  0.6104  1.0316
    1Sil     Ob  183   0.308   3.908  12.330 -0.5221 -0.0580  0.2459
    1Sil     Ob  184  -0.095   3.792  12.254 -0.2202 -0.0234 -0.4398
    1Sil     Ob  185   0.500   3.859  12.661 -0.3179  0.3589 -0.1311
    1Sil     Ob  186   0.185   3.827  11.928 -0.0891 -0.3050  0.5412
    1Sil     Ob  187   0.420   3.762  11.868  0.3691  0.1151  0.2950
    1Sil     Ob  188  -0.149   3.724  12.675 -0.7196  0.4385 -0.2361
    1Sil     Ob  189   0.147   3.720  12.267  0.2677 -0.1851  0.5773
    1Sil     Ob  190  -0.182   3.991  12.107 -0.6569 -0.2830  0.3424
    1Sil     Ob  191   0.392   4.049  12.530  0.4637 -0.4127 -0.2513
    1Sil     Ob  192   0.113   3.990  11.719  0.3684  0.1112  0.0019
    1Sil     Ob  193   0.144   4.172  11.526 -0.5189  0.1115 -0.4343
    1Sil     Ob  194   0.657   4.141  10.776 -0.3757 -0.0270  0.7583
    1Sil     Ob  195   0.429   4.138  11.100  0.4228 -0.7744 -0.1371
    1Sil     Ob  196  -0.051   4.642  11.033 -0.2134 -0.1359  0.1510
    1Sil     Ob  197   0.557   4.527  11.484 -0.3291 -0.2260  0.5089
    1Sil     Ob  198   0.287   4.524  10.736 -0.3399  0.2797 -0.4038
    1Sil     Ob  199   0.310   4.471  11.534  0.1600  0.1417 -0.3734
    1Sil     Ob  200   0.077   4.505  10.586 -0.8181  0.2976  0.4603
    1Sil     Ob  201   0.609   4.472  11.116 -0.4162  0.4438  0.9653
    1Sil     Ob  202   0.123   4.268  11.275  0.2780 -0.1024 -0.1883
    1Sil     Ob  203   0.790   4.107  10.576 -0.6479 -0.7019  0.3713
    1Sil     Ob  204   0.356   4.167  10.833 -0.1882  1.1738 -0.4580
    1Sil     Ob  205   0.069   4.403  11.492  0.2518 -0.9104  0.0689
    1Sil     Ob  206   0.394   4.371  11.017 -0.3712  0.2994  0.3790
    1Sil     Ob  207   0.040   4.403  11.059 -0.2295  0.3850  1.0965
    1Sil     Ob  208   0.483   4.281  11.483  0.3713 -0.5274 -0.0007
    1Sil     Ob  209   0.255   4.290  10.619  0.1265 -0.5146 -0.3086
    1Sil     Ob  210   0.494   4.162  10.589 -0.6055  0.1539 -0.2880
    1Sil     Ob  211  -0.082   4.211  11.424  0.1595 -0.4367 -0.0218
    1Sil     Ob  212   0.194   4.200  11.046  0.4414  0.1754 -0.5074
    1Sil     Ob  213  -0.026   4.501  10.811 -0.4888 -0.1501  0.1099
    1Sil     Ob  214   0.415   4.416  11.285 -0.4744 -0.9220 -0.6113
    1Sil     Ob  215   0.072   4.044  12.624  0.3144 -0.1623 -0.2676
    1Sil     Ob  216   0.666   4.177  11.932 -0.3505  0.4803  0.0217
    1Sil     Ob  217   0.402   4.152  12.289 -0.1117 -0.2627 -0.1212
    1Sil     Ob  218  -0.023   4.537  12.300  0.3861  0.4816 -0.2725
    1Sil     Ob  219   0.434   4.588  12.757 -0.5784  0.1333  0.4200
    1Sil     Ob  220   0.281   4.569  11.902 -0.2419  0.1211 -0.1054
    1Sil     Ob  221   0.200   4.460  12.772  0.1949 -0.0457  0.3714
    1Sil     Ob  222   0.046   4.486  11.947  0.0334 -0.4959 -0.2985
    1Sil     Ob  223   0.537   4.456  12.375  0.3990  0.0073 -0.5351
    1Sil     Ob  224   0.062   4.221  12.432 -0.5489  0.5812 -0.4608
    1Sil     Ob  225   0.657   4.240  11.686  0.0906  0.0172 -0.1798
    1Sil     Ob  226   0.348   4.269  12.058  0.1945  0.0587 -0.0073
    1Sil     Ob  227   0.087   4.305  12.638  0.0076  0.0451 -0.3300
    1Sil     Ob  228   0.311   4.398  12.284  0.5522 -0.2758  0.5557
    1Sil     Ob  229  -0.089   4.281  12.246 -0.4102 -0.9025  0.3365
    1Sil     Ob  230   0.420   4.333  12.708  0.2693  0.2356 -0.0594
    1Sil     Ob  231   0.208   4.316  11.849 -0.1484 -0.5043  0.1609
    1Sil     Ob  232   0.440   4.244  11.827  0.1029  0.0988 -0.0781
    1Sil     Ob  233  -0.132   4.196  12.598 -0.2387  0.0299  0.2877
    1Sil     Ob  234   0.152   4.212  12.209 -0.0961  0.6155  0.2040
    1Sil     Ob  235  -0.173   4.477  12.100  0.2222  0.1856  0.0601
    1Sil     Ob  236   0.325   4.500  12.534 -0.2186  0.4079 -0.0933
    1Sil     Ob  237   0.132   4.525  11.708  0.6280 -0.4383 -0.2560
    1Sil     Ob  238   0.126   4.648  11.482  0.3494 -0.6703 -0.9729
    1Sil     Ob  239   0.628   4.621  10.620 -0.1258  0.2984  1.0143
    1Sil     Ob  240   0.405   4.605  11.146  0.1500 -0.1947  0.4923
    1Sil     Ob  241  -0.045   5.126  11.101 -0.3978  0.7055 -0.3063
    1Sil     Ob  242   0.543   5.034  11.530 -0.4678 -0.2904 -0.2766
    1Sil     Ob  243   0.294   5.014  10.730  0.0972  0.2142  0.5307
    1Sil     Ob  244   0.302   4.953  11.559 -1.1239  0.0484  0.4392
    1Sil     Ob  245   0.079   4.937  10.621  0.4284  0.5449  0.2104
    1Sil     Ob  246   0.580   4.923  11.165 -0.7948  0.5112  0.4636
    1Sil     Ob  247  -0.042   4.744  11.295  0.1147 -0.5279 -0.5100
    1Sil     Ob  248   0.273   4.647  10.954 -0.1810 -0.4226 -0.3107
    1Sil     Ob  249   0.076   4.900  11.464 -0.2335  0.2295 -0.1006
    1Sil     Ob  250   0.356   4.848  11.092  0.2655 -0.1289  0.4503
    1Sil     Ob  251   0.021   4.885  11.078  0.2833  0.1305  0.5191
    1Sil     Ob  252   0.473   4.782  11.488  0.0778 -0.7665  0.3188
    1Sil     Ob  253   0.227   4.782  10.757  0.5453  0.0808 -0.7472
    1Sil     Ob  254   0.455   4.708  10.785  0.4539  0.1552  0.0603
    1Sil     Ob  255  -0.107   4.750  11.553 -0.9055  0.0672 -0.2143
    1Sil     Ob  256   0.163   4.696  11.164 -0.5120  0.2838  0.0208
    1Sil     Ob  257  -0.038   5.021  10.856  0.2014 -0.5607 -0.6523
    1Sil     Ob  258   0.390   4.962  11.323 -0.0308  0.8458  0.8687
    1Sil     Ob  259   0.374   4.814  10.574  0.1559  0.2895  0.3431
    1Sil     Ob  260   0.000   4.548  12.618 -0.3997  1.2613  0.2274
    1Sil     Ob  261   0.647   4.657  11.936  0.6171  0.0969 -0.0363
    1Sil     Ob  262   0.381   4.638  12.316 -0.0460  0.4114 -0.3586
    1Sil     Ob  263  -0.034   5.010  12.284 -0.2789 -0.0935 -0.0761
    1Sil     Ob  264   0.538   5.069  12.745  0.7174 -0.0987 -0.1026
    1Sil     Ob  265   0.250   5.057  11.915 -0.7273  0.1038 -0.3181
    1Sil     Ob  266   0.286   4.967  12.749 -0.6028 -0.1855  0.5165
    1Sil     Ob  267   0.010   4.978  11.955  0.0103  0.7538 -0.7107
    1Sil     Ob  268   0.546   4.932  12.344  0.1744  0.3796 -0.5925
    1Sil     Ob  269   0.029   4.737  12.452  0.5869 -0.2011 -0.3101
    1Sil     Ob  270   0.631   4.687  11.679 -0.2299 -0.1238  0.9971
    1Sil     Ob  271   0.353   4.747  12.081 -0.1269 -0.0811  0.0435
    1Sil     Ob  272   0.087   4.791  12.692  0.4208 -0.2450  0.1429
    1Sil     Ob  273   0.306   4.888  12.300 -0.2768  0.3220 -0.3892
    1Sil     Ob  274  -0.111   4.774  12.244 -0.2019  0.3127 -0.1269
    1Sil     Ob  275   0.487   4.819  12.671  0.6117  0.0395  0.3135
    1Sil     Ob  276   0.190   4.812  11.893  0.8172  0.1798  0.3836
    1Sil     Ob  277   0.432   4.745  11.830  0.1831  0.4778  0.2822
    1Sil     Ob  278  -0.168   4.750  12.636 -0.2300 -0.7541 -0.5819
    1Sil     Ob  279   0.141   4.705  12.223 -0.2729 -0.7740 -0.7759
    1Sil     Ob  280  -0.204   4.974  12.104  0.1210  0.3877 -1.1883
    1Sil     Ob  281   0.382   5.013  12.523 -0.2655  0.1774  0.1701
    1Sil     Ob  282   0.108   4.985  11.711  0.1808  0.1926  0.5440
    1Sil     Ob  283   0.126   5.149  11.514 -0.2010 -0.2015  0.0702
    1Sil     Ob  284   0.694   5.121  10.724 -0.3370  0.5182 -0.3091
    1Sil     Ob  285   0.425   5.108  11.110  0.5977 -0.4609 -0.2966
    1Sil     Ob  286  -0.055   2.210  11.080  0.1053 -0.2454 -0.7487
    1Sil     Ob  287   0.544   2.101  11.513 -0.2484 -0.1716  0.3502
    1Sil     Ob  288   0.320   2.117  10.687  0.4483  0.2881  0.4279
    1Sil     Ob  289   0.306   2.036  11.550 -0.0142 -0.1071 -0.0253
    1Sil     Ob  290   0.063   2.045  10.747 -0.1164  0.2288  0.3165
    1Sil     Ob  291   0.601   2.027  11.160  0.0683  0.0386  0.2643
    1Sil     Ob  292   0.096   5.242  11.277  0.1708  0.1275 -0.7311
    1Sil     Ob  293   0.390   5.197  10.871  0.4571 -0.0817 -0.5444
    1Sil     Ob  294   0.064   5.399  11.478  0.0901 -0.1736 -0.1053
    1Sil     Ob  295   0.374   5.363  11.062  0.1930  0.1701 -0.2042
    1Sil     Ob  296   0.028   1.964  11.077  0.1894 -0.2978 -0.1015
    1Sil     Ob  297   0.477   1.863  11.474 -0.4958 -0.0102 -0.5634
    1Sil     Ob  298   0.226   1.855  10.685  0.3285 -0.1956 -0.3008
    1Sil     Ob  299   0.459   5.196  10.639 -0.5203 -0.1797  0.1945
    1Sil     Ob  300  -0.101   5.203  11.438  0.8057 -0.6855 -0.1827
    1Sil     Ob  301   0.192   5.192  11.039  0.5203  0.1272 -0.4317
    1Sil     Ob  302  -0.142   2.051  10.905 -0.3550 -0.0041  0.4343
    1Sil     Ob  303   0.389   2.042  11.312  0.2516  0.0777  0.4489
    1Sil     Ob  304   0.078   5.026  12.610  0.3617 -0.0918  0.8060
    1Sil     Ob  305   0.634   5.134  11.932  0.2072  0.1534 -0.3197
    1Sil     Ob  306   0.387   5.127  12.281 -0.0133  0.0146  0.1706
    1Sil     Ob  307  -0.046   2.086  12.302 -0.2534 -0.0930 -0.0514
    1Sil     Ob  308   0.430   2.144  12.766 -0.0669  0.0651 -0.0469
    1Sil     Ob  309   0.248   2.123  11.929  0.5905 -0.4339  0.3925
    1Sil     Ob  310   0.208   1.997  12.778 -0.6521  0.2562 -0.3761
    1Sil     Ob  311   0.012   2.031  11.950  0.4365  0.5382  0.2277
    1Sil     Ob  312   0.530   2.004  12.355  0.5796 -0.4933 -0.0118
    1Sil     Ob  313   0.038   5.197  12.420 -0.6007 -0.1513 -0.4782
    1Sil     Ob  314   0.630   5.223  11.672 -0.2223 -0.3776 -0.2254
    1Sil     Ob  315   0.342   5.248  12.059 -0.3101 -0.2979  0.0519
    1Sil     Ob  316   0.086   5.293  12.634  0.4792  0.7068  0.9883
    1Sil     Ob  317   0.294   5.375  12.286  0.3683  0.0713 -0.2360
    1Sil     Ob  318  -0.096   1.844  12.225 -0.0664  0.3666  0.8942
    1Sil     Ob  319   0.443   1.886  12.687  0.4103 -0.3015 -0.3653
    1Sil     Ob  320   0.197   1.888  11.851 -0.5772 -0.4929  0.3027
    1Sil     Ob  321   0.427   5.217  11.828 -0.2025  0.0489 -0.1949
    1Sil     Ob  322  -0.141   5.183  12.598  0.2132 -0.0711 -0.4111
    1Sil     Ob  323   0.153   5.175  12.196  0.0708 -0.0623  0.3034
    1Sil     Ob  324  -0.194   2.039  12.103 -0.0020  0.5755 -0.5636
    1Sil     Ob  325   0.326   2.055  12.536 -0.1084 -0.4468  0.4705
    1Sil     Ob  326   0.115   2.100  11.713  0.5148 -0.1755 -0.0837
    1Sil     Ob  327   0.924   2.200  11.536  0.0292 -0.3464 -0.8294
    1Sil     Ob  328   1.499   2.161  10.657 -0.4485  0.3399 -0.1217
    1Sil     Ob  329   1.250   2.198  11.057 -0.0085  0.2410  0.5371
    1Sil     Ob  330   0.812   2.590  11.181  0.1330  0.4603 -0.2009
    1Sil     Ob  331   1.356   2.600  11.535  0.3103  0.0988 -0.3635
    1Sil     Ob  332   0.969   2.654  10.633  0.7090 -0.3742  0.9719
    1Sil     Ob  333   1.107   2.527  11.576  0.0522 -0.4015 -0.3101
    1Sil     Ob  334   0.853   2.523  10.800  0.3730 -0.1795 -0.1461
    1Sil     Ob  335   1.395   2.492  11.206  0.4176  0.6669  0.3338
    1Sil     Ob  336   0.918   2.270  11.282 -0.1513 -0.2582 -0.1130
    1Sil     Ob  337   1.582   2.415  10.589  0.0362 -0.6317 -0.1357
    1Sil     Ob  338   1.173   2.376  10.865 -0.1520 -0.0380 -0.0212
    1Sil     Ob  339   0.883   2.456  11.468  0.3376 -0.1292 -0.2655
    1Sil     Ob  340   0.626   2.451  10.774 -0.7713 -0.4679 -0.0988
    1Sil     Ob  341   1.163   2.433  11.121 -0.8406  0.3677  0.6057
    1Sil     Ob  342   0.766   2.352  11.090 -0.0889 -0.3393  0.0311
    1Sil     Ob  343   1.270   2.355  11.491  0.3017 -0.2801 -0.1179
    1Sil     Ob  344   1.048   2.418  10.648  0.0115 -0.5871  0.2281
    1Sil     Ob  345   1.304   2.343  10.631 -0.2174 -0.1183 -0.6718
    1Sil     Ob  346   0.709   2.278  11.435  0.0305  0.1440  0.2380
    1Sil     Ob  347   1.001   2.270  11.029  0.4966  0.0627 -0.7982
    1Sil     Ob  348   0.679   2.560  10.988  0.3650 -0.2611 -0.5439
    1Sil     Ob  349   1.198   2.564  11.338  0.8999  0.4033 -0.1414
    1Sil     Ob  350   0.802   2.156  12.731  0.2111  0.5310 -0.1724
    1Sil     Ob  351   1.434   2.211  11.940 -0.4057  0.2737 -0.0665
    1Sil     Ob  352   1.151   2.194  12.326  0.3788 -0.2783  0.1215
    1Sil     Ob  353   0.772   2.576  12.316  0.1384  0.7178  0.3382
    1Sil     Ob  354   1.336   2.599  12.669 -0.7247  0.4442 -0.0401
    1Sil     Ob  355   1.065   2.592  11.927  0.5656 -0.1180 -0.1658
    1Sil     Ob  356   1.090   2.518  12.755 -0.3590 -0.3087  0.4316
    1Sil     Ob  357   0.828   2.511  11.984 -0.5382  0.3284  0.2390
    1Sil     Ob  358   1.343   2.473  12.345 -0.3272  0.2631  0.1191
    1Sil     Ob  359   0.836   2.246  12.486  0.5392  0.5347 -0.0436
    1Sil     Ob  360   1.427   2.272  11.685  0.4751 -0.5873  0.1810
    1Sil     Ob  361   1.134   2.262  12.087 -0.2388 -0.3222  0.0703
    1Sil     Ob  362   0.849   2.425  12.681  0.0381  0.2649  0.0529
    1Sil     Ob  363   0.604   2.449  11.882 -0.2796  0.0349 -0.4760
    1Sil     Ob  364   1.106   2.435  12.267  0.3255 -0.3068 -1.3197
    1Sil     Ob  365   0.692   2.335  12.299  0.1718  0.2201  0.4898
    1Sil     Ob  366   1.261   2.350  12.644  0.5338 -0.3586 -0.2617
    1Sil     Ob  367   0.984   2.348  11.884  0.0520  0.5258  0.4985
    1Sil     Ob  368   1.224   2.300  11.838 -0.3209  0.7804  0.1322
    1Sil     Ob  369   0.613   2.289  12.639 -0.3026 -0.2742  0.0813
    1Sil     Ob  370   0.922   2.257  12.240 -0.0044 -0.5406  0.2684
    1Sil     Ob  371   0.614   2.511  12.133 -0.3850 -0.2078 -0.2642
    1Sil     Ob  372   1.149   2.528  12.507  0.1864 -0.6278 -0.2460
    1Sil     Ob  373   0.898   2.537  11.726 -0.3832 -0.4743  0.2798
    1Sil     Ob  374   0.933   2.701  11.531  0.3711 -0.0418 -0.8481
    1Sil     Ob  375   1.412   2.630  10.771  0.0779 -0.1366 -0.0460
    1Sil     Ob  376   1.245   2.678  11.100  0.1889  0.0096  0.3657
    1Sil     Ob  377   0.838   3.074  11.103 -0.5161  0.9514 -0.1318
    1Sil     Ob  378   1.340   3.086  11.512 -0.3346  0.5406 -0.4791
    1Sil     Ob  379   1.072   3.153  10.616  0.0368 -0.2490  0.7265
    1Sil     Ob  380   1.105   2.997  11.577 -0.4743 -0.1918  0.0203
    1Sil     Ob  381   0.854   3.082  10.711  0.4933  0.0400 -0.2385
    1Sil     Ob  382   1.384   2.992  11.186  0.8419 -0.1198  0.0759
    1Sil     Ob  383   0.896   2.809  11.294 -0.1136 -0.1619  0.4353
    1Sil     Ob  384   1.109   2.711  10.869  0.4700 -0.0466  0.6549
    1Sil     Ob  385   0.869   2.947  11.504 -0.1187 -0.1233 -0.1464
    1Sil     Ob  386   0.662   2.923  10.671  0.2044 -0.2806 -1.0164
    1Sil     Ob  387   1.147   2.921  11.056  0.4582  0.6498 -0.2616
    1Sil     Ob  388   0.789   2.835  11.058  0.3919 -0.3925  0.3528
    1Sil     Ob  389   1.285   2.844  11.478 -0.0516 -0.2741  0.1159
    1Sil     Ob  390   1.045   2.905  10.708 -0.0592 -0.8361  0.0675
    1Sil     Ob  391   1.222   2.727  10.636 -0.5288 -0.6198 -0.0749
    1Sil     Ob  392   0.702   2.772  11.451 -0.2741 -0.1808  0.2841
    1Sil     Ob  393   1.007   2.707  11.093  0.3359  0.0276  0.2846
    1Sil     Ob  394   0.667   3.046  10.900 -0.0897  0.3117  0.5700
    1Sil     Ob  395   1.184   3.011  11.321  0.4097 -0.0605 -0.2407
    1Sil     Ob  396   0.903   2.681  12.727 -0.4079  0.0697  0.2773
    1Sil     Ob  397   1.473   2.700  11.919  0.5234  0.1466  0.2475
    1Sil     Ob  398   1.201   2.682  12.301  0.2139  0.1514 -0.1506
    1Sil     Ob  399   0.766   3.073  12.308  0.6397  0.0955  0.5197
    1Sil     Ob  400   1.289   3.086  12.746 -0.1156  0.0357 -0.1872
    1Sil     Ob  401   1.074   3.080  11.930  0.1022 -0.2678 -0.6045
    1Sil     Ob  402   1.043   3.001  12.785 -0.4722 -0.1126  0.0939
    1Sil     Ob  403   0.834   3.020  11.978  0.5075 -0.1908 -0.1089
    1Sil     Ob  404   1.351   3.008  12.370 -0.4491  0.1217 -0.6332
    1Sil     Ob  405   0.873   2.742  12.482 -0.2821  0.0512 -0.1154
    1Sil     Ob  406   1.443   2.788  11.672 -0.1168  0.1054 -0.2917
    1Sil     Ob  407   1.158   2.783  12.069  0.4673 -0.3445 -0.0535
    1Sil     Ob  408   0.830   2.922  12.651 -0.1634  0.2105 -0.3342
    1Sil     Ob  409   0.627   2.934  11.863 -0.4200 -0.3557 -0.1611
    1Sil     Ob  410   1.124   2.914  12.303 -0.0582 -0.1744  0.4277
    1Sil     Ob  411   0.722   2.820  12.274  0.2515  0.4129 -0.1154
    1Sil     Ob  412   1.291   2.835  12.792  0.3290 -0.1849 -0.2403
    1Sil     Ob  413   1.004   2.839  11.886  0.0306  0.1298 -0.1401
    1Sil     Ob  414   1.240   2.754  11.831 -0.4936  0.1903 -0.2102
    1Sil     Ob  415   0.663   2.727  12.645  0.0377  0.1395 -0.0260
    1Sil     Ob  416   0.961   2.734  12.236  0.2925 -0.4979 -0.0320
    1Sil     Ob  417   0.627   2.992  12.109 -0.0443  0.1852  0.3289
    1Sil     Ob  418   1.177   2.956  12.555 -0.7142  0.8806 -0.3122
    1Sil     Ob  419   0.920   3.026  11.735 -0.0679  0.2072  0.1367
    1Sil     Ob  420   0.946   3.184  11.530 -0.4913 -0.2177  0.1727
    1Sil     Ob  421   1.459   3.125  10.796  0.1206  0.6499 -0.1601
    1Sil     Ob  422   1.212   3.170  11.112  0.3466 -0.0911 -0.5059
    1Sil     Ob  423   0.830   3.556  11.137 -0.1356  0.3394 -0.4920
    1Sil     Ob  424   1.379   3.577  11.473 -0.0925 -0.8537 -0.1841
    1Sil     Ob  425   1.027   3.652  10.708  0.3478  0.3245 -0.2030
    1Sil     Ob  426   1.138   3.504  11.529  0.0588  0.3191 -0.0388
    1Sil     Ob  427   0.869   3.450  10.753 -0.0648  0.4121 -0.0182
    1Sil     Ob  428   1.410   3.485  11.121  0.2279  0.5060 -0.0143
    1Sil     Ob  429   0.933   3.242  11.278  0.3394  0.0866 -0.3775
    1Sil     Ob  430   1.604   3.124  10.599 -0.0445  0.0712  0.2884
    1Sil     Ob  431   1.174   3.211  10.853  0.2926  0.4209 -0.6014
    1Sil     Ob  432   0.909   3.431  11.449 -0.1045  0.1724 -0.1816
    1Sil     Ob  433   0.619   3.417  10.714 -0.2970  0.1633  0.2257
    1Sil     Ob  434   1.193   3.416  11.025  0.1883  0.5477 -0.2194
    1Sil     Ob  435   0.762   3.310  11.107  0.2080  0.1991 -0.1811
    1Sil     Ob  436   1.295   3.339  11.441  0.3353 -0.3692  0.0942
    1Sil     Ob  437   1.123   3.405  10.686  0.6626  0.0556  0.6597
    1Sil     Ob  438   1.325   3.232  10.632 -0.3429 -0.8027 -1.0182
    1Sil     Ob  439   0.716   3.263  11.432 -0.1631 -0.5161 -0.1827
    1Sil     Ob  440   0.994   3.267  11.027 -0.3179  0.3355  0.9875
    1Sil     Ob  441   0.676   3.473  10.946  0.3441 -0.3236  0.2373
    1Sil     Ob  442   1.207   3.520  11.269 -0.5420  0.3645  0.3142
    1Sil     Ob  443   0.914   3.165  12.630  0.0721  0.1260 -0.0359
    1Sil     Ob  444   1.469   3.183  11.899 -0.3632  0.8938  0.3770
    1Sil     Ob  445   1.160   3.158  12.357  0.7682  0.1199 -0.5829
    1Sil     Ob  446   0.785   3.544  12.264 -0.4676 -0.0572  0.2378
    1Sil     Ob  447   1.296   3.573  12.721 -0.0116 -0.0532 -0.4781
    1Sil     Ob  448   1.076   3.581  11.881  0.1412  0.5554  0.7328
    1Sil     Ob  449   1.067   3.472  12.737 -0.4142 -0.1868 -0.4443
    1Sil     Ob  450   0.836   3.521  11.948 -0.2777  0.3576  0.8792
    1Sil     Ob  451   1.351   3.460  12.344  0.1117 -0.3364 -0.0840
    1Sil     Ob  452   0.843   3.281  12.425 -0.5454 -0.1786  0.6084
    1Sil     Ob  453   1.429   3.281  11.670 -0.4267 -0.5385  0.7791
    1Sil     Ob  454   1.172   3.237  12.093  0.4532 -0.2642 -0.6183
    1Sil     Ob  455   0.836   3.418  12.642  0.1492 -1.3976  0.0771
    1Sil     Ob  456   0.615   3.437  11.851  0.4003 -0.8532  0.2987
    1Sil     Ob  457   1.112   3.404  12.276  0.1256  0.8878 -0.2753
    1Sil     Ob  458   0.706   3.308  12.224 -1.0006  0.1439 -0.1470
    1Sil     Ob  459   1.244   3.326  12.646  0.2623  0.0327 -0.1642
    1Sil     Ob  460   1.004   3.329  11.906 -0.3497 -0.7480  0.2409
    1Sil     Ob  461   1.241   3.242  11.842  0.1344  0.0067  0.1958
    1Sil     Ob  462   0.679   3.226  12.610 -0.0261 -0.9587 -0.0208
    1Sil     Ob  463   0.956   3.220  12.217 -0.3500 -0.3940  0.4682
    1Sil     Ob  464   0.618   3.512  12.094 -0.0732 -0.1874  0.2651
    1Sil     Ob  465   1.161   3.529  12.501 -0.6441 -0.6329 -0.7238
    1Sil     Ob  466   0.928   3.487  11.701  0.1248  0.3937 -0.4662
    1Sil     Ob  467   0.943   3.678  11.528  0.3813 -0.5974 -0.0024
    1Sil     Ob  468   1.433   3.600  10.665 -0.9227  0.3336  0.3386
    1Sil     Ob  469   1.238   3.674  11.042 -0.3102 -0.6584 -0.1387
    1Sil     Ob  470   0.831   4.062  11.146  0.1133  0.0457  0.3040
    1Sil     Ob  471   1.340   4.056  11.520 -0.0006  0.7434  0.1831
    1Sil     Ob  472   1.057   4.148  10.634 -0.0552  0.2475 -1.1557
    1Sil     Ob  473   1.100   3.969  11.566  0.2044  0.2824  0.4056
    1Sil     Ob  474   0.865   4.028  10.799  0.4029 -0.7063 -0.1044
    1Sil     Ob  475   1.386   3.931  11.177  0.1857  0.0114  0.0981
    1Sil     Ob  476   0.918   3.747  11.287 -0.9498 -0.4019  0.2472
    1Sil     Ob  477   1.146   3.830  10.852 -0.2924 -0.2240 -0.0153
    1Sil     Ob  478   0.865   3.922  11.484 -0.4395  0.2765  0.1106
    1Sil     Ob  479   0.632   3.904  10.754 -0.0982 -0.2987  0.9118
    1Sil     Ob  480   1.149   3.899  11.109 -0.7973  0.5675 -0.1006
    1Sil     Ob  481   0.763   3.811  11.098  0.5595 -0.4746 -0.3305
    1Sil     Ob  482   1.283   3.810  11.469  0.3777 -0.7528  0.2606
    1Sil     Ob  483   0.998   3.900  10.631  0.0772  0.1737  0.1608
    1Sil     Ob  484   1.236   3.773  10.630 -0.4282 -0.0835 -0.1460
    1Sil     Ob  485   0.716   3.713  11.446 -0.0085  0.2349  0.6530
    1Sil     Ob  486   0.992   3.727  11.039 -0.1883 -0.1104 -1.2405
    1Sil     Ob  487   0.668   4.012  10.975  0.2771  0.0513 -0.1640
    1Sil     Ob  488   1.196   4.003  11.323  0.3813 -0.0404 -0.4256
    1Sil     Ob  489   0.919   3.646  12.658  0.4330  0.1201 -0.0299
    1Sil     Ob  490   1.471   3.675  11.908  0.6307  0.3808  0.1330
    1Sil     Ob  491   1.192   3.655  12.285 -0.2404  0.2440  0.0278
    1Sil     Ob  492   0.786   4.035  12.316  0.0821  0.5354  0.3446
    1Sil     Ob  493   1.260   4.076  12.735 -0.3944  0.5829  0.4869
    1Sil     Ob  494   1.067   4.061  11.928 -0.5425 -0.8931 -0.2346
    1Sil     Ob  495   1.017   3.934  12.749  0.0347  0.3515  0.5967
    1Sil     Ob  496   0.831   3.987  11.966  0.0012 -0.3013  0.2294
    1Sil     Ob  497   1.339   3.943  12.342 -0.1375 -0.0072  0.2569
    1Sil     Ob  498   0.883   3.701  12.417  0.1965  0.1071 -0.4660
    1Sil     Ob  499   1.448   3.746  11.659 -0.7681 -0.1846  0.2014
    1Sil     Ob  500   1.159   3.752  12.047 -0.4492 -0.4009 -0.3660
    1Sil     Ob  501   0.864   3.876  12.586  0.3529 -0.3267  0.3436
    1Sil     Ob  502   0.602   3.934  11.881  0.0228 -0.1055 -0.1986
    1Sil     Ob  503   1.111   3.896  12.268 -0.1317 -0.3075  0.0454
    1Sil     Ob  504   0.716   3.793  12.255 -0.0158 -0.7003 -0.2850
    1Sil     Ob  505   1.236   3.819  12.653 -0.5906 -0.7263  0.6154
    1Sil     Ob  506   1.009   3.830  11.869 -0.3545 -0.3125  0.0444
    1Sil     Ob  507   1.238   3.757  11.805  0.1062 -0.3168  0.4785
    1Sil     Ob  508   0.687   3.710  12.590  0.2351  0.0129  0.0720
    1Sil     Ob  509   0.955   3.716  12.186 -0.7276 -0.1321 -0.0357
    1Sil     Ob  510   0.628   3.983  12.112 -0.0134  0.2330  0.1605
    1Sil     Ob  511   1.137   4.004  12.510  0.4329 -0.3632  0.2022
    1Sil     Ob  512   0.919   4.026  11.721 -0.4523 -0.0449 -0.2738
    1Sil     Ob  513   0.960   4.166  11.499 -0.0860  0.5984  0.3702
    1Sil     Ob  514   1.482   4.095  10.766  0.0665  0.2287 -0.2402
    1Sil     Ob  515   1.230   4.138  11.109 -0.5709  0.7556  0.1570
    1Sil     Ob  516   0.845   4.535  11.064 -0.0372  1.1352  0.3202
    1Sil     Ob  517   1.352   4.540  11.488 -0.7916  0.3512 -0.2775
    1Sil     Ob  518   1.097   4.625  10.613  0.2865 -0.0112  0.4011
    1Sil     Ob  519   1.118   4.484  11.567  0.2329 -0.4642 -0.5311
    1Sil     Ob  520   0.884   4.506  10.688  0.5282  0.3956 -0.1757
    1Sil     Ob  521   1.400   4.459  11.153  0.2410  0.4996  0.6785
    1Sil     Ob  522   0.909   4.273  11.265  0.4204 -0.0029  0.3947
    1Sil     Ob  523   1.195   4.199  10.854 -0.1214 -0.2212 -1.0776
    1Sil     Ob  524   0.889   4.413  11.478  0.9821 -0.2446 -0.4887
    1Sil     Ob  525   0.683   4.353  10.627 -0.2827 -0.4875 -0.2934
    1Sil     Ob  526   1.183   4.380  11.044 -0.2150 -0.1756  0.0568
    1Sil     Ob  527   0.772   4.291  11.037 -0.1551  0.0096  0.5951
    1Sil     Ob  528   1.273   4.305  11.478  0.1524 -0.1053 -0.3138
    1Sil     Ob  529   1.132   4.386  10.680 -0.4323  0.4198 -0.0896
    1Sil     Ob  530   1.329   4.186  10.608 -0.6699  0.3310 -0.3568
    1Sil     Ob  531   0.719   4.233  11.431 -0.7337  0.5888  0.5131
    1Sil     Ob  532   1.003   4.193  11.038  0.4285 -0.0385  0.1715
    1Sil     Ob  533   0.681   4.483  10.861  1.0280 -0.1748  0.6971
    1Sil     Ob  534   1.188   4.464  11.301  0.7787 -0.3296  0.7248
    1Sil     Ob  535   0.821   4.094  12.718 -0.2751 -0.1709  0.0120
    1Sil     Ob  536   1.456   4.174  11.913  0.0788  0.2731  0.1019
    1Sil     Ob  537   1.187   4.131  12.292  0.2640 -0.5198 -0.6429
    1Sil     Ob  538   0.766   4.534  12.330  0.8137  0.3066  0.2195
    1Sil     Ob  539   1.388   4.586  12.765 -0.4946 -0.1485 -0.2536
    1Sil     Ob  540   1.069   4.557  11.916  0.1167  0.9927  0.1358
    1Sil     Ob  541   1.134   4.482  12.802 -0.2523  0.3543 -0.2499
    1Sil     Ob  542   0.839   4.497  11.977  0.7868 -0.6748 -0.2775
    1Sil     Ob  543   1.374   4.427  12.345 -0.2103 -0.0806 -0.1139
    1Sil     Ob  544   0.856   4.230  12.498  0.2306  0.6041 -0.2856
    1Sil     Ob  545   1.430   4.233  11.670  0.2511  0.2283  0.6792
    1Sil     Ob  546   1.148   4.269  12.082  0.8518 -0.3289 -0.4700
    1Sil     Ob  547   0.929   4.334  12.730 -0.1093  0.3283  0.2104
    1Sil     Ob  548   0.625   4.421  11.874  0.2546 -0.8050 -0.3230
    1Sil     Ob  549   1.134   4.374  12.324 -0.0297  0.2519  0.7848
    1Sil     Ob  550   0.709   4.290  12.283 -0.5518  0.3947 -0.6790
    1Sil     Ob  551   1.352   4.325  12.782  0.3442 -0.6932  0.7911
    1Sil     Ob  552   0.999   4.310  11.881 -0.1558 -0.8172  0.0101
    1Sil     Ob  553   1.231   4.234  11.830 -0.5480 -0.2090  0.3871
    1Sil     Ob  554   0.677   4.291  12.688 -0.2791 -0.0906 -0.1448
    1Sil     Ob  555   0.951   4.213  12.255  0.1418  0.0671 -0.6174
    1Sil     Ob  556   0.627   4.477  12.129  0.1249 -0.5166  1.1755
    1Sil     Ob  557   1.233   4.448  12.564 -0.2200 -0.6006  0.2072
    1Sil     Ob  558   0.919   4.495  11.722  0.0213 -0.0171  0.0804
    1Sil     Ob  559   0.945   4.656  11.519 -0.0134 -0.0560 -0.1704
    1Sil     Ob  560   1.505   4.587  10.670  0.2542 -0.2568 -0.5007
    1Sil     Ob  561   1.233   4.623  11.105 -0.1271 -0.0593  0.3382
    1Sil     Ob  562   0.819   5.014  11.117 -0.2743 -0.3863  0.3834
    1Sil     Ob  563   1.345   5.034  11.492  0.5136 -0.3249  0.1751
    1Sil     Ob  564   1.015   5.110  10.672 -0.3933 -0.6167 -0.2361
    1Sil     Ob  565   1.109   4.972  11.547  0.4343  0.0859 -0.4453
    1Sil     Ob  566   0.855   4.924  10.740 -0.1192 -0.2317  0.7183
    1Sil     Ob  567   1.395   4.952  11.177  0.3130 -0.1233 -0.4339
    1Sil     Ob  568   0.917   4.699  11.257 -0.1857  0.3943  0.1403
    1Sil     Ob  569   1.617   4.832  10.583  0.4765  0.3185  0.2087
    1Sil     Ob  570   1.206   4.688  10.844  0.7118  0.3379 -0.0304
    1Sil     Ob  571   0.893   4.888  11.453 -0.2600  0.7045 -0.8111
    1Sil     Ob  572   0.603   4.891  10.676 -0.1314 -0.1905 -0.3971
    1Sil     Ob  573   1.205   4.863  11.040 -0.4628  0.6250  0.3006
    1Sil     Ob  574   0.758   4.771  11.057 -0.3804  0.3069  0.1702
    1Sil     Ob  575   1.271   4.791  11.468 -0.2296 -0.1454  0.0050
    1Sil     Ob  576   1.111   4.863  10.697  0.5174 -0.6306  0.4679
    1Sil     Ob  577   1.334   4.759  10.618  0.2870  0.5073  0.6644
    1Sil     Ob  578   0.716   4.725  11.431 -0.1327  0.3092 -0.0426
    1Sil     Ob  579   1.006   4.717  11.017 -0.3165 -0.1263  0.0643
    1Sil     Ob  580   0.657   4.958  10.924 -0.2959 -0.0842 -0.0427
    1Sil     Ob  581   1.181   4.969  11.292 -0.0800  0.4997 -0.5622
    1Sil     Ob  582   0.930   4.592  12.672  0.1130  0.1681  0.0542
    1Sil     Ob  583   1.450   4.661  11.907  0.5547 -0.2955 -0.0646
    1Sil     Ob  584   1.205   4.625  12.348 -0.2194 -0.6408 -0.3525
    1Sil     Ob  585   0.780   5.012  12.269 -0.1568 -0.4914  0.2452
    1Sil     Ob  586   1.325   5.054  12.718  0.2700 -0.1315 -0.3236
    1Sil     Ob  587   1.071   5.035  11.898 -0.1377  0.4535  0.2091
    1Sil     Ob  588   1.097   4.931  12.632  0.0620  0.0885  0.0485
    1Sil     Ob  589   0.834   4.982  11.956 -0.3077 -0.0043  0.1509
    1Sil     Ob  590   1.349   4.950  12.200 -0.1511 -0.0421  0.4970
    1Sil     Ob  591   0.833   4.730  12.470  0.4157  0.5956  0.1461
    1Sil     Ob  592   1.421   4.719  11.668  0.1960  0.0485  0.0576
    1Sil     Ob  593   1.165   4.714  12.090 -0.3338 -0.4003  0.2656
    1Sil     Ob  594   0.864   4.845  12.702  0.6966  0.4096  0.3092
    1Sil     Ob  595   0.634   4.894  11.841 -0.2433  0.2035  0.2476
    1Sil     Ob  596   1.132   4.865  12.293 -0.7500  0.5663  0.1072
    1Sil     Ob  597   0.729   4.776  12.249  0.7636  0.2009 -0.1024
    1Sil     Ob  598   1.316   4.808  12.674  0.0627 -0.3080  0.2922
    1Sil     Ob  599   0.995   4.798  11.920 -0.0201  0.1422  0.6192
    1Sil     Ob  600   1.222   4.742  11.840 -0.3744  0.0282  0.0792
    1Sil     Ob  601   0.681   4.661  12.660 -0.7690 -0.2426  0.1462
    1Sil     Ob  602   0.966   4.675  12.250  0.1896  0.1668 -0.3256
    1Sil     Ob  603   0.622   4.945  12.096  0.1705  0.2307  0.4771
    1Sil     Ob  604   1.294   4.967  12.467 -0.0774 -0.0868  0.2109
    1Sil     Ob  605   0.916   4.936  11.708 -0.0608 -0.2302 -0.0845
    1Sil     Ob  606   0.927   5.135  11.531  0.1477 -0.0967 -0.2493
    1Sil     Ob  607   1.428   5.073  10.751  0.1885 -0.5920 -0.0069
    1Sil     Ob  608   1.219   5.125  11.091 -0.1341 -0.0784  0.3836
    1Sil     Ob  609   0.837   2.097  11.104 -0.4680 -0.3697  0.2425
    1Sil     Ob  610   1.355   2.109  11.510 -0.0709  0.2777 -0.1994
    1Sil     Ob  611   1.116   2.186  10.696 -0.0784 -0.6766 -0.1431
    1Sil     Ob  612   1.121   2.038  11.543 -0.6558 -0.1960 -0.0915
    1Sil     Ob  613   0.887   2.057  10.754  0.1467  0.3025 -0.2381
    1Sil     Ob  614   1.391   1.986  11.116  0.2086  0.2963  0.2626
    1Sil     Ob  615   0.902   5.193  11.269 -0.3286  0.2375 -0.3160
    1Sil     Ob  616   1.166   5.222  10.854 -0.1480 -0.3341 -0.3053
    1Sil     Ob  617   0.897   5.371  11.450 -0.1967 -0.5688 -0.0684
    1Sil     Ob  618   0.660   5.381  10.662  0.0642 -0.5082 -0.0628
    1Sil     Ob  619   1.145   5.370  11.071 -0.1352  0.1988  0.3243
    1Sil     Ob  620   0.754   1.847  11.070 -0.4654  0.0134 -0.5019
    1Sil     Ob  621   1.291   1.872  11.445 -0.6122 -0.5304 -0.3902
    1Sil     Ob  622   1.090   1.947  10.648  0.2788 -0.1219  0.3621
    1Sil     Ob  623   1.255   5.177  10.622  0.2140 -0.2663  0.3822
    1Sil     Ob  624   0.710   5.201  11.434  0.1917 -0.1792 -0.3957
    1Sil     Ob  625   0.979   5.177  11.028  0.3899  1.0316  0.4216
    1Sil     Ob  626   0.673   2.042  10.907 -0.8589 -0.2027  0.2359
    1Sil     Ob  627   1.218   2.070  11.299 -0.1939  0.8219  0.0269
    1Sil     Ob  628   0.906   5.110  12.666 -0.5866 -0.6927 -0.6789
    1Sil     Ob  629   1.481   5.149  11.879 -0.1689 -0.4263 -0.4351
    1Sil     Ob  630   1.175   5.118  12.301 -0.3580 -0.5094  0.5116
    1Sil     Ob  631   0.763   2.083  12.307 -0.1155 -0.9836 -0.1175
    1Sil     Ob  632   1.231   2.110  12.748 -0.4501  0.3798 -0.5159
    1Sil     Ob  633   1.060   2.103  11.886 -0.6799  0.0777 -0.1364
    1Sil     Ob  634   0.986   1.988  12.759  0.8038  0.0608  0.2191
    1Sil     Ob  635   0.825   2.032  11.953  0.5818  0.2228 -0.2453
    1Sil     Ob  636   1.332   2.015  12.374 -0.3650 -0.4201  0.3748
    1Sil     Ob  637   0.871   5.181  12.413 -0.0044 -0.3447 -0.0353
    1Sil     Ob  638   1.440   5.238  11.649 -0.2993  0.2740 -0.3851
    1Sil     Ob  639   1.160   5.206  12.059  0.3552  0.2218  0.3556
    1Sil     Ob  640   0.831   5.348  12.594 -0.1845 -0.2797  0.0286
    1Sil     Ob  641   0.603   5.386  11.865  0.7875 -0.1518 -0.2053
    1Sil     Ob  642   1.100   5.370  12.263 -0.1747 -0.0002  0.0910
    1Sil     Ob  643   0.696   1.841  12.248 -0.0413  0.2467 -0.0198
    1Sil     Ob  644   1.205   1.863  12.692  0.2566  0.3517  0.0808
    1Sil     Ob  645   1.001   1.858  11.872  0.1646  0.3010  0.1080
    1Sil     Ob  646   1.235   5.211  11.815  0.3162  0.2655 -0.5124
    1Sil     Ob  647   0.673   5.190  12.584 -0.1788 -0.4881 -0.2782
    1Sil     Ob  648   0.945   5.185  12.184  0.4142 -0.1204 -0.1411
    1Sil     Ob  649   0.619   2.031  12.117 -0.6887  0.0025 -0.5560
    1Sil     Ob  650   1.106   2.042  12.522 -0.1286  0.0015 -0.0878
    1Sil     Ob  651   0.907   2.007  11.698 -0.3680  0.9007 -0.1664
    1Sil     Ob  652   1.731   2.204  11.550  0.4015 -0.0097  0.0016
    1Sil     Ob  653   2.279   2.104  10.629 -0.0784  0.2955 -0.2559
    1Sil     Ob  654   2.040   2.197  11.051  0.3432  0.0075 -0.4013
    1Sil     Ob  655   1.631   2.571  11.179 -0.6292 -0.5811 -0.1873
    1Sil     Ob  656   2.153   2.605  11.509 -0.3233  0.1564  0.3941
    1Sil     Ob  657   1.780   2.634  10.610  0.7261  0.6306 -0.5689
    1Sil     Ob  658   1.922   2.523  11.542 -0.1595  0.1829 -0.5606
    1Sil     Ob  659   1.655   2.507  10.795 -0.8231 -0.1096  0.1703
    1Sil     Ob  660   2.192   2.480  11.132 -0.1151 -0.0110  0.6719
    1Sil     Ob  661   1.724   2.260  11.301 -0.1161  0.2118 -0.4139
    1Sil     Ob  662   1.948   2.327  10.853 -0.1018  0.2412  0.0132
    1Sil     Ob  663   1.705   2.447  11.470 -0.0724 -0.0563  0.3107
    1Sil     Ob  664   1.471   2.374  10.801  0.0275 -0.1508  0.4710
    1Sil     Ob  665   1.951   2.432  11.086 -0.0598 -0.2830 -0.0548
    1Sil     Ob  666   1.570   2.333  11.114  0.3772 -0.0751  0.4233
    1Sil     Ob  667   2.080   2.368  11.441  0.0550 -0.1694  0.0610
    1Sil     Ob  668   1.827   2.374  10.633  0.2194  0.1602  0.1056
    1Sil     Ob  669   2.076   2.278  10.623  0.0305 -0.3393 -0.4162
    1Sil     Ob  670   1.516   2.299  11.450  1.0438 -0.6407 -1.1133
    1Sil     Ob  671   1.796   2.233  11.048  0.2214 -0.6165  0.0925
    1Sil     Ob  672   1.485   2.537  10.990  0.4409  0.3325 -0.1683
    1Sil     Ob  673   2.008   2.562  11.291 -0.1808 -0.2336  0.4880
    1Sil     Ob  674   1.738   2.178  12.694 -0.4881  0.3753  0.4142
    1Sil     Ob  675   2.273   2.227  11.876 -0.9811 -0.1315  0.5830
    1Sil     Ob  676   2.018   2.169  12.335  0.3843  0.2361  0.8615
    1Sil     Ob  677   1.562   2.598  12.337 -0.6786 -0.3925 -0.2820
    1Sil     Ob  678   2.090   2.634  12.730  0.1452  0.5188 -0.1382
    1Sil     Ob  679   1.896   2.587  11.871  0.3202 -0.2043  0.3263
    1Sil     Ob  680   1.846   2.535  12.794  0.0529  0.1462 -0.1897
    1Sil     Ob  681   1.656   2.536  11.945  0.1955 -0.0359  0.1645
    1Sil     Ob  682   2.156   2.508  12.367 -0.2281 -0.3413  0.0279
    1Sil     Ob  683   1.656   2.288  12.473 -0.2265  0.4959  0.3410
    1Sil     Ob  684   2.223   2.307  11.644  0.2488  0.0135 -0.0241
    1Sil     Ob  685   1.981   2.259  12.096 -0.2267 -0.4973 -0.1182
    1Sil     Ob  686   1.617   2.426  12.693  0.3303 -0.1557 -0.4201
    1Sil     Ob  687   1.438   2.451  11.858 -0.4790  0.2996  0.3421
    1Sil     Ob  688   1.928   2.410  12.305  0.2425  0.3573  0.1403
    1Sil     Ob  689   1.553   2.339  12.248  0.5600 -0.1182 -0.5999
    1Sil     Ob  690   2.077   2.384  12.756  0.7986 -0.3201  0.2110
    1Sil     Ob  691   1.808   2.339  11.903 -0.0168  0.3091  0.5646
    1Sil     Ob  692   2.045   2.265  11.826 -0.2003  0.4817 -0.3387
    1Sil     Ob  693   1.482   2.205  12.655 -0.0704  0.2921 -0.3277
    1Sil     Ob  694   1.785   2.217  12.260 -0.0651 -0.0056  0.1527
    1Sil     Ob  695   1.447   2.532  12.106 -0.1485  0.1055 -0.1525
    1Sil     Ob  696   1.962   2.500  12.548 -0.2266 -0.2459 -0.1369
    1Sil     Ob  697   1.734   2.494  11.704  0.5383 -0.0743 -0.6154
    1Sil     Ob  698   1.743   2.698  11.534  0.5681  0.2159 -0.5176
    1Sil     Ob  699   2.206   2.595  10.683  0.1480 -0.5855 -0.4237
    1Sil     Ob  700   2.023   2.677  11.054 -0.2925  0.0373 -0.1251
    1Sil     Ob  701   1.634   3.042  11.122  0.0301  0.0322 -0.0132
    1Sil     Ob  702   2.169   3.098  11.486 -0.0667 -0.2164  0.1394
    1Sil     Ob  703   1.839   3.126  10.745 -0.4129 -0.2251  0.4673
    1Sil     Ob  704   1.939   3.017  11.535  0.1404  0.5258 -0.0467
    1Sil     Ob  705   1.642   2.961  10.792 -0.2860 -0.5079 -0.4404
    1Sil     Ob  706   2.210   2.952  11.084  0.3890 -0.5918 -0.5082
    1Sil     Ob  707   1.741   2.759  11.299 -0.1716  0.4094  0.1837
    1Sil     Ob  708   1.922   2.756  10.824 -0.1323 -0.1951 -0.1499
    1Sil     Ob  709   1.712   2.948  11.472 -0.7453  0.2231  0.1366
    1Sil     Ob  710   1.401   2.876  10.725 -0.5922  0.2723  0.2412
    1Sil     Ob  711   1.958   2.923  11.029  0.0667 -0.2638  0.2076
    1Sil     Ob  712   1.555   2.812  11.146 -0.2433  0.1219  0.2293
    1Sil     Ob  713   2.114   2.847  11.455  0.0771 -0.0746 -0.6961
    1Sil     Ob  714   1.791   2.902  10.624  0.2437  0.4760  0.1026
    1Sil     Ob  715   2.016   2.761  10.592 -0.4756 -0.2031 -0.9008
    1Sil     Ob  716   1.532   2.773  11.435  0.6378 -0.0558  0.0498
    1Sil     Ob  717   1.776   2.742  11.037  0.0532  0.6857  0.1060
    1Sil     Ob  718   1.463   2.934  10.966  0.2039  0.2462  0.4803
    1Sil     Ob  719   2.021   3.012  11.270  0.3175 -0.9414  0.0777
    1Sil     Ob  720   1.705   2.666  12.637 -0.4411  0.0736  0.3752
    1Sil     Ob  721   2.284   2.691  11.894  0.3586 -0.3706 -0.0194
    1Sil     Ob  722   1.952   2.666  12.337 -0.6592  0.8795  0.3004
    1Sil     Ob  723   1.583   3.080  12.305 -0.3316  0.3353 -0.6034
    1Sil     Ob  724   2.115   3.094  12.582 -0.2318  0.2834 -0.3616
    1Sil     Ob  725   1.870   3.086  11.916  0.1296  0.5761 -0.2675
    1Sil     Ob  726   1.891   3.036  12.551  0.0039 -0.1649  0.1195
    1Sil     Ob  727   1.635   3.005  11.956 -0.3348  0.6572  0.0725
    1Sil     Ob  728   2.181   3.003  12.190 -0.4287  0.9953  0.0465
    1Sil     Ob  729   1.661   2.828  12.457  0.2437 -0.2934 -0.1100
    1Sil     Ob  730   2.139   2.781  11.696  0.4620 -0.2541 -0.0103
    1Sil     Ob  731   1.915   2.700  12.086  0.0710 -0.2689 -0.1004
    1Sil     Ob  732   1.741   2.921  12.697 -0.2928 -0.4835 -0.0651
    1Sil     Ob  733   1.407   2.942  11.871 -0.4556 -0.6794 -0.1846
    1Sil     Ob  734   1.931   2.912  12.214 -0.2885  0.2047 -0.0323
    1Sil     Ob  735   1.510   2.846  12.260  0.0782 -0.3483 -0.1330
    1Sil     Ob  736   2.045   2.854  12.619  0.1836 -0.6584 -0.1502
    1Sil     Ob  737   1.822   2.838  11.889  0.5225 -0.4988 -0.2660
    1Sil     Ob  738   2.066   2.790  11.926  0.7080 -0.3928 -0.0973
    1Sil     Ob  739   1.504   2.798  12.641 -0.2125 -0.0776 -0.2828
    1Sil     Ob  740   1.730   2.745  12.228 -0.4785  0.3105  0.3717
    1Sil     Ob  741   1.424   3.037  12.113 -0.2543 -0.6628  0.0219
    1Sil     Ob  742   2.073   2.956  12.391 -0.9868 -0.2369 -0.3033
    1Sil     Ob  743   1.731   3.012  11.717  0.2751 -0.7285  0.3987
    1Sil     Ob  744   1.756   3.193  11.518  0.4318 -0.1579  0.0540
    1Sil     Ob  745   2.314   3.106  10.633 -0.7501 -0.4237 -0.1926
    1Sil     Ob  746   2.062   3.162  11.056 -0.0815  0.1175 -0.3646
    1Sil     Ob  747   1.650   3.558  11.105  0.3635 -0.0699  0.0872
    1Sil     Ob  748   2.167   3.577  11.524  0.8939 -0.3947  0.2079
    1Sil     Ob  749   1.935   3.619  10.646 -0.0742  0.5439  0.5305
    1Sil     Ob  750   1.922   3.494  11.543 -0.5156  0.1288 -0.5882
    1Sil     Ob  751   1.698   3.548  10.709  0.3731 -0.1729 -0.0679
    1Sil     Ob  752   2.210   3.467  11.177  0.2980  0.1562  0.2748
    1Sil     Ob  753   1.719   3.254  11.269 -0.3275 -0.4641  0.2537
    1Sil     Ob  754   1.970   3.314  10.867  0.2923 -0.1893  0.0653
    1Sil     Ob  755   1.683   3.429  11.464 -0.1384  0.0271 -0.3916
    1Sil     Ob  756   1.545   3.358  10.704 -0.4097 -0.9165  0.1778
    1Sil     Ob  757   1.965   3.405  11.116  0.3385  0.3017  0.3638
    1Sil     Ob  758   1.579   3.305  11.057 -0.0261  0.3478 -0.3994
    1Sil     Ob  759   2.109   3.347  11.449 -0.1494 -0.2519 -0.2893
    1Sil     Ob  760   1.875   3.363  10.631 -0.1640 -0.2418 -0.1253
    1Sil     Ob  761   2.073   3.198  10.671 -0.7731 -0.1686  0.1214
    1Sil     Ob  762   1.525   3.234  11.428 -0.2364  0.6443  0.0127
    1Sil     Ob  763   1.809   3.214  11.035  0.2423 -0.1423  0.5787
    1Sil     Ob  764   1.515   3.514  10.894  0.2228  0.1554 -0.0105
    1Sil     Ob  765   2.027   3.554  11.305  0.5272  0.1878  0.8269
    1Sil     Ob  766   1.713   3.182  12.680 -0.1002  0.6184 -0.2778
    1Sil     Ob  767   2.281   3.194  11.913  0.2028 -0.3981  0.0492
    1Sil     Ob  768   2.000   3.164  12.267  0.4917  0.2987 -0.4267
    1Sil     Ob  769   1.579   3.563  12.312  0.0406  0.0575  0.1089
    1Sil     Ob  770   2.107   3.575  12.725 -0.3550 -0.3070 -0.2601
    1Sil     Ob  771   1.872   3.564  11.907 -0.1653  0.3347  0.2792
    1Sil     Ob  772   1.871   3.474  12.738 -0.3145 -0.8076 -0.0924
    1Sil     Ob  773   1.635   3.474  11.953  0.1584 -0.2001  0.0293
    1Sil     Ob  774   2.156   3.472  12.364  0.2009 -0.4918 -0.3760
    1Sil     Ob  775   1.667   3.265  12.448  0.6283 -0.1009 -0.4358
    1Sil     Ob  776   2.251   3.282  11.663  0.2200  0.4301 -0.2240
    1Sil     Ob  777   1.950   3.288  12.058 -0.0741 -0.9779  0.2405
    1Sil     Ob  778   1.623   3.429  12.660 -0.0040  0.3209  0.6756
    1Sil     Ob  779   1.398   3.428  11.875 -0.1587 -0.3387  0.7956
    1Sil     Ob  780   1.922   3.415  12.285 -0.3691 -0.0897 -0.3918
    1Sil     Ob  781   1.528   3.324  12.243  0.9252 -0.1667  0.1910
    1Sil     Ob  782   2.054   3.332  12.640 -0.3711  0.5243 -0.0571
    1Sil     Ob  783   1.815   3.331  11.842 -0.4485 -0.8502  0.3607
    1Sil     Ob  784   2.052   3.251  11.812 -0.1468  0.2766  0.2043
    1Sil     Ob  785   1.477   3.219  12.631 -0.2363 -0.2580  0.2446
    1Sil     Ob  786   1.762   3.230  12.211 -0.4890  0.0754 -0.0254
    1Sil     Ob  787   1.435   3.520  12.108  0.0660 -0.2209 -0.7612
    1Sil     Ob  788   1.960   3.528  12.509 -0.2873  0.2415  0.3003
    1Sil     Ob  789   1.713   3.513  11.708  0.0295  0.3785 -0.1260
    1Sil     Ob  790   1.760   3.678  11.512  0.5380  0.3992 -0.4283
    1Sil     Ob  791   2.251   3.597  10.745 -0.2992  0.7646  0.0191
    1Sil     Ob  792   2.048   3.636  11.050  0.2955 -0.4969 -0.1860
    1Sil     Ob  793   1.625   4.050  11.171  0.6184 -0.0026 -0.4072
    1Sil     Ob  794   2.172   4.059  11.485  0.9056 -0.3307  0.3578
    1Sil     Ob  795   1.883   4.133  10.642 -0.1850  0.2138 -0.5279
    1Sil     Ob  796   1.939   3.999  11.557 -0.0690 -0.1569  0.1021
    1Sil     Ob  797   1.694   3.984  10.784  0.4647 -0.2636 -0.7261
    1Sil     Ob  798   2.218   3.963  11.161  0.2044  0.0032 -0.1659
    1Sil     Ob  799   1.747   3.726  11.270  0.0177 -0.5773  0.7024
    1Sil     Ob  800   2.416   3.632  10.575  0.0414 -0.2350  0.0445
    1Sil     Ob  801   1.986   3.790  10.825  0.0024  0.2136  1.1065
    1Sil     Ob  802   1.726   3.922  11.445 -0.0691  0.4767 -0.2361
    1Sil     Ob  803   1.466   3.834  10.758  0.1924  0.2389 -1.0846
    1Sil     Ob  804   1.968   3.890  11.064 -0.0797  0.1432  0.2736
    1Sil     Ob  805   1.577   3.794  11.106 -0.0265  0.1386  0.2882
    1Sil     Ob  806   2.102   3.816  11.500 -0.2094  0.0809  0.1449
    1Sil     Ob  807   1.862   3.877  10.608 -0.2483 -0.5899  0.2000
    1Sil     Ob  808   2.135   3.765  10.606 -0.7803  0.1740  0.4692
    1Sil     Ob  809   1.534   3.767  11.418 -0.2594  0.0346 -0.3585
    1Sil     Ob  810   1.802   3.723  11.008 -0.0821  0.5003  0.2195
    1Sil     Ob  811   1.500   3.970  10.969 -0.7412 -0.1388 -0.0754
    1Sil     Ob  812   2.009   3.967  11.311 -0.0745  0.0868  0.4876
    1Sil     Ob  813   1.626   4.085  10.572  0.2073 -0.8392 -0.6537
    1Sil     Ob  814   1.701   3.671  12.704 -0.6971 -0.1688 -1.1401
    1Sil     Ob  815   2.266   3.687  11.940 -0.1426 -0.0699 -0.7093
    1Sil     Ob  816   1.999   3.658  12.299 -0.2613 -0.0566 -0.2872
    1Sil     Ob  817   1.548   4.066  12.308  0.2013 -0.0362  0.3932
    1Sil     Ob  818   2.094   4.073  12.734 -0.3091 -0.4053 -0.2561
    1Sil     Ob  819   1.879   4.051  11.898 -0.0269  0.6912  0.1171
    1Sil     Ob  820   1.833   4.014  12.765 -1.0267  0.1572  0.1273
    1Sil     Ob  821   1.646   4.002  11.946 -0.6913  0.0952  0.1652
    1Sil     Ob  822   2.164   3.957  12.363  0.4831  0.0230  0.3275
    1Sil     Ob  823   1.680   3.741  12.451  0.6982 -0.1872  0.1907
    1Sil     Ob  824   2.258   3.750  11.688 -0.7377  0.8485  0.8021
    1Sil     Ob  825   1.963   3.748  12.068 -0.1451 -0.2524 -0.7116
    1Sil     Ob  826   1.640   3.913  12.624 -0.5251  0.4569 -0.2093
    1Sil     Ob  827   1.422   3.926  11.848  0.3622  0.6230  0.2163
    1Sil     Ob  828   1.931   3.899  12.275  0.6156 -0.0414  0.2423
    1Sil     Ob  829   1.536   3.805  12.249  0.6887  0.1337 -0.0421
    1Sil     Ob  830   2.023   3.824  12.717 -0.1693  0.3553 -0.1454
    1Sil     Ob  831   1.805   3.808  11.878  0.2236 -0.0528  0.1614
    1Sil     Ob  832   2.042   3.752  11.828 -0.1883  0.5944 -0.0266
    1Sil     Ob  833   1.470   3.724  12.617 -0.7388  0.1201  0.3526
    1Sil     Ob  834   1.764   3.705  12.214 -0.1551  0.1098 -0.3431
    1Sil     Ob  835   1.427   3.995  12.091 -0.3172 -0.2006 -0.0734
    1Sil     Ob  836   1.959   4.007  12.527  0.3848  0.0387 -0.0933
    1Sil     Ob  837   1.734   3.978  11.701 -0.5088 -0.1609 -0.1057
    1Sil     Ob  838   1.743   4.161  11.528 -0.1602 -0.3167 -0.2802
    1Sil     Ob  839   2.328   4.083  10.698  0.3486 -0.2238  0.4081
    1Sil     Ob  840   2.041   4.136  11.117  0.0639  0.3370  0.4246
    1Sil     Ob  841   1.639   4.523  11.118 -0.0912 -0.4319 -0.7492
    1Sil     Ob  842   2.150   4.540  11.475  0.6187 -0.3691 -0.0313
    1Sil     Ob  843   1.898   4.609  10.635 -0.3900  0.0622  0.0033
    1Sil     Ob  844   1.913   4.471  11.558 -0.1402 -0.1487  0.5069
    1Sil     Ob  845   1.717   4.475  10.751  0.1883 -0.3454 -0.2061
    1Sil     Ob  846   2.184   4.447  11.190  0.1847  0.4402 -0.4225
    1Sil     Ob  847   1.721   4.235  11.290  0.4541 -0.3645  0.8313
    1Sil     Ob  848   2.433   4.326  10.630 -0.6170 -0.5113  0.5712
    1Sil     Ob  849   1.997   4.191  10.870 -0.4706  0.4424 -0.7300
    1Sil     Ob  850   1.691   4.409  11.472  0.9650  0.4406 -0.1144
    1Sil     Ob  851   1.543   4.332  10.663  0.3493  0.2884 -0.1027
    1Sil     Ob  852   1.973   4.384  11.057 -1.1563  0.1578  0.2135
    1Sil     Ob  853   1.568   4.276  11.101  0.3974  0.0569  1.1778
    1Sil     Ob  854   2.076   4.296  11.482  0.4855 -0.6938  0.1145
    1Sil     Ob  855   1.940   4.373  10.703 -0.8372 -0.0437 -0.3028
    1Sil     Ob  856   2.143   4.245  10.640  0.2194 -0.0003  0.1756
    1Sil     Ob  857   1.513   4.234  11.435  0.0129 -0.2305 -0.7288
    1Sil     Ob  858   1.813   4.189  11.045 -0.2133  0.0524  0.2287
    1Sil     Ob  859   1.503   4.441  10.905  0.1175 -1.1121 -0.4251
    1Sil     Ob  860   1.971   4.458  11.304 -0.6103  0.2107 -0.2984
    1Sil     Ob  861   1.696   4.147  12.612  0.4234  0.4297  0.5311
    1Sil     Ob  862   2.250   4.178  11.922  0.5653  0.1685 -0.4912
    1Sil     Ob  863   2.000   4.138  12.307 -0.0352 -0.1690  0.9820
    1Sil     Ob  864   1.578   4.549  12.282 -0.4240 -0.1871 -0.4293
    1Sil     Ob  865   2.121   4.582  12.676 -0.6116  0.1074 -0.5562
    1Sil     Ob  866   1.874   4.551  11.900 -0.5217 -0.0924 -0.2549
    1Sil     Ob  867   1.923   4.419  12.659  0.0634 -0.0359  0.1442
    1Sil     Ob  868   1.629   4.493  11.952  0.1512 -0.6244 -0.0713
    1Sil     Ob  869   2.168   4.433  12.220 -0.4242  0.0922 -0.2805
    1Sil     Ob  870   1.650   4.273  12.419 -0.7639 -0.1961 -0.0751
    1Sil     Ob  871   2.232   4.227  11.677 -0.1593  0.5107  0.1748
    1Sil     Ob  872   1.959   4.232  12.070  0.4284 -0.4499 -0.5037
    1Sil     Ob  873   1.657   4.398  12.651  0.8405  0.5275  0.0089
    1Sil     Ob  874   1.401   4.412  11.854  0.0457  0.2271  0.3280
    1Sil     Ob  875   1.932   4.379  12.276  0.8670  0.8442  0.2260
    1Sil     Ob  876   1.544   4.295  12.206  0.7810  0.3056 -0.1168
    1Sil     Ob  877   2.168   4.321  12.712 -0.0045  0.6043 -0.5771
    1Sil     Ob  878   1.795   4.302  11.892  0.1614  0.8187  0.2152
    1Sil     Ob  879   2.023   4.251  11.830  0.3396 -0.4978 -0.0225
    1Sil     Ob  880   1.462   4.227  12.592 -0.4524 -0.2618 -0.7083
    1Sil     Ob  881   1.761   4.182  12.227  0.2760 -0.0692  0.2607
    1Sil     Ob  882   1.426   4.492  12.092  0.2663 -0.5136 -0.3945
    1Sil     Ob  883   2.096   4.435  12.465 -0.6990 -0.7498 -0.2413
    1Sil     Ob  884   1.711   4.471  11.715  0.7357  0.0108  0.1516
    1Sil     Ob  885   1.730   4.649  11.542 -0.1334 -0.1526 -0.0860
    1Sil     Ob  886   2.242   4.573  10.744 -0.3793  0.1872 -0.2579
    1Sil     Ob  887   2.025   4.635  11.126 -0.1288  0.4156  0.7353
    1Sil     Ob  888   1.645   5.029  11.165 -0.8207 -0.3633  0.3185
    1Sil     Ob  889   2.170   5.038  11.470  0.6055 -0.3633 -0.0922
    1Sil     Ob  890   1.824   5.041  10.603  0.3045  0.0743 -0.2143
    1Sil     Ob  891   1.935   4.957  11.397 -0.0415 -0.1931  0.2274
    1Sil     Ob  892   1.657   4.987  10.779  0.1745 -0.1400  0.3531
    1Sil     Ob  893   2.241   4.929  10.987 -0.2811  0.0002  0.0546
    1Sil     Ob  894   1.720   4.706  11.288 -0.6740 -0.1732 -0.2575
    1Sil     Ob  895   1.989   4.680  10.878  0.4318  0.1450  0.1364
    1Sil     Ob  896   1.707   4.898  11.466 -0.5863  0.8029 -0.1358
    1Sil     Ob  897   1.481   4.825  10.779  0.3977  0.3530 -0.1982
    1Sil     Ob  898   1.995   4.877  11.051 -0.4957  0.1566  0.1780
    1Sil     Ob  899   1.565   4.773  11.108  0.1017 -0.6149 -0.3287
    1Sil     Ob  900   2.147   4.790  11.387 -0.1276  0.0324  0.0116
    1Sil     Ob  901   1.843   4.829  10.729  0.2277  0.0094  0.1452
    1Sil     Ob  902   2.100   4.766  10.667  0.3467 -0.4499 -0.1691
    1Sil     Ob  903   1.516   4.743  11.436  0.2332  0.5318 -0.0719
    1Sil     Ob  904   1.803   4.707  11.040  0.0414 -0.2948  0.7264
    1Sil     Ob  905   1.510   4.991  10.966  0.2620  0.2300  0.1832
    1Sil     Ob  906   2.142   4.986  11.223  0.0675  0.3391  0.4375
    1Sil     Ob  907   1.776   4.622  12.587  0.1751 -0.0992 -0.7463
    1Sil     Ob  908   2.301   4.659  11.831  0.1489 -0.1414  0.8754
    1Sil     Ob  909   2.009   4.621  12.289 -0.5357 -0.3890 -0.5497
    1Sil     Ob  910   1.576   5.006  12.292 -0.3757 -0.8070 -0.1184
    1Sil     Ob  911   2.068   5.059  12.721  0.2426 -0.3420  0.3412
    1Sil     Ob  912   1.894   5.047  11.926  0.4250 -0.2208  0.2999
    1Sil     Ob  913   1.838   4.907  12.766  0.3920 -0.3365 -0.0282
    1Sil     Ob  914   1.668   4.992  11.807 -0.5676  0.0290 -0.1695
    1Sil     Ob  915   2.157   4.949  12.333 -0.8382 -0.0032  0.4979
    1Sil     Ob  916   1.671   4.751  12.382 -0.2679 -0.0009  0.2137
    1Sil     Ob  917   2.156   4.759  11.625 -0.0202  0.2769 -0.8130
    1Sil     Ob  918   1.974   4.720  12.052  0.0810  0.3847  0.1860
    1Sil     Ob  919   1.690   4.868  12.595 -0.2288 -0.7292  0.4039
    1Sil     Ob  920   1.423   4.908  11.834  0.3502  0.4490 -0.0344
    1Sil     Ob  921   1.929   4.852  12.272  0.3270 -0.2072 -0.6897
    1Sil     Ob  922   1.552   4.786  12.175 -1.2321 -0.2027  0.0916
    1Sil     Ob  923   2.067   4.816  12.782 -0.2591 -0.3861 -0.4937
    1Sil     Ob  924   1.828   4.809  11.858  0.5182  0.2171  0.6416
    1Sil     Ob  925   2.054   4.695  11.825 -0.7406  0.0804  0.0498
    1Sil     Ob  926   1.525   4.697  12.580  0.2517  0.1563  0.2079
    1Sil     Ob  927   1.780   4.670  12.185 -0.0776 -0.1625  0.2652
    1Sil     Ob  928   1.562   4.990  12.040  0.9458 -0.4625  0.3901
    1Sil     Ob  929   1.995   4.883  12.538  0.1424  0.2752  0.1946
    1Sil     Ob  930   1.867   4.968  11.663 -0.2209 -0.0248 -0.1102
    1Sil     Ob  931   1.770   5.146  11.496 -1.0643 -0.0211  0.4888
    1Sil     Ob  932   2.321   5.016  10.619  0.5159  0.3934 -0.2388
    1Sil     Ob  933   2.080   5.121  11.011 -0.0255  0.4690  0.2782
    1Sil     Ob  934   1.628   2.084  11.141 -0.4883  0.0842 -1.1436
    1Sil     Ob  935   2.158   2.120  11.464  0.8826 -0.0317 -0.5087
    1Sil     Ob  936   1.891   2.122  10.697  0.4755 -0.3734 -0.4430
    1Sil     Ob  937   1.931   2.043  11.534 -0.6453 -0.6119 -0.0721
    1Sil     Ob  938   1.679   1.972  10.691  0.1983  0.0198  0.2734
    1Sil     Ob  939   2.223   2.017  11.102 -0.3120 -0.4901 -0.2828
    1Sil     Ob  940   1.728   5.237  11.271  0.2628 -0.0292 -0.3285
    1Sil     Ob  941   1.901   5.187  10.824 -0.1815 -0.2324  0.4421
    1Sil     Ob  942   1.693   5.386  11.471  0.7162 -0.8374 -0.0315
    1Sil     Ob  943   1.434   5.334  10.712 -0.6030  0.2013 -0.4529
    1Sil     Ob  944   1.995   5.352  11.011 -0.0728  0.3354 -0.6008
    1Sil     Ob  945   1.609   1.850  11.051 -0.5486  0.6243  0.6108
    1Sil     Ob  946   2.085   1.864  11.438  0.1445 -0.0421 -0.2468
    1Sil     Ob  947   1.896   1.882  10.598 -0.3916  0.4534 -0.2482
    1Sil     Ob  948   2.073   5.115  10.644 -0.0042  0.4920  0.4161
    1Sil     Ob  949   1.528   5.200  11.410  0.1725  0.4957  0.1200
    1Sil     Ob  950   1.843   5.153  11.068 -0.5056 -0.2357  0.1010
    1Sil     Ob  951   1.532   2.062  10.897  0.4616 -0.2793 -0.1131
    1Sil     Ob  952   2.008   2.048  11.261  0.1205 -0.4052 -0.4338
    1Sil     Ob  953   1.645   5.085  12.734 -0.1777 -0.1060  0.0748
    1Sil     Ob  954   2.277   5.137  11.883  0.2911  0.0150 -0.0516
    1Sil     Ob  955   1.943   5.084  12.373 -0.1561  0.4417  0.0152
    1Sil     Ob  956   1.573   2.087  12.330  0.4607  0.0348 -0.2097
    1Sil     Ob  957   2.185   2.154  12.766 -0.0875 -0.0617 -0.2565
    1Sil     Ob  958   1.886   2.099  11.902 -0.2773  0.1247 -0.1877
    1Sil     Ob  959   1.952   2.026  12.767 -0.0073  0.0496  0.0165
    1Sil     Ob  960   1.640   2.063  11.961 -0.0602 -0.1042 -0.3459
    1Sil     Ob  961   2.169   1.955  12.297  0.6330  0.2807 -0.2932
    1Sil     Ob  962   1.626   5.152  12.493 -0.2704  0.3986  0.0153
    1Sil     Ob  963   2.121   5.200  11.681  0.1708  0.2508 -0.5718
    1Sil     Ob  964   1.954   5.193  12.140 -0.0629  0.1385  0.2036
    1Sil     Ob  965   1.731   5.330  12.660 -0.2244  0.0159 -0.5756
    1Sil     Ob  966   1.419   5.393  11.860 -0.1170  0.0679  0.1649
    1Sil     Ob  967   1.939   5.341  12.363  0.0277  0.1055 -0.4523
    1Sil     Ob  968   1.496   1.844  12.294  0.2460 -0.2264 -0.1790
    1Sil     Ob  969   2.166   1.879  12.770  0.0135  0.2718 -0.5651
    1Sil     Ob  970   1.798   1.865  11.941  0.1506 -0.2964 -0.4066
    1Sil     Ob  971   2.053   5.256  11.919 -0.4985 -0.2353  0.0067
    1Sil     Ob  972   1.461   5.263  12.679 -0.4741  0.2252 -0.2044
    1Sil     Ob  973   1.735   5.200  12.274  0.7157  0.5501 -0.5317
    1Sil     Ob  974   1.422   2.019  12.119 -0.5122 -0.0668  0.3365
    1Sil     Ob  975   2.115   2.023  12.546  0.0409  0.0227  0.0100
    1Sil     Ob  976   1.735   2.007  11.724  0.1140  0.6905  0.3409
    1Sil     Ob  977   2.548   2.220  11.517 -0.3121 -0.7711 -0.5522
    1Sil     Ob  978  -0.371   2.202  11.117 -0.5622  0.4399  0.2262
    1Sil     Ob  979   2.431   2.589  11.144 -0.0056 -0.4811  0.8010
    1Sil     Ob  980   2.980   2.606  11.485  0.2954 -0.2195 -0.0629
    1Sil     Ob  981   2.698   2.606  10.743 -0.4431  1.1082 -0.0947
    1Sil     Ob  982   2.734   2.531  11.546  0.2515 -0.0297 -0.0968
    1Sil     Ob  983   2.455   2.551  10.689 -0.5410 -0.5190 -0.1313
    1Sil     Ob  984  -0.211   2.512  11.120  0.3316 -0.0971 -0.2423
    1Sil     Ob  985   2.541   2.292  11.271  0.4396 -0.1150 -0.2328
    1Sil     Ob  986  -0.424   2.288  10.879 -0.4210 -0.1257  0.0349
    1Sil     Ob  987   2.503   2.467  11.460  0.3034 -0.4818 -0.4567
    1Sil     Ob  988   2.289   2.357  10.714 -0.4939  0.1980  0.1611
    1Sil     Ob  989  -0.443   2.451  11.074 -0.1556  0.6365  0.1106
    1Sil     Ob  990   2.394   2.348  11.062  0.0934  0.0700  0.4780
    1Sil     Ob  991   2.913   2.347  11.506 -0.0539  0.2143 -0.0865
    1Sil     Ob  992   2.636   2.345  10.702  0.7716  0.3239  0.2007
    1Sil     Ob  993  -0.368   2.269  10.629 -0.5053 -0.2177 -0.2451
    1Sil     Ob  994   2.317   2.308  11.408  0.0674 -0.7270  0.3413
    1Sil     Ob  995  -0.608   2.262  11.038  0.2452  0.0072  0.3815
    1Sil     Ob  996   2.321   2.543  10.907 -0.0999  0.1406  0.2362
    1Sil     Ob  997   2.847   2.480  11.309 -0.9446 -0.4571 -0.2327
    1Sil     Ob  998   2.498   2.176  12.667 -0.0474  0.0062  0.7042
    1Sil     Ob  999  -0.422   2.189  12.255  0.9113 -0.3603 -0.0697
    1Sil     Ob 1000   2.389   2.576  12.305  0.3337 -0.4680  1.0917
    1Sil     Ob 1001   2.848   2.654  12.713  0.8129 -0.0702 -0.3917
    1Sil     Ob 1002   2.656   2.614  11.941 -0.2857  0.1767  0.0132
    1Sil     Ob 1003   2.627   2.492  12.759 -0.3100 -0.4090  0.3566
    1Sil     Ob 1004   2.437   2.498  11.940 -0.0509 -0.1830  0.6751
    1Sil     Ob 1005  -0.291   2.492  12.341 -0.5523  0.0359 -0.3695
    1Sil     Ob 1006   2.478   2.246  12.408 -0.5058 -0.1089 -0.5368
    1Sil     Ob 1007  -0.470   2.318  12.039 -0.5548 -0.4180 -0.1418
    1Sil     Ob 1008   2.462   2.430  12.592 -0.0353 -0.4622  0.0276
    1Sil     Ob 1009   2.191   2.463  11.861 -0.3482  0.0150 -0.4200
    1Sil     Ob 1010  -0.520   2.430  12.264  0.4312 -0.0779 -0.3060
    1Sil     Ob 1011   2.319   2.333  12.242 -0.7453  0.0736 -0.3649
    1Sil     Ob 1012   2.879   2.411  12.743 -0.2377 -0.1313 -0.3855
    1Sil     Ob 1013   2.636   2.379  11.837 -0.0789 -0.0047  0.6381
    1Sil     Ob 1014  -0.375   2.290  11.812 -0.1264 -0.2499  0.5507
    1Sil     Ob 1015   2.272   2.286  12.595  0.6480 -0.4051 -0.6941
    1Sil     Ob 1016  -0.677   2.261  12.183 -0.2373  0.2893  0.4262
    1Sil     Ob 1017   2.235   2.534  12.108  0.4256 -0.3955  0.0255
    1Sil     Ob 1018   2.761   2.489  12.520 -0.2843 -0.7488 -0.0004
    1Sil     Ob 1019   2.541   2.570  11.706 -0.1684  0.0193  0.6971
    1Sil     Ob 1020   2.564   2.712  11.496 -0.1108  0.6401  0.6150
    1Sil     Ob 1021  -0.396   2.683  11.169  0.0946 -0.0646 -0.2621
    1Sil     Ob 1022   2.426   3.074  11.117 -0.0087 -0.0765  0.1302
    1Sil     Ob 1023   2.931   3.097  11.536  0.1389  0.5334  0.2522
    1Sil     Ob 1024  -0.569   3.120  10.708  0.2204 -0.2913  0.5100
    1Sil     Ob 1025   2.719   3.018  11.439 -0.2483  0.0709 -0.6694
    1Sil     Ob 1026  -0.728   2.937  10.638  0.6232  0.3496  0.5463
    1Sil     Ob 1027  -0.213   2.992  11.076  0.9510 -0.1730  0.4949
    1Sil     Ob 1028   2.401   2.792  11.310  0.4095  0.4355 -0.1785
    1Sil     Ob 1029  -0.533   2.710  10.974  0.2839 -0.2027  0.2875
    1Sil     Ob 1030   2.486   2.950  11.497 -0.5286 -0.0510 -0.4051
    1Sil     Ob 1031   2.250   2.860  10.686  0.0322 -0.9926  0.2343
    1Sil     Ob 1032  -0.459   2.926  11.091 -0.5860  0.0690  0.2760
    1Sil     Ob 1033   2.416   2.824  11.057 -1.0368  0.4023  0.0085
    1Sil     Ob 1034   2.919   2.863  11.453 -0.1814  0.1835  0.0476
    1Sil     Ob 1035  -0.585   2.874  10.789  0.5196  0.0621  0.3364
    1Sil     Ob 1036  -0.371   2.765  10.803  0.6318  0.0126  0.2850
    1Sil     Ob 1037   2.327   2.764  11.553 -0.3808  0.4442 -0.3097
    1Sil     Ob 1038  -0.627   2.767  11.185  0.1024  0.0085 -0.6563
    1Sil     Ob 1039   2.380   3.012  10.869  0.4714  0.0415  0.2864
    1Sil     Ob 1040   2.896   3.070  11.276 -0.1259  0.0252  0.6663
    1Sil     Ob 1041  -0.422   2.907  10.605 -0.3959 -0.4186  0.2854
    1Sil     Ob 1042   2.429   2.651  12.730  0.0637 -0.1214  0.3498
    1Sil     Ob 1043  -0.448   2.672  12.329  0.1990 -0.3901  0.9086
    1Sil     Ob 1044   2.398   3.064  12.316 -0.2601  0.4955  0.2251
    1Sil     Ob 1045   2.983   3.161  12.782  0.1420 -0.1071 -0.4109
    1Sil     Ob 1046   2.705   3.096  11.912 -0.4042 -0.7451  0.0019
    1Sil     Ob 1047   2.741   3.052  12.740  0.4185 -0.3841  0.8778
    1Sil     Ob 1048   2.471   3.046  11.827 -0.3659  0.3012 -0.1696
    1Sil     Ob 1049  -0.271   2.966  12.311 -1.0091 -0.0311 -0.5540
    1Sil     Ob 1050   2.362   2.755  12.501 -0.2882  0.5571 -0.0049
    1Sil     Ob 1051  -0.573   2.807  12.131 -0.2420  0.1062 -0.4693
    1Sil     Ob 1052   2.526   2.887  12.666 -0.2031 -0.3475 -0.0397
    1Sil     Ob 1053   2.237   2.952  11.855 -0.0800 -0.1021 -0.4866
    1Sil     Ob 1054  -0.503   2.920  12.369 -0.1311  0.1276  0.2957
    1Sil     Ob 1055   2.347   2.830  12.247 -0.0442 -0.4101 -0.2414
    1Sil     Ob 1056   2.958   2.882  12.783 -0.0310 -0.2516 -0.0356
    1Sil     Ob 1057   2.628   2.855  11.868 -1.1555 -0.1205 -0.1787
    1Sil     Ob 1058  -0.387   2.781  11.947 -0.1627  0.1163  0.0675
    1Sil     Ob 1059   2.272   2.825  12.728 -0.7626 -0.6435  0.6512
    1Sil     Ob 1060  -0.680   2.742  12.359  0.3345 -0.2977 -0.4430
    1Sil     Ob 1061   2.395   3.015  12.063  0.4906 -0.0441 -0.1188
    1Sil     Ob 1062   2.915   3.027  12.554 -0.5480 -0.6628  0.5637
    1Sil     Ob 1063   2.659   3.016  11.674  0.2332  0.9183  0.3443
    1Sil     Ob 1064   2.566   3.193  11.519 -0.6701  0.0076 -0.3310
    1Sil     Ob 1065  -0.392   3.177  11.029  0.6239  0.6006  0.8860
    1Sil     Ob 1066   2.448   3.563  11.156 -0.2203  0.1401  0.1621
    1Sil     Ob 1067   2.979   3.580  11.497  0.9849 -0.3790  0.0532
    1Sil     Ob 1068   2.698   3.612  10.645  0.0499 -0.2859  0.3233
    1Sil     Ob 1069   2.748   3.498  11.547 -0.1304 -0.0930 -0.1084
    1Sil     Ob 1070   2.474   3.517  10.777  0.0583  0.2477  0.0039
    1Sil     Ob 1071  -0.228   3.455  11.103  0.2705 -0.4809 -0.5268
    1Sil     Ob 1072   2.542   3.252  11.276 -0.2683 -0.0783 -0.5392
    1Sil     Ob 1073  -0.490   3.326  10.836 -0.2237  0.0335  0.4028
    1Sil     Ob 1074   2.517   3.437  11.462  0.3464 -0.5869 -0.0308
    1Sil     Ob 1075   2.281   3.333  10.762 -0.3874 -0.4770  0.3130
    1Sil     Ob 1076  -0.479   3.410  11.069 -0.2793  0.1332 -0.1356
    1Sil     Ob 1077   2.390   3.312  11.083 -0.2369 -0.4122  0.6418
    1Sil     Ob 1078   2.913   3.334  11.461  0.5356  0.2838 -0.0229
    1Sil     Ob 1079   2.599   3.388  10.612 -0.1813  0.3166  0.0084
    1Sil     Ob 1080  -0.395   3.293  10.602 -0.5451  0.1015 -0.1157
    1Sil     Ob 1081   2.335   3.255  11.426 -0.0744 -0.2350  0.1399
    1Sil     Ob 1082  -0.636   3.217  11.020 -0.0832  0.0684  0.1207
    1Sil     Ob 1083   2.306   3.505  10.961 -0.2943  0.0109 -0.5322
    1Sil     Ob 1084   2.839   3.522  11.292  0.0979  0.2822 -0.1261
    1Sil     Ob 1085   2.499   3.134  12.774  0.2638  0.3509  0.0607
    1Sil     Ob 1086  -0.418   3.159  12.340 -0.1347 -0.0204  0.4736
    1Sil     Ob 1087   2.394   3.579  12.342 -0.2820 -0.3189  0.5558
    1Sil     Ob 1088   2.843   3.657  12.727  0.1929 -0.3755  0.3884
    1Sil     Ob 1089   2.705   3.585  11.913 -1.0506 -0.0103  0.5334
    1Sil     Ob 1090   2.673   3.455  12.770  0.1659  0.2835 -0.0111
    1Sil     Ob 1091   2.455   3.531  11.966 -0.2937 -0.2341  0.3808
    1Sil     Ob 1092  -0.256   3.459  12.373 -0.2770 -0.0988  0.3861
    1Sil     Ob 1093   2.368   3.180  12.542  0.0861  0.1373  0.2367
    1Sil     Ob 1094  -0.572   3.223  12.141 -0.1546  0.2750  0.1734
    1Sil     Ob 1095   2.422   3.379  12.711 -0.1366  0.5295  0.9213
    1Sil     Ob 1096   2.227   3.443  11.870  0.1375  0.3150 -0.2783
    1Sil     Ob 1097  -0.491   3.406  12.309 -0.2672 -0.0689  0.2538
    1Sil     Ob 1098   2.347   3.321  12.296 -0.0581 -0.5660 -0.3113
    1Sil     Ob 1099   2.941   3.418  12.769  0.4402  0.3193 -0.2222
    1Sil     Ob 1100   2.613   3.336  11.904 -0.7351 -0.5658 -0.0487
    1Sil     Ob 1101  -0.386   3.291  11.971  0.1784  0.6882  0.1112
    1Sil     Ob 1102   2.237   3.203  12.771 -0.2974 -0.1375 -0.3054
    1Sil     Ob 1103  -0.664   3.228  12.383  0.0037 -0.5485 -0.8883
    1Sil     Ob 1104   2.250   3.495  12.128  0.6136  0.2087  0.4460
    1Sil     Ob 1105   2.803   3.470  12.547  0.3300  0.3205  0.5825
    1Sil     Ob 1106   2.536   3.514  11.718 -0.3731 -0.4431  0.3607
    1Sil     Ob 1107   2.578   3.680  11.517  0.2506  0.2057 -0.1365
    1Sil     Ob 1108  -0.379   3.647  11.061  0.2000  0.3068 -0.2479
    1Sil     Ob 1109   2.445   4.053  11.159 -0.0481  0.0611  0.3897
    1Sil     Ob 1110   2.978   4.044  11.509 -0.0581  0.0972 -0.1052
    1Sil     Ob 1111   2.755   4.084  10.719  0.1675  0.1827 -0.1964
    1Sil     Ob 1112   2.738   4.009  11.569  0.6141  0.1416 -0.0302
    1Sil     Ob 1113   2.540   3.973  10.772  0.3405 -0.1210 -0.2185
    1Sil     Ob 1114  -0.211   3.965  11.193  0.1695 -0.0244  0.3978
    1Sil     Ob 1115   2.548   3.758  11.285  0.0447 -0.0625  0.2795
    1Sil     Ob 1116  -0.422   3.774  10.836  0.2882  0.3081 -0.1722
    1Sil     Ob 1117   2.519   3.924  11.468 -0.7655 -0.3395 -0.2991
    1Sil     Ob 1118   2.339   3.829  10.758 -0.1815  0.1557  0.2179
    1Sil     Ob 1119  -0.433   3.902  11.074  0.2420  0.1239 -0.6986
    1Sil     Ob 1120   2.399   3.810  11.080  0.3264  0.5415  0.6600
    1Sil     Ob 1121   2.888   3.817  11.535 -0.2344  0.0842 -0.1629
    1Sil     Ob 1122   2.722   3.866  10.621 -0.3604  0.1694  0.2723
    1Sil     Ob 1123  -0.293   3.748  10.603 -0.9662  0.5206 -0.8459
    1Sil     Ob 1124   2.338   3.746  11.438 -0.3057  0.3399  0.8728
    1Sil     Ob 1125  -0.608   3.708  11.032  0.7777  0.2391 -0.1843
    1Sil     Ob 1126   2.337   3.999  10.937  0.1224 -0.0312 -0.2639
    1Sil     Ob 1127   2.816   3.936  11.334  0.2858  0.3440  0.1362
    1Sil     Ob 1128   2.510   3.635  12.676 -0.3820  0.5127  0.3689
    1Sil     Ob 1129  -0.426   3.657  12.352 -0.3334  0.3996 -0.1816
    1Sil     Ob 1130   2.392   4.052  12.290  0.3357 -0.6074  0.0882
    1Sil     Ob 1131   2.929   4.161  12.771 -0.2449 -0.1555 -0.0517
    1Sil     Ob 1132   2.686   4.058  11.895  0.4920  0.0401 -0.0285
    1Sil     Ob 1133   2.672   4.056  12.788 -0.1127  0.3391  0.4836
    1Sil     Ob 1134   2.443   4.010  11.958 -0.0495 -0.1686  0.6903
    1Sil     Ob 1135  -0.244   3.969  12.376 -0.1360  0.6994  0.0846
    1Sil     Ob 1136   2.464   3.783  12.489 -0.1517  0.3896  0.2355
    1Sil     Ob 1137  -0.462   3.748  12.109  0.3432  0.2055  0.2769
    1Sil     Ob 1138   2.474   3.893  12.723 -0.1507  0.2729 -0.0482
    1Sil     Ob 1139   2.221   3.932  11.860  0.3104  0.1219 -0.5642
    1Sil     Ob 1140  -0.492   3.900  12.339  0.7396 -0.2571 -0.3752
    1Sil     Ob 1141   2.344   3.808  12.260  0.3713 -0.1349  0.5891
    1Sil     Ob 1142   2.902   3.912  12.771 -0.1651  0.0122  0.0024
    1Sil     Ob 1143   2.608   3.825  11.928  0.4190 -0.1993  0.0251
    1Sil     Ob 1144  -0.389   3.780  11.863  0.5370  0.3309  0.1334
    1Sil     Ob 1145   2.277   3.750  12.651 -0.1119 -0.0891 -0.6341
    1Sil     Ob 1146  -0.655   3.714  12.261 -0.8245  0.2528  0.8912
    1Sil     Ob 1147   2.224   3.987  12.108 -0.6631  0.1135 -0.0096
    1Sil     Ob 1148   2.811   4.060  12.551 -0.4832  0.1180 -0.2895
    1Sil     Ob 1149   2.525   3.957  11.716 -0.1406 -0.3413 -0.0797
    1Sil     Ob 1150   2.540   4.169  11.563 -0.0652  0.1043 -0.1843
    1Sil     Ob 1151  -0.403   4.128  11.183  0.2209  0.0809  0.3242
    1Sil     Ob 1152   2.415   4.549  11.192 -0.0458  0.1255  0.2245
    1Sil     Ob 1153   2.974   4.537  11.530 -0.0503 -0.4410  0.0268
    1Sil     Ob 1154   2.656   4.524  10.686  0.0384 -0.1352  0.0659
    1Sil     Ob 1155   2.755   4.476  11.437 -0.0383 -0.0923  0.4474
    1Sil     Ob 1156   2.467   4.462  10.823  0.0461 -0.5685  0.6514
    1Sil     Ob 1157  -0.200   4.443  11.015 -0.6148 -0.4477 -0.6648
    1Sil     Ob 1158   2.535   4.228  11.321 -0.1152  0.2559 -0.0642
    1Sil     Ob 1159  -0.413   4.202  10.943 -0.0066  0.0681  0.0443
    1Sil     Ob 1160   2.521   4.423  11.490 -0.6478  0.0802 -0.1558
    1Sil     Ob 1161   2.286   4.319  10.815  0.4012 -0.0716  0.2844
    1Sil     Ob 1162  -0.428   4.378  11.112 -0.3145  0.5197  0.5791
    1Sil     Ob 1163   2.381   4.293  11.125 -0.1955  0.1841  0.4031
    1Sil     Ob 1164   2.928   4.296  11.473  0.2685  0.2447 -0.5657
    1Sil     Ob 1165   2.646   4.289  10.781  0.1776 -0.3744 -0.3643
    1Sil     Ob 1166  -0.350   4.285  10.709  0.0909 -0.7250 -0.0340
    1Sil     Ob 1167   2.329   4.265  11.456  0.5598 -0.7889  0.3194
    1Sil     Ob 1168  -0.621   4.216  11.082 -0.4561  0.3437  0.6746
    1Sil     Ob 1169   2.295   4.499  10.989 -0.4461 -0.3633 -0.6282
    1Sil     Ob 1170   2.964   4.453  11.284 -0.8267 -0.1870 -0.2830
    1Sil     Ob 1171   2.529   4.134  12.606 -0.0682 -0.4800  0.2732
    1Sil     Ob 1172  -0.416   4.147  12.299  0.2677  0.2205  0.3038
    1Sil     Ob 1173   2.379   4.532  12.296 -0.2139 -0.2043 -0.4440
    1Sil     Ob 1174   2.844   4.628  12.673  0.5490 -0.0645  0.0967
    1Sil     Ob 1175   2.669   4.551  11.942  0.6310  0.2340 -0.2894
    1Sil     Ob 1176   2.693   4.419  12.705 -0.0425  0.4035 -0.4677
    1Sil     Ob 1177   2.458   4.476  11.815  0.1431 -0.1311  0.3504
    1Sil     Ob 1178  -0.268   4.451  12.341  0.5129 -0.1490 -0.2847
    1Sil     Ob 1179   2.473   4.259  12.391 -0.0874  0.3003  0.0059
    1Sil     Ob 1180  -0.455   4.218  12.055  0.1589 -0.0517 -0.1290
    1Sil     Ob 1181   2.456   4.387  12.616  0.6320  0.0715 -0.2305
    1Sil     Ob 1182   2.210   4.420  11.849 -0.2146  0.7519 -0.2691
    1Sil     Ob 1183  -0.494   4.388  12.252  0.1330  0.1807 -0.1102
    1Sil     Ob 1184   2.376   4.294  12.173 -0.1422  0.2673 -0.0934
    1Sil     Ob 1185   2.945   4.389  12.640  0.6601  0.1583  0.1075
    1Sil     Ob 1186   2.629   4.306  11.861  0.0974 -0.4999  0.8214
    1Sil     Ob 1187  -0.371   4.229  11.812  0.2633  0.0407 -0.2172
    1Sil     Ob 1188   2.301   4.188  12.571  0.3266  0.3805 -0.1687
    1Sil     Ob 1189  -0.644   4.178  12.199 -0.0584  0.0082 -0.4032
    1Sil     Ob 1190   2.338   4.525  12.039  0.5808  0.3627 -0.1058
    1Sil     Ob 1191   2.772   4.477  12.481  0.3043  0.1543  0.2328
    1Sil     Ob 1192   2.673   4.494  11.682 -0.5849 -0.6031  0.5576
    1Sil     Ob 1193   2.596   4.666  11.497 -1.2063  0.5275 -0.2697
    1Sil     Ob 1194  -0.353   4.619  11.113  0.0555 -0.1102 -0.1076
    1Sil     Ob 1195   2.446   5.016  11.106  0.1397 -0.5346  0.0058
    1Sil     Ob 1196   2.976   5.020  11.517  0.1641 -0.3482  0.0469
    1Sil     Ob 1197  -0.461   5.001  10.768  0.1585 -0.5562  0.5765
    1Sil     Ob 1198   2.731   4.965  11.450  0.3641 -0.2705  0.1050
    1Sil     Ob 1199  -0.663   4.915  10.616  0.1503  0.8185  0.0331
    1Sil     Ob 1200  -0.218   4.947  11.034 -0.3254  0.3429  0.4205
    1Sil     Ob 1201   2.465   4.756  11.297 -0.7500  0.4070 -0.3643
    1Sil     Ob 1202  -0.524   4.627  10.937  0.4238 -0.1885  0.2002
    1Sil     Ob 1203   2.494   4.899  11.505  0.1391 -0.0608 -0.0858
    1Sil     Ob 1204   2.376   4.778  10.685  0.9922 -0.6069 -0.4562
    1Sil     Ob 1205  -0.447   4.846  11.074  0.0556 -0.1274 -0.0287
    1Sil     Ob 1206   2.435   4.775  11.045  0.0692 -0.1312 -0.2139
    1Sil     Ob 1207   2.892   4.781  11.492  0.1556  0.1964  0.2483
    1Sil     Ob 1208  -0.545   4.781  10.742 -0.3044 -0.1003  0.3389
    1Sil     Ob 1209  -0.348   4.650  10.745  0.1406 -0.1567 -0.2247
    1Sil     Ob 1210   2.350   4.689  11.506 -0.1400  0.3415 -0.6090
    1Sil     Ob 1211  -0.602   4.655  11.165 -0.5401  0.3208 -0.5782
    1Sil     Ob 1212   2.457   4.956  10.850 -0.1888 -0.7503 -0.7901
    1Sil     Ob 1213   2.932   4.903  11.287  0.3876 -0.0696 -0.1038
    1Sil     Ob 1214   2.527   4.621  12.689 -0.5648 -0.2076  0.1446
    1Sil     Ob 1215  -0.437   4.645  12.297 -1.1405 -0.0566 -0.0405
    1Sil     Ob 1216   2.400   5.024  12.261  0.0897  0.2887 -0.0383
    1Sil     Ob 1217   2.914   5.144  12.770 -0.4466  0.1589  0.2969
    1Sil     Ob 1218   2.669   5.053  11.939  1.0873 -0.3631 -0.4472
    1Sil     Ob 1219   2.647   5.046  12.768 -0.7862 -0.4842  0.4170
    1Sil     Ob 1220   2.446   4.930  11.894 -0.8273 -0.1638 -0.1532
    1Sil     Ob 1221  -0.268   4.935  12.367  0.0866 -0.9629  0.7395
    1Sil     Ob 1222   2.368   4.702  12.502 -0.1966 -0.3761 -0.1433
    1Sil     Ob 1223  -0.580   4.749  12.118  0.1897  0.3391 -0.2233
    1Sil     Ob 1224   2.485   4.883  12.636  0.1986 -0.8189  0.0509
    1Sil     Ob 1225   2.199   4.902  11.836 -0.3877 -0.2384 -0.0643
    1Sil     Ob 1226  -0.520   4.896  12.334  0.1623  0.2233  0.0570
    1Sil     Ob 1227   2.340   4.781  12.252 -0.3905  0.3803 -0.4080
    1Sil     Ob 1228   2.866   4.883  12.759  0.2302  0.4328  0.5006
    1Sil     Ob 1229   2.655   4.804  11.869  0.1829 -0.4003 -0.1763
    1Sil     Ob 1230  -0.373   4.719  11.967 -0.2865  0.4755  0.0402
    1Sil     Ob 1231   2.311   4.739  12.750  0.5340 -0.5459  0.3022
    1Sil     Ob 1232  -0.673   4.705  12.348 -0.2690 -0.6579 -0.3520
    1Sil     Ob 1233   2.246   4.944  12.074  0.4658 -0.2346 -0.1122
    1Sil     Ob 1234   2.803   5.047  12.546  0.5452 -0.0584  0.0878
    1Sil     Ob 1235   2.628   5.003  11.696 -0.3394  0.1545  0.2913
    1Sil     Ob 1236   2.561   5.146  11.491 -0.4686  0.4831  0.2593
    1Sil     Ob 1237  -0.387   5.100  11.158 -0.0916  0.1067 -0.2363
    1Sil     Ob 1238   2.452   2.100  11.112 -0.1454  0.0313 -0.0687
    1Sil     Ob 1239  -0.263   2.099  11.519 -0.0702 -0.0215 -0.3651
    1Sil     Ob 1240  -0.519   2.095  10.740 -0.5982  0.6910  0.6808
    1Sil     Ob 1241  -0.505   2.034  11.554 -0.6931  0.2568  0.3331
    1Sil     Ob 1242  -0.711   1.968  10.628  0.3014  0.0824  0.0672
    1Sil     Ob 1243  -0.206   2.029  11.148  0.3824  1.1463 -1.3089
    1Sil     Ob 1244   2.402   5.194  11.305 -0.2816  0.2850  0.3087
    1Sil     Ob 1245  -0.508   5.155  10.968  0.1017 -0.6272 -0.0328
    1Sil     Ob 1246   2.494   5.389  11.464  0.5001  0.5147  0.3244
    1Sil     Ob 1247   2.300   5.266  10.699  0.1414 -0.3855  0.3810
    1Sil     Ob 1248  -0.439   5.356  11.098 -0.1580  0.4886  0.1865
    1Sil     Ob 1249   2.423   1.855  11.051  1.0995 -0.3202  0.0940
    1Sil     Ob 1250  -0.345   1.854  11.484  0.2425 -0.9112  0.5338
    1Sil     Ob 1251  -0.564   1.834  10.759  0.4721  0.0033  0.1624
    1Sil     Ob 1252  -0.326   5.224  10.800 -0.4226  0.4984  0.0854
    1Sil     Ob 1253   2.317   5.225  11.538 -0.5181  0.1610  0.4140
    1Sil     Ob 1254  -0.625   5.199  11.183 -0.3003 -0.0629 -0.2171
    1Sil     Ob 1255   2.384   2.039  10.861 -0.2672 -0.5439  0.3369
    1Sil     Ob 1256  -0.407   2.051  11.322 -0.2932 -0.1684 -0.0883
    1Sil     Ob 1257   2.497   5.129  12.587  0.1279  0.3917 -0.7336
    1Sil     Ob 1258  -0.425   5.129  12.295  0.5744  0.5123 -0.3580
    1Sil     Ob 1259   2.388   2.082  12.249 -0.2880 -0.0259 -0.2591
    1Sil     Ob 1260  -0.413   2.161  12.726  0.3665  0.3082  0.1358
    1Sil     Ob 1261  -0.552   2.126  11.891  0.2627 -0.7101  0.1844
    1Sil     Ob 1262  -0.581   1.973  12.692  0.0160 -0.7951 -0.1674
    1Sil     Ob 1263  -0.785   2.062  11.934  0.3254 -0.1238 -0.0088
    1Sil     Ob 1264  -0.278   1.989  12.330  0.7524  0.1158 -0.4188
    1Sil     Ob 1265   2.429   5.236  12.383  0.0384 -0.0161  0.1678
    1Sil     Ob 1266  -0.474   5.248  12.071 -0.1204 -0.2157  0.2630
    1Sil     Ob 1267   2.423   5.359  12.611  1.2284  0.3140  0.3333
    1Sil     Ob 1268   2.239   5.381  11.815  0.3636 -0.5930  0.0850
    1Sil     Ob 1269  -0.525   5.366  12.284 -0.1290 -0.2115 -0.3771
    1Sil     Ob 1270   2.351   1.850  12.159  0.1033 -0.0116 -0.3494
    1Sil     Ob 1271  -0.317   1.946  12.641 -0.2485 -0.5414  0.4136
    1Sil     Ob 1272  -0.627   1.885  11.876 -0.1664 -0.1015  0.5399
    1Sil     Ob 1273  -0.391   5.207  11.833  0.4844 -0.0362  0.8581
    1Sil     Ob 1274   2.263   5.172  12.583 -0.5179 -0.0242 -0.4335
    1Sil     Ob 1275  -0.654   5.173  12.205 -0.2478  0.1552  0.0307
    1Sil     Ob 1276   2.239   2.048  12.058  0.1116  0.1151 -0.5250
    1Sil     Ob 1277  -0.471   2.077  12.486  0.1885  0.0310  0.1697
    1Sil     Ob 1278   2.536   2.048  11.699 -0.0628 -0.0899  0.2490
    1Sil     Ob 1279  -0.129   2.204  10.695  0.6066 -0.4518  0.4754
    1Sil     Ob 1280  -0.161   2.219  11.924 -0.2449 -0.1836  0.1568
    1Sil     Ob 1281  -0.163   2.277  11.676  0.8748 -0.6007 -0.0699
    1Sil     Ob 1282  -0.211   2.710  10.640 -0.4608  0.2102 -0.0722
    1Sil     Ob 1283  -0.165   2.699  11.909  0.3701 -0.1812  0.1733
    1Sil     Ob 1284  -0.301   2.756  11.696  0.1775 -0.0933  0.6720
    1Sil     Ob 1285  -0.189   3.190  10.726  0.4427  0.3139 -0.1891
    1Sil     Ob 1286  -0.162   3.190  11.887  0.3306 -0.3415 -0.5756
    1Sil     Ob 1287  -0.323   3.280  11.717  0.0950  0.0236  0.4459
    1Sil     Ob 1288  -0.080   3.657  10.725 -0.3565  0.6768  0.3305
    1Sil     Ob 1289  -0.003   3.855  10.570  0.1558 -0.8384 -0.5612
    1Sil     Ob 1290  -0.162   3.683  11.948 -0.2120  0.4589 -0.0802
    1Sil     Ob 1291  -0.192   3.724  11.704  0.4444 -0.3475 -0.2010
    1Sil     Ob 1292  -0.131   4.150  10.758  0.0195 -0.3113  0.1244
    1Sil     Ob 1293  -0.149   4.168  11.916  0.3582  0.1383  0.1453
    1Sil     Ob 1294  -0.157   4.223  11.661  0.8681  0.9274 -0.2756
    1Sil     Ob 1295  -0.157   4.631  10.597  0.4792  0.1799  0.3284
    1Sil     Ob 1296  -0.382   4.828  10.578  0.1814 -0.2447  0.0731
    1Sil     Ob 1297  -0.134   4.656  11.915  0.4185  0.4703 -0.4221
    1Sil     Ob 1298  -0.292   4.699  11.728  0.2304 -1.0668  0.3446
    1Sil     Ob 1299  -0.168   5.109  10.628 -0.0662  0.5685 -0.1104
    1Sil     Ob 1300  -0.413   5.302  10.585  0.4380 -0.9181  1.0242
    1Sil     Ob 1301  -0.167   5.149  11.920  0.9086  0.0053  0.4084
    1Sil     Ob 1302  -0.189   5.208  11.681  0.8412  0.3695  0.7103
    1Sil     Ob 1303  -0.192   2.451  10.618 -0.0355  0.0360  0.0597
    1Sil     Ob 1304  -0.196   2.467  11.843  0.2090 -0.1050  0.2172
    1Sil     Ob 1305  -0.196   2.933  10.762  0.0928  0.0044  0.1141
    1Sil     Ob 1306  -0.215   2.938  11.845  0.5981  0.0548  0.0126
    1Sil     Ob 1307  -0.162   3.427  10.631 -0.4146 -0.6407  0.2361
    1Sil     Ob 1308  -0.204   3.436  11.881 -0.0365  0.6896  0.4066
    1Sil     Ob 1309  -0.164   3.890  10.747 -0.3391  0.0097 -0.1274
    1Sil     Ob 1310  -0.181   3.921  11.859  0.1167  0.0456 -0.3488
    1Sil     Ob 1311  -0.133   4.365  10.610 -0.3886 -0.3987 -0.2824
    1Sil     Ob 1312  -0.180   4.412  11.843  0.5952 -0.5627  0.0230
    1Sil     Ob 1313  -0.159   4.845  10.723  0.0875 -0.1265  0.2246
    1Sil     Ob 1314  -0.215   4.901  11.865  0.1909  0.6979  0.0956
    1Sil     Ob 1315  -0.165   1.962  10.662 -0.4916  0.4799 -0.4667
    1Sil     Ob 1316  -0.215   1.974  11.858 -0.3546 -0.3327 -0.5464
    1Sil     Cm 1317   0.154   2.523  10.470 -0.5078  0.2344 -0.2255
    1Sil     Cm 1318   0.539   2.361  12.880 -0.6072 -0.7611 -0.2832
    1Sil     Cm 1319   0.573   2.822  12.890 -0.1774  0.6412 -0.1126
    1Sil     Cm 1320   0.030   2.981  12.854 -0.2447 -0.3518 -0.3947
    1Sil     Cm 1321   0.061   4.031  12.886 -0.2702 -0.4411 -0.5908
    1Sil     Cm 1322   0.565   4.288  12.918 -0.3566  0.1158 -0.5921
    1Sil     Cm 1323   0.594   4.752  12.905 -0.3329  0.1991  0.6836
    1Sil     Cm 1324   0.051   4.988  12.859  0.1480 -0.3303  0.0734
    1Sil     Cm 1325   1.363   2.291  12.878  0.6272 -0.4792  0.4732
    1Sil     Cm 1326   0.908   2.508  12.934  0.4788  0.4772  0.3555
    1Sil     Cm 1327   1.389   3.299  12.877  0.4594  0.5426  0.0436
    1Sil     Cm 1328   0.849   3.529  12.896 -1.1145 -0.3937 -0.2023
    1Sil     Cm 1329   1.402   3.787  12.861 -0.0241 -0.5447  0.6773
    1Sil     Cm 1330   0.896   4.516  12.930  0.1636 -0.3541  0.1823
    1Sil     Cm 1331   1.003   4.993  12.867  0.2521 -0.7644 -0.9717
    1Sil     Cm 1332   1.356   5.231  12.904  0.4844  1.0723  0.3653
    1Sil     Cm 1333   2.059   2.849  12.884  0.3679  0.3055 -0.5105
    1Sil     Cm 1334   1.678   3.513  12.919  0.0582 -0.3963 -0.6552
    1Sil     Cm 1335   2.191   3.737  12.921 -0.6297  0.4526 -0.1281
    1Sil     Cm 1336   1.773   4.540  12.854 -0.9194  0.4644 -0.0298
    1Sil     Cm 1337   2.181   4.619  12.937 -0.5763 -0.4944  0.2765
    1Sil     Cm 1338   1.717   2.016  12.906 -0.3263 -0.7337  0.4318
    1Sil     Cm 1339   2.595   2.929  12.933 -0.3264  0.3850  0.0931
    1Sil     Cm 1340   2.470   3.529  12.923 -0.3161  0.3523  0.0978
    1Sil     Cm 1341   2.485   4.420  12.874 -0.4317  1.1670 -0.3256
    1Sil     Cm 1342   2.460   1.994  12.884  0.0418  0.2757 -0.7270
    1Sil     Cm 1343  -0.234   2.245  12.904 -0.5250 -0.3950 -0.0701
    1Sil     Cm 1344  -0.234   3.729  12.913 -0.1997 -0.7194 -0.1204
    1Sil     Cm 1345  -0.240   4.682  12.887 -0.0511  0.4314 -0.2489
    1Sil     Cm 1346   0.577   2.709  10.534  0.4832 -0.2265 -0.2262
    1Sil     Cm 1347   0.237   3.087  10.524  0.2976 -0.0595  0.1172
    1Sil     Cm 1348   0.668   3.769  10.518  0.0824  0.1987  0.5072
    1Sil     Cm 1349   0.325   4.496  10.478  0.2347 -0.8583  0.0604
    1Sil     Cm 1350   0.664   5.194  10.468  0.1249 -0.1507  0.4099
    1Sil     Cm 1351   0.154   2.041  10.504 -0.2750  0.0922  0.5679
    1Sil     Cm 1352   1.454   2.721  10.521  0.2621  0.6842  0.6207
    1Sil     Cm 1353   0.923   2.973  10.468 -0.3582 -0.6652 -0.1993
    1Sil     Cm 1354   0.941   3.491  10.521 -0.1232 -0.3560  0.6662
    1Sil     Cm 1355   1.467   3.815  10.493  0.4625  0.5488  0.3578
    1Sil     Cm 1356   1.007   4.435  10.447 -0.7101 -0.2128 -0.5217
    1Sil     Cm 1357   0.951   4.930  10.488 -0.3121 -0.2363  0.2808
    1Sil     Cm 1358   1.497   5.166  10.503 -0.3028 -0.2476 -0.3535
    1Sil     Cm 1359   0.948   2.112  10.488  0.0579 -0.0813  0.4048
    1Sil     Cm 1360   2.298   2.307  10.456 -0.2733 -0.4243 -1.0197
    1Sil     Cm 1361   2.246   2.719  10.446 -0.0519  0.0625  0.5293
    1Sil     Cm 1362   2.235   3.326  10.493  0.3301  0.0611 -0.4478
    1Sil     Cm 1363   1.781   3.533  10.442 -0.8258  0.0002 -0.4516
    1Sil     Cm 1364   1.771   4.417  10.478 -0.2248  0.0318  0.0625
    1Sil     Cm 1365   2.262   4.645  10.486  0.4304  0.3147 -0.2122
    1Sil     Cm 1366   2.245   5.211  10.438 -0.8111  0.3278  0.0229
    1Sil     Cm 1367   1.763   2.069  10.453  0.2970  0.0751 -0.4795
    1Sil     Cm 1368   2.629   2.507  10.511 -0.0664 -0.6856 -0.0236
    1Sil     Cm 1369   2.589   4.078  10.510 -0.2312 -0.0813 -0.0355
    1Sil     Cm 1370  -0.182   2.235  10.451  0.0446  0.7880 -0.1066
    1Sil     Cm 1371  -0.182   3.214  10.450 -0.6468  0.1348  0.4851
    1Sil     Cm 1372  -0.230   4.153  10.508  0.8698 -0.3613  0.0991
    1Sil    Sib 1373   0.648   2.344  10.655 -0.3327 -0.1570 -0.3136
    1Sil    Sib 1374   0.052   2.327  11.411  0.2003 -0.3252  0.1602
    1Sil    Sib 1375   0.344   2.286  11.017  0.3456 -0.2347 -0.2699
    1Sil    Sib 1376  -0.101   2.553  11.009  0.0409 -0.1460 -0.0343
    1Sil    Sib 1377   0.417   2.492  11.466 -0.1466  0.0740 -0.2487
    1Sil    Sim 1378   0.171   2.517  10.636  0.0373 -0.1761  0.4211
    1Sil    Sib 1379   0.153   2.560  11.574  0.4253  0.0753 -0.0951
    1Sil    Sib 1380  -0.130   2.574  10.701 -0.2095  0.0311 -0.1263
    1Sil    Sib 1381   0.427   2.522  11.176 -0.3924  0.4190 -0.0440
    1Sil    Sib 1382   0.061   2.308  11.108  0.6254 -0.3217  0.1472
    1Sil    Sib 1383   0.582   2.250  11.530 -0.4893 -0.6521  0.4739
    1Sil    Sib 1384   0.354   2.275  10.711 -0.2207  0.0442 -0.1118
    1Sil    Sib 1385   0.573   2.301  11.833 -0.3593  0.1968  0.2203
    1Sil    Sib 1386  -0.039   2.264  12.613  0.0206  0.4338 -0.4314
    1Sil    Sib 1387   0.286   2.313  12.232 -0.1723  0.1071 -0.0323
    1Sil    Sib 1388  -0.171   2.480  12.234 -0.3723 -0.1522  0.1988
    1Sil    Sib 1389   0.317   2.546  12.680  0.5499  0.2432  0.6018
    1Sil    Sib 1390   0.145   2.515  11.873 -0.0534 -0.2523 -0.3265
    1Sil    Sib 1391   0.018   2.546  12.727  0.3366 -0.1119 -0.1390
    1Sil    Sib 1392  -0.134   2.557  11.953  0.0117  0.2676  0.0402
    1Sil    Sib 1393   0.374   2.560  12.375 -0.0646 -0.0373  0.3195
    1Sil    Sib 1394  -0.005   2.244  12.309  0.4500  0.3209  0.0223
    1Sil    Sim 1395   0.487   2.296  12.746 -0.2791 -0.2379  0.4822
    1Sil    Sib 1396   0.304   2.266  11.933  0.4985  0.1070 -0.3174
    1Sil    Sim 1397   0.585   2.784  10.684  0.1178 -0.3064  0.1728
    1Sil    Sib 1398   0.035   2.814  11.452 -0.1983 -0.2869  0.1382
    1Sil    Sib 1399   0.314   2.769  11.053  0.2120 -0.2981 -0.3083
    1Sil    Sib 1400  -0.063   3.039  11.060  0.0489 -0.6422  0.2706
    1Sil    Sib 1401   0.443   2.976  11.481  0.2377  0.4059 -0.0074
    1Sil    Sim 1402   0.169   3.022  10.657 -0.0360 -0.2761 -0.5816
    1Sil    Sib 1403   0.165   3.062  11.562 -0.5494  0.4854 -0.3807
    1Sil    Sib 1404  -0.107   3.062  10.764  0.6751  0.0304  0.0210
    1Sil    Sib 1405   0.453   2.994  11.187 -0.5018  0.7620 -0.1601
    1Sil    Sib 1406   0.041   2.783  11.154  0.1148  0.2694 -0.0171
    1Sil    Sib 1407   0.589   2.722  11.543  0.1806 -0.4645 -0.0170
    1Sil    Sib 1408   0.301   2.759  10.750  0.3526  0.5751 -0.2112
    1Sil    Sib 1409   0.586   2.781  11.834 -0.1670  0.3655 -0.1550
    1Sil    Sib 1410  -0.028   2.754  12.554  0.3905 -0.1846 -0.2482
    1Sil    Sib 1411   0.284   2.802  12.222 -0.2381  0.2586  0.0726
    1Sil    Sib 1412  -0.155   2.978  12.214 -0.2980  0.6009  0.2302
    1Sil    Sib 1413   0.388   3.018  12.653  0.3832 -0.2663  0.1837
    1Sil    Sib 1414   0.146   3.010  11.858  0.3447 -0.1942  0.2104
    1Sil    Sim 1415   0.096   2.980  12.718 -0.0997 -0.2726 -0.6529
    1Sil    Sib 1416  -0.141   3.047  11.932 -0.4263 -0.0667  0.0224
    1Sil    Sib 1417   0.394   3.029  12.363  0.1516 -0.3447  0.3021
    1Sil    Sib 1418  -0.003   2.733  12.266 -0.0318 -0.1785 -0.4364
    1Sil    Sim 1419   0.531   2.762  12.728  0.4905  0.0627 -0.6937
    1Sil    Sib 1420   0.306   2.770  11.925 -0.2300 -0.0102  0.2252
    1Sil    Sib 1421   0.515   3.300  10.703  0.2423  0.2165 -0.1696
    1Sil    Sib 1422   0.012   3.311  11.497  0.6068  0.2337 -0.3065
    1Sil    Sib 1423   0.317   3.250  11.141 -0.4796 -0.1186 -0.1074
    1Sil    Sib 1424  -0.084   3.499  11.039 -0.1639  0.3358  0.1270
    1Sil    Sib 1425   0.417   3.470  11.488  0.4605 -0.4655 -0.0909
    1Sil    Sib 1426   0.253   3.433  10.702 -0.3764  0.4245  0.1390
    1Sil    Sib 1427   0.142   3.551  11.605 -0.1116  0.0289  0.1961
    1Sil    Sib 1428  -0.047   3.507  10.716  0.2471  0.0813  0.3527
    1Sil    Sib 1429   0.441   3.511  11.194 -0.1032 -0.3072  0.0908
    1Sil    Sib 1430   0.036   3.282  11.211 -0.0228 -0.3900  0.1752
    1Sil    Sib 1431   0.591   3.226  11.522 -0.0711  0.1511 -0.5878
    1Sil    Sib 1432   0.291   3.211  10.864  0.0212 -0.5629 -0.0363
    1Sil    Sib 1433   0.576   3.284  11.814  0.0360 -0.3985 -0.2508
    1Sil    Sib 1434   0.018   3.229  12.568 -0.4650  0.3603 -0.3233
    1Sil    Sib 1435   0.297   3.276  12.220  0.1631 -0.3959 -0.1345
    1Sil    Sib 1436  -0.144   3.462  12.272  0.3918 -0.3966  0.1858
    1Sil    Sib 1437   0.440   3.470  12.734  0.0580  0.4205 -0.2489
    1Sil    Sib 1438   0.145   3.500  11.893 -0.4270 -0.4254  0.2631
    1Sil    Sib 1439   0.112   3.442  12.751 -0.2105  0.4416  0.4549
    1Sil    Sib 1440  -0.138   3.534  11.988 -0.3386 -0.0887  0.1538
    1Sil    Sib 1441   0.416   3.496  12.410  0.3048 -0.3329 -0.3713
    1Sil    Sib 1442   0.018   3.214  12.279 -0.2387 -0.5135 -0.1749
    1Sil    Sib 1443   0.617   3.202  12.752  0.3727 -0.2693  0.2362
    1Sil    Sib 1444   0.310   3.254  11.925 -0.0968 -0.4165 -0.2037
    1Sil    Sim 1445   0.619   3.766  10.679  0.4351 -0.4344 -0.0809
    1Sil    Sib 1446   0.051   3.782  11.441  0.3356 -0.0123  0.0750
    1Sil    Sib 1447   0.333   3.757  11.051 -0.5218  0.4003  0.2959
    1Sil    Sib 1448  -0.087   4.008  11.101  0.0296 -0.2721 -0.5776
    1Sil    Sib 1449   0.445   3.968  11.478 -0.0057  0.0132  0.3739
    1Sil    Sib 1450   0.134   3.924  10.653 -0.2547 -0.3169  0.1248
    1Sil    Sib 1451   0.174   4.021  11.572  0.1395 -0.2121 -0.1194
    1Sil    Sib 1452  -0.092   4.007  10.814  0.5216 -0.0086 -0.1544
    1Sil    Sib 1453   0.440   4.007  11.184  0.2037  0.1673  0.2344
    1Sil    Sib 1454   0.051   3.752  11.139  0.1645 -0.1392 -0.0340
    1Sil    Sib 1455   0.592   3.708  11.545  0.3363  0.0724 -0.3891
    1Sil    Sib 1456   0.343   3.717  10.755  0.2248 -0.0506 -0.1468
    1Sil    Sib 1457   0.571   3.784  11.838 -0.1620 -0.1136  0.3097
    1Sil    Sib 1458   0.008   3.712  12.641  0.3881  0.1204  0.0989
    1Sil    Sib 1459   0.296   3.759  12.286  0.4503 -0.0133 -0.1100
    1Sil    Sib 1460  -0.137   3.947  12.254 -0.5274 -0.5038 -0.2088
    1Sil    Sib 1461   0.420   3.998  12.676  0.2139  0.0202  0.1025
    1Sil    Sib 1462   0.149   3.973  11.875 -0.1718  0.0546  0.2689
    1Sil    Sim 1463   0.125   3.969  12.747  0.0659 -0.0512  0.0122
    1Sil    Sib 1464  -0.122   4.024  11.961 -0.2905  0.2477  0.4715
    1Sil    Sib 1465   0.408   4.017  12.376  0.2621 -0.0807  0.0826
    1Sil    Sib 1466   0.008   3.704  12.333  0.4074 -0.2121 -0.6027
    1Sil    Sib 1467   0.601   3.755  12.716 -0.0152  0.0381 -0.2094
    1Sil    Sib 1468   0.301   3.736  11.973  0.3951  0.1888 -0.1184
    1Sil    Sib 1469   0.654   4.195  10.628  0.0191  0.1800  0.0229
    1Sil    Sib 1470   0.064   4.261  11.423 -0.2022 -0.3049  0.1162
    1Sil    Sib 1471   0.341   4.216  10.990 -0.3615  0.0406 -0.1764
    1Sil    Sib 1472  -0.064   4.494  10.970 -0.4267  0.2118  0.4684
    1Sil    Sib 1473   0.434   4.426  11.443 -0.4935 -0.1900  0.3508
    1Sil    Sim 1474   0.234   4.453  10.605  0.3631  0.7413  0.0139
    1Sil    Sib 1475   0.162   4.513  11.552 -0.1047  0.0687  0.1430
    1Sil    Sib 1476  -0.068   4.504  10.652 -0.1604 -0.3088 -0.2067
    1Sil    Sib 1477   0.457   4.460  11.137  0.2911  0.2585 -0.0054
    1Sil    Sib 1478   0.078   4.262  11.121  0.1165  0.3232 -0.1185
    1Sil    Sib 1479   0.607   4.204  11.539  0.2072 -0.5690  0.6322
    1Sil    Sib 1480   0.339   4.166  10.665  0.0374  0.0916 -0.0257
    1Sil    Sib 1481   0.601   4.277  11.832  0.6963  0.6027  0.0786
    1Sil    Sib 1482   0.024   4.185  12.570 -0.2880 -0.2628 -0.2906
    1Sil    Sib 1483   0.304   4.257  12.214 -0.1606  0.0891 -0.4605
    1Sil    Sib 1484  -0.134   4.436  12.245  0.2006 -0.2431  0.0667
    1Sil    Sib 1485   0.346   4.469  12.695  0.4720 -0.7614 -0.5140
    1Sil    Sib 1486   0.168   4.471  11.850  0.1051 -0.3523  0.2325
    1Sil    Sib 1487   0.047   4.432  12.717  0.2089  0.6469 -0.0413
    1Sil    Sib 1488  -0.112   4.502  11.952  0.1454  0.1095  0.0475
    1Sil    Sib 1489   0.390   4.495  12.381  0.0492 -0.8178  0.2750
    1Sil    Sib 1490   0.027   4.188  12.292  0.1720 -0.0855 -0.0159
    1Sil    Sim 1491   0.541   4.257  12.769  0.1610 -0.3284 -0.1856
    1Sil    Sib 1492   0.313   4.223  11.911 -0.1630  0.2196  0.3408
    1Sil    Sib 1493   0.524   4.757  10.649  0.2548 -0.3653 -0.4184
    1Sil    Sib 1494   0.013   4.757  11.453 -0.1433  0.0674  0.4467
    1Sil    Sib 1495   0.303   4.703  11.093 -0.3482  0.4079 -0.6700
    1Sil    Sib 1496  -0.068   4.996  11.017  0.3086 -0.1714  0.2730
    1Sil    Sib 1497   0.436   4.935  11.473  0.1070 -0.1916  0.1089
    1Sil    Sib 1498   0.242   4.891  10.655  0.1346 -0.2896  0.3315
    1Sil    Sib 1499   0.155   5.000  11.559 -0.3144  0.2752  0.2797
    1Sil    Sib 1500  -0.070   4.981  10.701  0.2622  0.0403 -0.6535
    1Sil    Sib 1501   0.435   4.961  11.176  0.0804  0.2037 -0.2943
    1Sil    Sib 1502   0.017   4.741  11.148 -0.3420 -0.0436 -0.3459
    1Sil    Sib 1503   0.591   4.678  11.523 -0.3675 -0.3314 -0.1924
    1Sil    Sib 1504   0.307   4.663  10.815 -0.1620 -0.1999  0.2750
    1Sil    Sib 1505   0.584   4.744  11.818 -0.0839 -0.5702 -0.2394
    1Sil    Sib 1506  -0.016   4.703  12.602 -0.1093 -0.1976 -0.2444
    1Sil    Sib 1507   0.294   4.745  12.231 -0.3120  0.0055 -0.2030
    1Sil    Sib 1508  -0.155   4.920  12.252  0.1464 -0.4349  0.3618
    1Sil    Sib 1509   0.425   4.967  12.676  0.1795  0.5891  0.0958
    1Sil    Sib 1510   0.135   4.956  11.862  0.1550  0.2676 -0.5374
    1Sil    Sim 1511   0.124   4.940  12.734 -0.1659 -0.2105  0.2449
    1Sil    Sib 1512  -0.148   5.003  11.955 -0.3143  0.1632  0.3953
    1Sil    Sib 1513   0.407   4.990  12.367  0.0170 -0.1031 -0.2032
    1Sil    Sib 1514   0.006   4.693  12.305 -0.6036  0.3904  0.0420
    1Sil    Sim 1515   0.548   4.700  12.750 -0.2128 -0.2356 -0.7457
    1Sil    Sib 1516   0.313   4.721  11.929  0.0396  0.6078  0.2172
    1Sil    Sim 1517   0.619   5.225  10.625 -0.1851 -0.1960  0.5781
    1Sil    Sib 1518   0.048   5.246  11.428 -0.1075  0.6783  0.3191
    1Sil    Sib 1519   0.342   5.213  11.015  0.2981 -0.1031 -0.4690
    1Sil    Sib 1520  -0.091   2.067  11.053  0.5035  0.1029  0.9060
    1Sil    Sib 1521   0.430   2.010  11.456  0.2641  0.1645 -0.1504
    1Sil    Sim 1522   0.195   2.016  10.659 -0.4408 -0.2652  0.3487
    1Sil    Sib 1523   0.157   2.087  11.556 -0.0600  0.6302  0.3779
    1Sil    Sib 1524  -0.096   2.066  10.750 -0.6021  0.0851  0.0685
    1Sil    Sib 1525   0.445   2.050  11.166  0.0246 -0.0653 -0.1993
    1Sil    Sib 1526   0.068   5.233  11.122 -0.4358  0.2742  0.6679
    1Sil    Sib 1527   0.590   5.184  11.531 -0.2640 -0.1607 -0.0299
    1Sil    Sib 1528   0.337   5.161  10.730 -0.0157  0.2099 -0.2337
    1Sil    Sib 1529   0.579   5.240  11.824  0.1856  0.2821  0.0979
    1Sil    Sib 1530   0.018   5.170  12.562 -0.1024 -0.2086  0.3453
    1Sil    Sib 1531   0.293   5.233  12.206 -0.4210 -0.2959 -0.2048
    1Sil    Sib 1532  -0.156   1.989  12.241  0.6391 -0.0959  0.3117
    1Sil    Sib 1533   0.350   2.020  12.694  0.7853 -0.3265  0.0611
    1Sil    Sib 1534   0.139   2.035  11.857  0.1032 -0.1385 -0.3043
    1Sil    Sib 1535   0.049   1.993  12.732 -0.2927 -0.5421 -0.1980
    1Sil    Sib 1536  -0.142   2.067  11.959 -0.1604 -0.2530  0.3892
    1Sil    Sib 1537   0.382   2.058  12.376 -0.0691  0.0211 -0.0481
    1Sil    Sib 1538   0.018   5.159  12.278 -0.2061 -0.0267 -0.2998
    1Sil    Sib 1539   0.583   5.222  12.713  0.2027  0.2946 -0.0773
    1Sil    Sib 1540   0.301   5.207  11.912  0.2156  0.4327  0.1068
    1Sil    Sib 1541   1.464   2.315  10.657  0.0809  0.5812 -0.6311
    1Sil    Sib 1542   0.864   2.304  11.429  0.1722 -0.3102  0.0355
    1Sil    Sib 1543   1.150   2.318  11.018  0.5871 -0.5314 -0.3367
    1Sil    Sib 1544   0.710   2.492  11.120  0.4124 -0.1390 -0.1159
    1Sil    Sib 1545   1.234   2.508  11.483 -0.1276  0.3322 -0.0002
    1Sil    Sib 1546   0.915   2.509  10.659  0.0036  0.3127 -0.0074
    1Sil    Sib 1547   0.955   2.554  11.577  0.2857 -0.1891  0.2401
    1Sil    Sib 1548   0.711   2.556  10.843  0.2323 -0.2371 -0.3149
    1Sil    Sib 1549   1.252   2.547  11.190  0.4346 -0.1690  0.2532
    1Sil    Sib 1550   0.881   2.250  11.129  0.0798 -0.3767  0.3274
    1Sil    Sib 1551   1.388   2.259  11.536 -0.6020 -0.5320  0.5257
    1Sil    Sib 1552   1.161   2.331  10.711 -0.2593 -0.1870 -0.2332
    1Sil    Sib 1553   1.378   2.306  11.828  0.0733 -0.7935 -0.2190
    1Sil    Sib 1554   0.777   2.286  12.637  0.1107 -0.0803  0.0574
    1Sil    Sib 1555   1.076   2.287  12.230 -0.4073  0.0348  0.4352
    1Sil    Sib 1556   0.654   2.483  12.279  0.2643  0.2880  0.0524
    1Sil    Sib 1557   1.210   2.499  12.651  0.2089  0.3761  0.3067
    1Sil    Sib 1558   0.942   2.497  11.876 -0.2584 -0.0938 -0.2983
    1Sil    Sim 1559   0.931   2.529  12.776 -0.1426 -0.3281  0.2732
    1Sil    Sib 1560   0.676   2.543  11.990  0.1506 -0.5786 -0.0008
    1Sil    Sib 1561   1.196   2.532  12.356 -0.1858 -0.2891 -0.0485
    1Sil    Sib 1562   0.802   2.228  12.335 -0.3614 -0.6712 -0.0881
    1Sil    Sim 1563   1.332   2.237  12.728 -0.1981 -0.4533  0.1248
    1Sil    Sib 1564   1.100   2.250  11.927 -0.1298 -0.1814  0.2892
    1Sil    Sim 1565   1.379   2.734  10.661 -0.1012  0.2224 -0.0434
    1Sil    Sib 1566   0.850   2.803  11.443 -0.2717  0.2177  0.0140
    1Sil    Sib 1567   1.132   2.760  11.022 -0.0751  0.2861 -0.0413
    1Sil    Sib 1568   0.725   2.982  11.051 -0.2690  0.0557  0.2525
    1Sil    Sib 1569   1.230   2.987  11.473 -0.3576 -0.0529 -0.1813
    1Sil    Sim 1570   0.976   3.025  10.629 -0.5881 -0.4205  0.4112
    1Sil    Sib 1571   0.961   3.044  11.589  0.3927 -0.6263  0.1765
    1Sil    Sib 1572   0.695   3.056  10.735  0.3672  0.0250 -0.0649
    1Sil    Sib 1573   1.227   3.021  11.167 -0.1107  0.0560  0.1445
    1Sil    Sib 1574   0.871   2.737  11.157  0.3749  0.2627 -0.1715
    1Sil    Sib 1575   1.404   2.751  11.527  0.0562 -0.2283 -0.3754
    1Sil    Sib 1576   1.081   2.749  10.713 -0.3257  0.0153  0.0579
    1Sil    Sib 1577   1.390   2.794  11.819 -0.1221  0.2057 -0.2434
    1Sil    Sib 1578   0.818   2.768  12.632 -0.4425  0.1118 -0.0048
    1Sil    Sib 1579   1.113   2.777  12.225 -0.4782 -0.1453  0.2079
    1Sil    Sib 1580   0.664   2.967  12.263  0.3657  0.0622 -0.1628
    1Sil    Sib 1581   1.197   2.962  12.722 -0.0463  0.0190 -0.2826
    1Sil    Sib 1582   0.955   2.988  11.883 -0.1080  0.1877  0.2637
    1Sil    Sib 1583   0.892   3.046  12.729 -0.5777 -0.3248  0.0675
    1Sil    Sib 1584   0.677   3.038  11.966  0.1453 -0.0030 -0.0200
    1Sil    Sib 1585   1.198   3.007  12.403 -0.3386  0.0742 -0.2533
    1Sil    Sib 1586   0.836   2.717  12.333  0.0199 -0.5007  0.2200
    1Sil    Sib 1587   1.413   2.722  12.746  0.0126 -0.2883  0.3649
    1Sil    Sib 1588   1.118   2.739  11.926 -0.3403  0.0596 -0.3908
    1Sil    Sib 1589   1.482   3.216  10.670  0.2268  0.1122  0.0710
    1Sil    Sib 1590   0.872   3.279  11.425 -0.0495  0.2457 -0.2407
    1Sil    Sib 1591   1.153   3.262  11.000 -0.0294  0.4827  0.1984
    1Sil    Sib 1592   0.716   3.458  11.096  0.3322  0.1103 -0.1273
    1Sil    Sib 1593   1.251   3.487  11.426  0.0455 -0.2882  0.1490
    1Sil    Sim 1594   0.993   3.500  10.664 -0.1945  0.1758 -0.2946
    1Sil    Sib 1595   0.981   3.524  11.551  0.1076 -0.3767  0.0430
    1Sil    Sib 1596   0.721   3.503  10.802  0.1413 -0.2237 -0.3025
    1Sil    Sib 1597   1.257   3.527  11.120 -0.1037 -0.4833  0.3424
    1Sil    Sib 1598   0.884   3.219  11.126  0.0503  0.0801  0.0608
    1Sil    Sib 1599   1.393   3.238  11.516  0.3519 -0.3061  0.0181
    1Sil    Sib 1600   1.171   3.252  10.698 -0.4122 -0.2379 -0.2018
    1Sil    Sib 1601   1.390   3.286  11.822  1.0460 -0.0375 -0.4900
    1Sil    Sib 1602   0.821   3.276  12.573  0.5620 -0.3301  0.3583
    1Sil    Sib 1603   1.106   3.251  12.237 -0.1377 -0.1217  0.2663
    1Sil    Sib 1604   0.659   3.458  12.234  0.2865 -0.7347 -0.2901
    1Sil    Sib 1605   1.196   3.475  12.646 -0.2228 -0.2818 -0.0024
    1Sil    Sib 1606   0.961   3.480  11.856  0.0053 -0.1614  0.0326
    1Sil    Sim 1607   0.917   3.513  12.733  0.1641 -0.0090 -0.0658
    1Sil    Sib 1608   0.673   3.537  11.951 -0.1028 -0.1302 -0.1471
    1Sil    Sib 1609   1.204   3.509  12.350 -0.2536 -0.0520  0.4851
    1Sil    Sib 1610   0.818   3.215  12.289  0.1235 -0.3352  0.1116
    1Sil    Sim 1611   1.348   3.231  12.717  0.0309  0.1020  0.0389
    1Sil    Sib 1612   1.129   3.226  11.944 -0.1994 -0.2019 -0.0904
    1Sil    Sim 1613   1.397   3.756  10.637 -0.0688 -0.3351 -0.1104
    1Sil    Sib 1614   0.862   3.771  11.432 -0.2199  0.8111  0.0121
    1Sil    Sib 1615   1.133   3.782  11.005  0.1518 -0.0840  0.1106
    1Sil    Sib 1616   0.717   3.964  11.108  0.0459 -0.2855 -0.1040
    1Sil    Sib 1617   1.234   3.957  11.470 -0.0791  0.1701 -0.0683
    1Sil    Sib 1618   0.929   4.047  10.654  0.1086  0.4474  0.5412
    1Sil    Sib 1619   0.959   4.025  11.568 -0.0547 -0.3233 -0.1485
    1Sil    Sib 1620   0.715   4.012  10.832  0.5708  0.2590  0.2675
    1Sil    Sib 1621   1.242   3.996  11.178  0.0009  0.2680  0.4021
    1Sil    Sib 1622   0.878   3.708  11.143 -0.3200 -0.0874 -0.1150
    1Sil    Sib 1623   1.410   3.722  11.505  0.0756  0.4699 -0.0612
    1Sil    Sib 1624   1.098   3.790  10.705 -0.2107  0.1999 -0.1410
    1Sil    Sib 1625   1.396   3.778  11.804  0.1931 -0.6319  0.4501
    1Sil    Sib 1626   0.841   3.727  12.555  1.0235  0.4195 -0.0443
    1Sil    Sib 1627   1.103   3.749  12.194 -0.1720  0.8744  0.0031
    1Sil    Sib 1628   0.670   3.941  12.262  0.2188 -0.3053  0.1740
    1Sil    Sib 1629   1.157   3.959  12.662  0.0229 -0.0137  0.0332
    1Sil    Sib 1630   0.958   3.973  11.870  0.0887  0.2503 -0.0489
    1Sil    Sib 1631   0.853   3.943  12.721  0.2917 -0.0077  0.0047
    1Sil    Sib 1632   0.679   4.024  11.976  0.3105 -0.0267 -0.1280
    1Sil    Sib 1633   1.190   3.992  12.359 -0.3852  0.1549  0.2661
    1Sil    Sib 1634   0.832   3.694  12.273  0.1069 -0.3706 -0.0201
    1Sil    Sim 1635   1.345   3.724  12.715 -0.0142 -0.0346  0.3166
    1Sil    Sib 1636   1.118   3.730  11.901  0.4197 -0.3637 -0.0972
    1Sil    Sib 1637   1.493   4.178  10.637  0.4704  0.1841 -0.8624
    1Sil    Sib 1638   0.872   4.268  11.418 -0.2075 -0.2201  0.2370
    1Sil    Sib 1639   1.151   4.232  11.010 -0.1474  0.6391 -0.2973
    1Sil    Sib 1640   0.722   4.447  11.012  0.0821  0.1077 -0.0212
    1Sil    Sib 1641   1.226   4.446  11.456 -0.2514  0.1545 -0.3608
    1Sil    Sim 1642   1.029   4.485  10.613  0.2491 -0.5290  0.4880
    1Sil    Sib 1643   0.966   4.509  11.575 -0.2369 -0.3826  0.5726
    1Sil    Sib 1644   0.714   4.498  10.696 -0.0238 -0.1423 -0.4613
    1Sil    Sib 1645   1.248   4.477  11.154  0.0107  0.2027  0.2293
    1Sil    Sib 1646   0.875   4.212  11.127  0.2665 -0.1833 -0.2679
    1Sil    Sib 1647   1.386   4.205  11.524 -0.3411  0.2507  0.0378
    1Sil    Sib 1648   1.184   4.231  10.693  0.0484 -0.6258  0.4261
    1Sil    Sib 1649   1.380   4.263  11.816  0.1503  0.0723  0.3156
    1Sil    Sib 1650   0.817   4.236  12.652 -0.1163  0.2444 -0.1735
    1Sil    Sib 1651   1.105   4.247  12.236  0.4176  0.0876 -0.4638
    1Sil    Sib 1652   0.656   4.440  12.276 -0.1033 -0.1198  0.3396
    1Sil    Sib 1653   1.281   4.467  12.722  0.1125 -1.0242 -0.1268
    1Sil    Sib 1654   0.951   4.461  11.876 -0.4625  0.3098 -0.0281
    1Sil    Sim 1655   0.967   4.482  12.785 -0.2227  0.0215 -0.0468
    1Sil    Sib 1656   0.679   4.515  11.982  0.2921 -0.2835 -0.0645
    1Sil    Sib 1657   1.237   4.469  12.400  0.0992 -0.2926 -0.5024
    1Sil    Sib 1658   0.821   4.187  12.344 -0.5202 -0.3264 -0.2371
    1Sil    Sib 1659   1.398   4.173  12.727 -0.6393 -0.0488 -0.1104
    1Sil    Sib 1660   1.116   4.215  11.936  0.0867 -0.2532 -0.1178
    1Sil    Sib 1661   1.489   4.746  10.649 -0.3146  0.0324  0.3416
    1Sil    Sib 1662   0.871   4.740  11.414 -0.5441  0.4964  0.0424
    1Sil    Sib 1663   1.161   4.722  11.002  0.1708 -0.0221  0.3194
    1Sil    Sib 1664   0.705   4.913  11.066 -0.2240  0.1771 -0.2388
    1Sil    Sib 1665   1.227   4.942  11.447  0.4454 -0.4457  0.2692
    1Sil    Sim 1666   0.984   4.956  10.650 -0.1306 -0.0415  0.0278
    1Sil    Sib 1667   0.956   4.982  11.564 -0.0046  0.0145  0.1553
    1Sil    Sib 1668   0.706   4.967  10.772 -0.2889  0.0238 -0.3881
    1Sil    Sib 1669   1.244   4.976  11.146 -0.2014  0.0260  0.5413
    1Sil    Sib 1670   0.881   4.681  11.102  0.2867  0.0175 -0.2455
    1Sil    Sib 1671   1.386   4.695  11.516 -0.1998  0.4760  0.0625
    1Sil    Sib 1672   1.187   4.733  10.693 -0.0569  0.0030 -0.0734
    1Sil    Sib 1673   1.375   4.762  11.815 -0.6245  0.0566  0.2364
    1Sil    Sib 1674   0.829   4.704  12.628 -0.1949  0.1278 -0.1488
    1Sil    Sib 1675   1.116   4.715  12.245  0.3799 -0.0883  0.2687
    1Sil    Sib 1676   0.666   4.914  12.238  0.1546  0.2216  0.5581
    1Sil    Sib 1677   1.257   4.939  12.622  0.3548  0.2440  0.2483
    1Sil    Sib 1678   0.951   4.941  11.867  0.0423 -0.5817  0.1630
    1Sil    Sim 1679   0.969   4.963  12.713  0.1620 -0.1619  0.3895
    1Sil    Sib 1680   0.680   4.990  11.956  0.5718  0.1674  0.3738
    1Sil    Sib 1681   1.239   4.977  12.313 -0.2691  0.3384  0.3952
    1Sil    Sib 1682   0.828   4.681  12.328 -0.5151 -0.7747 -0.0330
    1Sil    Sib 1683   1.447   4.728  12.711  0.0130  0.2640 -0.2058
    1Sil    Sib 1684   1.112   4.701  11.941  0.1838  0.0408  0.0158
    1Sil    Sim 1685   1.411   5.192  10.641  0.0052 -0.0376  0.2662
    1Sil    Sib 1686   0.861   5.222  11.419 -0.1844  0.0901 -0.0868
    1Sil    Sib 1687   1.132   5.223  11.010  0.1741 -0.1720  0.0060
    1Sil    Sib 1688   0.719   2.004  11.056  0.6399  0.1531 -0.2595
    1Sil    Sib 1689   1.243   2.023  11.446  0.1554 -0.4257 -0.3411
    1Sil    Sim 1690   1.013   2.077  10.649  0.2095 -0.3700  0.2158
    1Sil    Sib 1691   0.963   2.049  11.556 -0.0514  0.0869  0.3141
    1Sil    Sib 1692   0.728   2.067  10.764 -0.1255  0.0029  0.0815
    1Sil    Sib 1693   1.250   2.053  11.141  0.4612  0.0725 -0.2288
    1Sil    Sib 1694   0.859   5.161  11.119 -0.4077 -0.0208 -0.3314
    1Sil    Sib 1695   1.400   5.189  11.502 -0.1550 -0.3088  0.0540
    1Sil    Sib 1696   1.127   5.217  10.700 -0.1466 -0.5529 -0.0741
    1Sil    Sib 1697   1.394   5.250  11.798  0.1199 -0.1959  0.1162
    1Sil    Sib 1698   0.822   5.197  12.558 -0.1329  0.2626 -0.1099
    1Sil    Sib 1699   1.097   5.219  12.199  0.3076 -0.0371  0.0127
    1Sil    Sib 1700   0.654   1.992  12.258  0.2364  0.1341  0.0684
    1Sil    Sib 1701   1.126   2.002  12.678  0.4031 -0.1705 -0.2467
    1Sil    Sib 1702   0.947   2.004  11.848  0.4406 -0.0282 -0.2654
    1Sil    Sib 1703   0.827   5.411  12.734  0.1156 -0.5982 -0.3086
    1Sil    Sib 1704   0.672   2.054  11.973  0.3113 -0.2013  0.2136
    1Sil    Sib 1705   1.173   2.049  12.372 -0.3284  0.0393  0.0971
    1Sil    Sib 1706   0.819   5.155  12.274 -0.0029 -0.0893 -0.0533
    1Sil    Sim 1707   1.336   5.205  12.748  0.3010  0.3313 -0.2352
    1Sil    Sib 1708   1.116   5.183  11.915  0.3344 -0.4654 -0.8099
    1Sil    Sim 1709   2.235   2.262  10.609  0.2510  0.3109 -0.1399
    1Sil    Sib 1710   1.669   2.297  11.443 -0.0807  0.1085  0.1627
    1Sil    Sib 1711   1.934   2.297  11.008 -0.2887 -0.3708  0.0567
    1Sil    Sib 1712   1.522   2.478  11.126 -0.0092 -0.0096  0.1584
    1Sil    Sib 1713   2.036   2.518  11.440 -0.0430 -0.2166 -0.5635
    1Sil    Sib 1714   1.719   2.490  10.649  0.0270 -0.2628 -0.0582
    1Sil    Sib 1715   1.773   2.550  11.566 -0.5724  0.2177 -0.3437
    1Sil    Sib 1716   1.502   2.516  10.845 -0.2200 -0.2319 -0.0126
    1Sil    Sib 1717   2.043   2.537  11.139  0.1629  0.1144 -0.3566
    1Sil    Sib 1718   1.683   2.233  11.150  0.6021 -0.4216 -0.0463
    1Sil    Sib 1719   2.189   2.272  11.490  0.2563  0.0425 -0.4740
    1Sil    Sib 1720   1.933   2.278  10.707  0.0619 -0.0707 -0.1284
    1Sil    Sib 1721   2.181   2.319  11.796  0.0709  0.3442 -0.3066
    1Sil    Sib 1722   1.628   2.275  12.631  0.1439 -0.2494 -0.2967
    1Sil    Sib 1723   1.929   2.264  12.246 -0.1022  0.1439 -0.1488
    1Sil    Sib 1724   1.481   2.485  12.261  0.1620 -0.1703  0.4783
    1Sil    Sib 1725   1.991   2.512  12.709 -0.0739  0.8265  0.2493
    1Sil    Sib 1726   1.777   2.487  11.856  0.4496 -0.2994 -0.1255
    1Sil    Sib 1727   1.683   2.560  12.751 -0.1319 -0.0900 -0.1231
    1Sil    Sib 1728   1.502   2.548  11.958 -0.2599 -0.4758 -0.1606
    1Sil    Sib 1729   2.002   2.520  12.394 -0.0211  0.2660  0.0948
    1Sil    Sib 1730   1.643   2.231  12.330  0.0769  0.1115  0.6176
    1Sil    Sib 1731   2.216   2.311  12.739 -0.2075  0.2657  0.2085
    1Sil    Sib 1732   1.932   2.244  11.938  0.4432 -0.5332  0.0584
    1Sil    Sim 1733   2.181   2.735  10.608  0.2244  0.3061  0.1266
    1Sil    Sib 1734   1.685   2.796  11.438 -0.0086 -0.0263  0.5924
    1Sil    Sib 1735   1.921   2.777  10.983 -0.0602 -0.1020 -0.1173
    1Sil    Sib 1736   1.508   2.947  11.110  0.2749 -0.3861  0.0716
    1Sil    Sib 1737   2.058   2.995  11.434  0.3003 -0.2460 -0.2584
    1Sil    Sib 1738   1.722   3.034  10.682 -0.0741  0.0296 -0.2261
    1Sil    Sib 1739   1.784   3.047  11.566  0.0956  0.2832 -0.3786
    1Sil    Sib 1740   1.486   2.973  10.821  0.4104  0.0114 -0.3357
    1Sil    Sib 1741   2.066   3.013  11.114 -0.8137  0.2353  0.2790
    1Sil    Sib 1742   1.679   2.721  11.161 -0.2000 -0.4511 -0.1677
    1Sil    Sib 1743   2.179   2.747  11.551  0.6121  0.4252 -0.1800
    1Sil    Sib 1744   1.871   2.762  10.666  0.1587  0.1868 -0.1801
    1Sil    Sib 1745   2.188   2.803  11.841 -0.0781 -0.4054  0.0383
    1Sil    Sib 1746   1.659   2.809  12.604  0.3823  0.0263 -0.0640
    1Sil    Sib 1747   1.881   2.758  12.224  0.0924 -0.4828 -0.1057
    1Sil    Sib 1748   1.463   2.991  12.261  0.2506 -0.6439  0.3533
    1Sil    Sib 1749   2.038   2.980  12.532  0.1109 -0.0625 -0.1840
    1Sil    Sib 1750   1.768   2.989  11.867  0.2404  0.3203  0.4285
    1Sil    Sib 1751   1.818   3.067  12.683  0.4529 -0.0385 -0.1116
    1Sil    Sib 1752   1.482   3.041  11.964  0.2352 -0.0007 -0.2446
    1Sil    Sib 1753   2.042   3.011  12.258 -0.2127 -0.0470  0.1061
    1Sil    Sib 1754   1.612   2.752  12.323 -0.0193  0.0173  0.1064
    1Sil    Sim 1755   2.114   2.791  12.736 -0.1392  0.0556 -0.8233
    1Sil    Sib 1756   1.925   2.728  11.935 -0.2399 -0.3555 -0.1340
    1Sil    Sim 1757   2.226   3.242  10.638 -0.5655  0.4166 -0.2085
    1Sil    Sib 1758   1.672   3.278  11.422  0.0079 -0.1132  0.0403
    1Sil    Sib 1759   1.955   3.275  11.019 -0.4480 -0.2092  0.2700
    1Sil    Sib 1760   1.540   3.457  11.040  0.3963 -0.3779  0.0925
    1Sil    Sib 1761   2.052   3.493  11.456 -0.3719 -0.2159 -0.2540
    1Sil    Sim 1762   1.822   3.510  10.610  0.2142  0.1409  0.0233
    1Sil    Sib 1763   1.769   3.528  11.558 -0.2692 -0.0591 -0.0671
    1Sil    Sib 1764   1.543   3.508  10.738 -0.1009 -0.2315  0.0883
    1Sil    Sib 1765   2.059   3.521  11.160 -0.4646 -0.3758  0.3027
    1Sil    Sib 1766   1.680   3.199  11.122 -0.3186  0.0776 -0.2364
    1Sil    Sib 1767   2.208   3.246  11.509  0.0005  0.1900  0.2888
    1Sil    Sib 1768   1.941   3.248  10.728 -0.0194  0.0029  0.3329
    1Sil    Sib 1769   2.207   3.298  11.814 -0.3600  0.2268 -0.3467
    1Sil    Sib 1770   1.619   3.277  12.603  0.0490 -0.0689 -0.0509
    1Sil    Sib 1771   1.908   3.272  12.205 -0.1283  0.0211  0.0639
    1Sil    Sib 1772   1.474   3.471  12.250  0.0137  0.1624  0.1338
    1Sil    Sib 1773   1.998   3.478  12.653 -0.1879  0.3561  0.8806
    1Sil    Sib 1774   1.759   3.474  11.855 -0.0510  0.4240 -0.0812
    1Sil    Sim 1775   1.718   3.521  12.754 -0.0560 -0.0956  0.0366
    1Sil    Sib 1776   1.485   3.526  11.959  0.2667 -0.1701  0.0220
    1Sil    Sib 1777   2.008   3.515  12.361  0.0020  0.0755 -0.2791
    1Sil    Sib 1778   1.636   3.223  12.304 -0.3367  0.0453  0.0900
    1Sil    Sib 1779   2.089   3.190  12.709 -0.2201 -0.3629 -0.0390
    1Sil    Sib 1780   1.925   3.233  11.911  0.0275  0.1040  0.2652
    1Sil    Sib 1781   2.290   3.720  10.656  0.0125  0.0033  0.3255
    1Sil    Sib 1782   1.692   3.774  11.410 -0.3350 -0.1111  0.0601
    1Sil    Sib 1783   1.953   3.755  10.980  0.0199  0.2913  0.0523
    1Sil    Sib 1784   1.527   3.936  11.112  0.4134 -0.1661 -0.3718
    1Sil    Sib 1785   2.059   3.958  11.462  0.3636 -0.1640 -0.1394
    1Sil    Sib 1786   1.771   4.017  10.648 -0.2120 -0.3309 -0.2717
    1Sil    Sib 1787   1.785   4.009  11.558 -0.2034  0.1369 -0.1923
    1Sil    Sib 1788   1.543   3.961  10.825  0.3441  0.0176  0.0637
    1Sil    Sib 1789   2.059   3.981  11.159  0.4354 -0.4256  0.5941
    1Sil    Sib 1790   1.696   3.699  11.123 -0.1406 -0.0909 -0.0121
    1Sil    Sib 1791   2.218   3.723  11.540  0.6888 -0.2274  0.0162
    1Sil    Sib 1792   1.978   3.768  10.666 -0.2273  0.0459  0.0896
    1Sil    Sib 1793   2.197   3.778  11.826 -0.4215  0.0753 -0.1426
    1Sil    Sib 1794   1.622   3.762  12.603  0.3571 -0.0148  0.0440
    1Sil    Sib 1795   1.909   3.756  12.211  0.3051  0.2783  0.0607
    1Sil    Sib 1796   1.463   3.949  12.243 -0.0415 -0.0514 -0.0092
    1Sil    Sib 1797   1.977   3.976  12.685  0.0607  0.1934 -0.2140
    1Sil    Sib 1798   1.765   3.959  11.851  0.1865  0.3583  0.2807
    1Sil    Sib 1799   1.677   4.031  12.716  0.0737  0.3043  0.1308
    1Sil    Sib 1800   1.490   4.027  11.952 -0.0464 -0.0037  0.2363
    1Sil    Sib 1801   2.012   3.992  12.373  0.1999  0.2774  0.4499
    1Sil    Sib 1802   1.640   3.707  12.305  0.4898 -0.3179 -0.4942
    1Sil    Sim 1803   2.151   3.723  12.744  0.6174  0.1908  0.1084
    1Sil    Sib 1804   1.918   3.719  11.918  0.2280 -0.0432 -0.0418
    1Sil    Sib 1805   2.302   4.237  10.685  0.0727 -0.3949 -0.1815
    1Sil    Sib 1806   1.669   4.257  11.433  0.4176  0.4763 -0.0900
    1Sil    Sib 1807   1.960   4.228  11.023  0.1598 -0.0176  0.0164
    1Sil    Sib 1808   1.527   4.427  11.060  0.0488  0.5626 -0.2166
    1Sil    Sib 1809   2.026   4.439  11.455  0.4296  0.0465  0.3755
    1Sil    Sim 1810   1.834   4.469  10.643 -0.2122  0.2081  0.0692
    1Sil    Sib 1811   1.758   4.500  11.571 -0.2986 -0.0969 -0.3231
    1Sil    Sib 1812   1.564   4.458  10.754 -0.1847 -0.7281  0.1367
    1Sil    Sib 1813   2.035   4.478  11.165 -0.4722  0.0640  0.1677
    1Sil    Sib 1814   1.686   4.185  11.148 -0.4891  0.0068  0.3448
    1Sil    Sib 1815   2.200   4.209  11.526  0.3012 -0.4361 -0.7077
    1Sil    Sib 1816   1.993   4.233  10.712 -0.3275  0.2027 -0.0957
    1Sil    Sib 1817   2.176   4.268  11.818 -0.2501 -0.5458  0.4311
    1Sil    Sib 1818   1.611   4.272  12.565  0.2269 -0.4571  0.2406
    1Sil    Sib 1819   1.908   4.232  12.223 -0.1616 -0.4631  0.1635
    1Sil    Sib 1820   1.477   4.439  12.228 -0.5626  0.1024 -0.1566
    1Sil    Sib 1821   2.079   4.435  12.630  0.0718 -0.0858  0.2948
    1Sil    Sib 1822   1.754   4.453  11.868  0.0329 -0.2655 -0.4596
    1Sil    Sim 1823   1.782   4.497  12.687  0.0876 -0.2695  0.2143
    1Sil    Sib 1824   1.477   4.514  11.947 -0.8666  0.5091 -0.2555
    1Sil    Sib 1825   2.048   4.471  12.316 -0.6182  0.1463 -0.1121
    1Sil    Sib 1826   1.625   4.200  12.291  0.3019  0.4087 -0.3260
    1Sil    Sib 1827   2.227   4.172  12.712  0.0236 -0.4180  0.3771
    1Sil    Sib 1828   1.912   4.205  11.924  0.1363  0.1738 -0.3380
    1Sil    Sim 1829   2.248   4.695  10.644 -0.0544  0.1532  0.1200
    1Sil    Sib 1830   1.666   4.747  11.432  0.2571 -0.4995 -0.0317
    1Sil    Sib 1831   1.953   4.729  11.022  0.0960 -0.2415 -0.1464
    1Sil    Sib 1832   1.523   4.930  11.104  0.3116  0.4663  0.5245
    1Sil    Sib 1833   2.096   4.942  11.366 -0.2245 -0.3929  0.2977
    1Sil    Sib 1834   1.739   4.921  10.660  0.0020  0.1780  0.0186
    1Sil    Sib 1835   1.826   4.996  11.508  0.1361 -0.0213  0.0595
    1Sil    Sib 1836   1.511   4.970  10.825 -0.1875  0.1239 -0.3792
    1Sil    Sib 1837   2.115   4.976  11.067 -0.1934 -0.3548 -0.2241
    1Sil    Sib 1838   1.681   4.675  11.139 -0.1547  0.5121 -0.2244
    1Sil    Sib 1839   2.196   4.690  11.498 -0.0023  0.0109  0.0916
    1Sil    Sib 1840   1.957   4.724  10.724  0.3083 -0.1154 -0.2535
    1Sil    Sib 1841   2.186   4.755  11.775 -0.2969 -0.4191  0.0724
    1Sil    Sib 1842   1.672   4.726  12.531  0.2520  0.1724  0.1947
    1Sil    Sib 1843   1.926   4.720  12.199 -0.2756  0.0988 -0.2189
    1Sil    Sib 1844   1.505   4.935  12.174  0.6667  0.2752 -0.3413
    1Sil    Sib 1845   1.993   4.921  12.697 -0.1905 -0.1299  0.3760
    1Sil    Sib 1846   1.814   4.958  11.816 -0.1268  0.0995  0.0172
    1Sil    Sib 1847   1.683   4.923  12.739  0.6499 -0.4938 -0.1343
    1Sil    Sib 1848   1.535   5.006  11.889 -0.2149  0.0406  0.4378
    1Sil    Sib 1849   2.005   4.937  12.381 -0.3813 -0.4329 -0.1585
    1Sil    Sib 1850   1.645   4.687  12.255  0.4331 -0.1032  0.0926
    1Sil    Sim 1851   2.167   4.692  12.788  0.4240  0.3310 -0.0992
    1Sil    Sib 1852   1.929   4.699  11.906  0.2518 -0.4491  0.0333
    1Sil    Sim 1853   2.231   5.150  10.608  0.2756  0.4158 -0.0962
    1Sil    Sib 1854   1.676   5.242  11.411  0.7028 -0.2539 -0.2694
    1Sil    Sib 1855   1.956   5.206  10.977  0.3269 -0.0669  0.9439
    1Sil    Sib 1856   1.537   1.993  11.049  0.0779 -0.4982 -0.0341
    1Sil    Sib 1857   2.042   2.017  11.420  0.3216  0.4738  0.1826
    1Sil    Sim 1858   1.808   2.011  10.615  0.5187  0.2519 -0.1495
    1Sil    Sib 1859   1.774   2.055  11.573 -0.3243 -0.2112 -0.2102
    1Sil    Sib 1860   1.539   2.031  10.739 -0.3137  0.1414 -0.1904
    1Sil    Sib 1861   2.063   2.049  11.106 -0.2536  0.0308 -0.0700
    1Sil    Sib 1862   1.700   5.166  11.133 -0.2125 -0.0807 -0.0789
    1Sil    Sib 1863   2.165   5.183  11.528 -0.3687  0.0688  0.0802
    1Sil    Sib 1864   1.924   5.157  10.670  0.6181  0.1971  0.3764
    1Sil    Sib 1865   2.175   5.244  11.823  0.1380 -0.0041  0.3545
    1Sil    Sib 1866   1.618   5.212  12.642 -0.0046  0.7428 -0.0315
    1Sil    Sib 1867   1.892   5.209  12.285  0.1656  0.7327  0.3143
    1Sil    Sib 1868   1.456   1.993  12.276  0.2227 -0.2726 -0.1564
    1Sil    Sib 1869   2.099   2.015  12.710 -0.0575 -0.1195 -0.1362
    1Sil    Sib 1870   1.764   2.010  11.884 -0.0564  0.2120 -0.0835
    1Sil    Sim 1871   1.788   2.030  12.753  0.0851  0.4130 -0.1485
    1Sil    Sib 1872   1.481   2.063  11.974 -0.2850 -0.1262  0.0814
    1Sil    Sib 1873   2.058   2.024  12.387  0.1036  0.2518  0.0184
    1Sil    Sib 1874   1.606   5.157  12.341  0.1027 -0.1281  0.3943
    1Sil    Sib 1875   2.208   5.144  12.723  0.0235  0.5004 -0.0307
    1Sil    Sib 1876   1.925   5.186  11.978  0.1932 -0.3768  0.2111
    1Sil    Sim 1877  -0.216   2.292  10.600  0.2673  0.0104 -0.0124
    1Sil    Sib 1878   2.476   2.314  11.418 -0.1970 -0.4715  0.6482
    1Sil    Sib 1879  -0.457   2.299  11.025  0.4307  0.3081  0.2091
    1Sil    Sib 1880   2.336   2.490  11.059 -0.4448  0.3872  0.3434
    1Sil    Sib 1881   2.869   2.495  11.461  0.1873 -0.0781  0.6415
    1Sil    Sim 1882   2.608   2.499  10.666 -0.0496  0.1478  0.0516
    1Sil    Sib 1883   2.584   2.568  11.550  0.3057 -0.4508 -0.0212
    1Sil    Sib 1884   2.314   2.509  10.750  0.2407 -0.4197  0.2167
    1Sil    Sib 1885  -0.363   2.529  11.173  0.1060 -0.4189 -0.7132
    1Sil    Sib 1886   2.505   2.252  11.125 -0.3078  0.5059  0.2567
    1Sil    Sib 1887  -0.208   2.244  11.527  0.2436 -0.6977 -0.6781
    1Sil    Sib 1888  -0.479   2.253  10.739  0.3289 -0.1100 -0.4002
    1Sil    Sib 1889  -0.220   2.314  11.814 -0.1878  0.1736 -0.1693
    1Sil    Sib 1890   2.430   2.282  12.554  0.1945  0.2857 -0.0196
    1Sil    Sib 1891  -0.523   2.296  12.187 -0.6320  0.0495  0.3295
    1Sil    Sib 1892   2.274   2.483  12.257 -0.1028  0.3563  0.3564
    1Sil    Sib 1893   2.773   2.512  12.687 -0.2968 -0.1849 -0.0723
    1Sil    Sib 1894   2.569   2.517  11.854  0.0537 -0.3034 -0.5135
    1Sil    Sib 1895   2.468   2.494  12.731 -0.4730  0.1634 -0.0786
    1Sil    Sib 1896   2.286   2.547  11.953  0.4373 -0.1605  0.2023
    1Sil    Sib 1897  -0.439   2.520  12.369  0.2323 -0.3449 -0.1262
    1Sil    Sib 1898   2.437   2.233  12.264 -0.1208  0.2266  0.4832
    1Sil    Sim 1899  -0.297   2.266  12.751  0.1645  0.0173 -0.2019
    1Sil    Sib 1900  -0.500   2.278  11.895 -0.0939 -0.2288 -0.0480
    1Sil    Sib 1901  -0.294   2.836  10.689 -0.2009 -0.0338  0.1020
    1Sil    Sib 1902   2.445   2.807  11.461  0.1685  0.6270  0.2749
    1Sil    Sib 1903  -0.496   2.777  11.106 -0.6326  0.1709 -0.0739
    1Sil    Sib 1904   2.359   2.965  11.024  0.1610 -0.1678 -0.3112
    1Sil    Sib 1905   2.872   3.012  11.424 -0.0573  0.3914 -0.0014
    1Sil    Sib 1906  -0.570   2.968  10.669  0.4280 -0.5254 -0.1961
    1Sil    Sib 1907   2.602   3.041  11.534 -0.3179 -0.4459 -0.0172
    1Sil    Sib 1908   2.365   2.974  10.706 -0.9947  0.2212  0.1850
    1Sil    Sib 1909  -0.357   3.043  11.118 -0.3270  0.0700 -0.2180
    1Sil    Sib 1910   2.461   2.741  11.174  0.0264  0.6803 -0.2535
    1Sil    Sib 1911  -0.243   2.756  11.542 -0.1294  0.2000  0.2944
    1Sil    Sib 1912   2.718   2.732  10.834  0.5040  0.4950 -0.0695
    1Sil    Sib 1913  -0.270   2.789  11.843 -0.0561  0.3888 -0.0616
    1Sil    Sib 1914   2.399   2.781  12.652  0.1515 -0.0879 -0.2008
    1Sil    Sib 1915  -0.550   2.784  12.292  0.1924  0.2919 -0.2169
    1Sil    Sib 1916   2.334   2.984  12.205 -0.1232 -0.3605  0.2917
    1Sil    Sib 1917   2.897   3.031  12.719 -0.2533  0.6138 -0.2666
    1Sil    Sib 1918   2.620   3.008  11.823  0.2248  0.2287 -0.2380
    1Sil    Sim 1919   2.589   2.999  12.768 -0.3433  0.3528 -0.1549
    1Sil    Sib 1920   2.345   3.048  11.918 -0.2530 -0.0497  0.1741
    1Sil    Sib 1921  -0.380   3.015  12.398  0.1731 -0.1736  0.2463
    1Sil    Sib 1922   2.409   2.729  12.352  0.0227 -0.0136  0.2687
    1Sil    Sib 1923  -0.246   2.730  12.734  0.5791 -0.1601  0.2209
    1Sil    Sib 1924   2.700   2.766  11.974 -0.1208  0.4612  0.0557
    1Sil    Sim 1925  -0.236   3.285  10.608  0.0808  0.3031 -0.4058
    1Sil    Sib 1926   2.490   3.286  11.424 -0.2796  0.7628 -0.2240
    1Sil    Sib 1927  -0.500   3.284  10.985  0.0138  0.4503  0.3480
    1Sil    Sib 1928   2.343   3.457  11.102 -0.2511  0.0047  0.3853
    1Sil    Sib 1929   2.872   3.486  11.447 -0.0333  0.4909 -0.1482
    1Sil    Sib 1930   2.553   3.545  10.642  0.2696 -0.1396 -0.0023
    1Sil    Sib 1931   2.595   3.534  11.562  0.2642 -0.4279 -0.5810
    1Sil    Sib 1932   2.326   3.481  10.811 -0.2621  0.1524  0.1874
    1Sil    Sib 1933  -0.374   3.505  11.137  0.9004 -0.2579  0.1754
    1Sil    Sib 1934   2.489   3.209  11.127  0.1065 -0.4562  0.5645
    1Sil    Sib 1935  -0.266   3.241  11.573  0.5232  0.6624  0.1100
    1Sil    Sib 1936  -0.526   3.283  10.684  0.3244 -0.2286  0.3479
    1Sil    Sib 1937  -0.275   3.295  11.866  0.2250  0.0424 -0.7701
    1Sil    Sib 1938   2.381   3.222  12.699 -0.1296  0.0603 -1.0778
    1Sil    Sib 1939  -0.536   3.253  12.292  0.3027 -0.3986 -0.3364
    1Sil    Sib 1940   2.293   3.467  12.282  0.0319  0.4320  0.3081
    1Sil    Sib 1941   2.813   3.500  12.707  0.0209 -0.0761  0.4102
    1Sil    Sib 1942   2.577   3.489  11.875 -0.0153  0.1130  0.0266
    1Sil    Sim 1943   2.517   3.501  12.769 -0.2063 -0.1393 -0.0744
    1Sil    Sib 1944   2.303   3.538  11.976  0.3139 -0.3418  0.6971
    1Sil    Sib 1945  -0.405   3.503  12.395 -0.3870 -0.2871 -0.2696
    1Sil    Sib 1946   2.420   3.202  12.388  0.0314  0.5850  0.4299
    1Sil    Sib 1947  -0.183   3.310  12.750  0.8273 -0.2495 -0.2299
    1Sil    Sib 1948   2.708   3.239  11.984  0.1413 -0.1732  0.2338
    1Sil    Sib 1949  -0.135   3.779  10.645  0.1022  0.0875 -0.0331
    1Sil    Sib 1950   2.491   3.780  11.425 -0.0324 -0.3008 -0.1634
    1Sil    Sib 1951  -0.465   3.758  10.998  0.6288 -0.2396  0.1647
    1Sil    Sib 1952   2.350   3.956  11.085 -0.3699  0.1193  0.2575
    1Sil    Sib 1953   2.849   3.952  11.484 -0.4415  0.0619  0.3863
    1Sil    Sim 1954   2.649   3.999  10.661  0.1862 -0.3053  0.5659
    1Sil    Sib 1955   2.577   4.016  11.576  0.2576  0.0976 -0.2401
    1Sil    Sib 1956   2.388   3.968  10.793 -0.0342  0.0385  0.1620
    1Sil    Sib 1957  -0.372   3.980  11.197 -0.4749  0.4097 -0.1041
    1Sil    Sib 1958   2.509   3.708  11.140 -0.1705 -0.0110  0.5667
    1Sil    Sib 1959  -0.229   3.725  11.552 -0.5727  0.4707  0.0301
    1Sil    Sib 1960   2.799   3.744  10.678 -0.4425 -0.1677 -0.0212
    1Sil    Sib 1961  -0.236   3.773  11.843  0.6307 -0.4819 -0.4711
    1Sil    Sib 1962   2.432   3.768  12.635  0.1624  0.5106  0.0503
    1Sil    Sib 1963  -0.507   3.757  12.264  0.2842  0.1064 -0.0154
    1Sil    Sib 1964   2.279   3.951  12.252  0.3619  0.0247  0.1864
    1Sil    Sib 1965   2.829   4.043  12.715  0.4728 -0.3828 -0.5608
    1Sil    Sib 1966   2.561   3.964  11.870  0.2741 -0.7407  0.0936
    1Sil    Sib 1967   2.512   4.046  12.740  0.0716  0.6090  0.1311
    1Sil    Sib 1968   2.283   4.027  11.964 -0.3700  0.1541 -0.1744
    1Sil    Sib 1969  -0.398   4.019  12.395  0.2880 -0.2392 -0.4242
    1Sil    Sib 1970   2.445   3.725  12.337  0.6071  0.2883  0.0176
    1Sil    Sim 1971  -0.280   3.759  12.767  0.4235  0.3821 -0.1873
    1Sil    Sib 1972   2.733   3.734  11.955  0.0594  0.0080 -0.2658
    1Sil    Sim 1973  -0.212   4.234  10.644  0.3286 -0.1573  0.2334
    1Sil    Sib 1974   2.483   4.272  11.462  0.0114  0.3369 -0.0159
    1Sil    Sib 1975  -0.464   4.230  11.084  0.5482  0.2601  0.0924
    1Sil    Sib 1976   2.323   4.445  11.129 -0.0060 -0.1365  0.2064
    1Sil    Sib 1977   2.904   4.440  11.432 -0.2436 -0.5608  0.1783
    1Sil    Sib 1978   2.553   4.399  10.718 -0.2338  0.1403  0.0401
    1Sil    Sib 1979   2.635   4.520  11.527 -0.6704  0.2168  0.0066
    1Sil    Sib 1980   2.317   4.470  10.846  0.1890  0.0849  0.1268
    1Sil    Sib 1981  -0.310   4.471  11.132  0.5066 -0.0477 -0.0053
    1Sil    Sib 1982   2.494   4.197  11.172  0.3759  0.2516 -0.2727
    1Sil    Sib 1983  -0.208   4.188  11.518  0.0564 -0.0263  0.3408
    1Sil    Sib 1984   2.779   4.220  10.792 -0.3152  0.0945  0.1166
    1Sil    Sib 1985  -0.214   4.261  11.805 -0.1338  0.3789  0.2680
    1Sil    Sib 1986   2.443   4.242  12.542  0.0899 -0.4686 -0.1928
    1Sil    Sib 1987  -0.501   4.233  12.205  0.0678 -0.4298 -0.0687
    1Sil    Sib 1988   2.319   4.445  12.177 -0.1011 -0.5439  0.5508
    1Sil    Sib 1989   2.817   4.480  12.634  0.4977  0.8118 -0.0533
    1Sil    Sib 1990   2.612   4.460  11.824 -0.1360 -0.1315 -0.2174
    1Sil    Sim 1991   2.542   4.464  12.719  0.7111 -0.1103 -0.0673
    1Sil    Sib 1992   2.327   4.516  11.883  0.3992 -0.3444  0.2477
    1Sil    Sib 1993  -0.420   4.492  12.336 -0.6263 -0.1470  0.4246
    1Sil    Sib 1994   2.455   4.192  12.255  0.1597  0.0868  0.1142
    1Sil    Sib 1995  -0.214   4.279  12.707 -0.2124 -0.0547 -0.2948
    1Sil    Sib 1996   2.742   4.203  11.907  0.0659  0.1192 -0.2194
    1Sil    Sib 1997  -0.263   4.738  10.655  0.0655  0.2514  0.1183
    1Sil    Sib 1998   2.475   4.747  11.451 -0.1187  0.2757 -0.2241
    1Sil    Sib 1999  -0.479   4.690  11.073  0.1401 -0.1142 -0.0825
    1Sil    Sib 2000   2.397   4.919  10.992  0.1718 -0.5630 -0.1343
    1Sil    Sib 2001   2.880   4.919  11.435  0.2475 -0.4492  0.1151
    1Sil    Sib 2002  -0.508   4.903  10.656  0.0498 -0.5172  0.0651
    1Sil    Sib 2003   2.604   5.001  11.535  0.5067 -0.5514 -0.1237
    1Sil    Sib 2004   2.434   4.925  10.694  0.1844  0.0069 -0.2045
    1Sil    Sib 2005  -0.343   4.950  11.139  0.1277 -0.3230  0.0921
    1Sil    Sib 2006   2.488   4.683  11.170 -0.0560 -0.2093 -0.7970
    1Sil    Sib 2007  -0.251   4.691  11.579 -0.0107 -0.2463 -0.0113
    1Sil    Sib 2008   2.738   4.632  10.781 -0.0516  0.3331  0.1999
    1Sil    Sib 2009  -0.253   4.747  11.872 -0.0272 -0.2575 -0.5361
    1Sil    Sib 2010   2.427   4.737  12.643  0.2275 -0.0979  0.0696
    1Sil    Sib 2011  -0.547   4.752  12.270  0.4080  0.0148  0.7587
    1Sil    Sib 2012   2.282   4.926  12.227  0.4376  0.1998 -0.0281
    1Sil    Sib 2013   2.808   5.032  12.709  0.5915  0.2050  0.2087
    1Sil    Sib 2014   2.600   4.950  11.848  0.0068 -0.4593 -0.0971
    1Sil    Sib 2015   2.497   5.027  12.708 -0.3070 -0.1416 -0.1745
    1Sil    Sib 2016   2.298   4.983  11.926 -0.4569 -0.1020 -0.0530
    1Sil    Sib 2017  -0.413   5.000  12.391  0.6106  0.3978 -0.0826
    1Sil    Sib 2018   2.413   4.684  12.347 -0.5091 -0.3365  0.0489
    1Sil    Sim 2019  -0.297   4.737  12.738 -0.1427 -0.7074 -0.0413
    1Sil    Sib 2020   2.714   4.703  11.972 -0.1737 -0.3508  0.0682
    1Sil    Sib 2021  -0.264   5.252  10.658  0.0717 -0.1319  0.0759
    1Sil    Sib 2022   2.447   5.240  11.451 -0.3426  0.4798  0.0157
    1Sil    Sib 2023  -0.487   5.207  11.107  0.2388 -0.0816 -0.0924
    1Sil    Sib 2024   2.367   1.999  11.024 -0.2409 -0.1781 -0.1282
    1Sil    Sib 2025  -0.378   2.010  11.464  0.2227  0.0459 -0.0518
    1Sil    Sib 2026  -0.554   1.955  10.665 -0.0822  0.3310 -0.2361
    1Sil    Sib 2027   2.585   2.069  11.557 -0.3164  0.3374 -0.1203
    1Sil    Sib 2028   2.381   1.996  10.701  0.4149  0.7077  0.4446
    1Sil    Sib 2029  -0.357   2.056  11.172 -0.0200 -0.5452  0.5279
    1Sil    Sib 2030   2.465   5.164  11.162  0.2376 -0.2164  0.3325
    1Sil    Sib 2031  -0.222   5.175  11.531 -0.4688 -0.1139  0.0312
    1Sil    Sib 2032  -0.458   5.148  10.827 -0.1516 -0.1620 -0.3528
    1Sil    Sib 2033  -0.238   5.241  11.824 -0.0109  0.1193 -0.5745
    1Sil    Sib 2034   2.399   5.225  12.536 -0.0471 -0.1415 -0.1013
    1Sil    Sib 2035  -0.517   5.230  12.217 -0.4372 -0.1184  0.4336
    1Sil    Sib 2036   2.278   1.987  12.191  0.0090 -0.1718  0.0140
    1Sil    Sib 2037  -0.443   2.036  12.637 -0.2043 -0.2370  0.6286
    1Sil    Sib 2038  -0.663   2.027  11.845  0.2157 -0.2658 -0.4472
    1Sil    Sim 2039   2.518   2.022  12.712  0.2167  0.4199  0.2678
    1Sil    Sib 2040   2.298   2.079  11.917 -0.2459 -0.0060 -0.0587
    1Sil    Sib 2041  -0.422   2.058  12.341  0.2221 -0.1113  0.2817
    1Sil    Sib 2042   2.443   5.168  12.248  0.0874 -0.3827  0.2049
    1Sil    Sib 2043  -0.226   5.255  12.707 -0.4857 -0.5293  0.1895
    1Sil    Sib 2044   2.724   5.199  11.933 -0.3242 -0.0906 -0.0054
    1Sil     Hm 2045   0.108   2.616  10.437 -0.6993  0.6682  1.2245
    1Sil     Hm 2046   0.253   2.519  10.425 -1.2506  0.4163 -1.9089
    1Sil     Hm 2047   0.094   2.435  10.447  2.1054 -2.5230  2.9867
    1Sil     Hm 2048   0.448   2.371  12.940 -0.3103  1.1073 -0.1278
    1Sil     Hm 2049   0.606   2.290  12.929  0.2787 -1.4399 -2.3973
    1Sil     Hm 2050   0.593   2.454  12.866  2.9577 -2.3312  2.3664
    1Sil     Hm 2051   0.534   2.921  12.910 -0.5836 -0.0474  2.7127
    1Sil     Hm 2052   0.510   2.764  12.957 -0.2413  2.6926  1.6587
    1Sil     Hm 2053   0.681   2.815  12.909 -0.3746  0.1257  0.8544
    1Sil     Hm 2054   0.101   2.942  12.927 -0.4762  2.3127  1.3408
    1Sil     Hm 2055   0.014   3.085  12.883 -2.7547 -1.3421  2.0581
    1Sil     Hm 2056  -0.063   2.923  12.853 -1.1011  0.9601  0.5388
    1Sil     Hm 2057  -0.042   4.059  12.865 -0.9876 -0.5212  2.5981
    1Sil     Hm 2058   0.054   3.966  12.973  0.1307 -0.8273 -0.8461
    1Sil     Hm 2059   0.114   4.117  12.927 -1.9366 -0.2492  1.2292
    1Sil     Hm 2060   0.522   4.212  12.983  3.2483 -2.8409 -1.4836
    1Sil     Hm 2061   0.673   4.281  12.932 -0.4701  0.0729  0.2752
    1Sil     Hm 2062   0.537   4.389  12.947  2.2401  0.3773  1.2337
    1Sil     Hm 2063   0.503   4.783  12.955 -2.1155 -1.4806 -1.3976
    1Sil     Hm 2064   0.626   4.670  12.969  1.2367  0.7683  0.6571
    1Sil     Hm 2065   0.668   4.832  12.898 -0.2116 -0.1181 -2.6446
    1Sil     Hm 2066   0.042   4.905  12.929 -1.1901  0.9824  1.5276
    1Sil     Hm 2067   0.105   5.070  12.907 -0.0948  0.3628 -0.8284
    1Sil     Hm 2068  -0.055   5.010  12.847  0.0149 -0.3893  1.0856
    1Sil     Hm 2069   1.388   2.397  12.876  0.3159 -0.4283 -1.0054
    1Sil     Hm 2070   1.286   2.267  12.951 -1.0282  5.4351  0.8821
    1Sil     Hm 2071   1.449   2.233  12.913  1.4396 -0.0976 -0.8334
    1Sil     Hm 2072   0.986   2.564  12.986  2.5403 -1.7758 -0.2287
    1Sil     Hm 2073   0.809   2.543  12.962  0.2216  1.8253 -2.0628
    1Sil     Hm 2074   0.907   2.402  12.959  0.6773  0.1428 -1.0170
    1Sil     Hm 2075   1.413   3.227  12.955  1.8960  0.9453 -0.0136
    1Sil     Hm 2076   1.482   3.356  12.869  0.8872  0.0033  1.1096
    1Sil     Hm 2077   1.315   3.366  12.920 -0.3010 -0.4477  0.3035
    1Sil     Hm 2078   0.891   3.613  12.952  0.3850 -1.5195  0.4089
    1Sil     Hm 2079   0.740   3.528  12.903 -1.1914 -0.0605 -1.2247
    1Sil     Hm 2080   0.879   3.438  12.949  0.3417  1.6841  2.7246
    1Sil     Hm 2081   1.354   3.731  12.942  0.3472  1.0993  2.0527
    1Sil     Hm 2082   1.510   3.771  12.866  0.0364 -1.1132 -1.7112
    1Sil     Hm 2083   1.390   3.894  12.878  0.8037 -0.2793 -0.3490
    1Sil     Hm 2084   0.941   4.453  13.007 -1.1241 -2.0852 -0.4545
    1Sil     Hm 2085   0.906   4.621  12.961  0.7493 -0.1653 -0.6274
    1Sil     Hm 2086   0.791   4.489  12.927 -0.3170  1.4580 -0.1626
    1Sil     Hm 2087   1.062   4.912  12.910 -0.3451 -0.7660 -0.1459
    1Sil     Hm 2088   0.914   4.990  12.930  1.4935  3.3804  1.1177
    1Sil     Hm 2089   1.051   5.089  12.885  0.3813 -0.5325 -2.4970
    1Sil     Hm 2090   1.452   5.193  12.937  0.5209 -0.0877 -1.0492
    1Sil     Hm 2091   1.347   5.336  12.933 -2.7753  0.6606  1.1141
    1Sil     Hm 2092   1.278   5.178  12.960 -0.3720  1.4908 -0.4103
    1Sil     Hm 2093   2.049   2.761  12.947 -0.9647 -0.0486 -1.2036
    1Sil     Hm 2094   2.123   2.921  12.935 -2.8331  2.6456  0.3597
    1Sil     Hm 2095   1.961   2.893  12.871  0.3997  0.1320 -1.3611
    1Sil     Hm 2096   1.680   3.410  12.954  0.5442 -0.5832 -1.2075
    1Sil     Hm 2097   1.758   3.567  12.970 -0.1508 -0.2018 -0.5324
    1Sil     Hm 2098   1.585   3.561  12.948 -0.0252 -0.4883 -0.7750
    1Sil     Hm 2099   2.182   3.641  12.972 -1.9514  0.9180  0.5525
    1Sil     Hm 2100   2.291   3.776  12.935 -0.0431 -1.1454  0.2163
    1Sil     Hm 2101   2.121   3.802  12.973 -1.2408 -2.2992  2.6427
    1Sil     Hm 2102   1.670   4.524  12.884 -1.5154 -0.6187 -2.5213
    1Sil     Hm 2103   1.840   4.482  12.918  1.2564  1.3361 -1.4644
    1Sil     Hm 2104   1.787   4.644  12.883  1.5471  0.4037 -0.8900
    1Sil     Hm 2105   2.082   4.595  12.976 -1.8944  1.3048 -1.8164
    1Sil     Hm 2106   2.233   4.523  12.939 -0.8546 -0.6500  0.0185
    1Sil     Hm 2107   2.218   4.698  13.002 -1.2369 -1.1854  1.5034
    1Sil     Hm 2108   1.734   1.916  12.946 -0.2829 -0.0978  2.0396
    1Sil     Hm 2109   1.753   2.086  12.982  1.5826 -1.6919  0.4424
    1Sil     Hm 2110   1.608   2.014  12.906 -0.3251 -1.0519  1.5870
    1Sil     Hm 2111   2.699   2.904  12.958 -0.4950  0.3597  0.7723
    1Sil     Hm 2112   2.553   2.997  13.007  1.1204  1.4890 -0.0865
    1Sil     Hm 2113   2.533   2.839  12.931 -0.0241  0.1455  1.1589
    1Sil     Hm 2114   2.522   3.472  13.000  0.7771  2.1013  0.6632
    1Sil     Hm 2115   2.362   3.517  12.928 -0.3112  1.0400  2.1235
    1Sil     Hm 2116   2.494   3.633  12.942  0.1665  0.2361  0.1347
    1Sil     Hm 2117   2.532   4.324  12.894 -0.5292  1.1799 -0.0215
    1Sil     Hm 2118   2.523   4.491  12.948  2.9215 -1.4705  0.6048
    1Sil     Hm 2119   2.377   4.407  12.884 -0.2653  0.2918  0.4203
    1Sil     Hm 2120   2.549   1.998  12.946 -0.0511 -0.3856 -0.5384
    1Sil     Hm 2121   2.418   1.894  12.901 -0.8000  0.5926 -0.8995
    1Sil     Hm 2122   2.401   2.079  12.919  1.7002  0.7563  0.9277
    1Sil     Hm 2123  -0.301   2.188  12.968  0.8835 -1.4529  0.5000
    1Sil     Hm 2124  -0.146   2.180  12.900 -1.9397 -2.3293 -0.5810
    1Sil     Hm 2125  -0.206   2.335  12.958 -0.7392 -0.8303  0.7823
    1Sil     Hm 2126  -0.173   3.808  12.956 -0.4553 -0.6978  0.2035
    1Sil     Hm 2127  -0.317   3.707  12.980 -0.8547 -0.2978 -0.7860
    1Sil     Hm 2128  -0.172   3.640  12.912 -0.4439 -0.8870 -0.3703
    1Sil     Hm 2129  -0.194   4.584  12.875 -0.0570  0.3481  0.3792
    1Sil     Hm 2130  -0.160   4.747  12.921 -0.1240  0.0926  0.5826
    1Sil     Hm 2131  -0.327   4.677  12.953 -0.0521 -0.6200 -0.3182
    1Sil     Hm 2132   0.532   2.609  10.530 -1.0444  0.3550  1.6480
    1Sil     Hm 2133   0.512   2.764  10.466 -1.2017  1.0963  2.3787
    1Sil     Hm 2134   0.678   2.708  10.494  0.1522 -1.7766 -1.0485
    1Sil     Hm 2135   0.345   3.076  10.532  0.1659 -0.3580  1.5413
    1Sil     Hm 2136   0.195   3.043  10.433 -0.2486  1.7112 -0.5120
    1Sil     Hm 2137   0.207   3.192  10.514  1.5287  0.3457  0.6660
    1Sil     Hm 2138   0.756   3.706  10.504  0.1488  0.4298 -0.1569
    1Sil     Hm 2139   0.599   3.735  10.441 -0.8976  2.9387  0.0865
    1Sil     Hm 2140   0.700   3.873  10.501  2.9454 -0.7705 -0.3776
    1Sil     Hm 2141   0.428   4.467  10.498  0.5464 -0.2310 -0.5854
    1Sil     Hm 2142   0.299   4.454  10.380  2.7839  0.2734 -1.1529
    1Sil     Hm 2143   0.307   4.603  10.469  0.6256 -0.8128 -0.2108
    1Sil     Hm 2144   0.773   5.191  10.461 -0.0345 -3.3998 -1.5141
    1Sil     Hm 2145   0.634   5.092  10.445  6.3699 -2.2644  0.6403
    1Sil     Hm 2146   0.632   5.268  10.394  0.8111 -0.4486 -0.2021
    1Sil     Hm 2147   0.238   2.045  10.435 -2.5840 -0.7966 -2.3891
    1Sil     Hm 2148   0.094   2.132  10.505  0.0886  0.3529 -0.7272
    1Sil     Hm 2149   0.085   1.969  10.460 -1.7330  1.4814  0.5287
    1Sil     Hm 2150   1.562   2.726  10.534  0.1932  0.9141  1.0850
    1Sil     Hm 2151   1.430   2.628  10.470  1.1073  0.0965  1.2871
    1Sil     Hm 2152   1.426   2.805  10.457 -0.4037  0.5799  0.7711
    1Sil     Hm 2153   1.014   2.930  10.427  1.0573  1.3710  0.7097
    1Sil     Hm 2154   0.850   2.892  10.470 -0.3241 -0.7201 -0.9982
    1Sil     Hm 2155   0.881   3.060  10.416  0.0768  0.3004  1.0299
    1Sil     Hm 2156   1.010   3.544  10.456  2.5789 -2.4416  1.7322
    1Sil     Hm 2157   0.939   3.387  10.488 -2.1147 -0.1681  0.1265
    1Sil     Hm 2158   0.840   3.532  10.514 -0.1738 -0.5794  0.0854
    1Sil     Hm 2159   1.571   3.785  10.482 -0.0059 -0.4565 -1.5440
    1Sil     Hm 2160   1.414   3.767  10.411  2.8477  0.0446 -0.9561
    1Sil     Hm 2161   1.456   3.922  10.478  3.1926  0.9849  1.1532
    1Sil     Hm 2162   1.097   4.386  10.411 -0.2028 -0.2371  0.7603
    1Sil     Hm 2163   0.934   4.355  10.437  0.9112 -1.8261  0.2487
    1Sil     Hm 2164   0.989   4.520  10.380 -0.7253  1.6583  1.7705
    1Sil     Hm 2165   0.945   4.824  10.463 -1.3670  0.0043 -0.5351
    1Sil     Hm 2166   0.854   4.978  10.473  0.0575  0.7365  0.9307
    1Sil     Hm 2167   1.031   4.976  10.430  0.8688 -1.0132  1.2645
    1Sil     Hm 2168   1.459   5.233  10.426  2.0825  1.1680 -0.3597
    1Sil     Hm 2169   1.602   5.195  10.515 -0.4027  0.5013 -1.2446
    1Sil     Hm 2170   1.490   5.059  10.487  2.8333 -0.8345  1.6579
    1Sil     Hm 2171   0.933   2.020  10.432  0.4738  1.2700 -2.0134
    1Sil     Hm 2172   0.855   2.168  10.499 -0.0225  0.0873 -1.0134
    1Sil     Hm 2173   1.021   2.170  10.431 -0.5048 -0.1952 -0.4435
    1Sil     Hm 2174   2.406   2.322  10.465 -0.8105  2.2257  1.6863
    1Sil     Hm 2175   2.290   2.220  10.391  0.3844  0.4879 -2.3327
    1Sil     Hm 2176   2.247   2.391  10.409  1.8715  0.9357 -1.0023
    1Sil     Hm 2177   2.343   2.767  10.432  0.3515 -0.7823  0.4133
    1Sil     Hm 2178   2.256   2.616  10.411  1.3605  1.0780 -2.1773
    1Sil     Hm 2179   2.186   2.770  10.371  0.0480 -1.4015 -0.5679
    1Sil     Hm 2180   2.256   3.255  10.413  0.7873  0.2577 -0.5009
    1Sil     Hm 2181   2.141   3.378  10.471  0.6695  0.0328 -2.0477
    1Sil     Hm 2182   2.317   3.397  10.487  0.8064 -0.5243 -0.9188
    1Sil     Hm 2183   1.755   3.434  10.405 -0.0338 -0.6780  0.7791
    1Sil     Hm 2184   1.705   3.611  10.426  0.6913  1.3608 -1.1265
    1Sil     Hm 2185   1.867   3.572  10.389  1.0539 -4.9074 -1.1985
    1Sil     Hm 2186   1.853   4.418  10.406 -0.6656  1.4806 -0.4472
    1Sil     Hm 2187   1.725   4.318  10.480  0.6145 -0.4179 -1.8846
    1Sil     Hm 2188   1.697   4.491  10.445 -1.1028 -0.9287 -0.1654
    1Sil     Hm 2189   2.258   4.536  10.485 -0.1391  0.3216 -2.7131
    1Sil     Hm 2190   2.170   4.670  10.433  0.1988 -0.5845 -0.2336
    1Sil     Hm 2191   2.350   4.690  10.440 -0.2945  1.4123 -0.5501
    1Sil     Hm 2192   2.149   5.237  10.395 -2.2240 -1.7312  1.7896
    1Sil     Hm 2193   2.315   5.294  10.431  0.6761 -0.8035  1.0273
    1Sil     Hm 2194   2.296   5.137  10.376 -2.0808 -1.8846  1.5226
    1Sil     Hm 2195   1.698   1.999  10.400  1.6168 -1.1749 -0.4862
    1Sil     Hm 2196   1.849   2.095  10.391  0.7574  1.0323  0.5606
    1Sil     Hm 2197   1.700   2.158  10.460 -1.3087 -1.2731  3.1574
    1Sil     Hm 2198   2.532   2.507  10.461  1.5865  0.3217 -3.3779
    1Sil     Hm 2199   2.680   2.594  10.470 -1.9791 -0.6420 -2.3935
    1Sil     Hm 2200   2.673   2.421  10.461  0.0455 -2.1330  2.4793
    1Sil     Hm 2201   2.608   4.185  10.515  0.6543 -0.0960 -2.3762
    1Sil     Hm 2202   2.653   4.041  10.430 -2.0605 -1.3395 -0.9588
    1Sil     Hm 2203   2.488   4.054  10.475  1.0449 -0.4877 -3.6135
    1Sil     Hm 2204  -0.145   2.310  10.380 -1.0929 -0.1535 -1.7472
    1Sil     Hm 2205  -0.126   2.141  10.453  1.0061  1.3601  0.3073
    1Sil     Hm 2206  -0.278   2.197  10.414  0.1823  1.5444 -1.2815
    1Sil     Hm 2207  -0.086   3.162  10.453  0.0247  1.3473  0.2469
    1Sil     Hm 2208  -0.250   3.139  10.409  1.1239 -0.8218 -0.8050
    1Sil     Hm 2209  -0.177   3.291  10.373  2.9688  1.9559  2.3954
    1Sil     Hm 2210  -0.131   4.125  10.470  0.1106 -0.5446 -1.8156
    1Sil     Hm 2211  -0.275   4.219  10.434  0.8217  1.2849  1.5859
    1Sil     Hm 2212  -0.285   4.062  10.531 -0.0169  0.1270 -0.0831
    2Eth     Ho 2213   1.493   1.520   9.392 -0.9762  0.5966 -1.0770
    2Eth     Oh 2214   1.560   1.528   9.326 -0.0092 -0.3600 -0.2231
    2Eth     Co 2215   1.646   1.417   9.347  0.4650 -0.2212 -0.8873
    2Eth    Hco 2216   1.588   1.325   9.349  1.1319 -0.6480  2.9832
    2Eth    Hco 2217   1.684   1.422   9.449  0.0431  1.0287 -0.7840
    2Eth     Ch 2218   1.751   1.426   9.239 -0.0002 -0.1226  0.3034
    2Eth    Hcc 2219   1.813   1.516   9.238  0.0283 -0.1331  0.8335
    2Eth    Hcc 2220   1.702   1.411   9.143 -2.0407  1.4644  1.0561
    2Eth    Hcc 2221   1.815   1.341   9.262  2.9626  2.3151  1.4534
    3Eth     Ho 2222   1.988   1.666   1.308  0.4477  0.8457 -0.1054
    3Eth     Oh 2223   2.000   1.601   1.375  0.0365  0.9902  0.1126
    3Eth     Co 2224   2.133   1.621   1.433 -0.0483 -0.3455  0.0815
    3Eth    Hco 2225   2.153   1.727   1.439  1.5060 -0.6331  0.0976
    3Eth    Hco 2226   2.210   1.578   1.368  1.1197  2.4422 -0.4157
    3Eth     Ch 2227   2.142   1.555   1.574  0.2391  0.2509  0.2668
    3Eth    Hcc 2228   2.120   1.449   1.561 -4.3691  1.2758 -1.3731
    3Eth    Hcc 2229   2.064   1.590   1.642 -0.6617  0.1593 -0.7031
    3Eth    Hcc 2230   2.238   1.563   1.624  1.0460  3.2911 -1.6959
    4Eth     Ho 2231   1.379   3.025   4.505  0.4399  0.2525 -2.2336
    4Eth     Oh 2232   1.454   3.078   4.524  0.0501  0.0315  0.1756
    4Eth     Co 2233   1.521   3.025   4.633 -1.0490 -0.0144 -0.2991
    4Eth    Hco 2234   1.550   2.922   4.616  1.2605  0.6267 -0.4100
    4Eth    Hco 2235   1.445   3.012   4.710  0.2015  0.8346  1.1086
    4Eth     Ch 2236   1.645   3.111   4.690 -0.1247 -0.3988  0.1113
    4Eth    Hcc 2237   1.683   3.056   4.776 -2.0413 -1.6758  0.1930
    4Eth    Hcc 2238   1.612   3.211   4.721 -2.0039 -1.0010  0.1385
    4Eth    Hcc 2239   1.725   3.127   4.618  0.4459 -0.3640  0.7481
    5Eth     Ho 2240   2.883   1.675   3.843  1.2474 -0.5210  0.1650
    5Eth     Oh 2241   2.883   1.706   3.932  0.0449 -0.0684  0.0173
    5Eth     Co 2242   2.754   1.756   3.952 -0.3691  0.0671  0.1059
    5Eth    Hco 2243   2.686   1.671   3.967  1.0418 -1.2635 -0.9461
    5Eth    Hco 2244   2.731   1.814   3.863  2.5197  0.4370 -0.4235
    5Eth     Ch 2245   2.784   1.845   4.076 -0.6263  0.4454  0.5160
    5Eth    Hcc 2246   2.849   1.800   4.150  1.7222  0.6918 -1.3456
    5Eth    Hcc 2247   2.698   1.876   4.135 -1.4182  0.1619 -0.4722
    5Eth    Hcc 2248   2.833   1.936   4.043 -0.4110 -0.1916 -0.9867
    6Eth     Ho 2249   3.152   0.635   1.730  2.1873 -0.0162 -0.8927
    6Eth     Oh 2250   3.120   0.690   1.660  0.1722 -0.0407 -0.0246
    6Eth     Co 2251   3.020   0.624   1.582 -0.3201 -0.0545  0.6560
    6Eth    Hco 2252   2.941   0.603   1.653 -1.2224  0.6281 -0.1403
    6Eth    Hco 2253   3.051   0.524   1.553  3.1302  2.2972 -4.4597
    6Eth     Ch 2254   2.972   0.722   1.470  0.0799 -0.4015 -0.0715
    6Eth    Hcc 2255   2.912   0.812   1.486  1.6592  0.5822  0.3940
    6Eth    Hcc 2256   2.917   0.657   1.402 -0.7193  0.2676 -0.0711
    6Eth    Hcc 2257   3.060   0.752   1.413 -2.1305  1.1844 -2.7947
    7Eth     Ho 2258   0.507   1.847   2.047 -0.2189 -0.4368 -0.0912
    7Eth     Oh 2259   0.593   1.827   2.017  0.0651 -0.2823  0.6015
    7Eth     Co 2260   0.662   1.945   2.014 -0.8017  0.2297  0.4281
    7Eth    Hco 2261   0.687   1.999   2.105  0.5147  0.8615 -0.2944
    7Eth    Hco 2262   0.613   2.010   1.941  0.7595  0.5346 -0.3617
    7Eth     Ch 2263   0.805   1.904   1.961  0.4859  0.4849  1.1698
    7Eth    Hcc 2264   0.841   1.830   2.033 -3.0427 -0.8147  1.6639
    7Eth    Hcc 2265   0.872   1.989   1.944 -2.5726  2.5887 -0.8177
    7Eth    Hcc 2266   0.800   1.848   1.868  1.3131  1.5586  0.4706
    8Eth     Ho 2267   2.279   3.369   7.280  0.7696 -0.7003  1.2965
    8Eth     Oh 2268   2.291   3.454   7.318 -0.6163  0.0361  0.1711
    8Eth     Co 2269   2.425   3.487   7.285 -0.0889  0.0271  0.4043
    8Eth    Hco 2270   2.465   3.433   7.199  0.5221  1.5551 -0.2931
    8Eth    Hco 2271   2.491   3.452   7.365  2.6534  1.8542 -0.9867
    8Eth     Ch 2272   2.451   3.633   7.280  0.2251  0.4895 -0.1380
    8Eth    Hcc 2273   2.383   3.686   7.212  1.0838  0.6828 -0.8451
    8Eth    Hcc 2274   2.550   3.640   7.237  0.9781  0.0555  1.4939
    8Eth    Hcc 2275   2.446   3.685   7.376  1.2693  0.0710  0.1443
    9Eth     Ho 2276   2.683   0.980   8.498 -0.6630  0.7951 -0.4437
    9Eth     Oh 2277   2.711   0.918   8.432 -0.4566  0.4406 -0.0230
    9Eth     Co 2278   2.734   0.787   8.488  0.4061  0.3460 -0.0815
    9Eth    Hco 2279   2.647   0.747   8.539 -0.8603  3.3362  0.1870
    9Eth    Hco 2280   2.819   0.797   8.557  0.8907 -0.0787 -0.6091
    9Eth     Ch 2281   2.777   0.695   8.380 -0.6330 -0.3955  0.6970
    9Eth    Hcc 2282   2.722   0.708   8.287 -1.0719 -0.1086  0.9959
    9Eth    Hcc 2283   2.775   0.588   8.401 -1.0711 -0.9560 -1.9861
    9Eth    Hcc 2284   2.881   0.721   8.363 -0.0885 -1.9382  1.6175
   10Eth     Ho 2285   1.775   1.678   4.775 -2.7783 -0.9625  0.7388
   10Eth     Oh 2286   1.823   1.650   4.851  0.2946  0.0012 -0.7168
   10Eth     Co 2287   1.733   1.557   4.918  0.2731  0.2697  0.3505
   10Eth    Hco 2288   1.712   1.472   4.853 -0.2251 -0.5962  1.6347
   10Eth    Hco 2289   1.635   1.599   4.944 -0.2704 -0.7720 -0.0002
   10Eth     Ch 2290   1.791   1.499   5.052 -0.2612 -0.4236 -0.1625
   10Eth    Hcc 2291   1.800   1.576   5.128 -1.1224  0.4220 -0.9043
   10Eth    Hcc 2292   1.882   1.446   5.022  0.7066  0.8897  0.3910
   10Eth    Hcc 2293   1.715   1.430   5.088 -0.9441  0.7605  0.7030
   11Eth     Ho 2294   1.865   2.859   1.491  0.4329  0.9583  2.3779
   11Eth     Oh 2295   1.777   2.890   1.492 -0.0174 -0.2071  0.6698
   11Eth     Co 2296   1.756   2.971   1.376 -0.1743 -0.6986  0.4285
   11Eth    Hco 2297   1.761   2.918   1.281  0.3029  0.1334 -0.0132
   11Eth    Hco 2298   1.842   3.038   1.372 -0.9399  0.2053 -1.3263
   11Eth     Ch 2299   1.624   3.051   1.390  0.7114  0.0618  0.6711
   11Eth    Hcc 2300   1.612   3.120   1.474 -0.0363  0.3727  0.3122
   11Eth    Hcc 2301   1.537   2.988   1.402  0.3764 -0.0202 -1.8462
   11Eth    Hcc 2302   1.614   3.111   1.299  0.0506  0.9408  1.3087
   12Eth     Ho 2303   0.433   1.524   1.389  1.8364 -0.6876  0.0906
   12Eth     Oh 2304   0.452   1.600   1.440 -0.4466 -0.0459  0.0518
   12Eth     Co 2305   0.558   1.558   1.523 -0.5016 -0.0963  0.2272
   12Eth    Hco 2306   0.641   1.517   1.466  0.6101 -0.2169  1.8962
   12Eth    Hco 2307   0.539   1.463   1.574  0.5989  0.3123  1.4149
   12Eth     Ch 2308   0.604   1.661   1.631 -0.0144 -0.4061 -0.4654
   12Eth    Hcc 2309   0.667   1.633   1.715 -2.3879 -0.0208  1.5210
   12Eth    Hcc 2310   0.510   1.694   1.676 -0.7801 -1.0860 -1.5331
   12Eth    Hcc 2311   0.651   1.751   1.591 -1.3533  0.3648 -0.3574
   13Eth     Ho 2312   0.766   2.039   4.711  2.7589  0.2709 -0.7733
   13Eth     Oh 2313   0.773   2.004   4.798  0.1865  0.7155 -0.3467
   13Eth     Co 2314   0.640   1.984   4.851 -0.1555  0.1839  0.3331
   13Eth    Hco 2315   0.574   1.943   4.774 -0.0399 -0.6883  0.6876
   13Eth    Hco 2316   0.608   2.083   4.881 -1.3114 -0.5657  1.6462
   13Eth     Ch 2317   0.654   1.897   4.972  0.5160  0.1358  0.5280
   13Eth    Hcc 2318   0.696   1.954   5.055  1.1655 -0.2421  0.4635
   13Eth    Hcc 2319   0.718   1.810   4.956  0.6102  0.3404 -0.2211
   13Eth    Hcc 2320   0.559   1.853   5.005 -0.4984  0.1161 -2.3373
   14Eth     Ho 2321   0.622   3.076   3.157 -0.9822  0.9117 -0.4511
   14Eth     Oh 2322   0.656   3.072   3.070 -0.1932 -0.2860 -0.0965
   14Eth     Co 2323   0.542   3.084   2.989  0.6238 -0.2055 -0.1844
   14Eth    Hco 2324   0.512   3.188   3.004 -1.9591 -1.0868  1.1637
   14Eth    Hco 2325   0.465   3.021   3.035  0.2766  0.4735  0.1745
   14Eth     Ch 2326   0.572   3.064   2.844  0.7683  0.0041  0.5405
   14Eth    Hcc 2327   0.490   3.035   2.778  0.5215 -0.6408  1.1272
   14Eth    Hcc 2328   0.636   2.977   2.835 -0.3029 -0.5098 -2.5165
   14Eth    Hcc 2329   0.627   3.152   2.811  1.4076 -0.1970  1.0647
   15Eth     Ho 2330   1.950   0.659   2.365 -1.3289 -0.2109  1.8383
   15Eth     Oh 2331   1.928   0.746   2.338  0.2866 -0.1462  0.6384
   15Eth     Co 2332   2.003   0.840   2.411 -0.0693 -0.9083  0.2757
   15Eth    Hco 2333   1.976   0.940   2.377  0.4576 -0.8700 -0.0295
   15Eth    Hco 2334   2.111   0.830   2.406 -0.0512 -0.7255  0.2927
   15Eth     Ch 2335   1.950   0.832   2.547 -0.3782 -0.6018  0.1412
   15Eth    Hcc 2336   1.842   0.835   2.550 -0.4661 -0.6712 -2.5189
   15Eth    Hcc 2337   1.979   0.929   2.589  1.3518  0.2845 -2.9300
   15Eth    Hcc 2338   1.992   0.756   2.614 -0.7752  0.4814  1.6539
   16Eth     Ho 2339   2.567   2.163   9.969  2.0346 -1.0311 -1.3332
   16Eth     Oh 2340   2.582   2.095  10.033  0.1406 -0.2602 -0.0521
   16Eth     Co 2341   2.461   2.033  10.066  0.1183  0.8913  0.5626
   16Eth    Hco 2342   2.429   1.988   9.972  0.0253  0.3396  0.8540
   16Eth    Hco 2343   2.383   2.101  10.101 -1.1390 -0.8061  1.1611
   16Eth     Ch 2344   2.489   1.943  10.182  0.0550 -0.4950  0.1336
   16Eth    Hcc 2345   2.576   1.882  10.159  0.7225  0.3302  0.4520
   16Eth    Hcc 2346   2.401   1.879  10.195 -1.5196  1.6908  0.5514
   16Eth    Hcc 2347   2.502   2.000  10.274 -0.2058  0.9611 -0.7218
   17Eth     Ho 2348   1.618   1.706   9.683 -0.5061 -2.1112 -2.0886
   17Eth     Oh 2349   1.526   1.695   9.702 -0.3971  0.0222 -0.2956
   17Eth     Co 2350   1.517   1.731   9.838  0.0083 -0.7540  0.4847
   17Eth    Hco 2351   1.551   1.835   9.837 -2.4315  0.0597  0.6023
   17Eth    Hco 2352   1.589   1.669   9.892 -1.7363 -2.3794  1.0179
   17Eth     Ch 2353   1.375   1.730   9.888 -0.2118  0.1568 -0.3442
   17Eth    Hcc 2354   1.362   1.767   9.990  0.6483 -0.4543 -0.0104
   17Eth    Hcc 2355   1.340   1.628   9.899  0.0130  0.0744 -0.3923
   17Eth    Hcc 2356   1.320   1.793   9.818  0.4965  2.8672  1.4413
   18Eth     Ho 2357   0.402   3.004   1.658 -0.7235 -0.8746 -0.7245
   18Eth     Oh 2358   0.357   3.079   1.623  0.1506 -0.0288 -0.0690
   18Eth     Co 2359   0.364   3.074   1.478 -0.1412  0.0101 -0.6687
   18Eth    Hco 2360   0.345   2.974   1.442  0.0802 -0.3133  0.0877
   18Eth    Hco 2361   0.469   3.088   1.450 -0.7740 -0.2041 -3.1914
   18Eth     Ch 2362   0.262   3.177   1.412 -0.2710  0.3656  1.0227
   18Eth    Hcc 2363   0.166   3.197   1.459 -1.9103 -0.9918 -1.6000
   18Eth    Hcc 2364   0.231   3.154   1.310  1.0253 -0.1515  0.7345
   18Eth    Hcc 2365   0.304   3.277   1.404  0.9085 -0.1321  0.8823
   19Eth     Ho 2366   3.205   0.144  10.111 -1.2841 -0.4481  1.1030
   19Eth     Oh 2367   3.265   0.175  10.177 -0.3303  0.2107 -0.0450
   19Eth     Co 2368   3.260   0.089  10.286  0.3040 -0.1349 -0.3523
   19Eth    Hco 2369   3.180   0.016  10.275  0.5636 -0.5413  0.3818
   19Eth    Hco 2370   3.211   0.152  10.361  0.3850  0.0493 -0.4533
   19Eth     Ch 2371   3.405   0.034  10.308  0.4026  0.8112  0.2856
   19Eth    Hcc 2372   3.420  -0.043  10.384  0.4649  0.6693  0.1304
   19Eth    Hcc 2373   3.474   0.110  10.343 -1.6159  1.7069  2.4728
   19Eth    Hcc 2374   3.429  -0.028  10.222 -0.3898  2.1015 -0.8944
   20Eth     Ho 2375   2.662   0.021   9.972 -1.6534  0.4584 -0.1804
   20Eth     Oh 2376   2.646  -0.004  10.061  0.3754 -0.4522 -0.0438
   20Eth     Co 2377   2.774   0.008  10.119  0.1603  0.2660 -0.2051
   20Eth    Hco 2378   2.820   0.098  10.078 -1.4635  0.7022 -1.1154
   20Eth    Hco 2379   2.834  -0.077  10.085  2.2641  0.1688  3.5268
   20Eth     Ch 2380   2.765   0.012  10.270 -0.1190  0.6352 -0.0349
   20Eth    Hcc 2381   2.695   0.088  10.306 -0.4481  0.8187 -1.0358
   20Eth    Hcc 2382   2.862   0.011  10.319 -0.8484 -1.3143  1.4309
   20Eth    Hcc 2383   2.745  -0.091  10.295  0.8645  0.3645 -0.3233
   21Eth     Ho 2384   2.032   1.637   6.249  0.9121  1.7688  1.7219
   21Eth     Oh 2385   2.050   1.694   6.176  0.0155 -0.0012  0.0590
   21Eth     Co 2386   1.978   1.655   6.061 -0.0186  0.5191 -0.4786
   21Eth    Hco 2387   1.870   1.667   6.073  0.4016  2.1449  2.0304
   21Eth    Hco 2388   1.997   1.550   6.042  1.4016  0.6898 -0.0574
   21Eth     Ch 2389   2.023   1.730   5.941 -0.3075 -0.1909  0.2840
   21Eth    Hcc 2390   2.123   1.690   5.923 -0.0211  0.6028  0.0916
   21Eth    Hcc 2391   2.023   1.837   5.958 -1.8768  0.1809 -1.8239
   21Eth    Hcc 2392   1.956   1.725   5.855  0.7347  0.0434 -0.5465
   22Eth     Ho 2393   0.032   1.574  10.260 -3.2854  1.0840  2.6865
   22Eth     Oh 2394   0.051   1.665  10.253  0.5372  0.1734 -0.3048
   22Eth     Co 2395  -0.001   1.711  10.137 -0.4110  0.6162 -0.0375
   22Eth    Hco 2396  -0.100   1.671  10.116  0.4991 -2.3749  1.0724
   22Eth    Hco 2397   0.054   1.669  10.053  1.6326  0.3284  1.4150
   22Eth     Ch 2398  -0.019   1.860  10.130  0.4281 -0.2588 -0.5807
   22Eth    Hcc 2399   0.080   1.900  10.149  0.1833  0.3729 -0.6194
   22Eth    Hcc 2400  -0.097   1.901  10.195  1.0901 -0.7310  0.5384
   22Eth    Hcc 2401  -0.050   1.881  10.028 -0.9473 -1.9450 -0.5237
   23Eth     Ho 2402   0.711   0.893   6.695  0.3330  1.0945 -0.4671
   23Eth     Oh 2403   0.757   0.867   6.773  0.0525 -0.0325 -0.6814
   23Eth     Co 2404   0.733   0.965   6.867 -0.8085 -0.3159  0.3181
   23Eth    Hco 2405   0.635   0.945   6.910 -0.3621 -1.3343  0.8714
   23Eth    Hco 2406   0.736   1.061   6.816  0.9224 -0.9202 -0.7605
   23Eth     Ch 2407   0.835   0.964   6.977 -0.0189 -0.1834 -0.2589
   23Eth    Hcc 2408   0.932   0.983   6.930  0.1118  2.2198  0.9154
   23Eth    Hcc 2409   0.841   0.870   7.033  1.8211 -0.3121 -0.6450
   23Eth    Hcc 2410   0.828   1.042   7.053 -1.3179 -0.1027 -0.4470
   24Eth     Ho 2411   1.038   0.863   1.450  0.1494  1.4785  2.6195
   24Eth     Oh 2412   0.950   0.833   1.466  0.3607 -0.7240  0.1013
   24Eth     Co 2413   0.931   0.707   1.403 -0.7340  0.4348  0.3342
   24Eth    Hco 2414   1.015   0.644   1.431 -0.0216  0.8438 -0.8765
   24Eth    Hco 2415   0.948   0.712   1.295  0.3377 -1.9710  0.3743
   24Eth     Ch 2416   0.789   0.658   1.451  0.2762 -0.3923  0.0549
   24Eth    Hcc 2417   0.719   0.741   1.462  2.8743  1.5204  2.7593
   24Eth    Hcc 2418   0.795   0.602   1.545  1.5436  0.8669  0.7244
   24Eth    Hcc 2419   0.747   0.582   1.385  0.3003  0.6142 -1.1242
   25Eth     Ho 2420   2.898   3.375   1.774  0.4059  0.5075 -0.0369
   25Eth     Oh 2421   2.842   3.441   1.736 -0.1047 -0.1083 -0.3550
   25Eth     Co 2422   2.865   3.439   1.595  0.9279 -0.5914  0.7705
   25Eth    Hco 2423   2.820   3.351   1.548 -2.0121  3.0645 -3.7005
   25Eth    Hco 2424   2.973   3.441   1.582  0.7042  0.5482 -1.0843
   25Eth     Ch 2425   2.798   3.568   1.537  0.2611 -0.2520  0.0812
   25Eth    Hcc 2426   2.852   3.657   1.570  1.2480 -0.3871 -1.1647
   25Eth    Hcc 2427   2.696   3.571   1.576  0.5086  0.7219  0.6869
   25Eth    Hcc 2428   2.785   3.550   1.431 -0.4518 -1.3507  0.3419
   26Eth     Ho 2429   2.799   1.096   5.453 -0.0746 -0.1547  1.0016
   26Eth     Oh 2430   2.853   1.048   5.393 -0.3283  0.1250  0.5372
   26Eth     Co 2431   2.888   1.159   5.315  0.5291 -0.1780  0.0618
   26Eth    Hco 2432   2.929   1.235   5.381 -0.9572  0.9397 -0.2671
   26Eth    Hco 2433   2.800   1.221   5.297  0.5905  0.5634  2.1695
   26Eth     Ch 2434   2.971   1.135   5.189  0.1062  0.2483 -0.3581
   26Eth    Hcc 2435   2.908   1.073   5.125 -2.6980  2.1132  0.5266
   26Eth    Hcc 2436   3.068   1.089   5.210  1.0186  0.9562 -2.8246
   26Eth    Hcc 2437   2.993   1.216   5.120 -0.9889 -0.7069 -1.8591
   27Eth     Ho 2438   0.673   2.101  10.234  0.0065 -0.0075  1.7810
   27Eth     Oh 2439   0.585   2.125  10.214  0.5103  0.3012 -0.1762
   27Eth     Co 2440   0.531   2.197  10.323  0.0197 -0.2252 -0.3304
   27Eth    Hco 2441   0.598   2.277  10.355 -0.7042  0.0029  0.6376
   27Eth    Hco 2442   0.530   2.121  10.402  1.6324  0.9346  0.8374
   27Eth     Ch 2443   0.391   2.255  10.292 -0.1343  0.5493  0.6251
   27Eth    Hcc 2444   0.331   2.274  10.381  0.4510  1.3240  0.8633
   27Eth    Hcc 2445   0.344   2.181  10.228  2.0142 -0.6710  0.4408
   27Eth    Hcc 2446   0.398   2.346  10.233  0.7276 -0.0078 -0.1252
   28Eth     Ho 2447   0.155   0.337  10.278 -0.6615  1.0536 -1.5222
   28Eth     Oh 2448   0.222   0.403  10.269  0.0837  0.5394  0.0093
   28Eth     Co 2449   0.343   0.355  10.317 -0.2144 -0.4748  0.3658
   28Eth    Hco 2450   0.370   0.274  10.249  0.9800  0.8599 -0.8035
   28Eth    Hco 2451   0.323   0.317  10.417 -0.9083  0.4212  0.5778
   28Eth     Ch 2452   0.433   0.479  10.314 -0.4077  0.1665 -0.4789
   28Eth    Hcc 2453   0.366   0.563  10.293 -0.6081 -0.5578 -2.8227
   28Eth    Hcc 2454   0.510   0.477  10.237  0.8109 -1.6323  0.7505
   28Eth    Hcc 2455   0.477   0.480  10.414 -1.2054  1.8952 -0.1252
   29Eth     Ho 2456   2.786   2.831   2.890  1.5756  1.5053 -0.4533
   29Eth     Oh 2457   2.860   2.778   2.915  0.2886 -0.2509 -0.2931
   29Eth     Co 2458   2.936   2.858   3.006 -0.2404 -0.0282  0.7706
   29Eth    Hco 2459   2.908   2.853   3.111  2.7518  0.0287  1.6115
   29Eth    Hco 2460   2.919   2.964   2.985 -0.7113 -0.2394  0.0744
   29Eth     Ch 2461   3.088   2.823   2.988  0.0627  0.0408 -0.2313
   29Eth    Hcc 2462   3.118   2.729   3.033 -0.1129  1.3521  2.7538
   29Eth    Hcc 2463   3.146   2.890   3.051  0.4984  0.3652 -0.9612
   29Eth    Hcc 2464   3.122   2.845   2.886 -0.2149  2.1617  0.1062
   30Eth     Ho 2465   1.238   0.442   9.990  0.7152  1.5357  1.0742
   30Eth     Oh 2466   1.252   0.374  10.053  0.0764  0.4472  0.0563
   30Eth     Co 2467   1.129   0.322  10.114 -0.2297 -0.1406  0.0276
   30Eth    Hco 2468   1.056   0.293  10.039  1.0327 -0.9052 -0.9345
   30Eth    Hco 2469   1.080   0.405  10.165 -0.4644 -1.5781  2.1839
   30Eth     Ch 2470   1.167   0.221  10.228  0.3665  0.4725  0.3473
   30Eth    Hcc 2471   1.243   0.149  10.196  2.6461  1.6550  2.8492
   30Eth    Hcc 2472   1.077   0.167  10.255  1.5304 -0.8883  1.5917
   30Eth    Hcc 2473   1.211   0.269  10.315 -1.2889  1.4644  0.6635
   31Eth     Ho 2474   2.674   0.762   1.596 -0.5345  0.1764 -1.7163
   31Eth     Oh 2475   2.653   0.675   1.569 -0.0210 -0.4296 -0.2193
   31Eth     Co 2476   2.533   0.683   1.492  0.1158 -0.0256 -0.4643
   31Eth    Hco 2477   2.540   0.749   1.406 -0.4379  1.5866  0.7071
   31Eth    Hco 2478   2.464   0.730   1.562 -0.0106 -2.8401  1.3865
   31Eth     Ch 2479   2.479   0.550   1.444  0.3137 -0.1647  0.0943
   31Eth    Hcc 2480   2.538   0.501   1.366  0.4368 -1.4178  0.9709
   31Eth    Hcc 2481   2.383   0.555   1.392  1.1401  0.6136 -1.4122
   31Eth    Hcc 2482   2.465   0.483   1.529 -2.4234  0.0506 -0.1404
   32Eth     Ho 2483   2.404   3.262   4.518 -0.7580  0.9461 -0.2153
   32Eth     Oh 2484   2.463   3.279   4.447 -0.3677  0.0079 -0.1283
   32Eth     Co 2485   2.569   3.354   4.505  0.0165 -0.5576 -0.3803
   32Eth    Hco 2486   2.591   3.304   4.599 -2.0704  0.6216  0.7562
   32Eth    Hco 2487   2.530   3.455   4.515 -0.6182 -0.7415 -0.9322
   32Eth     Ch 2488   2.698   3.371   4.415  0.4254  0.0595  0.3058
   32Eth    Hcc 2489   2.755   3.287   4.375  0.7058 -0.0779  0.9915
   32Eth    Hcc 2490   2.768   3.432   4.473  2.1528 -1.0068 -0.5915
   32Eth    Hcc 2491   2.668   3.416   4.320 -2.9659 -2.3295  0.1765
   33Eth     Ho 2492   2.242   2.581   1.702  1.9474  1.6402 -1.1831
   33Eth     Oh 2493   2.202   2.610   1.622 -0.2765  0.2149 -0.6283
   33Eth     Co 2494   2.289   2.589   1.516 -0.0025  0.6674  0.3225
   33Eth    Hco 2495   2.239   2.531   1.439  0.3156  0.0089  0.6143
   33Eth    Hco 2496   2.363   2.525   1.564 -1.3414  2.0728  4.4309
   33Eth     Ch 2497   2.353   2.715   1.450 -0.0851  0.4279 -0.2604
   33Eth    Hcc 2498   2.403   2.684   1.358 -4.0641 -1.0794 -2.0387
   33Eth    Hcc 2499   2.424   2.751   1.524 -0.9321 -0.9382  1.2587
   33Eth    Hcc 2500   2.302   2.808   1.426 -0.9714 -0.0576 -0.2806
   34Eth     Ho 2501   0.887   1.113   2.594 -0.5179 -0.4472  0.5790
   34Eth     Oh 2502   0.917   1.158   2.671 -0.3851  0.1598  0.1801
   34Eth     Co 2503   0.889   1.065   2.767 -0.0518 -0.0819  0.0632
   34Eth    Hco 2504   0.961   0.986   2.752  0.1980 -0.0762  1.1930
   34Eth    Hco 2505   0.783   1.037   2.768 -0.3762  1.0202  2.6313
   34Eth     Ch 2506   0.930   1.109   2.908 -0.4921  0.0214  1.0690
   34Eth    Hcc 2507   0.870   1.198   2.928 -1.4322 -0.2132 -0.5500
   34Eth    Hcc 2508   1.038   1.118   2.920 -0.6019  3.0496  0.2166
   34Eth    Hcc 2509   0.906   1.034   2.983 -1.0820  1.4420  2.3131
   35Eth     Ho 2510   1.644   2.054   9.144  0.5438 -0.7923 -0.6380
   35Eth     Oh 2511   1.720   2.065   9.090  1.0438  0.0441  0.2252
   35Eth     Co 2512   1.729   1.953   9.006  0.1617 -0.0258  0.1498
   35Eth    Hco 2513   1.628   1.942   8.966  0.2069 -0.4199  0.1427
   35Eth    Hco 2514   1.740   1.866   9.070 -1.2072  1.0548  1.9143
   35Eth     Ch 2515   1.834   1.981   8.896 -0.0602 -0.4211  0.1795
   35Eth    Hcc 2516   1.934   1.950   8.927  0.3226  1.3018  0.7265
   35Eth    Hcc 2517   1.838   2.082   8.856  2.8888 -0.1427  1.0550
   35Eth    Hcc 2518   1.814   1.917   8.810  2.4331 -0.8199 -0.1590
   36Eth     Ho 2519   0.033   0.712  10.010  2.2325  1.3176 -0.2410
   36Eth     Oh 2520   0.036   0.790  10.062  0.1606  0.8869  0.5407
   36Eth     Co 2521   0.096   0.752  10.184 -0.5888  0.2887 -0.0912
   36Eth    Hco 2522   0.205   0.757  10.175 -0.7300  2.8449 -0.8179
   36Eth    Hco 2523   0.064   0.651  10.210  1.3143 -0.2190  0.3476
   36Eth     Ch 2524   0.053   0.854  10.291 -0.5573 -0.6206 -0.0655
   36Eth    Hcc 2525   0.082   0.955  10.263  1.4496 -0.8461  1.0829
   36Eth    Hcc 2526   0.100   0.832  10.386 -0.2505 -0.0699 -0.0914
   36Eth    Hcc 2527  -0.054   0.839  10.308 -0.9957  1.3164 -0.9569
   37Eth     Ho 2528   1.648   2.874   6.855  1.7429  0.9179 -1.0396
   37Eth     Oh 2529   1.612   2.877   6.768  0.0223  0.2062 -0.3784
   37Eth     Co 2530   1.538   2.994   6.764 -0.2144  0.2647  0.6164
   37Eth    Hco 2531   1.601   3.074   6.804  2.3097 -0.7200 -1.2754
   37Eth    Hco 2532   1.443   2.994   6.818 -0.6336 -3.0491 -0.0574
   37Eth     Ch 2533   1.520   3.029   6.613 -0.1957  0.2405  0.0220
   37Eth    Hcc 2534   1.469   3.121   6.587  0.9087  0.6742 -0.6708
   37Eth    Hcc 2535   1.471   2.947   6.560 -2.2218  2.4941 -1.6666
   37Eth    Hcc 2536   1.622   3.037   6.574 -0.3250  0.0879 -0.3503
   38Eth     Ho 2537   1.798   3.238  10.137 -0.1078  1.3349  2.3398
   38Eth     Oh 2538   1.884   3.203  10.149 -0.2582  0.3699  0.7107
   38Eth     Co 2539   1.902   3.167  10.287  0.0215 -0.7018 -0.5302
   38Eth    Hco 2540   1.820   3.127  10.346 -0.3803  1.9974  0.8381
   38Eth    Hco 2541   1.942   3.254  10.339 -3.2028  1.4158 -1.3838
   38Eth     Ch 2542   2.007   3.062  10.302  0.2920 -0.2958  0.1358
   38Eth    Hcc 2543   2.083   3.081  10.225  0.4962 -0.9545  0.1720
   38Eth    Hcc 2544   1.966   2.961  10.289  1.2619 -0.8013  0.9317
   38Eth    Hcc 2545   2.054   3.063  10.400  0.6359  0.1932 -0.0328
   39Eth     Ho 2546   0.210   0.069   3.765  0.4429  2.0213  1.4493
   39Eth     Oh 2547   0.240   0.001   3.821  0.3758  0.1934 -0.6731
   39Eth     Co 2548   0.344  -0.061   3.742  0.6421  0.0121 -0.1772
   39Eth    Hco 2549   0.416   0.013   3.707  1.3336 -1.1792 -1.3038
   39Eth    Hco 2550   0.304  -0.112   3.654 -0.5049  0.2886  0.1825
   39Eth     Ch 2551   0.421  -0.159   3.847 -0.2206  0.2051  0.5676
   39Eth    Hcc 2552   0.356  -0.235   3.889 -0.4964 -1.2988 -2.4881
   39Eth    Hcc 2553   0.475  -0.107   3.927  0.5812  0.2543  0.0019
   39Eth    Hcc 2554   0.499  -0.214   3.794 -2.2796 -2.4369  0.2026
   40Eth     Ho 2555   2.990   2.813   2.522 -2.8425 -1.7318 -0.7507
   40Eth     Oh 2556   3.009   2.839   2.433  0.4722  0.1445  0.4368
   40Eth     Co 2557   3.048   2.971   2.444  0.1255 -0.9209 -0.2054
   40Eth    Hco 2558   3.134   2.956   2.510  0.7427  1.3533 -0.4603
   40Eth    Hco 2559   2.976   3.024   2.507  1.5950  0.4910  0.3270
   40Eth     Ch 2560   3.090   3.041   2.315 -0.5689  0.1164  0.5726
   40Eth    Hcc 2561   3.179   2.995   2.271 -2.3927 -1.3286 -1.7497
   40Eth    Hcc 2562   3.109   3.145   2.339 -2.6316  0.1677  2.1547
   40Eth    Hcc 2563   3.012   3.038   2.239 -0.6558 -0.1197  0.6706
   41Eth     Ho 2564   1.444   2.250   1.568  0.6109 -0.3562  2.8484
   41Eth     Oh 2565   1.531   2.235   1.536 -0.3844  0.2736 -0.3845
   41Eth     Co 2566   1.584   2.366   1.505 -0.3281  0.1603  0.5869
   41Eth    Hco 2567   1.572   2.430   1.592  0.9114  1.4530 -0.1671
   41Eth    Hco 2568   1.523   2.415   1.428  1.6760  3.5062  1.0426
   41Eth     Ch 2569   1.727   2.357   1.464 -0.1092  0.1211 -0.0519
   41Eth    Hcc 2570   1.771   2.451   1.429  1.1013 -1.0574 -1.8296
   41Eth    Hcc 2571   1.746   2.284   1.386  0.1756 -2.1299  2.0736
   41Eth    Hcc 2572   1.797   2.337   1.545 -3.4857  0.8186  3.1170
   42Eth     Ho 2573   0.143   2.546   8.279 -3.3338  0.2854  3.1526
   42Eth     Oh 2574   0.129   2.454   8.265  0.5582  0.0606 -0.2651
   42Eth     Co 2575   0.041   2.429   8.377 -0.2297 -0.3691  0.3882
   42Eth    Hco 2576  -0.049   2.490   8.380 -1.3341 -2.0383  1.4763
   42Eth    Hco 2577   0.094   2.457   8.468 -1.4066  1.6928  0.4756
   42Eth     Ch 2578  -0.007   2.286   8.386 -0.0643  0.2585  0.1339
   42Eth    Hcc 2579  -0.092   2.270   8.452 -1.4145  1.4479 -1.2851
   42Eth    Hcc 2580   0.076   2.222   8.415  0.8985  2.1680  1.6549
   42Eth    Hcc 2581  -0.034   2.240   8.291  0.1335  1.3721 -0.4733
   43Eth     Ho 2582   3.052   2.626  10.114 -2.5767  1.0638 -1.4428
   43Eth     Oh 2583   3.070   2.716  10.132 -0.0836  0.3947 -0.3364
   43Eth     Co 2584   2.991   2.742  10.245  0.4591  0.0424 -0.2691
   43Eth    Hco 2585   3.040   2.705  10.336  0.5957 -1.8838 -1.1081
   43Eth    Hco 2586   2.898   2.685  10.239  0.1585  0.4619  0.4089
   43Eth     Ch 2587   2.955   2.890  10.265  0.7426 -0.3017  0.4048
   43Eth    Hcc 2588   2.892   2.928  10.185  1.7308 -1.8028 -1.1022
   43Eth    Hcc 2589   3.045   2.952  10.269  0.4873  0.0329  1.0812
   43Eth    Hcc 2590   2.896   2.901  10.356 -0.6531  1.6093 -0.6870
   44Eth     Ho 2591   1.555   2.931   2.745  0.3106  1.3715  0.2562
   44Eth     Oh 2592   1.638   2.937   2.701  0.0074  0.7419 -0.4011
   44Eth     Co 2593   1.620   3.026   2.594 -0.0609  0.3908  0.5829
   44Eth    Hco 2594   1.619   3.122   2.646  1.1872 -0.0525  1.4503
   44Eth    Hco 2595   1.525   2.996   2.551 -1.4706  1.1003  3.0811
   44Eth     Ch 2596   1.736   3.034   2.498 -0.3813 -0.2156  0.5446
   44Eth    Hcc 2597   1.715   2.951   2.429  0.4801  0.7064 -0.8502
   44Eth    Hcc 2598   1.836   3.033   2.540 -0.5194  0.2470  0.8821
   44Eth    Hcc 2599   1.735   3.121   2.432 -0.8156 -0.5802  0.0634
   45Eth     Ho 2600   0.439   2.042   6.667 -0.1060 -0.7365  2.3156
   45Eth     Oh 2601   0.527   2.073   6.659 -0.2530 -0.8337 -0.1376
   45Eth     Co 2602   0.568   2.035   6.533 -0.1195 -0.1251  0.0074
   45Eth    Hco 2603   0.624   2.108   6.475 -2.4901 -0.8915 -3.4085
   45Eth    Hco 2604   0.479   2.016   6.473 -1.2591  0.5873  1.4396
   45Eth     Ch 2605   0.631   1.905   6.552 -1.1041  0.3625  0.9742
   45Eth    Hcc 2606   0.626   1.845   6.461 -3.8154 -1.3397  2.1971
   45Eth    Hcc 2607   0.562   1.841   6.607 -1.7751  0.6533  0.4833
   45Eth    Hcc 2608   0.719   1.906   6.616 -1.5724  0.0676  1.6315
   46Eth     Ho 2609   1.043   0.459   1.617  0.4468 -0.4041 -1.1536
   46Eth     Oh 2610   0.970   0.400   1.612  0.4733 -0.5148 -0.2678
   46Eth     Co 2611   1.002   0.267   1.560 -0.1377 -0.2960  0.4553
   46Eth    Hco 2612   1.071   0.221   1.631 -1.1840 -0.1434  1.6028
   46Eth    Hco 2613   1.061   0.261   1.469  0.7054  1.4716  0.8578
   46Eth     Ch 2614   0.874   0.182   1.552  0.3620  0.3335 -0.0656
   46Eth    Hcc 2615   0.797   0.226   1.489 -0.2042  0.1999  0.5249
   46Eth    Hcc 2616   0.837   0.171   1.654  0.1180  0.2104 -0.1675
   46Eth    Hcc 2617   0.906   0.085   1.515 -0.9229 -0.7714  1.6716
   47Eth     Ho 2618   1.662   0.698   1.582 -0.5737 -0.4892 -0.2922
   47Eth     Oh 2619   1.723   0.627   1.576 -0.3307 -0.3456  0.3895
   47Eth     Co 2620   1.746   0.575   1.444 -0.4476 -0.1688 -0.3863
   47Eth    Hco 2621   1.799   0.650   1.384 -1.6230  0.7490 -0.2887
   47Eth    Hco 2622   1.650   0.562   1.393 -0.7585 -0.1082  0.1792
   47Eth     Ch 2623   1.816   0.440   1.459  0.5731  0.3119  0.4981
   47Eth    Hcc 2624   1.753   0.355   1.483  0.7992  0.0406  0.1268
   47Eth    Hcc 2625   1.911   0.436   1.513 -0.4923 -1.1485  2.3313
   47Eth    Hcc 2626   1.850   0.409   1.360  3.8201 -1.7065  2.1537
   48Eth     Ho 2627   2.405   0.896  10.099  0.0818  0.2210 -2.1719
   48Eth     Oh 2628   2.312   0.907  10.111  0.3241 -0.1270  0.3213
   48Eth     Co 2629   2.271   0.955  10.237 -0.0321  0.2080 -0.1724
   48Eth    Hco 2630   2.356   1.014  10.272 -0.2245  0.1967  0.3095
   48Eth    Hco 2631   2.286   0.871  10.305 -0.7309 -0.3817 -0.7291
   48Eth     Ch 2632   2.134   1.015  10.259 -1.0323 -0.2022  0.0566
   48Eth    Hcc 2633   2.123   1.121  10.235  1.2814 -0.0548 -0.4398
   48Eth    Hcc 2634   2.114   1.007  10.366  0.0874 -0.0671  0.2808
   48Eth    Hcc 2635   2.053   0.963  10.208 -0.5219  0.6625 -1.6622
   49Eth     Ho 2636   1.487   0.642  10.122  0.8019  1.2165 -0.1629
   49Eth     Oh 2637   1.401   0.680  10.121  0.2406  0.0038  0.2859
   49Eth     Co 2638   1.350   0.679  10.255  0.0185  0.0833 -0.1864
   49Eth    Hco 2639   1.431   0.694  10.326 -1.3760  0.1104  1.4194
   49Eth    Hco 2640   1.313   0.580  10.281 -2.9820  1.0392 -0.5619
   49Eth     Ch 2641   1.243   0.791  10.279 -0.0648 -0.4791 -0.0583
   49Eth    Hcc 2642   1.224   0.803  10.385 -0.7155 -1.6692 -0.0284
   49Eth    Hcc 2643   1.146   0.768  10.235 -0.7666 -1.4581  1.9473
   49Eth    Hcc 2644   1.275   0.888  10.243  0.7261 -0.5026  0.5807
   50Eth     Ho 2645   0.130   2.556   1.754 -0.6250  1.0291  1.0199
   50Eth     Oh 2646   0.106   2.601   1.675 -0.6206 -0.6002  0.0617
   50Eth     Co 2647   0.212   2.605   1.580 -1.3954 -0.3005  0.2629
   50Eth    Hco 2648   0.262   2.509   1.587  0.5884  0.6320 -0.6963
   50Eth    Hco 2649   0.276   2.689   1.606 -0.2235 -0.6703 -1.3465
   50Eth     Ch 2650   0.144   2.654   1.450  0.6496  0.0386  0.5083
   50Eth    Hcc 2651   0.091   2.749   1.457  1.8845  0.9851 -2.3217
   50Eth    Hcc 2652   0.065   2.586   1.419  0.4319  0.7350 -0.4904
   50Eth    Hcc 2653   0.216   2.661   1.368  1.3112  0.2070  1.1018
   51Eth     Ho 2654   0.975   2.965  10.030 -1.3477 -2.1838 -0.3728
   51Eth     Oh 2655   0.915   2.993  10.096  0.5536  0.3941  0.3352
   51Eth     Co 2656   0.846   2.883  10.145 -0.2729 -0.2919  0.1956
   51Eth    Hco 2657   0.911   2.824  10.208 -0.3635  0.0298  0.5903
   51Eth    Hco 2658   0.831   2.819  10.058 -1.1993  0.5876 -0.3132
   51Eth     Ch 2659   0.710   2.906  10.201 -0.0472  0.5225 -0.7342
   51Eth    Hcc 2660   0.692   2.987  10.271 -3.2313  0.5122 -1.4677
   51Eth    Hcc 2661   0.686   2.809  10.244 -1.3788  1.4156  0.5696
   51Eth    Hcc 2662   0.635   2.916  10.122 -0.8928  4.1783  0.4405
   52Eth     Ho 2663   1.232   2.380   9.607 -1.8632 -1.9487 -1.1761
   52Eth     Oh 2664   1.202   2.452   9.556 -0.0971  0.1852  0.6771
   52Eth     Co 2665   1.266   2.423   9.432 -0.5597  0.3939  0.8315
   52Eth    Hco 2666   1.375   2.432   9.437 -0.6290  0.4267  2.3390
   52Eth    Hco 2667   1.235   2.487   9.350  0.4672 -1.3771 -0.9970
   52Eth     Ch 2668   1.224   2.283   9.371 -0.1907  0.3078 -0.3032
   52Eth    Hcc 2669   1.260   2.273   9.268 -0.5695  1.4392 -0.5511
   52Eth    Hcc 2670   1.117   2.268   9.365 -0.3372 -1.1558  4.4185
   52Eth    Hcc 2671   1.260   2.200   9.431 -3.1305 -0.0732  1.0053
   53Eth     Ho 2672   2.844   2.652   3.923  1.2715 -2.0666 -1.3099
   53Eth     Oh 2673   2.920   2.706   3.914 -0.0726  0.2829  0.6839
   53Eth     Co 2674   2.999   2.665   3.805 -0.1599  0.1837  0.4788
   53Eth    Hco 2675   2.932   2.660   3.719 -0.9571 -1.3248  1.1716
   53Eth    Hco 2676   3.034   2.563   3.822 -2.1416 -1.3392 -3.9284
   53Eth     Ch 2677   3.121   2.762   3.805  0.2043  0.1580  0.3041
   53Eth    Hcc 2678   3.179   2.745   3.897  0.7023 -1.8749 -0.3481
   53Eth    Hcc 2679   3.104   2.869   3.804  1.5592  0.4112  1.8709
   53Eth    Hcc 2680   3.190   2.742   3.723 -1.2801  1.1778 -1.2227
   54Eth     Ho 2681   1.592   1.409   1.510 -0.5411  2.0378 -0.6381
   54Eth     Oh 2682   1.499   1.411   1.524 -0.5007  0.7573 -0.1470
   54Eth     Co 2683   1.426   1.513   1.461  0.4085  0.1383 -0.8463
   54Eth    Hco 2684   1.477   1.551   1.372 -0.5165 -1.9826 -2.3050
   54Eth    Hco 2685   1.416   1.604   1.520  2.3177 -0.8444  1.0539
   54Eth     Ch 2686   1.293   1.462   1.412 -0.4753  0.5080 -0.3581
   54Eth    Hcc 2687   1.305   1.376   1.346  1.3030  0.0220  0.5936
   54Eth    Hcc 2688   1.252   1.549   1.361  0.2325  0.7827 -0.4514
   54Eth    Hcc 2689   1.229   1.437   1.496  0.5865  1.0243  0.6168
   55Eth     Ho 2690   0.586   0.324   3.731 -0.9801  1.1063 -1.6018
   55Eth     Oh 2691   0.535   0.389   3.776 -0.9646 -0.0694  0.1484
   55Eth     Co 2692   0.458   0.329   3.882 -0.1022 -0.2300  0.5089
   55Eth    Hco 2693   0.511   0.333   3.976  3.1077 -0.5660 -1.2313
   55Eth    Hco 2694   0.445   0.225   3.851 -0.7713 -0.4835  1.5960
   55Eth     Ch 2695   0.328   0.404   3.892  0.3360 -0.1080 -0.0578
   55Eth    Hcc 2696   0.299   0.398   3.787  0.2353 -2.1097  0.0669
   55Eth    Hcc 2697   0.372   0.503   3.905  0.5040 -0.1447 -0.3392
   55Eth    Hcc 2698   0.257   0.368   3.966 -2.3108 -0.5634 -2.6821
   56Eth     Ho 2699   2.045   0.354  10.109 -0.4495  0.4836  0.5401
   56Eth     Oh 2700   2.104   0.426  10.117  0.5065 -0.2993  0.6357
   56Eth     Co 2701   2.117   0.429  10.261  0.5304  0.7767  0.0684
   56Eth    Hco 2702   2.162   0.341  10.306 -0.1221  0.2950 -0.2038
   56Eth    Hco 2703   2.023   0.441  10.315  0.5391  2.9109 -0.3417
   56Eth     Ch 2704   2.216   0.550  10.295  0.4364  0.0177 -0.3145
   56Eth    Hcc 2705   2.208   0.590  10.396  1.4778 -1.7880  0.5132
   56Eth    Hcc 2706   2.199   0.634  10.228 -0.6271  1.2542  1.4678
   56Eth    Hcc 2707   2.318   0.517  10.275  0.2239 -0.9465  0.1472
   57Eth     Ho 2708   1.827   3.374   2.534  0.4545  2.0779 -0.3894
   57Eth     Oh 2709   1.913   3.338   2.520 -0.1301  0.6916 -0.4854
   57Eth     Co 2710   1.946   3.372   2.390  0.0085  0.1550  0.2680
   57Eth    Hco 2711   1.950   3.480   2.380 -1.1209  0.1765 -0.0180
   57Eth    Hco 2712   1.861   3.352   2.324  1.0857 -0.4253 -0.9542
   57Eth     Ch 2713   2.072   3.303   2.329  0.2103 -0.1706  0.4087
   57Eth    Hcc 2714   2.058   3.195   2.321 -3.0147  0.2678 -0.6280
   57Eth    Hcc 2715   2.152   3.334   2.396 -1.0365 -1.1706  2.4040
   57Eth    Hcc 2716   2.079   3.343   2.228 -0.4464  1.5717  1.0394
   58Eth     Ho 2717   3.228   2.863  10.286 -0.1865  0.1996 -1.8031
   58Eth     Oh 2718   3.289   2.928  10.256  0.2390  0.6547 -0.0237
   58Eth     Co 2719   3.404   2.863  10.210  0.1569  0.3137  0.6595
   58Eth    Hco 2720   3.368   2.792  10.136  2.9298 -1.0459  0.5736
   58Eth    Hco 2721   3.472   2.815  10.281  2.3120  3.1816  0.6457
   58Eth     Ch 2722   3.480   2.977  10.140  0.0776 -0.7666  0.3833
   58Eth    Hcc 2723   3.570   2.938  10.092  0.5494  0.9833 -0.1965
   58Eth    Hcc 2724   3.518   3.057  10.205 -1.7118  1.1817 -0.9105
   58Eth    Hcc 2725   3.418   3.024  10.064  0.7504  2.3728  1.6842
   59Eth     Ho 2726   0.672   0.291   4.242  0.9677 -0.0867 -0.0909
   59Eth     Oh 2727   0.647   0.243   4.165  0.2705  0.2740 -0.0966
   59Eth     Co 2728   0.750   0.256   4.064 -0.5935  1.1521  0.5621
   59Eth    Hco 2729   0.847   0.281   4.106 -0.4461  1.2399  0.1703
   59Eth    Hco 2730   0.728   0.339   3.997 -0.3793 -0.2466 -1.2506
   59Eth     Ch 2731   0.745   0.148   3.966  0.3026  0.1269  0.6281
   59Eth    Hcc 2732   0.641   0.134   3.936  0.2828  0.8544  0.3499
   59Eth    Hcc 2733   0.789   0.055   4.003 -2.4709 -2.0240 -1.2755
   59Eth    Hcc 2734   0.807   0.172   3.880  0.7696 -5.0456 -0.6923
   60Eth     Ho 2735   1.587   0.438  10.099 -0.8810  0.1037 -0.4270
   60Eth     Oh 2736   1.623   0.524  10.105 -0.2398 -0.2063  0.1468
   60Eth     Co 2737   1.757   0.504  10.147  0.1955  0.8501 -0.2747
   60Eth    Hco 2738   1.812   0.442  10.075  0.3137  1.5037 -0.7536
   60Eth    Hco 2739   1.764   0.465  10.248 -2.1077  1.8506  0.2983
   60Eth     Ch 2740   1.812   0.637  10.150  0.1893  0.2372 -0.1894
   60Eth    Hcc 2741   1.776   0.699  10.232 -0.1624 -0.3168  0.0814
   60Eth    Hcc 2742   1.780   0.691  10.061  0.5898  1.3545  0.3252
   60Eth    Hcc 2743   1.921   0.634  10.144  0.1894 -3.2485  0.5087
   61Eth     Ho 2744   1.177   0.027   9.508 -1.3472  3.7076 -3.1914
   61Eth     Oh 2745   1.205   0.091   9.571 -0.0027 -0.2042  0.4647
   61Eth     Co 2746   1.092   0.114   9.656  0.3613  0.0611  0.4032
   61Eth    Hco 2747   1.066   0.020   9.705 -1.5660  1.1162  1.4729
   61Eth    Hco 2748   1.005   0.143   9.598  1.1375  0.0790 -0.7501
   61Eth     Ch 2749   1.131   0.227   9.756  0.1174 -0.6708 -0.0020
   61Eth    Hcc 2750   1.049   0.256   9.821  0.8599 -2.1902  1.6686
   61Eth    Hcc 2751   1.161   0.317   9.703  0.3908 -0.7347  0.0393
   61Eth    Hcc 2752   1.216   0.198   9.819  0.4880 -0.2572 -0.3087
   62Eth     Ho 2753   1.139   2.967   4.930  0.5804  0.4833  0.2546
   62Eth     Oh 2754   1.065   3.006   4.888  0.7612  0.2131 -0.3240
   62Eth     Co 2755   1.035   3.130   4.953  0.9785 -0.8374 -0.4887
   62Eth    Hco 2756   1.118   3.197   4.933  0.3996  0.4037  1.1317
   62Eth    Hco 2757   1.032   3.117   5.061 -1.2021 -0.4524 -0.4816
   62Eth     Ch 2758   0.899   3.183   4.896 -0.6026 -0.0354  0.1985
   62Eth    Hcc 2759   0.897   3.215   4.792  1.2722  1.9465  0.7202
   62Eth    Hcc 2760   0.847   3.258   4.957 -0.3119  0.1543  0.2156
   62Eth    Hcc 2761   0.836   3.094   4.902 -0.2442 -0.1866  1.8868
   63Eth     Ho 2762   1.783   1.583   2.145  1.1353 -0.0330  0.3319
   63Eth     Oh 2763   1.816   1.588   2.057  0.2932 -0.0994  0.0062
   63Eth     Co 2764   1.773   1.710   1.990 -0.1397  0.3954  0.2901
   63Eth    Hco 2765   1.766   1.792   2.061  0.4794  2.0537 -1.5484
   63Eth    Hco 2766   1.666   1.697   1.971 -0.1915  0.8660  0.2647
   63Eth     Ch 2767   1.847   1.748   1.857  0.2517  0.7748  0.9080
   63Eth    Hcc 2768   1.949   1.783   1.872  0.0055  0.6616  2.9861
   63Eth    Hcc 2769   1.789   1.818   1.796 -2.5759 -2.9295 -0.8671
   63Eth    Hcc 2770   1.858   1.668   1.785  0.4315  0.6961  1.0234
   64Eth     Ho 2771   0.203   2.257   1.504 -0.2097 -1.5970 -1.3571
   64Eth     Oh 2772   0.295   2.235   1.501  0.1635 -0.2068 -0.4199
   64Eth     Co 2773   0.302   2.118   1.438  0.4447 -0.6857  0.0613
   64Eth    Hco 2774   0.256   2.126   1.340  0.2912 -1.2305  0.0904
   64Eth    Hco 2775   0.231   2.050   1.485 -0.4977 -1.5726 -2.5803
   64Eth     Ch 2776   0.445   2.054   1.461  0.2673  0.0271  0.4092
   64Eth    Hcc 2777   0.479   2.079   1.561  1.4929 -0.4406  0.1158
   64Eth    Hcc 2778   0.517   2.087   1.386  0.4834 -0.3336  0.4607
   64Eth    Hcc 2779   0.437   1.949   1.434 -0.7029  0.3199 -0.4935
   65Eth     Ho 2780   1.505   0.435   7.073  2.3123 -0.3302 -2.1243
   65Eth     Oh 2781   1.557   0.383   7.131  0.0400 -0.2870  0.0433
   65Eth     Co 2782   1.513   0.256   7.114 -0.3512 -0.2335  0.0372
   65Eth    Hco 2783   1.507   0.218   7.012 -1.1495  0.4430 -0.1712
   65Eth    Hco 2784   1.413   0.247   7.154 -1.0238 -1.5374 -1.8728
   65Eth     Ch 2785   1.611   0.171   7.195  0.1006  0.0686 -0.1308
   65Eth    Hcc 2786   1.704   0.200   7.146 -0.0091 -1.0007 -0.9812
   65Eth    Hcc 2787   1.596   0.065   7.177 -0.0877  0.5399 -2.8444
   65Eth    Hcc 2788   1.618   0.190   7.303 -2.7689  1.1334 -0.1121
   66Eth     Ho 2789   1.128   1.231   1.740 -0.2878  0.7972  1.5163
   66Eth     Oh 2790   1.081   1.298   1.695 -0.1478 -0.2533 -0.2441
   66Eth     Co 2791   0.965   1.239   1.638 -0.1356 -0.2567  0.4437
   66Eth    Hco 2792   0.896   1.194   1.709  0.1199 -0.9059  0.2875
   66Eth    Hco 2793   1.016   1.166   1.574  0.3323  2.1734 -2.0199
   66Eth     Ch 2794   0.887   1.340   1.550  0.0910 -0.4514  0.4553
   66Eth    Hcc 2795   0.838   1.418   1.608 -3.8676  0.2318 -3.5894
   66Eth    Hcc 2796   0.802   1.282   1.515  1.2549 -1.3100 -0.9958
   66Eth    Hcc 2797   0.937   1.374   1.460 -1.3770 -0.1169 -0.2391
   67Eth     Ho 2798   0.812   0.938   9.989  3.8749  0.0814  0.0258
   67Eth     Oh 2799   0.812   0.909  10.078  0.7840  0.1318  0.1262
   67Eth     Co 2800   0.834   0.769  10.072  0.1964  0.2824  0.3554
   67Eth    Hco 2801   0.936   0.757  10.035 -0.8283  1.7573 -3.1283
   67Eth    Hco 2802   0.771   0.716  10.000 -0.4399 -0.2236  1.2713
   67Eth     Ch 2803   0.822   0.717  10.216  0.5546 -0.9161 -0.7060
   67Eth    Hcc 2804   0.855   0.613  10.217  3.4520 -0.0441 -1.6941
   67Eth    Hcc 2805   0.717   0.720  10.247  0.6844 -1.1538 -0.2362
   67Eth    Hcc 2806   0.880   0.778  10.285 -1.2670 -0.5348  0.5449
   68Eth     Ho 2807   2.918   2.445   1.455  0.4210 -1.8308 -0.0823
   68Eth     Oh 2808   2.848   2.469   1.513  0.4039 -0.1989 -0.7581
   68Eth     Co 2809   2.842   2.606   1.536  0.9535 -0.3533 -0.3331
   68Eth    Hco 2810   2.814   2.659   1.445  1.9394 -0.8049 -0.9176
   68Eth    Hco 2811   2.934   2.644   1.580  0.3867 -0.1337  0.6635
   68Eth     Ch 2812   2.735   2.647   1.629 -0.3481  0.2528 -0.0528
   68Eth    Hcc 2813   2.729   2.588   1.720 -0.4455 -1.9410 -1.4581
   68Eth    Hcc 2814   2.639   2.641   1.579 -0.6116 -2.0488  0.6821
   68Eth    Hcc 2815   2.736   2.750   1.667 -0.7275 -0.2481  1.3674
   69Eth     Ho 2816   1.767   1.211  10.124 -0.4847 -0.9934  4.1582
   69Eth     Oh 2817   1.815   1.289  10.148  0.1092  0.0775 -0.1762
   69Eth     Co 2818   1.846   1.269  10.278  0.1682 -0.3592 -0.0053
   69Eth    Hco 2819   1.914   1.184  10.281 -0.0895 -0.5346  1.3134
   69Eth    Hco 2820   1.751   1.247  10.328 -0.9332 -0.0419 -1.9172
   69Eth     Ch 2821   1.923   1.393  10.336  0.4602  0.1546  0.6270
   69Eth    Hcc 2822   2.016   1.404  10.279 -0.8060 -1.0813 -1.7742
   69Eth    Hcc 2823   1.936   1.392  10.444 -1.9839 -0.8527  0.9341
   69Eth    Hcc 2824   1.858   1.477  10.311  1.3368  0.3238 -1.2103
   70Eth     Ho 2825   0.796   3.228  10.235 -0.2364 -0.2042  1.6043
   70Eth     Oh 2826   0.704   3.246  10.226 -0.0827 -0.1534  0.0058
   70Eth     Co 2827   0.663   3.359  10.298  0.8353  0.1091 -0.2657
   70Eth    Hco 2828   0.712   3.450  10.263  2.5628 -0.3930  0.8310
   70Eth    Hco 2829   0.682   3.354  10.405 -0.9489 -1.7386  0.0003
   70Eth     Ch 2830   0.512   3.379  10.272 -0.3116 -0.3064 -0.6153
   70Eth    Hcc 2831   0.476   3.465  10.328 -1.2751  0.1457 -1.8956
   70Eth    Hcc 2832   0.448   3.293  10.291  0.4542 -0.4430  1.4709
   70Eth    Hcc 2833   0.501   3.418  10.171  3.4195  2.9627  0.1185
   71Eth     Ho 2834   2.355   3.119   2.979  0.6006 -0.2223  0.6683
   71Eth     Oh 2835   2.393   3.046   3.024 -0.4031 -0.9357  0.3821
   71Eth     Co 2836   2.339   2.929   2.970 -0.0968 -0.6361 -0.2636
   71Eth    Hco 2837   2.343   2.935   2.861  1.3442  2.5354 -0.1150
   71Eth    Hco 2838   2.234   2.936   3.001  0.4340  2.9553  1.0124
   71Eth     Ch 2839   2.386   2.791   3.025 -0.0390 -0.1852  0.0519
   71Eth    Hcc 2840   2.491   2.780   2.997 -1.0730  1.7793 -5.1063
   71Eth    Hcc 2841   2.331   2.710   2.977  0.5969 -0.3322 -0.4342
   71Eth    Hcc 2842   2.372   2.778   3.132  1.6373 -1.3758  0.1512
   72Eth     Ho 2843   0.703   2.071   8.437  1.1740  0.6446 -0.7654
   72Eth     Oh 2844   0.635   2.128   8.407 -0.1184 -0.5602 -0.2035
   72Eth     Co 2845   0.604   2.229   8.499 -0.2217  0.2580  0.3206
   72Eth    Hco 2846   0.699   2.260   8.543  0.2834  0.5767 -0.9618
   72Eth    Hco 2847   0.556   2.192   8.589  1.3567 -1.1250  0.6206
   72Eth     Ch 2848   0.528   2.348   8.433 -1.0708  0.2306  0.0380
   72Eth    Hcc 2849   0.561   2.376   8.334  0.5850  0.3566  0.6164
   72Eth    Hcc 2850   0.523   2.435   8.499 -0.9446 -0.1450  0.5470
   72Eth    Hcc 2851   0.424   2.314   8.423 -0.6480 -0.5960 -1.7039
   73Eth     Ho 2852   0.258   0.345   5.652  0.6862 -0.7373  3.6399
   73Eth     Oh 2853   0.280   0.433   5.676  0.0853  0.6397 -0.5891
   73Eth     Co 2854   0.356   0.405   5.792 -0.0377  1.1186 -0.2262
   73Eth    Hco 2855   0.303   0.327   5.848  0.2565  1.1651  0.1212
   73Eth    Hco 2856   0.356   0.494   5.855  0.5393  1.5474 -0.8241
   73Eth     Ch 2857   0.504   0.381   5.743  0.8359  0.1021 -0.5232
   73Eth    Hcc 2858   0.576   0.388   5.824  0.7368  0.0068 -0.4259
   73Eth    Hcc 2859   0.529   0.470   5.685  0.7936 -0.8018 -1.9272
   73Eth    Hcc 2860   0.509   0.292   5.681 -1.8359 -2.0394  2.2119
   74Eth     Ho 2861   1.784   0.622   3.232 -1.3775  2.0620 -1.8916
   74Eth     Oh 2862   1.862   0.672   3.250 -0.3060 -0.2198  0.0098
   74Eth     Co 2863   1.978   0.626   3.175 -0.4098 -0.0912 -0.4528
   74Eth    Hco 2864   1.946   0.629   3.071 -1.6857  2.7630 -0.0474
   74Eth    Hco 2865   1.991   0.519   3.187  0.7474  0.0152 -0.6982
   74Eth     Ch 2866   2.108   0.703   3.203  0.1445 -0.0368  0.5745
   74Eth    Hcc 2867   2.104   0.804   3.164 -3.3768 -0.3769 -0.1286
   74Eth    Hcc 2868   2.199   0.655   3.166 -0.0450  1.4049 -1.8181
   74Eth    Hcc 2869   2.121   0.709   3.311  6.2324 -0.8653  0.0772
   75Eth     Ho 2870   3.144   0.121   9.410 -1.6787 -0.7414  0.3108
   75Eth     Oh 2871   3.097   0.176   9.350 -0.7526 -0.3220 -0.0413
   75Eth     Co 2872   3.188   0.207   9.245  0.8481 -0.5212 -0.3135
   75Eth    Hco 2873   3.195   0.124   9.174 -1.7616 -0.1080 -1.0855
   75Eth    Hco 2874   3.284   0.230   9.292  0.1083  2.0891 -0.0209
   75Eth     Ch 2875   3.132   0.320   9.163 -0.5417  0.3269  0.8619
   75Eth    Hcc 2876   3.201   0.345   9.083 -1.8063 -0.7713 -0.5828
   75Eth    Hcc 2877   3.117   0.404   9.232  0.3885  2.1506 -1.1207
   75Eth    Hcc 2878   3.037   0.311   9.110 -0.7571 -1.0848  1.4568
   76Eth     Ho 2879   0.639   2.959   3.875  2.5768 -1.0202  2.2899
   76Eth     Oh 2880   0.653   2.896   3.806  0.4666  0.4151  0.5130
   76Eth     Co 2881   0.687   2.954   3.681 -0.1620  0.2281 -0.2059
   76Eth    Hco 2882   0.764   3.030   3.694 -0.5439  0.6146 -0.2161
   76Eth    Hco 2883   0.597   3.006   3.649  0.2679  0.9617 -0.2221
   76Eth     Ch 2884   0.728   2.838   3.583 -0.2765 -0.3333 -1.1230
   76Eth    Hcc 2885   0.640   2.774   3.576 -0.5467  0.1679 -2.4466
   76Eth    Hcc 2886   0.814   2.797   3.636 -0.0158 -0.3361 -1.5456
   76Eth    Hcc 2887   0.757   2.882   3.487  3.9763  0.1854  0.2823
   77Eth     Ho 2888   2.623   2.709   9.437  1.4249  0.0379  1.6804
   77Eth     Oh 2889   2.691   2.744   9.382 -0.1784  0.3944 -0.1179
   77Eth     Co 2890   2.681   2.695   9.259  0.4322 -0.5288 -0.4145
   77Eth    Hco 2891   2.601   2.757   9.217  0.3042  0.5503  1.3492
   77Eth    Hco 2892   2.635   2.598   9.277 -1.6014  0.1725 -1.6554
   77Eth     Ch 2893   2.807   2.676   9.180  0.9696 -0.3656  0.7226
   77Eth    Hcc 2894   2.887   2.622   9.231  1.9314 -1.4972 -1.8972
   77Eth    Hcc 2895   2.850   2.767   9.137  0.7292 -0.2900  0.6434
   77Eth    Hcc 2896   2.787   2.616   9.091  2.9400  0.5666 -0.3886
   78Eth     Ho 2897   2.047   1.744  10.140  0.6575 -0.4095 -1.2692
   78Eth     Oh 2898   1.983   1.813  10.143  0.3074 -0.7708  0.3379
   78Eth     Co 2899   1.877   1.759  10.215  0.6166 -0.6340  0.4841
   78Eth    Hco 2900   1.889   1.772  10.323  0.0710  1.4995  0.3082
   78Eth    Hco 2901   1.869   1.653  10.190 -0.3781 -0.2130 -1.0548
   78Eth     Ch 2902   1.736   1.806  10.166 -0.0111 -0.1718 -0.6969
   78Eth    Hcc 2903   1.663   1.744  10.218 -1.1917  0.4601 -1.5907
   78Eth    Hcc 2904   1.722   1.789  10.060 -0.1767 -0.9391 -0.5544
   78Eth    Hcc 2905   1.718   1.909  10.199  2.2557 -0.6270  2.2445
   79Eth     Ho 2906   2.312   2.371   6.007 -0.7146 -0.7973 -0.3240
   79Eth     Oh 2907   2.250   2.417   5.953 -0.0578  0.1656 -0.2669
   79Eth     Co 2908   2.182   2.514   6.029 -0.5589  0.4485 -0.7370
   79Eth    Hco 2909   2.249   2.558   6.103  0.3049 -0.3315 -1.0512
   79Eth    Hco 2910   2.109   2.455   6.084  0.0008  2.6950  2.5825
   79Eth     Ch 2911   2.113   2.617   5.950 -0.3247  0.1883 -0.2212
   79Eth    Hcc 2912   2.050   2.550   5.891 -0.7112  1.2230 -0.9965
   79Eth    Hcc 2913   2.175   2.670   5.878 -1.3405  2.1363  0.3012
   79Eth    Hcc 2914   2.049   2.685   6.007  1.5023  0.3620  1.6387
   80Eth     Ho 2915   0.901   0.700   2.426 -0.2623  0.5071  0.9528
   80Eth     Oh 2916   0.841   0.629   2.442 -0.5434  0.5257  0.0253
   80Eth     Co 2917   0.880   0.571   2.560 -0.6219 -0.2165 -0.3416
   80Eth    Hco 2918   0.886   0.656   2.628 -0.7598 -1.2203  0.9536
   80Eth    Hco 2919   0.984   0.545   2.543 -0.3499  1.4390 -1.1947
   80Eth     Ch 2920   0.795   0.442   2.593  0.0534  0.9066 -0.0192
   80Eth    Hcc 2921   0.843   0.406   2.684  2.1563  2.1503 -0.6094
   80Eth    Hcc 2922   0.822   0.368   2.518  0.9580  0.2076  0.9869
   80Eth    Hcc 2923   0.688   0.459   2.609 -0.4389 -1.3155 -0.7960
   81Eth     Ho 2924   1.479   1.337  10.112  0.9661  1.3695 -0.4448
   81Eth     Oh 2925   1.486   1.352  10.204 -0.2194 -0.0501 -0.1212
   81Eth     Co 2926   1.516   1.484  10.230 -0.1222 -0.0048  0.2774
   81Eth    Hco 2927   1.583   1.519  10.151 -1.2801  0.8469 -0.3514
   81Eth    Hco 2928   1.581   1.490  10.317  2.2075  1.0762 -1.4783
   81Eth     Ch 2929   1.390   1.575  10.234 -0.7256 -0.1044 -0.1505
   81Eth    Hcc 2930   1.326   1.545  10.317  1.5713 -1.8892  1.0056
   81Eth    Hcc 2931   1.336   1.570  10.139 -0.3130  2.4782 -0.5479
   81Eth    Hcc 2932   1.423   1.677  10.248  3.0781 -1.4498  1.2027
   82Eth     Ho 2933   1.164   2.006  10.293  0.6848  0.2273 -1.5565
   82Eth     Oh 2934   1.082   1.984  10.253 -0.0663  0.4010 -0.1511
   82Eth     Co 2935   1.075   1.845  10.268 -0.3976  0.0425 -0.7404
   82Eth    Hco 2936   1.083   1.828  10.376 -0.3445  0.7937 -0.6261
   82Eth    Hco 2937   1.160   1.804  10.213  1.0364  2.2593 -0.2296
   82Eth     Ch 2938   0.944   1.794  10.212 -0.7457  0.4868 -0.5663
   82Eth    Hcc 2939   0.862   1.826  10.276  1.0409 -0.5556  2.3529
   82Eth    Hcc 2940   0.941   1.685  10.211  2.1111  0.3708 -2.7084
   82Eth    Hcc 2941   0.920   1.834  10.114  0.4249  1.6116 -0.4158
   83Eth     Ho 2942   3.043   1.530   6.564  0.8401  1.2911  1.5466
   83Eth     Oh 2943   3.021   1.442   6.590 -0.2629  0.9810 -0.3151
   83Eth     Co 2944   3.085   1.407   6.711 -0.1195 -0.2261 -0.2551
   83Eth    Hco 2945   3.103   1.507   6.751 -0.2894 -0.2901 -0.0167
   83Eth    Hco 2946   3.183   1.366   6.684  0.9707  1.2876  1.2579
   83Eth     Ch 2947   3.004   1.316   6.804 -0.3450 -0.9558 -0.4313
   83Eth    Hcc 2948   3.048   1.315   6.904  0.1975 -2.3479 -0.6738
   83Eth    Hcc 2949   2.991   1.212   6.775  1.0135 -1.3234  0.2110
   83Eth    Hcc 2950   2.904   1.358   6.802  0.2095  0.3964 -0.6853
   84Eth     Ho 2951   0.005   3.192   2.735 -0.1221  0.8883 -0.1525
   84Eth     Oh 2952   0.088   3.181   2.779 -0.3075  0.6548  0.1448
   84Eth     Co 2953   0.082   3.083   2.878 -0.1293 -0.0621 -0.3323
   84Eth    Hco 2954   0.040   2.992   2.835 -0.2619 -0.2301  0.1418
   84Eth    Hco 2955   0.013   3.103   2.960 -0.4172 -2.5884  0.1038
   84Eth     Ch 2956   0.225   3.065   2.918  0.2843  0.1358 -0.2543
   84Eth    Hcc 2957   0.236   2.993   2.999 -1.8698 -0.1490 -0.1846
   84Eth    Hcc 2958   0.253   3.166   2.948 -1.8164  0.4193  0.8215
   84Eth    Hcc 2959   0.290   3.020   2.843 -0.4111  0.5077 -1.0859
   85Eth     Ho 2960   2.626   0.486   7.664 -1.7794 -1.0933 -0.7100
   85Eth     Oh 2961   2.602   0.567   7.623  0.0295 -0.1304  0.0549
   85Eth     Co 2962   2.473   0.554   7.573 -0.2758 -0.0089  0.0215
   85Eth    Hco 2963   2.400   0.522   7.647 -1.4121 -1.8648 -1.8376
   85Eth    Hco 2964   2.473   0.477   7.496 -0.2738 -0.8246  0.8236
   85Eth     Ch 2965   2.428   0.691   7.523 -0.0227  0.0339 -0.0698
   85Eth    Hcc 2966   2.481   0.775   7.569  0.0655  0.4918 -1.0107
   85Eth    Hcc 2967   2.320   0.702   7.537  0.2754  1.1708  1.5093
   85Eth    Hcc 2968   2.440   0.708   7.416  2.4401  2.2282  0.5017
   86Eth     Ho 2969   2.890   1.527   7.350 -2.1565 -0.3206 -0.8080
   86Eth     Oh 2970   2.915   1.448   7.305 -0.5167 -0.2337 -0.0875
   86Eth     Co 2971   3.008   1.397   7.398  0.0553  0.3239  0.3118
   86Eth    Hco 2972   2.951   1.396   7.491 -1.5350 -1.5462 -0.6378
   86Eth    Hco 2973   3.099   1.456   7.396  1.8722 -2.3974 -0.1844
   86Eth     Ch 2974   3.048   1.259   7.359 -0.1010  0.2188 -0.1115
   86Eth    Hcc 2975   3.129   1.225   7.424  0.4661 -1.4066 -1.6197
   86Eth    Hcc 2976   3.084   1.268   7.257  1.0961 -1.1005  0.1796
   86Eth    Hcc 2977   2.964   1.189   7.359 -0.3341  0.4993 -0.2317
   87Eth     Ho 2978   1.142   3.312   1.514  0.1482 -0.2284 -0.1026
   87Eth     Oh 2979   1.084   3.239   1.528 -0.0557 -0.0815 -0.1796
   87Eth     Co 2980   1.136   3.127   1.460 -0.0796  0.1958  0.1381
   87Eth    Hco 2981   1.231   3.098   1.505 -0.3011 -0.9777 -0.1167
   87Eth    Hco 2982   1.144   3.150   1.353 -0.7445 -0.0313  0.0394
   87Eth     Ch 2983   1.044   3.011   1.475  0.1951 -0.2439 -0.5421
   87Eth    Hcc 2984   0.944   3.046   1.451 -0.4464 -1.5920  0.0985
   87Eth    Hcc 2985   1.043   2.963   1.573  1.1410 -0.5569 -0.6777
   87Eth    Hcc 2986   1.072   2.927   1.411 -1.0890 -0.2466 -1.1093
   88Eth     Ho 2987   1.997   0.902   1.691 -1.7054  2.1349 -0.0822
   88Eth     Oh 2988   2.069   0.909   1.632 -0.5561 -0.2985  0.9407
   88Eth     Co 2989   2.068   0.795   1.547  0.3158  0.1108 -0.4634
   88Eth    Hco 2990   1.969   0.751   1.536 -1.1379  2.8879  1.0869
   88Eth    Hco 2991   2.133   0.718   1.590  1.1077  0.9905 -0.0630
   88Eth     Ch 2992   2.114   0.846   1.411 -0.2619 -0.4110  0.1905
   88Eth    Hcc 2993   2.103   0.767   1.337  0.2627 -0.8264  0.5496
   88Eth    Hcc 2994   2.220   0.872   1.420 -0.1895 -0.7939  0.4810
   88Eth    Hcc 2995   2.060   0.936   1.384  0.2032 -0.5430 -1.2245
   89Eth     Ho 2996   2.112   1.503   9.501  0.1001 -0.1528 -0.3911
   89Eth     Oh 2997   2.079   1.419   9.475 -0.2702 -0.1564  0.0970
   89Eth     Co 2998   2.091   1.347   9.596 -0.4669  0.4664 -0.7408
   89Eth    Hco 2999   2.047   1.419   9.665  2.1925  1.9857 -0.5402
   89Eth    Hco 3000   2.194   1.324   9.624 -0.4869 -0.1584 -1.1845
   89Eth     Ch 3001   1.999   1.224   9.586  0.1125 -0.5862  0.4635
   89Eth    Hcc 3002   1.977   1.183   9.685 -1.7637 -0.5698  0.0663
   89Eth    Hcc 3003   2.045   1.140   9.535 -3.0779 -1.1663 -1.5422
   89Eth    Hcc 3004   1.905   1.254   9.540 -1.3209 -0.3677  3.3966
   90Eth     Ho 3005   2.810   1.026  10.149  0.2431 -1.3537 -0.1929
   90Eth     Oh 3006   2.766   0.991  10.224 -0.5635 -0.2025 -0.1010
   90Eth     Co 3007   2.802   1.068  10.333  0.1341  0.1720  0.1400
   90Eth    Hco 3008   2.884   1.135  10.305 -1.5386  2.0542 -0.3655
   90Eth    Hco 3009   2.836   1.004  10.415 -3.1653  0.8231  2.1217
   90Eth     Ch 3010   2.689   1.168  10.350 -0.1801  0.6779 -0.0510
   90Eth    Hcc 3011   2.688   1.237  10.265 -0.2774 -0.3228 -0.8676
   90Eth    Hcc 3012   2.700   1.226  10.442 -0.3384 -0.2926  0.5804
   90Eth    Hcc 3013   2.598   1.113  10.371  0.1520  0.0966 -0.1411
   91Eth     Ho 3014   2.208   0.979   3.585  0.4552  0.2200 -0.2037
   91Eth     Oh 3015   2.200   1.072   3.577 -0.2921  0.1985  0.2065
   91Eth     Co 3016   2.158   1.089   3.443  0.0217 -0.2192  0.2820
   91Eth    Hco 3017   2.055   1.059   3.425 -0.3125  0.9330  0.2452
   91Eth    Hco 3018   2.220   1.030   3.376 -1.8711 -0.5591 -1.2040
   91Eth     Ch 3019   2.187   1.238   3.395  0.1999  0.4339 -0.2978
   91Eth    Hcc 3020   2.147   1.293   3.480  1.2304 -0.0835  0.5399
   91Eth    Hcc 3021   2.137   1.248   3.299 -0.7959  1.2446  0.2971
   91Eth    Hcc 3022   2.294   1.261   3.391 -0.0657  1.7921  0.1660
   92Eth     Ho 3023   0.226   2.399   2.203 -0.3469 -1.5065  0.1660
   92Eth     Oh 3024   0.192   2.364   2.123 -0.1757  0.3149 -0.7344
   92Eth     Co 3025   0.140   2.228   2.145  0.1994 -0.2828 -0.1370
   92Eth    Hco 3026   0.084   2.226   2.238  0.2481 -0.2688 -0.1076
   92Eth    Hco 3027   0.225   2.159   2.146  1.0479  0.7033 -1.7994
   92Eth     Ch 3028   0.047   2.195   2.032  0.0813  0.1191  0.0552
   92Eth    Hcc 3029   0.102   2.184   1.939  1.0245  1.1397  0.4864
   92Eth    Hcc 3030  -0.038   2.263   2.030 -0.0132  0.0091  0.2725
   92Eth    Hcc 3031   0.003   2.098   2.055  1.2823 -0.6353 -0.8287
   93Eth     Ho 3032   0.730   1.051  10.174  0.8384  0.0295  3.8086
   93Eth     Oh 3033   0.669   1.122  10.175  0.0981 -0.4193 -0.5055
   93Eth     Co 3034   0.678   1.186  10.301  0.5382  0.2365 -0.0878
   93Eth    Hco 3035   0.776   1.184  10.348  1.0423 -1.3601 -1.1517
   93Eth    Hco 3036   0.611   1.142  10.374 -0.9226  0.7167 -1.1152
   93Eth     Ch 3037   0.645   1.339  10.281  0.6563 -0.2230 -0.2382
   93Eth    Hcc 3038   0.547   1.383  10.298  0.3033 -1.7487  1.8257
   93Eth    Hcc 3039   0.679   1.373  10.183 -0.1329 -1.3425 -0.8981
   93Eth    Hcc 3040   0.708   1.390  10.354 -0.3887  1.6060 -0.6014
   94Eth     Ho 3041   1.807   1.117   5.499  0.5516 -2.1260 -2.8683
   94Eth     Oh 3042   1.718   1.087   5.507 -0.0341  0.2447  0.1780
   94Eth     Co 3043   1.736   0.975   5.598 -0.4713 -0.0274 -0.8644
   94Eth    Hco 3044   1.819   0.986   5.668  0.5451 -1.5479 -1.8179
   94Eth    Hco 3045   1.772   0.893   5.536 -1.4618  0.6344 -2.3335
   94Eth     Ch 3046   1.611   0.932   5.671  0.4731  0.3670  0.5607
   94Eth    Hcc 3047   1.565   1.024   5.707 -0.7891  0.0161 -0.1520
   94Eth    Hcc 3048   1.611   0.861   5.754  0.0050  0.7989  0.9348
   94Eth    Hcc 3049   1.537   0.899   5.598  0.8217 -0.3370  0.5259
   95Eth     Ho 3050   2.203   2.525   3.879  0.3697  1.8349 -0.7649
   95Eth     Oh 3051   2.109   2.532   3.885  0.1799 -0.8864  0.2176
   95Eth     Co 3052   2.087   2.649   3.956 -0.2046  0.1687 -0.1440
   95Eth    Hco 3053   2.133   2.732   3.904  3.0471 -0.8806  0.9733
   95Eth    Hco 3054   2.138   2.657   4.052 -0.8540 -1.1223  0.3310
   95Eth     Ch 3055   1.937   2.672   3.974  0.0728 -0.4276 -0.2791
   95Eth    Hcc 3056   1.883   2.609   4.045 -0.2783  0.3744  0.1745
   95Eth    Hcc 3057   1.881   2.653   3.882 -1.9299  0.0141  0.8117
   95Eth    Hcc 3058   1.917   2.771   4.016  1.9385 -0.4476  0.6572
   96Eth     Ho 3059   2.485   1.176   1.513  0.7167  0.4361  0.2160
   96Eth     Oh 3060   2.448   1.260   1.490  0.1818  0.1000 -0.1799
   96Eth     Co 3061   2.524   1.355   1.562  0.2141 -0.0408 -0.3876
   96Eth    Hco 3062   2.527   1.352   1.671  4.3081  0.4041 -0.4456
   96Eth    Hco 3063   2.471   1.450   1.555 -0.3139 -0.3781 -1.1765
   96Eth     Ch 3064   2.662   1.360   1.497  0.0480 -0.3772  0.5952
   96Eth    Hcc 3065   2.743   1.424   1.533  0.8638 -1.4276  0.6449
   96Eth    Hcc 3066   2.666   1.368   1.389  0.6669 -0.2694  0.6234
   96Eth    Hcc 3067   2.698   1.259   1.516  1.2676 -0.3412 -1.3993
   97Eth     Ho 3068   0.422   0.059   5.077  1.8113  1.3413  2.6160
   97Eth     Oh 3069   0.353   0.106   5.121 -0.7925  0.1540 -0.0812
   97Eth     Co 3070   0.299   0.205   5.034  0.2339  0.6301 -0.1126
   97Eth    Hco 3071   0.225   0.169   4.963 -1.2106  2.6277  0.3388
   97Eth    Hco 3072   0.376   0.252   4.972 -1.7163 -0.3626 -3.4166
   97Eth     Ch 3073   0.230   0.324   5.104 -0.2274 -0.0640 -0.2650
   97Eth    Hcc 3074   0.152   0.371   5.044 -0.7475 -0.7496 -0.1344
   97Eth    Hcc 3075   0.300   0.403   5.133 -2.0548  2.2404 -1.9558
   97Eth    Hcc 3076   0.179   0.292   5.196  0.9275  1.0845  0.7949
   98Eth     Ho 3077   2.435   0.535   6.958  0.9501  0.4916 -0.6074
   98Eth     Oh 3078   2.470   0.504   7.039  0.2170 -0.1312 -0.5259
   98Eth     Co 3079   2.495   0.617   7.127 -1.0485 -0.8879  0.0987
   98Eth    Hco 3080   2.424   0.611   7.210 -1.9192  1.1063 -0.4594
   98Eth    Hco 3081   2.469   0.712   7.079 -0.3494  0.1943  1.7988
   98Eth     Ch 3082   2.643   0.621   7.171 -0.0179  0.0343 -0.4009
   98Eth    Hcc 3083   2.675   0.723   7.195  2.3616 -0.6441 -0.6509
   98Eth    Hcc 3084   2.698   0.573   7.092 -0.2428 -0.9610  0.0429
   98Eth    Hcc 3085   2.654   0.571   7.267  1.8053  0.8957 -0.1442
   99Eth     Ho 3086   2.073   3.382   1.538  1.8931  3.2035  1.3091
   99Eth     Oh 3087   2.148   3.326   1.540 -0.5803 -0.3155 -0.3083
   99Eth     Co 3088   2.128   3.220   1.449  0.2471 -0.2605 -0.3718
   99Eth    Hco 3089   2.092   3.257   1.353  0.1993  1.6462  0.3585
   99Eth    Hco 3090   2.057   3.150   1.492 -0.2592  0.4644 -0.0072
   99Eth     Ch 3091   2.262   3.150   1.427 -0.1592 -0.4819  0.0564
   99Eth    Hcc 3092   2.264   3.073   1.504  1.3011 -1.4241 -0.8921
   99Eth    Hcc 3093   2.344   3.219   1.448 -1.4617  1.0537  0.2057
   99Eth    Hcc 3094   2.264   3.097   1.331 -3.1834 -1.5727  0.5615
  100Eth     Ho 3095   0.027   0.994   3.468 -1.0031  3.6919 -2.1659
  100Eth     Oh 3096   0.105   1.029   3.507 -0.1788 -0.1539 -0.0485
  100Eth     Co 3097   0.052   1.114   3.613 -0.1212  0.3458  0.3832
  100Eth    Hco 3098   0.008   1.057   3.694 -2.2236 -0.5108 -1.3006
  100Eth    Hco 3099  -0.029   1.173   3.570 -0.0634 -0.4733 -0.8754
  100Eth     Ch 3100   0.158   1.225   3.627 -0.0263 -0.0649  0.3405
  100Eth    Hcc 3101   0.243   1.181   3.679 -0.3988  1.2776  2.1336
  100Eth    Hcc 3102   0.122   1.299   3.698  1.6386  1.1245 -0.0265
  100Eth    Hcc 3103   0.196   1.278   3.540 -0.5208  0.0773  0.2098
  101Eth     Ho 3104   3.031   2.374   4.271  3.7081  0.2733  2.1125
  101Eth     Oh 3105   2.978   2.341   4.342  0.2727  0.0040 -0.4318
  101Eth     Co 3106   2.844   2.351   4.293  0.5668 -0.4910 -0.1410
  101Eth    Hco 3107   2.826   2.429   4.220  2.1035  0.0999  0.0932
  101Eth    Hco 3108   2.787   2.377   4.382 -0.6189  0.5318 -1.1878
  101Eth     Ch 3109   2.786   2.213   4.245  0.6109  0.2253  0.1072
  101Eth    Hcc 3110   2.677   2.215   4.233  0.6114 -2.3582 -0.5915
  101Eth    Hcc 3111   2.781   2.132   4.318  0.8976  0.1029 -0.0132
  101Eth    Hcc 3112   2.832   2.180   4.153  1.5469 -0.0033  0.6545
  102Eth     Ho 3113   0.563   3.155   1.695 -0.6585 -2.0170  1.4721
  102Eth     Oh 3114   0.634   3.206   1.727 -0.7100  0.0325 -1.4766
  102Eth     Co 3115   0.733   3.198   1.628 -0.4315  0.6171 -1.4452
  102Eth    Hco 3116   0.727   3.097   1.587  0.8164  0.1376 -0.5094
  102Eth    Hco 3117   0.828   3.221   1.678 -0.6728 -1.5434  0.0596
  102Eth     Ch 3118   0.702   3.300   1.525  0.4192  0.4488 -0.0949
  102Eth    Hcc 3119   0.683   3.399   1.564  1.1010 -0.7644  3.4762
  102Eth    Hcc 3120   0.615   3.271   1.467 -0.1395 -0.9726  1.4055
  102Eth    Hcc 3121   0.791   3.307   1.462 -0.3276  2.4212 -0.9806
  103Eth     Ho 3122   1.083   0.551   3.897 -3.0172  2.7057  0.3262
  103Eth     Oh 3123   1.132   0.598   3.962  0.3742 -0.4365  0.2128
  103Eth     Co 3124   1.256   0.653   3.919 -0.1271  0.0376  0.5141
  103Eth    Hco 3125   1.232   0.731   3.848 -0.7129  0.3958  1.0982
  103Eth    Hco 3126   1.299   0.581   3.849 -0.3515  1.6005 -1.2502
  103Eth     Ch 3127   1.350   0.691   4.029  0.4148  0.0025 -0.2505
  103Eth    Hcc 3128   1.382   0.608   4.092  0.3593 -1.0005 -1.5234
  103Eth    Hcc 3129   1.315   0.782   4.078  1.0680 -0.0795  0.3736
  103Eth    Hcc 3130   1.440   0.733   3.985  0.5781  1.7194  1.6077
  104Eth     Ho 3131   2.298   1.251   8.791  0.6569 -0.4958 -0.7970
  104Eth     Oh 3132   2.306   1.345   8.791  0.7536 -0.5023  0.0790
  104Eth     Co 3133   2.447   1.376   8.775 -0.6272  0.3018  0.0053
  104Eth    Hco 3134   2.481   1.311   8.695  2.3406  0.0085  1.4504
  104Eth    Hco 3135   2.511   1.341   8.856 -0.3599  2.7743  0.9089
  104Eth     Ch 3136   2.468   1.522   8.736 -0.4590  0.1446  0.6917
  104Eth    Hcc 3137   2.422   1.595   8.802  2.5907  1.2897  1.6241
  104Eth    Hcc 3138   2.431   1.560   8.641 -0.2432  0.5422  0.7601
  104Eth    Hcc 3139   2.576   1.538   8.745 -0.4402  1.2919 -1.3025
  105Eth     Ho 3140   0.381   1.979   7.890 -0.3123 -1.0331 -1.0362
  105Eth     Oh 3141   0.364   2.026   7.810  0.3245  0.5187 -0.2680
  105Eth     Co 3142   0.469   1.986   7.731  0.1050  0.4399  0.6853
  105Eth    Hco 3143   0.444   1.957   7.628 -0.4484  2.8836  0.1092
  105Eth    Hco 3144   0.525   1.902   7.773 -1.4284 -1.6498 -1.2832
  105Eth     Ch 3145   0.566   2.101   7.710  0.6769  0.5048  0.6425
  105Eth    Hcc 3146   0.605   2.121   7.810  0.0386 -0.0741  1.0130
  105Eth    Hcc 3147   0.518   2.190   7.667 -1.8494 -0.0274  2.2196
  105Eth    Hcc 3148   0.648   2.060   7.653  0.8624 -1.1376  2.0596
  106Eth     Ho 3149   2.885   1.214   1.806  0.3204 -0.1151  0.0026
  106Eth     Oh 3150   2.926   1.135   1.778  0.5149  0.0216 -0.0931
  106Eth     Co 3151   2.919   1.043   1.891  1.1109  0.0696 -0.5641
  106Eth    Hco 3152   2.824   0.990   1.892  1.0202  0.1973  1.7102
  106Eth    Hco 3153   2.927   1.108   1.979 -0.5272  0.7504 -0.8922
  106Eth     Ch 3154   3.025   0.941   1.884 -0.2205  1.0506 -0.3308
  106Eth    Hcc 3155   3.029   0.892   1.787  1.2593  2.5101 -1.0287
  106Eth    Hcc 3156   3.011   0.855   1.950  3.0891 -0.6831 -1.7437
  106Eth    Hcc 3157   3.126   0.973   1.909  0.4390 -0.6583 -0.7493
  107Eth     Ho 3158   2.481   1.650   9.976  1.4187  1.6641  1.7540
  107Eth     Oh 3159   2.436   1.605  10.046 -0.0878  0.0826 -0.1528
  107Eth     Co 3160   2.524   1.514  10.116  0.8550 -0.3249  0.4376
  107Eth    Hco 3161   2.619   1.568  10.120  0.7581 -0.1720  0.6955
  107Eth    Hco 3162   2.529   1.423  10.055 -3.0462  0.7842 -1.6859
  107Eth     Ch 3163   2.481   1.506  10.258  0.1824  0.5910 -0.8019
  107Eth    Hcc 3164   2.478   1.609  10.296  0.5766  0.4035 -0.2655
  107Eth    Hcc 3165   2.554   1.445  10.309  1.3088  1.7532 -0.9890
  107Eth    Hcc 3166   2.383   1.464  10.279 -0.1927  1.7079 -0.2953
  108Eth     Ho 3167   1.036   2.092   4.906 -0.7094 -0.9436 -3.1354
  108Eth     Oh 3168   1.049   2.176   4.866 -0.1628  0.5218 -0.0416
  108Eth     Co 3169   1.070   2.259   4.972 -0.7142  0.0927 -0.3840
  108Eth    Hco 3170   1.043   2.193   5.054  1.1909 -1.8554 -1.2764
  108Eth    Hco 3171   0.999   2.340   4.956 -1.1579 -0.3764 -0.8209
  108Eth     Ch 3172   1.211   2.308   5.011 -0.4231  0.0022 -0.0128
  108Eth    Hcc 3173   1.256   2.356   4.924  0.2941 -1.7530 -0.6393
  108Eth    Hcc 3174   1.278   2.230   5.046  2.6628  1.5488 -2.2768
  108Eth    Hcc 3175   1.222   2.384   5.088  1.1264  0.1866 -0.4009
  109Eth     Ho 3176   0.506   2.583   1.795 -1.3999  0.0314 -0.7942
  109Eth     Oh 3177   0.550   2.587   1.712 -0.1848  0.2317 -0.1552
  109Eth     Co 3178   0.673   2.639   1.735  0.3290 -0.4911  0.0576
  109Eth    Hco 3179   0.736   2.581   1.803  1.5206 -0.2811 -0.8686
  109Eth    Hco 3180   0.650   2.733   1.786 -1.8498 -0.7053 -0.4622
  109Eth     Ch 3181   0.752   2.673   1.608 -0.1915 -0.1271  0.3554
  109Eth    Hcc 3182   0.779   2.592   1.539  1.2363  0.7875 -0.1920
  109Eth    Hcc 3183   0.842   2.724   1.642 -1.8629  3.6156 -0.5934
  109Eth    Hcc 3184   0.698   2.748   1.551  0.9051  0.6654  0.3315
  110Eth     Ho 3185   2.147   3.008   3.369 -0.1250  0.8365 -0.3034
  110Eth     Oh 3186   2.187   3.021   3.453 -0.6148 -0.3493  0.1264
  110Eth     Co 3187   2.093   2.992   3.551 -0.3640  0.8308  0.3110
  110Eth    Hco 3188   2.049   2.901   3.512 -3.0248  1.7358  1.1134
  110Eth    Hco 3189   2.009   3.061   3.559  0.1331  1.7421 -1.8118
  110Eth     Ch 3190   2.154   2.954   3.687  0.4205 -0.1990 -0.2343
  110Eth    Hcc 3191   2.193   3.039   3.743 -1.5845  1.9520 -2.0493
  110Eth    Hcc 3192   2.235   2.883   3.668 -0.4313 -1.1774 -0.2545
  110Eth    Hcc 3193   2.088   2.910   3.762  0.9092  1.8008  1.4160
  111Eth     Ho 3194   2.583   2.735   6.479  0.0319 -0.3102 -1.9747
  111Eth     Oh 3195   2.506   2.788   6.487  0.1012 -0.3977 -0.4507
  111Eth     Co 3196   2.456   2.767   6.620  0.5697  0.7381  0.2581
  111Eth    Hco 3197   2.543   2.787   6.682  1.6363 -1.8704 -0.3092
  111Eth    Hco 3198   2.441   2.659   6.631  2.3933  0.3834 -0.5192
  111Eth     Ch 3199   2.337   2.861   6.648  0.6457  0.6668  0.0740
  111Eth    Hcc 3200   2.273   2.855   6.560 -1.5410  0.4129  1.6572
  111Eth    Hcc 3201   2.382   2.959   6.663 -0.7050  1.2447  0.3531
  111Eth    Hcc 3202   2.278   2.828   6.733  1.0941 -2.9579 -0.9327
  112Eth     Ho 3203   0.482   1.161   1.565  0.7811  0.8994  1.0274
  112Eth     Oh 3204   0.424   1.231   1.545  0.3999  0.4606  0.5610
  112Eth     Co 3205   0.322   1.163   1.480  0.0537 -0.1621 -0.5692
  112Eth    Hco 3206   0.299   1.092   1.560  1.0519  0.1414 -0.0137
  112Eth    Hco 3207   0.358   1.106   1.394 -1.2893  0.2556 -1.4329
  112Eth     Ch 3208   0.208   1.252   1.426 -0.3219  0.2247 -0.0615
  112Eth    Hcc 3209   0.117   1.193   1.413 -0.1797  0.5973 -3.0789
  112Eth    Hcc 3210   0.237   1.291   1.329 -2.4412  1.1418 -0.3538
  112Eth    Hcc 3211   0.188   1.337   1.491 -0.9020 -0.9919  1.4005
  113Eth     Ho 3212   0.415   1.541   2.401  0.4577 -0.8387 -1.1336
  113Eth     Oh 3213   0.435   1.464   2.450  0.3921  0.1248  0.4247
  113Eth     Co 3214   0.574   1.458   2.478  0.2482  0.6686 -0.0960
  113Eth    Hco 3215   0.623   1.549   2.441  0.7437  0.6172  0.4249
  113Eth    Hco 3216   0.612   1.367   2.431 -2.6706  0.0955 -1.4335
  113Eth     Ch 3217   0.604   1.442   2.632  0.5227 -0.3332  0.8608
  113Eth    Hcc 3218   0.705   1.406   2.651  0.2595 -1.6105 -0.1563
  113Eth    Hcc 3219   0.534   1.378   2.686 -0.6806  0.2228 -0.0149
  113Eth    Hcc 3220   0.594   1.545   2.667  1.3787 -1.0652  3.3776
  114Eth     Ho 3221   0.402   1.580   7.475  0.1525 -1.9064  0.3700
  114Eth     Oh 3222   0.392   1.557   7.385  0.2775 -0.5211 -0.0153
  114Eth     Co 3223   0.252   1.577   7.346 -0.7175  0.4511 -0.4765
  114Eth    Hco 3224   0.191   1.612   7.430  0.2400 -1.2435  0.9527
  114Eth    Hco 3225   0.203   1.482   7.325  2.4589 -1.5030  0.5921
  114Eth     Ch 3226   0.246   1.680   7.236  0.0411 -0.2417  0.1122
  114Eth    Hcc 3227   0.305   1.770   7.249 -1.8203  0.6924  2.3288
  114Eth    Hcc 3228   0.144   1.718   7.230 -0.7334 -2.0250  1.5634
  114Eth    Hcc 3229   0.273   1.641   7.137  2.1263  2.3026 -0.3797
  115Eth     Ho 3230   1.885   0.674   9.331  0.0777  0.4537 -1.1329
  115Eth     Oh 3231   1.915   0.762   9.347  1.0423 -0.1664  0.5132
  115Eth     Co 3232   1.819   0.821   9.435  0.0023  0.0394  0.0915
  115Eth    Hco 3233   1.804   0.758   9.523 -1.4512 -0.2212 -0.3278
  115Eth    Hco 3234   1.732   0.808   9.371 -0.2797 -1.0849  0.6930
  115Eth     Ch 3235   1.844   0.962   9.462 -0.2173 -1.0731 -0.1077
  115Eth    Hcc 3236   1.858   1.024   9.374 -1.0084 -1.3141 -0.4081
  115Eth    Hcc 3237   1.932   0.966   9.527 -0.2165 -0.8411 -0.1249
  115Eth    Hcc 3238   1.763   1.004   9.522 -0.6690 -0.1271 -1.3434
  116Eth     Ho 3239   1.991   2.534  10.040 -1.5021  0.3441 -0.1870
  116Eth     Oh 3240   1.944   2.465  10.083 -0.3456 -0.0059  0.5429
  116Eth     Co 3241   1.990   2.450  10.216  0.0767  0.1136  0.0583
  116Eth    Hco 3242   1.965   2.529  10.287 -0.3684 -0.2205  0.2792
  116Eth    Hco 3243   2.097   2.430  10.210  0.0056  0.0871 -1.4209
  116Eth     Ch 3244   1.917   2.331  10.279  0.4179 -0.2515 -0.5986
  116Eth    Hcc 3245   1.964   2.235  10.260  0.1203 -0.3012 -1.0920
  116Eth    Hcc 3246   1.814   2.328  10.243 -0.3813 -1.6042  1.6734
  116Eth    Hcc 3247   1.922   2.346  10.387  0.1322  1.5998 -0.8195
  117Eth     Ho 3248   2.849   3.351   3.071 -0.1902 -0.5712 -0.0774
  117Eth     Oh 3249   2.757   3.360   3.087 -0.1010 -0.1004  0.1923
  117Eth     Co 3250   2.699   3.319   2.966  0.1269  0.0681  0.2898
  117Eth    Hco 3251   2.734   3.216   2.954  0.6587  0.2667  0.1028
  117Eth    Hco 3252   2.734   3.372   2.877 -0.3527 -0.8358 -0.4427
  117Eth     Ch 3253   2.550   3.336   2.973 -0.1678  0.7850  0.1508
  117Eth    Hcc 3254   2.534   3.443   2.965 -2.2672  0.4959  0.2443
  117Eth    Hcc 3255   2.514   3.304   3.071  0.6733 -0.6450  0.0206
  117Eth    Hcc 3256   2.491   3.292   2.892 -0.4063 -0.9049  1.2069
  118Eth     Ho 3257   0.733   2.337   1.587  0.1932 -2.8118 -1.0893
  118Eth     Oh 3258   0.815   2.326   1.633  0.0322 -0.2546 -0.1086
  118Eth     Co 3259   0.806   2.198   1.702 -0.0820  0.1196  0.3992
  118Eth    Hco 3260   0.719   2.189   1.767 -0.7965 -0.7103 -0.6583
  118Eth    Hco 3261   0.889   2.180   1.770  0.2066  0.0842  0.0396
  118Eth     Ch 3262   0.791   2.085   1.600 -0.5257 -0.3582  0.1358
  118Eth    Hcc 3263   0.722   2.124   1.526 -0.3867 -2.6812 -1.2722
  118Eth    Hcc 3264   0.736   2.001   1.641 -1.2811 -0.2159 -0.5805
  118Eth    Hcc 3265   0.888   2.058   1.557  0.0275 -0.9826  1.7093
  119Eth     Ho 3266   2.703   3.066   1.855 -2.2261 -3.8320 -0.1506
  119Eth     Oh 3267   2.635   3.115   1.811 -0.1368 -0.6193  0.0095
  119Eth     Co 3268   2.541   3.016   1.799  0.3664 -0.0130 -0.4662
  119Eth    Hco 3269   2.512   2.959   1.887 -2.7303  0.9185 -0.8151
  119Eth    Hco 3270   2.574   2.935   1.735 -1.6613  1.2485 -3.2498
  119Eth     Ch 3271   2.421   3.070   1.721 -0.5112  0.0871  0.2903
  119Eth    Hcc 3272   2.381   3.160   1.767  0.8600 -0.2816  2.2538
  119Eth    Hcc 3273   2.344   2.995   1.705  0.4369 -0.4165 -2.2500
  119Eth    Hcc 3274   2.463   3.092   1.622  1.2189 -0.7695  0.8104
  120Eth     Ho 3275   0.622   0.626   3.022  1.0675  1.8741  1.2531
  120Eth     Oh 3276   0.693   0.622   2.961 -0.0534  0.0043  0.0341
  120Eth     Co 3277   0.795   0.721   2.998 -0.1991  0.7936 -0.1251
  120Eth    Hco 3278   0.818   0.711   3.104 -1.7492  1.2356  0.2659
  120Eth    Hco 3279   0.749   0.819   2.984  0.7872  1.0142 -1.9822
  120Eth     Ch 3280   0.930   0.701   2.925 -0.1941  0.5908 -0.2130
  120Eth    Hcc 3281   0.934   0.754   2.830 -1.9906 -1.1764 -1.2933
  120Eth    Hcc 3282   0.959   0.597   2.911  1.6269  1.0517 -0.0249
  120Eth    Hcc 3283   1.009   0.737   2.992 -0.4617 -1.7229  1.3845
  121Eth     Ho 3284   2.330   2.987  10.097  0.3810 -1.6259  1.1814
  121Eth     Oh 3285   2.407   3.033  10.128 -0.2813  0.1759  0.2420
  121Eth     Co 3286   2.438   2.985  10.253 -0.5168  0.2140  0.3079
  121Eth    Hco 3287   2.442   2.877  10.272  0.1410 -0.0928 -1.4683
  121Eth    Hco 3288   2.364   3.021  10.325  0.9283  0.7544  1.5324
  121Eth     Ch 3289   2.573   3.049  10.301  0.0622 -0.1586 -0.3190
  121Eth    Hcc 3290   2.660   3.002  10.256  1.3458  1.5819  0.2996
  121Eth    Hcc 3291   2.570   3.027  10.407 -0.3684 -1.0661 -0.5147
  121Eth    Hcc 3292   2.567   3.157  10.288  2.5991 -0.1764 -1.9317
  122Eth     Ho 3293   0.349   0.682   1.561  0.7009 -0.2684 -0.0288
  122Eth     Oh 3294   0.329   0.597   1.595  0.7094  0.0530  0.8085
  122Eth     Co 3295   0.441   0.515   1.557 -0.6412 -0.4809  0.3345
  122Eth    Hco 3296   0.525   0.521   1.627  0.7765  1.4348 -1.4740
  122Eth    Hco 3297   0.483   0.557   1.466  0.7778  0.8858  1.5888
  122Eth     Ch 3298   0.404   0.369   1.529  0.2857  0.4133  0.1392
  122Eth    Hcc 3299   0.322   0.348   1.461 -0.6791  0.3420  1.3046
  122Eth    Hcc 3300   0.388   0.300   1.613 -2.9883  0.5233 -0.3322
  122Eth    Hcc 3301   0.484   0.309   1.487 -0.8595 -0.1720 -1.2442
  123Eth     Ho 3302   0.359   0.684   7.114 -0.4441  0.0633 -0.4686
  123Eth     Oh 3303   0.362   0.592   7.094  0.3546 -0.0193  0.0078
  123Eth     Co 3304   0.467   0.560   7.008  0.2449  0.0775 -0.1508
  123Eth    Hco 3305   0.562   0.560   7.062 -0.1494  0.0367  0.5341
  123Eth    Hco 3306   0.482   0.636   6.931  1.3768 -0.7194 -0.7416
  123Eth     Ch 3307   0.431   0.431   6.945 -0.3424 -0.4277  0.4621
  123Eth    Hcc 3308   0.330   0.443   6.907 -0.3759 -2.9530 -0.3519
  123Eth    Hcc 3309   0.438   0.347   7.015  3.6470  0.6098  1.4831
  123Eth    Hcc 3310   0.491   0.401   6.859  1.1965  0.1859  1.2969
  124Eth     Ho 3311   2.915   0.559  10.007 -0.7909 -1.3360  0.4935
  124Eth     Oh 3312   2.986   0.522  10.057  0.2700  0.1190  0.0925
  124Eth     Co 3313   2.965   0.577  10.179 -0.1869  0.2431 -0.2167
  124Eth    Hco 3314   2.857   0.569  10.189 -0.1228 -0.4839 -0.0582
  124Eth    Hco 3315   2.998   0.680  10.190  0.5047  0.4031 -3.2768
  124Eth     Ch 3316   3.035   0.473  10.272 -0.1950 -0.2345  1.2065
  124Eth    Hcc 3317   3.142   0.491  10.284 -0.3157  2.6894 -1.5887
  124Eth    Hcc 3318   3.022   0.372  10.233  1.8216  0.9191 -2.7542
  124Eth    Hcc 3319   2.975   0.463  10.362 -1.9078  1.3520  0.2819
  125Eth     Ho 3320   1.422   0.054   6.028 -2.0450  0.5020 -0.1849
  125Eth     Oh 3321   1.420   0.023   5.939  0.6221 -0.2627 -0.0203
  125Eth     Co 3322   1.533  -0.064   5.926  0.5653 -0.6977 -0.2345
  125Eth    Hco 3323   1.531  -0.117   6.021  0.3902  0.5462  0.4663
  125Eth    Hco 3324   1.626  -0.008   5.918  0.9506 -1.1483  0.9954
  125Eth     Ch 3325   1.510  -0.162   5.804 -0.2342  0.0470 -0.4219
  125Eth    Hcc 3326   1.415  -0.214   5.816  0.9064 -1.3008  3.9475
  125Eth    Hcc 3327   1.582  -0.244   5.801 -0.9214 -0.4907 -3.2793
  125Eth    Hcc 3328   1.521  -0.107   5.711  0.9730  1.9371  0.8163
  126Eth     Ho 3329   2.002   3.262   5.210  3.0172  0.4179 -0.3011
  126Eth     Oh 3330   2.005   3.203   5.283 -0.0257  0.2192 -0.2497
  126Eth     Co 3331   2.112   3.114   5.266  0.3457  0.2353  0.1352
  126Eth    Hco 3332   2.204   3.165   5.237  0.4208  0.1016  0.1392
  126Eth    Hco 3333   2.086   3.052   5.180 -0.2190 -0.5284  0.8605
  126Eth     Ch 3334   2.127   3.021   5.382  0.4143 -0.0317 -0.3876
  126Eth    Hcc 3335   2.226   2.977   5.378 -0.2266 -1.6439  0.9504
  126Eth    Hcc 3336   2.050   2.944   5.390 -1.9288  2.3876  1.6261
  126Eth    Hcc 3337   2.138   3.079   5.473  1.8672 -1.4529  0.3600
  127Eth     Ho 3338   0.421   3.204   5.190 -0.1583 -1.7316 -0.2905
  127Eth     Oh 3339   0.401   3.178   5.278 -0.5852 -0.4358  0.0084
  127Eth     Co 3340   0.467   3.054   5.305 -0.0518  0.1628  0.1586
  127Eth    Hco 3341   0.410   2.978   5.253 -1.5445  1.5886 -0.3546
  127Eth    Hco 3342   0.480   3.025   5.409  0.1080 -0.7314 -0.1050
  127Eth     Ch 3343   0.606   3.049   5.245 -0.2604 -0.4956 -0.2243
  127Eth    Hcc 3344   0.603   3.051   5.136  0.5045  1.5870 -0.2262
  127Eth    Hcc 3345   0.652   2.962   5.292  2.1390  0.0766 -1.4655
  127Eth    Hcc 3346   0.659   3.143   5.260 -0.3748 -0.4387 -0.1746
  128Eth     Ho 3347   1.072   2.183   6.794  0.1274  0.9652  1.0548
  128Eth     Oh 3348   1.142   2.120   6.799 -0.4305  0.2704  0.3148
  128Eth     Co 3349   1.198   2.136   6.926  0.0453 -0.3918  0.7674
  128Eth    Hco 3350   1.126   2.182   6.993 -2.2539 -1.5873 -0.7965
  128Eth    Hco 3351   1.277   2.209   6.910 -0.0645 -0.1379  1.3949
  128Eth     Ch 3352   1.244   2.011   6.986 -1.1297 -0.0143  0.2537
  128Eth    Hcc 3353   1.299   1.955   6.911  0.9611 -0.1505  1.8431
  128Eth    Hcc 3354   1.163   1.949   7.024  0.2566 -0.3759  2.8038
  128Eth    Hcc 3355   1.311   2.034   7.069 -0.6136  0.8476 -0.3921
  129Eth     Ho 3356   1.451   1.671   6.693  0.1843  0.2501  1.6125
  129Eth     Oh 3357   1.374   1.618   6.690  0.1820  0.3357 -0.7806
  129Eth     Co 3358   1.320   1.586   6.811 -0.0606  0.0381  0.1521
  129Eth    Hco 3359   1.283   1.673   6.865 -0.5607 -0.7166  1.0196
  129Eth    Hco 3360   1.395   1.552   6.882 -0.4078  0.2982  0.6475
  129Eth     Ch 3361   1.196   1.492   6.801 -0.4181 -0.2489 -0.1583
  129Eth    Hcc 3362   1.137   1.499   6.709 -1.7228  0.3469  0.7102
  129Eth    Hcc 3363   1.141   1.492   6.895  1.6514 -0.7584  1.0808
  129Eth    Hcc 3364   1.237   1.392   6.785 -2.5832 -1.3356  0.7494
  130Eth     Ho 3365   1.906   2.130   1.618  0.3936 -0.6260 -0.3137
  130Eth     Oh 3366   1.997   2.150   1.619  0.1534  0.4894 -0.5270
  130Eth     Co 3367   2.042   2.117   1.485  0.0189  0.6771  0.0123
  130Eth    Hco 3368   1.976   2.138   1.401 -0.8527  2.7186  1.1843
  130Eth    Hco 3369   2.069   2.012   1.475  1.9535  1.1980 -0.4564
  130Eth     Ch 3370   2.175   2.199   1.452  0.0944 -0.2655 -0.2996
  130Eth    Hcc 3371   2.250   2.160   1.521 -0.7483 -2.0460 -0.3569
  130Eth    Hcc 3372   2.177   2.305   1.474  1.9857 -0.0824 -1.2658
  130Eth    Hcc 3373   2.220   2.177   1.355 -1.7577  1.1291 -1.5012
  131Eth     Ho 3374   2.519   1.233   4.674  0.7273  0.5518  0.1632
  131Eth     Oh 3375   2.466   1.196   4.743  0.6388 -0.4402 -0.4146
  131Eth     Co 3376   2.341   1.263   4.760  1.0422  0.7847 -0.0609
  131Eth    Hco 3377   2.274   1.221   4.685  0.3348  0.5268  0.7030
  131Eth    Hco 3378   2.365   1.365   4.732 -0.1772  1.1802  0.2892
  131Eth     Ch 3379   2.283   1.245   4.904  0.6273  0.1697  0.0706
  131Eth    Hcc 3380   2.184   1.289   4.901  1.5628  2.3194 -0.5696
  131Eth    Hcc 3381   2.343   1.307   4.971  2.3579  0.3844 -1.6290
  131Eth    Hcc 3382   2.283   1.143   4.943 -0.8127  0.0281 -0.2975
  132Eth     Ho 3383   3.198   3.084   1.523 -2.1186  0.7553  1.3923
  132Eth     Oh 3384   3.156   3.000   1.518 -0.4980 -0.0041  0.0797
  132Eth     Co 3385   3.037   3.019   1.456  0.0642  0.5216  0.0162
  132Eth    Hco 3386   3.016   2.921   1.413  2.6926 -0.2076  0.3290
  132Eth    Hco 3387   3.044   3.091   1.374  1.9803  0.8393  0.4254
  132Eth     Ch 3388   2.926   3.044   1.553  0.1301 -0.8298 -0.7120
  132Eth    Hcc 3389   2.916   2.961   1.622  1.4177  0.9315  1.6908
  132Eth    Hcc 3390   2.833   3.067   1.502 -0.1013 -1.9706 -0.8101
  132Eth    Hcc 3391   2.957   3.133   1.608 -2.6210 -0.2112 -0.1103
  133Eth     Ho 3392   1.615   2.944  10.213 -2.5109 -1.5189 -0.8052
  133Eth     Oh 3393   1.653   2.877  10.158  0.9436 -0.1099 -0.2966
  133Eth     Co 3394   1.703   2.785  10.253  0.7143  0.5507  0.1948
  133Eth    Hco 3395   1.647   2.809  10.344  0.7827  1.3980  0.0188
  133Eth    Hco 3396   1.809   2.794  10.275  0.9754 -0.9415 -0.4039
  133Eth     Ch 3397   1.679   2.635  10.225 -0.4669  0.0849  0.0979
  133Eth    Hcc 3398   1.575   2.604  10.213 -0.6756  1.1669 -1.0113
  133Eth    Hcc 3399   1.735   2.574  10.295 -0.9446 -0.7271 -0.2170
  133Eth    Hcc 3400   1.722   2.617  10.127 -2.0324 -0.5951 -0.4814
  134Eth     Ho 3401   2.504   2.981   2.188  2.0007 -0.7318 -1.9286
  134Eth     Oh 3402   2.425   2.989   2.137  0.3266  0.1884  0.6701
  134Eth     Co 3403   2.398   3.123   2.122  0.1939  0.3060 -0.1944
  134Eth    Hco 3404   2.472   3.176   2.061 -1.5113  1.0340 -1.6966
  134Eth    Hco 3405   2.395   3.164   2.223 -0.3416 -2.6362  1.0344
  134Eth     Ch 3406   2.261   3.145   2.076 -0.1811  0.6462  0.9785
  134Eth    Hcc 3407   2.256   3.238   2.021  1.9663 -0.3546 -0.9937
  134Eth    Hcc 3408   2.186   3.145   2.155 -1.9701 -0.3128 -0.6469
  134Eth    Hcc 3409   2.239   3.057   2.015  2.0982 -0.2462  1.3805
  135Eth     Ho 3410   3.202   0.186   1.780  0.5975 -0.3802 -0.3422
  135Eth     Oh 3411   3.204   0.147   1.694 -0.1528 -0.5617 -0.2798
  135Eth     Co 3412   3.270   0.243   1.609 -0.1083  0.0026  0.5821
  135Eth    Hco 3413   3.374   0.261   1.639  0.5139 -0.7894 -1.0464
  135Eth    Hco 3414   3.234   0.345   1.612  1.3135  0.5468 -0.2238
  135Eth     Ch 3415   3.271   0.190   1.465 -0.1073  0.7010 -0.2932
  135Eth    Hcc 3416   3.324   0.095   1.466  0.5534  1.0632  0.2132
  135Eth    Hcc 3417   3.326   0.255   1.397  1.5387  0.1472  0.4782
  135Eth    Hcc 3418   3.169   0.181   1.430 -0.4233  0.3769  0.6903
  136Eth     Ho 3419   1.096   2.132   1.617  0.6906  0.7135 -0.2132
  136Eth     Oh 3420   1.129   2.045   1.628 -0.8941  0.2002  0.6410
  136Eth     Co 3421   1.268   2.077   1.648  0.0872 -0.2559  0.5966
  136Eth    Hco 3422   1.269   2.133   1.742  1.3558  0.8304 -0.0459
  136Eth    Hco 3423   1.301   2.143   1.567  0.2901 -0.8137  0.2257
  136Eth     Ch 3424   1.349   1.951   1.634  0.0666  0.9139  0.3223
  136Eth    Hcc 3425   1.323   1.881   1.554  4.1394  0.7925 -0.9910
  136Eth    Hcc 3426   1.367   1.898   1.728 -4.0017 -2.9844 -0.8856
  136Eth    Hcc 3427   1.443   1.988   1.595  0.3731 -1.5849 -1.4293
  137Eth     Ho 3428   1.102   1.438   5.307  2.1183 -0.5502 -2.4008
  137Eth     Oh 3429   1.081   1.527   5.286  0.0454 -0.3516  0.2693
  137Eth     Co 3430   1.148   1.616   5.373  0.6832 -0.0478 -0.0123
  137Eth    Hco 3431   1.137   1.711   5.321  0.0952 -0.1781 -0.1277
  137Eth    Hco 3432   1.254   1.598   5.388  0.2086 -1.6156  1.6057
  137Eth     Ch 3433   1.076   1.637   5.505  0.3639 -0.2393  0.5249
  137Eth    Hcc 3434   0.974   1.676   5.512 -0.1841 -1.4652 -0.5071
  137Eth    Hcc 3435   1.124   1.698   5.582 -0.8402 -0.6713  1.6356
  137Eth    Hcc 3436   1.068   1.540   5.553 -1.0112 -0.2995  0.1848
  138Eth     Ho 3437   0.844   0.285   9.919  1.5310  0.7716 -0.7469
  138Eth     Oh 3438   0.845   0.203   9.965 -0.3888  0.7916 -0.6483
  138Eth     Co 3439   0.704   0.186   9.984  0.2487 -0.3865 -0.1167
  138Eth    Hco 3440   0.684   0.088  10.027 -0.1201 -0.1257  0.3039
  138Eth    Hco 3441   0.645   0.200   9.893  0.0820 -3.6552 -0.5664
  138Eth     Ch 3442   0.659   0.284  10.100  0.4330 -0.4468 -0.1153
  138Eth    Hcc 3443   0.740   0.314  10.167  1.7313  0.4757 -2.0574
  138Eth    Hcc 3444   0.567   0.253  10.149 -0.7747  0.8895 -1.4971
  138Eth    Hcc 3445   0.624   0.378  10.059 -1.3014 -0.3968  1.4194
  139Eth     Ho 3446   2.924   1.739   1.767 -1.2851 -0.1581  0.6675
  139Eth     Oh 3447   2.886   1.760   1.683 -0.4604 -0.4441  0.2150
  139Eth     Co 3448   2.955   1.684   1.591 -0.2722  0.2142  0.7450
  139Eth    Hco 3449   2.926   1.582   1.615  0.1492  0.1701  1.0630
  139Eth    Hco 3450   3.062   1.687   1.611  0.1700  1.5761 -1.5900
  139Eth     Ch 3451   2.918   1.714   1.444  0.5539  0.4347 -0.3662
  139Eth    Hcc 3452   2.811   1.718   1.428  0.2752  2.0118  1.7934
  139Eth    Hcc 3453   2.958   1.630   1.386 -2.1833  0.0018 -1.6779
  139Eth    Hcc 3454   2.963   1.808   1.411  0.7082  0.9016  1.1693
  140Eth     Ho 3455   0.016   1.333   4.768  1.0918 -1.4489  0.0187
  140Eth     Oh 3456   0.023   1.339   4.674  0.0398  0.4377  0.0298
  140Eth     Co 3457   0.160   1.348   4.634 -0.2576  0.3545 -0.7155
  140Eth    Hco 3458   0.183   1.269   4.563  2.6632  0.9997 -0.5519
  140Eth    Hco 3459   0.229   1.332   4.717  0.3864  4.5055 -0.3679
  140Eth     Ch 3460   0.174   1.482   4.567  0.3525  0.3909 -0.0182
  140Eth    Hcc 3461   0.183   1.567   4.635  2.3512 -1.2019  1.8267
  140Eth    Hcc 3462   0.090   1.510   4.505  0.2399  1.6500  0.6963
  140Eth    Hcc 3463   0.261   1.489   4.502  0.2269 -1.3466 -0.3928
  141Eth     Ho 3464   2.329   1.755   1.835  0.2061 -2.0769  0.2199
  141Eth     Oh 3465   2.389   1.750   1.764  0.0065 -0.1667 -0.1164
  141Eth     Co 3466   2.405   1.884   1.711  0.5335  0.5518 -0.6268
  141Eth    Hco 3467   2.481   1.934   1.771 -0.5585  2.2929 -0.6519
  141Eth    Hco 3468   2.311   1.939   1.720  0.6460  0.6847 -0.2709
  141Eth     Ch 3469   2.462   1.886   1.563 -0.2312 -0.0234  0.4896
  141Eth    Hcc 3470   2.409   1.960   1.505  0.0623 -1.1558 -1.2475
  141Eth    Hcc 3471   2.458   1.792   1.508  0.6018 -1.6148  3.0337
  141Eth    Hcc 3472   2.568   1.910   1.576 -0.0177  0.0973 -1.4372
  142Eth     Ho 3473   0.080   1.282  10.086  1.2906  0.7202  0.4492
  142Eth     Oh 3474   0.071   1.357  10.142  0.0089  0.6118  0.4034
  142Eth     Co 3475  -0.025   1.322  10.250  0.0022  0.1727  0.2137
  142Eth    Hco 3476  -0.016   1.379  10.342  2.6315  0.3917 -0.1327
  142Eth    Hco 3477  -0.004   1.219  10.279 -0.5675  0.6774  2.5100
  142Eth     Ch 3478  -0.154   1.348  10.186  0.1898 -0.3244 -0.1661
  142Eth    Hcc 3479  -0.173   1.450  10.152 -1.6727 -1.4767 -2.7976
  142Eth    Hcc 3480  -0.242   1.335  10.249  0.6505 -0.4320  0.4587
  142Eth    Hcc 3481  -0.179   1.288  10.099  0.2757  0.9251 -1.0676
  143Eth     Ho 3482   2.332   2.762   5.486 -1.4480  2.0904 -0.1783
  143Eth     Oh 3483   2.260   2.712   5.450  0.0087 -0.1520 -0.0922
  143Eth     Co 3484   2.171   2.718   5.556  0.3506  1.2411 -0.2511
  143Eth    Hco 3485   2.104   2.802   5.539 -2.0841 -0.1329  2.1840
  143Eth    Hco 3486   2.228   2.733   5.647  1.0461 -0.2613 -0.4202
  143Eth     Ch 3487   2.088   2.594   5.574  0.4052  0.5094 -0.4500
  143Eth    Hcc 3488   2.023   2.579   5.487 -0.1310  5.2499 -0.9921
  143Eth    Hcc 3489   2.017   2.599   5.656 -0.7799 -0.2308 -1.4171
  143Eth    Hcc 3490   2.140   2.499   5.589  0.0466  0.4308  0.2847
  144Eth     Ho 3491   1.814   2.920   7.641 -1.6069 -1.4112  1.1541
  144Eth     Oh 3492   1.859   2.840   7.621 -0.0405 -0.4079  0.5357
  144Eth     Co 3493   1.774   2.748   7.683  0.2081  0.4952  0.9891
  144Eth    Hco 3494   1.670   2.772   7.660 -0.8000 -1.0243  3.6867
  144Eth    Hco 3495   1.781   2.766   7.790 -1.2417  0.0911  1.1705
  144Eth     Ch 3496   1.824   2.611   7.641  0.9654  0.2600 -0.5689
  144Eth    Hcc 3497   1.927   2.616   7.678 -0.0789  0.0342  2.5289
  144Eth    Hcc 3498   1.829   2.594   7.534  0.5315 -1.9850 -0.2468
  144Eth    Hcc 3499   1.775   2.531   7.696 -1.1293  2.0388  0.2465
  145Eth     Ho 3500   1.679   3.165   7.788  0.1111 -3.8843 -1.0983
  145Eth     Oh 3501   1.760   3.168   7.741  0.6211  0.2547 -0.2078
  145Eth     Co 3502   1.864   3.116   7.839  0.4966 -0.3218  0.1653
  145Eth    Hco 3503   1.853   3.010   7.859 -1.3114 -0.2005 -0.0494
  145Eth    Hco 3504   1.860   3.173   7.932  0.6361 -1.4130  0.8402
  145Eth     Ch 3505   1.999   3.121   7.770  0.8679 -0.2160 -0.5067
  145Eth    Hcc 3506   2.011   3.055   7.685  0.7713 -0.2710 -0.4772
  145Eth    Hcc 3507   2.085   3.096   7.832  0.2060 -1.2791 -0.0129
  145Eth    Hcc 3508   2.022   3.220   7.731 -0.2960  1.1563  2.1539
  146Eth     Ho 3509   2.788   3.340   9.557  0.0645  1.0058  1.3648
  146Eth     Oh 3510   2.764   3.427   9.530 -0.5619  0.4089 -0.0676
  146Eth     Co 3511   2.651   3.401   9.454  0.2814  0.3501  0.7526
  146Eth    Hco 3512   2.579   3.344   9.513  1.1590 -0.7040  0.7958
  146Eth    Hco 3513   2.688   3.331   9.380  0.4655  1.2985 -0.0766
  146Eth     Ch 3514   2.586   3.530   9.397 -0.0520  0.0392  0.4387
  146Eth    Hcc 3515   2.498   3.497   9.342  0.8486  1.0198 -1.6404
  146Eth    Hcc 3516   2.646   3.571   9.316 -1.2703 -0.8685 -0.9449
  146Eth    Hcc 3517   2.558   3.605   9.471  3.1263  1.1887  0.5634
  147Eth     Ho 3518   1.184   0.681   1.620 -0.1982  0.0924  0.4499
  147Eth     Oh 3519   1.201   0.589   1.623  0.0252  0.1110 -0.1209
  147Eth     Co 3520   1.322   0.556   1.555  0.3493 -0.6749 -0.2683
  147Eth    Hco 3521   1.410   0.590   1.610 -0.1518 -2.9152  2.0374
  147Eth    Hco 3522   1.329   0.598   1.455 -3.0215 -1.4029 -0.8719
  147Eth     Ch 3523   1.351   0.412   1.561 -0.3285  0.4347  0.0048
  147Eth    Hcc 3524   1.352   0.382   1.666  0.8613 -0.7798 -0.3461
  147Eth    Hcc 3525   1.448   0.389   1.517 -0.7596  2.3503 -2.0100
  147Eth    Hcc 3526   1.279   0.343   1.517  0.5008  0.0081 -0.6886
  148Eth     Ho 3527   1.437   1.106   9.771 -0.9104  0.8566 -0.1164
  148Eth     Oh 3528   1.486   1.176   9.812 -0.0653  0.1283  0.1281
  148Eth     Co 3529   1.596   1.214   9.734  0.0380  0.0097  0.0736
  148Eth    Hco 3530   1.570   1.221   9.629 -0.4676 -3.6096 -0.0901
  148Eth    Hco 3531   1.668   1.132   9.737  1.3694  1.1320 -0.4607
  148Eth     Ch 3532   1.653   1.353   9.783  0.2268  0.0364  0.1951
  148Eth    Hcc 3533   1.667   1.343   9.890 -0.1811 -1.7167  0.0994
  148Eth    Hcc 3534   1.588   1.437   9.758  1.3936  0.9098  0.0465
  148Eth    Hcc 3535   1.747   1.382   9.736  0.2126  0.2493  0.2956
  149Eth     Ho 3536   0.621   0.668   2.134  2.2579 -0.2576 -0.7395
  149Eth     Oh 3537   0.614   0.747   2.082 -0.6450  0.1186  0.1406
  149Eth     Co 3538   0.751   0.798   2.098  0.9809 -0.2953  0.6017
  149Eth    Hco 3539   0.823   0.741   2.040  0.9220 -0.3408  0.5735
  149Eth    Hco 3540   0.776   0.782   2.203  2.7941  2.5426  0.6625
  149Eth     Ch 3541   0.749   0.941   2.049 -0.1964  0.1097  0.5342
  149Eth    Hcc 3542   0.692   1.005   2.117  3.9480  1.6901  2.6904
  149Eth    Hcc 3543   0.722   0.943   1.944  0.6877  0.6657  0.3173
  149Eth    Hcc 3544   0.851   0.977   2.059  0.6580 -2.0593  0.0588
  150Eth     Ho 3545   1.791   0.544   1.751  0.5346 -0.9095 -1.5720
  150Eth     Oh 3546   1.811   0.488   1.824 -0.3826  0.7141 -0.0095
  150Eth     Co 3547   1.763   0.359   1.786 -0.5156  0.0696  0.1997
  150Eth    Hco 3548   1.830   0.307   1.718  2.0265  2.5101  0.7363
  150Eth    Hco 3549   1.678   0.371   1.718  0.4083  1.8508 -0.6692
  150Eth     Ch 3550   1.722   0.267   1.905 -0.1664  0.4443  0.9400
  150Eth    Hcc 3551   1.661   0.181   1.878  1.1621 -0.8559  2.0089
  150Eth    Hcc 3552   1.651   0.318   1.970 -0.0984  3.3998 -1.1598
  150Eth    Hcc 3553   1.801   0.232   1.971  0.5565  0.0024 -0.1440
  151Eth     Ho 3554   1.207   1.056   9.308 -0.1953 -1.1342 -0.2766
  151Eth     Oh 3555   1.142   1.110   9.267  0.0814 -0.5923 -0.0080
  151Eth     Co 3556   1.142   1.238   9.327  0.0338  0.0902  0.2963
  151Eth    Hco 3557   1.238   1.252   9.376 -0.2368  0.9457  0.5988
  151Eth    Hco 3558   1.072   1.249   9.410  1.4962 -0.1677  1.5872
  151Eth     Ch 3559   1.119   1.339   9.213  0.4188  0.6920 -0.1736
  151Eth    Hcc 3560   1.106   1.438   9.256  2.1511 -0.5468  3.3356
  151Eth    Hcc 3561   1.029   1.314   9.156  0.4169 -0.2041  0.2174
  151Eth    Hcc 3562   1.201   1.347   9.142  1.2033 -0.3801  0.5887
  152Sol     OW 3563   1.175   0.814   4.348  0.0397 -0.4153  0.2311
  152Sol     HW 3564   1.111   0.806   4.277  0.2463  1.6186 -0.2180
  152Sol     HW 3565   1.136   0.878   4.408  1.7221  1.0029 -0.1491
  152Sol     MW 3566   1.166   0.819   4.347 -0.0380 -0.7132 -0.3701
  153Sol     OW 3567   0.994   1.313   9.808 -0.4846 -0.2918  0.1710
  153Sol     HW 3568   0.961   1.223   9.799 -0.6988 -0.3184  1.1589
  153Sol     HW 3569   0.929   1.367   9.763 -1.4123 -0.4412  1.2949
  153Sol     MW 3570   0.985   1.310   9.803 -0.2573 -0.4535 -0.1854
  154Sol     OW 3571   0.092   0.022   7.894 -0.0657 -0.3830  0.2874
  154Sol     HW 3572   0.145   0.015   7.973 -1.0887 -2.4556  0.8258
  154Sol     HW 3573   0.144  -0.022   7.826 -1.0029 -2.2715  0.7781
  154Sol     MW 3574   0.102   0.017   7.895 -0.3231  0.3975 -0.5254
  155Sol     OW 3575   0.906   3.045   1.974  0.1905  0.1160  0.2650
  155Sol     HW 3576   0.953   3.084   1.900  1.3303 -2.1170 -0.2560
  155Sol     HW 3577   0.817   3.032   1.942  0.0970  1.2550  0.0685
  155Sol     MW 3578   0.902   3.047   1.964  0.3287  0.1448 -0.5957
  156Sol     OW 3579   2.440   3.013   6.374  0.3119 -0.0556  0.4566
  156Sol     HW 3580   2.460   2.929   6.416  0.2398  0.5431  1.6940
  156Sol     HW 3581   2.488   3.077   6.426  0.0975  0.7115 -0.2934
  156Sol     MW 3582   2.446   3.011   6.382 -0.1632 -0.3002 -0.0773
  157Sol     OW 3583   1.532   3.083   3.326  0.2412  0.2118 -0.5464
  157Sol     HW 3584   1.454   3.031   3.308 -0.2583  0.3978  0.9573
  157Sol     HW 3585   1.599   3.018   3.349  0.1211  0.1357 -0.4122
  157Sol     MW 3586   1.531   3.072   3.327 -0.2175  0.7281 -0.5828
  158Sol     OW 3587   0.374   1.567   5.171 -0.2319 -0.2286 -0.1995
  158Sol     HW 3588   0.336   1.499   5.226 -0.5738  0.3851  0.3314
  158Sol     HW 3589   0.458   1.587   5.212  0.4447 -1.2134 -1.0741
  158Sol     MW 3590   0.378   1.563   5.179  0.0359 -0.0804 -0.1660
  159Sol     OW 3591   2.474   0.537   9.668  0.2901  0.1974 -0.1119
  159Sol     HW 3592   2.491   0.471   9.736 -0.4499  2.0858  1.9795
  159Sol     HW 3593   2.388   0.513   9.634  0.0941 -0.0405  0.5260
  159Sol     MW 3594   2.468   0.529   9.671 -0.1664  0.3954 -0.4458
  160Sol     OW 3595   1.932   1.386   5.664  0.0686  0.1088 -0.1228
  160Sol     HW 3596   1.995   1.454   5.638  1.1790 -0.5971  0.6704
  160Sol     HW 3597   1.951   1.312   5.606 -0.1038 -0.0695  0.0482
  160Sol     MW 3598   1.939   1.385   5.656  0.0873 -0.3754 -0.4568
  161Sol     OW 3599   2.165   1.408   4.101 -0.4219  0.2838  0.4185
  161Sol     HW 3600   2.149   1.398   4.007 -0.7160 -0.3616  0.5318
  161Sol     HW 3601   2.251   1.449   4.106 -0.6139  0.7634 -0.1413
  161Sol     MW 3602   2.171   1.411   4.093  0.1119 -0.0215  0.1764
  162Sol     OW 3603   0.187   1.306   2.827  0.2286  0.0516 -0.2454
  162Sol     HW 3604   0.194   1.240   2.896 -0.1238 -0.3576 -0.5956
  162Sol     HW 3605   0.136   1.377   2.867  2.4681  1.1051  0.8575
  162Sol     MW 3606   0.183   1.307   2.837  0.0677  0.2731 -0.1765
  163Sol     OW 3607   3.051   2.713   6.320  0.2451 -0.4019  0.6982
  163Sol     HW 3608   3.046   2.655   6.243 -0.9643  0.8920 -0.2135
  163Sol     HW 3609   3.062   2.653   6.394 -0.8724 -1.8012 -0.2412
  163Sol     MW 3610   3.052   2.702   6.319  0.1990 -0.5934 -0.1040
  164Sol     OW 3611   1.041   1.229   4.469  0.6140 -0.3471 -0.4518
  164Sol     HW 3612   0.955   1.194   4.496  0.5721  0.2917  0.2578
  164Sol     HW 3613   1.032   1.242   4.375  0.7234 -2.5134 -0.7933
  164Sol     MW 3614   1.032   1.227   4.463 -0.0589 -0.3667 -0.3570
  165Sol     OW 3615   0.140   2.634   3.030 -0.1055  0.0996  0.7103
  165Sol     HW 3616   0.220   2.639   2.977 -0.5696  1.1929  0.1115
  165Sol     HW 3617   0.150   2.703   3.095 -1.9693  2.4391 -1.3430
  165Sol     MW 3618   0.148   2.641   3.031  0.8070  0.0143  0.3144
  166Sol     OW 3619   2.689   0.715   7.829  0.0309  0.1056 -0.7647
  166Sol     HW 3620   2.672   0.675   7.744  1.6730 -1.9935 -0.1410
  166Sol     HW 3621   2.678   0.644   7.892 -1.7696  1.7570  0.8785
  166Sol     MW 3622   2.686   0.705   7.827  0.3300  0.7553 -0.2869
  167Sol     OW 3623   2.687   3.269   7.024  0.1769  0.0787  0.5967
  167Sol     HW 3624   2.649   3.249   6.938 -0.0617  0.5971  0.5766
  167Sol     HW 3625   2.781   3.255   7.012  0.3538  1.7892 -0.2450
  167Sol     MW 3626   2.692   3.266   7.015 -0.6024 -0.0291 -0.5404
  168Sol     OW 3627   1.251   0.368   4.640  0.1413  0.7962  0.2224
  168Sol     HW 3628   1.221   0.433   4.704  3.4032  1.8191  0.8332
  168Sol     HW 3629   1.248   0.414   4.556 -1.4637  0.3602  0.0209
  168Sol     MW 3630   1.248   0.378   4.638 -0.2609  0.2775  0.3843
  169Sol     OW 3631   1.629   1.991   4.002 -0.4241  0.6616  0.1892
  169Sol     HW 3632   1.703   1.983   4.062  0.7326 -0.3490 -1.3143
  169Sol     HW 3633   1.592   1.903   3.997 -0.5474  0.7515 -0.5392
  169Sol     MW 3634   1.632   1.982   4.007 -0.1605 -0.1379  0.2503
  170Sol     OW 3635   1.759   0.109   3.474 -0.4369 -0.9194 -0.1537
  170Sol     HW 3636   1.764   0.083   3.382  0.8073 -2.5896  0.3586
  170Sol     HW 3637   1.702   0.044   3.514  0.6435 -1.3952  0.6444
  170Sol     MW 3638   1.754   0.101   3.470  0.1599 -0.5304  0.7481
  171Sol     OW 3639   1.266   0.871   1.656  0.8514  0.3758 -0.1188
  171Sol     HW 3640   1.255   0.922   1.576  1.2699 -0.6055 -0.8113
  171Sol     HW 3641   1.359   0.848   1.657  0.9496  0.7908  0.9076
  171Sol     MW 3642   1.273   0.874   1.649 -0.2536 -0.4483  0.0280
  172Sol     OW 3643   2.752   1.885   2.130 -0.0771  0.2098 -0.3825
  172Sol     HW 3644   2.716   1.945   2.195  0.6427 -0.0369  0.2540
  172Sol     HW 3645   2.812   1.940   2.079 -0.3842  0.3231 -0.6259
  172Sol     MW 3646   2.754   1.896   2.131 -0.2160  0.3808  0.2645
  173Sol     OW 3647   1.593   2.164   6.315  0.0710 -0.4686 -0.1008
  173Sol     HW 3648   1.540   2.107   6.370  1.3096 -0.0571  1.5672
  173Sol     HW 3649   1.681   2.128   6.321  0.0937 -0.9283 -2.5347
  173Sol     MW 3650   1.596   2.156   6.320  0.3236 -0.1214  0.2332
  174Sol     OW 3651   0.475   1.446   3.608  0.7895 -0.0442 -0.4591
  174Sol     HW 3652   0.429   1.519   3.568  1.4873  0.3369 -0.5723
  174Sol     HW 3653   0.456   1.371   3.550 -1.2572 -0.3330  0.5451
  174Sol     MW 3654   0.470   1.446   3.599  0.2498  0.0343  0.3385
  175Sol     OW 3655   2.751   2.334   9.801  0.6577 -0.2816 -0.0994
  175Sol     HW 3656   2.731   2.241   9.792 -0.0866 -0.2754  1.3449
  175Sol     HW 3657   2.839   2.336   9.839  0.5617 -0.3967  0.1270
  175Sol     MW 3658   2.757   2.326   9.803 -0.7206  0.3392 -0.2354
  176Sol     OW 3659   1.082   0.509   6.372  0.1481 -0.5240  0.5022
  176Sol     HW 3660   1.155   0.502   6.310  1.3651  1.5214  1.6300
  176Sol     HW 3661   1.004   0.509   6.318  0.9104 -3.8092 -0.6757
  176Sol     MW 3662   1.082   0.509   6.362 -0.1484  0.1483 -0.4242
  177Sol     OW 3663   2.617   2.071   7.551  0.2986  0.2032 -0.0754
  177Sol     HW 3664   2.685   2.136   7.535  0.2159  0.0950 -0.8625
  177Sol     HW 3665   2.621   2.056   7.646 -0.4214  2.1373  0.2844
  177Sol     MW 3666   2.624   2.075   7.558 -0.5545 -0.1179  0.8683
  178Sol     OW 3667   2.940   1.711   3.603  0.1572  0.1594  0.3723
  178Sol     HW 3668   2.970   1.738   3.516 -0.6831  0.0724  0.0542
  178Sol     HW 3669   2.859   1.663   3.587 -0.3919  0.7701  1.2633
  178Sol     MW 3670   2.936   1.709   3.594  0.5202  0.1009 -0.0638
  179Sol     OW 3671   1.224   1.319   2.330  0.1749 -0.2369 -0.1827
  179Sol     HW 3672   1.263   1.307   2.244  0.3053  3.0901 -0.6668
  179Sol     HW 3673   1.132   1.342   2.312 -0.1499 -0.8672  0.6222
  179Sol     MW 3674   1.219   1.320   2.321  0.2406 -0.2547 -0.8729
  180Sol     OW 3675   2.373   0.291   9.156  0.3870 -0.3668 -0.0370
  180Sol     HW 3676   2.386   0.278   9.250 -0.4733 -0.5400  0.0642
  180Sol     HW 3677   2.456   0.264   9.117  0.0342 -2.3202  0.5022
  180Sol     MW 3678   2.382   0.287   9.161  0.1880  0.0942  0.2540
  181Sol     OW 3679   2.996   3.246   5.100 -0.2522 -0.6997  0.0028
  181Sol     HW 3680   2.967   3.337   5.112 -0.1642 -0.6275 -0.3191
  181Sol     HW 3681   2.917   3.194   5.110  0.3525 -0.9466  4.2979
  181Sol     MW 3682   2.987   3.250   5.102 -0.2473  0.0061  0.1125
  182Sol     OW 3683   2.625   3.326   5.955  0.7193  0.0186  0.4614
  182Sol     HW 3684   2.559   3.322   6.024  0.1955  0.8070  0.0166
  182Sol     HW 3685   2.648   3.419   5.950 -0.0188  0.1380 -1.1274
  182Sol     MW 3686   2.621   3.334   5.961 -0.0708 -0.6797 -0.3084
  183Sol     OW 3687   2.880   2.126   7.910 -0.6681  0.1924 -0.1241
  183Sol     HW 3688   2.813   2.184   7.947 -0.3828 -0.1446  0.9487
  183Sol     HW 3689   2.859   2.040   7.947 -0.4522 -0.1812 -0.8635
  183Sol     MW 3690   2.872   2.123   7.917  0.3648 -0.3454  0.2415
  184Sol     OW 3691   2.399   0.447   4.816  0.1685 -0.4247 -0.0271
  184Sol     HW 3692   2.344   0.512   4.775  2.0195  0.7391 -0.7157
  184Sol     HW 3693   2.437   0.398   4.743 -0.4852 -1.6859  0.4587
  184Sol     MW 3694   2.398   0.448   4.806 -0.1017 -0.0824  0.2005
  185Sol     OW 3695   0.298   0.741   5.694  0.5547  0.4596  0.0657
  185Sol     HW 3696   0.282   0.647   5.686  1.1198  0.4585 -1.2921
  185Sol     HW 3697   0.392   0.751   5.679  0.2088  1.4022 -1.6952
  185Sol     MW 3698   0.305   0.733   5.692  0.1171 -0.4049 -0.4139
  186Sol     OW 3699   2.202   2.824   2.204 -0.1359 -0.3675 -0.5200
  186Sol     HW 3700   2.281   2.868   2.173  0.2124  0.0086  0.8294
  186Sol     HW 3701   2.202   2.840   2.299 -2.8303  1.2866 -0.7438
  186Sol     MW 3702   2.209   2.830   2.210 -0.2428  0.2757 -0.3235
  187Sol     OW 3703   1.445   2.759   7.983  0.0120  0.4746  0.1239
  187Sol     HW 3704   1.466   2.853   7.987  0.9785  0.2519  0.4144
  187Sol     HW 3705   1.400   2.741   8.066  3.6616 -0.2101  2.0906
  187Sol     MW 3706   1.443   2.766   7.991  0.7976  0.2839 -0.0992
  188Sol     OW 3707   2.953   0.661   4.439 -0.3083 -0.2071 -0.2650
  188Sol     HW 3708   2.858   0.649   4.441 -0.3714  0.4307  1.6672
  188Sol     HW 3709   2.975   0.695   4.526  1.5499  0.6588 -1.0358
  188Sol     MW 3710   2.946   0.663   4.447  0.5719 -0.0643  0.3294
  189Sol     OW 3711   1.104   2.084   3.512  0.3231  0.1222  0.2777
  189Sol     HW 3712   1.180   2.028   3.527  2.5078  3.2658  1.4863
  189Sol     HW 3713   1.053   2.077   3.592  0.6462 -0.0412  0.4691
  189Sol     MW 3714   1.106   2.078   3.520  0.0808 -0.1205 -0.1070
  190Sol     OW 3715   0.650   2.595   7.136 -0.3675 -0.2259  0.4679
  190Sol     HW 3716   0.674   2.619   7.226  0.9565  2.2041 -0.4847
  190Sol     HW 3717   0.566   2.637   7.121 -0.4061 -0.3108  0.4441
  190Sol     MW 3718   0.645   2.601   7.143 -0.1877  0.5154 -0.4912
  191Sol     OW 3719   0.777   2.049   3.014  0.0502  0.0547 -0.0607
  191Sol     HW 3720   0.863   2.031   3.053 -0.1898  1.8500  1.3653
  191Sol     HW 3721   0.750   2.132   3.053 -1.7360  0.1917 -1.5386
  191Sol     MW 3722   0.782   2.055   3.021 -0.0993  0.1747  0.5001
  192Sol     OW 3723   0.946   1.045   7.482  0.2179 -0.0123  0.3702
  192Sol     HW 3724   0.864   1.021   7.525 -0.2965 -0.1959 -0.6895
  192Sol     HW 3725   0.982   0.962   7.450  1.2056 -0.0279  1.4956
  192Sol     MW 3726   0.942   1.035   7.483  0.2121  0.1354 -0.1227
  193Sol     OW 3727   1.109   1.702   2.553 -0.4216  0.7634 -0.3851
  193Sol     HW 3728   1.158   1.685   2.472  1.2726  1.0258  0.5680
  193Sol     HW 3729   1.165   1.670   2.623 -1.8908  0.5187  0.7131
  193Sol     MW 3730   1.118   1.698   2.552  0.6142 -0.0538  0.1651
  194Sol     OW 3731   2.830   0.580   3.366 -0.3177  0.7448  0.0959
  194Sol     HW 3732   2.772   0.576   3.442  0.2200  1.7251  0.5690
  194Sol     HW 3733   2.834   0.490   3.334 -0.5220  0.3189  1.2447
  194Sol     MW 3734   2.825   0.572   3.370  0.1093  0.1494  0.2519
  195Sol     OW 3735   1.013   0.421   2.195  0.5429 -0.1329  0.2544
  195Sol     HW 3736   0.924   0.395   2.220  1.3937 -1.7059  1.7660
  195Sol     HW 3737   1.025   0.385   2.107 -0.9705  1.7109 -0.7215
  195Sol     MW 3738   1.006   0.415   2.189  0.3928 -0.4517  0.2257
  196Sol     OW 3739   1.716   1.268   3.600  0.4293  0.0829 -0.2557
  196Sol     HW 3740   1.774   1.342   3.617  0.8015  0.4331 -2.8884
  196Sol     HW 3741   1.770   1.191   3.618  1.2481  0.4322 -1.1522
  196Sol     MW 3742   1.726   1.267   3.603 -0.0904 -0.4525 -0.1224
  197Sol     OW 3743   1.882   2.255   1.931 -0.1011  0.1230 -0.2263
  197Sol     HW 3744   1.948   2.188   1.951 -1.8564 -1.0126  1.9719
  197Sol     HW 3745   1.918   2.301   1.856  3.7421  0.2528  1.5494
  197Sol     MW 3746   1.891   2.253   1.926 -0.2370  0.2662 -0.1782
  198Sol     OW 3747   1.890   2.454   8.702 -0.6075  0.2937 -0.1781
  198Sol     HW 3748   1.972   2.437   8.655 -0.4930  0.6831 -0.1197
  198Sol     HW 3749   1.910   2.435   8.793 -1.2232 -1.8393 -0.4703
  198Sol     MW 3750   1.899   2.451   8.706 -0.0163  0.1222 -0.0262
  199Sol     OW 3751   0.889   2.337   9.707 -0.0105 -0.3739 -0.3989
  199Sol     HW 3752   0.820   2.305   9.648 -0.6813  0.4510 -0.0768
  199Sol     HW 3753   0.868   2.298   9.792 -1.1498  1.3381  0.1227
  199Sol     MW 3754   0.881   2.331   9.709  0.1599 -0.6466  0.4968
  200Sol     OW 3755   0.489   1.909   8.064  0.5409  0.6347  0.2029
  200Sol     HW 3756   0.547   1.836   8.044  2.0128  1.5644  0.9536
  200Sol     HW 3757   0.403   1.869   8.079  1.0197 -0.7707 -0.8015
  200Sol     MW 3758   0.486   1.899   8.064 -0.0991 -0.0710  0.0217
  201Sol     OW 3759   1.222   3.404   7.325  0.2872 -0.3543 -0.5032
  201Sol     HW 3760   1.148   3.375   7.271 -0.2269  0.1549 -0.0777
  201Sol     HW 3761   1.266   3.323   7.351 -0.2351 -0.6693 -0.5958
  201Sol     MW 3762   1.219   3.394   7.322 -0.2523  0.0889 -0.1459
  202Sol     OW 3763   2.106   3.023   7.311  0.6818  0.1815 -0.0389
  202Sol     HW 3764   2.094   3.000   7.219 -1.8531  2.2101 -0.2850
  202Sol     HW 3765   2.083   2.944   7.360 -1.0585  0.0352 -1.0647
  202Sol     MW 3766   2.103   3.014   7.308  0.2926  0.6368 -0.3585
  203Sol     OW 3767   2.855   2.694   5.143 -0.2165 -0.2415  0.3363
  203Sol     HW 3768   2.810   2.611   5.160 -0.1249  0.2251  2.9413
  203Sol     HW 3769   2.789   2.761   5.156  0.9101  0.3830  3.0795
  203Sol     MW 3770   2.845   2.693   5.145 -0.6260 -0.1180  0.3044
  204Sol     OW 3771   2.802   1.279   9.416 -0.4177 -0.2183 -0.7875
  204Sol     HW 3772   2.764   1.301   9.331 -3.1998 -2.2736 -0.1593
  204Sol     HW 3773   2.815   1.184   9.413 -0.2606 -0.2710  0.9468
  204Sol     MW 3774   2.800   1.272   9.408 -0.4025  0.5784 -0.5681
  205Sol     OW 3775   1.559   0.667   6.024  0.0536  0.3036 -0.1498
  205Sol     HW 3776   1.549   0.621   6.107 -1.1150  0.1574 -0.3601
  205Sol     HW 3777   1.630   0.729   6.040  0.0707  0.0450  0.8490
  205Sol     MW 3778   1.564   0.668   6.033 -0.0080 -0.0134 -0.0546
  206Sol     OW 3779   0.925   1.515   5.928  0.3587  0.3425 -0.9030
  206Sol     HW 3780   1.003   1.570   5.922  0.8328  0.2249  2.8629
  206Sol     HW 3781   0.854   1.572   5.898  1.2835  1.9979 -0.0429
  206Sol     MW 3782   0.925   1.525   5.925 -0.4176 -0.1300 -0.1877
  207Sol     OW 3783   0.799   0.660   8.268  0.4684 -0.2599 -0.1155
  207Sol     HW 3784   0.875   0.602   8.263 -0.0016 -0.8858 -0.0643
  207Sol     HW 3785   0.727   0.609   8.231 -0.0734  0.0719  0.4610
  207Sol     MW 3786   0.799   0.650   8.264 -0.9244  0.1604  0.8074
  208Sol     OW 3787   2.784   1.944   6.953  0.2608  0.3422  0.6192
  208Sol     HW 3788   2.781   1.980   7.041  0.0748  0.5738  0.5211
  208Sol     HW 3789   2.750   1.855   6.962 -2.9097  1.4299  0.2697
  208Sol     MW 3790   2.780   1.939   6.961  0.0153  0.1420  0.0888
  209Sol     OW 3791   0.922   3.285   7.491 -0.7504 -0.1511  0.1108
  209Sol     HW 3792   0.896   3.377   7.485 -0.1651  0.0329  0.4169
  209Sol     HW 3793   0.938   3.270   7.584  1.3059  0.0320 -0.1955
  209Sol     MW 3794   0.921   3.292   7.499 -0.9172  0.4755  0.0668
  210Sol     OW 3795   2.658   1.567   5.828  0.4983 -0.5595 -0.5011
  210Sol     HW 3796   2.591   1.625   5.866 -1.4954 -0.4932 -3.9188
  210Sol     HW 3797   2.736   1.622   5.821  0.2460  0.0835  1.2954
  210Sol     MW 3798   2.659   1.577   5.831 -0.3185 -0.1820  0.2309
  211Sol     OW 3799   2.100   2.003   5.399 -0.6196  0.3874  0.1610
  211Sol     HW 3800   2.117   2.097   5.388 -1.4771  0.7037  1.3866
  211Sol     HW 3801   2.169   1.960   5.348  0.1727  1.6753  0.1104
  211Sol     MW 3802   2.108   2.008   5.394 -0.4146  0.1184 -0.0114
  212Sol     OW 3803   3.074   2.971   8.614 -0.1330 -0.2934  0.0575
  212Sol     HW 3804   2.986   2.971   8.652  0.2145 -0.9256  0.8790
  212Sol     HW 3805   3.062   3.009   8.527 -1.0384  0.6646  0.5777
  212Sol     MW 3806   3.065   2.974   8.610 -0.0544 -0.6670 -0.4664
  213Sol     OW 3807   0.183   3.111   6.281 -0.2942  0.2716  0.2397
  213Sol     HW 3808   0.236   3.061   6.219 -1.4280 -0.2639 -0.2961
  213Sol     HW 3809   0.101   3.063   6.288 -0.3528  0.5724  1.8189
  213Sol     MW 3810   0.181   3.103   6.276  0.3401  0.7563  0.2308
  214Sol     OW 3811   0.433   0.820   9.889 -0.4150  0.1024 -0.5520
  214Sol     HW 3812   0.497   0.889   9.871 -0.4312  0.4839  0.7997
  214Sol     HW 3813   0.485   0.741   9.900 -0.0535  0.6005  1.5647
  214Sol     MW 3814   0.443   0.819   9.888 -0.5001  0.1167  0.0463
  215Sol     OW 3815   1.998   1.735   6.739 -0.2578 -0.0024 -0.8333
  215Sol     HW 3816   2.012   1.755   6.646 -0.4688 -0.2727 -0.9228
  215Sol     HW 3817   1.907   1.706   6.744 -0.0500 -0.6381 -0.6546
  215Sol     MW 3818   1.991   1.734   6.731  0.0930 -0.3859 -0.2159
  216Sol     OW 3819   1.635   3.326   7.961  0.5877 -0.2930  0.2282
  216Sol     HW 3820   1.584   3.328   8.042  0.9676  1.2907  0.4406
  216Sol     HW 3821   1.720   3.361   7.985  0.6055  0.4970 -0.9221
  216Sol     MW 3822   1.638   3.329   7.970 -0.1746  0.2865  0.3062
  217Sol     OW 3823   0.602   1.551   9.764 -0.0299  0.8665  0.2465
  217Sol     HW 3824   0.627   1.461   9.742 -0.2531  1.2848 -1.8681
  217Sol     HW 3825   0.508   1.553   9.748  0.0846  1.6395 -0.3478
  217Sol     MW 3826   0.596   1.543   9.761  0.3892 -0.8347  0.0900
  218Sol     OW 3827   0.738   2.832   9.035 -0.2104  0.5535 -0.2170
  218Sol     HW 3828   0.662   2.862   9.084 -0.1359  0.2122  0.1108
  218Sol     HW 3829   0.813   2.870   9.080 -0.1849  0.8729 -0.5271
  218Sol     MW 3830   0.738   2.838   9.043  0.3076  0.0231  0.0059
  219Sol     OW 3831   0.898   1.327   4.008 -0.5704  0.2504  0.4706
  219Sol     HW 3832   0.931   1.379   3.935  0.0667  0.7678  1.1116
  219Sol     HW 3833   0.930   1.239   3.992 -1.6368  0.0476 -0.6127
  219Sol     MW 3834   0.904   1.324   4.000 -0.6500 -0.6267 -0.5652
  220Sol     OW 3835   0.320   0.765   3.327  0.0805 -0.2653  0.2642
  220Sol     HW 3836   0.348   0.789   3.415  0.2249  1.9679 -0.3677
  220Sol     HW 3837   0.228   0.792   3.323 -0.1081 -0.9419 -0.0653
  220Sol     MW 3838   0.314   0.769   3.334 -0.2416 -0.3760 -0.4244
  221Sol     OW 3839   1.960   2.037   2.664 -0.3650  0.0687 -0.3982
  221Sol     HW 3840   1.888   2.078   2.617 -0.2901 -0.9411 -1.3991
  221Sol     HW 3841   1.963   2.084   2.748 -2.0544  0.2247 -0.4097
  221Sol     MW 3842   1.954   2.045   2.668 -0.9602 -0.2465  0.3177
  222Sol     OW 3843   0.563   1.841   3.359 -0.1910  0.5935  0.5249
  222Sol     HW 3844   0.540   1.916   3.304  0.5607 -0.1995 -0.9243
  222Sol     HW 3845   0.642   1.868   3.406  0.3859  0.5396 -0.3948
  222Sol     MW 3846   0.568   1.850   3.358 -0.4650 -0.1939  0.0740
  223Sol     OW 3847   2.330   1.989   2.889 -0.0618 -0.5511  0.6134
  223Sol     HW 3848   2.353   1.932   2.962  2.1925  0.2589  0.5983
  223Sol     HW 3849   2.395   1.969   2.822 -0.1326  0.9635  0.0611
  223Sol     MW 3850   2.338   1.982   2.890  0.2674 -0.1521  0.2208
  224Sol     OW 3851   3.088   1.827   2.261 -0.5706 -0.2101  0.0409
  224Sol     HW 3852   3.011   1.779   2.292 -0.5842  1.0653  2.0922
  224Sol     HW 3853   3.081   1.912   2.303  1.2598  0.4013 -0.8489
  224Sol     MW 3854   3.080   1.830   2.267  0.1522  0.1690 -0.2535
  225Sol     OW 3855   2.437   2.236   4.280  0.4189  0.0072 -0.0278
  225Sol     HW 3856   2.401   2.149   4.297 -0.7595  0.0496 -2.1951
  225Sol     HW 3857   2.476   2.229   4.193  0.4931  1.6059 -0.1271
  225Sol     MW 3858   2.438   2.227   4.274 -0.0576 -0.0376 -0.2139
  226Sol     OW 3859   0.203   0.884   8.706  0.0837 -0.3178  0.2846
  226Sol     HW 3860   0.263   0.854   8.637  0.5625  0.8029  0.1920
  226Sol     HW 3861   0.242   0.966   8.737 -2.3017  1.3696 -0.9830
  226Sol     MW 3862   0.212   0.889   8.702 -0.3220 -0.0330 -0.4912
  227Sol     OW 3863   2.874   1.442   8.867 -0.1464 -0.3273 -0.2423
  227Sol     HW 3864   2.875   1.482   8.780  1.1536 -2.2879 -1.1571
  227Sol     HW 3865   2.883   1.516   8.927  0.7367  0.8950 -1.8367
  227Sol     MW 3866   2.875   1.452   8.865 -0.0828  0.1063  0.0634
  228Sol     OW 3867   3.012   1.935   6.611 -0.0625 -0.1948 -0.1222
  228Sol     HW 3868   3.088   1.990   6.624 -0.8019  0.5991  0.8458
  228Sol     HW 3869   2.938   1.985   6.646 -0.8085 -1.5989  0.3779
  228Sol     MW 3870   3.012   1.944   6.615  0.7390 -0.4867  0.0559
  229Sol     OW 3871   1.561   2.622   7.366 -0.2289  0.2913  0.4933
  229Sol     HW 3872   1.627   2.691   7.370 -0.4582  0.5605 -0.3754
  229Sol     HW 3873   1.608   2.547   7.329 -0.1939  0.2341  0.6559
  229Sol     MW 3874   1.571   2.621   7.363  0.2637  0.0486 -0.1908
  230Sol     OW 3875   0.878   0.120   4.349 -0.9971  0.4166 -0.3523
  230Sol     HW 3876   0.878   0.094   4.257  1.0225 -0.0446 -0.2520
  230Sol     HW 3877   0.886   0.038   4.398  2.6167  0.8995  0.0409
  230Sol     MW 3878   0.879   0.111   4.346 -0.5960 -0.5148  0.0332
  231Sol     OW 3879   1.324   3.093   6.263 -0.1984 -0.2135  0.0677
  231Sol     HW 3880   1.413   3.112   6.292  0.1357  1.3914 -1.8861
  231Sol     HW 3881   1.269   3.115   6.337  0.7418  2.4283  0.0253
  231Sol     MW 3882   1.327   3.097   6.272 -0.1302 -0.0870  0.0800
  232Sol     OW 3883   1.710   0.807   6.295  0.1521 -0.6342  0.4814
  232Sol     HW 3884   1.621   0.838   6.276  0.4785  0.1863  0.2986
  232Sol     HW 3885   1.753   0.881   6.337  0.1581 -1.6549  2.3371
  232Sol     MW 3886   1.706   0.816   6.297  0.5349  0.5539 -0.2738
  233Sol     OW 3887   3.133   2.376   4.092  0.1601  0.2080 -0.3470
  233Sol     HW 3888   3.154   2.422   4.011 -1.3208  1.0417 -0.2709
  233Sol     HW 3889   3.219   2.356   4.130  0.8759 -0.2723 -2.1471
  233Sol     MW 3890   3.143   2.379   4.088 -0.3554  0.5533  0.3462
  234Sol     OW 3891   2.297   2.537   9.764  0.1421 -0.5053  0.1699
  234Sol     HW 3892   2.386   2.546   9.729 -0.2545  0.8668 -0.5375
  234Sol     HW 3893   2.278   2.443   9.757  0.4590 -0.4206 -2.4426
  234Sol     MW 3894   2.303   2.529   9.760  0.1289  0.1737  0.2735
  235Sol     OW 3895   1.620   3.301   1.676  0.1914  0.4152  0.0659
  235Sol     HW 3896   1.546   3.245   1.694  0.6142  0.0425  0.6558
  235Sol     HW 3897   1.696   3.243   1.676  0.6047  0.9450  0.4473
  235Sol     MW 3898   1.621   3.291   1.677 -0.1751 -0.3846  0.2826
  236Sol     OW 3899   2.177   0.735   7.188  0.3959  0.4795  0.1931
  236Sol     HW 3900   2.252   0.794   7.181  1.0731 -0.2786  0.8437
  236Sol     HW 3901   2.134   0.761   7.270 -0.4318  1.3319 -0.5021
  236Sol     MW 3902   2.180   0.743   7.195  0.3058 -0.0281 -0.4081
  237Sol     OW 3903   2.019   1.306   8.322 -0.0046  0.2644 -0.5090
  237Sol     HW 3904   2.108   1.294   8.290 -0.1125  1.6551 -1.3945
  237Sol     HW 3905   1.982   1.218   8.325  1.8221 -0.4808  1.1747
  237Sol     MW 3906   2.023   1.297   8.319  0.1449  0.1424  0.3633
  238Sol     OW 3907   2.406   2.781   7.562 -0.1115  0.1091  0.2443
  238Sol     HW 3908   2.491   2.823   7.551  0.0139 -0.0488  0.5998
  238Sol     HW 3909   2.369   2.779   7.474 -0.4387  1.6368  0.3431
  238Sol     MW 3910   2.410   2.785   7.553 -0.1720  0.2423 -0.4644
  239Sol     OW 3911   2.970   0.898   2.353 -0.0186 -0.0666  0.3039
  239Sol     HW 3912   2.905   0.855   2.297 -1.7217  2.1755  0.4944
  239Sol     HW 3913   3.040   0.924   2.293 -1.1533  1.0116 -0.5667
  239Sol     MW 3914   2.971   0.896   2.342  0.4569  0.3828 -0.3499
  240Sol     OW 3915   3.043   0.252   7.701 -0.0344 -0.0031 -0.5243
  240Sol     HW 3916   3.043   0.289   7.789  2.4676  2.2194 -1.3872
  240Sol     HW 3917   2.997   0.316   7.647 -1.8235 -1.4896 -0.8335
  240Sol     MW 3918   3.039   0.261   7.704  0.0119  0.0526  0.3915
  241Sol     OW 3919   2.255   2.474   4.822 -0.7179 -0.7329 -0.6743
  241Sol     HW 3920   2.236   2.406   4.886 -0.1442 -1.0060 -0.7917
  241Sol     HW 3921   2.230   2.435   4.738 -0.8061 -0.6323 -0.6954
  241Sol     MW 3922   2.251   2.465   4.820  0.4847 -0.1751 -0.2227
  242Sol     OW 3923   1.244   1.241   6.472  0.5089  0.7315  0.0223
  242Sol     HW 3924   1.224   1.159   6.426 -1.7637  1.9447 -1.2245
  242Sol     HW 3925   1.239   1.217   6.565 -0.1009 -0.5380 -0.3225
  242Sol     MW 3926   1.242   1.231   6.476 -0.6258  0.4591 -0.2622
  243Sol     OW 3927   1.706   2.367   5.794  0.4750 -0.6584  0.2172
  243Sol     HW 3928   1.745   2.434   5.851 -0.4118 -0.8450  1.0452
  243Sol     HW 3929   1.612   2.383   5.799  0.3143 -1.4299 -0.2643
  243Sol     MW 3930   1.701   2.375   5.799 -0.4691  0.3088 -0.2789
  244Sol     OW 3931   0.708   0.428   1.813  0.3599 -0.0559  0.4683
  244Sol     HW 3932   0.789   0.434   1.763 -0.0321 -1.4648 -0.3775
  244Sol     HW 3933   0.679   0.518   1.824  2.8224  0.5857  2.0953
  244Sol     MW 3934   0.713   0.437   1.810 -0.3950  0.5736 -0.0969
  245Sol     OW 3935   0.657   2.503   3.685 -0.6954  0.5699 -0.0931
  245Sol     HW 3936   0.650   2.419   3.730 -0.5539  0.4675 -0.2575
  245Sol     HW 3937   0.592   2.559   3.727  0.9070  1.1357  1.7046
  245Sol     MW 3938   0.651   2.500   3.693 -0.7805 -0.1413  0.3346
  246Sol     OW 3939   0.270   1.752   8.104  0.2692  0.3158 -0.1783
  246Sol     HW 3940   0.227   1.719   8.025  0.4205 -0.1889 -0.0500
  246Sol     HW 3941   0.230   1.701   8.175  0.3710  0.5387  0.0358
  246Sol     MW 3942   0.263   1.744   8.103 -0.4114  0.1904  0.2393
  247Sol     OW 3943   0.401   0.690   3.089 -0.4472 -0.2261 -0.0452
  247Sol     HW 3944   0.386   0.755   3.020 -1.6927  0.2873  0.6977
  247Sol     HW 3945   0.379   0.736   3.170  2.2167 -0.4223  0.8215
  247Sol     MW 3946   0.398   0.700   3.090 -0.2233 -0.0070 -0.6351
  248Sol     OW 3947   2.219   2.540   4.502 -0.1550 -0.4453 -0.4212
  248Sol     HW 3948   2.285   2.565   4.438 -1.4494 -0.0972 -1.6387
  248Sol     HW 3949   2.140   2.523   4.450 -0.7559 -1.8428  0.8976
  248Sol     MW 3950   2.218   2.541   4.492  0.3298  0.4806 -0.5697
  249Sol     OW 3951   0.666   0.059   7.765 -0.0794  0.6603  0.3067
  249Sol     HW 3952   0.759   0.079   7.779 -0.2645  0.9959  1.0814
  249Sol     HW 3953   0.630   0.138   7.726 -0.3172  1.0201  1.2355
  249Sol     MW 3954   0.671   0.068   7.763 -0.4478  0.2857 -0.3617
  250Sol     OW 3955   1.832   0.337   7.425 -0.2562 -0.2602  0.2302
  250Sol     HW 3956   1.888   0.266   7.458  1.4896  1.4359  1.0156
  250Sol     HW 3957   1.864   0.354   7.336 -0.8644 -0.6390 -0.0654
  250Sol     MW 3958   1.840   0.332   7.420  0.1504 -0.0972 -0.1786
  251Sol     OW 3959   2.412   1.022   8.637 -0.0800 -0.0050 -0.0900
  251Sol     HW 3960   2.507   1.019   8.651 -0.2612 -0.4603  1.0904
  251Sol     HW 3961   2.396   0.957   8.569  0.2923 -0.9876  0.7364
  251Sol     MW 3962   2.419   1.016   8.633 -0.7731 -0.3567 -0.0741
  252Sol     OW 3963   2.496   1.123   9.754 -0.3244 -0.3488 -0.3610
  252Sol     HW 3964   2.509   1.175   9.674  0.1960  1.1266  0.6773
  252Sol     HW 3965   2.402   1.126   9.769 -0.3369  0.0169 -0.4968
  252Sol     MW 3966   2.489   1.128   9.748  0.3842 -0.2756  0.5331
  253Sol     OW 3967   2.377   0.366   1.953  1.1434  0.1523 -0.1504
  253Sol     HW 3968   2.354   0.302   2.021 -0.1716  0.5928 -0.1700
  253Sol     HW 3969   2.407   0.312   1.880 -1.2057 -0.5461 -0.6433
  253Sol     MW 3970   2.377   0.355   1.953 -0.0957  0.2484 -0.2168
  254Sol     OW 3971   2.125   1.830   2.730 -0.3988  0.0931 -0.4307
  254Sol     HW 3972   2.069   1.902   2.698  0.0527  0.6550  0.0362
  254Sol     HW 3973   2.175   1.869   2.802  0.3148 -0.5145 -0.5960
  254Sol     MW 3974   2.124   1.840   2.733 -0.0480  0.4111  0.0772
  255Sol     OW 3975   1.106   1.888   8.756 -0.1578 -0.4367 -0.1009
  255Sol     HW 3976   1.051   1.809   8.763  0.5555 -0.8320  1.1557
  255Sol     HW 3977   1.185   1.866   8.805  0.6133  0.5844 -0.8778
  255Sol     MW 3978   1.108   1.879   8.761  0.0772 -0.4965  0.0885
  256Sol     OW 3979   2.975   2.041   9.330 -0.2988 -0.1980  0.2427
  256Sol     HW 3980   3.037   1.970   9.346 -0.0408 -0.1428 -0.4851
  256Sol     HW 3981   2.899   1.997   9.291  0.5317  0.1237 -1.8149
  256Sol     MW 3982   2.973   2.030   9.328 -0.2003 -0.2031  0.0141
  257Sol     OW 3983   1.095   1.064   4.903 -0.1485 -0.2331 -0.6410
  257Sol     HW 3984   1.169   1.054   4.964  0.5652 -3.0723 -1.8839
  257Sol     HW 3985   1.135   1.086   4.819 -0.9278  0.9393 -0.7142
  257Sol     MW 3986   1.105   1.065   4.901 -0.0852 -0.2392  0.1730
  258Sol     OW 3987   2.691   0.605   4.680  0.3306  0.6019  0.5177
  258Sol     HW 3988   2.627   0.535   4.688 -0.3956  1.2082  0.1298
  258Sol     HW 3989   2.776   0.563   4.694 -0.3273  0.2813  3.9665
  258Sol     MW 3990   2.693   0.595   4.682  0.5330 -0.8263 -0.1848
  259Sol     OW 3991   1.975   3.070   8.472 -0.1001  0.0929  0.6067
  259Sol     HW 3992   1.985   3.048   8.379 -0.7337 -1.5789  0.9185
  259Sol     HW 3993   2.057   3.113   8.495  1.9345 -3.3685  0.3261
  259Sol     MW 3994   1.983   3.072   8.465  0.9683  0.0446  0.2832
  260Sol     OW 3995   1.440   3.343   9.236 -0.0427 -0.2399 -0.2965
  260Sol     HW 3996   1.405   3.312   9.152 -2.0178 -0.7482  0.6826
  260Sol     HW 3997   1.423   3.271   9.296 -1.7973  1.4678  1.3025
  260Sol     MW 3998   1.435   3.334   9.233 -0.3241 -0.2057  0.1861
  261Sol     OW 3999   2.645   3.297   8.213  0.5442 -0.0494 -0.2218
  261Sol     HW 4000   2.648   3.347   8.295  1.8095  1.9512 -1.4512
  261Sol     HW 4001   2.595   3.353   8.153  0.6358 -0.9804 -1.1789
  261Sol     MW 4002   2.641   3.307   8.215 -0.5082 -0.1153  0.1034
  262Sol     OW 4003   1.104   2.819   8.650  0.1791  0.2451 -0.3192
  262Sol     HW 4004   1.141   2.906   8.638  0.3839  0.4463  1.5852
  262Sol     HW 4005   1.179   2.760   8.642  0.1791  0.3129 -0.7985
  262Sol     MW 4006   1.114   2.821   8.648  0.4436 -0.0627 -0.1901
  263Sol     OW 4007   0.173   2.040   3.484 -0.2526  0.6073 -0.4418
  263Sol     HW 4008   0.132   2.126   3.498 -1.3124  0.1708 -0.8186
  263Sol     HW 4009   0.189   2.037   3.390  0.3640  0.6366 -0.3430
  263Sol     MW 4010   0.171   2.048   3.477  0.5323  0.1106  0.1006
  264Sol     OW 4011   3.220   2.311   1.576 -0.1110  0.2866 -0.2603
  264Sol     HW 4012   3.269   2.389   1.603  0.0897  0.2936 -0.6455
  264Sol     HW 4013   3.139   2.316   1.626  0.4437  0.0710  0.6702
  264Sol     MW 4014   3.217   2.319   1.583  0.4137  0.0831  0.1050
  265Sol     OW 4015   0.725   1.474   9.079 -0.0330 -0.0782  0.2691
  265Sol     HW 4016   0.808   1.516   9.058 -0.0657 -0.6805 -1.1605
  265Sol     HW 4017   0.722   1.473   9.175  1.1253  0.8739  0.3275
  265Sol     MW 4018   0.732   1.477   9.086 -0.4364 -0.2032 -0.1583
  266Sol     OW 4019   3.081   3.061   5.330 -0.2218  0.8002 -0.0529
  266Sol     HW 4020   3.096   3.137   5.386  0.1091  1.8924 -1.5630
  266Sol     HW 4021   3.084   3.097   5.241  0.5722 -1.0971 -0.8134
  266Sol     MW 4022   3.083   3.071   5.327  0.0402 -0.2320 -0.2060
  267Sol     OW 4023   2.149   1.790   6.972 -0.0093  0.9859  0.2160
  267Sol     HW 4024   2.095   1.786   6.892 -0.3083  0.3760  0.4415
  267Sol     HW 4025   2.127   1.874   7.011 -1.9810  0.1123  1.0989
  267Sol     MW 4026   2.142   1.797   6.968 -0.1294  0.0457 -0.2043
  268Sol     OW 4027   1.613   0.316   6.135  0.2662 -0.0780 -0.4844
  268Sol     HW 4028   1.622   0.348   6.046  0.0721 -0.9644 -0.8320
  268Sol     HW 4029   1.695   0.342   6.178  0.1023  0.8812 -0.7415
  268Sol     MW 4030   1.621   0.321   6.131  0.0615  0.1623  0.7208
  269Sol     OW 4031   1.794   1.748   9.632  0.4893  0.0783 -0.7514
  269Sol     HW 4032   1.822   1.839   9.625 -2.8382  1.3952  2.0116
  269Sol     HW 4033   1.833   1.717   9.714 -1.0630  0.0590 -0.0055
  269Sol     MW 4034   1.800   1.753   9.638 -0.6508 -0.3887  0.0449
  270Sol     OW 4035   1.271   1.153   3.489 -0.1858 -0.5287 -0.3663
  270Sol     HW 4036   1.323   1.228   3.518  0.9028 -0.9099 -1.2818
  270Sol     HW 4037   1.325   1.111   3.422 -1.8015 -0.7599 -1.5712
  270Sol     MW 4038   1.281   1.156   3.485 -0.1289 -0.1222 -0.1709
  271Sol     OW 4039   2.184   0.538   8.114 -0.5307  0.2977 -0.2304
  271Sol     HW 4040   2.165   0.451   8.149  0.1330 -0.1813 -1.0405
  271Sol     HW 4041   2.197   0.593   8.191 -1.3875 -0.2173  0.2951
  271Sol     MW 4042   2.183   0.535   8.124  0.4212  0.3001  0.3717
  272Sol     OW 4043   3.155   0.229   4.422  0.0892 -0.2698  0.1250
  272Sol     HW 4044   3.235   0.185   4.393  0.0865 -1.4989  1.8750
  272Sol     HW 4045   3.171   0.322   4.403  0.0069 -0.9826 -3.8001
  272Sol     MW 4046   3.164   0.233   4.418  0.1351 -0.5064  0.5446
  273Sol     OW 4047   1.412   0.258   7.943 -0.1521  0.2335 -0.1019
  273Sol     HW 4048   1.463   0.248   8.023 -0.5752  0.4832  0.1974
  273Sol     HW 4049   1.477   0.270   7.874  0.2772 -1.4752 -0.0162
  273Sol     MW 4050   1.422   0.258   7.944 -0.2018  0.4361 -0.0381
  274Sol     OW 4051   0.815   1.197   2.258  0.0442  0.3134  0.3500
  274Sol     HW 4052   0.831   1.135   2.330  0.6470  0.9547  0.7652
  274Sol     HW 4053   0.719   1.202   2.252 -0.0136 -0.7653  0.2193
  274Sol     MW 4054   0.808   1.192   2.264  0.5129 -0.2292  0.1596
  275Sol     OW 4055   2.202   1.041   7.482 -0.1122  0.0705 -0.0017
  275Sol     HW 4056   2.187   1.129   7.447  0.6349  0.8635  1.6143
  275Sol     HW 4057   2.289   1.045   7.521  0.3691 -1.7050 -0.8625
  275Sol     MW 4058   2.208   1.049   7.483  0.2575  0.1795  0.4992
  276Sol     OW 4059   1.270   1.958   5.412 -0.3252 -0.1977 -0.4019
  276Sol     HW 4060   1.312   2.040   5.440 -0.0827  0.1205 -1.6898
  276Sol     HW 4061   1.338   1.910   5.366 -0.7418 -0.7132 -0.4846
  276Sol     MW 4062   1.280   1.961   5.411 -0.2329 -0.3011 -0.0347
  277Sol     OW 4063   0.767   0.001   9.592 -0.4056 -0.0533 -0.4317
  277Sol     HW 4064   0.755   0.087   9.632 -2.5304 -0.6462  0.2990
  277Sol     HW 4065   0.830   0.016   9.522 -0.1557  1.9406  0.1694
  277Sol     MW 4066   0.771   0.010   9.589  0.2148 -0.3842  0.5911
  278Sol     OW 4067   1.812   2.020   5.486  0.1048 -0.3124  0.1874
  278Sol     HW 4068   1.825   1.982   5.573 -0.6303 -0.4926  0.2219
  278Sol     HW 4069   1.891   1.997   5.437  0.2751 -0.6860  0.6387
  278Sol     MW 4070   1.820   2.015   5.489 -0.0678  0.6512  0.0423
  279Sol     OW 4071   0.723   0.849   7.968  0.1081  0.4953 -0.2233
  279Sol     HW 4072   0.713   0.842   8.062 -0.5994  0.5817 -0.2889
  279Sol     HW 4073   0.686   0.768   7.933  0.9745  0.1631 -0.3920
  279Sol     MW 4074   0.719   0.841   7.973 -0.3351  0.1017  0.1726
  280Sol     OW 4075   1.460   0.281   4.256  1.0128 -0.0568 -0.3345
  280Sol     HW 4076   1.385   0.324   4.214 -0.1341 -0.2668  1.4633
  280Sol     HW 4077   1.486   0.213   4.194 -1.1927 -0.9132 -0.3892
  280Sol     MW 4078   1.456   0.279   4.247  0.0993  0.2474  0.2173
  281Sol     OW 4079   0.217   2.828   8.840 -0.1293 -0.3574  0.2583
  281Sol     HW 4080   0.179   2.807   8.755 -1.1523  0.7145  0.4458
  281Sol     HW 4081   0.205   2.748   8.891 -1.4658 -0.2800  0.0767
  281Sol     MW 4082   0.212   2.819   8.837 -0.1958 -0.0394 -0.6073
  282Sol     OW 4083   1.598   1.126  10.066 -0.1179 -0.4867 -0.1030
  282Sol     HW 4084   1.529   1.116  10.132  0.0053  0.8412  0.2263
  282Sol     HW 4085   1.550   1.135   9.984 -0.3109 -0.7126 -0.0157
  282Sol     MW 4086   1.587   1.126  10.065  0.2936 -0.4419 -0.9645
  283Sol     OW 4087   2.896   0.030   7.955 -0.0484 -0.3172  0.3007
  283Sol     HW 4088   2.896  -0.030   7.880  0.3661 -0.3784  0.3482
  283Sol     HW 4089   2.804   0.040   7.978 -0.3897  1.6453 -1.7643
  283Sol     MW 4090   2.888   0.025   7.951 -0.0314 -0.6030 -0.0992
  284Sol     OW 4091   0.846   2.907   6.825  0.0593  0.6551 -0.1786
  284Sol     HW 4092   0.830   2.853   6.902 -0.0218 -0.2886 -0.8356
  284Sol     HW 4093   0.849   2.997   6.857  0.9356  0.1887  1.0449
  284Sol     MW 4094   0.844   2.910   6.834  0.0075  0.3546  0.5198
  285Sol     OW 4095   1.534   2.880   5.636 -0.2947 -0.1994  0.0721
  285Sol     HW 4096   1.523   2.786   5.649 -0.3793 -0.0585  1.0870
  285Sol     HW 4097   1.629   2.892   5.623 -0.4704 -0.6016 -1.6578
  285Sol     MW 4098   1.542   2.873   5.636  0.0186 -0.4283  0.0070
  286Sol     OW 4099   1.234   1.293   9.642  0.3390  0.0132  0.6424
  286Sol     HW 4100   1.251   1.200   9.656  0.4536  0.0187  0.5376
  286Sol     HW 4101   1.152   1.310   9.690  0.4496 -0.0847  0.8689
  286Sol     MW 4102   1.228   1.287   9.648 -0.0297  0.6912  0.0794
  287Sol     OW 4103   1.095   3.054   8.997  0.8220  0.5168  0.2345
  287Sol     HW 4104   1.174   2.999   8.993  0.6951  0.4280 -1.4851
  287Sol     HW 4105   1.122   3.137   8.957  0.5068  1.0742  1.1754
  287Sol     MW 4106   1.104   3.056   8.993  0.3018  0.1531  0.0528
  288Sol     OW 4107   2.853   2.387   3.529  0.2242 -0.6131  0.5497
  288Sol     HW 4108   2.807   2.398   3.446 -2.0490  0.5055  1.9391
  288Sol     HW 4109   2.933   2.438   3.519  0.1904 -0.8643 -1.1215
  288Sol     MW 4110   2.856   2.392   3.521  0.1288 -0.5595  0.1622
  289Sol     OW 4111   1.258   2.620   3.279 -0.0770 -0.3605  0.7968
  289Sol     HW 4112   1.281   2.535   3.317 -0.1863 -0.7000  0.1145
  289Sol     HW 4113   1.276   2.610   3.186 -1.4661 -0.1130  0.4880
  289Sol     MW 4114   1.262   2.611   3.274  0.2641  0.8521 -0.1303
  290Sol     OW 4115   3.071   2.260   8.053 -0.2197 -0.3119 -0.0196
  290Sol     HW 4116   2.999   2.211   8.013  0.4422  0.5916 -2.3998
  290Sol     HW 4117   3.129   2.193   8.089 -0.0008 -1.2440 -2.0631
  290Sol     MW 4118   3.070   2.249   8.053 -0.1934  0.2499  0.6723
  291Sol     OW 4119   0.963   2.663   2.097 -0.5056  0.7075 -0.6047
  291Sol     HW 4120   1.027   2.709   2.044 -1.2622  0.1707 -2.0093
  291Sol     HW 4121   0.976   2.570   2.076  0.0583  0.3780  1.1276
  291Sol     MW 4122   0.970   2.659   2.091  0.3377  0.0040 -0.0595
  292Sol     OW 4123   1.753   2.301   9.665  0.2609  0.0688 -0.2820
  292Sol     HW 4124   1.777   2.208   9.662  0.5076  0.1660 -1.3841
  292Sol     HW 4125   1.827   2.346   9.626 -0.8740  0.5259 -1.9652
  292Sol     MW 4126   1.762   2.296   9.661 -0.5101  0.0296  0.1570
  293Sol     OW 4127   2.268   3.300   8.244 -0.1346 -0.0898 -0.6993
  293Sol     HW 4128   2.264   3.286   8.339 -0.4307 -1.4780 -0.8998
  293Sol     HW 4129   2.267   3.211   8.208  2.3011  0.3487 -1.9121
  293Sol     MW 4130   2.268   3.291   8.250 -0.2197 -0.2908  0.0449
  294Sol     OW 4131   0.417   2.653   5.483 -0.0372  0.0750  0.0950
  294Sol     HW 4132   0.406   2.559   5.469  0.0943  0.1168 -0.3156
  294Sol     HW 4133   0.330   2.684   5.506 -0.1863 -0.0697 -0.2584
  294Sol     MW 4134   0.409   2.647   5.483 -0.2094 -0.0084 -0.4708
  295Sol     OW 4135   1.742   1.354   1.895  0.1062 -0.6103  0.5852
  295Sol     HW 4136   1.658   1.340   1.940  0.9746  0.1862  2.5043
  295Sol     HW 4137   1.773   1.439   1.928  0.7199  0.0590 -1.6388
  295Sol     MW 4138   1.737   1.360   1.902  0.4145  0.2940 -0.3661
  296Sol     OW 4139   2.934   2.736   9.534 -0.1013  0.0832 -0.4180
  296Sol     HW 4140   2.956   2.827   9.554  1.8028 -0.1509 -1.3950
  296Sol     HW 4141   2.868   2.742   9.465 -1.7291  0.7468  1.1476
  296Sol     MW 4142   2.930   2.745   9.530 -0.3161 -0.1306  0.0303
  297Sol     OW 4143   0.280   2.214   8.148 -0.3876 -0.0144 -0.2088
  297Sol     HW 4144   0.211   2.259   8.197 -1.4358  1.2321 -2.7040
  297Sol     HW 4145   0.324   2.160   8.212 -5.2330 -2.7641  1.0651
  297Sol     MW 4146   0.277   2.213   8.158 -0.2976  0.1573  0.0598
  298Sol     OW 4147   0.462   2.157   3.880 -0.1505  0.2086 -0.0252
  298Sol     HW 4148   0.410   2.084   3.848  0.0465  0.7716 -1.7210
  298Sol     HW 4149   0.493   2.130   3.966 -0.0244 -1.7314 -0.6692
  298Sol     MW 4150   0.460   2.148   3.885  0.0540 -0.7377 -0.0923
  299Sol     OW 4151   3.036   0.697   8.690 -0.3908  0.3979 -0.0081
  299Sol     HW 4152   3.073   0.687   8.602  1.4019 -2.6506  1.0479
  299Sol     HW 4153   3.112   0.702   8.748 -1.5920 -0.3060  1.6469
  299Sol     MW 4154   3.046   0.697   8.687 -0.4744  0.5995  0.1307
  300Sol     OW 4155   2.282   0.789   4.060  0.2496  0.0890  0.1768
  300Sol     HW 4156   2.264   0.867   4.007  1.4195 -0.1375 -0.5757
  300Sol     HW 4157   2.368   0.805   4.098 -0.6996  0.3619  2.2584
  300Sol     MW 4158   2.288   0.797   4.058  0.4372 -0.4314 -0.0842
  301Sol     OW 4159   2.208   0.634   5.249 -0.2731  0.2391  0.5944
  301Sol     HW 4160   2.139   0.651   5.185 -0.3602 -1.9951  0.0435
  301Sol     HW 4161   2.286   0.678   5.213 -0.5728 -0.1321 -0.5241
  301Sol     MW 4162   2.209   0.640   5.240 -0.2488 -0.3722 -0.8794
  302Sol     OW 4163   3.003   1.953   6.063  0.3472 -0.5494  0.6622
  302Sol     HW 4164   3.040   2.008   6.133 -0.8430 -1.0443  1.7032
  302Sol     HW 4165   2.914   1.935   6.092  0.2171 -1.7135 -0.4540
  302Sol     MW 4166   2.999   1.957   6.072 -0.3564 -0.0804 -0.1573
  303Sol     OW 4167   1.241   2.320   8.843  0.2702  0.5042  0.1811
  303Sol     HW 4168   1.308   2.261   8.808  0.8070  0.3966  1.3693
  303Sol     HW 4169   1.279   2.407   8.837 -0.0750  0.6083 -0.5221
  303Sol     MW 4170   1.250   2.322   8.840 -0.2752  0.3196  0.1243
  304Sol     OW 4171   1.604   1.746   3.676 -0.6835 -0.3456 -0.0593
  304Sol     HW 4172   1.596   1.768   3.769  2.6142 -0.5703  0.3391
  304Sol     HW 4173   1.676   1.684   3.672  0.4907  1.0827 -2.9679
  304Sol     MW 4174   1.610   1.743   3.684 -0.3628  0.3787  0.0834
  305Sol     OW 4175   1.062   1.098   6.260 -0.1787 -0.4641  0.5768
  305Sol     HW 4176   1.025   1.028   6.206  1.0698 -0.7077  0.0218
  305Sol     HW 4177   1.036   1.076   6.349  0.2910 -1.6890  0.4182
  305Sol     MW 4178   1.056   1.090   6.263 -0.1645 -0.5101  0.4600
  306Sol     OW 4179   1.772   1.059   4.492 -0.4799  0.1708  0.1109
  306Sol     HW 4180   1.753   0.965   4.489 -0.9893  0.1891  1.6946
  306Sol     HW 4181   1.766   1.088   4.402 -2.3918 -0.9497 -0.1602
  306Sol     MW 4182   1.770   1.053   4.484  0.0377 -0.3746  0.2124
  307Sol     OW 4183   1.441   0.901   4.314 -0.1019  0.8989 -0.6232
  307Sol     HW 4184   1.348   0.880   4.311 -0.3956  2.3724 -2.3787
  307Sol     HW 4185   1.447   0.976   4.373  0.1416  0.0495  0.4509
  307Sol     MW 4186   1.433   0.906   4.319 -0.0826  0.3011  0.3189
  308Sol     OW 4187   1.889   2.274   5.589  0.8604 -0.3058 -0.0970
  308Sol     HW 4188   1.811   2.319   5.623  1.2231 -0.2097  0.6019
  308Sol     HW 4189   1.867   2.181   5.594  1.1150 -0.3134  0.8868
  308Sol     MW 4190   1.880   2.270   5.592 -0.2996 -0.3452  0.0923
  309Sol     OW 4191   0.404   1.196   2.489 -0.2031  0.4606 -0.3927
  309Sol     HW 4192   0.319   1.173   2.526  0.2148 -1.7377 -0.6831
  309Sol     HW 4193   0.413   1.290   2.504 -2.4031  0.6029  0.1819
  309Sol     MW 4194   0.397   1.202   2.494 -0.0653  0.0258 -0.2785
  310Sol     OW 4195   1.606   1.674   5.421 -0.4957  0.3412  0.3731
  310Sol     HW 4196   1.553   1.684   5.499  0.6082  0.7772  1.0792
  310Sol     HW 4197   1.566   1.734   5.357 -1.0196  0.4513  0.8055
  310Sol     MW 4198   1.598   1.680   5.422 -0.5430  0.1911  0.2378
  311Sol     OW 4199   0.389   1.264   7.683 -0.1054 -0.8680  0.6322
  311Sol     HW 4200   0.370   1.236   7.772 -0.0792 -1.7858  0.3520
  311Sol     HW 4201   0.469   1.217   7.659  0.1571 -0.2593  0.3007
  311Sol     MW 4202   0.395   1.257   7.688  0.0686 -0.4162  0.6505
  312Sol     OW 4203   1.620   1.174   5.174 -0.9047  0.9070 -0.2011
  312Sol     HW 4204   1.624   1.251   5.232  0.7435  1.6038 -1.1961
  312Sol     HW 4205   1.662   1.104   5.224  0.4048  1.4751 -0.4750
  312Sol     MW 4206   1.624   1.175   5.184  0.1182  0.2080  0.3408
  313Sol     OW 4207   3.116   2.688   5.002 -0.3977  0.2096  0.1466
  313Sol     HW 4208   3.027   2.683   5.037 -1.6082  0.3876 -2.8447
  313Sol     HW 4209   3.107   2.729   4.916  2.2821 -1.9910 -1.2631
  313Sol     MW 4210   3.107   2.691   4.998 -0.2296  0.3338 -0.0175
  314Sol     OW 4211   3.198   0.940   6.040  0.0070  0.1247  0.2198
  314Sol     HW 4212   3.201   0.876   5.969  0.8090  1.4336 -0.9789
  314Sol     HW 4213   3.191   1.025   5.994  2.5208  1.1305  1.6268
  314Sol     MW 4214   3.198   0.942   6.029  0.2550 -0.3935 -0.0360
  315Sol     OW 4215   1.510   2.293   3.683  0.8110 -0.7452 -0.3100
  315Sol     HW 4216   1.543   2.305   3.773  1.5839 -0.9935 -0.5570
  315Sol     HW 4217   1.588   2.273   3.632 -0.0159 -3.8735 -0.4566
  315Sol     MW 4218   1.520   2.292   3.687  0.4710  0.1519 -0.2800
  316Sol     OW 4219   1.480   1.061   3.958  0.6045 -0.1079  0.2641
  316Sol     HW 4220   1.531   1.003   4.014 -2.2280 -0.3551  2.6699
  316Sol     HW 4221   1.389   1.040   3.977 -0.4601  2.1433 -1.9971
  316Sol     MW 4222   1.477   1.054   3.964  0.3254 -0.2449 -0.2859
  317Sol     OW 4223   1.656   2.828   7.036 -0.5592  0.6135 -0.0132
  317Sol     HW 4224   1.650   2.848   7.129 -0.8859 -1.1406  0.3685
  317Sol     HW 4225   1.594   2.756   7.023  0.2962  0.0916 -1.3424
  317Sol     MW 4226   1.650   2.823   7.043 -0.2416  0.2238  0.3248
  318Sol     OW 4227   1.241   0.794   2.656 -0.1854 -0.1829 -0.1538
  318Sol     HW 4228   1.232   0.707   2.694 -0.6310 -0.0674  0.0060
  318Sol     HW 4229   1.312   0.785   2.592 -0.2213 -0.6572 -0.1267
  318Sol     MW 4230   1.247   0.785   2.654  0.1593  0.2606  0.4457
  319Sol     OW 4231   2.173   0.664   8.357 -0.1123 -0.5368 -0.0986
  319Sol     HW 4232   2.100   0.707   8.313  1.9905  1.7585 -1.5084
  319Sol     HW 4233   2.133   0.613   8.427 -2.9690  1.1818 -0.4176
  319Sol     MW 4234   2.163   0.663   8.359 -0.3438  1.0987  0.5164
  320Sol     OW 4235   2.101   0.483   9.176 -0.2415  0.3102 -0.2876
  320Sol     HW 4236   2.106   0.518   9.087  0.5800  0.4123 -0.2079
  320Sol     HW 4237   2.191   0.491   9.209 -0.5183  0.1483  0.4993
  320Sol     MW 4238   2.110   0.487   9.171  0.5485 -0.7422  0.3821
  321Sol     OW 4239   1.140   3.398   3.696 -0.4457 -0.2964  0.0638
  321Sol     HW 4240   1.093   3.315   3.708 -1.8832  0.8006  2.2964
  321Sol     HW 4241   1.232   3.373   3.691 -0.9555 -2.1314 -0.4781
  321Sol     MW 4242   1.144   3.388   3.697 -0.6759 -0.0852 -0.2606
  322Sol     OW 4243   2.675   0.115   2.513 -0.3522  0.2554  0.4338
  322Sol     HW 4244   2.722   0.159   2.584  2.2632 -0.7195 -0.6405
  322Sol     HW 4245   2.708   0.156   2.433 -0.2187 -1.4866 -0.4198
  322Sol     MW 4246   2.682   0.123   2.512  0.3611 -0.0609  0.1459
  323Sol     OW 4247   0.529   0.050   8.007  0.1455 -0.4496  0.4105
  323Sol     HW 4248   0.547   0.045   7.913  1.2153 -0.6601  0.6155
  323Sol     HW 4249   0.608   0.015   8.048 -0.3661 -0.4712  1.3853
  323Sol     MW 4250   0.538   0.047   8.002  0.0882  0.0884  0.6292
  324Sol     OW 4251   0.285   1.760  10.346 -0.0406 -0.2413  0.4812
  324Sol     HW 4252   0.200   1.732  10.311 -0.0944  1.6427 -1.0026
  324Sol     HW 4253   0.266   1.786  10.437 -0.8338 -0.8221  0.4874
  324Sol     MW 4254   0.275   1.760  10.351 -0.0898 -0.7929 -0.0411
  325Sol     OW 4255   0.677   1.916   9.871  0.3143  0.1584 -0.4438
  325Sol     HW 4256   0.716   1.879   9.792 -1.0705 -2.7776  0.1857
  325Sol     HW 4257   0.683   1.846   9.936 -1.8435  1.2640  1.0149
  325Sol     MW 4258   0.681   1.907   9.870 -0.4209  0.3690 -0.5557
  326Sol     OW 4259   1.166   0.479   9.460 -0.2308 -0.5678 -0.0696
  326Sol     HW 4260   1.147   0.558   9.509  0.4657  0.5150 -1.5107
  326Sol     HW 4261   1.084   0.459   9.415 -0.5981 -1.0489  0.7948
  326Sol     MW 4262   1.157   0.484   9.460  0.1773  0.2111  0.1533
  327Sol     OW 4263   1.749   2.125   5.907  0.5834  0.1971  0.1294
  327Sol     HW 4264   1.735   2.211   5.868  0.8984  0.7597  1.2382
  327Sol     HW 4265   1.664   2.082   5.901  0.6550  0.2427 -1.2518
  327Sol     MW 4266   1.740   2.129   5.903  0.0026  0.3388  0.0216
  328Sol     OW 4267   2.110   0.840   8.903  0.3089 -0.4913  0.7140
  328Sol     HW 4268   2.089   0.858   8.995 -0.9878  2.0347 -0.0210
  328Sol     HW 4269   2.114   0.745   8.898 -1.2288 -0.7346  3.0598
  328Sol     MW 4270   2.108   0.833   8.911 -0.0830  0.1828 -0.3836
  329Sol     OW 4271   3.079   2.996   1.933 -0.1653 -0.2453  0.7113
  329Sol     HW 4272   3.152   3.018   1.991 -0.3766  1.1203  0.4649
  329Sol     HW 4273   3.121   2.961   1.854  0.2159  0.1843  0.7203
  329Sol     MW 4274   3.089   2.995   1.931  0.1929  0.5049  0.0197
  330Sol     OW 4275   0.930   3.395   8.849 -0.7869  0.0847 -0.1324
  330Sol     HW 4276   0.891   3.440   8.774 -0.5024 -1.2456 -1.1232
  330Sol     HW 4277   0.856   3.357   8.896 -0.8134 -1.4585 -1.3576
  330Sol     MW 4278   0.920   3.395   8.846  0.3099  0.3224  0.8011
  331Sol     OW 4279   3.181   3.157   7.005 -0.4292 -0.6579  0.6943
  331Sol     HW 4280   3.214   3.071   7.033  0.9367 -0.2391  0.4184
  331Sol     HW 4281   3.246   3.188   6.943 -1.7600 -0.1163 -0.4417
  331Sol     MW 4282   3.190   3.152   7.002 -0.0929 -0.0830 -0.5108
  332Sol     OW 4283   1.861   1.084   8.034 -0.5284  0.0417  0.1361
  332Sol     HW 4284   1.784   1.053   7.987 -0.7340 -0.5788  0.8812
  332Sol     HW 4285   1.931   1.081   7.969 -0.8034 -0.8304 -0.1293
  332Sol     MW 4286   1.860   1.081   8.024  0.0811 -0.2658  0.1974
  333Sol     OW 4287   1.890   2.204   6.533 -0.8905 -0.0836 -0.0238
  333Sol     HW 4288   1.963   2.170   6.586 -0.6857 -0.9251 -0.8364
  333Sol     HW 4289   1.897   2.299   6.541  0.8557 -0.1208 -0.8157
  333Sol     MW 4290   1.898   2.209   6.539  0.0574  0.5138  0.0007
  334Sol     OW 4291   2.152   1.897   7.512 -0.1479 -0.2530 -0.0390
  334Sol     HW 4292   2.138   1.983   7.473  0.2948  0.6800  1.7873
  334Sol     HW 4293   2.233   1.865   7.472  0.6510  0.9636  0.5829
  334Sol     MW 4294   2.158   1.901   7.505 -0.0393 -0.2097  0.0113
  335Sol     OW 4295   1.280   0.612   5.211  0.5442 -0.0006  0.4849
  335Sol     HW 4296   1.327   0.530   5.226 -0.1692 -0.3880  0.6049
  335Sol     HW 4297   1.329   0.655   5.141  2.3906  0.6480  2.1514
  335Sol     MW 4298   1.288   0.608   5.206 -0.2473 -0.4112 -0.3157
  336Sol     OW 4299   0.020   1.204   4.910 -0.1452  0.3949 -0.0815
  336Sol     HW 4300   0.114   1.184   4.906  0.0071  1.0593  0.1044
  336Sol     HW 4301  -0.023   1.122   4.887  0.4868  0.1538 -0.4153
  336Sol     MW 4302   0.025   1.195   4.908 -0.4515  0.0316 -0.1764
  337Sol     OW 4303   1.251   2.905   5.239 -0.0632  0.3182 -0.3819
  337Sol     HW 4304   1.271   2.951   5.321  0.4500  1.2360 -1.0124
  337Sol     HW 4305   1.274   2.968   5.170  0.2945 -0.7521 -1.2495
  337Sol     MW 4306   1.255   2.915   5.240  0.5101  0.5812 -0.4032
  338Sol     OW 4307   0.297   0.408   9.429 -0.2033  0.3346  0.2836
  338Sol     HW 4308   0.252   0.461   9.364 -0.0328 -1.3348 -1.2143
  338Sol     HW 4309   0.389   0.435   9.423 -0.0736 -0.3155 -0.6576
  338Sol     MW 4310   0.301   0.415   9.423  0.1324  0.1688  0.0032
  339Sol     OW 4311   1.367   0.215   6.741  0.3447 -0.1773 -0.6110
  339Sol     HW 4312   1.314   0.208   6.820 -0.8372  2.8353 -1.0642
  339Sol     HW 4313   1.303   0.219   6.670  1.2643  0.6306 -1.4141
  339Sol     MW 4314   1.356   0.215   6.741 -0.0597  0.4541  0.0869
  340Sol     OW 4315   1.533   1.148   6.107 -0.1972  0.1530  0.0572
  340Sol     HW 4316   1.568   1.231   6.142  0.2120 -0.2408  0.6000
  340Sol     HW 4317   1.610   1.091   6.100 -0.7853 -0.8658  1.6434
  340Sol     MW 4318   1.543   1.150   6.110 -0.4777  0.7208  0.0077
  341Sol     OW 4319   1.037   2.606   5.781 -0.3438 -0.7097 -0.2573
  341Sol     HW 4320   0.948   2.623   5.750 -0.1667  0.1473 -0.3174
  341Sol     HW 4321   1.085   2.685   5.757  1.0596 -2.1996 -2.5331
  341Sol     MW 4322   1.033   2.615   5.776 -0.2632 -0.1036 -0.4872
  342Sol     OW 4323   1.019   0.326   6.780 -0.1263 -0.3036 -0.2111
  342Sol     HW 4324   1.065   0.276   6.848 -1.5235 -1.6575 -0.2480
  342Sol     HW 4325   1.074   0.317   6.702  0.8435  0.2149  0.3966
  342Sol     MW 4326   1.028   0.321   6.779  0.0462 -0.2920 -0.0076
  343Sol     OW 4327   0.986   2.545   5.186  0.4250 -0.5814  0.3572
  343Sol     HW 4328   1.026   2.511   5.266 -0.9475  0.2220  1.4007
  343Sol     HW 4329   0.892   2.538   5.200  0.1506  0.7318 -0.6781
  343Sol     MW 4330   0.982   2.541   5.194  0.0420  0.2241 -0.4316
  344Sol     OW 4331   0.185   3.411   7.453  0.2314  0.2775 -0.0280
  344Sol     HW 4332   0.095   3.429   7.482 -0.2200 -0.2454 -1.0842
  344Sol     HW 4333   0.232   3.493   7.469 -0.6349  0.8300 -0.2485
  344Sol     MW 4334   0.181   3.420   7.457 -0.1330  0.0441 -0.3245
  345Sol     OW 4335   2.731   0.490   2.638  0.1329  0.1179 -0.6167
  345Sol     HW 4336   2.746   0.414   2.694 -0.9840 -0.2413 -0.7887
  345Sol     HW 4337   2.742   0.566   2.696 -0.4022 -0.2317 -0.0527
  345Sol     MW 4338   2.733   0.490   2.648  0.0916  0.2936 -0.1723
  346Sol     OW 4339   2.146   2.406   7.198  0.1546  0.3019  0.3149
  346Sol     HW 4340   2.090   2.425   7.123  2.0610 -0.6317 -1.3958
  346Sol     HW 4341   2.211   2.344   7.164 -0.5402 -2.2342  3.4248
  346Sol     MW 4342   2.147   2.402   7.188 -0.2552  0.2097 -0.2726
  347Sol     OW 4343   2.101   2.966   9.369 -0.1437 -0.6497 -0.0414
  347Sol     HW 4344   2.098   2.870   9.366 -0.0933 -0.6334 -0.7233
  347Sol     HW 4345   2.034   2.990   9.433 -0.5876 -1.1162 -0.3256
  347Sol     MW 4346   2.095   2.960   9.374  0.1737 -0.0210  0.0267
  348Sol     OW 4347   1.164   3.208   9.374 -0.3616 -0.8961  0.2240
  348Sol     HW 4348   1.085   3.158   9.394 -0.1381 -0.8732  1.1934
  348Sol     HW 4349   1.159   3.224   9.280 -1.5729 -0.8014  0.2886
  348Sol     MW 4350   1.156   3.205   9.368  0.4831 -0.2872 -0.1380
  349Sol     OW 4351   0.361   0.075   6.659  0.0009  0.3138 -0.2362
  349Sol     HW 4352   0.373   0.023   6.739  1.8079 -0.5229 -1.0444
  349Sol     HW 4353   0.434   0.136   6.659  0.4086 -0.1607 -1.6058
  349Sol     MW 4354   0.368   0.076   6.666  0.5957  0.3115  0.3722
  350Sol     OW 4355   3.043   2.174   3.934 -0.3582 -0.5373  0.0895
  350Sol     HW 4356   3.057   2.099   3.992  0.0548 -0.2839  0.3218
  350Sol     HW 4357   3.062   2.250   3.989 -3.0623 -0.1476  0.5449
  350Sol     MW 4358   3.046   2.174   3.944  0.3308 -0.1999 -0.0728
  351Sol     OW 4359   3.173   2.804   5.692 -0.2318  0.7004  0.2225
  351Sol     HW 4360   3.149   2.816   5.783  1.0303  0.9967  0.5185
  351Sol     HW 4361   3.264   2.776   5.694 -0.1901  0.7199 -0.9450
  351Sol     MW 4362   3.179   2.803   5.700 -0.7242 -0.7169 -0.2243
  352Sol     OW 4363   0.948   2.211   5.701  0.3459 -0.1349  0.3698
  352Sol     HW 4364   0.888   2.161   5.756 -1.1261 -0.0349 -1.0946
  352Sol     HW 4365   0.905   2.214   5.615  1.6698  1.3527 -0.2699
  352Sol     MW 4366   0.939   2.207   5.698 -0.1858 -0.2386 -0.6974
  353Sol     OW 4367   1.750   0.542   2.084  0.2617  0.2702  0.5043
  353Sol     HW 4368   1.787   0.511   2.001 -0.3815  1.8282 -0.3834
  353Sol     HW 4369   1.658   0.556   2.065 -0.0482 -0.1045  1.7113
  353Sol     MW 4370   1.745   0.540   2.075 -0.5818 -0.1227  0.2468
  354Sol     OW 4371   1.514   3.222   7.323  0.3483 -1.0132 -0.1548
  354Sol     HW 4372   1.545   3.291   7.381 -0.0054  0.0914 -1.2727
  354Sol     HW 4373   1.430   3.194   7.361 -0.9790  1.2419 -1.3431
  354Sol     MW 4374   1.509   3.226   7.332  0.4055  0.2086 -0.4588
  355Sol     OW 4375   2.273   1.434   4.432 -0.0608  0.4395  0.1788
  355Sol     HW 4376   2.309   1.346   4.423  0.9750  1.0555 -1.9411
  355Sol     HW 4377   2.178   1.422   4.421  0.0106 -0.4881  0.5435
  355Sol     MW 4378   2.268   1.425   4.430  0.3172 -0.5772 -0.4378
  356Sol     OW 4379   0.714   0.508   6.690 -0.4002  0.1063 -0.3782
  356Sol     HW 4380   0.792   0.551   6.727 -1.0723  2.3897 -1.5692
  356Sol     HW 4381   0.648   0.577   6.687 -2.7323 -1.9905  1.2782
  356Sol     MW 4382   0.715   0.518   6.693  0.4434  0.1582  0.0669
  357Sol     OW 4383   2.162   3.040   5.881  0.1322 -0.1021 -0.1591
  357Sol     HW 4384   2.239   2.984   5.891  2.0983  2.5079  0.1143
  357Sol     HW 4385   2.122   3.041   5.968  0.9148  0.0405  0.2064
  357Sol     MW 4386   2.166   3.035   5.890 -0.3519 -0.3207  0.0750
  358Sol     OW 4387   1.309   2.616   9.086 -0.0123 -0.1267 -0.3584
  358Sol     HW 4388   1.334   2.678   9.155  1.7353 -1.1528 -0.0453
  358Sol     HW 4389   1.214   2.619   9.084 -0.0036  1.2033  0.9179
  358Sol     MW 4390   1.303   2.622   9.092  0.2729 -0.0652 -0.1518
  359Sol     OW 4391   1.664   2.563   2.750  0.0542 -0.3108  0.1666
  359Sol     HW 4392   1.604   2.622   2.797  0.3402  0.2433 -0.1509
  359Sol     HW 4393   1.607   2.500   2.706 -0.3948  1.1136 -1.3635
  359Sol     MW 4394   1.653   2.563   2.750 -0.4911  0.0270  0.4836
  360Sol     OW 4395   1.735   3.133   2.950  0.6472  0.2588  0.4884
  360Sol     HW 4396   1.716   3.179   3.032 -0.5504  0.2605  0.2234
  360Sol     HW 4397   1.657   3.079   2.935  1.9060 -1.6310  0.6349
  360Sol     MW 4398   1.726   3.133   2.956 -0.2072 -0.3549  0.2989
  361Sol     OW 4399   1.647   0.213   2.404  0.1497  0.1087  0.3933
  361Sol     HW 4400   1.707   0.264   2.350  2.2648  0.2668  2.8038
  361Sol     HW 4401   1.602   0.278   2.458  0.3201 -0.2890  1.0174
  361Sol     MW 4402   1.648   0.223   2.404  0.1952  0.7584  0.0172
  362Sol     OW 4403   2.648   1.621   2.051 -0.2653  0.6699 -0.0971
  362Sol     HW 4404   2.643   1.604   1.957 -0.5045 -2.1765  0.3711
  362Sol     HW 4405   2.696   1.704   2.059  1.9110 -0.2848 -2.6412
  362Sol     MW 4406   2.652   1.627   2.043  0.4423  0.0126  0.0981
  363Sol     OW 4407   1.359   1.357   4.815  0.0993  0.2020 -0.0797
  363Sol     HW 4408   1.319   1.280   4.775 -0.9240  0.3842  0.5846
  363Sol     HW 4409   1.330   1.354   4.906  0.0676  1.3682 -0.0491
  363Sol     MW 4410   1.353   1.350   4.819  0.4666  0.3950 -0.0360
  364Sol     OW 4411   0.288   2.367   2.409 -0.2386  0.1467  0.1852
  364Sol     HW 4412   0.239   2.448   2.420 -0.2952  0.0077  1.0417
  364Sol     HW 4413   0.378   2.389   2.435 -0.2096 -0.0129  0.2242
  364Sol     MW 4414   0.292   2.376   2.413 -0.0414 -0.1982  0.2572
  365Sol     OW 4415   2.922   2.244   7.130 -0.0213 -0.2029 -0.0950
  365Sol     HW 4416   3.003   2.276   7.169 -0.0859  0.2223 -0.3022
  365Sol     HW 4417   2.880   2.323   7.095  0.4495 -0.6634 -1.7687
  365Sol     MW 4418   2.926   2.254   7.130  0.0965 -0.0079 -0.1288
  366Sol     OW 4419   0.139   1.905   7.655  0.2336 -0.2639  0.2057
  366Sol     HW 4420   0.053   1.941   7.672 -0.2527 -0.7908 -1.0525
  366Sol     HW 4421   0.200   1.963   7.701 -0.7379  0.5013  0.5251
  366Sol     MW 4422   0.137   1.913   7.661  0.3566 -0.3905  0.2218
  367Sol     OW 4423   1.514   2.143   9.534 -0.4615  0.4295  0.5395
  367Sol     HW 4424   1.593   2.095   9.557  0.2951  1.0126 -0.7603
  367Sol     HW 4425   1.546   2.224   9.494 -1.6700 -0.1213 -1.6551
  367Sol     MW 4426   1.524   2.146   9.532  0.5450  0.6962  0.1165
  368Sol     OW 4427   1.933   1.515   4.159 -0.3747  0.0501 -0.1479
  368Sol     HW 4428   2.003   1.452   4.138  0.6306  1.4423 -1.0112
  368Sol     HW 4429   1.963   1.558   4.238 -0.2559  0.6505 -0.5195
  368Sol     MW 4430   1.942   1.513   4.164  0.0974  0.2639 -0.4917
  369Sol     OW 4431   1.191   1.971   8.489 -0.0727  0.1444 -0.1905
  369Sol     HW 4432   1.286   1.973   8.496 -0.1071  0.6748  0.1557
  369Sol     HW 4433   1.161   1.940   8.574 -0.0878 -3.3972 -1.3848
  369Sol     MW 4434   1.196   1.968   8.497 -0.4623  0.5399 -0.3049
  370Sol     OW 4435   0.967   0.096   7.121 -0.2299  0.0516  0.2450
  370Sol     HW 4436   0.969   0.126   7.212 -0.6342 -1.3439  0.7351
  370Sol     HW 4437   0.913   0.017   7.123  0.9744 -0.8263 -0.9634
  370Sol     MW 4438   0.962   0.091   7.129  0.1776 -0.2738 -0.1812
  371Sol     OW 4439   2.831   2.565   7.790 -0.5119 -0.2246  0.2308
  371Sol     HW 4440   2.763   2.545   7.725  1.1692  2.2246 -2.4182
  371Sol     HW 4441   2.910   2.522   7.756  0.4584  1.3129  0.4813
  371Sol     MW 4442   2.832   2.559   7.781  0.1225 -0.3117  0.4092
  372Sol     OW 4443   2.563   3.097   7.707 -0.2947 -0.0454 -0.3343
  372Sol     HW 4444   2.482   3.062   7.745 -0.7192 -0.4812 -1.6009
  372Sol     HW 4445   2.574   3.046   7.627  0.4852  0.9838 -0.8761
  372Sol     MW 4446   2.556   3.089   7.703 -0.6493 -0.2828  0.3298
  373Sol     OW 4447   0.450   3.258   4.999 -0.5954  0.9406  0.2886
  373Sol     HW 4448   0.358   3.271   4.976 -0.1428 -0.2039 -2.3262
  373Sol     HW 4449   0.476   3.179   4.953  1.6711  1.1446  1.1313
  373Sol     MW 4450   0.444   3.252   4.993 -0.1002  0.6405 -0.0811
  374Sol     OW 4451   2.934   0.413   4.994 -0.1046 -0.2033  0.1216
  374Sol     HW 4452   2.997   0.410   5.065  0.0528  2.0024  0.1062
  374Sol     HW 4453   2.933   0.504   4.965 -0.3931 -0.9739 -2.5071
  374Sol     MW 4454   2.939   0.421   4.997 -0.0858  0.2033  0.5294
  375Sol     OW 4455   2.669   0.431   7.928  0.1449  0.5846 -0.0704
  375Sol     HW 4456   2.649   0.353   7.877  0.4180 -1.1269  2.3604
  375Sol     HW 4457   2.600   0.434   7.994  0.6501  1.9121  0.4141
  375Sol     MW 4458   2.661   0.424   7.929  0.0862  0.1068  0.2878
  376Sol     OW 4459   0.487   2.869   6.411  0.1676 -0.3958  0.1329
  376Sol     HW 4460   0.557   2.837   6.468  1.1836 -0.6177 -1.1939
  376Sol     HW 4461   0.530   2.882   6.326 -1.1818  0.4586 -0.4335
  376Sol     MW 4462   0.497   2.867   6.408 -0.4689 -0.0723  0.0194
  377Sol     OW 4463   0.366   1.052   6.979  0.0233 -0.2531  0.0849
  377Sol     HW 4464   0.292   1.103   7.011  0.0134 -1.5192  2.1753
  377Sol     HW 4465   0.416   1.113   6.925 -0.6660  1.5925  1.4911
  377Sol     MW 4466   0.364   1.062   6.977  0.0967  0.8576 -0.0175
  378Sol     OW 4467   2.872   0.298   1.850  0.1013  0.1082  0.0904
  378Sol     HW 4468   2.790   0.335   1.816  0.0682  0.7912  0.9016
  378Sol     HW 4469   2.888   0.221   1.795  1.0250  2.2326 -2.7236
  378Sol     MW 4470   2.866   0.294   1.842  0.3386 -0.6776  0.0249
  379Sol     OW 4471   1.544   0.828   9.774 -0.1294 -0.6294 -0.2757
  379Sol     HW 4472   1.586   0.742   9.781  1.0470  0.1021  2.5242
  379Sol     HW 4473   1.474   0.826   9.839 -0.4953  0.2978 -0.6396
  379Sol     MW 4474   1.542   0.820   9.780 -0.0946 -0.2736 -0.4249
  380Sol     OW 4475   1.048   1.716   7.751  0.3203  0.0360  0.5209
  380Sol     HW 4476   1.079   1.806   7.752 -1.0205  0.5153  0.4032
  380Sol     HW 4477   1.120   1.665   7.788  1.8061  0.9180 -1.0581
  380Sol     MW 4478   1.057   1.720   7.754  0.0716  0.0689 -0.4588
  381Sol     OW 4479   0.513   0.930   4.504  1.0473  0.3993  0.0404
  381Sol     HW 4480   0.506   0.901   4.595 -0.0423 -1.0280 -0.4793
  381Sol     HW 4481   0.582   0.874   4.467  0.5582  0.0481 -0.3528
  381Sol     MW 4482   0.519   0.922   4.509 -0.0856  0.1458  0.1484
  382Sol     OW 4483   2.690   1.095   6.602 -0.2019 -0.5320 -0.2869
  382Sol     HW 4484   2.734   1.016   6.635  1.1017  0.8148  1.3206
  382Sol     HW 4485   2.761   1.149   6.568 -0.6460  1.4099  1.7725
  382Sol     MW 4486   2.701   1.093   6.602 -0.1184 -0.4180 -0.1603
  383Sol     OW 4487   0.645   2.730   5.924  0.0419 -0.6877 -0.5864
  383Sol     HW 4488   0.688   2.815   5.933  0.1193 -0.9437  2.0157
  383Sol     HW 4489   0.553   2.748   5.939  0.0625 -1.0459 -0.0055
  383Sol     MW 4490   0.641   2.739   5.926 -0.0588  0.2503  0.2763
  384Sol     OW 4491   0.395   0.229   5.377 -0.0640 -0.0919  0.7961
  384Sol     HW 4492   0.391   0.223   5.281  0.4880 -0.3701  0.7944
  384Sol     HW 4493   0.433   0.315   5.393  1.7330 -0.8708  0.7489
  384Sol     MW 4494   0.398   0.236   5.369 -0.1980 -0.3081  0.2850
  385Sol     OW 4495   0.360   0.204   3.447 -0.1675  0.3686 -0.1676
  385Sol     HW 4496   0.347   0.286   3.400 -0.2884  0.9983  0.9642
  385Sol     HW 4497   0.381   0.141   3.378 -2.2118  0.8618 -1.2613
  385Sol     MW 4498   0.361   0.206   3.436  0.1807 -0.1507 -0.0593
  386Sol     OW 4499   1.319   2.317   2.710  0.3634 -0.5104 -0.1233
  386Sol     HW 4500   1.295   2.225   2.700 -1.1238 -0.1004 -0.4323
  386Sol     HW 4501   1.397   2.327   2.655 -0.0371 -1.3623 -0.8675
  386Sol     MW 4502   1.324   2.309   2.704  0.8364 -0.6293 -0.1653
  387Sol     OW 4503   1.742   2.970   9.766 -0.2685 -0.3869  0.0952
  387Sol     HW 4504   1.744   2.882   9.803  1.5571  0.0292  1.0070
  387Sol     HW 4505   1.808   3.018   9.814 -3.2045  2.3041  1.6037
  387Sol     MW 4506   1.748   2.966   9.773 -0.1554  0.5426  0.1634
  388Sol     OW 4507   1.851   2.365   3.962 -0.4742 -0.2670  0.6662
  388Sol     HW 4508   1.774   2.384   3.909 -0.2055 -2.8248 -0.7433
  388Sol     HW 4509   1.921   2.417   3.922 -0.9649  0.2477  0.4743
  388Sol     MW 4510   1.851   2.371   3.954 -0.1012 -0.1956  0.3346
  389Sol     OW 4511   1.407   0.212   5.562 -0.1235 -0.4974  0.1986
  389Sol     HW 4512   1.464   0.234   5.636 -0.0416  0.1850 -0.0662
  389Sol     HW 4513   1.323   0.254   5.583 -0.1327 -0.3965 -0.0367
  389Sol     MW 4514   1.404   0.218   5.571 -0.2008  0.5446  0.6331
  390Sol     OW 4515   1.666   2.245   5.379 -0.5845  0.1624 -0.2064
  390Sol     HW 4516   1.719   2.283   5.309 -0.2685  2.2133  1.1247
  390Sol     HW 4517   1.725   2.183   5.422 -0.3304 -0.0335 -0.8191
  390Sol     MW 4518   1.676   2.243   5.376  0.6783 -0.0293 -0.1904
  391Sol     OW 4519   0.219   0.525   2.971  0.5657 -0.1573 -0.1828
  391Sol     HW 4520   0.289   0.478   2.924  0.8651 -1.1304  1.2052
  391Sol     HW 4521   0.265   0.571   3.041 -0.1756 -0.8625  0.7811
  391Sol     MW 4522   0.230   0.525   2.973  0.0882 -0.0685 -0.2289
  392Sol     OW 4523   1.131   0.601   6.687 -0.2579  0.1050 -0.4116
  392Sol     HW 4524   1.223   0.592   6.662  0.0649  3.0102 -0.4979
  392Sol     HW 4525   1.097   0.512   6.688  3.7437 -1.6288  4.1196
  392Sol     MW 4526   1.136   0.592   6.685 -0.3307  0.0387  0.3976
  393Sol     OW 4527   0.504   0.556   9.915  0.4197  0.0679 -0.0809
  393Sol     HW 4528   0.522   0.477   9.864  0.6289  0.7301 -1.0529
  393Sol     HW 4529   0.419   0.539   9.957  1.2832 -1.3596  1.1238
  393Sol     MW 4530   0.498   0.547   9.914  0.2824  0.1936  0.0198
  394Sol     OW 4531   0.244   3.023   5.703  0.0347  0.1402 -0.2603
  394Sol     HW 4532   0.184   3.049   5.772 -0.5700  2.1928 -1.5052
  394Sol     HW 4533   0.331   3.029   5.743 -0.4738 -1.4233  1.1196
  394Sol     MW 4534   0.246   3.026   5.712  0.0909 -0.4013  0.1903
  395Sol     OW 4535   0.588   2.391   5.972 -0.2015  0.2872 -0.4839
  395Sol     HW 4536   0.549   2.455   5.912 -0.5536 -1.3880 -2.0936
  395Sol     HW 4537   0.680   2.388   5.947  0.5009  2.3974  1.6561
  395Sol     MW 4538   0.593   2.396   5.964 -0.1325 -0.5937 -0.2125
  396Sol     OW 4539   2.790   1.917   8.063  0.0835 -0.4981 -0.4840
  396Sol     HW 4540   2.740   1.850   8.015  0.3168 -1.6574  0.8693
  396Sol     HW 4541   2.855   1.867   8.112  1.2572  0.8551 -0.6532
  396Sol     MW 4542   2.791   1.906   8.063 -0.1600 -0.0665  0.3131
  397Sol     OW 4543   0.834   0.751   6.316 -0.3182 -0.5670  0.0966
  397Sol     HW 4544   0.876   0.803   6.248  1.5413 -2.1312 -0.0112
  397Sol     HW 4545   0.763   0.705   6.271 -2.4908  2.4469  0.3726
  397Sol     MW 4546   0.832   0.751   6.306 -0.2011 -0.1566  0.3760
  398Sol     OW 4547   2.640   3.350   3.767 -0.0367  0.1260  0.4668
  398Sol     HW 4548   2.581   3.418   3.733 -1.0929 -0.3427  1.3108
  398Sol     HW 4549   2.624   3.274   3.711 -2.2290 -0.8425  2.2813
  398Sol     MW 4550   2.633   3.349   3.759 -0.2131  0.2452  0.3787
  399Sol     OW 4551   0.507   2.598   8.131 -0.1559  0.2871 -0.2905
  399Sol     HW 4552   0.542   2.509   8.132  0.6844  0.6028 -0.9731
  399Sol     HW 4553   0.413   2.587   8.115 -0.2348 -0.5248  0.6595
  399Sol     MW 4554   0.502   2.589   8.130 -0.0718  0.1451  0.1823
  400Sol     OW 4555   1.839   1.359   4.379  0.0483 -0.3557 -0.5024
  400Sol     HW 4556   1.814   1.421   4.448 -1.2373 -0.8575 -0.5115
  400Sol     HW 4557   1.760   1.348   4.327  1.0191  0.0518 -2.1108
  400Sol     MW 4558   1.830   1.364   4.381 -0.1579 -0.1300  0.1527
  401Sol     OW 4559   1.451   0.931   6.258 -0.5092  0.0189 -0.0540
  401Sol     HW 4560   1.457   0.945   6.353  0.6279  0.9122 -0.2483
  401Sol     HW 4561   1.479   1.014   6.220 -2.5991  0.2429 -1.1822
  401Sol     MW 4562   1.454   0.940   6.263 -0.0407  0.1927 -0.6334
  402Sol     OW 4563   2.672   2.526   6.500 -0.2759  0.5146  0.1455
  402Sol     HW 4564   2.756   2.482   6.494 -0.4440 -0.0900  2.0291
  402Sol     HW 4565   2.649   2.524   6.593 -1.4524  2.3926 -0.0588
  402Sol     MW 4566   2.677   2.522   6.508  0.1274 -0.3111 -0.1777
  403Sol     OW 4567   2.429   1.681   7.607 -0.3825  0.0477  0.0633
  403Sol     HW 4568   2.433   1.724   7.521 -1.4597 -1.5529 -0.8358
  403Sol     HW 4569   2.520   1.666   7.630 -0.0924 -1.1386 -1.6992
  403Sol     MW 4570   2.437   1.683   7.601  0.1035  0.0127 -0.0278
  404Sol     OW 4571   1.232   3.404   2.839  0.5261 -0.7400  0.5113
  404Sol     HW 4572   1.174   3.364   2.903  1.1959  0.3764  1.8604
  404Sol     HW 4573   1.204   3.369   2.754 -2.5001  0.2501  1.0616
  404Sol     MW 4574   1.225   3.397   2.837  0.2119  0.3699 -0.1301
  405Sol     OW 4575   2.522   1.727   3.622 -0.0291  0.0327  0.1291
  405Sol     HW 4576   2.431   1.738   3.598 -0.9749 -1.2269  2.8461
  405Sol     HW 4577   2.560   1.815   3.618 -1.5241  0.6579 -0.4290
  405Sol     MW 4578   2.518   1.736   3.620 -0.5615 -0.1392 -0.7422
  406Sol     OW 4579   2.681   0.280   9.082  0.4009 -0.3485  0.2025
  406Sol     HW 4580   2.690   0.370   9.114 -3.2025 -0.2307  1.1392
  406Sol     HW 4581   2.768   0.242   9.093  1.7926  2.7649  0.5648
  406Sol     MW 4582   2.689   0.285   9.086  0.0507  0.1224 -0.5335
  407Sol     OW 4583   0.387   1.939  10.096 -0.3428  0.5212 -0.1601
  407Sol     HW 4584   0.473   1.970  10.126 -0.3129 -0.0148  0.2943
  407Sol     HW 4585   0.350   1.892  10.170 -0.8013  0.2763 -0.5383
  407Sol     MW 4586   0.392   1.938  10.105  0.4198  0.2479 -0.0246
  408Sol     OW 4587   1.184   1.015   1.417 -0.3850  0.2683 -0.7280
  408Sol     HW 4588   1.265   1.058   1.444 -0.7261  0.8556 -0.6377
  408Sol     HW 4589   1.167   1.046   1.329  0.1410 -0.8078 -1.2181
  408Sol     MW 4590   1.189   1.021   1.412  0.3401 -0.4983  0.1838
  409Sol     OW 4591   1.430   2.295   6.617 -0.3971 -0.1630 -0.2125
  409Sol     HW 4592   1.402   2.295   6.525 -0.3404  1.2711 -0.2398
  409Sol     HW 4593   1.351   2.317   6.665 -0.1028  0.4719 -0.0220
  409Sol     MW 4594   1.420   2.297   6.613 -0.2116  0.0683  0.2855
  410Sol     OW 4595   0.216   0.913   1.781 -0.6265  0.5828 -0.0329
  410Sol     HW 4596   0.243   0.998   1.814 -0.6522  1.0997 -1.3103
  410Sol     HW 4597   0.294   0.877   1.739 -1.5066  1.5374 -2.6226
  410Sol     MW 4598   0.225   0.917   1.780 -0.2792  0.2756 -0.2494
  411Sol     OW 4599   3.105   1.570   7.049  0.7467 -0.0649 -0.5977
  411Sol     HW 4600   3.071   1.627   6.979  0.8383 -0.1214 -0.6875
  411Sol     HW 4601   3.045   1.495   7.049 -0.4016  0.8253  0.6684
  411Sol     MW 4602   3.096   1.568   7.043 -0.2634  0.2420 -0.3458
  412Sol     OW 4603   0.955   1.680   2.856  0.0033 -0.3665 -0.8388
  412Sol     HW 4604   1.005   1.643   2.929  0.5268 -0.6196 -1.3201
  412Sol     HW 4605   0.954   1.611   2.790 -1.5583 -0.6170 -0.5856
  412Sol     MW 4606   0.959   1.670   2.857  0.1792 -0.7043  0.2643
  413Sol     OW 4607   0.382   2.223   5.020 -0.1293 -0.1743 -0.1033
  413Sol     HW 4608   0.420   2.310   5.006 -1.6360  0.3357 -1.1339
  413Sol     HW 4609   0.410   2.199   5.108  3.0844 -0.0813 -1.0091
  413Sol     MW 4610   0.388   2.229   5.027 -0.3215 -0.3174  0.4218
  414Sol     OW 4611   0.266   2.357   3.825 -0.2662 -0.1279  0.3632
  414Sol     HW 4612   0.300   2.438   3.864 -1.9905 -0.1878  2.0772
  414Sol     HW 4613   0.333   2.291   3.844  1.4027  1.0137 -1.5339
  414Sol     MW 4614   0.275   2.358   3.831 -0.3479  0.1093 -0.3631
  415Sol     OW 4615   1.190   0.423   3.168  0.2976  0.1571 -0.1206
  415Sol     HW 4616   1.264   0.468   3.127  0.4191  0.8951  0.8720
  415Sol     HW 4617   1.231   0.357   3.224  0.3086  1.8590  1.9410
  415Sol     MW 4618   1.201   0.421   3.170 -0.1785 -0.6286 -0.4057
  416Sol     OW 4619   1.055   0.741   8.911  0.0722  0.6666  0.1799
  416Sol     HW 4620   1.127   0.779   8.960  0.5624  1.0401 -0.8009
  416Sol     HW 4621   0.976   0.774   8.953  0.4886  1.1947  0.5451
  416Sol     MW 4622   1.054   0.748   8.919 -0.0268 -0.1138 -0.1116
  417Sol     OW 4623   1.381   0.764   7.325  0.0955 -0.2188  0.3973
  417Sol     HW 4624   1.438   0.777   7.400 -0.7520  2.2600  0.6664
  417Sol     HW 4625   1.435   0.785   7.249 -0.1086  0.9589  0.5725
  417Sol     MW 4626   1.391   0.767   7.325  0.5336 -0.7615  0.1712
  418Sol     OW 4627   2.645   2.733   9.822 -0.9706  0.1451  0.3026
  418Sol     HW 4628   2.619   2.824   9.830 -0.8177  0.3172 -1.0807
  418Sol     HW 4629   2.740   2.735   9.822 -0.9652  0.0940 -0.8425
  418Sol     MW 4630   2.651   2.741   9.823  0.0586 -0.0083  0.5527
  419Sol     OW 4631   2.007   3.003   9.104 -0.2946  0.3578  0.2786
  419Sol     HW 4632   2.006   2.930   9.042 -2.2762  0.4181  0.1830
  419Sol     HW 4633   2.045   2.967   9.184 -1.2750 -0.7939  0.2380
  419Sol     MW 4634   2.010   2.993   9.106  0.1603  0.4597  0.2499
  420Sol     OW 4635   0.337   3.403   6.919 -0.0403 -0.0391  0.1108
  420Sol     HW 4636   0.300   3.373   7.002  1.1066 -0.3773  0.5092
  420Sol     HW 4637   0.426   3.428   6.940  0.2601 -0.1279 -1.0248
  420Sol     MW 4638   0.341   3.402   6.928 -0.2051 -0.2332 -0.3131
  421Sol     OW 4639   1.514   0.288  10.092 -0.6808  0.8734  0.7896
  421Sol     HW 4640   1.425   0.323  10.090 -1.5513 -1.3224 -1.3324
  421Sol     HW 4641   1.543   0.289  10.001 -0.1325 -2.2805  0.8746
  421Sol     MW 4642   1.509   0.291  10.084  0.4989 -0.2415  0.2951
  422Sol     OW 4643   3.160   2.043   7.790  0.2681 -0.3280 -0.2238
  422Sol     HW 4644   3.227   2.106   7.815  1.5142 -1.1106 -1.5369
  422Sol     HW 4645   3.078   2.082   7.821  1.1892  1.1711  0.3882
  422Sol     MW 4646   3.158   2.052   7.795 -0.0511  0.1170  0.1847
  423Sol     OW 4647   1.619   1.393   5.345 -0.5266  0.2108 -0.5732
  423Sol     HW 4648   1.614   1.485   5.370  0.7266  0.2498 -0.4029
  423Sol     HW 4649   1.575   1.346   5.415  0.3054  0.5542  0.1927
  423Sol     MW 4650   1.615   1.397   5.353 -1.1486 -0.0745 -0.5137
  424Sol     OW 4651   1.013   1.701   7.066  0.1524  0.2641  0.1434
  424Sol     HW 4652   0.993   1.756   6.990  0.7092  0.3088  0.0283
  424Sol     HW 4653   0.949   1.728   7.132 -0.7189 -0.1910 -0.5014
  424Sol     MW 4654   1.006   1.709   7.065 -0.1078  0.4482  0.0181
  425Sol     OW 4655   2.699   1.689   3.207  0.7991  0.3101 -0.4184
  425Sol     HW 4656   2.631   1.639   3.251  0.3020  0.8801 -0.5455
  425Sol     HW 4657   2.778   1.634   3.216  0.4637 -0.0715  0.2348
  425Sol     MW 4658   2.700   1.679   3.211 -0.3328  0.1412 -0.2444
  426Sol     OW 4659   2.454   0.699   2.943  0.0331 -0.4593  0.0690
  426Sol     HW 4660   2.439   0.735   3.031 -0.5193 -1.6136  0.4612
  426Sol     HW 4661   2.450   0.604   2.955 -2.9652 -0.6068 -1.6941
  426Sol     MW 4662   2.452   0.694   2.952  0.4694  0.0198 -0.0232
  427Sol     OW 4663   1.571   0.247   9.832  0.3498  0.8163  0.8480
  427Sol     HW 4664   1.513   0.170   9.829  0.8275  0.4581  0.8578
  427Sol     HW 4665   1.656   0.215   9.802  0.9287  0.9960  2.2520
  427Sol     MW 4666   1.573   0.237   9.829 -0.3337 -0.3558  0.1734
  428Sol     OW 4667   0.153   2.573   7.485  1.2198  0.1161  0.3883
  428Sol     HW 4668   0.182   2.511   7.552  0.0999 -0.2909  0.5050
  428Sol     HW 4669   0.171   2.659   7.522  0.4088 -0.0990  1.3070
  428Sol     MW 4670   0.158   2.575   7.494  0.4207 -0.0503  0.1443
  429Sol     OW 4671   2.387   1.767   6.511  0.1588  0.1034 -1.1260
  429Sol     HW 4672   2.387   1.677   6.544  0.0743 -0.1081 -1.6920
  429Sol     HW 4673   2.410   1.821   6.587  0.8799 -0.4544 -0.9389
  429Sol     MW 4674   2.389   1.764   6.521  0.6180 -0.0902 -0.0293
  430Sol     OW 4675   2.668   1.338   4.595  0.0621 -0.4809 -0.3723
  430Sol     HW 4676   2.668   1.365   4.503 -0.8608 -1.5610 -0.7188
  430Sol     HW 4677   2.689   1.244   4.592 -2.6193 -1.1614  0.2639
  430Sol     MW 4678   2.670   1.332   4.586  0.4956  0.4003  0.3789
  431Sol     OW 4679   0.307   1.859   2.705 -0.0958  0.0019  0.2066
  431Sol     HW 4680   0.284   1.927   2.769  0.7969  0.2080  0.3101
  431Sol     HW 4681   0.288   1.777   2.749  1.9083  0.0963  1.2972
  431Sol     MW 4682   0.303   1.858   2.714 -0.6969 -0.1615 -0.1987
  432Sol     OW 4683   2.524   2.899   5.238 -0.2479 -0.2721  0.1182
  432Sol     HW 4684   2.565   2.882   5.323  0.5790  1.1425  0.0131
  432Sol     HW 4685   2.504   2.812   5.203  1.0160 -0.9235  0.9848
  432Sol     MW 4686   2.526   2.889   5.242 -0.0551  0.7853  0.4754
  433Sol     OW 4687   0.615   1.730   8.700  0.2813 -0.3737  0.6987
  433Sol     HW 4688   0.571   1.788   8.761 -1.4450 -0.8632 -0.0242
  433Sol     HW 4689   0.602   1.771   8.614  1.7995 -0.2029  0.5461
  433Sol     MW 4690   0.610   1.739   8.698  0.1185 -0.0485  0.0172
  434Sol     OW 4691   3.032   0.645   5.486 -0.0832  0.3743  0.4609
  434Sol     HW 4692   2.966   0.692   5.435 -0.6257  1.5708  2.2112
  434Sol     HW 4693   3.104   0.707   5.496  0.0011  0.1676  1.1798
  434Sol     MW 4694   3.032   0.654   5.482  0.0024 -0.1049 -0.8989
  435Sol     OW 4695   1.655   3.307   6.746  0.2237 -0.5152 -0.2354
  435Sol     HW 4696   1.573   3.292   6.698  0.0499 -0.8853  0.1765
  435Sol     HW 4697   1.628   3.319   6.837  0.5195  0.6078 -0.2877
  435Sol     MW 4698   1.645   3.307   6.750 -0.5100  0.5199  0.0956
  436Sol     OW 4699   2.784   1.277   2.595 -0.2105 -0.1155  0.1060
  436Sol     HW 4700   2.826   1.192   2.603  1.3333  0.5150 -1.2150
  436Sol     HW 4701   2.809   1.324   2.675  1.8222  0.3331 -0.7664
  436Sol     MW 4702   2.790   1.274   2.603 -0.4144  0.2973 -0.4211
  437Sol     OW 4703   2.366   1.990   3.923 -0.4301 -0.2095  0.0695
  437Sol     HW 4704   2.351   1.902   3.956 -0.0656 -0.1393  0.4228
  437Sol     HW 4705   2.279   2.023   3.902 -0.5155 -0.8850 -0.6610
  437Sol     MW 4706   2.357   1.985   3.924  0.4024 -0.1289 -0.4967
  438Sol     OW 4707   2.166   0.082   6.034 -0.2450 -0.0805 -0.0451
  438Sol     HW 4708   2.169   0.125   5.949 -0.0160  0.4497  0.2249
  438Sol     HW 4709   2.135   0.150   6.094  1.8555  0.2730  0.7104
  438Sol     MW 4710   2.164   0.092   6.032 -0.1993  0.0747  0.2843
  439Sol     OW 4711   2.058   3.328   3.277 -0.3476 -0.5817 -0.3429
  439Sol     HW 4712   2.052   3.356   3.368  2.5257 -3.7288  0.9254
  439Sol     HW 4713   2.104   3.399   3.233 -2.5156  1.3523  0.3949
  439Sol     MW 4714   2.061   3.337   3.281 -0.2707  0.3359 -0.6563
  440Sol     OW 4715   0.446   2.578   9.020  0.0434  0.4918  0.5353
  440Sol     HW 4716   0.496   2.621   9.089  1.5166 -1.1656  0.5437
  440Sol     HW 4717   0.512   2.541   8.961 -1.1231 -1.5421  0.4317
  440Sol     MW 4718   0.456   2.578   9.021 -0.5124 -0.1424 -0.2673
  441Sol     OW 4719   2.643   2.306   3.002  0.3835 -0.1931  0.2938
  441Sol     HW 4720   2.694   2.257   2.938  2.2977 -0.1389  1.7228
  441Sol     HW 4721   2.694   2.387   3.015 -1.0603  0.7177  0.3525
  441Sol     MW 4722   2.652   2.309   2.997  0.1972  0.0640  0.2712
  442Sol     OW 4723   1.345   0.399   8.327  0.3267 -0.1338 -0.3930
  442Sol     HW 4724   1.401   0.445   8.265 -0.8283  0.3759 -1.0828
  442Sol     HW 4725   1.346   0.453   8.406  0.1982  0.2742 -0.6725
  442Sol     MW 4726   1.350   0.408   8.328  0.1204  0.3883  0.2506
  443Sol     OW 4727   0.937   2.077   3.736 -0.5991  0.1345 -0.8781
  443Sol     HW 4728   0.992   2.144   3.776  0.2399  0.5949 -2.7610
  443Sol     HW 4729   0.851   2.117   3.730 -0.7083  0.1089  0.3033
  443Sol     MW 4730   0.934   2.086   3.739 -0.3383 -0.3131  0.4136
  444Sol     OW 4731   0.270   2.775   9.779 -0.3615 -0.3604  0.3695
  444Sol     HW 4732   0.344   2.814   9.733  0.3096 -0.6132  1.2323
  444Sol     HW 4733   0.193   2.810   9.734  0.2502  1.0405  0.3951
  444Sol     MW 4734   0.269   2.781   9.770  0.4472 -0.0379  0.2039
  445Sol     OW 4735   1.731   1.131   2.172 -0.2388 -0.3165 -0.0849
  445Sol     HW 4736   1.719   1.045   2.213 -0.7470 -0.2089 -0.0046
  445Sol     HW 4737   1.799   1.117   2.106  0.0612 -0.6569  0.2954
  445Sol     MW 4738   1.736   1.122   2.170  0.4124  0.1982  0.6661
  446Sol     OW 4739   2.618   1.868   5.902  0.1629 -0.0339  0.4024
  446Sol     HW 4740   2.676   1.860   5.978  2.0739  2.5357 -0.6949
  446Sol     HW 4741   2.605   1.963   5.892  0.0281 -0.2996 -2.4798
  446Sol     MW 4742   2.622   1.876   5.908 -0.2157 -0.4990  0.2313
  447Sol     OW 4743   1.152   1.256   4.205 -0.0347 -0.4796  0.3426
  447Sol     HW 4744   1.184   1.334   4.159 -0.9037 -0.6982 -0.6562
  447Sol     HW 4745   1.148   1.189   4.137  0.7568 -1.4101  1.2115
  447Sol     MW 4746   1.155   1.257   4.195  0.0979  0.2398 -0.5991
  448Sol     OW 4747   0.583   3.088   9.560 -0.5860 -0.1455  0.2035
  448Sol     HW 4748   0.607   3.020   9.623  0.0005  0.4976  0.6925
  448Sol     HW 4749   0.554   3.162   9.615 -1.4024 -0.0623 -0.3205
  448Sol     MW 4750   0.582   3.089   9.571  0.0882 -0.6929 -0.1664
  449Sol     OW 4751   0.343   1.412   9.134 -0.0082 -0.2677 -0.0440
  449Sol     HW 4752   0.392   1.493   9.122 -0.5494  0.1668  0.6455
  449Sol     HW 4753   0.314   1.415   9.225 -2.1969 -0.0094 -0.7263
  449Sol     MW 4754   0.345   1.420   9.141 -0.2055  0.8339  0.2455
  450Sol     OW 4755   2.252   2.405   9.428  0.3048 -0.2883  0.1814
  450Sol     HW 4756   2.345   2.386   9.416  0.2442 -0.7149  0.3700
  450Sol     HW 4757   2.232   2.374   9.516  0.0871  0.2096  0.3055
  450Sol     MW 4758   2.258   2.400   9.435 -0.6215 -0.3130  0.0326
  451Sol     OW 4759   1.305   2.394   1.637 -0.7126 -0.1338  0.1874
  451Sol     HW 4760   1.213   2.385   1.661 -0.5983 -2.3036 -0.1567
  451Sol     HW 4761   1.352   2.393   1.720 -0.9185 -0.0587  0.3042
  451Sol     MW 4762   1.301   2.393   1.646  0.6605 -0.4440  0.4298
  452Sol     OW 4763   0.809   0.305   3.472 -0.3226 -0.1274  0.3394
  452Sol     HW 4764   0.753   0.251   3.527 -0.5650  0.4570  0.6779
  452Sol     HW 4765   0.893   0.260   3.470 -1.2903 -1.9198 -1.5600
  452Sol     MW 4766   0.811   0.296   3.476 -0.0352  0.2288 -0.3035
  453Sol     OW 4767   0.246   1.822   8.780 -0.1045 -0.3787  0.0176
  453Sol     HW 4768   0.287   1.754   8.727 -0.7729 -1.4704  0.8767
  453Sol     HW 4769   0.159   1.834   8.743  0.9990  2.0872 -1.9311
  453Sol     MW 4770   0.242   1.817   8.772  0.1645 -0.1735 -0.3618
  454Sol     OW 4771   2.181   0.189   8.710  0.5709 -0.1533 -0.2138
  454Sol     HW 4772   2.100   0.189   8.761 -0.6549  2.2739 -2.0813
  454Sol     HW 4773   2.212   0.098   8.715 -1.4276 -0.7766  1.7858
  454Sol     MW 4774   2.177   0.181   8.715 -0.0012  0.5090  0.6731
  455Sol     OW 4775   1.221   0.145   4.924 -0.7051 -0.3240  0.0513
  455Sol     HW 4776   1.293   0.164   4.864 -1.6400  1.2749 -0.6107
  455Sol     HW 4777   1.264   0.121   5.006  0.5798 -0.4205 -0.6330
  455Sol     MW 4778   1.231   0.144   4.926 -0.6431  0.1053 -0.2154
  456Sol     OW 4779   2.041   2.853   5.021  0.1376  0.2114  0.5863
  456Sol     HW 4780   1.951   2.857   5.054 -0.3222 -0.7634 -0.5327
  456Sol     HW 4781   2.089   2.806   5.090 -0.7934 -1.6993 -0.0157
  456Sol     MW 4782   2.038   2.849   5.030  0.0029  0.0764 -0.3481
  457Sol     OW 4783   0.734   1.724   5.904 -0.3360 -0.5976  0.3542
  457Sol     HW 4784   0.670   1.659   5.935 -1.4233  0.2405 -0.1267
  457Sol     HW 4785   0.695   1.808   5.926 -0.1151 -0.0435 -1.3549
  457Sol     MW 4786   0.724   1.725   5.909  0.5109  0.7484 -0.1628
  458Sol     OW 4787   0.691   1.684   2.903 -0.4009 -0.1937 -0.0752
  458Sol     HW 4788   0.645   1.605   2.876 -1.2182 -0.5736  2.2972
  458Sol     HW 4789   0.784   1.665   2.888 -0.4786 -2.1322  1.7689
  458Sol     MW 4790   0.695   1.675   2.899  0.0880 -0.1113  0.1143
  459Sol     OW 4791   0.378   1.203   4.399  0.1203  0.1160  0.1241
  459Sol     HW 4792   0.409   1.170   4.484  0.5775  0.9741  0.2915
  459Sol     HW 4793   0.417   1.290   4.391 -0.0737  0.1118 -0.8892
  459Sol     MW 4794   0.384   1.208   4.406  0.0163 -0.2486 -0.7235
  460Sol     OW 4795   0.958   1.572   4.199  0.2385 -0.4362  1.1788
  460Sol     HW 4796   1.003   1.488   4.207  0.9780 -0.0600  0.9978
  460Sol     HW 4797   1.009   1.632   4.254  1.6531  0.6703 -1.2476
  460Sol     MW 4798   0.966   1.570   4.205 -0.1936  0.6569 -0.8142
  461Sol     OW 4799   0.576   2.951   9.800  0.2310 -0.5334  0.0580
  461Sol     HW 4800   0.573   2.866   9.842  0.9406 -0.7922 -0.4004
  461Sol     HW 4801   0.560   3.014   9.871  1.1021 -0.9809  0.6565
  461Sol     MW 4802   0.574   2.949   9.810 -0.3499 -0.2417 -0.1377
  462Sol     OW 4803   2.815   3.153   4.716 -0.3451  0.6417  0.2669
  462Sol     HW 4804   2.736   3.175   4.765 -1.2785  1.0626 -1.3744
  462Sol     HW 4805   2.876   3.225   4.736 -1.0343  1.2740  0.1340
  462Sol     MW 4806   2.814   3.162   4.722 -0.2088 -0.0065  0.4094
  463Sol     OW 4807   0.225   0.325   7.196  0.4371 -0.4428  0.0363
  463Sol     HW 4808   0.234   0.411   7.153  0.6341 -0.8660 -0.7897
  463Sol     HW 4809   0.130   0.309   7.197  0.3863 -0.1163  0.3858
  463Sol     MW 4810   0.217   0.331   7.192 -0.4738 -0.0285 -0.2311
  464Sol     OW 4811   0.949   3.052   9.424 -0.0934 -0.9145  1.0950
  464Sol     HW 4812   0.945   3.023   9.515  0.3823  0.1120  1.4530
  464Sol     HW 4813   0.860   3.080   9.403 -0.2653 -1.4120  1.1475
  464Sol     MW 4814   0.941   3.052   9.430  0.0455 -0.0033 -0.2497
  465Sol     OW 4815   1.985   0.128   6.886 -0.1191 -0.1245  0.2301
  465Sol     HW 4816   1.912   0.128   6.823 -0.4191  1.6956  0.5290
  465Sol     HW 4817   1.965   0.056   6.945 -1.2247 -0.2056 -0.2176
  465Sol     MW 4818   1.976   0.122   6.885 -0.2842  0.0080 -0.0786
  466Sol     OW 4819   0.149   1.905   6.205  0.0629 -0.0035  0.0436
  466Sol     HW 4820   0.187   1.818   6.190  0.4018  0.2086 -0.3350
  466Sol     HW 4821   0.195   1.962   6.144  0.6595  0.6678  1.1140
  466Sol     MW 4822   0.156   1.902   6.198 -0.0277 -0.1401  0.1661
  467Sol     OW 4823   1.798   0.582   6.161 -0.0959 -0.5782 -0.5090
  467Sol     HW 4824   1.767   0.664   6.199 -0.3591 -0.2391 -1.4381
  467Sol     HW 4825   1.795   0.519   6.234  2.1009  0.7275  0.7325
  467Sol     MW 4826   1.795   0.584   6.171 -0.0514  0.0230 -0.4491
  468Sol     OW 4827   1.406   3.124   9.395 -0.0787 -1.0509 -0.6978
  468Sol     HW 4828   1.427   3.095   9.484 -0.2157 -2.2465 -1.0514
  468Sol     HW 4829   1.319   3.164   9.402  1.0986  1.4791  0.2494
  468Sol     MW 4830   1.400   3.125   9.403 -0.0843  0.1749 -0.1900
  469Sol     OW 4831   2.131   1.812   8.062  0.3528 -0.3069  0.5078
  469Sol     HW 4832   2.050   1.817   8.113  0.1940 -1.0354  0.3362
  469Sol     HW 4833   2.104   1.831   7.972  0.2607 -1.1400  0.3508
  469Sol     MW 4834   2.121   1.814   8.058 -0.9312  0.2593 -0.7716
  470Sol     OW 4835   2.460   0.632   9.969 -0.1996 -0.0003 -0.4467
  470Sol     HW 4836   2.488   0.633   9.877 -1.5764  1.4403 -0.8658
  470Sol     HW 4837   2.508   0.705  10.009  1.6766 -1.6483  0.3977
  470Sol     MW 4838   2.467   0.639   9.964 -0.3001  0.0989  0.4573
  471Sol     OW 4839   0.193   0.260   2.665  0.1172  0.0931  0.3440
  471Sol     HW 4840   0.145   0.182   2.693  1.7591 -1.0855 -0.0728
  471Sol     HW 4841   0.124   0.323   2.641 -1.2214 -1.4840 -0.0709
  471Sol     MW 4842   0.182   0.259   2.666 -0.1761 -0.5660  0.2078
  472Sol     OW 4843   1.284   0.041   1.552 -0.2061 -0.0877  0.1850
  472Sol     HW 4844   1.272   0.050   1.647 -2.0775 -0.0759 -0.0341
  472Sol     HW 4845   1.377   0.054   1.539  0.1293 -0.3898  2.0693
  472Sol     MW 4846   1.291   0.043   1.559  0.1481 -0.0155 -0.2390
  473Sol     OW 4847   2.920   0.380   7.477  0.5352 -0.4073  0.1386
  473Sol     HW 4848   2.896   0.355   7.388 -0.9569 -0.0691  0.4270
  473Sol     HW 4849   2.964   0.464   7.467 -0.0916 -0.1221 -0.2256
  473Sol     MW 4850   2.922   0.385   7.468 -0.4705  0.1346 -0.1890
  474Sol     OW 4851   3.124   0.048   5.867 -0.0136 -0.2863  0.1255
  474Sol     HW 4852   3.104   0.118   5.804  0.1527  0.5807  1.0151
  474Sol     HW 4853   3.199   0.082   5.917 -0.4464 -0.7505  1.1115
  474Sol     MW 4854   3.129   0.058   5.866 -0.4861  0.2724  0.4795
  475Sol     OW 4855   0.525   0.360   9.734 -0.9661  0.7401  0.1871
  475Sol     HW 4856   0.608   0.317   9.750  0.4903  3.2745 -0.2495
  475Sol     HW 4857   0.461   0.289   9.728  1.0929 -1.2127  0.8807
  475Sol     MW 4858   0.527   0.350   9.735 -0.1180  0.0704  0.4951
  476Sol     OW 4859   1.926   2.205   9.191  0.1841 -0.1863 -0.0208
  476Sol     HW 4860   1.855   2.148   9.162  1.2490 -1.4216 -0.2766
  476Sol     HW 4861   1.997   2.145   9.215  0.9569  0.9951  0.7282
  476Sol     MW 4862   1.926   2.195   9.190  0.1945  0.0566 -0.3090
  477Sol     OW 4863   1.791   2.476   8.257  0.1621  0.2209  0.1354
  477Sol     HW 4864   1.789   2.384   8.284 -1.6620  0.7008  1.6964
  477Sol     HW 4865   1.787   2.525   8.339  0.5937  1.7182 -0.7178
  477Sol     MW 4866   1.791   2.472   8.267 -0.2251 -0.2230  0.3741
  478Sol     OW 4867   0.177   1.912   9.248 -0.4417 -0.0505 -0.0609
  478Sol     HW 4868   0.200   1.850   9.178 -0.1051  0.8625 -0.7615
  478Sol     HW 4869   0.133   1.984   9.203 -1.6964 -0.2222  0.8720
  478Sol     MW 4870   0.175   1.913   9.238  0.2536  0.2540 -0.0927
  479Sol     OW 4871   0.823   2.698   4.286  0.2944 -0.2433 -0.0680
  479Sol     HW 4872   0.787   2.666   4.203  1.2229  0.0204 -0.5818
  479Sol     HW 4873   0.794   2.789   4.291 -0.7092 -0.5861  0.4475
  479Sol     MW 4874   0.817   2.703   4.279  0.3968  0.1112 -0.3518
  480Sol     OW 4875   1.054   3.330   9.142 -0.6946 -0.2609 -0.3285
  480Sol     HW 4876   1.047   3.393   9.070 -1.2304 -1.0749 -1.0011
  480Sol     HW 4877   0.965   3.323   9.177 -0.4361  0.1330  0.4161
  480Sol     MW 4878   1.045   3.335   9.139 -0.3115 -0.3202 -0.1478
  481Sol     OW 4879   0.496   1.627   9.058  0.4947  0.5599 -0.2222
  481Sol     HW 4880   0.536   1.706   9.097  0.3359  0.7010 -0.3438
  481Sol     HW 4881   0.566   1.563   9.058  0.8633  0.9564 -0.8759
  481Sol     MW 4882   0.506   1.629   9.062 -0.3764 -0.1009  1.1864
  482Sol     OW 4883   0.122   2.593   6.230  0.4046  0.4575  0.3864
  482Sol     HW 4884   0.191   2.652   6.260  1.8332 -0.5869 -0.7407
  482Sol     HW 4885   0.084   2.637   6.154  0.5911  0.5235  0.3311
  482Sol     MW 4886   0.125   2.602   6.226 -0.1361  0.0190 -0.0332
  483Sol     OW 4887   2.544   2.615   9.589 -0.3483  0.3249 -0.5641
  483Sol     HW 4888   2.603   2.541   9.569 -0.4074 -0.0948  0.8083
  483Sol     HW 4889   2.583   2.657   9.665 -1.9846 -0.1295  0.5381
  483Sol     MW 4890   2.553   2.612   9.594 -0.6037  0.1966  0.2575
  484Sol     OW 4891   2.183   1.485   5.139  0.1910 -0.2480 -0.5530
  484Sol     HW 4892   2.157   1.500   5.049 -1.3846 -2.3930 -0.4842
  484Sol     HW 4893   2.112   1.520   5.192 -0.4345 -1.9163 -0.2488
  484Sol     MW 4894   2.175   1.489   5.136 -0.1218 -0.1174  0.6107
  485Sol     OW 4895   2.134   3.385   5.583 -0.3885 -0.2826 -0.1910
  485Sol     HW 4896   2.051   3.341   5.595 -0.6663  0.4240  0.5541
  485Sol     HW 4897   2.200   3.321   5.612 -0.6969 -0.7024 -0.4213
  485Sol     MW 4898   2.133   3.375   5.587  0.6774 -0.2277 -0.4445
  486Sol     OW 4899   1.744   2.063   1.670 -1.3962  0.0642 -0.0967
  486Sol     HW 4900   1.719   2.066   1.762 -1.5859  1.7610 -0.1924
  486Sol     HW 4901   1.663   2.079   1.622 -1.5088 -1.8935 -0.6059
  486Sol     MW 4902   1.735   2.064   1.674  0.2399 -0.1067  0.0256
  487Sol     OW 4903   2.196   1.715   8.559 -0.3291 -0.1203  0.4690
  487Sol     HW 4904   2.162   1.715   8.470  0.4782  0.3844  0.1583
  487Sol     HW 4905   2.149   1.644   8.603  0.2670 -1.2921 -0.7439
  487Sol     MW 4906   2.189   1.708   8.555 -0.0746 -0.1938 -0.1525
  488Sol     OW 4907   1.059   0.660   5.059 -0.0906  0.0546  0.2513
  488Sol     HW 4908   1.133   0.651   5.119 -0.4104  1.0721  0.8070
  488Sol     HW 4909   0.989   0.607   5.099  0.0913 -0.2793  0.1273
  488Sol     MW 4910   1.059   0.654   5.068  0.6726 -0.6136  0.8027
  489Sol     OW 4911   2.651   1.867   7.385 -0.0750 -0.6653  0.2713
  489Sol     HW 4912   2.663   1.926   7.311  2.3139 -2.3463 -0.7596
  489Sol     HW 4913   2.647   1.924   7.462 -0.9043  0.9878 -0.9618
  489Sol     MW 4914   2.652   1.877   7.385  0.4197  0.1842 -0.4114
  490Sol     OW 4915   0.249   0.859   4.771  0.1951  0.0306 -0.4331
  490Sol     HW 4916   0.253   0.944   4.815 -0.5713 -0.2590  0.2291
  490Sol     HW 4917   0.339   0.827   4.769  0.2597  0.1051  0.8479
  490Sol     MW 4918   0.257   0.863   4.775  0.4070  0.0237  0.0458
  491Sol     OW 4919   3.143   2.965   5.945  0.4092 -0.6337  0.0673
  491Sol     HW 4920   3.072   2.991   6.005  0.0150 -1.6773  0.0636
  491Sol     HW 4921   3.126   3.014   5.865  0.9908  0.8492  0.8290
  491Sol     MW 4922   3.135   2.972   5.943  0.2861  0.3039  0.6004
  492Sol     OW 4923   1.980   0.874   9.849  0.1326  0.6700  0.2525
  492Sol     HW 4924   1.894   0.898   9.882  0.5811  1.5950  0.7601
  492Sol     HW 4925   1.999   0.790   9.891 -0.1377  0.9010  0.8454
  492Sol     MW 4926   1.974   0.869   9.856  0.3425 -0.2301 -0.3575
  493Sol     OW 4927   2.936   0.770   4.191 -0.2743 -0.0843  0.2063
  493Sol     HW 4928   2.967   0.746   4.279 -2.6335  0.8637  1.3360
  493Sol     HW 4929   2.966   0.860   4.179  1.0605 -0.5996 -0.4770
  493Sol     MW 4930   2.942   0.776   4.198 -0.0511 -0.5403  0.1405
  494Sol     OW 4931   0.870   2.579   8.439  0.5389 -0.7660 -0.6893
  494Sol     HW 4932   0.850   2.661   8.486 -0.6323 -1.5668  0.2419
  494Sol     HW 4933   0.846   2.598   8.348  0.5412  0.0247 -0.5344
  494Sol     MW 4934   0.866   2.588   8.435 -0.7445  0.1280 -0.6143
  495Sol     OW 4935   2.532   2.970   7.032  0.2901  0.0874 -1.0013
  495Sol     HW 4936   2.565   3.011   7.113  1.2234 -1.2824 -0.6540
  495Sol     HW 4937   2.525   3.042   6.970  0.1505  1.0701  0.1272
  495Sol     MW 4938   2.534   2.980   7.034 -0.2327  0.5219 -0.6560
  496Sol     OW 4939   1.854   1.238   4.048 -0.2600  0.0087 -0.0174
  496Sol     HW 4940   1.843   1.311   4.108 -0.3357 -1.4024  1.7476
  496Sol     HW 4941   1.776   1.239   3.993 -0.8971  0.4720  0.8817
  496Sol     MW 4942   1.846   1.244   4.049  0.1132 -1.0042  0.0442
  497Sol     OW 4943   1.201   1.051   7.101 -0.2184 -0.0928 -0.7860
  497Sol     HW 4944   1.197   0.998   7.180  0.4122  0.7762 -0.1640
  497Sol     HW 4945   1.121   1.103   7.102 -0.7030 -0.8275 -1.2532
  497Sol     MW 4946   1.194   1.051   7.108 -0.6883 -0.3427  0.3922
  498Sol     OW 4947   2.174   2.534   9.174  0.3208  0.0773  0.5567
  498Sol     HW 4948   2.189   2.476   9.249 -1.0273 -0.4313  0.4544
  498Sol     HW 4949   2.117   2.483   9.116  0.9284  0.6666 -0.5768
  498Sol     MW 4950   2.170   2.524   9.175 -0.1843 -0.8140  0.2377
  499Sol     OW 4951   3.115   2.122   5.598 -0.2835  0.6646  0.2501
  499Sol     HW 4952   3.058   2.130   5.521 -0.5510  1.7204  0.5391
  499Sol     HW 4953   3.062   2.075   5.662 -0.3408  0.4559  0.0483
  499Sol     MW 4954   3.105   2.119   5.597 -0.0749 -0.1990 -0.0257
  500Sol     OW 4955   2.142   1.188   1.614 -0.0969  0.3249 -1.1663
  500Sol     HW 4956   2.143   1.092   1.614  1.2118  0.2794  1.4331
  500Sol     HW 4957   2.223   1.213   1.569 -0.6142  0.2287 -2.1621
  500Sol     MW 4958   2.150   1.181   1.610  0.0205  0.1508 -0.3499
  501Sol     OW 4959   2.229   0.669   4.726 -0.0242  0.2881  0.4690
  501Sol     HW 4960   2.193   0.648   4.640  1.0003 -0.8267  0.3161
  501Sol     HW 4961   2.284   0.746   4.711 -0.0042  0.2163  0.1748
  501Sol     MW 4962   2.230   0.674   4.717  0.2571  0.0672  0.0889
  502Sol     OW 4963   3.116   2.652   9.083  0.1693 -0.1085 -0.2684
  502Sol     HW 4964   3.075   2.738   9.088 -0.7439 -0.3893 -2.4279
  502Sol     HW 4965   3.210   2.670   9.077  0.1092  0.6600  0.9076
  502Sol     MW 4966   3.121   2.661   9.083  0.2734 -0.1452 -0.4241
  503Sol     OW 4967   1.130   0.136   6.012  0.4463  0.3157 -0.4147
  503Sol     HW 4968   1.165   0.070   6.072  0.7028 -1.2665 -2.2483
  503Sol     HW 4969   1.040   0.151   6.043  1.1707  0.8944  1.4564
  503Sol     MW 4970   1.125   0.131   6.020  0.0422 -0.2762 -0.1270
  504Sol     OW 4971   2.098   1.548   1.942 -0.2386  0.4702 -0.1221
  504Sol     HW 4972   2.003   1.536   1.941 -0.0920 -0.9680  1.2879
  504Sol     HW 4973   2.110   1.643   1.950 -1.5809  0.5061  1.8124
  504Sol     MW 4974   2.090   1.555   1.943  0.6502  0.4703  0.2213
  505Sol     OW 4975   0.234   2.335   4.816  0.0477 -0.2845 -0.2351
  505Sol     HW 4976   0.285   2.302   4.890  0.5932 -0.3058 -0.6187
  505Sol     HW 4977   0.147   2.350   4.852 -0.0476 -1.5764  0.0951
  505Sol     MW 4978   0.231   2.333   4.826 -0.4257 -0.0807 -0.3257
  506Sol     OW 4979   1.918   3.390   6.032  0.0881  0.4177  0.3309
  506Sol     HW 4980   1.881   3.466   5.986  1.6008  0.5084 -0.7778
  506Sol     HW 4981   2.008   3.416   6.051  0.9379 -1.4921 -0.9786
  506Sol     MW 4982   1.923   3.399   6.030  0.2301  0.2287  0.2090
  507Sol     OW 4983   1.347   3.403   5.140  0.1079 -0.0215  0.4399
  507Sol     HW 4984   1.398   3.456   5.201  0.6074  0.8528 -0.7128
  507Sol     HW 4985   1.257   3.407   5.174  0.2302  1.1432  0.6482
  507Sol     MW 4986   1.343   3.408   5.149 -0.4485 -0.7002 -0.7881
  508Sol     OW 4987   1.991   0.077   3.863 -0.1730 -0.0799  0.8994
  508Sol     HW 4988   1.965   0.007   3.804 -0.4445 -0.8002  1.8608
  508Sol     HW 4989   1.998   0.154   3.807 -0.3823 -0.7592 -0.0751
  508Sol     MW 4990   1.989   0.078   3.853  0.2832  0.1955  0.4802
  509Sol     OW 4991   3.188   0.497   4.367  0.0386 -0.5062 -0.2619
  509Sol     HW 4992   3.211   0.521   4.277 -0.3909 -0.7592 -0.4390
  509Sol     HW 4993   3.115   0.555   4.389  1.3105  0.8278  0.5683
  509Sol     MW 4994   3.183   0.504   4.361  0.3526  0.7601  0.4554
  510Sol     OW 4995   1.141   1.205   8.010  0.4249  0.3019 -0.1696
  510Sol     HW 4996   1.186   1.244   8.085 -0.0807 -1.1750  0.9138
  510Sol     HW 4997   1.209   1.200   7.942  0.3966  3.4277 -0.5010
  510Sol     MW 4998   1.151   1.208   8.010 -0.5995 -0.1665 -0.6286
  511Sol     OW 4999   1.255   1.448   4.002 -0.3574  0.1465 -0.2711
  511Sol     HW 5000   1.230   1.404   3.921 -1.5348 -0.2980  0.3202
  511Sol     HW 5001   1.217   1.536   3.995  1.8118  1.0353 -1.3576
  511Sol     MW 5002   1.250   1.452   3.994  0.2576 -0.2674  0.3541
  512Sol     OW 5003   0.710   0.894   8.907  0.3822 -0.3141 -0.4829
  512Sol     HW 5004   0.658   0.827   8.862  0.1177  0.8800 -1.9816
  512Sol     HW 5005   0.758   0.938   8.837  3.0410 -1.0329  0.8098
  512Sol     MW 5006   0.710   0.892   8.897 -0.8312  0.0064 -0.1510
  513Sol     OW 5007   1.957   1.256   6.611 -0.9379 -1.0757 -0.0134
  513Sol     HW 5008   2.026   1.305   6.566  0.7829 -2.4736  1.0177
  513Sol     HW 5009   1.880   1.312   6.606  0.6829  1.2337  0.1810
  513Sol     MW 5010   1.957   1.265   6.607  0.0502  0.6960 -0.0599
  514Sol     OW 5011   2.461   2.656   5.140  0.0647 -0.0092  0.6991
  514Sol     HW 5012   2.457   2.638   5.046 -1.0745  0.4769  0.6411
  514Sol     HW 5013   2.525   2.593   5.174  1.3658  0.6051 -0.5738
  514Sol     MW 5014   2.466   2.648   5.135  0.3591  0.0109  0.1581
  515Sol     OW 5015   2.073   0.915   5.116 -0.1401  0.4752 -0.1203
  515Sol     HW 5016   2.073   0.831   5.070 -1.6366 -0.9919  2.3995
  515Sol     HW 5017   1.989   0.917   5.161  0.7265  2.4219  1.4812
  515Sol     MW 5018   2.066   0.908   5.116  0.1067  0.1319  0.1988
  516Sol     OW 5019   1.611   1.701   3.238  0.7318  0.4805  0.1988
  516Sol     HW 5020   1.558   1.748   3.301  0.6397  0.0089  0.4767
  516Sol     HW 5021   1.639   1.768   3.175  0.6807  0.9169  0.6372
  516Sol     MW 5022   1.609   1.711   3.238  0.3423  0.0356  0.1399
  517Sol     OW 5023   1.878   1.933   5.057 -0.1956  0.1938  0.0831
  517Sol     HW 5024   1.852   1.891   5.139 -1.5746 -0.5008 -0.6869
  517Sol     HW 5025   1.825   1.889   4.990  0.9190  0.7431 -1.1802
  517Sol     MW 5026   1.871   1.925   5.058 -0.0642  0.5592  0.0931
  518Sol     OW 5027   1.737   1.784   6.336  0.9125  0.4268  0.6990
  518Sol     HW 5028   1.681   1.763   6.261 -1.1344  0.8604  2.0530
  518Sol     HW 5029   1.772   1.871   6.316 -0.4147  0.9759  0.6521
  518Sol     MW 5030   1.735   1.790   6.328 -0.1462 -0.3214  0.2646
  519Sol     OW 5031   0.919   2.094   6.002 -0.5418  0.3981  0.6931
  519Sol     HW 5032   0.910   2.023   5.939  0.3367 -1.5311  2.6626
  519Sol     HW 5033   0.845   2.082   6.062 -1.0819  1.8944  0.3315
  519Sol     MW 5034   0.912   2.086   6.002  0.0365  0.4265 -0.2854
  520Sol     OW 5035   1.517   0.599   8.819 -0.1669  0.2801  0.0777
  520Sol     HW 5036   1.559   0.517   8.792  0.9888  0.2431  1.8405
  520Sol     HW 5037   1.540   0.662   8.751 -2.5267 -1.2330 -2.2287
  520Sol     MW 5038   1.523   0.597   8.811  0.4707 -1.1509 -0.2419
  521Sol     OW 5039   2.310   3.194   7.193  0.2091  0.0623 -0.2612
  521Sol     HW 5040   2.393   3.159   7.226  0.4723  0.1246 -0.8612
  521Sol     HW 5041   2.244   3.135   7.229  0.4506  0.4299  0.8142
  521Sol     MW 5042   2.312   3.186   7.199 -0.6756  0.2832  0.2166
  522Sol     OW 5043   1.832   1.033   6.450 -0.1011  0.0175  0.2991
  522Sol     HW 5044   1.743   1.061   6.472 -0.4909  1.6941 -3.0007
  522Sol     HW 5045   1.889   1.088   6.503 -1.0217 -0.3558  1.6848
  522Sol     MW 5046   1.829   1.040   6.456 -0.3781  0.2135  0.2021
  523Sol     OW 5047   1.580   0.146   8.642  0.5017  0.2295 -0.8137
  523Sol     HW 5048   1.538   0.137   8.727 -0.1294 -3.0891 -1.4245
  523Sol     HW 5049   1.508   0.160   8.581  0.8653  1.4461 -0.9809
  523Sol     MW 5050   1.570   0.147   8.644  0.0328  0.3813 -0.5237
  524Sol     OW 5051   0.341   3.289   2.734  0.1198 -0.2071  0.0727
  524Sol     HW 5052   0.326   3.356   2.667  0.3832 -0.9751 -0.7698
  524Sol     HW 5053   0.257   3.245   2.743 -0.1929  0.5561  0.9978
  524Sol     MW 5054   0.332   3.291   2.728  0.3940 -0.2818  0.4206
  525Sol     OW 5055   1.848   3.368   4.552 -0.3695  0.7411 -0.4841
  525Sol     HW 5056   1.931   3.410   4.529 -1.4411  2.4733 -1.2854
  525Sol     HW 5057   1.817   3.415   4.629  0.5562 -1.5141  1.3348
  525Sol     MW 5058   1.853   3.376   4.557  0.2961 -0.1370 -0.2774
  526Sol     OW 5059   2.179   3.162   8.947 -0.3639  0.8220 -0.1026
  526Sol     HW 5060   2.131   3.117   9.016 -0.5152  1.2161  0.0555
  526Sol     HW 5061   2.227   3.093   8.901  0.4463  0.6671  0.9493
  526Sol     MW 5062   2.179   3.152   8.949 -0.0867  0.2274  0.3613
  527Sol     OW 5063   2.261   2.908   2.466 -0.7075 -0.1432  0.1700
  527Sol     HW 5064   2.192   2.907   2.533 -0.3864  0.0239  0.5064
  527Sol     HW 5065   2.306   2.991   2.480 -1.3288  0.3931 -0.9691
  527Sol     MW 5066   2.259   2.915   2.473  0.8764 -0.2247 -0.6042
  528Sol     OW 5067   2.845   1.126   2.910  0.6745  0.2435 -0.2770
  528Sol     HW 5068   2.756   1.102   2.938  1.1496  0.9118  1.9029
  528Sol     HW 5069   2.887   1.042   2.890 -0.3484 -0.0904 -1.0809
  528Sol     MW 5070   2.841   1.116   2.911  0.1563 -0.4059  0.0235
  529Sol     OW 5071   1.527   0.259   5.806 -0.3494 -0.0162  0.1005
  529Sol     HW 5072   1.554   0.169   5.790  1.5949  0.8705 -1.9066
  529Sol     HW 5073   1.600   0.312   5.772 -1.6796  2.3025  0.7838
  529Sol     MW 5074   1.536   0.256   5.801 -0.3956 -0.0488  0.2289
  530Sol     OW 5075   1.249   1.414   7.200 -0.2410 -0.0061 -0.1901
  530Sol     HW 5076   1.240   1.508   7.184  0.5523 -0.1354 -1.5383
  530Sol     HW 5077   1.167   1.376   7.170 -0.2139  0.1660 -0.4850
  530Sol     MW 5078   1.241   1.419   7.196 -0.9294  0.3859 -0.4178
  531Sol     OW 5079   0.304   0.147  10.056  0.4266  0.2812  0.3911
  531Sol     HW 5080   0.285   0.054  10.057  0.8918  0.1489 -1.2233
  531Sol     HW 5081   0.231   0.188  10.103 -0.8346 -0.7079 -0.6901
  531Sol     MW 5082   0.296   0.142  10.060  0.3841 -0.2401 -0.2172
  532Sol     OW 5083   2.499   0.345   4.557  0.2143  0.2599 -0.1377
  532Sol     HW 5084   2.553   0.346   4.478  0.2069  3.3397 -0.1886
  532Sol     HW 5085   2.529   0.268   4.606  1.0676 -0.9850 -2.5399
  532Sol     MW 5086   2.507   0.338   4.555  0.0164 -0.0578  0.3629
  533Sol     OW 5087   1.540   2.935   5.893  0.2924 -0.0816 -0.2930
  533Sol     HW 5088   1.521   2.949   5.801 -0.8133  0.0233 -0.0554
  533Sol     HW 5089   1.454   2.925   5.935  0.7460  0.4110  0.8001
  533Sol     MW 5090   1.531   2.936   5.889 -0.4923  0.6508  0.0777
  534Sol     OW 5091   2.325   0.929   4.419  0.2567 -0.1070 -0.0197
  534Sol     HW 5092   2.298   0.842   4.445 -0.2547  0.3450  0.9965
  534Sol     HW 5093   2.251   0.963   4.368 -0.4349  0.5155  1.3745
  534Sol     MW 5094   2.316   0.925   4.417 -0.1713  0.3949  0.1919
  535Sol     OW 5095   1.294   2.342   7.187 -0.0102 -0.1367 -0.2728
  535Sol     HW 5096   1.290   2.437   7.198 -0.2536 -0.1228 -0.4665
  535Sol     HW 5097   1.365   2.328   7.124  2.0028 -0.2786  1.9721
  535Sol     MW 5098   1.300   2.349   7.182 -0.5849 -0.5484 -0.2505
  536Sol     OW 5099   1.540   0.559   4.698 -0.0649  0.3481 -0.7003
  536Sol     HW 5100   1.576   0.511   4.623  0.5263  1.2711 -1.0073
  536Sol     HW 5101   1.614   0.570   4.757 -0.4251  0.0356 -0.1885
  536Sol     MW 5102   1.550   0.556   4.696 -0.0386 -0.1029  0.5539
  537Sol     OW 5103   2.585   1.342   6.917  1.1669  0.1846 -0.3089
  537Sol     HW 5104   2.668   1.343   6.965  1.7177  0.5735 -1.2689
  537Sol     HW 5105   2.602   1.392   6.838 -0.0089  0.3238 -0.4849
  537Sol     MW 5106   2.594   1.347   6.915 -0.1465 -0.2596 -0.2140
  538Sol     OW 5107   2.143   0.666   4.989  0.1874 -0.7642  0.2964
  538Sol     HW 5108   2.168   0.576   5.012 -3.6005 -2.2792 -1.0548
  538Sol     HW 5109   2.171   0.676   4.898  1.1852 -0.3089  0.6440
  538Sol     MW 5110   2.148   0.659   4.983  0.0885 -0.0966 -0.0037
  539Sol     OW 5111   0.316   2.531   9.596 -0.0124 -0.2860 -0.3060
  539Sol     HW 5112   0.224   2.532   9.572  0.0867 -0.9862 -0.7459
  539Sol     HW 5113   0.317   2.501   9.687 -0.3691  2.0655  0.4972
  539Sol     MW 5114   0.308   2.528   9.602  0.3898 -0.5779  0.2561
  540Sol     OW 5115   2.870   1.078   4.216 -0.0829  0.3564 -0.4257
  540Sol     HW 5116   2.790   1.113   4.176  0.2286  1.5878  0.0379
  540Sol     HW 5117   2.920   1.155   4.242  0.4227 -0.4258  0.9436
  540Sol     MW 5118   2.867   1.088   4.215  0.1309  0.4275  0.0484
  541Sol     OW 5119   1.038   1.759   6.375  0.1968 -0.7271  0.2947
  541Sol     HW 5120   1.024   1.853   6.367 -0.0409 -0.6970  1.0309
  541Sol     HW 5121   1.067   1.731   6.288  0.6634  0.0949  0.1811
  541Sol     MW 5122   1.040   1.765   6.367 -0.0817 -0.0673  0.5608
  542Sol     OW 5123   1.598   1.093   6.816 -0.2361  0.2395  0.1345
  542Sol     HW 5124   1.575   1.186   6.812  0.4380  0.3155 -3.5188
  542Sol     HW 5125   1.687   1.092   6.851 -0.4955  0.9239  0.8306
  542Sol     MW 5126   1.604   1.102   6.819  0.6679  0.3711 -0.3107
  543Sol     OW 5127   0.917   0.582   7.098  0.0383 -0.7087  0.2208
  543Sol     HW 5128   0.991   0.521   7.100  2.6038  2.2722  1.4417
  543Sol     HW 5129   0.901   0.597   7.005  4.0544  1.9716 -0.1823
  543Sol     MW 5130   0.923   0.578   7.090 -0.1017  0.0838  0.5936
  544Sol     OW 5131   2.573   2.511   9.966  0.2353  0.0665  0.6301
  544Sol     HW 5132   2.624   2.458   9.904 -0.8350 -0.6352  0.3184
  544Sol     HW 5133   2.570   2.598   9.927 -0.5782 -0.4128 -0.4132
  544Sol     MW 5134   2.577   2.514   9.957 -0.3147  0.3337 -0.3627
  545Sol     OW 5135   2.734   1.507   6.169 -0.3454  0.2320  0.0919
  545Sol     HW 5136   2.639   1.503   6.174 -0.3631  0.8069  0.2058
  545Sol     HW 5137   2.763   1.513   6.260 -0.4460  5.5065 -0.1215
  545Sol     MW 5138   2.728   1.507   6.177 -0.2042  0.4768  0.4728
  546Sol     OW 5139   0.644   2.546   2.822 -0.1364  0.3890  0.1211
  546Sol     HW 5140   0.688   2.486   2.762  0.7577  2.1389 -1.0193
  546Sol     HW 5141   0.715   2.591   2.867 -0.8014 -0.3767  1.9905
  546Sol     MW 5142   0.654   2.544   2.820  0.0577  0.2830  0.4450
  547Sol     OW 5143   0.312   2.612  10.008 -0.7321 -0.0528  0.7378
  547Sol     HW 5144   0.324   2.537   9.950  1.8794  0.6884  0.2762
  547Sol     HW 5145   0.269   2.678   9.953  1.0241  0.3646 -0.1781
  547Sol     MW 5146   0.309   2.611   9.998 -0.2717 -0.6032  0.0882
  548Sol     OW 5147   3.108   2.511   5.502 -0.1461 -0.4047 -0.1815
  548Sol     HW 5148   3.185   2.529   5.555 -0.5315  0.1545  0.1985
  548Sol     HW 5149   3.035   2.508   5.564 -0.2990 -1.9032 -0.4158
  548Sol     MW 5150   3.108   2.512   5.512  0.1075 -0.6788 -0.8201
  549Sol     OW 5151   0.884   2.755   2.349  0.2223  0.1074 -1.0716
  549Sol     HW 5152   0.894   2.684   2.412 -1.4803  0.4121 -0.4217
  549Sol     HW 5153   0.929   2.724   2.270  1.3789 -0.7497 -0.0757
  549Sol     MW 5154   0.889   2.746   2.347 -0.5874  0.2169 -0.5185
  550Sol     OW 5155   1.606   2.046   5.095  0.1903 -0.4181 -0.2427
  550Sol     HW 5156   1.690   2.052   5.140 -0.7581  0.1477  1.4963
  550Sol     HW 5157   1.602   2.123   5.040  0.6216 -0.1990  0.0302
  550Sol     MW 5158   1.613   2.053   5.094 -0.1186 -0.1823  0.5166
  551Sol     OW 5159   1.787   2.281   7.544  0.5537 -0.1480  0.0607
  551Sol     HW 5160   1.825   2.214   7.487  0.0435 -1.9783  1.8395
  551Sol     HW 5161   1.861   2.314   7.595  0.6453 -0.0020 -0.1658
  551Sol     MW 5162   1.797   2.278   7.543  0.4097 -0.0272  0.2305
  552Sol     OW 5163   0.823   0.869   1.706 -0.0144  0.1187  0.0771
  552Sol     HW 5164   0.851   0.862   1.615  1.2627 -0.0282  0.4672
  552Sol     HW 5165   0.905   0.869   1.756 -0.5093  3.7237  1.0260
  552Sol     MW 5166   0.833   0.868   1.702 -0.0943  0.6215  0.0900
  553Sol     OW 5167   2.775   3.051   7.890 -0.6944  0.8773 -0.7857
  553Sol     HW 5168   2.834   3.126   7.874  0.3636 -0.4411 -3.3597
  553Sol     HW 5169   2.707   3.060   7.824 -2.6109  1.5409  1.2252
  553Sol     MW 5170   2.774   3.059   7.882 -0.3218 -0.2552  0.6894
  554Sol     OW 5171   0.892   3.219   2.396 -0.4223  0.7675 -1.0437
  554Sol     HW 5172   0.823   3.273   2.357 -1.2537  0.2353 -0.3388
  554Sol     HW 5173   0.927   3.169   2.322 -0.8374  0.9908 -1.3953
  554Sol     MW 5174   0.889   3.219   2.385  0.2941 -0.2061  0.0408
  555Sol     OW 5175   2.084   3.253   9.372 -0.0110 -0.2948  0.0126
  555Sol     HW 5176   2.125   3.281   9.290  2.2002  0.5323  1.3542
  555Sol     HW 5177   2.069   3.159   9.360  3.0076 -0.7882 -0.2675
  555Sol     MW 5178   2.087   3.247   9.363 -0.3536 -0.0853 -0.6640
  556Sol     OW 5179   1.566   0.492   3.834  0.4810 -0.1654 -0.1615
  556Sol     HW 5180   1.596   0.563   3.777  1.3234  0.1122  0.5942
  556Sol     HW 5181   1.596   0.518   3.921  0.4005 -1.2313  0.1949
  556Sol     MW 5182   1.572   0.501   3.837 -0.3692 -1.0747  0.5272
  557Sol     OW 5183   3.048   0.620   3.040  0.4990  0.5637  0.1638
  557Sol     HW 5184   3.031   0.527   3.028  0.8955  0.7481 -2.0712
  557Sol     HW 5185   3.123   0.639   2.984  0.7124  2.1492  0.9340
  557Sol     MW 5186   3.053   0.613   3.034 -0.0230  0.1851  0.1486
  558Sol     OW 5187   1.422   1.339   3.612  0.0247 -0.8425  0.0101
  558Sol     HW 5188   1.405   1.430   3.586  1.0778 -0.0625  1.9783
  558Sol     HW 5189   1.517   1.330   3.607 -0.0782 -1.8805 -0.2305
  558Sol     MW 5190   1.429   1.346   3.609 -0.1556 -0.7108  0.4211
  559Sol     OW 5191   2.152   1.505   6.783  0.4769  0.6111 -0.7608
  559Sol     HW 5192   2.169   1.543   6.869  0.0848 -0.6926 -0.0886
  559Sol     HW 5193   2.110   1.575   6.733  0.0764  1.1487  0.3302
  559Sol     MW 5194   2.150   1.515   6.786 -0.5104 -0.5201 -0.0974
  560Sol     OW 5195   1.904   3.244   3.784 -0.0341 -0.0164  0.2276
  560Sol     HW 5196   1.897   3.200   3.869 -0.9177  1.4305  0.9247
  560Sol     HW 5197   1.844   3.195   3.728  2.3827 -2.5345 -0.2929
  560Sol     MW 5198   1.898   3.235   3.787 -0.2748 -0.2016 -0.4221
  561Sol     OW 5199   0.564   0.001   1.918  0.5342  0.0851 -0.1477
  561Sol     HW 5200   0.495  -0.024   1.979  0.7626  0.7353  0.3812
  561Sol     HW 5201   0.557  -0.062   1.846  0.8333 -1.2628  0.9737
  561Sol     MW 5202   0.557  -0.007   1.917  0.1988 -0.2092 -0.2081
  562Sol     OW 5203   2.890   2.151   2.020  0.1732 -0.7024  0.1155
  562Sol     HW 5204   2.941   2.197   2.086  1.2024 -1.6584 -0.0081
  562Sol     HW 5205   2.821   2.213   1.996  0.8665  0.3379  0.7702
  562Sol     MW 5206   2.888   2.161   2.023 -0.4869  0.0545 -0.1041
  563Sol     OW 5207   1.752   2.767   9.262  0.3784  0.2025  1.0170
  563Sol     HW 5208   1.691   2.706   9.303  0.4343  0.5189  1.5704
  563Sol     HW 5209   1.709   2.852   9.267  0.6063  0.3289  0.8767
  563Sol     MW 5210   1.743   2.769   9.266  0.0394 -0.1385  0.3268
  564Sol     OW 5211   1.369   0.183   9.189 -0.3869 -0.0082  0.7086
  564Sol     HW 5212   1.360   0.224   9.275  0.7653  1.9471 -0.0730
  564Sol     HW 5213   1.400   0.094   9.208 -0.2275  0.3702  2.3108
  564Sol     MW 5214   1.371   0.179   9.199 -0.4375 -0.0360 -0.2987
  565Sol     OW 5215   0.987   0.084   1.864 -0.7665  0.5147 -0.0158
  565Sol     HW 5216   1.073   0.069   1.826 -1.0804 -1.1391 -0.1324
  565Sol     HW 5217   0.940   0.002   1.849 -2.2114  1.2501  0.4261
  565Sol     MW 5218   0.990   0.075   1.860  0.3226 -0.4247  0.0104
  566Sol     OW 5219   0.734   2.443   5.285  0.3080  0.1308 -0.4303
  566Sol     HW 5220   0.659   2.500   5.268 -1.0398 -1.5352 -0.1510
  566Sol     HW 5221   0.731   2.377   5.217  0.1931 -1.2535  0.8840
  566Sol     MW 5222   0.727   2.442   5.278 -0.3300  0.3680 -0.4441
  567Sol     OW 5223   2.452   0.848   3.189  0.7389  0.2065  0.3560
  567Sol     HW 5224   2.416   0.807   3.267 -1.2886  1.1133 -0.0774
  567Sol     HW 5225   2.544   0.823   3.189  1.0311  1.0704  3.6090
  567Sol     MW 5226   2.457   0.842   3.196 -0.0497  0.7498 -0.2040
  568Sol     OW 5227   1.359   2.840   1.732 -0.6979 -0.1661  0.1597
  568Sol     HW 5228   1.274   2.802   1.710 -0.4137  0.1461 -1.5806
  568Sol     HW 5229   1.421   2.793   1.676  0.0911  0.5731  0.4017
  568Sol     MW 5230   1.357   2.833   1.725  0.3124 -0.1137  0.1418
  569Sol     OW 5231   0.127   0.006   5.213  0.6100 -0.2728 -0.3554
  569Sol     HW 5232   0.213   0.041   5.193  0.8354  0.2397  1.3969
  569Sol     HW 5233   0.144  -0.083   5.247  0.2927 -0.8924 -1.8029
  569Sol     MW 5234   0.136   0.001   5.215  0.1023  0.1132  0.0467
  570Sol     OW 5235   0.953   3.211   8.529 -0.4536 -0.0818 -0.6728
  570Sol     HW 5236   0.940   3.305   8.514 -1.0267 -0.1459 -0.5986
  570Sol     HW 5237   0.915   3.169   8.452 -1.1569 -0.2985 -0.2133
  570Sol     MW 5238   0.948   3.216   8.521 -0.0326 -0.1091  0.2554
  571Sol     OW 5239   2.248   2.908   8.848 -0.0573  0.1765 -0.4109
  571Sol     HW 5240   2.239   2.890   8.755  0.3879  1.6280 -0.7461
  571Sol     HW 5241   2.189   2.845   8.891 -1.4755  0.5586 -1.7569
  571Sol     MW 5242   2.242   2.901   8.844 -0.6823 -0.1720 -0.3084
  572Sol     OW 5243   2.122   0.172   5.768  0.2009 -0.4476  0.0682
  572Sol     HW 5244   2.140   0.087   5.728 -1.3282 -0.1777 -1.2618
  572Sol     HW 5245   2.148   0.236   5.701  1.0431  0.1111  0.9325
  572Sol     MW 5246   2.126   0.170   5.758  0.4154  0.1669 -0.2642
  573Sol     OW 5247   1.969   3.264   7.325 -0.1998  0.1880  0.1428
  573Sol     HW 5248   2.035   3.199   7.348 -1.7961 -1.7122 -0.5822
  573Sol     HW 5249   1.886   3.228   7.357 -1.2059  1.5163 -0.8782
  573Sol     MW 5250   1.967   3.255   7.329  0.3851 -0.1622 -0.2367
  574Sol     OW 5251   1.993   2.777   7.402 -0.0795 -0.2570  0.8712
  574Sol     HW 5252   2.007   2.683   7.390  1.6525 -0.2014  2.3316
  574Sol     HW 5253   1.966   2.787   7.493  1.4455  0.8147  1.2375
  574Sol     MW 5254   1.992   2.770   7.409  0.7708 -1.0212  0.3591
  575Sol     OW 5255   2.348   2.239   7.550  0.1782 -0.2613  0.1545
  575Sol     HW 5256   2.407   2.164   7.556 -0.5058 -0.8161 -0.0941
  575Sol     HW 5257   2.314   2.251   7.638  1.2547  0.5524  0.4816
  575Sol     MW 5258   2.350   2.233   7.558 -0.1071 -0.6586  0.7525
  576Sol     OW 5259   0.623   0.607   7.910 -0.0090  0.0311  0.1584
  576Sol     HW 5260   0.533   0.588   7.882 -0.1421  0.0660  0.5634
  576Sol     HW 5261   0.638   0.547   7.984  0.3082  0.0110  0.0793
  576Sol     MW 5262   0.616   0.600   7.914 -0.2347  0.1040  0.1287
  577Sol     OW 5263   2.284   2.618   2.721 -0.8054  0.5492 -0.0445
  577Sol     HW 5264   2.325   2.557   2.782 -0.3610  2.1456  1.2875
  577Sol     HW 5265   2.238   2.562   2.659  2.6611 -1.2796 -1.0966
  577Sol     MW 5266   2.283   2.608   2.721  0.2151 -0.5779  0.1365
  578Sol     OW 5267   2.573   3.377   7.772 -0.0000 -0.1795 -0.0377
  578Sol     HW 5268   2.572   3.282   7.757 -1.2200  0.0015 -1.2593
  578Sol     HW 5269   2.634   3.411   7.706  0.8827 -0.1649  0.7798
  578Sol     MW 5270   2.578   3.372   7.764  0.1978  0.1710  0.5862
  579Sol     OW 5271   0.803   0.235   8.108 -0.1861 -0.8101 -0.1192
  579Sol     HW 5272   0.814   0.223   8.013 -1.6701 -0.9052 -0.2838
  579Sol     HW 5273   0.759   0.155   8.137 -0.2662 -0.5190  0.5565
  579Sol     MW 5274   0.800   0.226   8.102 -0.1601 -0.2545  0.1345
  580Sol     OW 5275   2.589   2.988   6.147 -0.0202  0.4267 -0.1399
  580Sol     HW 5276   2.545   2.995   6.232  0.1445 -3.0459  0.3292
  580Sol     HW 5277   2.680   2.967   6.169  0.3356  0.9019 -1.1528
  580Sol     MW 5278   2.593   2.987   6.157 -0.4633 -0.2479  0.2976
  581Sol     OW 5279   1.814   0.390   6.351 -0.2193 -0.0115  0.2571
  581Sol     HW 5280   1.877   0.438   6.405 -0.7259  0.1340  0.7121
  581Sol     HW 5281   1.733   0.390   6.401 -0.4948 -0.4994 -0.1774
  581Sol     MW 5282   1.813   0.394   6.360  0.1576 -0.2145 -0.0953
  582Sol     OW 5283   1.763   1.440   1.474  0.8534 -0.0667  0.3195
  582Sol     HW 5284   1.825   1.501   1.435 -0.3783  0.7604 -0.3871
  582Sol     HW 5285   1.813   1.361   1.489  1.9332  0.3938 -0.7936
  582Sol     MW 5286   1.773   1.439   1.472  0.1458  0.0155 -0.1732
  583Sol     OW 5287   3.194   1.846   5.253 -0.3882 -0.1806 -0.3399
  583Sol     HW 5288   3.285   1.833   5.226  0.1983 -0.8910  1.8693
  583Sol     HW 5289   3.158   1.905   5.187  0.8495 -2.1659 -2.8817
  583Sol     MW 5290   3.199   1.850   5.245 -0.3467  0.5065  0.1019
  584Sol     OW 5291   2.341   0.861   5.569 -0.1406 -0.3981  0.7065
  584Sol     HW 5292   2.351   0.778   5.523  0.1650  0.1120 -0.1453
  584Sol     HW 5293   2.427   0.902   5.563 -0.2143 -0.1393  1.3754
  584Sol     MW 5294   2.350   0.857   5.565  0.1821 -0.2549 -0.0708
  585Sol     OW 5295   1.107   2.207   9.044 -0.0951 -0.0479 -0.2817
  585Sol     HW 5296   1.171   2.228   8.976  0.0589 -0.8584 -0.3890
  585Sol     HW 5297   1.145   2.132   9.090 -1.2795 -0.9475 -0.7587
  585Sol     MW 5298   1.116   2.202   9.042  0.1346 -0.7274 -0.3236
  586Sol     OW 5299   1.263   0.510   7.405  0.4445  0.1544 -0.1370
  586Sol     HW 5300   1.317   0.575   7.360  0.0335  0.4267 -0.2359
  586Sol     HW 5301   1.317   0.481   7.478 -0.3790  2.5576  1.4863
  586Sol     MW 5302   1.273   0.513   7.408 -0.0971  0.1788  0.1597
  587Sol     OW 5303   2.480   1.286   9.526 -0.4643  0.2638  0.1493
  587Sol     HW 5304   2.561   1.335   9.516 -0.4186 -0.1090 -1.4908
  587Sol     HW 5305   2.458   1.258   9.437 -0.7825 -2.1894  0.9518
  587Sol     MW 5306   2.485   1.288   9.517 -0.0937 -0.2011  0.7936
  588Sol     OW 5307   1.937   2.786   3.215 -0.2636  0.2707  0.1431
  588Sol     HW 5308   1.913   2.760   3.126 -0.2658 -0.0994  0.2503
  588Sol     HW 5309   1.975   2.873   3.205  0.0425  0.0921 -0.2614
  588Sol     MW 5310   1.938   2.792   3.206  0.0674 -0.9389  0.2861
  589Sol     OW 5311   2.342   1.401   5.620  0.3874  0.3541 -0.1898
  589Sol     HW 5312   2.436   1.399   5.637  0.2522  0.4889  0.5946
  589Sol     HW 5313   2.305   1.440   5.699 -0.5126 -1.4628  0.3011
  589Sol     MW 5314   2.347   1.404   5.629 -0.1494  0.0580 -0.4650
  590Sol     OW 5315   2.977   1.981   8.585  0.3363  0.2139 -0.7653
  590Sol     HW 5316   2.887   1.958   8.609  0.9817 -0.0788  1.5699
  590Sol     HW 5317   2.974   1.995   8.491 -2.2136  0.4677 -0.6955
  590Sol     MW 5318   2.968   1.980   8.579  0.3579  0.6233 -0.9951
  591Sol     OW 5319   2.003   1.158   5.533  0.3597  0.3150 -0.0208
  591Sol     HW 5320   2.043   1.170   5.447 -0.1959  0.6322 -0.2428
  591Sol     HW 5321   2.046   1.081   5.570 -0.0695 -0.4086 -0.9913
  591Sol     MW 5322   2.010   1.152   5.529  0.0747  0.1185  0.9016
  592Sol     OW 5323   0.573   0.775   5.636 -0.2555  0.8996 -0.4156
  592Sol     HW 5324   0.608   0.783   5.547  1.2321  1.2284  0.1832
  592Sol     HW 5325   0.579   0.863   5.672  0.4238  0.5027  0.4633
  592Sol     MW 5326   0.577   0.784   5.631 -0.2800 -0.4679 -0.4419
  593Sol     OW 5327   1.654   2.150   6.689 -0.0877  0.1136  0.4057
  593Sol     HW 5328   1.581   2.211   6.676 -0.0018  0.0193 -0.5520
  593Sol     HW 5329   1.721   2.180   6.628  0.1475 -0.6261  0.2953
  593Sol     MW 5330   1.653   2.158   6.682 -0.1338  0.0649 -0.7785
  594Sol     OW 5331   2.654   0.350   2.938 -0.1626  0.3297 -0.1762
  594Sol     HW 5332   2.572   0.399   2.938 -0.6061 -0.4087 -0.2597
  594Sol     HW 5333   2.654   0.302   3.021  0.6647  1.1121  0.2919
  594Sol     MW 5334   2.647   0.350   2.946  0.1189 -0.2625  0.0254
  595Sol     OW 5335   1.117   2.848   2.591  0.6232 -0.7207 -0.2236
  595Sol     HW 5336   1.027   2.825   2.614  0.1920 -0.3574 -1.5153
  595Sol     HW 5337   1.167   2.768   2.609 -0.0975 -1.1902 -0.2826
  595Sol     MW 5338   1.113   2.839   2.594 -0.5356  0.1449 -0.7310
  596Sol     OW 5339   0.183   1.037   4.032 -0.3052  1.1136  0.3441
  596Sol     HW 5340   0.231   0.965   3.993  1.6572  2.3304  0.4593
  596Sol     HW 5341   0.175   1.015   4.125  1.3575  1.6038  0.6112
  596Sol     MW 5342   0.186   1.029   4.037 -0.0693  0.3070  0.6819
  597Sol     OW 5343   0.258   2.057   4.508  0.7405 -0.0121 -0.0120
  597Sol     HW 5344   0.186   2.044   4.447  1.0103  0.3039 -0.3977
  597Sol     HW 5345   0.220   2.039   4.594  0.2590 -0.0642 -0.2332
  597Sol     MW 5346   0.248   2.054   4.510  0.0389  0.2716 -0.3723
  598Sol     OW 5347   2.041   1.069   3.973  0.3759 -0.2956  0.2094
  598Sol     HW 5348   1.992   1.007   3.919 -0.8286 -0.0124  0.9781
  598Sol     HW 5349   1.979   1.139   3.992  1.5900  0.9149 -0.2529
  598Sol     MW 5350   2.031   1.069   3.970  0.1886 -0.1716  0.2880
  599Sol     OW 5351   2.891   1.039   6.953  0.6532  0.4910 -0.1642
  599Sol     HW 5352   2.909   0.958   7.002  1.0832  0.5038 -0.2950
  599Sol     HW 5353   2.978   1.071   6.929  0.3889 -0.7184 -2.9265
  599Sol     MW 5354   2.901   1.035   6.955 -0.3976  0.2263 -0.0784
  600Sol     OW 5355   1.611   0.621   5.132 -0.0837  0.4009  0.2959
  600Sol     HW 5356   1.540   0.642   5.072 -0.5576 -1.8685  0.0103
  600Sol     HW 5357   1.586   0.663   5.214 -1.3766  0.2649 -0.0170
  600Sol     MW 5358   1.603   0.627   5.134 -0.1829  0.5965  0.4127
  601Sol     OW 5359   0.177   2.142   9.638 -0.3727 -0.4261 -0.4593
  601Sol     HW 5360   0.233   2.077   9.681 -0.7598 -0.1855  0.4223
  601Sol     HW 5361   0.090   2.127   9.676 -0.4732  0.5779 -0.2748
  601Sol     MW 5362   0.174   2.135   9.645  0.9019 -0.5374  0.5773
  602Sol     OW 5363   2.272   2.056   8.766  0.4269 -0.2601  0.1009
  602Sol     HW 5364   2.319   2.072   8.684  1.5552 -1.0193  0.5833
  602Sol     HW 5365   2.202   1.995   8.742  0.1135  0.3227 -0.4895
  602Sol     MW 5366   2.270   2.052   8.756 -0.2160  0.2510 -0.2975
  603Sol     OW 5367   0.487   1.905   8.871  0.1944 -0.2478  0.3566
  603Sol     HW 5368   0.402   1.863   8.859  0.3753 -0.4450 -0.2783
  603Sol     HW 5369   0.470   1.979   8.929 -0.2517 -0.7950  0.9300
  603Sol     MW 5370   0.478   1.907   8.875 -0.0373  0.4238  0.2653
  604Sol     OW 5371   3.161   0.946   4.863  0.1385 -0.8213  0.0883
  604Sol     HW 5372   3.162   0.914   4.773  0.6622 -1.6189  0.3736
  604Sol     HW 5373   3.126   0.872   4.914 -1.7990  0.2271  0.3117
  604Sol     MW 5374   3.158   0.936   4.860 -0.3451 -0.3381  0.4914
  605Sol     OW 5375   1.526   0.028   2.020  0.0576 -0.1273 -0.0373
  605Sol     HW 5376   1.525   0.022   2.115 -0.2259 -0.6903 -0.0734
  605Sol     HW 5377   1.481   0.111   2.001  0.1385 -0.0018  0.3189
  605Sol     MW 5378   1.522   0.035   2.027 -0.1774  0.1646 -0.0160
  606Sol     OW 5379   2.454   2.871   9.013  0.7435  0.4862 -0.3481
  606Sol     HW 5380   2.496   2.954   9.034 -1.0684  1.0728  1.0518
  606Sol     HW 5381   2.387   2.894   8.948 -0.0401  0.1863  0.3512
  606Sol     MW 5382   2.452   2.880   9.009 -0.2141  0.0702  0.0690
  607Sol     OW 5383   0.332   2.017   5.476  0.3103  0.0054  0.7407
  607Sol     HW 5384   0.393   1.943   5.478 -0.0907 -0.3342  0.4097
  607Sol     HW 5385   0.245   1.977   5.467  0.2147  0.5689 -1.1748
  607Sol     MW 5386   0.329   2.007   5.475  0.9098  0.1894 -0.2018
  608Sol     OW 5387   0.180   0.537   6.678 -0.3734 -0.3572  0.0074
  608Sol     HW 5388   0.259   0.553   6.626  0.8879  0.1404  1.9991
  608Sol     HW 5389   0.173   0.442   6.682  0.4758 -0.4204  0.2676
  608Sol     MW 5390   0.187   0.530   6.674  0.5319 -0.2270 -0.0177
  609Sol     OW 5391   2.532   1.963   8.875  0.0137  0.6353  0.7645
  609Sol     HW 5392   2.554   1.901   8.945 -1.9842  0.6263  1.4409
  609Sol     HW 5393   2.436   1.969   8.879  0.0521  2.3287 -0.5322
  609Sol     MW 5394   2.525   1.958   8.882  0.4002  0.0564  0.0932
  610Sol     OW 5395   3.181   0.964   7.330 -0.6077 -0.0202 -0.2223
  610Sol     HW 5396   3.188   0.949   7.236  0.3951 -2.1477  0.1567
  610Sol     HW 5397   3.100   0.922   7.356 -1.0412  0.8317 -0.1672
  610Sol     MW 5398   3.175   0.959   7.324 -0.0158  0.4287 -0.2127
  611Sol     OW 5399   0.226   1.011   6.111  0.0590 -0.3673 -0.4219
  611Sol     HW 5400   0.281   0.981   6.038  0.8115  0.1425 -0.0787
  611Sol     HW 5401   0.140   1.025   6.073  0.5600  0.3201 -1.3104
  611Sol     MW 5402   0.223   1.009   6.101 -0.4002 -0.3697 -0.0360
  612Sol     OW 5403   2.980   2.107   4.486  0.1199  0.1704  0.2423
  612Sol     HW 5404   2.908   2.044   4.490 -1.8123  2.1962 -1.1222
  612Sol     HW 5405   2.941   2.185   4.447  2.8465  1.6671  0.3811
  612Sol     MW 5406   2.970   2.109   4.483  0.3361 -0.0309 -0.2065
  613Sol     OW 5407   1.895   2.741   8.139  0.2566  0.0768  0.4801
  613Sol     HW 5408   1.837   2.676   8.177 -1.1714  0.1763 -1.4625
  613Sol     HW 5409   1.911   2.709   8.050  0.8969  1.5256  0.0677
  613Sol     MW 5410   1.892   2.732   8.134 -0.6892  0.1147  0.0454
  614Sol     OW 5411   2.425   2.866   4.757  0.2156  0.3906 -0.5397
  614Sol     HW 5412   2.410   2.848   4.665  0.6354  2.0945 -0.9532
  614Sol     HW 5413   2.456   2.782   4.793 -2.7805 -1.1167 -1.2742
  614Sol     MW 5414   2.427   2.856   4.752  0.1314  0.5580 -0.2295
  615Sol     OW 5415   1.435   1.440   7.804  0.0348  0.2297 -0.3923
  615Sol     HW 5416   1.392   1.354   7.799  0.7057 -0.1677  0.4255
  615Sol     HW 5417   1.513   1.424   7.857  0.2972  1.3017 -0.4484
  615Sol     MW 5418   1.438   1.431   7.808  0.3976 -0.2090 -0.2318
  616Sol     OW 5419   3.212   1.673   5.482  0.1346 -0.3735 -0.1224
  616Sol     HW 5420   3.132   1.624   5.462  0.3254 -0.4037 -0.8050
  616Sol     HW 5421   3.230   1.724   5.403  1.5282 -1.3554 -0.4476
  616Sol     MW 5422   3.206   1.673   5.473  0.1444  0.4256 -0.6758
  617Sol     OW 5423   0.985   3.010   2.224  0.0287  0.3014  0.3036
  617Sol     HW 5424   0.939   3.012   2.140 -1.0813 -0.3398  0.8777
  617Sol     HW 5425   0.933   2.950   2.277  2.8732 -2.3824  0.1984
  617Sol     MW 5426   0.976   3.005   2.221 -0.5860 -0.1687 -0.0716
  618Sol     OW 5427   0.575   1.559   3.189 -0.2800 -0.8401 -0.0127
  618Sol     HW 5428   0.528   1.541   3.108 -1.9649  1.0818  0.5011
  618Sol     HW 5429   0.524   1.627   3.232  1.3930 -0.7846  1.9773
  618Sol     MW 5430   0.567   1.563   3.186 -0.4612 -0.1743 -0.5614
  619Sol     OW 5431   0.700   1.731   8.396  0.3310  0.1791  0.0561
  619Sol     HW 5432   0.745   1.809   8.429 -2.2354  2.6666 -2.0791
  619Sol     HW 5433   0.710   1.737   8.301 -2.4212 -0.4674 -0.3013
  619Sol     MW 5434   0.705   1.739   8.390 -0.0643 -0.4764  0.0817
  620Sol     OW 5435   1.690   1.395   7.871  0.4222 -0.3009 -0.3408
  620Sol     HW 5436   1.771   1.353   7.841  0.9887 -0.2736  1.1036
  620Sol     HW 5437   1.719   1.471   7.921 -0.4932 -0.2854  0.1773
  620Sol     MW 5438   1.700   1.398   7.873  0.1582  0.2731  0.2994
  621Sol     OW 5439   1.353   0.276   9.442  0.0771  0.2499 -0.0662
  621Sol     HW 5440   1.317   0.364   9.455 -0.7684 -0.0654 -0.1886
  621Sol     HW 5441   1.287   0.218   9.480  0.5817 -0.3330 -0.0821
  621Sol     MW 5442   1.344   0.279   9.446 -0.2267 -0.3859 -0.1139
  622Sol     OW 5443   0.584   2.398   7.834 -0.3190  0.2405  0.0512
  622Sol     HW 5444   0.650   2.329   7.830  1.0074  1.5387 -0.7528
  622Sol     HW 5445   0.549   2.392   7.923  0.8243 -0.5227  0.4561
  622Sol     MW 5446   0.587   2.392   7.842  0.4887 -0.0090  0.1894
  623Sol     OW 5447   2.542   2.329   9.366 -0.0353  0.3853 -0.0381
  623Sol     HW 5448   2.509   2.242   9.390  0.1666  0.5584  0.8896
  623Sol     HW 5449   2.623   2.338   9.416 -0.3078  1.3040  0.2297
  623Sol     MW 5450   2.546   2.322   9.373 -0.2978  0.0366 -0.4848
  624Sol     OW 5451   1.599   3.378   8.331  0.1934  0.5281  0.2826
  624Sol     HW 5452   1.674   3.429   8.299  1.2949 -1.9831 -1.2536
  624Sol     HW 5453   1.632   3.335   8.410  0.3399 -0.3880 -0.2627
  624Sol     MW 5454   1.609   3.379   8.335 -0.2694  0.6636 -0.0196
  625Sol     OW 5455   2.069   1.227   6.854 -0.3758  0.3609 -0.1205
  625Sol     HW 5456   2.089   1.315   6.885  0.6915 -0.2619  0.9754
  625Sol     HW 5457   2.044   1.239   6.762  1.3523  1.6114 -0.4505
  625Sol     MW 5458   2.069   1.236   6.849 -0.0692  0.6122 -0.3489
  626Sol     OW 5459   0.602   1.120   4.259  0.0724 -0.3697 -0.1691
  626Sol     HW 5460   0.516   1.131   4.301 -0.8892  0.3276 -2.2568
  626Sol     HW 5461   0.612   1.198   4.204  1.2735 -1.2847 -1.2794
  626Sol     MW 5462   0.595   1.128   4.258 -0.2355  0.3350  0.2291
  627Sol     OW 5463   0.953   2.430   2.965  0.6618  0.4937  0.0976
  627Sol     HW 5464   1.018   2.371   3.003 -0.0546  0.3971  1.2300
  627Sol     HW 5465   0.903   2.374   2.905 -1.5760 -0.7511  2.9532
  627Sol     MW 5466   0.954   2.420   2.963  0.0839 -0.2976  0.3403
  628Sol     OW 5467   2.922   2.108   8.302 -0.6223  0.7933  0.3895
  628Sol     HW 5468   2.829   2.100   8.283 -0.7089  1.7565  0.3559
  628Sol     HW 5469   2.965   2.108   8.217 -0.5817  0.2481  0.4100
  628Sol     MW 5470   2.917   2.107   8.293  0.0078 -0.2901  0.0705
  629Sol     OW 5471   2.603   0.249   7.732  0.1672  0.3299  0.3058
  629Sol     HW 5472   2.517   0.208   7.723 -0.4219  1.4778  0.6705
  629Sol     HW 5473   2.664   0.183   7.699 -0.5698 -1.6453  2.6937
  629Sol     MW 5474   2.601   0.239   7.729 -0.1658  0.3254  0.1956
  630Sol     OW 5475   0.035   3.277   4.152 -0.8477 -0.5754 -0.1349
  630Sol     HW 5476  -0.060   3.268   4.141 -0.8773 -0.0091 -0.3786
  630Sol     HW 5477   0.055   3.227   4.232 -1.2898 -1.0216 -0.3011
  630Sol     MW 5478   0.028   3.272   4.158 -0.1749 -0.3101  0.3486
  631Sol     OW 5479   2.254   2.171   8.294  0.5097  0.1033 -0.3885
  631Sol     HW 5480   2.234   2.265   8.294  1.2545  0.2758  1.0944
  631Sol     HW 5481   2.171   2.129   8.269  0.3405  1.1801 -1.6531
  631Sol     MW 5482   2.244   2.175   8.292  0.4119  0.6652 -0.2049
  632Sol     OW 5483   1.305   2.955   6.026  0.3767 -0.5258  0.2842
  632Sol     HW 5484   1.263   3.024   5.975  0.0630 -1.4130 -0.6808
  632Sol     HW 5485   1.303   2.987   6.116  0.8889  1.0414 -0.2481
  632Sol     MW 5486   1.301   2.964   6.029  0.4149  0.1598 -0.2863
  633Sol     OW 5487   1.400   2.388   8.277  0.5147 -0.1746  0.0722
  633Sol     HW 5488   1.330   2.393   8.341  0.5504  0.3270  0.0732
  633Sol     HW 5489   1.357   2.361   8.196  0.6516 -2.0398  0.5929
  633Sol     MW 5490   1.390   2.386   8.275 -0.6161 -1.0463  0.5473
  634Sol     OW 5491   1.674   0.029   2.595 -0.3925 -0.3721  0.4227
  634Sol     HW 5492   1.586   0.007   2.565 -1.2047  1.1913  1.5994
  634Sol     HW 5493   1.697   0.109   2.547  0.5022 -0.8984 -0.0547
  634Sol     MW 5494   1.668   0.034   2.588  0.1770  0.3689  0.2212
  635Sol     OW 5495   2.849   1.640   4.441  0.3557  0.4237 -0.6660
  635Sol     HW 5496   2.864   1.621   4.349  0.8151  1.4593 -0.8095
  635Sol     HW 5497   2.905   1.577   4.488  0.6740  0.3743 -1.1080
  635Sol     MW 5498   2.856   1.633   4.437 -0.0683  0.1337 -0.1548
  636Sol     OW 5499   3.002   1.479   4.816 -0.6361  0.7148  0.5827
  636Sol     HW 5500   3.013   1.565   4.774 -0.0742  0.6512  0.6050
  636Sol     HW 5501   3.048   1.487   4.900 -1.2262  0.6358  0.9181
  636Sol     MW 5502   3.007   1.488   4.820  0.0675 -0.7208 -0.1222
  637Sol     OW 5503   2.888   0.896   7.846 -0.0456 -0.1089 -0.0272
  637Sol     HW 5504   2.804   0.851   7.847  0.5027 -1.1411  1.0854
  637Sol     HW 5505   2.935   0.861   7.921  1.0105  1.1813 -0.0651
  637Sol     MW 5506   2.885   0.889   7.852  0.1608  0.1744  0.2279
  638Sol     OW 5507   2.431   2.105   3.678  0.5088  0.2045 -0.0084
  638Sol     HW 5508   2.382   2.187   3.667 -0.9110 -1.0485 -3.9934
  638Sol     HW 5509   2.400   2.069   3.761 -0.8739  2.3588  0.4380
  638Sol     MW 5510   2.424   2.109   3.684 -0.0451  0.3950 -0.2913
  639Sol     OW 5511   1.018   3.282   4.055 -0.6843  0.3176 -0.1669
  639Sol     HW 5512   1.068   3.359   4.081 -2.7954  1.4429  0.7733
  639Sol     HW 5513   1.040   3.216   4.121 -1.0599  1.0750  0.7321
  639Sol     MW 5514   1.024   3.283   4.064 -0.0950  0.3473  0.1923
  640Sol     OW 5515   1.008   2.514   2.557  0.1751  0.6410 -0.9797
  640Sol     HW 5516   1.024   2.441   2.497  1.0718 -1.1447  1.3537
  640Sol     HW 5517   1.096   2.547   2.577  0.0587 -0.2915  1.1503
  640Sol     MW 5518   1.018   2.510   2.553 -0.3217  0.2282 -0.2724
  641Sol     OW 5519   2.125   0.954   5.693  0.1324 -0.1305 -0.3913
  641Sol     HW 5520   2.199   0.920   5.643 -0.7177 -0.9380 -1.1029
  641Sol     HW 5521   2.165   1.013   5.757  1.4689 -1.2491 -0.1746
  641Sol     MW 5522   2.135   0.956   5.694  0.7973 -0.2921 -0.3493
  642Sol     OW 5523   0.192   1.660   2.841 -0.5348 -0.4376  0.1709
  642Sol     HW 5524   0.142   1.606   2.780  0.4790 -1.9948  0.6750
  642Sol     HW 5525   0.144   1.655   2.923 -2.0122  1.8277 -0.5121
  642Sol     MW 5526   0.184   1.655   2.843 -0.2057  0.0715  0.4108
  643Sol     OW 5527   0.158   1.136   2.592 -0.2189 -0.0631 -0.2184
  643Sol     HW 5528   0.097   1.165   2.525  1.1194  1.7427 -0.6937
  643Sol     HW 5529   0.150   1.202   2.661  0.9173 -0.0293 -0.1176
  643Sol     MW 5530   0.152   1.144   2.593 -0.2393  0.0384  0.5296
  644Sol     OW 5531   2.167   0.773   3.615 -0.3753  0.1205  0.3306
  644Sol     HW 5532   2.089   0.725   3.585 -0.3574 -0.4848  1.2524
  644Sol     HW 5533   2.198   0.725   3.691  0.4577  0.8079  0.4380
  644Sol     MW 5534   2.162   0.765   3.619 -0.6018 -0.2473  0.1834
  645Sol     OW 5535   1.582   3.299   3.520  0.6421  0.3389  0.3476
  645Sol     HW 5536   1.517   3.310   3.589  0.3006  0.8840 -0.0544
  645Sol     HW 5537   1.543   3.236   3.459  0.6749  0.3305  0.3349
  645Sol     MW 5538   1.573   3.294   3.520 -0.5363 -0.4991  0.5754
  646Sol     OW 5539   0.509   3.341   9.663 -0.1851  0.6275  0.3760
  646Sol     HW 5540   0.476   3.423   9.701 -2.7724 -0.3955  0.4387
  646Sol     HW 5541   0.603   3.354   9.657 -0.4185  3.1740  1.4655
  646Sol     MW 5542   0.514   3.349   9.666 -0.0540  0.1512  0.0836
  647Sol     OW 5543   1.689   0.295   3.117 -0.9737  0.0457  0.1958
  647Sol     HW 5544   1.661   0.320   3.029  2.4657 -0.4643 -1.1131
  647Sol     HW 5545   1.666   0.369   3.172 -0.2835  1.7320 -1.7281
  647Sol     MW 5546   1.684   0.304   3.114 -0.3377 -0.4001  0.1734
  648Sol     OW 5547   2.002   1.160   2.773  0.0544  0.1059  0.6628
  648Sol     HW 5548   1.958   1.237   2.738  1.2967  0.4459 -0.2004
  648Sol     HW 5549   2.033   1.113   2.696  0.2043 -0.7091  1.2168
  648Sol     MW 5550   2.001   1.163   2.763 -0.5748  0.7730  0.4971
  649Sol     OW 5551   1.948   0.975   8.520 -0.0543  0.5283  0.1288
  649Sol     HW 5552   1.908   0.963   8.607  0.2731  0.6875  0.3019
  649Sol     HW 5553   2.039   0.997   8.539 -0.1211  1.1463 -0.2379
  649Sol     MW 5554   1.952   0.976   8.530 -0.1474 -0.2299 -0.0223
  650Sol     OW 5555   2.222   3.211   8.519  0.0079  0.2293 -0.2597
  650Sol     HW 5556   2.296   3.151   8.528 -0.2638  0.0916  1.2175
  650Sol     HW 5557   2.221   3.260   8.602 -1.3373  0.4735 -0.4121
  650Sol     MW 5558   2.228   3.210   8.528 -0.3783 -0.0745 -0.3307
  651Sol     OW 5559   2.868   0.001   7.373 -0.0250 -0.0846  0.8297
  651Sol     HW 5560   2.949  -0.022   7.326 -0.1878 -0.5184  0.7556
  651Sol     HW 5561   2.810   0.034   7.305  0.5047  1.3466  1.0661
  651Sol     MW 5562   2.870   0.002   7.363 -0.3745 -0.1625 -0.4786
  652Sol     OW 5563   0.950   0.514   6.016 -0.7969 -0.8467  0.5730
  652Sol     HW 5564   0.886   0.560   5.961 -0.7524 -1.2134  0.2096
  652Sol     HW 5565   1.031   0.515   5.965 -0.2369  0.4765  1.4538
  652Sol     MW 5566   0.951   0.518   6.007  0.0235  0.3638 -0.0399
  653Sol     OW 5567   3.090   1.734   7.553 -0.2616 -0.0323 -0.0516
  653Sol     HW 5568   3.060   1.821   7.581  0.0541  0.8031 -2.2008
  653Sol     HW 5569   3.076   1.734   7.459  2.2531 -1.3356 -0.4512
  653Sol     MW 5570   3.086   1.742   7.547  0.0842 -0.0224 -0.1912
  654Sol     OW 5571   1.928   1.896   8.466  0.2445 -0.2988 -0.4381
  654Sol     HW 5572   1.972   1.959   8.523  1.8108 -1.6309 -0.1185
  654Sol     HW 5573   1.865   1.851   8.522 -2.7755  2.7009 -1.2529
  654Sol     MW 5574   1.927   1.897   8.476  0.4581  0.0908 -0.1031
  655Sol     OW 5575   2.693   2.573   7.503  0.2424 -0.3420 -0.7085
  655Sol     HW 5576   2.662   2.634   7.436  0.5732  0.6139  0.0046
  655Sol     HW 5577   2.677   2.486   7.465 -0.8189  0.1725 -1.4608
  655Sol     MW 5578   2.689   2.570   7.494 -0.1660  0.1902  0.4529
  656Sol     OW 5579   3.143   1.072   2.745  0.3223 -0.2798  0.1771
  656Sol     HW 5580   3.210   1.004   2.740 -0.1366 -0.6432 -0.9779
  656Sol     HW 5581   3.157   1.125   2.667 -1.1674 -0.7551 -0.4245
  656Sol     MW 5582   3.150   1.071   2.738 -0.0557 -0.2762  0.2256
  657Sol     OW 5583   1.644   0.408   8.661 -0.1774 -0.6034  0.3706
  657Sol     HW 5584   1.650   0.434   8.569  0.2346  1.9197  1.0811
  657Sol     HW 5585   1.623   0.314   8.658 -1.5870 -0.2499 -2.2923
  657Sol     MW 5586   1.642   0.402   8.653 -0.3081 -0.8593 -0.6052
  658Sol     OW 5587   1.309   2.615   7.243  0.5001  0.5584 -0.0701
  658Sol     HW 5588   1.386   2.645   7.293  0.8482 -1.8202  0.9096
  658Sol     HW 5589   1.235   2.660   7.284  1.2517  2.0242 -0.2985
  658Sol     MW 5590   1.310   2.621   7.251 -0.1336 -0.0095  0.4319
  659Sol     OW 5591   1.319   1.624   2.377 -0.9246 -0.3766 -0.1897
  659Sol     HW 5592   1.309   1.529   2.371 -2.1931 -0.3367  1.1050
  659Sol     HW 5593   1.371   1.638   2.456 -0.4727 -0.0091 -0.5495
  659Sol     MW 5594   1.323   1.617   2.384  0.3181  0.1078 -0.7588
  660Sol     OW 5595   3.018   3.175   9.292 -0.0051  0.2562  0.2361
  660Sol     HW 5596   2.991   3.124   9.368  0.1615  0.6551  0.5656
  660Sol     HW 5597   3.113   3.172   9.293  0.0249  1.2862  0.7486
  660Sol     MW 5598   3.024   3.170   9.299  0.1894  0.1056 -0.0440
  661Sol     OW 5599   0.103   1.057   9.335 -0.0342  0.2502  0.1134
  661Sol     HW 5600   0.030   1.076   9.275  0.4321  1.0352 -0.2124
  661Sol     HW 5601   0.061   1.048   9.421 -0.3881  1.9917  0.1550
  661Sol     MW 5602   0.092   1.058   9.337  0.2161 -0.7952 -0.6518
  662Sol     OW 5603   2.628   2.703   3.486  0.8944  0.2549 -0.2083
  662Sol     HW 5604   2.540   2.741   3.487 -0.0614 -1.8675  0.4599
  662Sol     HW 5605   2.666   2.728   3.571  0.8890  1.0474 -0.4360
  662Sol     MW 5606   2.624   2.709   3.494  0.7545 -0.1129 -0.2293
  663Sol     OW 5607   1.120   3.407   5.284  0.2154 -0.4602  0.0249
  663Sol     HW 5608   1.167   3.347   5.341  1.0244 -0.6343 -0.7997
  663Sol     HW 5609   1.029   3.401   5.311  0.6559 -0.1578  1.6188
  663Sol     MW 5610   1.116   3.401   5.291  0.1229  0.0691  0.4672
  664Sol     OW 5611   1.821   0.099   9.766 -0.5355  0.3481 -0.4480
  664Sol     HW 5612   1.824   0.058   9.852  3.5007  0.6138 -0.3886
  664Sol     HW 5613   1.816   0.025   9.705  1.9899 -0.0884 -0.1620
  664Sol     MW 5614   1.821   0.088   9.768  0.5129 -0.6458 -0.2661
  665Sol     OW 5615   2.912   0.996   9.467 -0.4137  0.6937 -0.4994
  665Sol     HW 5616   2.885   0.918   9.419 -0.9676  0.7525 -0.2875
  665Sol     HW 5617   2.964   0.963   9.540  1.5271  0.6794 -1.8592
  665Sol     MW 5618   2.914   0.986   9.469  0.0426 -0.3496  0.4835
  666Sol     OW 5619   0.914   2.034   8.943  0.2810  0.0594  0.4725
  666Sol     HW 5620   0.967   1.967   8.898 -0.9966  0.0653 -1.0937
  666Sol     HW 5621   0.965   2.114   8.936 -0.2506  0.2420 -1.7331
  666Sol     MW 5622   0.923   2.035   8.938  0.2310 -0.0239 -0.4452
  667Sol     OW 5623   1.963   0.716   2.044  0.7039  0.6183  0.0968
  667Sol     HW 5624   1.894   0.651   2.057  0.4633  0.8100 -0.2135
  667Sol     HW 5625   1.925   0.779   1.982  0.3717  1.8841  1.5469
  667Sol     MW 5626   1.953   0.716   2.040 -0.2301 -0.1741  0.0247
  668Sol     OW 5627   1.854   0.574   8.760 -0.1540  0.1967 -0.2311
  668Sol     HW 5628   1.787   0.510   8.735 -0.1765 -0.7778  2.1543
  668Sol     HW 5629   1.823   0.610   8.843  0.8120  1.9279 -0.5968
  668Sol     MW 5630   1.845   0.572   8.765  0.3669 -0.1368 -0.5189
  669Sol     OW 5631   0.931   2.308   6.866 -0.4941 -0.4319  0.1796
  669Sol     HW 5632   0.950   2.401   6.863 -1.8998 -0.1774 -1.4561
  669Sol     HW 5633   0.843   2.302   6.903 -0.0628 -1.1772  1.1181
  669Sol     MW 5634   0.925   2.316   6.869 -0.1935 -0.7010 -0.1606
  670Sol     OW 5635   0.485   2.212   3.533 -0.2555  0.0465 -0.3369
  670Sol     HW 5636   0.450   2.161   3.606 -1.7552  0.5428 -0.6950
  670Sol     HW 5637   0.498   2.148   3.463  0.2804 -0.2686  0.0497
  670Sol     MW 5638   0.483   2.202   3.533  1.3077 -0.1959  0.1754
  671Sol     OW 5639   0.323   0.836   3.933  0.2401 -0.0082  0.2632
  671Sol     HW 5640   0.291   0.798   3.852 -0.4628 -0.0357  0.5499
  671Sol     HW 5641   0.417   0.820   3.932  0.4403  1.1756 -1.1859
  671Sol     MW 5642   0.329   0.832   3.926 -0.1195  0.3009 -0.0630
  672Sol     OW 5643   1.149   2.532   8.394 -0.3282 -0.2930 -0.0455
  672Sol     HW 5644   1.061   2.539   8.430 -0.9597 -0.7803 -1.4596
  672Sol     HW 5645   1.206   2.529   8.471 -1.5933 -0.7042  0.8995
  672Sol     MW 5646   1.146   2.532   8.404 -0.0073  0.3921 -0.0019
  673Sol     OW 5647   2.896   2.298   6.224  0.4291  0.0478  0.6425
  673Sol     HW 5648   2.836   2.243   6.275  0.0173 -0.5982 -0.5323
  673Sol     HW 5649   2.864   2.293   6.135  2.7780 -1.0605 -0.1846
  673Sol     MW 5650   2.888   2.293   6.221 -0.0542 -0.3133 -0.2870
  674Sol     OW 5651   0.371   2.486   8.703 -0.6302 -0.0026  0.4737
  674Sol     HW 5652   0.455   2.458   8.739 -1.1527 -0.8600  1.0316
  674Sol     HW 5653   0.390   2.571   8.663  0.0316  0.8546  2.5500
  674Sol     MW 5654   0.380   2.491   8.703 -0.2547 -0.2503 -0.3490
  675Sol     OW 5655   1.798   2.005   2.261 -0.5360  0.0623 -0.1314
  675Sol     HW 5656   1.809   1.968   2.348 -1.7998  2.0368  0.9103
  675Sol     HW 5657   1.704   2.012   2.249 -0.3728 -0.3854 -1.7420
  675Sol     MW 5658   1.791   2.003   2.268 -0.2667  0.2039 -0.2271
  676Sol     OW 5659   2.886   1.550   4.172 -0.6345  0.3950 -0.7991
  676Sol     HW 5660   2.920   1.489   4.108 -0.1136 -2.1402  1.8051
  676Sol     HW 5661   2.925   1.634   4.149  1.5758 -0.9928 -2.2089
  676Sol     MW 5662   2.892   1.552   4.164  0.0007 -0.5433 -0.0038
  677Sol     OW 5663   0.507   1.423   6.434  0.4875  0.1302  0.0737
  677Sol     HW 5664   0.554   1.365   6.493  0.4967 -0.2356 -0.2920
  677Sol     HW 5665   0.453   1.365   6.380  1.4559  0.3504 -1.1518
  677Sol     MW 5666   0.506   1.413   6.434  0.2551  0.3206 -0.4979
  678Sol     OW 5667   1.040   3.233  10.182 -0.2086  0.2476 -0.1167
  678Sol     HW 5668   0.985   3.157  10.163 -1.4551  1.0508  0.2279
  678Sol     HW 5669   1.014   3.299  10.118  1.4427  0.1308 -0.9461
  678Sol     MW 5670   1.033   3.232  10.175 -0.3571 -0.4019  0.1508
  679Sol     OW 5671   2.351   1.212   3.742 -0.1824 -0.3265  0.1569
  679Sol     HW 5672   2.296   1.149   3.694 -0.9050 -0.0855  0.6606
  679Sol     HW 5673   2.290   1.259   3.798  0.4088  0.6074  0.0299
  679Sol     MW 5674   2.341   1.210   3.742  0.8138  0.2418 -0.3893
  680Sol     OW 5675   0.077   0.919   9.576  0.2840  0.4065 -0.0820
  680Sol     HW 5676  -0.007   0.920   9.621  1.1166  1.1917  1.5038
  680Sol     HW 5677   0.132   0.863   9.631  1.4475  1.7364  0.1274
  680Sol     MW 5678   0.074   0.914   9.585  0.3077 -0.1653  0.8024
  681Sol     OW 5679   2.092   0.389   3.428  0.1554 -0.8761 -0.0140
  681Sol     HW 5680   2.175   0.423   3.395 -0.9186  2.3899  0.5296
  681Sol     HW 5681   2.060   0.332   3.358  2.0698 -0.9615 -0.8661
  681Sol     MW 5682   2.097   0.387   3.419  0.2112  0.1440  0.5629
  682Sol     OW 5683   0.645   1.356   4.128  0.2253  0.3483  0.0429
  682Sol     HW 5684   0.736   1.374   4.106 -0.3338  1.2987 -1.6095
  682Sol     HW 5685   0.604   1.334   4.044 -1.8651  3.5064  0.1365
  682Sol     MW 5686   0.649   1.356   4.118 -0.0951  0.0784  0.1948
  683Sol     OW 5687   0.181   2.495   5.867 -0.0438 -0.3432 -0.6657
  683Sol     HW 5688   0.195   2.415   5.917  0.6577 -0.7827 -1.5385
  683Sol     HW 5689   0.104   2.476   5.812 -2.2785  0.9757  1.9060
  683Sol     MW 5690   0.175   2.486   5.866  0.5426  0.6217 -0.0921
  684Sol     OW 5691   0.781   1.924   2.751 -0.0827  0.0834  0.0115
  684Sol     HW 5692   0.825   1.952   2.832 -1.7557  1.6687  0.3893
  684Sol     HW 5693   0.737   1.843   2.775  2.2916 -1.3608 -0.2819
  684Sol     MW 5694   0.781   1.919   2.761  0.2176 -0.0485 -0.3014
  685Sol     OW 5695   2.550   1.874   9.326  1.1918 -0.4691  0.0873
  685Sol     HW 5696   2.520   1.790   9.294 -0.7988  0.4932 -0.6528
  685Sol     HW 5697   2.615   1.903   9.262  0.8926 -0.8295 -0.3738
  685Sol     MW 5698   2.553   1.869   9.318  0.2511 -0.2074 -0.1996
  686Sol     OW 5699   0.067   1.949   8.339 -0.2428  0.0089  0.0248
  686Sol     HW 5700   0.155   1.986   8.344  0.1035 -1.0126  1.8242
  686Sol     HW 5701   0.081   1.854   8.335 -1.1906 -0.0680 -2.4010
  686Sol     MW 5702   0.076   1.944   8.339  0.1052  0.0086 -0.2993
  687Sol     OW 5703   2.335   0.182   2.207 -0.4224  0.3158  0.0396
  687Sol     HW 5704   2.412   0.127   2.193 -0.5112  0.3876 -0.7595
  687Sol     HW 5705   2.343   0.213   2.297  0.8801  0.9392 -0.2852
  687Sol     MW 5706   2.342   0.180   2.213  0.3942  0.6019 -0.0622
  688Sol     OW 5707   1.743   0.929   9.939  0.2711  0.2779 -0.1784
  688Sol     HW 5708   1.697   1.008   9.967  1.7947  1.0967  0.1051
  688Sol     HW 5709   1.682   0.884   9.880 -1.0957  1.0166  0.6424
  688Sol     MW 5710   1.733   0.932   9.937  0.2933 -0.2128  0.3769
  689Sol     OW 5711   0.280   0.008   7.196  0.2952 -0.5578  0.4330
  689Sol     HW 5712   0.263   0.102   7.191  0.3476 -0.5423  0.5482
  689Sol     HW 5713   0.235  -0.020   7.276  0.5247 -0.5797  0.5541
  689Sol     MW 5714   0.274   0.014   7.203 -0.3703 -0.7303  0.1514
  690Sol     OW 5715   3.125   0.539   5.834 -0.1911  0.6600 -0.4418
  690Sol     HW 5716   3.033   0.540   5.858  0.2078  2.3094  1.0579
  690Sol     HW 5717   3.144   0.629   5.807  1.8475  1.2542  2.7066
  690Sol     MW 5718   3.118   0.547   5.833 -0.1056  0.4894 -0.1332
  691Sol     OW 5719   0.855   2.832   8.529 -0.1166  0.7180 -0.4552
  691Sol     HW 5720   0.945   2.831   8.562 -0.1142 -1.9953 -0.4179
  691Sol     HW 5721   0.860   2.878   8.446  1.1150  1.5266  0.0489
  691Sol     MW 5722   0.864   2.836   8.525  0.1500 -0.1298  0.2010
  692Sol     OW 5723   1.666   2.733   5.239  0.1700 -0.2205  0.1803
  692Sol     HW 5724   1.722   2.750   5.315 -0.2952 -0.9755  0.6961
  692Sol     HW 5725   1.582   2.704   5.277 -0.4885  0.6685 -0.5867
  692Sol     MW 5726   1.663   2.732   5.249 -0.6625  0.2862 -0.4799
  693Sol     OW 5727   0.326   0.861   6.766 -0.1953  0.1577  0.0485
  693Sol     HW 5728   0.389   0.889   6.833  0.2416  0.7852 -0.6223
  693Sol     HW 5729   0.247   0.839   6.816  0.7882 -1.4287  0.9862
  693Sol     MW 5730   0.325   0.861   6.777  0.5274 -0.0387  0.3763
  694Sol     OW 5731   0.303   2.291   6.298  0.4793  0.0434 -0.0763
  694Sol     HW 5732   0.273   2.238   6.372 -1.1950  2.2115  0.8758
  694Sol     HW 5733   0.261   2.252   6.222 -0.5319 -0.1619  0.5810
  694Sol     MW 5734   0.296   2.283   6.298 -0.5335 -0.3347  0.6758
  695Sol     OW 5735   1.232   0.492   2.658 -0.6213  0.1327 -0.3521
  695Sol     HW 5736   1.208   0.409   2.701 -1.0919  0.8573  0.8175
  695Sol     HW 5737   1.208   0.479   2.566  1.3648 -1.8286 -0.6369
  695Sol     MW 5738   1.227   0.483   2.654  0.1114 -0.3357 -0.0083
  696Sol     OW 5739   2.545   2.736   2.702  0.1113 -0.3496  0.3178
  696Sol     HW 5740   2.595   2.659   2.729  0.3807  0.4692  2.2663
  696Sol     HW 5741   2.454   2.711   2.718  0.3481  0.6517  3.5453
  696Sol     MW 5742   2.541   2.726   2.706 -0.0920 -0.0280  0.4044
  697Sol     OW 5743   2.533   0.501   8.577 -0.3621 -0.1020 -0.1373
  697Sol     HW 5744   2.598   0.545   8.631  0.4150 -0.5037 -0.7315
  697Sol     HW 5745   2.467   0.470   8.639  0.3067 -0.1960  0.5353
  697Sol     MW 5746   2.533   0.502   8.587  0.5976 -0.1707  0.3962
  698Sol     OW 5747   0.587   0.022   7.035  0.2677 -0.0557  0.2745
  698Sol     HW 5748   0.668  -0.029   7.049  0.2919 -0.1157 -0.0994
  698Sol     HW 5749   0.598   0.099   7.091  1.6013  1.0908 -1.5242
  698Sol     MW 5750   0.595   0.024   7.042 -0.2008  0.0599 -0.6480
  699Sol     OW 5751   1.616   2.932   3.768 -0.3877  0.2564 -0.7143
  699Sol     HW 5752   1.645   3.015   3.730 -1.1400  0.0145 -1.8600
  699Sol     HW 5753   1.647   2.935   3.858  0.7703  1.1906 -1.1236
  699Sol     MW 5754   1.621   2.940   3.773 -0.7212  0.4598 -0.3984
  700Sol     OW 5755   0.267   2.084   2.867  0.1380  0.1548 -0.0880
  700Sol     HW 5756   0.362   2.089   2.876  0.1575  1.0653 -0.7273
  700Sol     HW 5757   0.234   2.152   2.925 -0.1898 -0.9441  1.0429
  700Sol     MW 5758   0.273   2.091   2.873 -0.7458 -0.3692 -0.6176
  701Sol     OW 5759   2.747   1.407   9.643  0.3208  0.0007 -0.4311
  701Sol     HW 5760   2.756   1.343   9.572  2.2470  1.4104 -1.5141
  701Sol     HW 5761   2.737   1.354   9.722 -1.2066 -1.6098 -1.6547
  701Sol     MW 5762   2.747   1.396   9.644  1.0285  0.1124  0.1378
  702Sol     OW 5763   2.991   2.356   2.202  0.0185 -0.2348  0.0018
  702Sol     HW 5764   3.024   2.436   2.241 -0.4782 -0.1075  0.1659
  702Sol     HW 5765   2.922   2.327   2.262  2.0606 -2.2909  1.4441
  702Sol     MW 5766   2.988   2.360   2.211  0.0260  0.3522  0.1851
  703Sol     OW 5767   0.085   3.107   2.030  0.3568 -0.2207 -0.1726
  703Sol     HW 5768   0.115   3.158   1.954 -0.3645 -1.8593 -1.5849
  703Sol     HW 5769   0.103   3.164   2.105  3.4372  0.4100 -1.3003
  703Sol     MW 5770   0.089   3.117   2.030 -0.1752  0.1028 -0.1726
  704Sol     OW 5771   2.909   1.632   9.536 -0.1118  0.7443 -0.4608
  704Sol     HW 5772   2.857   1.559   9.570 -0.8666  1.7438  0.6053
  704Sol     HW 5773   2.965   1.658   9.610  0.4061  1.0090 -0.9401
  704Sol     MW 5774   2.909   1.628   9.546 -0.9803 -0.0290 -0.0959
  705Sol     OW 5775   2.259   2.240   6.451 -0.2352 -0.1975 -0.0296
  705Sol     HW 5776   2.324   2.201   6.392  1.2561  1.8885  0.1427
  705Sol     HW 5777   2.190   2.272   6.392 -0.2755 -0.9114 -0.3719
  705Sol     MW 5778   2.259   2.240   6.440  0.6749  0.1321  0.3023
  706Sol     OW 5779   2.938   1.168   7.808 -0.0467  0.0847 -0.0898
  706Sol     HW 5780   3.031   1.183   7.793 -0.3999  0.8814 -1.5706
  706Sol     HW 5781   2.934   1.078   7.840  1.0147 -0.7779 -2.3144
  706Sol     MW 5782   2.946   1.161   7.810 -0.4373  0.1638 -0.2478
  707Sol     OW 5783   0.655   1.295   8.020  0.3073  0.0760 -0.3680
  707Sol     HW 5784   0.716   1.246   8.075  1.0955  1.3267 -0.1006
  707Sol     HW 5785   0.667   1.260   7.932  0.0411 -0.9758  0.0061
  707Sol     MW 5786   0.661   1.288   8.017  0.0329  0.1913  0.1656
  708Sol     OW 5787   0.114   0.870   2.721 -0.8843 -0.3270  0.3004
  708Sol     HW 5788   0.167   0.943   2.690 -1.4504 -0.3041 -0.6449
  708Sol     HW 5789   0.122   0.804   2.652 -0.0672 -1.3261  1.3162
  708Sol     MW 5790   0.120   0.870   2.712  0.3157  0.1172 -0.8926
  709Sol     OW 5791   0.349   2.007   3.692  0.5015  0.1664  0.2870
  709Sol     HW 5792   0.275   2.013   3.632  0.1731  0.0111  0.6747
  709Sol     HW 5793   0.325   1.936   3.753  1.5480 -0.8033 -0.4069
  709Sol     MW 5794   0.340   2.001   3.692 -0.0697 -0.3236 -0.2145
  710Sol     OW 5795   0.199   3.240   1.785 -0.2524  0.3138  0.0686
  710Sol     HW 5796   0.128   3.270   1.727 -0.8462 -1.8940 -0.3844
  710Sol     HW 5797   0.261   3.197   1.726  0.6753  0.7791  0.6942
  710Sol     MW 5798   0.198   3.239   1.774 -0.6944  0.2894  0.4343
  711Sol     OW 5799   1.128   3.347   2.589 -0.2697  0.4931 -0.4703
  711Sol     HW 5800   1.076   3.427   2.582 -0.2815  0.3517 -2.2038
  711Sol     HW 5801   1.067   3.276   2.566 -0.6357 -0.1698  2.4195
  711Sol     MW 5802   1.118   3.348   2.586  0.1528 -0.0722 -0.4519
  712Sol     OW 5803   1.624   0.005   7.480  0.3787 -0.3070  0.0370
  712Sol     HW 5804   1.671   0.088   7.480 -0.1501 -0.0019 -0.3607
  712Sol     HW 5805   1.581   0.001   7.565  0.4893 -0.2190  0.0966
  712Sol     MW 5806   1.624   0.012   7.487  0.4470  0.2013 -0.1672
  713Sol     OW 5807   0.789   2.247   5.475 -0.5223  0.2336  0.5193
  713Sol     HW 5808   0.784   2.319   5.411 -0.7622  1.8926  2.3370
  713Sol     HW 5809   0.726   2.272   5.543 -1.4870 -2.3305  0.6007
  713Sol     MW 5810   0.782   2.256   5.476 -0.2147 -0.2880 -0.2015
  714Sol     OW 5811   2.481   2.292   6.055 -0.2912  0.6621  0.4813
  714Sol     HW 5812   2.493   2.226   6.123  3.5620  0.1860 -0.5517
  714Sol     HW 5813   2.524   2.370   6.089 -0.3029  1.1007 -0.4892
  714Sol     MW 5814   2.486   2.293   6.064 -0.4579  0.0681 -0.2314
  715Sol     OW 5815   2.924   1.597   8.651  0.1531  0.0603 -0.5043
  715Sol     HW 5816   2.992   1.559   8.595 -0.5686 -1.2355 -0.5138
  715Sol     HW 5817   2.881   1.662   8.596  1.2712  0.7810 -0.5515
  715Sol     MW 5818   2.926   1.599   8.641 -0.3196  0.2912  0.4235
  716Sol     OW 5819   1.986   2.817   8.920 -0.1025  0.8494 -0.6586
  716Sol     HW 5820   1.929   2.743   8.941  1.2616 -0.3048 -0.9408
  716Sol     HW 5821   1.975   2.831   8.826 -2.2597  2.6519 -0.1742
  716Sol     MW 5822   1.980   2.811   8.914 -0.4509  0.4389 -0.0612
  717Sol     OW 5823   1.571   2.559   2.000  0.0802  0.0307 -0.3984
  717Sol     HW 5824   1.660   2.596   2.002  0.3113 -0.4173 -1.7422
  717Sol     HW 5825   1.566   2.502   2.076  0.5919  0.8656  0.2659
  717Sol     MW 5826   1.579   2.557   2.007  0.3609 -0.3181  0.0550
  718Sol     OW 5827   2.307   1.488   3.095  0.2293  0.2018 -0.1283
  718Sol     HW 5828   2.334   1.473   3.004  1.2496 -0.5205  0.2827
  718Sol     HW 5829   2.213   1.506   3.089  0.2226 -0.1569 -1.2960
  718Sol     MW 5830   2.301   1.488   3.086  0.6627 -0.2995  0.0129
  719Sol     OW 5831   1.991   3.394   3.537  0.1353  0.6163 -0.2109
  719Sol     HW 5832   1.927   3.464   3.524 -0.9100 -0.3474 -0.2498
  719Sol     HW 5833   1.941   3.320   3.571  1.1439 -0.2874 -0.6442
  719Sol     MW 5834   1.981   3.394   3.539 -0.2937 -0.1009  0.5666
  720Sol     OW 5835   0.128   1.535   6.809  0.1165 -0.2524  0.1847
  720Sol     HW 5836   0.217   1.560   6.832  0.1487 -0.2045  0.0052
  720Sol     HW 5837   0.083   1.619   6.793 -0.3975 -0.1850  1.8949
  720Sol     MW 5838   0.132   1.545   6.810  0.2507  0.1197  0.2432
  721Sol     OW 5839   0.708   2.846   4.608  0.5228  0.1173 -0.3132
  721Sol     HW 5840   0.698   2.932   4.566  0.5006  0.0475 -0.4500
  721Sol     HW 5841   0.674   2.859   4.697  0.8781  0.3530 -0.2088
  721Sol     MW 5842   0.705   2.855   4.612  0.2051 -0.0412 -0.5091
  722Sol     OW 5843   1.426   2.711   4.923 -0.2244 -0.5873 -0.9730
  722Sol     HW 5844   1.340   2.726   4.963  0.6270  0.7511  0.4118
  722Sol     HW 5845   1.469   2.649   4.982  0.1998 -0.3396 -1.0210
  722Sol     MW 5846   1.422   2.706   4.932  0.7615  0.0172 -0.0407
  723Sol     OW 5847   2.407   0.060   2.523 -0.2138 -0.3233 -0.0297
  723Sol     HW 5848   2.389   0.154   2.534 -1.4656 -0.7447  1.6783
  723Sol     HW 5849   2.502   0.056   2.511  0.1029  1.0264  1.7832
  723Sol     MW 5850   2.414   0.068   2.523  0.6645  0.1161 -0.2056
  724Sol     OW 5851   1.738   1.714   8.596 -0.0826  0.4177 -0.6785
  724Sol     HW 5852   1.720   1.690   8.686 -0.2182 -0.3480 -0.9082
  724Sol     HW 5853   1.814   1.660   8.572 -0.6248 -0.0683 -1.3163
  724Sol     MW 5854   1.743   1.707   8.602 -0.1462 -0.6180  0.3457
  725Sol     OW 5855   0.858   2.884   7.127 -0.7777 -0.2669 -0.0490
  725Sol     HW 5856   0.864   2.793   7.156  1.0785  0.7810  3.0699
  725Sol     HW 5857   0.776   2.916   7.165 -0.4340 -0.0974  0.5658
  725Sol     MW 5858   0.851   2.879   7.133  0.0140 -0.0944  0.3741
  726Sol     OW 5859   0.609   0.364   6.245  0.9612 -0.5049 -0.2033
  726Sol     HW 5860   0.629   0.452   6.213  0.6934 -0.2498  0.3292
  726Sol     HW 5861   0.557   0.325   6.175  0.6020 -0.0413 -0.2001
  726Sol     MW 5862   0.606   0.368   6.236 -0.2196  0.0191  0.0352
  727Sol     OW 5863   0.249   0.063   4.097 -0.0226 -0.2524 -0.3402
  727Sol     HW 5864   0.272   0.040   4.007 -2.5227  2.5247 -1.7633
  727Sol     HW 5865   0.183  -0.001   4.123 -0.4532 -0.0959 -1.0532
  727Sol     MW 5866   0.245   0.055   4.091 -0.7473 -0.3785  0.1587
  728Sol     OW 5867   0.992   2.080   4.266  0.3822 -0.6529  0.0013
  728Sol     HW 5868   0.975   2.003   4.212  0.7792 -1.2765  0.7514
  728Sol     HW 5869   0.952   2.059   4.351  0.2129  0.0971  0.1102
  728Sol     MW 5870   0.987   2.071   4.269 -0.4917  0.4770  0.0033
  729Sol     OW 5871   3.234   1.770   4.445  0.5619  0.0403  0.2922
  729Sol     HW 5872   3.209   1.861   4.455  3.1919  0.7122  1.2237
  729Sol     HW 5873   3.183   1.723   4.511 -1.2602  0.7024 -0.6124
  729Sol     MW 5874   3.227   1.774   4.452  0.7854  0.4063 -0.0791
  730Sol     OW 5875   0.437   0.527   4.755 -0.1629 -0.1851  0.4607
  730Sol     HW 5876   0.483   0.457   4.708 -0.0334 -0.1875  0.5889
  730Sol     HW 5877   0.344   0.505   4.746 -0.1620  0.0619 -0.1721
  730Sol     MW 5878   0.433   0.518   4.750  0.2608  0.0413 -1.1433
  731Sol     OW 5879   0.730   3.386   8.182  0.7726 -0.1483 -0.0369
  731Sol     HW 5880   0.823   3.401   8.199  0.6136  0.7308  0.1204
  731Sol     HW 5881   0.696   3.353   8.265  0.8916 -0.2171 -0.0140
  731Sol     MW 5882   0.735   3.385   8.191  0.0581  0.1005 -0.0517
  732Sol     OW 5883   0.897   2.277   6.537  0.7734  0.6576 -0.3755
  732Sol     HW 5884   0.931   2.352   6.488  0.3256  0.2700 -1.2950
  732Sol     HW 5885   0.880   2.311   6.625  2.6240  1.0941 -0.1655
  732Sol     MW 5886   0.899   2.287   6.540 -0.0742  0.5939  0.0873
  733Sol     OW 5887   3.127   3.217   7.622  0.1944  0.2382 -0.4255
  733Sol     HW 5888   3.156   3.158   7.692  0.3578 -1.1617 -1.6688
  733Sol     HW 5889   3.123   3.163   7.544 -1.8172  1.3554 -1.1462
  733Sol     MW 5890   3.129   3.207   7.621 -0.1298 -0.1012  0.1168
  734Sol     OW 5891   2.349   0.501   4.225 -0.3860  0.0404  0.0544
  734Sol     HW 5892   2.320   0.410   4.219  0.0972 -0.3171  2.3540
  734Sol     HW 5893   2.414   0.511   4.156 -0.3009 -1.4288 -0.0884
  734Sol     MW 5894   2.352   0.494   4.219  0.3402 -0.2642 -0.1112
  735Sol     OW 5895   2.433   3.190   9.292  0.1220  0.4964 -0.2168
  735Sol     HW 5896   2.484   3.154   9.220 -0.3354  0.2864 -0.4326
  735Sol     HW 5897   2.442   3.126   9.362 -0.2286  0.2401 -0.4105
  735Sol     MW 5898   2.438   3.181   9.292  0.1109  0.2028  0.0541
  736Sol     OW 5899   0.469   0.589   3.546 -0.1126  0.0225 -0.3318
  736Sol     HW 5900   0.487   0.534   3.623 -1.5457 -0.9553 -0.6668
  736Sol     HW 5901   0.382   0.624   3.562  0.9789  2.6546  0.1115
  736Sol     MW 5902   0.463   0.587   3.555  0.3197 -0.3235  0.1624
  737Sol     OW 5903   1.531   2.587   7.783 -0.4550  0.1603  0.6807
  737Sol     HW 5904   1.582   2.525   7.835  0.4496  1.6611  1.6132
  737Sol     HW 5905   1.494   2.648   7.847 -0.3994  1.2574 -0.3079
  737Sol     MW 5906   1.533   2.587   7.794  0.2292  0.1912  0.6626
  738Sol     OW 5907   1.231   2.695   6.449 -0.2219 -0.0543 -0.1413
  738Sol     HW 5908   1.206   2.771   6.501  0.3853  0.8324 -1.1184
  738Sol     HW 5909   1.197   2.714   6.361  1.3752 -0.1398 -0.7925
  738Sol     MW 5910   1.226   2.704   6.446 -0.3763  0.1186 -0.9648
  739Sol     OW 5911   3.062   0.910   9.697 -0.0885 -0.1736  0.1112
  739Sol     HW 5912   3.092   0.915   9.788  0.5224 -0.9875 -0.0375
  739Sol     HW 5913   3.007   0.832   9.694  0.4062 -0.5107 -0.3531
  739Sol     MW 5914   3.060   0.904   9.705 -0.5560  0.1799  0.2894
  740Sol     OW 5915   0.325   1.175   5.181  0.0491 -0.1803 -0.0813
  740Sol     HW 5916   0.297   1.246   5.238  0.6324 -0.5274  0.6460
  740Sol     HW 5917   0.393   1.130   5.231  0.2879 -0.7234 -0.8909
  740Sol     MW 5918   0.329   1.177   5.191 -0.0356  0.0745  0.4554
  741Sol     OW 5919   1.015   1.184   3.582  0.0263  0.0424  0.7811
  741Sol     HW 5920   0.943   1.208   3.522 -0.9916  0.6537  2.2238
  741Sol     HW 5921   1.092   1.180   3.526 -1.1840 -0.9166 -0.8604
  741Sol     MW 5922   1.015   1.186   3.571 -0.8852 -0.3359 -0.2216
  742Sol     OW 5923   0.991   1.609   8.523 -0.3477 -0.8304  0.1304
  742Sol     HW 5924   1.076   1.575   8.552 -0.1746 -0.1818  0.3966
  742Sol     HW 5925   0.957   1.655   8.599  0.7542  2.1225 -1.1167
  742Sol     MW 5926   0.996   1.610   8.532  0.1148 -0.3072 -0.1645
  743Sol     OW 5927   0.957   0.128   2.419 -0.4497 -0.0043  0.2153
  743Sol     HW 5928   0.921   0.178   2.345 -1.2391 -0.8287  0.0472
  743Sol     HW 5929   0.958   0.037   2.389  1.2341 -0.0773  0.4309
  743Sol     MW 5930   0.954   0.125   2.410 -0.4377 -0.0888 -0.6196
  744Sol     OW 5931   1.889   1.851   8.182  0.7805 -0.0711  0.1420
  744Sol     HW 5932   1.892   1.867   8.276 -0.0430  1.1881 -0.0324
  744Sol     HW 5933   1.802   1.880   8.155  0.7556 -1.0726 -0.8968
  744Sol     MW 5934   1.881   1.855   8.188  0.4159 -0.2713  0.4968
  745Sol     OW 5935   0.468   3.194   7.150  0.4036  0.1273  0.1140
  745Sol     HW 5936   0.497   3.272   7.103  0.5066  0.3560  0.5560
  745Sol     HW 5937   0.424   3.228   7.228 -0.1752 -0.2383 -0.0480
  745Sol     MW 5938   0.467   3.204   7.153  0.0758  0.1048 -0.1620
  746Sol     OW 5939   2.099   2.961   7.053  0.0654 -0.2394  0.0858
  746Sol     HW 5940   2.068   3.035   7.001 -0.2031 -2.1219 -2.5094
  746Sol     HW 5941   2.035   2.892   7.036  0.9070 -1.4356  1.6506
  746Sol     MW 5942   2.090   2.962   7.047  0.0195 -0.4023  0.0375
  747Sol     OW 5943   0.932   0.398   9.369 -0.3025  0.1278 -0.0045
  747Sol     HW 5944   0.898   0.468   9.314  0.0098  0.5007  0.2762
  747Sol     HW 5945   0.917   0.318   9.318  0.4882  0.5254 -0.8815
  747Sol     MW 5946   0.928   0.397   9.359 -0.0178  0.0840  0.1496
  748Sol     OW 5947   2.124   1.570   5.577  0.6567 -0.3244 -0.1297
  748Sol     HW 5948   2.204   1.519   5.585  0.7016 -0.4562 -1.3026
  748Sol     HW 5949   2.138   1.646   5.634  1.4023 -0.6129  0.0729
  748Sol     MW 5950   2.132   1.572   5.582 -0.0053 -0.3837 -0.3271
  749Sol     OW 5951   0.486   0.697   6.611 -0.5251 -0.0525  0.1694
  749Sol     HW 5952   0.420   0.750   6.656 -1.4876 -1.2512  0.1882
  749Sol     HW 5953   0.449   0.682   6.524  1.0449  1.7146 -0.8265
  749Sol     MW 5954   0.476   0.700   6.607 -0.4198 -0.2828  0.5553
  750Sol     OW 5955   3.170   2.419   3.293 -0.2228 -0.4094  0.8005
  750Sol     HW 5956   3.111   2.397   3.220 -0.6086  1.5103  0.5156
  750Sol     HW 5957   3.257   2.419   3.253 -0.1320 -2.0873  0.9633
  750Sol     MW 5958   3.172   2.417   3.283  0.2299 -0.1039  0.2575
  751Sol     OW 5959   0.409   0.018   6.332 -0.1686  0.4382  0.6708
  751Sol     HW 5960   0.358   0.094   6.360 -0.3069  0.3421  0.6771
  751Sol     HW 5961   0.494   0.055   6.308 -0.9997  0.9265 -1.6736
  751Sol     MW 5962   0.412   0.028   6.333  0.1124 -0.4316 -0.1677
  752Sol     OW 5963   1.668   2.958   8.701  0.4268  0.5584 -0.4893
  752Sol     HW 5964   1.761   2.948   8.683  0.5583  1.6239 -0.4341
  752Sol     HW 5965   1.637   3.019   8.635  0.1442  1.6122  0.6045
  752Sol     MW 5966   1.674   2.962   8.694  0.0738 -0.3421 -0.0038
  753Sol     OW 5967   2.765   2.751   2.289 -0.5745  0.6376 -0.0132
  753Sol     HW 5968   2.716   2.786   2.363 -2.4370 -3.2661  0.7358
  753Sol     HW 5969   2.856   2.753   2.318 -0.7579  3.2475  0.5717
  753Sol     MW 5970   2.769   2.755   2.298  0.3002  0.4285  0.0172
  754Sol     OW 5971   2.566   3.098   3.627 -0.2770  1.2559  0.2853
  754Sol     HW 5972   2.587   3.012   3.591  0.6517  1.2971  0.6866
  754Sol     HW 5973   2.482   3.121   3.589 -0.8659 -0.1316  0.6992
  754Sol     MW 5974   2.561   3.092   3.621  0.0834 -0.5100  0.5093
  755Sol     OW 5975   3.098   2.849   7.540 -0.5454 -0.2926 -0.6738
  755Sol     HW 5976   3.193   2.840   7.544 -0.4096  1.1672 -0.4738
  755Sol     HW 5977   3.068   2.824   7.628 -0.1748  1.1794 -0.1225
  755Sol     MW 5978   3.104   2.846   7.549  0.5268 -0.3253  0.3178
  756Sol     OW 5979   2.007   2.347   3.265  0.4009 -0.1001 -0.5197
  756Sol     HW 5980   2.059   2.288   3.319  0.0964 -0.5465 -0.7078
  756Sol     HW 5981   1.916   2.325   3.286  0.2780 -0.3650 -1.3015
  756Sol     MW 5982   2.004   2.340   3.272 -0.7321  0.0779  0.1654
  757Sol     OW 5983   0.888   2.288   4.647  0.2071 -0.1839 -0.2067
  757Sol     HW 5984   0.938   2.249   4.718  1.0575  0.1459 -0.6130
  757Sol     HW 5985   0.924   2.376   4.638 -1.8339  0.7762  0.8377
  757Sol     MW 5986   0.896   2.292   4.652 -0.2095  0.4147 -0.0968
  758Sol     OW 5987   2.041   2.337   7.666  0.5992 -0.2075  0.1441
  758Sol     HW 5988   2.017   2.251   7.700 -1.6774  0.5213  0.4807
  758Sol     HW 5989   2.058   2.390   7.744  1.9588 -0.3254 -0.0602
  758Sol     MW 5990   2.040   2.334   7.676  0.0644 -0.2477 -0.2050
  759Sol     OW 5991   0.052   1.432   3.024  0.4618 -0.1140 -0.1070
  759Sol     HW 5992   0.055   1.373   3.100  0.7871 -0.6511 -0.5295
  759Sol     HW 5993  -0.028   1.483   3.037 -1.6143 -2.8718 -1.3389
  759Sol     MW 5994   0.045   1.431   3.032 -0.1680 -0.1078  0.0808
  760Sol     OW 5995   2.158   1.367   6.434  0.0028 -0.5318 -0.4082
  760Sol     HW 5996   2.193   1.280   6.455  0.6213 -0.2671 -0.3426
  760Sol     HW 5997   2.070   1.349   6.399 -0.4250 -1.0884  0.9010
  760Sol     MW 5998   2.153   1.357   6.433  0.4821  0.3517 -0.3228
  761Sol     OW 5999   2.880   2.558   6.751  0.0790 -0.4326 -0.5757
  761Sol     HW 6000   2.903   2.651   6.752  1.1824 -0.6939  1.7098
  761Sol     HW 6001   2.920   2.525   6.670  0.4854  0.8704 -0.9248
  761Sol     MW 6002   2.886   2.563   6.744  0.7238  0.5377  0.3130
  762Sol     OW 6003   2.759   0.086   5.629 -0.0661  0.1939  0.1644
  762Sol     HW 6004   2.688   0.039   5.584 -1.3558  1.1735  1.1293
  762Sol     HW 6005   2.798   0.141   5.560  0.0936 -0.7303 -0.4902
  762Sol     MW 6006   2.756   0.087   5.619 -0.1984 -0.5292 -0.2324
  763Sol     OW 6007   2.826   3.146   7.390  0.4298 -0.0960  0.0143
  763Sol     HW 6008   2.838   3.239   7.408  0.2696 -0.2453  0.8858
  763Sol     HW 6009   2.843   3.102   7.473  0.9490 -0.8874 -0.4952
  763Sol     MW 6010   2.829   3.150   7.399 -0.0902 -0.0996 -0.0811
  764Sol     OW 6011   3.008   3.324   2.958  0.0883 -0.1561 -0.3197
  764Sol     HW 6012   2.999   3.419   2.947  1.2425  0.0996  0.8447
  764Sol     HW 6013   3.067   3.314   3.032 -0.2133 -1.7991 -0.2878
  764Sol     MW 6014   3.012   3.332   2.963 -0.3332 -0.4655  0.0196
  765Sol     OW 6015   1.051   0.147   3.482  0.7257  0.1883 -0.1743
  765Sol     HW 6016   1.121   0.203   3.448  0.8734  0.2213  0.1800
  765Sol     HW 6017   1.096   0.081   3.535  0.5346 -0.1488 -0.4332
  765Sol     MW 6018   1.061   0.147   3.484  0.2080  0.1603 -0.2402
  766Sol     OW 6019   2.417   1.601   4.256  0.4559  0.5274 -0.2346
  766Sol     HW 6020   2.357   1.553   4.314  1.1853 -0.8946 -0.6227
  766Sol     HW 6021   2.497   1.549   4.258  1.1857  1.6209 -0.8737
  766Sol     MW 6022   2.419   1.592   4.262  0.0138  0.2235 -0.6659
  767Sol     OW 6023   1.141   3.235   2.155 -0.3824  0.0392 -0.4835
  767Sol     HW 6024   1.115   3.143   2.157  1.5261 -0.5440 -0.7277
  767Sol     HW 6025   1.063   3.283   2.128 -0.2813 -1.9562 -4.5845
  767Sol     MW 6026   1.132   3.231   2.153  0.1413 -0.0343 -0.6941
  768Sol     OW 6027   0.839   2.443   8.675 -0.1971  0.1103 -0.4186
  768Sol     HW 6028   0.858   2.513   8.738 -1.1731 -1.3401  1.5442
  768Sol     HW 6029   0.834   2.487   8.591 -0.4659  2.3591  0.7369
  768Sol     MW 6030   0.840   2.453   8.673  0.1514 -0.2275 -0.1692
  769Sol     OW 6031   0.687   2.392   9.026  0.1748 -0.2895 -0.1864
  769Sol     HW 6032   0.663   2.458   9.091 -0.4764 -1.0499  0.3664
  769Sol     HW 6033   0.779   2.374   9.042  0.3586  0.5089 -0.3602
  769Sol     MW 6034   0.693   2.396   9.033 -0.1338  0.1143  0.0892
  770Sol     OW 6035   2.853   2.947   6.536 -0.6175 -0.2758 -0.1338
  770Sol     HW 6036   2.835   2.914   6.448 -2.8777 -0.7997  0.4792
  770Sol     HW 6037   2.854   3.042   6.526 -0.1350 -0.3528 -0.8519
  770Sol     MW 6038   2.851   2.953   6.527 -0.0283 -0.0674 -0.0023
  771Sol     OW 6039   1.498   1.094   7.398  0.4045 -0.5535 -0.3147
  771Sol     HW 6040   1.488   1.070   7.306 -3.6067 -1.2537  0.2176
  771Sol     HW 6041   1.470   1.185   7.403  0.5709 -0.5251  0.2555
  771Sol     MW 6042   1.495   1.100   7.391 -0.1386  0.5164  0.8061
  772Sol     OW 6043   3.096   0.406   7.911  0.3452  0.1543  0.0312
  772Sol     HW 6044   3.031   0.423   7.980  1.0422  0.6584  0.5779
  772Sol     HW 6045   3.167   0.360   7.957 -0.4499 -2.0913 -0.9447
  772Sol     MW 6046   3.097   0.403   7.922  0.3872 -0.5879  0.5472
  773Sol     OW 6047   1.038   2.630   9.081 -0.3389 -0.0974  0.2512
  773Sol     HW 6048   0.995   2.629   8.995 -1.6255 -1.2120  0.8834
  773Sol     HW 6049   1.007   2.711   9.122 -2.4321 -1.2138  0.9647
  773Sol     MW 6050   1.031   2.637   9.077  0.4419 -0.1610  0.1135
  774Sol     OW 6051   1.215   1.237   8.575  0.0190  0.4712  0.2944
  774Sol     HW 6052   1.181   1.272   8.657  1.7896  1.7489  0.5164
  774Sol     HW 6053   1.216   1.142   8.587 -0.6969  0.5932  1.3429
  774Sol     MW 6054   1.212   1.231   8.583  0.3543  0.1271  0.1084
  775Sol     OW 6055   0.664   0.058   6.274  0.0610 -0.2852 -0.1242
  775Sol     HW 6056   0.678   0.118   6.347  2.2161 -0.8378 -0.0727
  775Sol     HW 6057   0.693  -0.027   6.306  1.0168 -0.5335 -1.5953
  775Sol     MW 6058   0.668   0.056   6.283  0.4762 -0.0451  0.2715
  776Sol     OW 6059   2.815   2.101   6.711 -0.4145  0.1299 -0.3874
  776Sol     HW 6060   2.780   2.188   6.731 -0.3492  0.2123 -0.6225
  776Sol     HW 6061   2.791   2.048   6.786 -1.6543  0.0108 -0.8463
  776Sol     MW 6062   2.810   2.104   6.719 -0.4778 -0.4890 -0.0475
  777Sol     OW 6063   0.997   2.996   6.097  0.1459 -0.0643 -0.3298
  777Sol     HW 6064   1.046   3.072   6.068 -0.3910  0.7628  0.8954
  777Sol     HW 6065   0.945   2.971   6.021  0.8192  0.3828 -0.9414
  777Sol     MW 6066   0.996   3.000   6.088 -0.6007 -0.1596  0.3365
  778Sol     OW 6067   3.010   1.301   4.287 -0.8387 -0.7073 -0.2080
  778Sol     HW 6068   3.092   1.331   4.247 -1.1165 -0.1200 -0.3324
  778Sol     HW 6069   3.000   1.356   4.365 -0.4790 -1.6146  0.4878
  778Sol     MW 6070   3.017   1.308   4.291  0.0327 -0.3889 -0.2711
  779Sol     OW 6071   2.142   0.002   2.683  0.1195  0.0116 -0.5020
  779Sol     HW 6072   2.196   0.048   2.618  0.0344 -1.6390 -1.7752
  779Sol     HW 6073   2.059  -0.013   2.638 -1.5891  2.8235  1.5524
  779Sol     MW 6074   2.140   0.005   2.673  0.5630  0.4829 -0.3047
  780Sol     OW 6075   0.766   0.596   9.211 -0.5758  0.0021  0.4372
  780Sol     HW 6076   0.767   0.683   9.171 -1.0297 -0.1935 -0.0110
  780Sol     HW 6077   0.792   0.537   9.140  0.9215 -0.1037  1.0618
  780Sol     MW 6078   0.768   0.598   9.201 -0.0302  0.0178 -0.1516
  781Sol     OW 6079   0.634   2.216   7.334  0.0228  0.8946 -0.1575
  781Sol     HW 6080   0.707   2.247   7.281 -1.4035  0.4944 -2.4629
  781Sol     HW 6081   0.601   2.294   7.379  1.2424  1.2465  0.1254
  781Sol     MW 6082   0.637   2.225   7.333  0.2310  0.1585 -0.0648
  782Sol     OW 6083   2.604   1.207   7.995 -0.3950 -0.4637  0.3186
  782Sol     HW 6084   2.652   1.218   7.913  0.3293 -1.2113  0.6356
  782Sol     HW 6085   2.578   1.296   8.020  1.4182  0.0398  0.4946
  782Sol     MW 6086   2.606   1.216   7.990  0.2817  0.8213 -0.0168
  783Sol     OW 6087   0.859   1.059   9.308 -0.3295  0.7593 -0.2145
  783Sol     HW 6088   0.815   1.140   9.333  1.0643  1.3417  0.3862
  783Sol     HW 6089   0.943   1.088   9.273 -0.0908 -0.3938 -0.6053
  783Sol     MW 6090   0.862   1.069   9.307  0.2024 -0.0889 -0.0403
  784Sol     OW 6091   1.198   1.989   9.187 -0.5809  0.2706  0.2159
  784Sol     HW 6092   1.171   1.911   9.138 -0.9145  1.2244 -1.1242
  784Sol     HW 6093   1.284   1.965   9.223 -0.9414 -0.9260  0.3099
  784Sol     MW 6094   1.203   1.980   9.186 -0.3846  0.1721  0.2643
  785Sol     OW 6095   3.100   0.385   8.472  0.4798  0.5421  0.5129
  785Sol     HW 6096   3.094   0.370   8.566 -1.5065  0.0248  0.3200
  785Sol     HW 6097   3.110   0.480   8.463 -2.4465  0.9746  1.1752
  785Sol     MW 6098   3.100   0.393   8.479 -0.2102  0.1973 -0.7406
  786Sol     OW 6099   2.062   0.841   2.850  0.0064  0.2678  0.6502
  786Sol     HW 6100   2.115   0.771   2.812  0.0005  1.1689 -1.0676
  786Sol     HW 6101   2.117   0.919   2.842 -0.9877  0.9343  0.1698
  786Sol     MW 6102   2.072   0.842   2.846 -0.0667  0.0350  0.1223
  787Sol     OW 6103   2.382   2.900   5.912  0.4678  0.1783  0.0385
  787Sol     HW 6104   2.437   2.929   5.985  0.3838  0.8350 -0.1652
  787Sol     HW 6105   2.411   2.810   5.896  0.1850 -0.1253  1.1652
  787Sol     MW 6106   2.390   2.894   5.917  0.1883  0.5832 -0.0512
  788Sol     OW 6107   2.133   1.596   4.905  0.6587  0.5864 -0.5971
  788Sol     HW 6108   2.039   1.613   4.893  0.2402 -0.8986  0.3539
  788Sol     HW 6109   2.167   1.585   4.816 -0.1363  0.7645 -0.9292
  788Sol     MW 6110   2.127   1.597   4.896 -0.3791 -0.0659 -0.3392
  789Sol     OW 6111   0.427   2.461   3.407  0.5002 -0.1101  0.2777
  789Sol     HW 6112   0.502   2.473   3.349  0.7165  0.2868  0.6344
  789Sol     HW 6113   0.443   2.377   3.451  0.9866  0.2161  0.7253
  789Sol     MW 6114   0.435   2.455   3.406  0.4589  0.2666  0.5733
  790Sol     OW 6115   1.027   1.551   1.777 -0.7839 -0.2868  0.4278
  790Sol     HW 6116   0.986   1.605   1.709  2.2297  0.7277 -0.6770
  790Sol     HW 6117   1.043   1.467   1.734  0.0313 -0.0358  0.2239
  790Sol     MW 6118   1.025   1.548   1.767 -0.2133  0.0491 -0.0075
  791Sol     OW 6119   0.190   1.681   7.824  0.5292 -0.1254 -0.4472
  791Sol     HW 6120   0.262   1.648   7.770  0.8508  0.2040 -0.2246
  791Sol     HW 6121   0.166   1.764   7.783  0.2038 -0.2845 -0.5813
  791Sol     MW 6122   0.194   1.685   7.815  0.1150 -0.5012 -0.4138
  792Sol     OW 6123   0.351   2.812   4.286  0.5403  0.1090 -0.1979
  792Sol     HW 6124   0.420   2.751   4.261 -0.1384 -0.9458  0.4808
  792Sol     HW 6125   0.280   2.757   4.318 -0.0525  1.2514  0.4974
  792Sol     MW 6126   0.351   2.802   4.287  0.3343 -0.5085  0.9705
  793Sol     OW 6127   2.450   1.196   4.433  0.3994 -0.0113  0.1688
  793Sol     HW 6128   2.534   1.160   4.407  0.3141 -1.3452  1.6394
  793Sol     HW 6129   2.391   1.121   4.435 -0.6758  0.7967 -0.1813
  793Sol     MW 6130   2.452   1.186   4.431 -0.1038  0.3899 -0.0588
  794Sol     OW 6131   2.801   2.799   4.347  0.0345 -0.0513  0.5000
  794Sol     HW 6132   2.785   2.882   4.391  0.0407 -0.5532  1.4550
  794Sol     HW 6133   2.882   2.812   4.299  0.0415  0.4883  0.6577
  794Sol     MW 6134   2.807   2.808   4.346 -0.5607  0.4228  0.4707
  795Sol     OW 6135   0.175   0.209   4.347 -0.2598  0.0624 -0.2034
  795Sol     HW 6136   0.215   0.295   4.344  1.3430 -0.6735 -0.5437
  795Sol     HW 6137   0.210   0.163   4.271 -1.6473 -0.6599 -0.4280
  795Sol     MW 6138   0.181   0.212   4.340 -0.4611  0.0825  0.4232
  796Sol     OW 6139   1.392   2.802  10.099 -0.3258 -0.2504  0.1998
  796Sol     HW 6140   1.359   2.872  10.044 -0.6638 -0.9612 -0.5184
  796Sol     HW 6141   1.480   2.830  10.124 -1.3989  1.6038  2.0422
  796Sol     MW 6142   1.397   2.811  10.096 -0.0188  0.1107  0.5985
  797Sol     OW 6143   1.785   1.039   6.019 -0.0284 -0.0442 -0.1125
  797Sol     HW 6144   1.837   0.967   5.984  0.4822  0.2634  0.0028
  797Sol     HW 6145   1.810   1.115   5.967 -0.2854  0.1284  0.0134
  797Sol     MW 6146   1.792   1.039   6.012 -0.0174  0.1430 -0.3755
  798Sol     OW 6147   0.467   1.239   4.693  0.2561  0.1569 -0.3960
  798Sol     HW 6148   0.478   1.334   4.696  2.1577 -0.0289 -1.1740
  798Sol     HW 6149   0.542   1.204   4.740  0.2506 -1.0119 -1.2331
  798Sol     MW 6150   0.474   1.245   4.698 -0.5245  0.0724  0.1427
  799Sol     OW 6151   0.372   2.797   9.226 -0.9362  0.0942  0.3081
  799Sol     HW 6152   0.300   2.734   9.217  0.0870 -1.1477  0.6351
  799Sol     HW 6153   0.375   2.816   9.320 -0.8440  0.1374  0.2968
  799Sol     MW 6154   0.366   2.793   9.234  0.1979 -0.4507 -0.0985
  800Sol     OW 6155   0.581   3.023   8.316  0.2595 -0.0344 -0.4992
  800Sol     HW 6156   0.539   3.083   8.378 -1.2490 -1.1675 -0.4151
  800Sol     HW 6157   0.547   2.937   8.339  1.2311 -0.7281 -1.6210
  800Sol     MW 6158   0.574   3.021   8.324 -0.4340 -0.6651  0.2570
  801Sol     OW 6159   2.968   1.525   2.011  0.3529 -1.0577  0.4556
  801Sol     HW 6160   3.049   1.488   1.976  0.8476 -0.3928  0.8753
  801Sol     HW 6161   2.899   1.478   1.965  0.9696 -0.0413 -1.6188
  801Sol     MW 6162   2.969   1.518   2.004  0.1167 -0.0030  0.1669
  802Sol     OW 6163   1.664   2.168  10.103  0.5346 -0.4137 -0.4174
  802Sol     HW 6164   1.691   2.245  10.053 -0.8699 -0.0706 -0.6715
  802Sol     HW 6165   1.576   2.148  10.071  0.2700 -1.1892  0.7489
  802Sol     MW 6166   1.659   2.173  10.096 -0.4442 -0.0548 -0.2482
  803Sol     OW 6167   2.797   1.908   4.496 -0.2626  0.7817 -0.5053
  803Sol     HW 6168   2.801   1.816   4.470 -1.0727  0.4172  0.5871
  803Sol     HW 6169   2.715   1.915   4.544  0.5708  1.7011  0.8141
  803Sol     MW 6170   2.790   1.900   4.498  0.1700 -0.3506  0.2619
  804Sol     OW 6171   0.567   2.029   2.586 -0.7609  0.0357  0.4899
  804Sol     HW 6172   0.513   1.951   2.584 -0.5992 -0.1044  1.4352
  804Sol     HW 6173   0.633   2.011   2.653  0.7525  0.0072 -0.9806
  804Sol     MW 6174   0.568   2.021   2.592 -0.3514 -0.1664  0.2643
  805Sol     OW 6175   2.237   0.115   3.633  0.3187  0.2682 -0.2607
  805Sol     HW 6176   2.158   0.077   3.596 -0.7618  1.5869  0.6239
  805Sol     HW 6177   2.205   0.180   3.695  2.0997 -0.2817  1.2716
  805Sol     MW 6178   2.227   0.118   3.635  0.7547 -0.0403 -0.4945
  806Sol     OW 6179   1.163   0.314   5.661  0.0038 -0.3336  0.6711
  806Sol     HW 6180   1.098   0.315   5.590  2.3977  0.9071 -1.6180
  806Sol     HW 6181   1.142   0.391   5.713 -0.5172 -0.0676  0.0834
  806Sol     MW 6182   1.155   0.321   5.659  0.2730 -0.0280  0.2469
  807Sol     OW 6183   0.245   0.766   5.063  0.5559  0.0695  0.4662
  807Sol     HW 6184   0.171   0.714   5.094  0.0374  0.3795 -0.2510
  807Sol     HW 6185   0.214   0.808   4.983  1.7485 -0.3691 -0.2432
  807Sol     MW 6186   0.236   0.765   5.059 -0.0057 -0.1409  0.0040
  808Sol     OW 6187   1.215   0.268   8.809 -0.0880  0.0100  0.3637
  808Sol     HW 6188   1.172   0.215   8.742  2.1163 -0.1723 -0.9616
  808Sol     HW 6189   1.157   0.342   8.823 -1.3877 -0.8401 -0.5156
  808Sol     MW 6190   1.206   0.270   8.804  0.0469 -0.2586 -0.3151
  809Sol     OW 6191   0.537   3.170   2.132 -0.0974  0.4425 -0.0746
  809Sol     HW 6192   0.473   3.222   2.084  1.1572  1.6837 -0.4411
  809Sol     HW 6193   0.490   3.137   2.208 -2.0807 -1.4084 -2.0120
  809Sol     MW 6194   0.527   3.171   2.134  0.3605  0.0521 -0.4132
  810Sol     OW 6195   1.855   2.035   6.326  0.7438 -0.5432 -0.1315
  810Sol     HW 6196   1.896   2.086   6.257 -0.0831  1.2983  0.6933
  810Sol     HW 6197   1.873   2.084   6.406  0.9497 -2.1892  0.8516
  810Sol     MW 6198   1.860   2.044   6.327 -0.2360  0.1098  0.1149
  811Sol     OW 6199   0.487   1.777   5.517  0.1601 -0.1831  1.1797
  811Sol     HW 6200   0.465   1.716   5.588  0.5932 -0.1163  1.3687
  811Sol     HW 6201   0.536   1.724   5.454 -0.9278 -0.4417  0.5416
  811Sol     MW 6202   0.489   1.767   5.518 -0.3418  0.2828  0.0908
  812Sol     OW 6203   0.968   2.047   6.439 -0.0383  0.4879  0.4257
  812Sol     HW 6204   0.929   2.123   6.481 -0.0295  0.8847 -0.2809
  812Sol     HW 6205   1.027   2.083   6.373  0.2999 -0.1247  0.3871
  812Sol     MW 6206   0.970   2.057   6.437  0.0824 -0.2907 -0.1567
  813Sol     OW 6207   2.661   1.007   7.112  0.1197 -0.2111 -0.6944
  813Sol     HW 6208   2.737   1.031   7.059 -0.0790  0.0951 -0.8410
  813Sol     HW 6209   2.604   0.959   7.052  0.1550 -0.3592 -0.6095
  813Sol     MW 6210   2.663   1.005   7.102 -0.4644  0.0509 -0.1570
  814Sol     OW 6211   2.219   1.206   3.052  0.2145 -0.4854 -0.2985
  814Sol     HW 6212   2.246   1.292   3.083  0.0059 -0.9064  1.0647
  814Sol     HW 6213   2.125   1.214   3.038  0.5706  0.1922 -2.4636
  814Sol     MW 6214   2.213   1.214   3.054 -0.1838 -0.1461 -0.1774
  815Sol     OW 6215   2.529   2.212   3.984  0.1310 -0.2847 -0.4165
  815Sol     HW 6216   2.621   2.205   3.959  0.4396 -0.9377  0.8581
  815Sol     HW 6217   2.492   2.126   3.962  0.7833 -1.4517  2.7692
  815Sol     MW 6218   2.534   2.204   3.980  0.1422  0.0824 -0.1914
  816Sol     OW 6219   2.228   2.734   1.883  0.5026  0.1605 -0.1735
  816Sol     HW 6220   2.174   2.781   1.820 -0.6504  0.0572  0.7350
  816Sol     HW 6221   2.207   2.774   1.968  1.0065 -0.6465  0.3374
  816Sol     MW 6222   2.222   2.742   1.885  0.1067 -0.7755 -0.0232
  817Sol     OW 6223   1.682   3.296   9.934 -0.5806 -0.0735  0.1241
  817Sol     HW 6224   1.675   3.314   9.840 -0.9554 -1.2758 -0.0970
  817Sol     HW 6225   1.602   3.246   9.955  0.8698 -2.3523  0.4432
  817Sol     MW 6226   1.674   3.293   9.927  0.1547 -0.2450  0.2704
  818Sol     OW 6227   2.268   0.628   3.837 -0.3245  0.2304 -0.2642
  818Sol     HW 6228   2.271   0.533   3.847 -0.1166  0.2471 -0.1555
  818Sol     HW 6229   2.290   0.661   3.924 -1.4676  0.3733 -0.0332
  818Sol     MW 6230   2.271   0.622   3.846  0.1340 -0.6137 -0.1089
  819Sol     OW 6231   0.868   0.326   8.374 -0.1269 -0.0936  0.1520
  819Sol     HW 6232   0.847   0.298   8.285 -0.6318  0.4978  0.0743
  819Sol     HW 6233   0.939   0.389   8.364  0.6077 -0.9097  0.2718
  819Sol     MW 6234   0.872   0.329   8.365 -0.0763  0.1482  0.0519
  820Sol     OW 6235   2.309   0.638   9.331 -0.4677 -0.3118 -0.2405
  820Sol     HW 6236   2.300   0.695   9.254  0.8305  1.5866  0.9924
  820Sol     HW 6237   2.223   0.641   9.372 -0.8342 -0.4341 -0.9773
  820Sol     MW 6238   2.300   0.643   9.328  0.1751  0.2486  0.3324
  821Sol     OW 6239   0.211   0.577   4.455 -0.0050 -0.3471  0.1583
  821Sol     HW 6240   0.117   0.560   4.445  0.1505 -1.6884  0.8097
  821Sol     HW 6241   0.224   0.665   4.420 -1.7498  0.4167  1.3529
  821Sol     MW 6242   0.204   0.583   4.451 -0.7766 -0.6178  0.2329
  822Sol     OW 6243   1.274   3.312   8.336 -0.0383  0.7615 -0.1105
  822Sol     HW 6244   1.310   3.381   8.392 -0.5144  0.0185  1.1283
  822Sol     HW 6245   1.337   3.304   8.264 -0.2194  2.8187 -0.5309
  822Sol     MW 6246   1.283   3.318   8.334  0.2327  0.2821  0.6342
  823Sol     OW 6247   2.322   0.027  10.117 -0.0161  0.2555 -0.5480
  823Sol     HW 6248   2.312   0.107  10.065  0.0019  0.3907 -0.3424
  823Sol     HW 6249   2.417   0.011  10.118  0.0509  0.7074  0.1319
  823Sol     MW 6250   2.330   0.033  10.112  0.4445 -0.4846  0.4009
  824Sol     OW 6251   1.670   2.170   3.156 -0.1773  0.0021  1.0505
  824Sol     HW 6252   1.583   2.135   3.176  0.0945 -1.3654 -0.0995
  824Sol     HW 6253   1.727   2.129   3.221 -0.2442  0.1596  1.2081
  824Sol     MW 6254   1.667   2.163   3.164  0.0981  0.4617 -0.3708
  825Sol     OW 6255   2.698   0.167   5.917 -0.0856  0.0151 -0.0819
  825Sol     HW 6256   2.644   0.243   5.939 -0.9335 -0.7518  0.5200
  825Sol     HW 6257   2.696   0.164   5.821 -0.8301  0.1999 -0.0775
  825Sol     MW 6258   2.693   0.173   5.910 -0.1114 -0.1711  0.1520
  826Sol     OW 6259   3.072   2.386   5.271 -0.4101 -0.0881 -0.6851
  826Sol     HW 6260   3.072   2.438   5.351 -0.1929 -0.2572 -0.5753
  826Sol     HW 6261   3.165   2.371   5.252 -0.4376  0.3662 -1.2350
  826Sol     MW 6262   3.081   2.390   5.276  0.5628  0.3653  0.2507
  827Sol     OW 6263   1.727   2.254   2.899 -0.5898  0.3899 -0.0477
  827Sol     HW 6264   1.733   2.349   2.908 -3.3563  0.7182 -1.0845
  827Sol     HW 6265   1.696   2.224   2.984 -0.3772  0.4950  0.0672
  827Sol     MW 6266   1.725   2.260   2.907 -0.2999 -0.1097  0.4429
  828Sol     OW 6267   2.421   1.242   7.134 -0.0195  0.1322 -0.0628
  828Sol     HW 6268   2.488   1.289   7.085 -0.6151  2.1613  1.0182
  828Sol     HW 6269   2.462   1.158   7.155  1.3000  0.3882 -1.4759
  828Sol     MW 6270   2.431   1.239   7.132  0.5302  0.0143  0.2546
  829Sol     OW 6271   0.691   3.320   3.617  0.2259  0.4467 -0.2290
  829Sol     HW 6272   0.758   3.301   3.683  0.5150  2.3510  0.0606
  829Sol     HW 6273   0.737   3.309   3.533  0.4023 -0.0339 -0.0699
  829Sol     MW 6274   0.702   3.317   3.615  0.0386 -0.1019  0.1433
  830Sol     OW 6275   3.240   1.900   8.628  0.3416 -0.5527 -0.8214
  830Sol     HW 6276   3.282   1.918   8.544  2.3850  0.0508  0.2967
  830Sol     HW 6277   3.148   1.925   8.615  0.8353  0.4114 -2.5858
  830Sol     MW 6278   3.235   1.904   8.619  0.0747 -0.4804 -0.1356
  831Sol     OW 6279   1.002   3.168   4.334 -0.0687  0.0655 -0.8765
  831Sol     HW 6280   0.939   3.214   4.389  0.3911 -1.1155  0.6547
  831Sol     HW 6281   1.080   3.223   4.335  0.3513 -0.5507  0.6473
  831Sol     MW 6282   1.003   3.177   4.339 -0.1569 -0.1273  0.0303
  832Sol     OW 6283   1.792   2.816   5.463 -0.0258 -0.6546  0.2784
  832Sol     HW 6284   1.807   2.907   5.439 -1.6396 -0.6090 -0.6750
  832Sol     HW 6285   1.826   2.809   5.552  2.1715  0.2844 -0.4669
  832Sol     MW 6286   1.796   2.824   5.469 -0.1678 -0.0826  0.1225
  833Sol     OW 6287   0.115   1.682   8.326  0.3814  0.3747 -0.1251
  833Sol     HW 6288   0.174   1.628   8.379 -1.1836 -0.4751  0.7836
  833Sol     HW 6289   0.036   1.628   8.316 -0.1252  1.3502 -1.6215
  833Sol     MW 6290   0.113   1.672   8.330 -0.2302 -0.7098  0.2026
  834Sol     OW 6291   1.135   2.043   9.979  0.0523 -0.4302 -0.0002
  834Sol     HW 6292   1.095   2.028  10.065  0.5721  0.0553  0.3252
  834Sol     HW 6293   1.061   2.043   9.918 -0.6627  2.2524  0.7991
  834Sol     MW 6294   1.125   2.041   9.982  0.1385  0.6657 -0.1466
  835Sol     OW 6295   1.503   2.528   5.120 -0.2265 -0.3340 -0.3667
  835Sol     HW 6296   1.453   2.503   5.197  0.0488 -0.1488 -0.1286
  835Sol     HW 6297   1.501   2.451   5.063  0.3122 -0.7662  0.1989
  835Sol     MW 6298   1.498   2.519   5.122  0.0429  0.0131  0.2065
  836Sol     OW 6299   2.326   1.067   3.976  0.0254  0.0030  0.1334
  836Sol     HW 6300   2.231   1.068   3.967  0.1162  1.2450 -0.9277
  836Sol     HW 6301   2.357   1.117   3.901  1.5452 -0.8072  0.2101
  836Sol     MW 6302   2.320   1.072   3.968 -0.0430  0.2330  0.1855
  837Sol     OW 6303   0.208   1.403   8.129 -0.3173 -0.1176 -0.4545
  837Sol     HW 6304   0.261   1.423   8.205  0.0870 -4.1129  0.4446
  837Sol     HW 6305   0.126   1.370   8.165 -1.2231  0.6369 -1.7898
  837Sol     MW 6306   0.205   1.401   8.139  0.2511 -0.2054  0.3282
  838Sol     OW 6307   1.060   0.817   4.767  0.4488 -0.6606 -0.8756
  838Sol     HW 6308   1.133   0.761   4.738  1.5365  0.6174 -0.6555
  838Sol     HW 6309   1.101   0.886   4.819 -1.1899 -1.2457  1.2410
  838Sol     MW 6310   1.070   0.818   4.769  0.1173 -0.3121 -0.1573
  839Sol     OW 6311   0.186   1.649   4.017 -0.1899  0.1068 -0.1091
  839Sol     HW 6312   0.126   1.657   4.092  0.3787  1.1837  0.2373
  839Sol     HW 6313   0.221   1.560   4.024 -2.6990 -1.0066 -1.0390
  839Sol     MW 6314   0.183   1.642   4.025  0.1017  0.1929 -0.1504
  840Sol     OW 6315   3.208   1.273   5.382  0.0426  0.0639  0.1204
  840Sol     HW 6316   3.207   1.195   5.437  0.1333 -0.6309 -0.8537
  840Sol     HW 6317   3.141   1.330   5.420 -0.9877 -1.0644  0.0150
  840Sol     MW 6318   3.202   1.271   5.390 -0.4024  0.3983 -0.0322
  841Sol     OW 6319   1.543   3.052   5.295 -0.2671 -0.4252  0.0395
  841Sol     HW 6320   1.507   3.008   5.218  1.4400 -0.1144 -0.9613
  841Sol     HW 6321   1.476   3.041   5.363 -1.6911 -0.8868 -1.4215
  841Sol     MW 6322   1.534   3.047   5.295  0.1330  0.0786 -0.2109
  842Sol     OW 6323   1.073   2.629   4.821  0.2349 -0.1775  0.1927
  842Sol     HW 6324   1.031   2.687   4.758 -0.3213  0.0359  0.7625
  842Sol     HW 6325   1.094   2.686   4.895 -0.3303 -0.7146  0.7594
  842Sol     MW 6326   1.071   2.640   4.822 -0.6440 -0.0867 -0.7335
  843Sol     OW 6327   2.767   3.232   9.731 -0.1443  0.1964 -0.1536
  843Sol     HW 6328   2.736   3.142   9.716 -0.6449  0.3582 -0.0839
  843Sol     HW 6329   2.844   3.221   9.788  0.8877 -0.3163 -1.6165
  843Sol     MW 6330   2.771   3.223   9.735  0.3985  0.4193 -0.2890
  844Sol     OW 6331   2.347   0.437   2.707  0.3742  0.0329  0.0863
  844Sol     HW 6332   2.401   0.396   2.639  0.7865 -0.6637  0.8311
  844Sol     HW 6333   2.326   0.524   2.672  0.2417 -0.4706 -1.1117
  844Sol     MW 6334   2.350   0.441   2.698  0.3656 -0.2313 -0.4498
  845Sol     OW 6335   2.735   1.151   5.614  0.4596 -0.0598 -0.5349
  845Sol     HW 6336   2.674   1.077   5.606 -1.0496  0.9280  1.5954
  845Sol     HW 6337   2.681   1.228   5.597  0.5274  0.9950  3.5907
  845Sol     MW 6338   2.725   1.151   5.612  0.0764 -0.0276 -0.8486
  846Sol     OW 6339   1.049   1.944   2.868 -0.5905 -0.0426 -0.5081
  846Sol     HW 6340   1.049   1.968   2.961 -1.8222  0.3754 -0.6074
  846Sol     HW 6341   1.017   1.853   2.867 -0.3055 -0.1418 -0.4959
  846Sol     MW 6342   1.046   1.938   2.876 -0.2227  0.1477 -0.0080
  847Sol     OW 6343   1.870   3.399   1.780 -0.0263  0.2541  0.2837
  847Sol     HW 6344   1.812   3.326   1.759 -0.1354  0.1861  0.8131
  847Sol     HW 6345   1.955   3.359   1.798 -0.0479  0.2711  0.4251
  847Sol     MW 6346   1.873   3.389   1.780  0.0351  0.3333 -0.1704
  848Sol     OW 6347   0.697   2.642   9.700 -0.3976  0.0225 -0.3337
  848Sol     HW 6348   0.654   2.664   9.783 -0.2391  1.2877 -0.5893
  848Sol     HW 6349   0.633   2.586   9.655 -0.8672  0.0865  0.2345
  848Sol     MW 6350   0.687   2.639   9.704 -0.4060  0.1567  0.2361
  849Sol     OW 6351   0.597   2.236   9.240  0.5297  0.3706 -0.2972
  849Sol     HW 6352   0.525   2.231   9.303 -0.4219  0.3794 -1.3696
  849Sol     HW 6353   0.637   2.321   9.255  0.9603 -0.0400  0.9821
  849Sol     MW 6354   0.594   2.243   9.247  0.1799  0.1482 -0.4925
  850Sol     OW 6355   2.714   1.351   2.296 -0.5238 -0.0811  0.4362
  850Sol     HW 6356   2.660   1.430   2.292 -0.9740 -0.3162  1.5356
  850Sol     HW 6357   2.720   1.332   2.390 -1.8005 -2.2852  0.0997
  850Sol     MW 6358   2.709   1.357   2.304 -0.1816  0.0609 -0.4789
  851Sol     OW 6359   3.108   0.079   3.839  0.4748  0.2443  0.0398
  851Sol     HW 6360   3.064   0.032   3.910  0.7022  0.5249  0.3686
  851Sol     HW 6361   3.184   0.119   3.881  0.6457  0.3536 -0.3791
  851Sol     MW 6362   3.111   0.078   3.849  0.5049  0.6112  0.2934
  852Sol     OW 6363   0.206   1.532   5.618 -0.6690  0.4306 -0.3026
  852Sol     HW 6364   0.159   1.593   5.561  0.6004  1.1832 -0.5777
  852Sol     HW 6365   0.259   1.588   5.675 -0.3661 -0.3812  0.2228
  852Sol     MW 6366   0.207   1.543   5.618 -0.1469 -0.1376 -0.1960
  853Sol     OW 6367   2.140   0.193   1.657 -0.2982 -0.0016 -0.1827
  853Sol     HW 6368   2.153   0.281   1.692 -0.3940 -0.0025 -0.1446
  853Sol     HW 6369   2.224   0.171   1.616 -0.9844  0.9966 -2.1872
  853Sol     MW 6370   2.149   0.199   1.657 -0.4934 -0.6614  0.0735
  854Sol     OW 6371   0.791   1.395   5.445 -0.3748 -0.1655 -0.4816
  854Sol     HW 6372   0.813   1.345   5.366  0.9225  0.2469 -0.3930
  854Sol     HW 6373   0.860   1.372   5.508 -1.5033 -0.6417  0.6067
  854Sol     MW 6374   0.799   1.388   5.444 -0.5125 -0.4394  0.0621
  855Sol     OW 6375   0.411   1.528   2.976 -0.1121  0.0543 -0.1518
  855Sol     HW 6376   0.362   1.553   2.898  0.8980 -2.8389 -1.8320
  855Sol     HW 6377   0.345   1.494   3.037 -0.7121  0.7319 -0.4215
  855Sol     MW 6378   0.401   1.527   2.975 -0.2188  0.2442  0.0028
  856Sol     OW 6379   1.561   2.422   2.264  0.4806 -0.5596  0.1930
  856Sol     HW 6380   1.549   2.515   2.284  2.5934 -0.1638 -0.2193
  856Sol     HW 6381   1.645   2.400   2.306  0.0148 -2.2668  0.2483
  856Sol     MW 6382   1.568   2.429   2.269  0.4356 -0.2276 -0.1324
  857Sol     OW 6383   2.374   2.072   9.399  0.2186  0.2449  0.2582
  857Sol     HW 6384   2.307   2.071   9.331 -1.4321 -1.9039  1.8496
  857Sol     HW 6385   2.406   1.982   9.403  2.4197  1.0133  0.2909
  857Sol     MW 6386   2.371   2.064   9.393 -0.1807 -0.3971 -0.0533
  858Sol     OW 6387   2.694   0.693   4.097  0.5093 -0.4372 -0.5511
  858Sol     HW 6388   2.788   0.697   4.114  0.0824 -1.1442  2.2373
  858Sol     HW 6389   2.656   0.752   4.161 -1.0295 -0.9713 -0.9553
  858Sol     MW 6390   2.699   0.699   4.104  0.2314  0.0298  0.1462
  859Sol     OW 6391   0.358   2.399   9.860 -0.4671 -0.4272  0.0170
  859Sol     HW 6392   0.440   2.378   9.905  0.3452 -0.4785 -1.4672
  859Sol     HW 6393   0.297   2.333   9.891  0.2367 -0.8063  0.6196
  859Sol     MW 6394   0.360   2.391   9.867 -0.0599 -0.3943  0.5365
  860Sol     OW 6395   1.815   1.853   7.759 -0.0977  0.4786 -0.4673
  860Sol     HW 6396   1.745   1.848   7.694 -2.1303  1.1134  1.5673
  860Sol     HW 6397   1.782   1.803   7.834  0.2552  3.2985  1.6826
  860Sol     MW 6398   1.806   1.848   7.760  0.2353 -0.6728  0.3342
  861Sol     OW 6399   1.095   1.923   7.420  0.2676  0.4326 -0.1795
  861Sol     HW 6400   1.180   1.967   7.416 -0.6916  2.4834  1.3135
  861Sol     HW 6401   1.117   1.830   7.419  2.5901  0.9198  1.1025
  861Sol     MW 6402   1.105   1.919   7.419  0.4277 -0.1115  0.6276
  862Sol     OW 6403   2.832   1.223   6.164  0.1069  0.8064 -0.1337
  862Sol     HW 6404   2.786   1.160   6.108  0.1474 -0.0064  0.7433
  862Sol     HW 6405   2.777   1.300   6.163 -0.4285  0.4243 -0.4507
  862Sol     MW 6406   2.823   1.224   6.159 -0.1963 -0.1717 -0.7497
  863Sol     OW 6407   0.332   2.538   7.270  0.5164 -0.4305  0.4266
  863Sol     HW 6408   0.322   2.458   7.218 -0.2377  0.9061 -1.5709
  863Sol     HW 6409   0.252   2.542   7.323 -0.7401  0.3472 -1.4547
  863Sol     MW 6410   0.324   2.531   7.270 -0.2852  0.6451  0.5253
  864Sol     OW 6411   2.370   2.863   4.057 -0.1485  0.2389  0.6308
  864Sol     HW 6412   2.387   2.871   4.151  0.0046 -1.8935  0.7941
  864Sol     HW 6413   2.434   2.923   4.016 -0.1840  1.1402  1.8628
  864Sol     MW 6414   2.377   2.869   4.062 -0.2176  0.1298  0.1458
  865Sol     OW 6415   0.309   2.864   4.892 -0.5681 -0.5594 -0.6433
  865Sol     HW 6416   0.261   2.843   4.812 -0.6275 -1.1716 -0.4455
  865Sol     HW 6417   0.241   2.877   4.958 -0.4934 -0.5976 -0.5595
  865Sol     MW 6418   0.299   2.863   4.890  0.0859  0.0171 -0.3244
  866Sol     OW 6419   1.710   3.110   8.178  0.4446  0.3080 -0.6244
  866Sol     HW 6420   1.806   3.107   8.182  0.3676  0.2491  1.7307
  866Sol     HW 6421   1.685   3.176   8.242 -1.0906  0.3583 -1.2651
  866Sol     MW 6422   1.716   3.115   8.184  0.1619 -0.1335  0.2580
  867Sol     OW 6423   2.885   1.274   5.821  0.3191 -0.9006 -0.0125
  867Sol     HW 6424   2.832   1.240   5.749  0.2688  0.2998 -0.5633
  867Sol     HW 6425   2.911   1.362   5.792  1.0613 -0.7633  1.0435
  867Sol     MW 6426   2.882   1.279   5.812 -0.5204  0.5411  0.1912
  868Sol     OW 6427   1.743   1.648   7.971  0.2139  0.0974 -0.8287
  868Sol     HW 6428   1.816   1.614   8.023 -0.1387 -2.1919 -1.7982
  868Sol     HW 6429   1.681   1.682   8.036  1.3244  0.4478  0.0629
  868Sol     MW 6430   1.744   1.648   7.982  0.4258 -0.3655 -0.5106
  869Sol     OW 6431   2.117   1.726   3.193 -0.4818  0.1762 -0.4400
  869Sol     HW 6432   2.076   1.656   3.142 -0.5049 -0.7681  0.8317
  869Sol     HW 6433   2.072   1.805   3.165 -1.1283 -0.4484 -1.2153
  869Sol     MW 6434   2.109   1.726   3.186 -0.2819  0.1599 -0.7216
  870Sol     OW 6435   1.752   0.616   4.856 -0.2981 -0.2459  0.3144
  870Sol     HW 6436   1.762   0.544   4.918 -0.2268 -0.6459 -0.1591
  870Sol     HW 6437   1.822   0.603   4.792  1.8439  2.1695  2.0828
  870Sol     MW 6438   1.759   0.608   4.856  0.0886  0.8542 -0.1631
  871Sol     OW 6439   2.680   0.328   4.365  0.1069 -0.3697  0.1975
  871Sol     HW 6440   2.750   0.282   4.411 -0.7673 -2.3674 -0.4273
  871Sol     HW 6441   2.704   0.320   4.272  0.9636  2.1466  0.1708
  871Sol     MW 6442   2.689   0.323   4.360 -0.2912  0.3928  0.1297
  872Sol     OW 6443   1.468   2.474   5.958 -1.2539  0.2160 -0.5196
  872Sol     HW 6444   1.517   2.481   6.040 -0.9696  0.8425 -0.7433
  872Sol     HW 6445   1.399   2.540   5.966 -0.9400  0.5990 -0.9817
  872Sol     MW 6446   1.466   2.481   5.966 -0.1110 -0.0180  0.5743
  873Sol     OW 6447   0.381   0.262   2.208 -0.2545  0.1511 -0.1216
  873Sol     HW 6448   0.455   0.282   2.150 -1.2483 -0.2716 -1.5480
  873Sol     HW 6449   0.338   0.346   2.221 -0.0847  0.2304 -0.0593
  873Sol     MW 6450   0.384   0.271   2.204  0.1602  0.2047 -0.0389
  874Sol     OW 6451   3.183   2.281   4.823  0.2473  0.8329  0.0649
  874Sol     HW 6452   3.106   2.295   4.877  1.3297  2.3287  1.2635
  874Sol     HW 6453   3.176   2.348   4.754  0.0232  0.3910 -0.3439
  874Sol     MW 6454   3.175   2.288   4.821  0.6408 -0.2596  0.3740
  875Sol     OW 6455   0.484   2.111   3.250 -0.1834  0.3253  0.3531
  875Sol     HW 6456   0.389   2.109   3.240 -0.2303  0.6319  0.7104
  875Sol     HW 6457   0.515   2.156   3.171 -0.0197 -3.1558 -1.6900
  875Sol     MW 6458   0.478   2.115   3.242 -0.0209  0.2520  0.4849
  876Sol     OW 6459   0.556   0.279   1.978 -0.1681  0.2347  0.3041
  876Sol     HW 6460   0.561   0.189   1.947  0.4676  0.2160  0.4417
  876Sol     HW 6461   0.601   0.330   1.911  0.3698  0.3152  0.7175
  876Sol     MW 6462   0.561   0.275   1.969 -0.4228 -0.0082  0.4751
  877Sol     OW 6463   1.298   0.910   6.532 -0.0679 -0.1768  0.0926
  877Sol     HW 6464   1.259   0.848   6.470 -0.4256 -0.5412  0.6805
  877Sol     HW 6465   1.245   0.900   6.612  0.3575  0.3305  0.4345
  877Sol     MW 6466   1.289   0.904   6.534 -0.5917 -0.0520 -0.1518
  878Sol     OW 6467   2.734   0.952   1.631  0.1059  0.3900 -0.1432
  878Sol     HW 6468   2.804   1.014   1.649  0.0585  0.5764 -0.6023
  878Sol     HW 6469   2.697   0.933   1.718  1.4568 -0.5887  0.2234
  878Sol     MW 6470   2.737   0.956   1.641  0.4031  0.5817  0.3624
  879Sol     OW 6471   3.180   0.736   6.219  0.0811 -0.1045  0.2836
  879Sol     HW 6472   3.200   0.823   6.185 -0.9864  1.0532  2.5173
  879Sol     HW 6473   3.213   0.676   6.152  0.8953  1.9999 -1.2576
  879Sol     MW 6474   3.184   0.738   6.210  0.0406 -0.2598  0.3453
  880Sol     OW 6475   2.160   1.063   8.725  0.1099 -0.1984 -0.1649
  880Sol     HW 6476   2.151   0.984   8.778  2.2510  0.3155  1.0037
  880Sol     HW 6477   2.248   1.058   8.688 -0.9676  0.0006 -2.8236
  880Sol     MW 6478   2.167   1.056   8.726  0.0546  0.1906 -0.3733
  881Sol     OW 6479   2.188   1.809   5.678  0.0475 -0.3606 -0.2874
  881Sol     HW 6480   2.222   1.823   5.767 -0.0600  0.0512 -0.3098
  881Sol     HW 6481   2.099   1.844   5.681 -1.0077 -2.9711  0.2427
  881Sol     MW 6482   2.183   1.813   5.686  0.3736  0.1800  0.3782
  882Sol     OW 6483   1.430   2.680   5.392  0.6156  0.0339 -0.5970
  882Sol     HW 6484   1.352   2.725   5.361 -0.2343 -0.5050  0.7184
  882Sol     HW 6485   1.412   2.587   5.379  0.8032 -0.1249  0.2268
  882Sol     MW 6486   1.422   2.676   5.388  0.3265  1.1811 -0.3889
  883Sol     OW 6487   1.606   1.558   4.304  0.7541 -0.4054  0.3163
  883Sol     HW 6488   1.586   1.513   4.222 -0.7196 -0.8584  0.8958
  883Sol     HW 6489   1.691   1.599   4.289  0.4157 -0.3091 -1.5130
  883Sol     MW 6490   1.611   1.558   4.295 -0.4138 -0.0807 -0.5058
  884Sol     OW 6491   2.738   3.408   8.462  0.2379 -0.5459  0.3591
  884Sol     HW 6492   2.831   3.395   8.449  0.2371 -1.5760  1.3480
  884Sol     HW 6493   2.726   3.503   8.456  1.6083 -0.2577  1.9098
  884Sol     MW 6494   2.745   3.416   8.460  0.2480 -0.2080  0.2993
  885Sol     OW 6495   1.907   0.479   4.672  0.3749  0.0579  0.1026
  885Sol     HW 6496   1.826   0.430   4.656  1.0420 -0.8361 -0.6178
  885Sol     HW 6497   1.959   0.421   4.727  1.2604 -0.1669 -0.9431
  885Sol     MW 6498   1.904   0.469   4.675  0.3481  0.0671 -0.1607
  886Sol     OW 6499   3.155   0.141   5.071  0.2674 -0.6494  0.3957
  886Sol     HW 6500   3.227   0.094   5.113  1.1264  1.7775  1.7331
  886Sol     HW 6501   3.078   0.118   5.123  0.4678 -1.4465  0.3555
  886Sol     MW 6502   3.155   0.134   5.079 -0.0459  0.3669  0.1025
  887Sol     OW 6503   1.975   0.925   4.735  0.4432  0.3801 -0.7165
  887Sol     HW 6504   2.063   0.892   4.755 -0.0759 -0.8912 -0.4891
  887Sol     HW 6505   1.990   1.008   4.690  1.7618  0.0995 -0.8074
  887Sol     MW 6506   1.984   0.929   4.733  0.2131 -0.3754 -0.4888
  888Sol     OW 6507   2.017   1.434   7.489  0.1493 -0.4192  0.6188
  888Sol     HW 6508   2.111   1.440   7.505 -0.0309  1.2464  1.1279
  888Sol     HW 6509   1.979   1.504   7.541 -1.4078 -1.2153  0.5815
  888Sol     MW 6510   2.022   1.441   7.495 -0.0508  0.2065  0.2165
  889Sol     OW 6511   1.614   1.275   8.150 -0.1159 -0.0426  0.1711
  889Sol     HW 6512   1.651   1.309   8.068  0.6961  0.4639  0.7396
  889Sol     HW 6513   1.667   1.198   8.170 -0.6646 -0.4894 -0.0504
  889Sol     MW 6514   1.622   1.271   8.144 -0.3054 -0.0119  0.6728
  890Sol     OW 6515   1.727   0.626   4.038 -0.8682 -0.0947  0.3691
  890Sol     HW 6516   1.694   0.715   4.055 -0.6983 -0.2026  1.2916
  890Sol     HW 6517   1.749   0.592   4.125 -0.6846 -0.9448 -0.0097
  890Sol     MW 6518   1.726   0.631   4.048 -0.4182  0.3718 -0.2296
  891Sol     OW 6519   0.319   3.008   6.045  0.0631  0.0790 -0.5841
  891Sol     HW 6520   0.259   3.048   5.983 -0.0625  0.2368 -0.3614
  891Sol     HW 6521   0.310   2.913   6.030  0.1819  0.1217 -0.9431
  891Sol     MW 6522   0.313   3.003   6.038 -0.4071 -0.2207 -0.2087
  892Sol     OW 6523   2.377   3.117   4.674  0.7678  0.0012 -0.6727
  892Sol     HW 6524   2.284   3.124   4.693  0.8508  0.1441 -0.3088
  892Sol     HW 6525   2.397   3.025   4.688  0.6487 -0.0580 -0.8974
  892Sol     MW 6526   2.371   3.110   4.677 -0.0588  0.0096  0.1320
  893Sol     OW 6527   2.066   1.570   2.771 -0.3717  0.4852  0.4357
  893Sol     HW 6528   2.158   1.545   2.779 -0.3442 -0.2372 -1.7422
  893Sol     HW 6529   2.067   1.665   2.764  0.3877  0.3785 -1.2970
  893Sol     MW 6530   2.074   1.576   2.771  0.7327 -0.7094  0.7624
  894Sol     OW 6531   1.767   3.053   2.099  0.4229  0.1501  0.3099
  894Sol     HW 6532   1.724   3.010   2.025  0.6276  1.2647 -0.4569
  894Sol     HW 6533   1.775   3.144   2.073 -0.3086  0.7345  2.0758
  894Sol     MW 6534   1.764   3.057   2.090 -0.3900 -0.0124 -0.2692
  895Sol     OW 6535   0.174   2.367   4.166 -0.0875  0.0174  0.0179
  895Sol     HW 6536   0.255   2.377   4.216 -0.1362 -0.2888  0.1606
  895Sol     HW 6537   0.199   2.383   4.075  0.0821  0.1807  0.0941
  895Sol     MW 6538   0.183   2.369   4.162  0.0902 -0.5791 -0.5608
  896Sol     OW 6539   0.159   0.720   1.971  0.8553 -0.2808  0.1991
  896Sol     HW 6540   0.188   0.644   1.921 -1.0764 -0.1609 -1.1741
  896Sol     HW 6541   0.160   0.792   1.909  1.2127  0.5057  1.0967
  896Sol     MW 6542   0.161   0.720   1.961  0.3169  0.2740 -0.2373
  897Sol     OW 6543   2.447   2.146   2.035  0.3103  0.0820 -0.0387
  897Sol     HW 6544   2.416   2.223   2.084 -0.2043  0.0362 -0.2883
  897Sol     HW 6545   2.486   2.183   1.956 -1.2825  0.0309 -0.8884
  897Sol     MW 6546   2.447   2.157   2.032 -0.4196  0.4041 -0.2979
  898Sol     OW 6547   0.924   2.516  10.119 -0.1128 -0.4674  0.8883
  898Sol     HW 6548   0.984   2.589  10.115 -0.6916 -0.0642 -1.3095
  898Sol     HW 6549   0.970   2.444  10.075 -1.6857  0.2293 -2.0336
  898Sol     MW 6550   0.933   2.516  10.114 -0.4151  0.1003 -0.3057
  899Sol     OW 6551   2.345   1.511   6.591  0.2976  0.2658 -0.1638
  899Sol     HW 6552   2.292   1.463   6.528  1.1575 -2.5874  1.2092
  899Sol     HW 6553   2.296   1.505   6.673  0.4657  1.6819  0.0577
  899Sol     MW 6554   2.336   1.507   6.593 -0.0635  0.0905 -0.0123
  900Sol     OW 6555   2.309   2.805   7.057 -0.4399  0.5164 -0.2134
  900Sol     HW 6556   2.233   2.859   7.037 -1.3244 -0.5905  0.1090
  900Sol     HW 6557   2.381   2.868   7.067 -1.3298  1.5803 -0.3787
  900Sol     MW 6558   2.308   2.815   7.056  0.0051 -0.4116 -0.3706
  901Sol     OW 6559   1.542   1.271   5.605  0.5158 -0.5032 -0.0704
  901Sol     HW 6560   1.607   1.205   5.580  1.1581 -0.2512  0.9033
  901Sol     HW 6561   1.572   1.303   5.690 -1.4376 -1.0988  0.8658
  901Sol     MW 6562   1.551   1.268   5.610 -0.5163 -0.3061 -0.1843
  902Sol     OW 6563   0.131   0.944   2.178  0.0740  0.6299 -0.7677
  902Sol     HW 6564   0.111   0.873   2.116  0.6217  1.0430 -1.4355
  902Sol     HW 6565   0.227   0.944   2.183  0.0010  0.0973  0.6826
  902Sol     MW 6566   0.138   0.937   2.173 -0.2670 -0.3722  0.0319
  903Sol     OW 6567   1.938   0.851   5.896 -0.0919 -0.1003 -0.0754
  903Sol     HW 6568   1.989   0.773   5.919 -1.4892 -0.8566  0.5556
  903Sol     HW 6569   1.991   0.897   5.831 -0.2276 -2.7049 -2.0724
  903Sol     MW 6570   1.947   0.848   5.892 -0.1295  0.3272 -0.4234
  904Sol     OW 6571   2.891   0.843   4.706  0.0831 -0.1149 -0.4046
  904Sol     HW 6572   2.801   0.818   4.685  0.4209 -0.7767 -1.0568
  904Sol     HW 6573   2.888   0.939   4.713  0.0701  0.1913 -4.0058
  904Sol     MW 6574   2.883   0.849   4.705 -0.2225 -0.0700  0.9044
  905Sol     OW 6575   2.718   0.542   9.493  0.0585 -0.0002 -0.0095
  905Sol     HW 6576   2.781   0.470   9.486 -1.2327 -1.2195  0.5788
  905Sol     HW 6577   2.649   0.508   9.551 -1.3463  1.1462 -0.9649
  905Sol     MW 6578   2.717   0.532   9.498  0.2021 -0.1322  0.1750
  906Sol     OW 6579   2.236   1.767   9.814  0.4312 -0.3519  0.3323
  906Sol     HW 6580   2.329   1.769   9.834  0.4142 -0.5829  0.4403
  906Sol     HW 6581   2.197   1.716   9.886 -0.0309  1.3150  1.3009
  906Sol     MW 6582   2.241   1.763   9.822 -0.0071 -0.0197  0.1909
  907Sol     OW 6583   0.510   2.477   4.986 -0.2066  0.6602 -0.4971
  907Sol     HW 6584   0.475   2.564   5.004  0.3474  1.1751 -1.8730
  907Sol     HW 6585   0.582   2.492   4.925  0.4275 -0.6889 -0.1104
  907Sol     MW 6586   0.514   2.486   4.982  0.6694  0.2865  0.2373
  908Sol     OW 6587   1.745   2.015   9.520 -0.3114  0.0643 -0.0697
  908Sol     HW 6588   1.826   2.058   9.491 -1.2815  2.0975  0.1431
  908Sol     HW 6589   1.727   1.950   9.451  1.7867 -0.8329  0.1777
  908Sol     MW 6590   1.750   2.013   9.511 -0.3431  0.1579 -0.0220
  909Sol     OW 6591   0.155   2.359   4.566  0.0991 -0.0457 -0.2029
  909Sol     HW 6592   0.197   2.356   4.652  1.8311 -0.9012 -1.0474
  909Sol     HW 6593   0.147   2.267   4.540 -4.8590 -0.1019  1.1036
  909Sol     MW 6594   0.158   2.350   4.571 -0.2601  0.0472 -0.2537
  910Sol     OW 6595   0.433   1.033   5.406 -0.0746 -0.1809  0.4013
  910Sol     HW 6596   0.350   0.994   5.377 -0.2326 -1.1623  2.0867
  910Sol     HW 6597   0.407   1.111   5.456  0.1630  1.0903 -1.4088
  910Sol     MW 6598   0.423   1.037   5.408  0.6158 -0.0254  0.2773
  911Sol     OW 6599   1.665   3.201   8.865 -0.2376 -0.5656 -0.1173
  911Sol     HW 6600   1.694   3.123   8.819 -0.7790 -0.0758 -1.3277
  911Sol     HW 6601   1.722   3.271   8.832 -1.0070 -0.1069 -0.5001
  911Sol     MW 6602   1.672   3.201   8.858 -1.0395  0.0748  0.0214
  912Sol     OW 6603   2.589   0.296   5.461 -0.2896  0.3619  0.3161
  912Sol     HW 6604   2.568   0.203   5.471  0.1373  0.3405  1.0554
  912Sol     HW 6605   2.557   0.318   5.374 -0.2186 -0.5271  0.0539
  912Sol     MW 6606   2.584   0.289   5.454 -0.4314  0.5480 -0.1513
  913Sol     OW 6607   1.218   1.433   2.043 -0.3073  0.0369  0.2132
  913Sol     HW 6608   1.132   1.411   2.007 -0.6997  0.0538  1.1479
  913Sol     HW 6609   1.226   1.527   2.029  0.6202 -0.3552 -2.1486
  913Sol     MW 6610   1.211   1.439   2.038  0.0492  0.0773  0.2334
  914Sol     OW 6611   1.305   2.858   2.384  0.6245  0.4002  0.1055
  914Sol     HW 6612   1.218   2.860   2.425  0.2556 -1.2793 -0.5295
  914Sol     HW 6613   1.287   2.864   2.290  1.4609  4.2019  0.1034
  914Sol     MW 6614   1.295   2.858   2.379 -0.0081  0.5829 -0.0832
  915Sol     OW 6615   1.314   2.712   8.236  0.2368  0.2753  0.0801
  915Sol     HW 6616   1.266   2.663   8.303 -1.0205 -0.1980 -1.1505
  915Sol     HW 6617   1.341   2.793   8.280  2.8039 -1.6901  2.3028
  915Sol     MW 6618   1.312   2.715   8.246  0.0929  0.2203  0.3200
  916Sol     OW 6619   3.143   2.162   3.357 -0.3414 -0.0341 -0.1642
  916Sol     HW 6620   3.125   2.186   3.448  1.6452 -0.7821  0.4682
  916Sol     HW 6621   3.150   2.245   3.311 -0.5177  0.3827  0.5526
  916Sol     MW 6622   3.142   2.171   3.361  0.4433 -0.0035 -0.4312
  917Sol     OW 6623   2.655   2.671   6.120  0.2137 -0.0955  0.0598
  917Sol     HW 6624   2.601   2.637   6.191  0.6239 -1.4817 -0.2771
  917Sol     HW 6625   2.594   2.684   6.047 -0.0708  0.5951  0.4165
  917Sol     MW 6626   2.645   2.669   6.120  0.0877 -0.2134  0.3569
  918Sol     OW 6627   3.140   3.305   3.199 -0.7169  0.0388  0.0034
  918Sol     HW 6628   3.202   3.353   3.254 -0.8650  0.2323 -0.0003
  918Sol     HW 6629   3.066   3.286   3.256 -1.1278  0.7497 -0.2792
  918Sol     MW 6630   3.139   3.308   3.209  0.3357  0.0947  0.0626
  919Sol     OW 6631   1.435   1.533   1.794  0.5634  0.3004  0.1372
  919Sol     HW 6632   1.421   1.466   1.728 -0.7113 -0.7651  1.4437
  919Sol     HW 6633   1.454   1.484   1.874  0.8039  1.5198  0.8374
  919Sol     MW 6634   1.435   1.523   1.795 -1.0029  0.2032 -0.0236
  920Sol     OW 6635   2.379   1.253   5.374 -0.0436 -0.1999 -0.7081
  920Sol     HW 6636   2.299   1.215   5.339 -0.5749  2.0270 -2.0456
  920Sol     HW 6637   2.355   1.283   5.462 -0.7697  0.6545 -1.1885
  920Sol     MW 6638   2.370   1.253   5.379 -0.4049 -0.3477 -0.1775
  921Sol     OW 6639   1.885   1.841   2.472 -0.1106 -0.1848  0.5353
  921Sol     HW 6640   1.978   1.826   2.481 -0.1214 -1.5395 -1.3129
  921Sol     HW 6641   1.851   1.762   2.430 -1.7252  1.1063 -0.7053
  921Sol     MW 6642   1.890   1.833   2.469 -0.1096 -0.1263 -0.5384
  922Sol     OW 6643   0.644   0.560   2.266 -0.1884  0.3047 -0.0657
  922Sol     HW 6644   0.559   0.557   2.310 -0.6485  1.5597 -0.8344
  922Sol     HW 6645   0.706   0.585   2.335 -0.8240  1.7487 -0.0143
  922Sol     MW 6646   0.642   0.562   2.276 -0.5340  0.2208 -0.2453
  923Sol     OW 6647   0.941   2.939   7.420  0.1250  0.4121 -0.3494
  923Sol     HW 6648   0.970   2.848   7.424 -2.0170 -0.2639  0.7170
  923Sol     HW 6649   0.944   2.961   7.327 -3.3111 -2.1293 -1.1811
  923Sol     MW 6650   0.944   2.933   7.412  0.4964 -1.1201 -0.3402
  924Sol     OW 6651   2.940   0.321   7.192 -0.6594 -0.2089  0.1357
  924Sol     HW 6652   2.981   0.361   7.116  0.5729 -0.0582  0.8573
  924Sol     HW 6653   2.868   0.269   7.156 -0.1613 -0.0546 -1.1203
  924Sol     MW 6654   2.937   0.320   7.182 -0.6988 -0.2161  0.6390
  925Sol     OW 6655   2.391   1.801   7.868  0.2519 -0.4196  0.2282
  925Sol     HW 6656   2.382   1.753   7.786  1.6052 -1.2533  0.5526
  925Sol     HW 6657   2.466   1.761   7.912  0.1536  0.6576  1.4318
  925Sol     MW 6658   2.397   1.793   7.865 -0.4468  0.2635 -0.7384
  926Sol     OW 6659   1.183   2.475   6.597 -0.1556 -0.3058  0.3097
  926Sol     HW 6660   1.200   2.406   6.532 -1.2631  0.0886 -0.4165
  926Sol     HW 6661   1.207   2.556   6.552  0.5527 -0.1602  0.9448
  926Sol     MW 6662   1.186   2.476   6.587 -0.1348  0.5355 -0.1878
  927Sol     OW 6663   0.532   1.292   7.385 -0.2418  0.5831  0.0364
  927Sol     HW 6664   0.455   1.347   7.370 -0.0297  0.7076 -0.5958
  927Sol     HW 6665   0.539   1.238   7.306  0.7927  1.1445 -0.2653
  927Sol     MW 6666   0.525   1.292   7.377 -0.2341 -0.7943 -0.2908
  928Sol     OW 6667   2.469   0.805   9.642  0.4892 -0.1076 -0.0796
  928Sol     HW 6668   2.518   0.834   9.565 -0.1290  2.2371  0.3740
  928Sol     HW 6669   2.479   0.709   9.643  0.8771 -0.1239 -2.8074
  928Sol     MW 6670   2.474   0.799   9.635  0.5011 -0.4804  0.5641
  929Sol     OW 6671   0.559   3.192   2.549  0.5481 -0.4081 -0.1308
  929Sol     HW 6672   0.643   3.152   2.572  0.5799  0.0733  0.6322
  929Sol     HW 6673   0.523   3.220   2.633  0.2903  0.6987 -0.6112
  929Sol     MW 6674   0.563   3.191   2.559 -0.4603  0.0318  0.0632
  930Sol     OW 6675   1.289   1.684   7.154  0.1282  0.3581  0.2514
  930Sol     HW 6676   1.289   1.683   7.249 -0.1964  0.4106  0.2509
  930Sol     HW 6677   1.199   1.705   7.130 -0.0869 -0.9308 -0.0893
  930Sol     MW 6678   1.281   1.686   7.160  0.3178  0.1659  0.6851
  931Sol     OW 6679   2.837   0.291   9.716  0.1088 -0.1280 -0.0889
  931Sol     HW 6680   2.777   0.220   9.739  1.1423 -1.1944 -0.6219
  931Sol     HW 6681   2.848   0.283   9.622 -0.4672  1.3179 -0.2947
  931Sol     MW 6682   2.832   0.284   9.710 -0.2567  0.0807 -0.1166
  932Sol     OW 6683   1.567   1.712   2.240 -0.1689  0.4119  0.0751
  932Sol     HW 6684   1.630   1.647   2.270  0.4548  0.0662 -1.9481
  932Sol     HW 6685   1.481   1.675   2.262  0.2616  0.0538  1.1725
  932Sol     MW 6686   1.565   1.703   2.245  0.2656 -0.6729  0.7214
  933Sol     OW 6687   0.854   1.529   3.308 -0.1652 -0.1342  0.1025
  933Sol     HW 6688   0.759   1.533   3.300 -0.3424 -1.4407  1.2675
  933Sol     HW 6689   0.879   1.615   3.341 -0.8622  0.4450 -0.8650
  933Sol     MW 6690   0.848   1.537   3.311 -0.3448  0.0023  0.3363
  934Sol     OW 6691   3.170   1.863   9.381 -0.3371  0.3854 -0.2955
  934Sol     HW 6692   3.254   1.890   9.344 -0.0329 -0.3552 -0.1440
  934Sol     HW 6693   3.179   1.879   9.475 -0.4516  0.5321 -0.3100
  934Sol     MW 6694   3.178   1.867   9.386  0.6610  0.3596  0.4668
  935Sol     OW 6695   1.987   3.010   8.193  0.2518  0.1180 -0.4531
  935Sol     HW 6696   2.070   3.013   8.147 -0.0910 -0.1844 -1.0969
  935Sol     HW 6697   1.948   2.926   8.168 -0.6316  0.6376 -0.8292
  935Sol     MW 6698   1.991   3.003   8.187 -0.3184  1.0025 -0.2724
  936Sol     OW 6699   0.280   1.951   6.678 -0.1948 -0.3843 -0.1717
  936Sol     HW 6700   0.282   1.943   6.774  1.9164 -0.1774 -0.1711
  936Sol     HW 6701   0.253   1.865   6.647  0.6781 -0.9468  0.5794
  936Sol     MW 6702   0.278   1.943   6.684  0.4124 -0.1673  0.4964
  937Sol     OW 6703   1.270   2.901   9.694 -0.5210 -0.0801 -0.9678
  937Sol     HW 6704   1.223   2.835   9.643 -0.5525 -1.9709  1.4173
  937Sol     HW 6705   1.360   2.899   9.661 -0.2286 -2.2253 -0.0892
  937Sol     MW 6706   1.274   2.895   9.687  0.1047 -0.4281 -0.3309
  938Sol     OW 6707   1.767   2.255   3.633  0.1261 -0.0895  0.0425
  938Sol     HW 6708   1.780   2.199   3.710  1.1164 -0.2433 -0.2279
  938Sol     HW 6709   1.856   2.277   3.604 -0.2482  1.8048  0.2789
  938Sol     MW 6710   1.776   2.252   3.637 -0.1287 -0.3951 -0.2949
  939Sol     OW 6711   1.243   0.450   9.179  0.1180  0.2162 -0.1684
  939Sol     HW 6712   1.211   0.433   9.268 -0.7575 -0.4836 -0.6075
  939Sol     HW 6713   1.289   0.371   9.154 -1.6947 -0.5463 -1.2226
  939Sol     MW 6714   1.244   0.442   9.185 -0.0358  0.2869 -0.1089
  940Sol     OW 6715   0.607   0.830   2.438 -0.3545 -0.2594  0.2077
  940Sol     HW 6716   0.533   0.785   2.396  0.2526 -1.1760  0.1119
  940Sol     HW 6717   0.612   0.791   2.525 -0.3277  0.1926  0.4051
  940Sol     MW 6718   0.600   0.822   2.442  0.1693  0.1009  0.1042
  941Sol     OW 6719   2.627   1.111   4.042  0.9202 -0.1585  0.3553
  941Sol     HW 6720   2.594   1.022   4.047 -0.6401  0.3503 -0.5029
  941Sol     HW 6721   2.549   1.166   4.050  1.5831  1.0806 -1.2747
  941Sol     MW 6722   2.617   1.108   4.043  0.0652  0.7604  0.0833
  942Sol     OW 6723   0.714   0.181   4.737 -0.1690  0.1107 -0.2083
  942Sol     HW 6724   0.808   0.193   4.729  0.1067 -1.7247 -0.0177
  942Sol     HW 6725   0.702   0.139   4.823 -1.1685  0.4588 -0.1665
  942Sol     MW 6726   0.721   0.178   4.744 -0.5777 -0.4011 -0.6335
  943Sol     OW 6727   1.174   1.736   6.139  0.4149  0.4269  0.0064
  943Sol     HW 6728   1.241   1.801   6.159 -0.6976  1.1895  1.3600
  943Sol     HW 6729   1.154   1.748   6.046  0.5126  1.7312  0.1517
  943Sol     MW 6730   1.178   1.743   6.133 -0.1395  0.2877  0.0863
  944Sol     OW 6731   0.978   1.074   3.862 -0.1817 -0.1032 -0.3289
  944Sol     HW 6732   0.967   1.134   3.789 -1.5321  0.6322  0.4615
  944Sol     HW 6733   0.967   0.987   3.823 -1.1378  0.2959 -0.9605
  944Sol     MW 6734   0.976   1.071   3.852 -0.3819 -0.5083  0.5471
  945Sol     OW 6735   1.020   3.155   7.236 -0.2104  0.3329 -0.1239
  945Sol     HW 6736   1.014   3.167   7.331  0.2193 -1.8195  0.1883
  945Sol     HW 6737   0.946   3.205   7.201 -1.0442  0.1994  1.4229
  945Sol     MW 6738   1.013   3.161   7.241  0.0798 -0.4548 -0.6655
  946Sol     OW 6739   0.750   1.655   8.130  0.5101  0.1276 -0.1242
  946Sol     HW 6740   0.821   1.602   8.095  0.4828  0.4533 -0.6739
  946Sol     HW 6741   0.678   1.643   8.069  0.3317  0.3841  0.0319
  946Sol     MW 6742   0.750   1.649   8.122 -0.7727  0.4164  0.2447
  947Sol     OW 6743   0.329   1.146   8.164 -0.1035  0.3590  0.5495
  947Sol     HW 6744   0.381   1.122   8.087  0.2236  0.9547  0.5795
  947Sol     HW 6745   0.329   1.242   8.164 -0.4308  0.3618  1.0696
  947Sol     MW 6746   0.334   1.153   8.157  0.0461  0.2423  0.1736
  948Sol     OW 6747   2.113   2.231   2.522 -0.7412 -0.3330 -0.3176
  948Sol     HW 6748   2.200   2.199   2.498 -0.5818 -0.2003  0.0664
  948Sol     HW 6749   2.071   2.156   2.564 -0.1925  0.0850  1.0143
  948Sol     MW 6750   2.117   2.222   2.524  0.5022 -0.3947  0.1562
  949Sol     OW 6751   0.882   2.492   8.030  0.2535 -0.5034  0.0361
  949Sol     HW 6752   0.893   2.447   8.113  2.6061  0.4672  0.2890
  949Sol     HW 6753   0.856   2.581   8.054 -0.2983 -0.5654 -0.3200
  949Sol     MW 6754   0.881   2.496   8.039  0.4909 -0.1903 -0.3033
  950Sol     OW 6755   1.240   3.335   6.149  0.3447  0.2726 -0.2115
  950Sol     HW 6756   1.269   3.250   6.180 -1.1209 -0.4945 -0.8841
  950Sol     HW 6757   1.302   3.398   6.187  0.3377 -0.9079  1.8159
  950Sol     MW 6758   1.248   3.333   6.155  0.0725 -0.1239 -0.1251
  951Sol     OW 6759   2.475   1.081   7.579  0.1657  0.0911  0.0622
  951Sol     HW 6760   2.533   1.048   7.510  0.1839  1.3765 -0.5543
  951Sol     HW 6761   2.482   1.017   7.649 -0.9150 -1.9490 -1.6645
  951Sol     MW 6762   2.481   1.073   7.579 -0.4248  0.4826  0.4828
  952Sol     OW 6763   2.709   2.741   7.039  0.2090  0.0192 -0.8613
  952Sol     HW 6764   2.752   2.826   7.041 -0.2641  0.2558 -0.4855
  952Sol     HW 6765   2.620   2.760   7.008  0.0608 -0.3149 -0.6427
  952Sol     MW 6766   2.705   2.750   7.037 -0.3004  0.0938 -0.8309
  953Sol     OW 6767   0.351   1.613   8.666 -0.0865  0.4236  0.0363
  953Sol     HW 6768   0.347   1.527   8.708 -0.7537  1.5093  2.2578
  953Sol     HW 6769   0.444   1.625   8.645  0.3505  0.0966  1.7282
  953Sol     MW 6770   0.359   1.606   8.668  0.2231  0.2549 -0.5322
  954Sol     OW 6771   1.405   0.707   5.785  0.0701 -0.0837 -0.2409
  954Sol     HW 6772   1.458   0.688   5.862 -0.4655  0.0487  0.1636
  954Sol     HW 6773   1.442   0.652   5.716  0.8121  0.1029 -0.0002
  954Sol     MW 6774   1.413   0.701   5.786 -0.2038  0.6014 -0.5700
  955Sol     OW 6775   2.583   1.197   8.324 -0.1780  0.1035  0.6294
  955Sol     HW 6776   2.629   1.256   8.264 -0.8220 -1.5586 -1.5556
  955Sol     HW 6777   2.622   1.111   8.308 -0.0108 -0.3017  2.9783
  955Sol     MW 6778   2.591   1.194   8.318  0.5907 -0.2792 -0.0047
  956Sol     OW 6779   2.994   2.595   6.074  0.1632  0.1864  0.0759
  956Sol     HW 6780   2.907   2.611   6.038  0.2813  0.6106 -0.0149
  956Sol     HW 6781   3.034   2.532   6.014 -0.0509  0.0474  0.0775
  956Sol     MW 6782   2.990   2.590   6.066  0.5260 -0.1673 -0.0493
  957Sol     OW 6783   1.253   0.868   9.394  0.4339 -0.3250 -0.5260
  957Sol     HW 6784   1.200   0.835   9.467  1.4104 -0.6794  0.0317
  957Sol     HW 6785   1.309   0.795   9.370  1.1869  0.2758 -0.6282
  957Sol     MW 6786   1.253   0.859   9.399 -0.4337 -0.1893  0.4532
  958Sol     OW 6787   0.233   1.617   1.654 -0.0835  0.7378 -0.4011
  958Sol     HW 6788   0.295   1.554   1.690 -1.2261  0.3733  0.9772
  958Sol     HW 6789   0.270   1.642   1.570  1.0303 -0.8156 -0.3916
  958Sol     MW 6790   0.241   1.613   1.650 -0.2013  0.8729 -0.8042
  959Sol     OW 6791   1.872   0.206   5.881 -0.3630  0.0180  0.0204
  959Sol     HW 6792   1.955   0.191   5.835 -0.1766 -2.1684  1.0190
  959Sol     HW 6793   1.871   0.300   5.899  0.6644  0.5146 -2.3272
  959Sol     MW 6794   1.880   0.213   5.878 -0.0083 -0.3033  0.3870
  960Sol     OW 6795   0.334   0.245   7.444 -0.0301 -0.2033  0.5476
  960Sol     HW 6796   0.312   0.268   7.354  1.0728  1.4143  0.6514
  960Sol     HW 6797   0.282   0.305   7.497  0.4671 -0.1170  0.9405
  960Sol     MW 6798   0.327   0.253   7.441 -0.6386 -0.2762  0.2335
  961Sol     OW 6799   0.828   2.265   4.134  0.3317  0.1779 -0.4633
  961Sol     HW 6800   0.752   2.206   4.137  0.5595 -0.0981 -0.0946
  961Sol     HW 6801   0.889   2.229   4.198  0.1878  1.2054  0.2648
  961Sol     MW 6802   0.827   2.256   4.140  0.2530 -0.3115  0.0052
  962Sol     OW 6803   1.894   3.270   5.611 -0.2668 -0.1261  0.2937
  962Sol     HW 6804   1.859   3.241   5.696 -2.3133  0.2917 -0.3829
  962Sol     HW 6805   1.871   3.200   5.550  1.5271 -0.6038  0.1169
  962Sol     MW 6806   1.889   3.261   5.613  0.1855 -0.3599 -0.0927
  963Sol     OW 6807   2.611   1.632   2.889 -0.3692 -0.1473  0.2277
  963Sol     HW 6808   2.586   1.654   2.979  0.2639 -3.6081  1.3151
  963Sol     HW 6809   2.678   1.696   2.867 -0.7826  0.9675  2.0701
  963Sol     MW 6810   2.615   1.640   2.895 -0.3533  0.5140 -0.6246
  964Sol     OW 6811   1.745   1.640   2.898 -0.1484  0.3874 -0.1655
  964Sol     HW 6812   1.740   1.705   2.968  0.6876  0.6267 -0.3162
  964Sol     HW 6813   1.772   1.691   2.821  1.0728 -0.2153 -0.1509
  964Sol     MW 6814   1.747   1.651   2.897 -0.4385 -0.2166 -0.0711
  965Sol     OW 6815   1.488   1.991   2.969 -0.1512  0.2008  0.6807
  965Sol     HW 6816   1.462   1.903   2.998  0.9530  0.3091  2.0381
  965Sol     HW 6817   1.514   1.979   2.878 -0.9696 -0.6916  0.5513
  965Sol     MW 6818   1.488   1.982   2.963  0.1598  0.3731  0.1000
  966Sol     OW 6819   1.804   3.215   4.331 -0.1174  0.0241  0.3124
  966Sol     HW 6820   1.824   3.123   4.350 -1.0272 -0.0725  0.7947
  966Sol     HW 6821   1.810   3.259   4.415 -0.6219  0.2372  0.2381
  966Sol     MW 6822   1.807   3.211   4.340 -0.2847  0.2851  0.3218
  967Sol     OW 6823   1.238   1.926   4.852  0.1397 -0.0102 -0.2745
  967Sol     HW 6824   1.157   1.898   4.896  0.5680 -1.4258 -0.3784
  967Sol     HW 6825   1.305   1.865   4.883  1.0149  0.6836 -0.7794
  967Sol     MW 6826   1.237   1.918   4.858 -0.0704  0.1067 -0.0584
  968Sol     OW 6827   0.499   1.025   8.346 -0.0117 -0.0033  0.0229
  968Sol     HW 6828   0.571   0.998   8.289 -0.0281 -1.4374  0.6777
  968Sol     HW 6829   0.440   1.074   8.288  0.4999 -0.5186 -0.9441
  968Sol     MW 6830   0.500   1.027   8.336 -0.0891  0.4593  0.0695
  969Sol     OW 6831   2.617   2.436   8.368 -0.0987  0.4941 -0.5457
  969Sol     HW 6832   2.594   2.418   8.459  0.9656  0.4017 -0.2855
  969Sol     HW 6833   2.706   2.402   8.358 -0.2554  0.3680 -1.6645
  969Sol     MW 6834   2.623   2.432   8.375  0.0164  0.5071 -0.3812
  970Sol     OW 6835   0.854   2.680   2.967  0.0656 -0.4633  0.3853
  970Sol     HW 6836   0.887   2.595   2.997 -2.3600 -1.5847  0.0683
  970Sol     HW 6837   0.821   2.722   3.046 -0.7768 -0.8142  0.2349
  970Sol     MW 6838   0.854   2.676   2.976  0.5201  0.0428 -0.1729
  971Sol     OW 6839   0.105   3.287   2.525  0.1545 -0.0801  0.2903
  971Sol     HW 6840   0.167   3.349   2.486  0.5388  0.5587  1.9034
  971Sol     HW 6841   0.027   3.340   2.544  0.2448 -0.2220  1.0695
  971Sol     MW 6842   0.103   3.298   2.523 -0.4398  0.0524  0.3629
  972Sol     OW 6843   1.714   0.060   4.253 -0.0203  0.0258  0.2761
  972Sol     HW 6844   1.651   0.045   4.182  0.4535  2.2984 -0.7022
  972Sol     HW 6845   1.764  -0.021   4.258 -1.4723 -0.9582 -0.5248
  972Sol     MW 6846   1.713   0.052   4.247 -0.0027 -0.1054 -0.4912
  973Sol     OW 6847   0.637   1.228   6.576  0.1039  0.0604  0.1460
  973Sol     HW 6848   0.643   1.141   6.536 -1.9993 -0.2053  0.3132
  973Sol     HW 6849   0.727   1.254   6.592  0.7542 -2.4193  0.7455
  973Sol     MW 6850   0.645   1.222   6.574 -0.0706  0.2945 -0.0455
  974Sol     OW 6851   1.482   3.035   8.028  0.0602  0.6428 -0.2443
  974Sol     HW 6852   1.455   3.125   8.006  1.4100  1.4743  1.3796
  974Sol     HW 6853   1.555   3.046   8.088 -1.3818 -1.5367  1.9931
  974Sol     MW 6854   1.486   3.044   8.031 -0.3448  0.3378 -0.0311
  975Sol     OW 6855   2.372   1.402   7.973 -0.7316 -0.0660 -0.7853
  975Sol     HW 6856   2.374   1.307   7.978 -1.3387 -0.0292  0.3469
  975Sol     HW 6857   2.279   1.424   7.968 -0.7029  0.5296  0.8491
  975Sol     MW 6858   2.364   1.396   7.973  0.4802  0.0330 -0.0016
  976Sol     OW 6859   1.120   2.717  10.093 -0.3996 -0.1841  0.0337
  976Sol     HW 6860   1.199   2.730  10.146 -0.4809 -0.8029  0.3131
  976Sol     HW 6861   1.149   2.659  10.022 -0.7974 -1.1328  0.6257
  976Sol     MW 6862   1.130   2.713  10.091 -0.1129  0.5771 -0.0553
  977Sol     OW 6863   2.242   1.017   9.363  0.3580  0.1559 -0.1108
  977Sol     HW 6864   2.227   1.008   9.457 -0.4900 -0.7426 -0.3269
  977Sol     HW 6865   2.229   1.110   9.345  3.1326  0.8314  1.1063
  977Sol     MW 6866   2.239   1.025   9.370 -0.1576 -0.2763 -0.0358
  978Sol     OW 6867   1.465   1.838   5.254 -0.4098 -0.5808 -0.0418
  978Sol     HW 6868   1.483   1.913   5.196  0.8511 -0.7112  0.1759
  978Sol     HW 6869   1.427   1.772   5.196 -0.5682 -0.1524 -0.4324
  978Sol     MW 6870   1.463   1.839   5.243 -0.3678 -0.3770 -0.5211
  979Sol     OW 6871   1.125   2.305  10.030  0.1435 -0.3620 -0.4515
  979Sol     HW 6872   1.209   2.328  10.070  0.1406 -1.4695  0.2326
  979Sol     HW 6873   1.138   2.215   9.998 -0.8043 -0.5900 -0.2229
  979Sol     MW 6874   1.133   2.299  10.031  0.1865  0.7559 -0.2214
  980Sol     OW 6875   0.713   0.685   5.907 -0.1205 -0.1498  0.0130
  980Sol     HW 6876   0.636   0.696   5.852 -0.2035  0.1812  0.1954
  980Sol     HW 6877   0.776   0.748   5.872  0.3903 -1.0532 -0.7131
  980Sol     MW 6878   0.712   0.692   5.899 -0.0611 -0.2544  0.2622
  981Sol     OW 6879   0.599   0.277   7.603  0.7051  0.5737 -0.2447
  981Sol     HW 6880   0.524   0.253   7.548  1.4009  1.2778 -1.5278
  981Sol     HW 6881   0.639   0.351   7.557  0.6691  1.8930  1.7785
  981Sol     MW 6882   0.596   0.282   7.594 -0.0214 -0.3322  0.3681
  982Sol     OW 6883   0.610   0.032   2.456  0.7659 -0.0204 -0.0981
  982Sol     HW 6884   0.574  -0.054   2.476  1.2650 -0.1669  0.1572
  982Sol     HW 6885   0.646   0.024   2.368  0.4469  0.0437 -0.2367
  982Sol     MW 6886   0.610   0.024   2.450  0.7745 -0.0403  0.2133
  983Sol     OW 6887   1.440   0.058   2.275  0.0125 -0.5138  0.0280
  983Sol     HW 6888   1.443  -0.019   2.331  2.8912 -1.5805 -1.5443
  983Sol     HW 6889   1.513   0.112   2.304  0.7322 -0.4624 -1.8272
  983Sol     MW 6890   1.447   0.056   2.283  0.4775  0.0086 -0.3274
  984Sol     OW 6891   0.753   1.254   6.254  0.2354 -0.4595 -0.1246
  984Sol     HW 6892   0.837   1.209   6.263  0.5442  0.5500  2.3222
  984Sol     HW 6893   0.774   1.347   6.257 -0.8461 -0.1667 -0.9317
  984Sol     MW 6894   0.762   1.258   6.255 -0.4773 -0.0581 -0.0990
  985Sol     OW 6895   1.296   1.083   2.443 -0.1254  0.5211 -0.3914
  985Sol     HW 6896   1.267   1.170   2.417 -1.2062 -0.0343 -1.1034
  985Sol     HW 6897   1.289   1.083   2.539 -0.2461  1.1677 -0.3970
  985Sol     MW 6898   1.293   1.091   2.449 -0.4695  0.3515  0.0249
  986Sol     OW 6899   2.797   2.538   3.052  0.3637 -0.1921  0.4173
  986Sol     HW 6900   2.784   2.537   3.147 -2.5611  2.2072  0.1387
  986Sol     HW 6901   2.807   2.631   3.031 -1.8985 -0.4229 -1.9214
  986Sol     MW 6902   2.796   2.547   3.059 -0.3381 -0.4797  0.5918
  987Sol     OW 6903   2.619   3.107   2.559 -0.1943 -0.0071 -0.3707
  987Sol     HW 6904   2.705   3.148   2.563 -0.5875  0.6946  1.6736
  987Sol     HW 6905   2.631   3.030   2.504  1.2671  1.1792 -1.7682
  987Sol     MW 6906   2.628   3.104   2.555  0.7884 -0.1532 -0.0168
  988Sol     OW 6907   1.651   1.279   4.661 -0.4351  0.1501 -0.2139
  988Sol     HW 6908   1.683   1.198   4.621 -1.3648 -0.0611 -0.5430
  988Sol     HW 6909   1.722   1.342   4.649  0.0244 -0.4351 -0.5504
  988Sol     MW 6910   1.660   1.278   4.656  0.4285  0.2781 -0.1159
  989Sol     OW 6911   2.035   2.090   4.246  0.1290 -0.6858 -0.0336
  989Sol     HW 6912   2.077   2.113   4.163  0.1540  1.4184  0.5303
  989Sol     HW 6913   2.081   2.011   4.275  2.5440  0.5707 -0.3067
  989Sol     MW 6914   2.043   2.085   4.241  0.1236  0.5203 -0.7207
  990Sol     OW 6915   2.233   1.105   6.531  0.3597 -0.0248 -0.3892
  990Sol     HW 6916   2.317   1.112   6.577  0.2974 -0.2307 -0.2403
  990Sol     HW 6917   2.190   1.030   6.572 -0.1386  0.4274 -0.0859
  990Sol     MW 6918   2.237   1.099   6.538  0.0615 -0.9201  0.5364
  991Sol     OW 6919   3.214   1.856   2.626  0.4830 -0.4838 -0.0609
  991Sol     HW 6920   3.230   1.762   2.618 -0.9237 -0.6912 -0.6191
  991Sol     HW 6921   3.273   1.895   2.563  0.2600 -1.0876 -0.6573
  991Sol     MW 6922   3.221   1.851   2.620 -0.1378  0.0244 -0.5756
  992Sol     OW 6923   0.161   3.163   6.785  0.3549  0.1217 -0.0662
  992Sol     HW 6924   0.191   3.072   6.783 -0.2112 -0.1080  1.2219
  992Sol     HW 6925   0.238   3.213   6.813  0.2556 -0.1545  0.7188
  992Sol     MW 6926   0.171   3.160   6.787  0.2787  0.2312 -0.6158
  993Sol     OW 6927   0.574   1.157   7.138  0.0660 -0.2963 -0.6749
  993Sol     HW 6928   0.569   1.073   7.092  1.4142 -2.3096  2.7151
  993Sol     HW 6929   0.490   1.200   7.117 -1.4803 -3.2984 -0.9340
  993Sol     MW 6930   0.566   1.153   7.132  0.3231 -0.3721  0.0377
  994Sol     OW 6931   2.227   0.274   4.149 -0.5785 -0.0773  0.1925
  994Sol     HW 6932   2.140   0.239   4.132 -0.5704 -0.2577  0.5310
  994Sol     HW 6933   2.284   0.197   4.153 -0.5545 -0.0274  0.9009
  994Sol     MW 6934   2.224   0.264   4.148 -0.2841 -0.1389 -0.2711
  995Sol     OW 6935   0.703   1.588   7.789 -0.1521  0.2216 -0.4680
  995Sol     HW 6936   0.744   1.670   7.816  0.6704  0.4164 -2.2614
  995Sol     HW 6937   0.758   1.520   7.829  1.9542  0.4818 -2.8239
  995Sol     MW 6938   0.712   1.589   7.795  0.2038 -0.4010 -0.4529
  996Sol     OW 6939   2.306   2.340   3.660  0.0178 -0.2455 -0.5916
  996Sol     HW 6940   2.371   2.409   3.646  0.8188 -0.9943 -0.5345
  996Sol     HW 6941   2.273   2.356   3.748  0.7220 -0.3714 -0.3037
  996Sol     MW 6942   2.308   2.348   3.667 -0.2201 -0.2064 -0.0012
  997Sol     OW 6943   2.149   3.321   4.283  0.0498  1.0940 -0.1506
  997Sol     HW 6944   2.235   3.343   4.248  0.8656 -0.2232  0.9857
  997Sol     HW 6945   2.129   3.393   4.344  1.6056  0.0139  1.6879
  997Sol     MW 6946   2.155   3.330   4.286  0.0845  0.0772 -0.3942
  998Sol     OW 6947   0.878   2.222   3.412 -0.3600 -0.9493 -0.0265
  998Sol     HW 6948   0.965   2.184   3.427 -0.2618 -0.3274  0.9957
  998Sol     HW 6949   0.817   2.151   3.433 -0.1575 -0.7511  1.2781
  998Sol     MW 6950   0.880   2.212   3.415 -0.3384  0.0055 -0.5160
  999Sol     OW 6951   0.860   1.639   2.284  0.1196  0.9316  0.1671
  999Sol     HW 6952   0.951   1.656   2.258  0.6433  0.2212  1.4534
  999Sol     HW 6953   0.843   1.701   2.355  0.5822 -0.8281  1.8874
  999Sol     MW 6954   0.867   1.646   2.288 -0.0045 -0.1755 -0.0654
 1000Sol     OW 6955   0.235   1.450   9.839  0.1533 -0.3484 -0.3232
 1000Sol     HW 6956   0.293   1.415   9.907  0.8850  0.7694 -0.3739
 1000Sol     HW 6957   0.263   1.405   9.759 -0.4660 -1.3869  0.0195
 1000Sol     MW 6958   0.243   1.443   9.838  0.1082  0.5283 -0.1095
 1001Sol     OW 6959   2.066   3.405  10.039  0.6123 -0.2420 -0.0232
 1001Sol     HW 6960   2.018   3.329  10.070  0.7139 -0.7393 -1.0383
 1001Sol     HW 6961   2.146   3.407  10.092 -0.0899  0.0525  1.0366
 1001Sol     MW 6962   2.069   3.399  10.046 -0.2168 -0.7086  0.6563
 1002Sol     OW 6963   3.107   2.034   1.766  0.5506  0.1629  0.1064
 1002Sol     HW 6964   3.056   2.114   1.755  2.3910  1.9175  3.6680
 1002Sol     HW 6965   3.054   1.979   1.824 -0.0463 -0.6227 -1.1629
 1002Sol     MW 6966   3.098   2.036   1.770  0.1058 -0.2401  0.6020
 1003Sol     OW 6967   3.136   1.054   2.222 -0.4537 -0.0165  0.1887
 1003Sol     HW 6968   3.152   1.134   2.172  2.2019 -1.2534 -1.0354
 1003Sol     HW 6969   3.221   1.010   2.226 -1.0239 -0.9988  4.0519
 1003Sol     MW 6970   3.145   1.057   2.218 -0.7509  0.0200 -0.1616
 1004Sol     OW 6971   2.197   1.084   2.555  0.0507  0.2690  0.3197
 1004Sol     HW 6972   2.198   1.120   2.466 -1.0373  0.9647  0.5817
 1004Sol     HW 6973   2.255   1.008   2.550  1.3720  1.2815 -0.5710
 1004Sol     MW 6974   2.203   1.081   2.547  0.0410 -0.1573  0.0535
 1005Sol     OW 6975   2.152   2.530   6.681  0.0777  0.0971  0.4782
 1005Sol     HW 6976   2.096   2.607   6.691 -1.5477 -1.0748  0.7275
 1005Sol     HW 6977   2.202   2.547   6.601 -1.5036  0.6720 -0.4212
 1005Sol     MW 6978   2.151   2.539   6.675  0.1415  0.4873 -0.0841
 1006Sol     OW 6979   2.846   0.728   9.672  0.3157  0.0494 -0.3141
 1006Sol     HW 6980   2.801   0.694   9.595 -0.5329  0.3065  0.0667
 1006Sol     HW 6981   2.824   0.666   9.742 -0.0391  0.5762  0.0441
 1006Sol     MW 6982   2.840   0.719   9.672 -0.0540 -0.3998  0.3120
 1007Sol     OW 6983   1.923   1.586   6.419 -0.3784 -0.6343  0.9312
 1007Sol     HW 6984   1.867   1.654   6.381  0.7054 -1.0738 -1.5476
 1007Sol     HW 6985   1.996   1.635   6.457 -1.5977 -0.1700  2.7483
 1007Sol     MW 6986   1.925   1.597   6.419 -0.1852  0.6609 -0.0036
 1008Sol     OW 6987   0.195   1.723   9.737  0.4387  0.4777  0.7484
 1008Sol     HW 6988   0.267   1.780   9.763  0.6524  0.7959 -0.4946
 1008Sol     HW 6989   0.209   1.642   9.787  1.2448  0.8019  1.0471
 1008Sol     MW 6990   0.203   1.721   9.744  0.5077 -0.0304 -0.0487
 1009Sol     OW 6991   0.727   3.335   2.231  0.1546 -0.2441  0.2638
 1009Sol     HW 6992   0.805   3.345   2.175  1.1392 -1.7562  1.3398
 1009Sol     HW 6993   0.671   3.275   2.182 -0.3570  0.8272 -0.5013
 1009Sol     MW 6994   0.729   3.331   2.221  0.5462  0.1094 -0.9269
 1010Sol     OW 6995   0.641   2.680   2.593 -0.2672 -0.0325 -0.8738
 1010Sol     HW 6996   0.623   2.601   2.543  0.9159 -0.2524 -0.9620
 1010Sol     HW 6997   0.640   2.652   2.684  0.2717 -0.1732 -0.9112
 1010Sol     MW 6998   0.639   2.671   2.597 -0.0535  0.6948  0.0114
 1011Sol     OW 6999   2.432   2.234   2.634 -0.0697  0.8314 -0.0843
 1011Sol     HW 7000   2.424   2.228   2.539  0.4081 -0.2467 -0.0686
 1011Sol     HW 7001   2.483   2.156   2.658  0.2880  1.3894  0.9893
 1011Sol     MW 7002   2.436   2.226   2.628 -0.0839  0.4532 -0.2329
 1012Sol     OW 7003   2.460   1.430   5.176 -0.0567 -0.1829 -0.1191
 1012Sol     HW 7004   2.371   1.457   5.155 -0.1302 -0.1446  0.2348
 1012Sol     HW 7005   2.450   1.352   5.231  0.1420 -0.5606 -0.6111
 1012Sol     MW 7006   2.451   1.425   5.179  0.2810  0.4112  0.5555
 1013Sol     OW 7007   0.614   0.633   6.170  0.0006 -0.0077  0.1954
 1013Sol     HW 7008   0.518   0.637   6.165  0.0137  1.5807  0.9817
 1013Sol     HW 7009   0.642   0.646   6.079 -0.5895 -4.9347 -0.8408
 1013Sol     MW 7010   0.608   0.634   6.161  0.5377  0.3370  0.1096
 1014Sol     OW 7011   0.644   3.183   6.013  0.3260  0.2776  0.3295
 1014Sol     HW 7012   0.563   3.225   6.043 -1.1627 -0.0661 -2.8887
 1014Sol     HW 7013   0.707   3.254   6.007 -0.1908  0.8415  1.3754
 1014Sol     MW 7014   0.642   3.193   6.015 -0.3925  0.2323 -0.1236
 1015Sol     OW 7015   0.313   0.082   2.459 -0.0129  0.3760  0.0758
 1015Sol     HW 7016   0.390   0.109   2.410  1.2707 -0.2048  1.7196
 1015Sol     HW 7017   0.294   0.156   2.517 -0.6925  0.5143 -0.3159
 1015Sol     MW 7018   0.318   0.091   2.460  0.0916  0.1867  0.0581
 1016Sol     OW 7019   2.189   0.298   6.975 -0.0664 -0.0275  0.3157
 1016Sol     HW 7020   2.127   0.236   6.939 -0.0430  0.7839 -1.1673
 1016Sol     HW 7021   2.274   0.257   6.963  0.0066  0.5528 -1.2638
 1016Sol     MW 7022   2.191   0.289   6.971  0.2678  0.1676  0.2103
 1017Sol     OW 7023   2.739   2.411   9.539 -0.4269  0.1541 -0.0659
 1017Sol     HW 7024   2.744   2.391   9.633 -2.7062 -1.8534 -0.3464
 1017Sol     HW 7025   2.825   2.385   9.505  0.5918  1.3195  1.4889
 1017Sol     MW 7026   2.747   2.407   9.545  0.3029  0.2470 -0.4412
 1018Sol     OW 7027   0.922   1.911   5.817  0.3112 -0.3052  0.1501
 1018Sol     HW 7028   0.924   1.925   5.722 -1.2837  0.2015  0.1731
 1018Sol     HW 7029   0.868   1.833   5.829  0.8089 -0.5831  0.6365
 1018Sol     MW 7030   0.917   1.905   5.809 -0.0444 -0.3322  0.2260
 1019Sol     OW 7031   1.870   1.169   4.991  0.0849 -0.6519 -0.2615
 1019Sol     HW 7032   1.859   1.076   4.973 -0.0102 -0.7815  0.4453
 1019Sol     HW 7033   1.809   1.187   5.062 -0.1251  0.0202 -0.6174
 1019Sol     MW 7034   1.864   1.162   4.996  0.3827 -0.2105 -0.0679
 1020Sol     OW 7035   0.463   2.279   1.777 -0.4974  0.1589  0.1859
 1020Sol     HW 7036   0.438   2.187   1.772  0.6792 -0.2386  1.3612
 1020Sol     HW 7037   0.504   2.298   1.692 -1.0830 -0.2877 -0.1994
 1020Sol     MW 7038   0.464   2.272   1.769  0.0800 -0.6537 -0.1009
 1021Sol     OW 7039   0.912   1.288   6.859  0.0380  0.4357 -0.6149
 1021Sol     HW 7040   0.921   1.317   6.768  0.4059  2.3023 -0.0053
 1021Sol     HW 7041   0.864   1.359   6.902  0.1523 -0.2832  0.7112
 1021Sol     MW 7042   0.909   1.297   6.855  0.1063 -0.3149  0.6131
 1022Sol     OW 7043   2.826   1.530   7.990 -0.2852  1.6021 -0.1924
 1022Sol     HW 7044   2.896   1.578   7.946  0.5456  1.6285  1.1151
 1022Sol     HW 7045   2.792   1.471   7.923  1.3588  1.2104 -0.7090
 1022Sol     MW 7046   2.829   1.529   7.980  0.4189  0.1994  0.1066
 1023Sol     OW 7047   0.792   1.319   7.218  0.0043  0.3495  0.4984
 1023Sol     HW 7048   0.789   1.308   7.313  1.9702 -0.2462  0.5106
 1023Sol     HW 7049   0.723   1.263   7.184  0.5250 -0.8995  1.4747
 1023Sol     MW 7050   0.786   1.313   7.223 -1.0148 -0.0864  0.2857
 1024Sol     OW 7051   2.962   1.974   5.778  0.0480  0.8757 -0.3231
 1024Sol     HW 7052   2.990   1.950   5.866  3.7110 -1.3023 -1.9464
 1024Sol     HW 7053   2.889   1.915   5.759 -0.7514  1.3444  1.1911
 1024Sol     MW 7054   2.958   1.966   5.784 -0.1629 -0.2631 -0.4654
 1025Sol     OW 7055   1.173   2.666   2.973  0.1005  0.5347  0.3690
 1025Sol     HW 7056   1.098   2.609   2.988 -0.2034  0.9657  0.4898
 1025Sol     HW 7057   1.146   2.751   3.008  0.8879  0.5261  1.0243
 1025Sol     MW 7058   1.164   2.669   2.978 -0.8624  0.0926  0.2884
 1026Sol     OW 7059   0.583   2.921   6.152 -0.3075 -0.0887 -0.4346
 1026Sol     HW 7060   0.490   2.903   6.137 -0.1399 -0.7013 -0.7278
 1026Sol     HW 7061   0.595   3.010   6.118 -1.4435  1.2038  2.3516
 1026Sol     MW 7062   0.576   2.928   6.148  0.1257  0.5168 -0.1647
 1027Sol     OW 7063   1.930   2.874   8.652 -0.6943  0.5623  0.4032
 1027Sol     HW 7064   1.920   2.804   8.588 -0.2041 -0.4140  1.3556
 1027Sol     HW 7065   1.967   2.947   8.603  0.7179 -0.5341 -0.2255
 1027Sol     MW 7066   1.933   2.874   8.642 -0.3595  0.0137  0.0565
 1028Sol     OW 7067   1.223   1.600   7.928  0.1304 -0.0994 -0.1728
 1028Sol     HW 7068   1.292   1.553   7.881  0.3315  0.8841 -0.8824
 1028Sol     HW 7069   1.268   1.644   8.000  0.1516  0.0656 -0.2865
 1028Sol     MW 7070   1.233   1.600   7.930 -0.2188 -0.4030  0.1101
 1029Sol     OW 7071   1.640   0.067  10.172  0.2062  0.2557  0.0346
 1029Sol     HW 7072   1.643   0.022  10.087 -0.7594  0.9413 -0.3766
 1029Sol     HW 7073   1.602   0.153  10.152 -2.0946 -0.3791  1.4886
 1029Sol     MW 7074   1.637   0.071  10.162  0.1046  0.0254 -0.0950
 1030Sol     OW 7075   0.684   1.013   5.691 -0.2206  0.2834 -0.1795
 1030Sol     HW 7076   0.676   1.090   5.635 -0.6316  0.5718  0.2599
 1030Sol     HW 7077   0.769   0.976   5.670  0.5969  1.6724  0.5989
 1030Sol     MW 7078   0.691   1.017   5.684  0.0147  0.6648 -0.1398
 1031Sol     OW 7079   1.468   2.017   5.911 -0.0872  0.3067 -0.4826
 1031Sol     HW 7080   1.413   2.012   5.989 -1.4351  0.6780 -1.4087
 1031Sol     HW 7081   1.424   2.080   5.854 -0.1895 -1.4620 -2.4151
 1031Sol     MW 7082   1.459   2.023   5.913  0.2467 -0.1121 -0.0765
 1032Sol     OW 7083   0.962   1.553   8.962 -0.4299 -0.1832  0.2210
 1032Sol     HW 7084   1.015   1.497   8.906 -1.0557 -0.9089  0.3617
 1032Sol     HW 7085   1.025   1.587   9.026  0.2103  0.3542 -0.6754
 1032Sol     MW 7086   0.973   1.551   8.963 -0.1785 -0.2833  0.9708
 1033Sol     OW 7087   1.580   3.277   3.124 -0.4288 -0.4379 -0.4370
 1033Sol     HW 7088   1.564   3.220   3.198  0.4867  0.6900  0.6526
 1033Sol     HW 7089   1.635   3.347   3.159  0.4806 -0.1875 -2.2996
 1033Sol     MW 7090   1.584   3.278   3.133 -0.5866  0.0851  0.3892
 1034Sol     OW 7091   0.183   1.921   2.460  0.4832 -0.1210 -0.3572
 1034Sol     HW 7092   0.220   1.874   2.535  1.4961 -0.4800 -1.0758
 1034Sol     HW 7093   0.181   2.012   2.488 -0.6395 -0.4576  0.7034
 1034Sol     MW 7094   0.186   1.925   2.469  0.9657 -0.1202 -0.3373
 1035Sol     OW 7095   0.344   1.734   4.752  0.1967  0.2527 -0.5968
 1035Sol     HW 7096   0.359   1.799   4.821 -0.5452  0.0134 -0.2041
 1035Sol     HW 7097   0.323   1.654   4.799  0.1063 -0.0191 -1.0964
 1035Sol     MW 7098   0.343   1.733   4.762 -0.0164 -0.4848  0.1429
 1036Sol     OW 7099   1.248   1.153   4.694  0.5043  0.5822  0.3636
 1036Sol     HW 7100   1.204   1.184   4.615 -0.2580  1.8284  1.2625
 1036Sol     HW 7101   1.312   1.089   4.662 -0.7772 -0.0065 -1.1243
 1036Sol     MW 7102   1.250   1.150   4.684  0.2266 -0.3497  0.0351
 1037Sol     OW 7103   3.228   3.040   3.251  0.2441 -0.4441  0.2232
 1037Sol     HW 7104   3.200   3.119   3.204  0.5535  0.0661  0.9015
 1037Sol     HW 7105   3.281   3.072   3.324  2.0617 -1.3629 -0.6475
 1037Sol     MW 7106   3.230   3.050   3.253  0.4883 -0.0821  0.1009
 1038Sol     OW 7107   1.798   1.008   3.666  0.0730 -0.1645 -0.4654
 1038Sol     HW 7108   1.797   0.952   3.588  0.0096 -0.1265 -0.4909
 1038Sol     HW 7109   1.710   0.999   3.703 -0.2547  0.7128 -1.0261
 1038Sol     MW 7110   1.790   1.002   3.662  0.5468 -0.3131 -0.0903
 1039Sol     OW 7111   0.526   1.024   2.691  0.4958  0.1162  0.2511
 1039Sol     HW 7112   0.495   1.076   2.617  0.1047 -0.8169 -0.2374
 1039Sol     HW 7113   0.594   0.968   2.654  1.0964  0.4548  0.8321
 1039Sol     MW 7114   0.529   1.024   2.681  0.5830 -0.4940 -0.0882
 1040Sol     OW 7115   1.450   2.581   9.891  0.0025 -0.5530 -0.0819
 1040Sol     HW 7116   1.481   2.644   9.955  1.0897 -1.8575  0.6931
 1040Sol     HW 7117   1.357   2.603   9.879  0.4937  1.5455 -0.2740
 1040Sol     MW 7118   1.444   2.589   9.895 -0.2212  0.6110  0.4848
 1041Sol     OW 7119   0.640   2.296   3.048  0.3634 -0.3084 -0.4436
 1041Sol     HW 7120   0.626   2.329   2.959 -0.1170 -0.6030 -0.4808
 1041Sol     HW 7121   0.634   2.373   3.104 -1.7631 -0.4537 -0.4267
 1041Sol     MW 7122   0.638   2.306   3.045  0.4219 -0.6645  0.3736
 1042Sol     OW 7123   2.579   0.840  10.058  0.4313  0.5050  0.4825
 1042Sol     HW 7124   2.634   0.860   9.982  0.4103 -1.2045 -0.0061
 1042Sol     HW 7125   2.633   0.862  10.134  2.1594 -1.9515  0.0247
 1042Sol     MW 7126   2.588   0.844  10.058 -0.1393  0.4056  0.2432
 1043Sol     OW 7127   1.669   0.455   5.615 -0.3110 -0.2229  0.6433
 1043Sol     HW 7128   1.721   0.525   5.657  1.6292 -1.1827 -0.1000
 1043Sol     HW 7129   1.735   0.395   5.579 -1.9491 -2.3581  1.1199
 1043Sol     MW 7130   1.680   0.456   5.616  0.0578 -0.0594 -0.1078
 1044Sol     OW 7131   1.457   0.184   8.915  0.4311  0.5897 -0.0800
 1044Sol     HW 7132   1.453   0.197   9.010  0.5930  2.1563 -0.2687
 1044Sol     HW 7133   1.370   0.211   8.884  0.5285  0.5235 -0.4145
 1044Sol     MW 7134   1.449   0.188   8.921  0.0696 -0.1795 -0.3118
 1045Sol     OW 7135   2.107   3.285   4.737 -0.8544  0.1852 -0.2006
 1045Sol     HW 7136   2.058   3.235   4.673  1.1888 -2.9113  0.5458
 1045Sol     HW 7137   2.084   3.247   4.821 -0.3385  1.4494  0.5341
 1045Sol     MW 7138   2.101   3.277   4.739 -0.1876 -0.2484 -0.0472
 1046Sol     OW 7139   1.044   0.877   1.849 -0.1768  0.5350  0.3630
 1046Sol     HW 7140   1.121   0.872   1.791  0.7241 -0.5175  1.6311
 1046Sol     HW 7141   1.049   0.964   1.888  1.1072 -0.0032  1.4263
 1046Sol     MW 7142   1.052   0.884   1.847  0.0485 -0.2743  0.3045
 1047Sol     OW 7143   3.221   2.826   6.796 -0.1798 -0.0053 -0.2658
 1047Sol     HW 7144   3.126   2.840   6.794 -0.0601  0.7430 -1.1717
 1047Sol     HW 7145   3.247   2.851   6.884 -0.9456 -1.0829  0.2852
 1047Sol     MW 7146   3.215   2.830   6.803 -0.1417  0.2338  0.3583
 1048Sol     OW 7147   0.705   2.224   9.548  0.0499 -0.3269  0.3394
 1048Sol     HW 7148   0.759   2.203   9.473 -0.4313  0.0030 -0.1090
 1048Sol     HW 7149   0.656   2.144   9.566  1.2864 -0.8834  1.2666
 1048Sol     MW 7150   0.705   2.215   9.543 -0.3585  0.6687 -0.3360
 1049Sol     OW 7151   0.866   0.990   7.792 -0.6570  0.1988 -0.1176
 1049Sol     HW 7152   0.958   0.967   7.806 -0.4454  1.3549  0.4283
 1049Sol     HW 7153   0.818   0.934   7.853 -0.3481 -0.6521 -0.6427
 1049Sol     MW 7154   0.870   0.983   7.799 -0.0252 -0.2130  0.2769
 1050Sol     OW 7155   1.429   1.720   5.613  0.2819 -0.3955  0.0077
 1050Sol     HW 7156   1.366   1.791   5.628  1.5731  0.9559 -0.9117
 1050Sol     HW 7157   1.409   1.657   5.682 -1.0314  0.7430  0.7184
 1050Sol     MW 7158   1.421   1.721   5.621 -0.7094  0.2121  0.1184
 1051Sol     OW 7159   0.234   2.423   1.859  0.0883 -0.5057 -0.0757
 1051Sol     HW 7160   0.215   2.393   1.948  2.4357  0.6813  0.8606
 1051Sol     HW 7161   0.301   2.364   1.826 -0.2751 -0.5143 -0.8336
 1051Sol     MW 7162   0.238   2.415   1.864 -0.9579 -0.3709 -0.2731
 1052Sol     OW 7163   3.007   1.373   3.970 -0.6383 -0.6017  0.3290
 1052Sol     HW 7164   3.076   1.309   3.957 -1.6574 -1.6031 -0.2494
 1052Sol     HW 7165   3.009   1.427   3.891  0.7832  0.6389  1.1943
 1052Sol     MW 7166   3.013   1.372   3.961  0.3924  0.3519 -0.1544
 1053Sol     OW 7167   1.475   2.614   4.658 -0.4962 -0.0979  0.5818
 1053Sol     HW 7168   1.467   2.674   4.584 -0.9056 -0.9390 -0.0714
 1053Sol     HW 7169   1.431   2.657   4.730  0.6560  1.1215  0.5758
 1053Sol     MW 7170   1.471   2.623   4.658 -0.3910  0.3343 -0.9082
 1054Sol     OW 7171   0.918   1.022   5.554 -0.8771  0.1609 -0.1517
 1054Sol     HW 7172   0.924   1.035   5.459 -1.6083  0.7344 -0.1187
 1054Sol     HW 7173   1.001   1.056   5.588  0.0200 -1.4069 -0.7247
 1054Sol     MW 7174   0.926   1.026   5.549 -0.1696  0.1062  0.1789
 1055Sol     OW 7175   1.384   0.504   6.739 -0.1821 -0.5054  0.1216
 1055Sol     HW 7176   1.379   0.410   6.720 -1.9003 -0.6096  0.9884
 1055Sol     HW 7177   1.447   0.538   6.676 -0.1682 -2.1008 -0.7497
 1055Sol     MW 7178   1.389   0.498   6.732 -0.3072  0.4791  0.3324
 1056Sol     OW 7179   1.226   0.785   6.098 -0.6659  0.2377  0.0144
 1056Sol     HW 7180   1.206   0.692   6.113 -2.4108  0.9840  2.5631
 1056Sol     HW 7181   1.303   0.802   6.153 -1.2240  0.6503  0.6670
 1056Sol     MW 7182   1.232   0.778   6.104 -0.5331 -0.1614 -0.6444
 1057Sol     OW 7183   1.092   2.740   6.181  0.1290  0.3867 -0.1740
 1057Sol     HW 7184   1.002   2.714   6.161  0.2962 -0.0438 -0.3728
 1057Sol     HW 7185   1.106   2.820   6.132 -1.2198  2.2621  2.3838
 1057Sol     MW 7186   1.085   2.745   6.175  0.1951  0.3598  0.2185
 1058Sol     OW 7187   3.133   1.205   2.467  0.2305 -0.0351 -0.0183
 1058Sol     HW 7188   3.070   1.166   2.407  1.3218  0.0699 -1.2555
 1058Sol     HW 7189   3.134   1.298   2.444  1.5080 -0.1920 -0.6392
 1058Sol     MW 7190   3.128   1.210   2.460 -0.6528 -0.0404 -0.2440
 1059Sol     OW 7191   0.260   3.072   9.478 -0.2396 -0.2130  0.4325
 1059Sol     HW 7192   0.302   3.152   9.447 -0.8915  1.5867  3.9426
 1059Sol     HW 7193   0.330   3.007   9.478  0.7849  0.8632 -0.5152
 1059Sol     MW 7194   0.270   3.073   9.475  0.1796 -0.2135  0.4232
 1060Sol     OW 7195   2.462   2.951   9.441  0.1883 -0.1485  0.0477
 1060Sol     HW 7196   2.406   2.876   9.417 -0.2281 -0.0087  0.5784
 1060Sol     HW 7197   2.549   2.913   9.452 -0.1504 -0.6716  0.9611
 1060Sol     MW 7198   2.464   2.941   9.440 -0.0997  0.1862 -0.0474
 1061Sol     OW 7199   0.869   1.884   4.143  0.2140  0.2359 -0.0356
 1061Sol     HW 7200   0.911   1.798   4.138  0.8493  0.6305 -1.5856
 1061Sol     HW 7201   0.787   1.874   4.096 -0.2629  0.1737  0.7916
 1061Sol     MW 7202   0.865   1.876   4.138 -0.4879 -0.3424  0.3249
 1062Sol     OW 7203   2.005   1.144   4.573  0.0804 -0.1637  0.5117
 1062Sol     HW 7204   2.042   1.189   4.498 -0.9724  0.7403  0.5249
 1062Sol     HW 7205   1.916   1.122   4.547 -0.1763 -0.1591  1.3716
 1062Sol     MW 7206   2.000   1.146   4.564 -0.3107  0.3813 -0.3452
 1063Sol     OW 7207   1.265   1.516   8.508  0.1842 -0.4176 -0.4024
 1063Sol     HW 7208   1.274   1.555   8.421 -0.5501  1.5485  0.3768
 1063Sol     HW 7209   1.242   1.425   8.491 -2.8645  0.6252 -2.3063
 1063Sol     MW 7210   1.264   1.512   8.499  0.4045 -0.1852 -0.4958
 1064Sol     OW 7211   1.508   1.756   3.920 -0.0475 -0.6583 -0.6822
 1064Sol     HW 7212   1.524   1.676   3.970 -2.2505  0.3066  1.6633
 1064Sol     HW 7213   1.413   1.769   3.926  0.2298  1.9018 -1.3687
 1064Sol     MW 7214   1.501   1.750   3.925  0.1556 -0.0807  0.5998
 1065Sol     OW 7215   3.023   0.162   6.565 -0.2213  0.7029 -0.1423
 1065Sol     HW 7216   2.997   0.108   6.491  1.2521 -1.1727  0.6532
 1065Sol     HW 7217   3.101   0.208   6.536  0.6043 -0.3602  0.3786
 1065Sol     MW 7218   3.027   0.161   6.556  0.2659  0.2517 -0.1279
 1066Sol     OW 7219   0.758   2.093   2.377 -0.4204  0.1970  0.4007
 1066Sol     HW 7220   0.691   2.107   2.445  1.9745  0.4346  2.8275
 1066Sol     HW 7221   0.787   2.003   2.389 -0.5195 -0.0058 -0.8315
 1066Sol     MW 7222   0.755   2.086   2.385  0.2082  0.1662  0.2757
 1067Sol     OW 7223   1.469   0.745   2.474 -0.0312 -0.1179 -0.1599
 1067Sol     HW 7224   1.450   0.696   2.395  2.5005  1.8745 -2.0754
 1067Sol     HW 7225   1.533   0.692   2.521  1.6738  0.6975 -1.5541
 1067Sol     MW 7226   1.473   0.736   2.471 -0.1527 -0.1693 -0.6597
 1068Sol     OW 7227   0.988   0.279   5.005  0.3840  0.2284 -0.3869
 1068Sol     HW 7228   1.061   0.221   4.984  1.5675  1.3811  0.4545
 1068Sol     HW 7229   0.927   0.225   5.055  0.7027 -0.7124 -1.0088
 1068Sol     MW 7230   0.989   0.269   5.008 -0.7392 -0.8907 -0.5902
 1069Sol     OW 7231   2.849   2.984   6.984 -0.6723 -0.1992 -0.0937
 1069Sol     HW 7232   2.911   2.972   7.056 -1.9167 -1.6965  0.7850
 1069Sol     HW 7233   2.877   3.064   6.940  2.6854 -1.5862 -0.5770
 1069Sol     MW 7234   2.857   2.990   6.987  0.1324 -0.2633 -0.3382
 1070Sol     OW 7235   2.396   2.076   9.687 -0.1835  0.1765 -0.3649
 1070Sol     HW 7236   2.363   2.089   9.598  1.5580  0.3167 -1.0026
 1070Sol     HW 7237   2.337   2.011   9.725 -1.1124  0.3276 -1.5238
 1070Sol     MW 7238   2.388   2.071   9.683 -0.1413 -0.4075  0.1814
 1071Sol     OW 7239   1.191   1.686   3.327  0.1965  0.0108  0.1587
 1071Sol     HW 7240   1.159   1.618   3.268  0.8799 -0.9148  0.8493
 1071Sol     HW 7241   1.259   1.643   3.379  1.3071  1.4685 -0.0589
 1071Sol     MW 7242   1.194   1.676   3.326 -0.6313  0.0170  0.3326
 1072Sol     OW 7243   1.566   3.251   9.676 -0.3038 -0.1892  0.2955
 1072Sol     HW 7244   1.651   3.262   9.634 -1.2745  1.0025 -1.4276
 1072Sol     HW 7245   1.546   3.158   9.667  0.8687 -0.5132  0.8715
 1072Sol     MW 7246   1.572   3.244   9.672  0.0830 -0.1838 -0.1367
 1073Sol     OW 7247   1.036   2.267   3.922  0.2517 -0.1306 -0.5078
 1073Sol     HW 7248   1.123   2.272   3.963  0.9910  0.8963 -2.1535
 1073Sol     HW 7249   0.976   2.256   3.996  1.4731  2.4924  0.9819
 1073Sol     MW 7250   1.039   2.267   3.932 -0.2529 -0.1097 -0.1119
 1074Sol     OW 7251   0.486   0.042   4.257 -0.2254 -0.5766 -0.1104
 1074Sol     HW 7252   0.408   0.058   4.204 -0.3851  0.4303  0.4160
 1074Sol     HW 7253   0.547   0.111   4.231 -0.9019  0.9598  2.1372
 1074Sol     MW 7254   0.484   0.050   4.250  0.7274  0.1626  0.0597
 1075Sol     OW 7255   2.472   0.919   6.911  0.0058 -0.5726 -0.6202
 1075Sol     HW 7256   2.468   0.981   6.838 -0.0511 -0.9456 -0.9346
 1075Sol     HW 7257   2.389   0.931   6.957  1.5597  2.3153  1.5669
 1075Sol     MW 7258   2.464   0.925   6.909  0.0639  0.3245  0.2088
 1076Sol     OW 7259   2.040   2.977   1.787  0.1091 -0.0793  0.2844
 1076Sol     HW 7260   2.013   2.949   1.874 -1.3877  0.1344 -0.0882
 1076Sol     HW 7261   2.086   3.060   1.801  1.6910 -1.0805  1.0662
 1076Sol     MW 7262   2.041   2.982   1.796  0.2682  0.6310 -0.0409
 1077Sol     OW 7263   0.223   1.356   4.012 -0.2645 -0.4027 -0.0431
 1077Sol     HW 7264   0.172   1.275   4.004 -0.6668 -0.0493 -1.1026
 1077Sol     HW 7265   0.313   1.329   3.993 -0.6509 -0.2905 -2.1649
 1077Sol     MW 7266   0.227   1.346   4.010  0.0534  0.4135 -0.1775
 1078Sol     OW 7267   0.921   2.021   7.621  0.0247  0.0083 -0.1524
 1078Sol     HW 7268   0.938   2.115   7.634 -3.1096  0.8119 -1.3551
 1078Sol     HW 7269   0.980   1.996   7.550  1.7660  0.7385  0.9852
 1078Sol     MW 7270   0.928   2.027   7.616 -0.1388 -0.8813  0.5408
 1079Sol     OW 7271   1.422   1.200   9.148 -0.1640  0.2876  0.0542
 1079Sol     HW 7272   1.474   1.153   9.083  0.0068  0.0527  0.3630
 1079Sol     HW 7273   1.357   1.135   9.177 -0.7780  0.6470 -0.4989
 1079Sol     MW 7274   1.420   1.190   9.145  0.8042 -0.3575  0.0892
 1080Sol     OW 7275   0.367   1.304   5.549 -0.0889  0.6505  0.3089
 1080Sol     HW 7276   0.322   1.368   5.605  1.1646  1.1417  0.7934
 1080Sol     HW 7277   0.455   1.298   5.587  0.1180 -0.6152 -0.3453
 1080Sol     MW 7278   0.371   1.309   5.558 -0.5513 -0.3002 -0.1845
 1081Sol     OW 7279   0.689   2.223   3.729  0.1771  0.0843 -0.5730
 1081Sol     HW 7280   0.624   2.201   3.796 -0.4321  0.5151 -1.0207
 1081Sol     HW 7281   0.642   2.219   3.647 -0.3065  4.1795 -0.6012
 1081Sol     MW 7282   0.679   2.221   3.728 -0.5565  0.4549  0.5366
 1082Sol     OW 7283   2.495   0.034   4.861  0.0833  0.7868 -0.8448
 1082Sol     HW 7284   2.531  -0.052   4.838  0.4387  0.9298 -0.8214
 1082Sol     HW 7285   2.550   0.096   4.813  0.5003  1.0585 -0.0133
 1082Sol     MW 7286   2.503   0.031   4.854  0.7575  0.1903 -0.3013
 1083Sol     OW 7287   0.420   0.957   2.116  0.0494  0.1290  0.1487
 1083Sol     HW 7288   0.454   1.020   2.180  1.5980  0.1588 -0.6820
 1083Sol     HW 7289   0.492   0.897   2.101 -0.2816  0.1510 -1.6043
 1083Sol     MW 7290   0.429   0.958   2.120  0.0195 -0.0512  0.0751
 1084Sol     OW 7291   0.731   2.074   5.273  0.0790 -0.1706 -0.4814
 1084Sol     HW 7292   0.749   2.134   5.200 -0.5845  1.1227  0.3891
 1084Sol     HW 7293   0.758   2.123   5.351 -1.1921 -0.7010  0.3102
 1084Sol     MW 7294   0.735   2.084   5.274  0.0716 -0.1928 -0.0914
 1085Sol     OW 7295   0.062   1.370   7.051  0.0646  0.0603 -0.2851
 1085Sol     HW 7296   0.000   1.440   7.073  1.4664  0.8971  1.1552
 1085Sol     HW 7297   0.094   1.393   6.964  0.8968  1.5505  0.3766
 1085Sol     MW 7298   0.059   1.379   7.045 -0.0082  0.9030 -0.2518
 1086Sol     OW 7299   0.522   1.004   7.667  0.1157  0.4670  0.0716
 1086Sol     HW 7300   0.606   0.982   7.627 -0.7072 -0.9971 -0.9063
 1086Sol     HW 7301   0.457   0.959   7.612 -1.2546  1.0676  1.1781
 1086Sol     MW 7302   0.524   0.998   7.658 -0.0156 -0.2106  0.4241
 1087Sol     OW 7303   0.796   1.138   4.524  0.1823 -0.3209  0.6120
 1087Sol     HW 7304   0.717   1.130   4.472  1.7659  1.2699 -2.1838
 1087Sol     HW 7305   0.765   1.165   4.611 -2.2820  1.7729 -0.8309
 1087Sol     MW 7306   0.786   1.140   4.527 -0.0857  0.1869 -0.3289
 1088Sol     OW 7307   0.167   1.786   1.864  0.2539  0.0750 -0.4519
 1088Sol     HW 7308   0.079   1.748   1.856  0.6850 -0.5955 -2.2734
 1088Sol     HW 7309   0.211   1.761   1.783  1.9879  0.7917  0.2482
 1088Sol     MW 7310   0.163   1.780   1.856 -0.1055 -0.0058 -0.7881
 1089Sol     OW 7311   0.204   2.227   7.542 -0.0075  0.2347 -0.4464
 1089Sol     HW 7312   0.116   2.266   7.536  0.5611  1.4857 -0.7359
 1089Sol     HW 7313   0.198   2.149   7.486 -1.6586 -1.1136  1.5213
 1089Sol     MW 7314   0.195   2.223   7.536 -0.1566  0.0022  0.1433
 1090Sol     OW 7315   2.224   2.322   1.886  0.2508 -0.0192 -0.1526
 1090Sol     HW 7316   2.316   2.313   1.861  0.8376 -0.4551  2.1092
 1090Sol     HW 7317   2.225   2.343   1.979 -1.8874  2.0437 -0.5293
 1090Sol     MW 7318   2.232   2.323   1.892  0.3161 -0.1852 -0.5466
 1091Sol     OW 7319   2.536   2.238   4.541  0.0868 -0.0659  0.7334
 1091Sol     HW 7320   2.445   2.237   4.570 -0.0580 -0.6868  0.2485
 1091Sol     HW 7321   2.531   2.257   4.448  0.4403 -0.4030  0.6456
 1091Sol     MW 7322   2.528   2.240   4.535  0.1795  0.2287  0.4398
 1092Sol     OW 7323   2.771   2.711   8.762  0.1219  0.3875 -0.0007
 1092Sol     HW 7324   2.703   2.693   8.826  0.8167 -1.1022  0.3341
 1092Sol     HW 7325   2.852   2.682   8.805  0.6108 -0.4957 -1.4966
 1092Sol     MW 7326   2.772   2.707   8.772 -0.1598 -0.4268 -0.2302
 1093Sol     OW 7327   2.364   0.919   2.254 -0.1633 -0.3861  0.0147
 1093Sol     HW 7328   2.439   0.951   2.204 -0.3397 -0.0833 -0.0551
 1093Sol     HW 7329   2.291   0.922   2.193 -0.2735 -0.4928  0.1419
 1093Sol     MW 7330   2.364   0.922   2.244 -0.4532  0.3047 -0.1816
 1094Sol     OW 7331   1.957   0.791   3.910  0.5703 -0.0725  0.2317
 1094Sol     HW 7332   2.025   0.725   3.919 -0.1374 -0.8831 -0.2651
 1094Sol     HW 7333   1.912   0.791   3.994  1.5354  0.8780  0.7639
 1094Sol     MW 7334   1.959   0.785   3.918 -0.1055 -0.0407  0.1165
 1095Sol     OW 7335   0.720   1.403   7.548  0.0204 -0.1015  0.1166
 1095Sol     HW 7336   0.682   1.479   7.592  2.0271  0.5947  0.6943
 1095Sol     HW 7337   0.651   1.373   7.489 -1.1345  1.5939  0.5561
 1095Sol     MW 7338   0.710   1.407   7.547 -0.3376  1.1922  0.3776
 1096Sol     OW 7339   1.256   2.332   8.053 -0.1080  0.4934 -0.3199
 1096Sol     HW 7340   1.172   2.344   8.097  0.3463  1.0812  0.3892
 1096Sol     HW 7341   1.247   2.378   7.970 -0.5094  0.4933 -0.2775
 1096Sol     MW 7342   1.248   2.337   8.050  0.1365 -0.0665  0.2495
 1097Sol     OW 7343   3.163   0.735   9.407 -0.1814 -0.1269 -0.0940
 1097Sol     HW 7344   3.234   0.673   9.388 -0.8066 -0.4483 -1.4859
 1097Sol     HW 7345   3.204   0.802   9.460  1.3329 -0.0152 -1.3477
 1097Sol     MW 7346   3.173   0.735   9.410 -0.3031 -0.9250 -0.6033
 1098Sol     OW 7347   3.138   0.235   3.264  0.3655  0.2247 -0.4495
 1098Sol     HW 7348   3.154   0.204   3.353  1.0625 -0.3385 -0.7665
 1098Sol     HW 7349   3.224   0.264   3.234  0.3465 -0.6325 -1.3402
 1098Sol     MW 7350   3.147   0.235   3.270  0.3847 -0.1332 -0.0214
 1099Sol     OW 7351   2.885   1.638   9.051  0.1783 -0.3776 -0.2470
 1099Sol     HW 7352   2.895   1.725   9.013  0.4592  0.0150  0.7167
 1099Sol     HW 7353   2.945   1.637   9.126 -0.4234 -1.1110  0.2406
 1099Sol     MW 7354   2.891   1.646   9.054  0.0891  0.4894 -0.3234
 1100Sol     OW 7355   0.686   1.241   9.389 -0.2039 -0.5797  0.1238
 1100Sol     HW 7356   0.674   1.333   9.364 -0.1424 -0.4082  0.7246
 1100Sol     HW 7357   0.622   1.193   9.336 -0.2735 -0.1852 -0.1505
 1100Sol     MW 7358   0.679   1.245   9.382  0.0654  0.0066  0.1952
 1101Sol     OW 7359   0.539   1.172   2.977  0.1902 -0.0350 -0.4486
 1101Sol     HW 7360   0.461   1.117   2.984  0.3184 -0.0462  1.0245
 1101Sol     HW 7361   0.539   1.202   2.886 -0.2412 -1.9297 -1.1097
 1101Sol     MW 7362   0.532   1.169   2.970  0.0673 -0.0797 -0.9618
 1102Sol     OW 7363   0.724   1.229   7.766  0.2102 -0.1652 -0.4263
 1102Sol     HW 7364   0.752   1.258   7.680  0.9436 -0.5524 -0.3168
 1102Sol     HW 7365   0.775   1.150   7.783 -0.6768 -0.6791 -0.0820
 1102Sol     MW 7366   0.731   1.224   7.760 -0.4432 -0.0590 -0.4396
 1103Sol     OW 7367   0.047   3.376   6.620 -0.3742 -0.0408  0.1781
 1103Sol     HW 7368   0.076   3.458   6.661 -1.3400 -0.0808  0.9557
 1103Sol     HW 7369   0.094   3.308   6.667 -0.4753 -0.0066  0.3281
 1103Sol     MW 7370   0.054   3.377   6.628 -0.3332 -0.6193 -0.2727
 1104Sol     OW 7371   2.931   2.960   4.871  0.1148 -0.3870  0.3031
 1104Sol     HW 7372   2.882   3.006   4.803  1.2152 -0.5942 -0.6748
 1104Sol     HW 7373   2.870   2.948   4.943 -0.7266  0.9032 -0.1935
 1104Sol     MW 7374   2.921   2.963   4.871 -0.1415  0.2117  0.1915
 1105Sol     OW 7375   0.978   2.422   7.445 -0.5050 -0.3927 -0.2738
 1105Sol     HW 7376   0.965   2.371   7.525  0.5597 -1.5132 -0.8132
 1105Sol     HW 7377   0.953   2.363   7.374  1.2152 -0.3422 -0.9260
 1105Sol     MW 7378   0.974   2.412   7.446  0.1986 -0.2669  0.1732
 1106Sol     OW 7379   2.154   0.443   2.431 -0.2257  0.2402 -0.3378
 1106Sol     HW 7380   2.088   0.477   2.491 -2.0398 -0.4466 -1.8859
 1106Sol     HW 7381   2.154   0.505   2.358  0.4446 -0.0515 -0.5873
 1106Sol     MW 7382   2.148   0.452   2.430 -0.0119  0.0559  0.2279
 1107Sol     OW 7383   0.005   0.733   8.852 -0.2558 -0.2365  0.5231
 1107Sol     HW 7384   0.005   0.789   8.929  3.0144 -0.1479  0.5104
 1107Sol     HW 7385   0.068   0.773   8.792 -0.2188 -2.1706 -0.8016
 1107Sol     MW 7386   0.010   0.742   8.853 -0.1452  0.1323  0.7547
 1108Sol     OW 7387   2.872   0.068   6.356  1.0634 -0.0912 -0.1081
 1108Sol     HW 7388   2.879   0.085   6.262  0.5389 -1.8729 -0.4841
 1108Sol     HW 7389   2.782   0.093   6.378  1.3942  0.9753  0.0749
 1108Sol     MW 7390   2.865   0.072   6.349  0.3718 -0.2532  0.1077
 1109Sol     OW 7391   0.496   0.425   9.055  0.1549 -0.2835  0.0394
 1109Sol     HW 7392   0.517   0.448   9.146 -0.4812 -0.5952  0.2656
 1109Sol     HW 7393   0.401   0.411   9.055  0.1612 -0.3442 -0.6623
 1109Sol     MW 7394   0.489   0.426   9.063  0.1087 -0.3715  0.0695
 1110Sol     OW 7395   0.910   2.844   6.470  0.1786 -0.6900 -0.2730
 1110Sol     HW 7396   0.865   2.896   6.404  2.3114 -2.4241 -3.2292
 1110Sol     HW 7397   0.896   2.753   6.442  1.0936 -1.4514  1.6776
 1110Sol     MW 7398   0.905   2.841   6.461  0.1962  0.1082 -0.0784
 1111Sol     OW 7399   2.039   2.831   1.558  0.2543  0.2574 -0.0305
 1111Sol     HW 7400   2.098   2.757   1.574  1.7606  1.1937 -1.1742
 1111Sol     HW 7401   2.055   2.891   1.630 -1.1311 -0.5972  1.0224
 1111Sol     MW 7402   2.045   2.829   1.566  0.1377  0.1527  0.1833
 1112Sol     OW 7403   0.215   2.442   3.225  0.0058  0.0413 -0.5314
 1112Sol     HW 7404   0.289   2.453   3.284  0.0433  0.4125 -0.6469
 1112Sol     HW 7405   0.197   2.531   3.193 -2.0340  0.3691  1.3819
 1112Sol     MW 7406   0.220   2.451   3.228 -0.5023 -0.4802 -0.5910
 1113Sol     OW 7407   1.993   0.456   4.357  0.5074 -0.5261 -0.1482
 1113Sol     HW 7408   1.949   0.375   4.383  0.3317 -0.2694  0.3696
 1113Sol     HW 7409   1.993   0.454   4.261  1.8818 -1.8825 -0.1338
 1113Sol     MW 7410   1.989   0.449   4.351  0.2398  0.1911  0.3043
 1114Sol     OW 7411   0.523   3.181   4.257 -0.2315 -0.5278  0.0513
 1114Sol     HW 7412   0.521   3.277   4.262  1.0145 -0.4688 -0.2727
 1114Sol     HW 7413   0.564   3.163   4.172  2.8264 -1.3094  1.6308
 1114Sol     MW 7414   0.527   3.188   4.250 -0.2330  0.7235 -0.4235
 1115Sol     OW 7415   2.260   2.960   4.348 -0.1831 -0.1617 -0.9724
 1115Sol     HW 7416   2.219   3.030   4.398  1.6135  0.3500 -0.1460
 1115Sol     HW 7417   2.256   2.883   4.406 -0.9540 -0.3921 -1.3331
 1115Sol     MW 7418   2.256   2.959   4.358  0.5548  0.2486 -0.0953
 1116Sol     OW 7419   1.528   1.687   9.104  0.3119  0.1966  0.7956
 1116Sol     HW 7420   1.590   1.728   9.164 -0.8100 -0.1640  2.2294
 1116Sol     HW 7421   1.479   1.625   9.158 -1.4780  0.6645 -0.2375
 1116Sol     MW 7422   1.529   1.685   9.114  0.3628 -0.4257  0.4981
 1117Sol     OW 7423   2.027   1.401   2.387  0.3374  0.3498  0.1104
 1117Sol     HW 7424   2.063   1.313   2.383 -0.0462  0.1548  0.8423
 1117Sol     HW 7425   2.103   1.457   2.405  0.4849  0.0944  0.2854
 1117Sol     MW 7426   2.037   1.399   2.388 -0.2375  0.1390 -0.4616
 1118Sol     OW 7427   2.787   2.153   3.856  0.1526  0.6487 -0.5279
 1118Sol     HW 7428   2.780   2.231   3.800  1.3729  0.2195 -1.3120
 1118Sol     HW 7429   2.876   2.157   3.890  0.0854 -0.1939 -0.2569
 1118Sol     MW 7430   2.794   2.160   3.854  1.0905  0.3432 -0.8153
 1119Sol     OW 7431   2.852   2.984   7.626 -0.3394  0.8544 -0.5507
 1119Sol     HW 7432   2.877   3.031   7.706 -0.6705 -1.7152  1.0900
 1119Sol     HW 7433   2.933   2.942   7.597 -0.5597  0.5560 -0.7335
 1119Sol     MW 7434   2.862   2.985   7.630  0.4496 -0.0464  0.1153
 1120Sol     OW 7435   2.498   2.522   6.283  0.0841 -0.3019  0.6880
 1120Sol     HW 7436   2.546   2.525   6.366  0.1552 -0.3240  0.6483
 1120Sol     HW 7437   2.412   2.558   6.304  0.1931 -0.0434  0.7107
 1120Sol     MW 7438   2.495   2.526   6.293 -0.4377  0.4873  0.0985
 1121Sol     OW 7439   1.395   2.789   4.452  0.3962  0.7199  0.1314
 1121Sol     HW 7440   1.308   2.820   4.479  0.9277  3.0748 -0.7044
 1121Sol     HW 7441   1.386   2.775   4.357  0.4950 -0.5953  0.3119
 1121Sol     MW 7442   1.386   2.790   4.446 -0.6361 -0.0388 -0.0765
 1122Sol     OW 7443   1.946   2.671   2.953  0.1501 -0.2804  0.5056
 1122Sol     HW 7444   1.933   2.720   2.872  0.3417 -1.3152 -0.1750
 1122Sol     HW 7445   2.024   2.617   2.935  0.3864 -0.2647  1.4974
 1122Sol     MW 7446   1.952   2.670   2.944  0.5120 -0.7729  0.2939
 1123Sol     OW 7447   0.624   0.755   2.713  0.2553 -0.3702  0.5636
 1123Sol     HW 7448   0.667   0.695   2.773  1.6719 -1.3219 -1.3468
 1123Sol     HW 7449   0.540   0.713   2.693 -0.0143 -0.2766  1.4972
 1123Sol     MW 7450   0.620   0.746   2.716  0.4171  0.4568  0.1306
 1124Sol     OW 7451   1.439   3.337   2.507  0.4154  0.1805  0.4459
 1124Sol     HW 7452   1.408   3.265   2.452  0.7689  2.0475 -2.3042
 1124Sol     HW 7453   1.360   3.369   2.551 -0.0289 -0.7038  0.3064
 1124Sol     MW 7454   1.429   3.333   2.506  0.6960 -0.7773 -0.2617
 1125Sol     OW 7455   0.050   0.499   4.119  0.4378 -0.2675  0.4798
 1125Sol     HW 7456   0.005   0.539   4.044 -0.1529 -0.2503  0.8421
 1125Sol     HW 7457   0.131   0.548   4.127  0.5605 -0.3518 -0.2334
 1125Sol     MW 7458   0.053   0.507   4.113 -0.3026 -0.0928  0.4821
 1126Sol     OW 7459   2.764   0.710   6.399 -0.4894  0.3335 -0.1013
 1126Sol     HW 7460   2.815   0.737   6.323  0.3174 -0.5211  0.1289
 1126Sol     HW 7461   2.768   0.614   6.398 -0.3834  0.3162  1.0651
 1126Sol     MW 7462   2.769   0.704   6.393 -0.3201  0.2085 -0.3170
 1127Sol     OW 7463   0.234   2.203   5.662 -0.9032  0.2693  0.1699
 1127Sol     HW 7464   0.245   2.133   5.597 -0.6939  0.4513  0.0074
 1127Sol     HW 7465   0.305   2.189   5.724 -0.0620  1.1339 -0.5944
 1127Sol     MW 7466   0.241   2.195   5.661 -0.4476 -0.6615  0.5123
 1128Sol     OW 7467   0.496   3.270   7.753 -0.2134 -0.2361 -0.7442
 1128Sol     HW 7468   0.570   3.331   7.753  0.3176 -0.8476 -2.1786
 1128Sol     HW 7469   0.536   3.184   7.769 -0.5257 -0.6263 -1.9668
 1128Sol     MW 7470   0.507   3.268   7.754  0.2334  0.0957 -0.8309
 1129Sol     OW 7471   3.074   3.189   6.610  0.0514  0.6428 -0.9436
 1129Sol     HW 7472   3.121   3.107   6.594  1.4174  0.9627  1.2076
 1129Sol     HW 7473   3.142   3.251   6.637 -1.3058  1.7444  0.0284
 1129Sol     MW 7474   3.085   3.187   6.611  0.2012 -0.1207  0.1695
 1130Sol     OW 7475   3.095   2.043   8.885 -0.1353  0.5292  0.2962
 1130Sol     HW 7476   3.160   2.061   8.954 -1.8660 -1.7494  2.5911
 1130Sol     HW 7477   3.147   2.010   8.812  1.6493  2.1673  0.7569
 1130Sol     MW 7478   3.106   2.042   8.885  0.4131 -0.2470 -0.3871
 1131Sol     OW 7479   0.045   3.185   4.651  0.4060 -0.1393  0.1272
 1131Sol     HW 7480  -0.006   3.256   4.612  1.2966  0.0614 -0.6972
 1131Sol     HW 7481  -0.005   3.158   4.728 -0.0486  1.2336  0.3205
 1131Sol     MW 7482   0.036   3.189   4.655  0.0535  0.5449 -0.0729
 1132Sol     OW 7483   3.140   2.240   2.576 -0.1676  0.2298 -0.2900
 1132Sol     HW 7484   3.222   2.194   2.594 -0.2675  0.3958  0.6555
 1132Sol     HW 7485   3.151   2.325   2.620 -0.8540  0.2409 -0.1379
 1132Sol     MW 7486   3.148   2.244   2.582  0.4332 -0.2786  0.2971
 1133Sol     OW 7487   2.532   3.046   4.298  0.2942 -0.2728  0.1931
 1133Sol     HW 7488   2.527   3.112   4.367 -2.6730 -2.0554  1.7727
 1133Sol     HW 7489   2.442   3.037   4.266  1.4945  0.0470 -3.5334
 1133Sol     MW 7490   2.524   3.051   4.301 -0.5698 -0.1099  0.0255
 1134Sol     OW 7491   2.905   0.270   5.486  0.0767  0.6372  0.1071
 1134Sol     HW 7492   2.912   0.280   5.391  0.3575 -0.7484 -0.0287
 1134Sol     HW 7493   2.837   0.332   5.512 -0.1046  0.9186 -1.0143
 1134Sol     MW 7494   2.900   0.277   5.479  0.5606  0.4682  0.3922
 1135Sol     OW 7495   1.285   1.592   2.768 -0.1139  0.0930  0.4612
 1135Sol     HW 7496   1.323   1.639   2.842  2.1182 -0.6957 -0.1342
 1135Sol     HW 7497   1.346   1.608   2.696 -0.8320 -1.3521 -0.4861
 1135Sol     MW 7498   1.294   1.597   2.769  0.4999 -0.2270 -0.0296
 1136Sol     OW 7499   1.281   2.174   3.732 -0.1992 -0.9897 -0.2218
 1136Sol     HW 7500   1.362   2.225   3.724  0.8373 -2.5442  0.0844
 1136Sol     HW 7501   1.213   2.232   3.698  1.2338 -0.1131 -1.6890
 1136Sol     MW 7502   1.282   2.184   3.728  0.5218  0.4263  0.4084
 1137Sol     OW 7503   0.488   1.635   4.129 -0.0412  0.2253  0.2867
 1137Sol     HW 7504   0.404   1.663   4.163  0.0361 -0.0996  0.7482
 1137Sol     HW 7505   0.506   1.552   4.173  1.0732  0.8705  1.0756
 1137Sol     MW 7506   0.482   1.630   4.136  0.5955 -0.5589 -0.0338
 1138Sol     OW 7507   1.169   1.010   3.228 -0.0384  0.3995  0.3646
 1138Sol     HW 7508   1.185   0.931   3.279 -0.2496  0.4167  0.4578
 1138Sol     HW 7509   1.083   1.041   3.258 -0.9995 -0.5994 -1.2966
 1138Sol     MW 7510   1.163   1.006   3.235  0.0384 -0.1531 -0.3232
 1139Sol     OW 7511   2.768   2.460  10.143 -0.4303  0.1004  0.0415
 1139Sol     HW 7512   2.694   2.493  10.093 -0.2394  0.2879 -0.1179
 1139Sol     HW 7513   2.734   2.383  10.190 -1.6487  2.0845  2.5702
 1139Sol     MW 7514   2.758   2.456  10.143  0.2139  0.3915 -0.5844
 1140Sol     OW 7515   0.174   3.214   8.561  0.3468 -0.3143  0.0441
 1140Sol     HW 7516   0.138   3.242   8.477  1.1563  0.8438  0.0842
 1140Sol     HW 7517   0.199   3.295   8.605 -1.2445 -0.8134  1.9414
 1140Sol     MW 7518   0.173   3.224   8.557 -0.1214 -0.0168  0.1864
 1141Sol     OW 7519   1.515   0.101   4.069  0.2077  0.8567 -0.2989
 1141Sol     HW 7520   1.497   0.007   4.071  0.3635  0.8342  0.0231
 1141Sol     HW 7521   1.492   0.127   3.980  2.4150  0.0664 -1.1252
 1141Sol     MW 7522   1.511   0.095   4.061 -0.1995  0.3227 -0.4795
 1142Sol     OW 7523   2.505   2.649   5.882 -0.1717 -0.3520 -0.5610
 1142Sol     HW 7524   2.443   2.585   5.847 -1.4778  1.0017 -0.7777
 1142Sol     HW 7525   2.575   2.653   5.817 -1.0918 -0.0680 -1.5417
 1142Sol     MW 7526   2.505   2.644   5.873 -0.3755  0.1457  0.1806
 1143Sol     OW 7527   3.070   3.306   6.202  0.4420  0.6672 -0.3670
 1143Sol     HW 7528   3.042   3.241   6.267  0.3516 -0.6486 -1.7052
 1143Sol     HW 7529   3.156   3.335   6.233  0.2847  0.2464  0.4722
 1143Sol     MW 7530   3.075   3.303   6.211 -0.1927  0.2516 -0.1844
 1144Sol     OW 7531   1.829   0.543   8.146 -0.1601  0.6923 -0.5987
 1144Sol     HW 7532   1.826   0.600   8.069 -0.2814  0.9116 -0.4327
 1144Sol     HW 7533   1.871   0.463   8.115 -2.8369 -0.3666 -1.6252
 1144Sol     MW 7534   1.833   0.541   8.136 -0.5437  0.5433  0.0745
 1145Sol     OW 7535   1.577   0.311   6.468  0.0383  0.1337  0.9276
 1145Sol     HW 7536   1.598   0.303   6.561 -2.6231  1.2225  1.6817
 1145Sol     HW 7537   1.529   0.231   6.446  1.4130 -0.5227  0.2408
 1145Sol     MW 7538   1.575   0.303   6.474  0.7035 -0.5356 -0.0149
 1146Sol     OW 7539   0.838   0.557   5.153  0.4651 -0.1568  0.1795
 1146Sol     HW 7540   0.788   0.475   5.161 -0.8119  0.7561  1.7935
 1146Sol     HW 7541   0.852   0.585   5.243  0.4637  1.6554 -0.3710
 1146Sol     MW 7542   0.834   0.552   5.162  0.1270  0.1114  0.2875
 1147Sol     OW 7543   2.250   1.058   6.964 -0.0792  0.4029 -0.3728
 1147Sol     HW 7544   2.278   1.111   7.039 -0.4832 -1.0847  0.8498
 1147Sol     HW 7545   2.204   1.120   6.908 -1.2699  1.2133  1.4280
 1147Sol     MW 7546   2.249   1.069   6.966 -0.0073  0.2562  0.3368
 1148Sol     OW 7547   0.019   1.794   6.766  0.1616 -0.2729  0.8936
 1148Sol     HW 7548  -0.062   1.757   6.801 -0.2662  0.3707  0.5839
 1148Sol     HW 7549   0.014   1.887   6.787  0.8003 -0.2231  0.8323
 1148Sol     MW 7550   0.011   1.799   6.771  0.0267 -0.1878 -0.3154
 1149Sol     OW 7551   0.135   0.791   2.470 -0.0191  0.6063 -0.4816
 1149Sol     HW 7552   0.053   0.741   2.465 -0.0985  0.8732 -2.0007
 1149Sol     HW 7553   0.121   0.866   2.413  1.1100  0.9263 -0.3412
 1149Sol     MW 7554   0.126   0.793   2.465 -0.3761  0.2270 -0.8192
 1150Sol     OW 7555   2.277   1.440   5.914 -0.3434  0.2614  0.1363
 1150Sol     HW 7556   2.232   1.389   5.982 -1.6429  1.2301  0.0240
 1150Sol     HW 7557   2.313   1.515   5.960 -2.9080  1.9487 -0.5334
 1150Sol     MW 7558   2.276   1.442   5.924  0.1238  0.1217 -0.0077
 1151Sol     OW 7559   3.214   2.380   9.188 -0.8933 -0.8215 -0.1443
 1151Sol     HW 7560   3.177   2.320   9.252 -1.2423 -1.2178 -0.7115
 1151Sol     HW 7561   3.162   2.459   9.196  0.1382 -0.2600  1.2304
 1151Sol     MW 7562   3.206   2.382   9.194 -0.3698  0.0250  0.4804
 1152Sol     OW 7563   0.858   3.338   6.650  1.0135 -0.0832 -0.2339
 1152Sol     HW 7564   0.799   3.411   6.666  0.4712 -0.6843  0.5510
 1152Sol     HW 7565   0.823   3.295   6.571  1.5514  0.7126 -0.9138
 1152Sol     MW 7566   0.850   3.340   6.644 -0.1781  0.1793  0.5435
 1153Sol     OW 7567   2.234   3.183   6.283  0.6520 -0.5875 -0.4541
 1153Sol     HW 7568   2.287   3.249   6.239  0.3779 -0.7783 -1.0742
 1153Sol     HW 7569   2.294   3.140   6.344  0.9694 -0.1543 -0.4639
 1153Sol     MW 7570   2.244   3.185   6.285  0.1381 -0.2782 -0.2134
 1154Sol     OW 7571   0.146   0.103   6.098  0.4191  0.1459  0.4677
 1154Sol     HW 7572   0.163   0.071   6.009  0.3805  0.0885  0.4812
 1154Sol     HW 7573   0.152   0.025   6.153 -1.2859 -0.1165  0.3026
 1154Sol     MW 7574   0.148   0.093   6.095 -0.5340 -0.0794  0.1165
 1155Sol     OW 7575   1.783   3.112   5.427  0.5642 -0.1092  0.4899
 1155Sol     HW 7576   1.714   3.083   5.367 -0.1343  1.7365  0.3937
 1155Sol     HW 7577   1.853   3.144   5.370  0.8111 -0.3817  0.6327
 1155Sol     MW 7578   1.783   3.112   5.417  0.2506  0.2261  0.1982
 1156Sol     OW 7579   0.327   0.573   6.138  0.3057 -0.4399 -0.9342
 1156Sol     HW 7580   0.233   0.568   6.123  0.4712 -2.0963 -1.5267
 1156Sol     HW 7581   0.336   0.567   6.233 -0.3053  2.2602 -0.6748
 1156Sol     MW 7582   0.320   0.572   6.145  0.4866 -0.0919 -0.1555
 1157Sol     OW 7583   2.910   0.418   2.435  0.1118  0.2754  0.0003
 1157Sol     HW 7584   2.858   0.460   2.503  0.1060 -1.0961  0.8598
 1157Sol     HW 7585   2.958   0.349   2.481  0.1749 -0.6088 -1.3722
 1157Sol     MW 7586   2.910   0.415   2.446 -0.4027 -0.1923 -0.2880
 1158Sol     OW 7587   0.275   1.137   1.954  0.2573  0.1720 -0.1353
 1158Sol     HW 7588   0.196   1.151   2.006  0.6588  1.6553  0.1035
 1158Sol     HW 7589   0.332   1.083   2.008 -0.5808 -0.8805 -0.2986
 1158Sol     MW 7590   0.273   1.134   1.963  0.4069 -0.3522 -1.0036
 1159Sol     OW 7591   0.644   2.452   2.181 -0.0453 -0.3110  0.1536
 1159Sol     HW 7592   0.649   2.535   2.133 -1.0492  0.4156  1.2779
 1159Sol     HW 7593   0.571   2.406   2.139  0.8233 -0.8508 -0.7913
 1159Sol     MW 7594   0.638   2.455   2.173  0.1468 -0.3191 -0.3361
 1160Sol     OW 7595   1.031   1.286   7.109  0.4897 -0.1689 -0.6035
 1160Sol     HW 7596   1.008   1.302   7.017  2.0803 -1.7703 -1.3070
 1160Sol     HW 7597   0.948   1.291   7.156 -0.5267 -0.6602 -2.3138
 1160Sol     MW 7598   1.021   1.288   7.105  0.2187  0.0213 -0.2480
 1161Sol     OW 7599   0.357   1.412  10.094 -0.3827 -0.2687  0.0111
 1161Sol     HW 7600   0.397   1.327  10.110 -2.2065 -1.5356 -1.8341
 1161Sol     HW 7601   0.265   1.400  10.119 -0.8429  0.8917 -1.0411
 1161Sol     MW 7602   0.352   1.404  10.097  0.2167 -0.4349 -0.0416
 1162Sol     OW 7603   2.755   2.124   6.403  0.5193  0.2830  0.1415
 1162Sol     HW 7604   2.793   2.038   6.387 -0.0177  0.2014 -0.7322
 1162Sol     HW 7605   2.750   2.131   6.499  0.1732 -0.8340  0.2140
 1162Sol     MW 7606   2.758   2.117   6.411 -0.3855 -0.4254 -0.1341
 1163Sol     OW 7607   0.056   3.231   9.890  0.3216 -0.1756 -0.1318
 1163Sol     HW 7608   0.144   3.211   9.921 -0.0443 -1.0095  0.4017
 1163Sol     HW 7609   0.055   3.202   9.799  0.4347 -0.6823  0.0247
 1163Sol     MW 7610   0.063   3.227   9.885  0.6587  0.2091  0.4410
 1164Sol     OW 7611   1.514   3.325  10.365 -0.2756  0.1240  0.1746
 1164Sol     HW 7612   1.538   3.388  10.297 -0.3169 -0.4043 -0.3358
 1164Sol     HW 7613   1.452   3.372  10.421 -0.3799  0.5052 -0.2650
 1164Sol     MW 7614   1.510   3.335  10.364  0.8010 -0.3488  0.9471
 1165Sol     OW 7615   0.158   1.575   9.449 -0.0980  0.2402 -0.1947
 1165Sol     HW 7616   0.106   1.602   9.373  0.7470  0.3586 -0.7367
 1165Sol     HW 7617   0.157   1.652   9.506 -0.4784  0.2588 -0.2227
 1165Sol     MW 7618   0.153   1.585   9.447 -0.2985  0.6971  0.0699
 1166Sol     OW 7619   2.157   0.550   2.147  0.2715  0.2965 -0.7344
 1166Sol     HW 7620   2.111   0.621   2.101 -1.4446 -0.5172 -0.3339
 1166Sol     HW 7621   2.239   0.589   2.176 -0.7539  2.1927 -0.3045
 1166Sol     MW 7622   2.160   0.559   2.146 -0.4047 -0.3795 -0.6475
 1167Sol     OW 7623   0.363   0.939   3.590  0.1172  0.6200 -0.5531
 1167Sol     HW 7624   0.430   1.005   3.573 -2.8621  3.9920  0.0746
 1167Sol     HW 7625   0.281   0.981   3.562 -2.0453 -2.3121  1.1251
 1167Sol     MW 7626   0.362   0.949   3.586  0.0764 -0.3461  0.1835
 1168Sol     OW 7627   0.851   1.795   2.513 -0.2149  0.0783  0.2572
 1168Sol     HW 7628   0.831   1.834   2.598  0.0129 -0.8793  0.7578
 1168Sol     HW 7629   0.946   1.803   2.505 -0.2358  0.1659  0.0936
 1168Sol     MW 7630   0.858   1.799   2.520 -0.2052  0.1401  0.2704
 1169Sol     OW 7631   0.593   1.655   6.243  0.0961  0.2074  0.0366
 1169Sol     HW 7632   0.685   1.627   6.245 -0.1666 -0.6731 -0.1995
 1169Sol     HW 7633   0.551   1.604   6.312 -0.5196 -0.4697 -0.8258
 1169Sol     MW 7634   0.598   1.648   6.250 -0.0546 -0.0609 -0.4406
 1170Sol     OW 7635   0.895   0.489   9.806  0.0409 -0.2336  0.1270
 1170Sol     HW 7636   0.987   0.512   9.821 -0.2549 -1.1049  3.5248
 1170Sol     HW 7637   0.850   0.574   9.807  0.4626 -0.0133  1.0832
 1170Sol     MW 7638   0.899   0.499   9.807 -0.3351  0.0252  0.1646
 1171Sol     OW 7639   2.295   3.403   7.811 -0.1252  0.4392 -0.0869
 1171Sol     HW 7640   2.263   3.479   7.764 -2.1453  1.1332  2.3065
 1171Sol     HW 7641   2.390   3.406   7.800 -0.2026  3.0846 -0.3611
 1171Sol     MW 7642   2.301   3.410   7.806 -0.4836  0.0926  0.2602
 1172Sol     OW 7643   2.563   3.010   3.933  0.4104 -0.6450  0.1785
 1172Sol     HW 7644   2.558   3.010   3.837 -3.1859  0.3358  0.2824
 1172Sol     HW 7645   2.602   3.094   3.955  0.1539 -0.3646 -0.4160
 1172Sol     MW 7646   2.566   3.017   3.926  0.1588 -0.1756 -0.2928
 1173Sol     OW 7647   1.483   0.149   3.246 -0.5696 -0.2369  0.5432
 1173Sol     HW 7648   1.454   0.091   3.176 -0.4971 -0.7287  0.9170
 1173Sol     HW 7649   1.560   0.192   3.211 -0.7446 -0.2107  0.1858
 1173Sol     MW 7650   1.487   0.147   3.237  0.1170  0.2326 -0.1098
 1174Sol     OW 7651   2.706   0.920   9.814 -0.4073  0.3403  0.4431
 1174Sol     HW 7652   2.642   0.973   9.767 -0.2520 -0.8141 -1.1195
 1174Sol     HW 7653   2.743   0.862   9.747  1.3148  0.0722  1.5844
 1174Sol     MW 7654   2.704   0.919   9.804 -0.2125  0.0046  0.1995
 1175Sol     OW 7655   2.585   2.871   2.436  0.7591 -0.2045  0.1194
 1175Sol     HW 7656   2.495   2.886   2.410  0.6575 -0.8227  0.1063
 1175Sol     HW 7657   2.579   2.830   2.522  0.9356 -2.2721 -0.8058
 1175Sol     MW 7658   2.577   2.869   2.441  0.1075  0.3385  0.4867
 1176Sol     OW 7659   0.957   0.015   5.769  0.3940  0.0784 -0.1636
 1176Sol     HW 7660   0.927   0.087   5.714  0.5294  0.0143 -0.3216
 1176Sol     HW 7661   1.052   0.022   5.768  0.5455 -1.9198 -2.6356
 1176Sol     MW 7662   0.963   0.022   5.764  0.6092 -0.6392  0.3614
 1177Sol     OW 7663   1.477   2.230  10.317  0.0593  0.7287  0.0801
 1177Sol     HW 7664   1.570   2.213  10.304 -0.2008  0.2976 -1.3423
 1177Sol     HW 7665   1.457   2.302  10.257 -0.8076 -0.0941 -0.6244
 1177Sol     MW 7666   1.484   2.235  10.310 -0.8750 -0.0943  0.7431
 1178Sol     OW 7667   2.859   2.222   7.617  0.4761 -0.1771 -0.0188
 1178Sol     HW 7668   2.898   2.310   7.612  0.4830 -0.1597  0.3324
 1178Sol     HW 7669   2.856   2.203   7.710 -1.8348  0.4751  0.0546
 1178Sol     MW 7670   2.862   2.228   7.625 -0.2433  0.4532  0.4131
 1179Sol     OW 7671   1.992   2.165   2.898 -0.0137 -0.2921 -0.4695
 1179Sol     HW 7672   2.062   2.227   2.918  1.0891 -0.7213 -2.8563
 1179Sol     HW 7673   1.911   2.214   2.916  0.8515 -0.0198  2.9667
 1179Sol     MW 7674   1.991   2.175   2.901  0.6594  0.1314 -0.1991
 1180Sol     OW 7675   1.986   0.526   8.501  0.1317  0.3673  0.2091
 1180Sol     HW 7676   1.897   0.535   8.466 -0.2881 -1.5043  0.7071
 1180Sol     HW 7677   1.980   0.558   8.591 -0.2420 -0.4821  0.4935
 1180Sol     MW 7678   1.977   0.529   8.506  0.0083  0.3044  0.1307
 1181Sol     OW 7679   3.098   1.447   9.885 -0.0729  0.3858 -0.5256
 1181Sol     HW 7680   3.101   1.376   9.820  1.0313  1.3590 -1.5594
 1181Sol     HW 7681   3.184   1.447   9.925 -0.7275 -0.1633  0.9364
 1181Sol     MW 7682   3.106   1.441   9.883  0.0685 -0.0260  0.0136
 1182Sol     OW 7683   2.521   2.087   5.197 -0.1571 -0.0099 -0.4640
 1182Sol     HW 7684   2.443   2.039   5.224 -0.8633  1.2966 -0.1161
 1182Sol     HW 7685   2.593   2.025   5.206 -1.0113 -0.9000  0.2445
 1182Sol     MW 7686   2.520   2.077   5.200  0.2531  0.1637 -0.1845
 1183Sol     OW 7687   3.154   1.127   4.034 -0.0640  0.2884 -0.0833
 1183Sol     HW 7688   3.087   1.065   4.004  0.5398 -0.5874  0.3573
 1183Sol     HW 7689   3.230   1.072   4.054  0.7305  1.2611 -0.4122
 1183Sol     MW 7690   3.155   1.116   4.033  0.1065 -0.1111 -0.5808
 1184Sol     OW 7691   3.159   0.808   5.795  1.0146 -0.2524 -0.0001
 1184Sol     HW 7692   3.227   0.808   5.727  0.7815 -2.6215 -0.2905
 1184Sol     HW 7693   3.091   0.867   5.761  2.1793  0.8237 -0.4840
 1184Sol     MW 7694   3.159   0.813   5.786  0.2196 -0.2484 -0.6302
 1185Sol     OW 7695   3.163   3.156  10.113  0.9244  0.3356  0.2338
 1185Sol     HW 7696   3.215   3.169  10.034  1.3437 -0.4847  0.3713
 1185Sol     HW 7697   3.195   3.074  10.150  1.4251  1.2331  1.8107
 1185Sol     MW 7698   3.170   3.150  10.109 -0.3977 -0.3537  0.5633
 1186Sol     OW 7699   3.174   1.333   8.071  0.1798  0.1900 -0.2641
 1186Sol     HW 7700   3.216   1.257   8.030 -2.2881 -1.0673 -0.5905
 1186Sol     HW 7701   3.126   1.375   7.999 -1.5520 -0.1773  0.6394
 1186Sol     MW 7702   3.173   1.330   8.061  0.3697  0.3488 -0.8427
 1187Sol     OW 7703   0.486   2.724   7.640  0.6912  0.0564  0.0027
 1187Sol     HW 7704   0.422   2.654   7.631 -0.4271  0.9005  1.1769
 1187Sol     HW 7705   0.446   2.785   7.702  1.0843  2.3434 -1.9388
 1187Sol     MW 7706   0.477   2.723   7.645 -0.1575 -0.5902 -0.3029
 1188Sol     OW 7707   0.575   1.023   8.607 -0.3644 -0.4342 -1.0064
 1188Sol     HW 7708   0.558   1.021   8.512  0.7882 -0.7869 -1.2163
 1188Sol     HW 7709   0.548   0.937   8.638 -0.3224 -0.4826 -1.1003
 1188Sol     MW 7710   0.571   1.015   8.601  0.0226  0.0806  0.0430
 1189Sol     OW 7711   1.428   2.059   8.520 -0.3515  0.2186  0.2743
 1189Sol     HW 7712   1.497   2.104   8.471  1.5818 -3.3987 -0.4734
 1189Sol     HW 7713   1.432   2.098   8.607  0.2647  2.4865 -0.7335
 1189Sol     MW 7714   1.434   2.067   8.523 -0.1938  0.1391 -0.2162
 1190Sol     OW 7715   1.603   3.149   6.302  0.1824 -0.6123  0.5284
 1190Sol     HW 7716   1.677   3.135   6.362  0.5914 -0.2889  0.1029
 1190Sol     HW 7717   1.643   3.157   6.216 -0.3753 -0.7059  0.2589
 1190Sol     MW 7718   1.613   3.149   6.300  0.1142 -0.0487  0.0233
 1191Sol     OW 7719   0.266   1.499   4.915  0.0279  0.1919 -0.0078
 1191Sol     HW 7720   0.302   1.530   4.998 -0.6334 -1.9435  1.1121
 1191Sol     HW 7721   0.178   1.537   4.912  0.3402  0.9194 -0.1235
 1191Sol     MW 7722   0.261   1.505   4.922 -0.3060 -0.0855 -0.0845
 1192Sol     OW 7723   0.721   2.277   5.061  0.5288 -0.5467 -0.2295
 1192Sol     HW 7724   0.784   2.316   5.001  0.7165  0.0219  0.3314
 1192Sol     HW 7725   0.639   2.323   5.043  0.4900 -0.6564 -0.3320
 1192Sol     MW 7726   0.719   2.285   5.054  0.1629  0.1088 -0.0787
 1193Sol     OW 7727   2.729   2.254   1.668  0.1175  0.0674 -0.3373
 1193Sol     HW 7728   2.759   2.175   1.623  0.6094  0.0079  0.0985
 1193Sol     HW 7729   2.763   2.327   1.616 -2.0620  0.0089 -1.9120
 1193Sol     MW 7730   2.735   2.254   1.660 -0.0641  0.0618  0.4382
 1194Sol     OW 7731   1.021   0.255   3.038 -0.5803 -0.3682  0.3053
 1194Sol     HW 7732   1.082   0.321   3.071  1.5524 -0.7610 -2.6752
 1194Sol     HW 7733   0.937   0.301   3.033  0.2569  1.2906  0.9002
 1194Sol     MW 7734   1.018   0.265   3.041  0.1695 -0.1586 -0.2080
 1195Sol     OW 7735   0.970   1.475   7.977 -0.5132 -0.2478  0.0650
 1195Sol     HW 7736   0.983   1.382   7.955  1.5307 -0.1666  0.8061
 1195Sol     HW 7737   1.053   1.516   7.955 -0.0927  0.7342  3.1832
 1195Sol     MW 7738   0.979   1.470   7.973 -0.1822 -0.1269 -0.1093
 1196Sol     OW 7739   1.719   0.940   7.597 -0.0114 -0.4284  0.4560
 1196Sol     HW 7740   1.792   0.937   7.535  0.0330 -0.1851  0.4953
 1196Sol     HW 7741   1.646   0.975   7.547 -0.2249 -1.1049  0.2950
 1196Sol     MW 7742   1.719   0.943   7.587  0.5390  0.1705  0.2566
 1197Sol     OW 7743   0.788   0.088   2.652  0.2051  0.2806  0.1058
 1197Sol     HW 7744   0.715   0.067   2.593  0.4544 -0.5147  0.0711
 1197Sol     HW 7745   0.852   0.133   2.596  0.2677 -0.1156 -0.1424
 1197Sol     MW 7746   0.787   0.090   2.642  0.0314  0.3670  0.4826
 1198Sol     OW 7747   1.533   1.506   4.033 -0.2101 -0.0560  0.0565
 1198Sol     HW 7748   1.441   1.485   4.018  0.0264 -1.7387  0.8412
 1198Sol     HW 7749   1.580   1.446   3.975  0.4347 -0.0095  0.5320
 1198Sol     MW 7750   1.529   1.499   4.026  0.0156  0.0150  0.0036
 1199Sol     OW 7751   1.152   3.155   5.928 -0.1116 -0.3620  0.7099
 1199Sol     HW 7752   1.119   3.142   5.839 -1.0655 -0.3277  1.0571
 1199Sol     HW 7753   1.187   3.244   5.928 -1.5089  0.2003  0.7972
 1199Sol     MW 7754   1.152   3.162   5.920  0.1045  0.4274 -0.5512
 1200Sol     OW 7755   0.545   3.188   3.312  0.0632 -0.0390  0.2822
 1200Sol     HW 7756   0.487   3.264   3.311  0.4046  0.2434  1.1595
 1200Sol     HW 7757   0.633   3.225   3.321  0.2229 -0.5354  0.7951
 1200Sol     MW 7758   0.548   3.198   3.313 -0.0069 -0.0795  0.0173
 1201Sol     OW 7759   2.851   0.318   3.327  0.0668  0.1801 -0.0884
 1201Sol     HW 7760   2.907   0.316   3.250 -0.3068  1.6036 -0.4095
 1201Sol     HW 7761   2.777   0.263   3.305 -0.1927  0.8363 -0.8715
 1201Sol     MW 7762   2.850   0.313   3.319 -0.0017  0.4384 -0.0211
 1202Sol     OW 7763   1.282   3.198   7.720 -0.2207  0.0246  0.0037
 1202Sol     HW 7764   1.201   3.249   7.722 -0.7213 -0.6429 -1.8144
 1202Sol     HW 7765   1.252   3.107   7.715  0.6410 -0.2705  0.1809
 1202Sol     MW 7766   1.272   3.194   7.720  0.1841  0.1760  0.3304
 1203Sol     OW 7767   2.974   1.981   3.014 -0.6566  0.5252  0.0186
 1203Sol     HW 7768   3.067   1.976   2.994 -0.4493  3.2373  0.0641
 1203Sol     HW 7769   2.970   1.979   3.110 -0.7967 -1.3002 -0.0118
 1203Sol     MW 7770   2.982   1.981   3.021  0.0310  0.3704  0.3648
 1204Sol     OW 7771   2.028   2.335   3.582  0.2417 -0.8450 -0.4426
 1204Sol     HW 7772   2.123   2.336   3.585  0.2653 -1.6271 -0.7951
 1204Sol     HW 7773   2.004   2.418   3.541  0.7826 -0.7894 -0.6424
 1204Sol     MW 7774   2.034   2.343   3.579 -0.3644  0.0916  0.2055
 1205Sol     OW 7775   2.729   1.371   9.162  0.3547  0.4459  0.1012
 1205Sol     HW 7776   2.671   1.310   9.117 -0.7734 -0.9669  3.3548
 1205Sol     HW 7777   2.806   1.377   9.105 -1.5666 -0.1784 -2.6495
 1205Sol     MW 7778   2.731   1.366   9.153 -0.0507  0.2072  0.1885
 1206Sol     OW 7779   0.227   3.304   7.701 -0.5739 -0.0017 -0.2411
 1206Sol     HW 7780   0.322   3.301   7.713 -0.6364 -1.4797  0.0148
 1206Sol     HW 7781   0.216   3.301   7.606 -0.3905 -1.8101 -0.2309
 1206Sol     MW 7782   0.235   3.303   7.693  0.3983 -0.0178  0.6158
 1207Sol     OW 7783   0.127   2.039   4.743 -0.0207  0.0765 -0.0516
 1207Sol     HW 7784   0.115   2.127   4.780 -0.9390 -1.0498  2.4917
 1207Sol     HW 7785   0.040   2.011   4.718  0.2488 -0.1674 -0.7192
 1207Sol     MW 7786   0.118   2.045   4.744  0.7335 -0.3891  0.3838
 1208Sol     OW 7787   0.690   2.116   8.097 -0.3596 -0.0715  0.2921
 1208Sol     HW 7788   0.745   2.118   8.175 -0.3915  1.0796  0.2961
 1208Sol     HW 7789   0.624   2.049   8.116 -1.5839  1.5635  2.0995
 1208Sol     MW 7790   0.689   2.111   8.106 -0.3672 -0.0947 -0.0955
 1209Sol     OW 7791   3.232   2.338   6.251 -0.4011  0.2460 -0.6219
 1209Sol     HW 7792   3.185   2.347   6.169 -1.2442  1.3950 -0.0199
 1209Sol     HW 7793   3.294   2.411   6.252  0.7855 -0.7304 -0.9927
 1209Sol     MW 7794   3.233   2.345   6.244 -0.2841 -0.1537  0.5812
 1210Sol     OW 7795   1.189   3.091   8.598 -0.3188 -0.5867  0.3380
 1210Sol     HW 7796   1.105   3.133   8.578 -0.9595 -1.1429  1.8295
 1210Sol     HW 7797   1.249   3.127   8.532 -1.7528 -0.3148 -0.8677
 1210Sol     MW 7798   1.187   3.098   8.590 -0.5553  0.1127 -0.5900
 1211Sol     OW 7799   3.237   2.090   6.662 -0.2245  0.1584  0.1965
 1211Sol     HW 7800   3.219   2.178   6.627 -1.1879 -0.0900  0.0460
 1211Sol     HW 7801   3.295   2.105   6.736  1.6782  0.7299 -1.3445
 1211Sol     MW 7802   3.240   2.100   6.665  0.3429  0.3364  0.6678
 1212Sol     OW 7803   2.257   1.523   2.390 -0.2461 -0.7304  0.0300
 1212Sol     HW 7804   2.300   1.514   2.305 -0.3891 -0.6282 -0.0518
 1212Sol     HW 7805   2.324   1.496   2.453 -0.5426 -2.0114 -0.1905
 1212Sol     MW 7806   2.267   1.520   2.388 -0.5097 -0.4814 -0.0131
 1213Sol     OW 7807   1.694   2.712   6.540 -0.0831 -0.1930 -0.6715
 1213Sol     HW 7808   1.619   2.662   6.508 -0.4298  0.6038 -1.1051
 1213Sol     HW 7809   1.657   2.769   6.608 -0.1381  1.2267 -1.8804
 1213Sol     MW 7810   1.684   2.712   6.544 -0.2534 -0.1467  0.2689
 1214Sol     OW 7811   1.259   2.054   2.705 -0.2369  0.0423  0.0537
 1214Sol     HW 7812   1.190   2.009   2.754 -0.4582  0.1929 -0.1181
 1214Sol     HW 7813   1.335   1.996   2.711 -0.4042 -0.1642  0.1688
 1214Sol     MW 7814   1.259   2.045   2.710  0.4070 -0.1099 -0.0169
 1215Sol     OW 7815   2.788   2.427   5.153  0.2108 -0.0747  0.1491
 1215Sol     HW 7816   2.874   2.398   5.184  0.0297  0.5539  1.2840
 1215Sol     HW 7817   2.726   2.384   5.212 -0.3053 -1.1328 -1.1381
 1215Sol     MW 7818   2.790   2.421   5.161  0.0450  0.2021 -0.0236
 1216Sol     OW 7819   1.158   1.164   6.723  0.0233 -0.4638 -0.2856
 1216Sol     HW 7820   1.099   1.207   6.784  0.1305  0.4643 -0.8263
 1216Sol     HW 7821   1.188   1.086   6.770  0.4347  0.4534  1.0173
 1216Sol     MW 7822   1.156   1.161   6.733 -0.1160  0.7541 -0.2241
 1217Sol     OW 7823   0.406   0.298   8.021  0.4563 -0.1453 -0.1733
 1217Sol     HW 7824   0.463   0.222   8.032  0.0412 -0.4874 -0.3537
 1217Sol     HW 7825   0.430   0.333   7.935  0.7887  0.0503 -0.0036
 1217Sol     MW 7826   0.414   0.294   8.014 -0.2053  0.0463 -0.0542
 1218Sol     OW 7827   2.393   1.587   3.817 -0.6086  0.0953 -0.8145
 1218Sol     HW 7828   2.445   1.633   3.752 -1.6163  2.0993 -0.2446
 1218Sol     HW 7829   2.351   1.516   3.768  0.7036 -0.0493 -1.7680
 1218Sol     MW 7830   2.394   1.585   3.807 -0.1045 -0.0786  0.2039
 1219Sol     OW 7831   0.853   2.045   4.514  0.2613  0.0650 -0.2283
 1219Sol     HW 7832   0.869   2.136   4.537  2.5493 -0.1778 -0.7513
 1219Sol     HW 7833   0.927   1.997   4.553  0.2440 -1.2806 -1.7703
 1219Sol     MW 7834   0.861   2.049   4.520 -0.0559 -0.0496 -0.2445
 1220Sol     OW 7835   1.129   2.980   7.622  0.4114  0.0966 -0.1557
 1220Sol     HW 7836   1.063   2.987   7.552  0.4971 -0.0128 -0.2484
 1220Sol     HW 7837   1.158   2.889   7.617  0.5979  0.1564 -0.1392
 1220Sol     MW 7838   1.125   2.972   7.615  0.3287 -0.3370  0.1759
 1221Sol     OW 7839   0.231   1.621   6.193 -0.2535 -0.0747  0.4088
 1221Sol     HW 7840   0.162   1.555   6.195  1.5590 -2.0673 -0.8930
 1221Sol     HW 7841   0.295   1.587   6.131  1.4667  2.1875  0.8770
 1221Sol     MW 7842   0.230   1.612   6.187 -0.5746 -0.1576  0.8469
 1222Sol     OW 7843   1.422   0.475   9.738  0.0721  0.5221  0.2727
 1222Sol     HW 7844   1.495   0.535   9.726  0.0540  0.3340 -0.8301
 1222Sol     HW 7845   1.462   0.391   9.759  0.1413  0.6152  0.5116
 1222Sol     MW 7846   1.432   0.473   9.739 -0.5187  0.2076 -0.1173
 1223Sol     OW 7847   0.583   3.073   8.048  0.3371  0.0344  0.1509
 1223Sol     HW 7848   0.598   2.996   7.993  0.2826  1.7387 -2.3156
 1223Sol     HW 7849   0.580   3.038   8.137  0.2959 -2.8150 -0.9107
 1223Sol     MW 7850   0.584   3.063   8.051 -0.0937 -0.1502  0.1873
 1224Sol     OW 7851   2.044   0.938   9.152 -0.6587  0.1143 -0.4160
 1224Sol     HW 7852   1.996   0.878   9.209 -0.5491  2.2551  2.0586
 1224Sol     HW 7853   2.114   0.972   9.208  0.8876  0.5667 -2.5652
 1224Sol     MW 7854   2.046   0.936   9.162  0.5199 -0.7066  0.1706
 1225Sol     OW 7855   0.329   2.963   2.051 -0.5256 -0.6848  0.4099
 1225Sol     HW 7856   0.237   2.988   2.059 -0.4442 -0.5054  0.8037
 1225Sol     HW 7857   0.349   2.920   2.134 -0.2664 -0.7594  0.3071
 1225Sol     MW 7858   0.322   2.961   2.059  0.4095  0.0711 -0.5718
 1226Sol     OW 7859   2.197   0.588   9.917 -0.3146  0.6291 -0.2788
 1226Sol     HW 7860   2.291   0.605   9.926 -0.2755  0.5821 -0.6041
 1226Sol     HW 7861   2.171   0.554  10.002  0.5105 -1.9777 -1.0274
 1226Sol     MW 7862   2.203   0.586   9.926  0.4288  0.4845 -0.3050
 1227Sol     OW 7863   2.204   1.800   2.458  0.0156 -0.0978 -0.4643
 1227Sol     HW 7864   2.219   1.814   2.551 -1.1197 -0.1172 -0.2813
 1227Sol     HW 7865   2.201   1.705   2.448 -2.6062 -0.0855 -0.0743
 1227Sol     MW 7866   2.205   1.792   2.465 -0.1210  0.0155  0.8261
 1228Sol     OW 7867   2.615   0.315   8.360 -0.1605  0.1018 -0.1922
 1228Sol     HW 7868   2.584   0.373   8.429 -1.0157 -0.4383 -0.1113
 1228Sol     HW 7869   2.709   0.331   8.355 -0.0336 -0.0948  1.3334
 1228Sol     MW 7870   2.621   0.321   8.366 -0.1777  0.3955 -0.3184
 1229Sol     OW 7871   2.199   1.920   6.201 -0.1145 -0.2206  0.4040
 1229Sol     HW 7872   2.189   1.984   6.130 -0.8941  0.5431  1.1944
 1229Sol     HW 7873   2.134   1.853   6.182  1.1638 -1.1516 -0.8047
 1229Sol     MW 7874   2.192   1.920   6.193 -0.3619 -0.4149  0.0233
 1230Sol     OW 7875   2.957   1.489   2.276  0.1037  0.0936 -0.3349
 1230Sol     HW 7876   2.883   1.435   2.306  0.1979 -0.2291 -0.6728
 1230Sol     HW 7877   2.935   1.511   2.185 -0.0852  0.8949 -0.0967
 1230Sol     MW 7878   2.948   1.486   2.270 -0.4423 -0.5628 -0.2393
 1231Sol     OW 7879   2.859   1.884   6.396  0.2432  0.0645  0.2015
 1231Sol     HW 7880   2.841   1.796   6.431 -0.5077  0.2095  0.1908
 1231Sol     HW 7881   2.932   1.916   6.449  2.5878 -1.7572 -1.8005
 1231Sol     MW 7882   2.864   1.879   6.404  0.2408 -0.0547 -0.2211
 1232Sol     OW 7883   0.460   2.785   8.363 -0.7492 -0.3861  0.0086
 1232Sol     HW 7884   0.491   2.720   8.300 -2.3705 -0.4541 -0.7625
 1232Sol     HW 7885   0.365   2.771   8.366 -0.7321 -0.1693  2.2437
 1232Sol     MW 7886   0.454   2.778   8.357  0.6332 -0.1929  0.1081
 1233Sol     OW 7887   2.735   1.909   6.164  0.2153  0.1281  0.4054
 1233Sol     HW 7888   2.783   1.886   6.244 -1.3423 -2.8786  0.5466
 1233Sol     HW 7889   2.643   1.910   6.191 -0.1876  0.8845 -0.9491
 1233Sol     MW 7890   2.731   1.907   6.174 -0.2570 -0.3956 -0.0038
 1234Sol     OW 7891   2.488   3.075   8.169 -0.4510  0.0394  0.2657
 1234Sol     HW 7892   2.535   3.157   8.184 -0.8384  0.1294  1.0534
 1234Sol     HW 7893   2.554   3.014   8.138  0.2113  0.1322  1.4608
 1234Sol     MW 7894   2.498   3.077   8.168 -0.8017 -0.2896 -0.2391
 1235Sol     OW 7895   2.122   3.076   9.781 -0.2547  0.0203  0.0514
 1235Sol     HW 7896   2.181   3.060   9.707 -0.5809 -0.6056 -0.0723
 1235Sol     HW 7897   2.111   3.171   9.782 -0.2271  0.0382 -0.6879
 1235Sol     MW 7898   2.127   3.083   9.774 -0.1749 -0.1892  0.1820
 1236Sol     OW 7899   1.390   3.289   6.794 -0.4660  0.1479 -0.2440
 1236Sol     HW 7900   1.329   3.362   6.781 -0.0930  0.6440  0.7308
 1236Sol     HW 7901   1.333   3.215   6.816 -0.8903 -0.0266 -1.8561
 1236Sol     MW 7902   1.379   3.289   6.795 -0.1442 -0.6081  0.2501
 1237Sol     OW 7903   3.017   0.349   3.045  0.3647 -0.1739  0.3922
 1237Sol     HW 7904   3.077   0.325   3.116 -1.8473 -1.4130  1.8903
 1237Sol     HW 7905   3.044   0.294   2.972  1.3216 -0.4023  0.8992
 1237Sol     MW 7906   3.025   0.342   3.045  0.1897 -0.1905 -0.1776
 1238Sol     OW 7907   1.389   0.354   5.318 -0.1542  0.5629  0.0225
 1238Sol     HW 7908   1.302   0.321   5.298  1.0235 -2.1283 -0.8912
 1238Sol     HW 7909   1.419   0.302   5.393  0.8265  1.1469  0.0554
 1238Sol     MW 7910   1.384   0.347   5.323  0.4828 -0.4456  0.6364
 1239Sol     OW 7911   3.134   0.375   5.228  0.0830 -0.3795  0.3355
 1239Sol     HW 7912   3.184   0.313   5.175 -0.8695 -0.5866 -0.3395
 1239Sol     HW 7913   3.170   0.367   5.316  1.0488 -0.7219 -0.0880
 1239Sol     MW 7914   3.142   0.369   5.231  0.0657 -0.1683  0.2220
 1240Sol     OW 7915   0.202   3.274   4.926  1.3931  0.0048  0.3616
 1240Sol     HW 7916   0.146   3.260   5.003  2.2360  0.3795  1.0429
 1240Sol     HW 7917   0.148   3.245   4.852  0.3926  0.1059  1.0420
 1240Sol     MW 7918   0.192   3.271   4.926 -0.1968 -0.2275  0.0751
 1241Sol     OW 7919   2.660   0.873   2.591 -0.3831  0.0536  0.3730
 1241Sol     HW 7920   2.644   0.796   2.646 -2.1538  0.6465  0.7289
 1241Sol     HW 7921   2.742   0.909   2.623 -0.8142 -0.2568  1.8771
 1241Sol     MW 7922   2.666   0.869   2.599  0.0693  0.2123  0.1262
 1242Sol     OW 7923   2.306   2.735   8.565 -0.1459  0.3174  0.5730
 1242Sol     HW 7924   2.309   2.655   8.617 -0.2092 -0.8051 -1.1176
 1242Sol     HW 7925   2.251   2.713   8.490  2.4186  0.9081 -1.5646
 1242Sol     MW 7926   2.301   2.726   8.563  0.1786  0.3061 -0.0105
 1243Sol     OW 7927   0.078   2.904   7.069 -0.2094  0.5088 -0.0788
 1243Sol     HW 7928   0.095   2.810   7.066 -3.5282 -0.1274 -1.7811
 1243Sol     HW 7929   0.157   2.944   7.033  1.1630 -1.6349  0.4733
 1243Sol     MW 7930   0.087   2.900   7.065  0.2304  0.3518 -0.1474
 1244Sol     OW 7931   0.156   2.585   2.485 -0.2364 -0.0569  0.0216
 1244Sol     HW 7932   0.210   2.633   2.548 -0.6199 -0.9564  1.0302
 1244Sol     HW 7933   0.114   2.654   2.433  0.6491  0.6722  0.2618
 1244Sol     MW 7934   0.157   2.596   2.486 -0.8235 -0.1562 -0.1613
 1245Sol     OW 7935   2.443   1.107   6.730 -0.3880  0.5224 -0.0342
 1245Sol     HW 7936   2.516   1.110   6.667 -0.2818 -1.1887 -0.0033
 1245Sol     HW 7937   2.452   1.188   6.781  1.5971  0.2433  0.0865
 1245Sol     MW 7938   2.450   1.115   6.729  0.0581 -0.0904  0.3394
 1246Sol     OW 7939   1.298   1.056   2.705  0.3202  0.8903  0.7289
 1246Sol     HW 7940   1.284   0.962   2.705  2.0434  0.5991 -0.8031
 1246Sol     HW 7941   1.271   1.085   2.792 -4.1405 -0.3753 -0.1008
 1246Sol     MW 7942   1.295   1.051   2.713 -0.3672  0.4388  0.2058
 1247Sol     OW 7943   3.115   2.152   9.695 -0.0633 -0.1010  0.3066
 1247Sol     HW 7944   3.131   2.059   9.681  0.0862 -0.0157 -0.1042
 1247Sol     HW 7945   3.094   2.159   9.788  0.7180 -0.4284  0.5112
 1247Sol     MW 7946   3.114   2.144   9.702  0.2287  0.0896  0.0576
 1248Sol     OW 7947   2.804   0.346   6.590  0.1767  0.3104 -0.0928
 1248Sol     HW 7948   2.791   0.380   6.502  2.1914 -2.3635 -1.4742
 1248Sol     HW 7949   2.890   0.304   6.588 -1.1104 -2.6121  2.2014
 1248Sol     MW 7950   2.810   0.346   6.582 -0.1030 -0.4513  0.2769
 1249Sol     OW 7951   0.168   2.818   3.229 -0.2859  0.1942  0.1307
 1249Sol     HW 7952   0.250   2.854   3.264 -0.5847  0.3591  0.6790
 1249Sol     HW 7953   0.106   2.891   3.233 -0.2313  0.3130 -1.0994
 1249Sol     MW 7954   0.170   2.828   3.233 -0.1829  0.9210 -0.0469
 1250Sol     OW 7955   1.969   0.075   7.522  0.2224 -0.4118  0.1008
 1250Sol     HW 7956   1.963   0.004   7.458 -0.5484  0.4142 -0.7537
 1250Sol     HW 7957   2.046   0.125   7.495  0.3536 -0.5061  0.2924
 1250Sol     MW 7958   1.975   0.073   7.514 -0.0138  0.6722 -0.5900
 1251Sol     OW 7959   0.875   0.275   6.133  0.3583  0.9544  0.0646
 1251Sol     HW 7960   0.892   0.356   6.085 -0.6471  0.8812 -0.4278
 1251Sol     HW 7961   0.785   0.285   6.164 -0.1472 -0.4396 -0.9187
 1251Sol     MW 7962   0.869   0.283   6.132 -0.8249 -0.0581 -0.1693
 1252Sol     OW 7963   1.832   0.219   9.292 -0.0370  0.1917  0.4264
 1252Sol     HW 7964   1.794   0.131   9.287 -0.2625  0.3605 -1.0420
 1252Sol     HW 7965   1.925   0.207   9.272 -0.2373  0.3935 -0.6607
 1252Sol     MW 7966   1.837   0.210   9.289 -0.3395 -0.6535 -0.3346
 1253Sol     OW 7967   0.093   2.660   9.327  0.4167 -0.0422  0.2071
 1253Sol     HW 7968   0.026   2.611   9.375  0.5417 -2.6030 -2.1009
 1253Sol     HW 7969   0.150   2.592   9.291  1.8518  1.9306 -1.2979
 1253Sol     MW 7970   0.092   2.649   9.328  0.4674  0.0092  0.1078
 1254Sol     OW 7971   0.263   2.442   9.205 -0.2570 -0.5738 -0.2670
 1254Sol     HW 7972   0.327   2.476   9.142 -0.6431  2.8987  1.1603
 1254Sol     HW 7973   0.184   2.429   9.153 -0.7726  2.8799 -0.4599
 1254Sol     MW 7974   0.262   2.443   9.195 -0.4994  0.0147  0.0824
 1255Sol     OW 7975   0.910   0.899   5.067  0.0140 -0.3985  0.0954
 1255Sol     HW 7976   0.948   0.812   5.050  0.7923  0.1639 -1.1269
 1255Sol     HW 7977   0.966   0.959   5.018  0.1901  0.9347  1.8832
 1255Sol     MW 7978   0.919   0.896   5.061  0.1903 -0.0496 -0.0844
 1256Sol     OW 7979   1.862   3.128   6.691 -0.1632 -0.2152 -0.2282
 1256Sol     HW 7980   1.933   3.155   6.749  1.4705  0.0846 -2.3065
 1256Sol     HW 7981   1.790   3.189   6.711  0.6104  0.3355  0.9316
 1256Sol     MW 7982   1.862   3.136   6.698  0.3827 -0.2516  0.6332
 1257Sol     OW 7983   0.657   0.580   3.914  0.4146  0.4483 -0.8629
 1257Sol     HW 7984   0.619   0.569   4.001 -0.9333  1.8657 -1.2408
 1257Sol     HW 7985   0.612   0.515   3.860 -0.6882  1.3341 -1.0492
 1257Sol     MW 7986   0.649   0.573   3.917 -0.0747  0.2090 -0.2157
 1258Sol     OW 7987   2.592   2.998   9.713  0.2862  0.3117 -0.1427
 1258Sol     HW 7988   2.530   2.989   9.640  1.2785  1.8205 -1.2053
 1258Sol     HW 7989   2.541   3.042   9.781 -0.5899 -0.9160  0.0220
 1258Sol     MW 7990   2.582   3.001   9.712 -0.0016  0.2129  0.4626
 1259Sol     OW 7991   0.435   2.615   4.739 -0.1508  0.2741  0.0013
 1259Sol     HW 7992   0.416   2.531   4.781  0.0679  0.1656 -0.1132
 1259Sol     HW 7993   0.434   2.595   4.645  3.6333 -0.4371  0.0280
 1259Sol     MW 7994   0.433   2.606   4.734  0.4424 -0.0677  0.4848
 1260Sol     OW 7995   0.351   1.508   8.376 -0.3806  0.2177  0.2352
 1260Sol     HW 7996   0.317   1.473   8.458  0.5850 -0.5947  0.2992
 1260Sol     HW 7997   0.442   1.478   8.373 -0.5891 -0.3000 -1.4162
 1260Sol     MW 7998   0.356   1.502   8.383  0.0274  0.1157 -0.9034
 1261Sol     OW 7999   1.218   2.586   5.991 -0.5226  0.2562  0.3982
 1261Sol     HW 8000   1.152   2.603   5.923 -0.5146 -0.6823  0.1412
 1261Sol     HW 8001   1.190   2.640   6.065 -0.4320  1.4308 -0.4077
 1261Sol     MW 8002   1.209   2.592   5.992 -0.1914  0.6116  0.3903
 1262Sol     OW 8003   2.966   0.037   3.619  0.5767 -0.4712 -0.2160
 1262Sol     HW 8004   3.029   0.033   3.691  1.2049  1.6393 -0.6324
 1262Sol     HW 8005   2.888  -0.005   3.654  0.6879  1.0451  1.9246
 1262Sol     MW 8006   2.965   0.033   3.629  0.0847  0.5227  0.0414
 1263Sol     OW 8007   0.700   0.902   3.241  0.4653 -0.1323 -0.1979
 1263Sol     HW 8008   0.672   0.829   3.297  1.2268  0.4342  0.9364
 1263Sol     HW 8009   0.619   0.939   3.208 -0.1161  0.8307  2.1973
 1263Sol     MW 8010   0.690   0.898   3.243  0.1501 -0.0768  0.1952
 1264Sol     OW 8011   2.527   1.314   3.565  1.0692  0.0097  0.5143
 1264Sol     HW 8012   2.461   1.270   3.619 -0.9560  2.4953  0.1933
 1264Sol     HW 8013   2.525   1.268   3.481 -0.0860 -0.0992  0.5925
 1264Sol     MW 8014   2.521   1.306   3.563 -0.2462  0.0606  0.3222
 1265Sol     OW 8015   1.744   2.191   7.933 -0.2579  0.0593 -0.6651
 1265Sol     HW 8016   1.738   2.132   8.008 -1.3716  0.4407 -0.4374
 1265Sol     HW 8017   1.819   2.159   7.883  0.8126  0.1050  0.8770
 1265Sol     MW 8018   1.750   2.183   7.935  0.4340 -0.0183 -0.0930
 1266Sol     OW 8019   0.347   0.818   8.493  0.1307 -0.1417  0.2123
 1266Sol     HW 8020   0.324   0.753   8.427  0.6755 -0.3320  0.2065
 1266Sol     HW 8021   0.405   0.879   8.447  0.2057 -0.0617  0.4122
 1266Sol     MW 8022   0.350   0.818   8.483 -0.1289 -0.7667  0.1331
 1267Sol     OW 8023   1.350   0.558   8.571  0.6528  0.3614  0.2342
 1267Sol     HW 8024   1.404   0.637   8.562 -0.5193  1.2437  0.8536
 1267Sol     HW 8025   1.362   0.530   8.662 -1.0388  1.3939  0.7981
 1267Sol     MW 8026   1.356   0.563   8.578  0.6749 -0.3792  0.2845
 1268Sol     OW 8027   1.382   1.741   4.277  0.3322  0.0718  0.5430
 1268Sol     HW 8028   1.400   1.816   4.333  2.3712 -0.5247  0.7558
 1268Sol     HW 8029   1.458   1.683   4.290 -0.2642 -1.1190 -1.0838
 1268Sol     MW 8030   1.391   1.742   4.283 -0.6203  0.2719  0.3016
 1269Sol     OW 8031   2.031   2.695   9.320  0.5341 -0.7139  0.4184
 1269Sol     HW 8032   1.936   2.702   9.311  0.2765 -2.1594  1.8593
 1269Sol     HW 8033   2.057   2.628   9.257  0.3706 -1.5699  1.2565
 1269Sol     MW 8034   2.025   2.690   9.314  0.0610 -0.0984  0.5081
 1270Sol     OW 8035   0.735   0.308   6.493 -0.0164 -0.1198 -0.0439
 1270Sol     HW 8036   0.751   0.376   6.558  0.0014 -1.1730  1.0772
 1270Sol     HW 8037   0.698   0.354   6.418 -0.7384  1.0113  0.9954
 1270Sol     MW 8038   0.733   0.318   6.492  0.4902 -0.0353 -0.5054
 1271Sol     OW 8039   0.618   0.172   6.675 -0.0158 -0.1336  0.0183
 1271Sol     HW 8040   0.658   0.208   6.597 -0.1716 -4.0647 -2.0166
 1271Sol     HW 8041   0.671   0.205   6.747  1.1669  2.1703 -1.8584
 1271Sol     MW 8042   0.626   0.178   6.675 -0.1072  0.6019  0.0465
 1272Sol     OW 8043   2.490   0.689   6.356  0.3278  0.7137 -0.0670
 1272Sol     HW 8044   2.582   0.704   6.378 -0.1229  1.9310  1.0706
 1272Sol     HW 8045   2.466   0.763   6.300  0.2213  0.0409 -0.9177
 1272Sol     MW 8046   2.496   0.697   6.353  0.4232  0.5011 -0.2775
 1273Sol     OW 8047   3.144   2.517   2.652  0.3970 -0.0328 -0.0455
 1273Sol     HW 8048   3.222   2.552   2.610 -0.1098  0.4141 -0.6207
 1273Sol     HW 8049   3.083   2.590   2.655 -1.6200 -1.4472 -3.5262
 1273Sol     MW 8050   3.145   2.526   2.649 -0.4360 -0.0678 -0.1602
 1274Sol     OW 8051   1.896   0.066   8.009  0.1179 -0.2548  0.0794
 1274Sol     HW 8052   1.985   0.033   8.021  0.2229  0.3560  1.0619
 1274Sol     HW 8053   1.878   0.054   7.916  0.0380 -3.3542  0.4226
 1274Sol     MW 8054   1.902   0.062   8.002  0.1716 -0.1484  0.2134
 1275Sol     OW 8055   0.751   2.507   4.082  0.1229 -1.0120  0.9947
 1275Sol     HW 8056   0.790   2.421   4.098  0.1944 -1.8384 -3.1989
 1275Sol     HW 8057   0.803   2.545   4.012 -2.8651  0.4214 -0.5596
 1275Sol     MW 8058   0.759   2.503   4.077  0.1179 -0.3184 -0.8028
 1276Sol     OW 8059   1.789   2.514   5.081  0.1950 -0.3353  0.1344
 1276Sol     HW 8060   1.733   2.521   5.003  0.5474 -1.1580 -0.1936
 1276Sol     HW 8061   1.744   2.567   5.147 -0.9830 -1.0043 -0.1221
 1276Sol     MW 8062   1.780   2.519   5.080 -0.2898 -0.1834 -0.3516
 1277Sol     OW 8063   2.960   1.143   8.979 -0.3638  0.0912  0.6980
 1277Sol     HW 8064   2.987   1.224   8.936 -0.1963 -0.4344 -0.1939
 1277Sol     HW 8065   2.977   1.075   8.914 -0.0427 -0.7178  1.6293
 1277Sol     MW 8066   2.964   1.144   8.969  0.1119 -0.1345 -0.0503
 1278Sol     OW 8067   2.014   2.390   1.727  0.4043 -0.0287  0.2473
 1278Sol     HW 8068   2.027   2.318   1.665  0.4958  0.2891 -0.1076
 1278Sol     HW 8069   2.089   2.384   1.786  0.7933  0.2035 -0.2136
 1278Sol     MW 8070   2.022   2.383   1.726 -0.1332  0.0730  0.4735
 1279Sol     OW 8071   1.315   2.274   2.262  0.1609 -0.5078 -0.2450
 1279Sol     HW 8072   1.290   2.272   2.170 -0.0765 -0.4556 -0.1806
 1279Sol     HW 8073   1.387   2.338   2.265  0.7913 -1.1965 -0.5463
 1279Sol     MW 8074   1.320   2.280   2.254 -0.1540 -0.0067 -0.3301
 1280Sol     OW 8075   0.194   2.241   6.041 -0.6332  0.3863  0.2464
 1280Sol     HW 8076   0.101   2.220   6.047 -0.1960 -2.5800 -1.9594
 1280Sol     HW 8077   0.230   2.170   5.987  2.7771  1.8432  0.5388
 1280Sol     MW 8078   0.189   2.232   6.036  0.2205  0.4047 -0.1050
 1281Sol     OW 8079   1.594   1.572   7.631 -0.3209  0.6594 -0.4387
 1281Sol     HW 8080   1.564   1.511   7.699  2.2584  1.5489  1.5635
 1281Sol     HW 8081   1.528   1.641   7.630 -0.4867  0.5307  1.0147
 1281Sol     MW 8082   1.585   1.573   7.637 -0.1252 -0.1494 -0.2174
 1282Sol     OW 8083   2.123   3.235   1.808  0.3374  0.0334 -0.1809
 1282Sol     HW 8084   2.173   3.298   1.860  1.4443 -0.6186 -0.4338
 1282Sol     HW 8085   2.146   3.255   1.717 -2.5589  1.9939 -0.5457
 1282Sol     MW 8086   2.130   3.243   1.804  0.0903  0.3213 -0.0002
 1283Sol     OW 8087   1.111   0.920   7.985 -0.2976  0.2019 -0.3444
 1283Sol     HW 8088   1.112   1.016   7.995  2.0473  0.0453  1.0962
 1283Sol     HW 8089   1.195   0.899   7.943 -0.0619 -1.3871  0.8976
 1283Sol     MW 8090   1.118   0.927   7.982  0.3357  0.5532  0.0889
 1284Sol     OW 8091   2.577   3.189   4.831 -0.0117 -0.0789 -0.1101
 1284Sol     HW 8092   2.511   3.167   4.765  0.4914 -0.3834 -0.5149
 1284Sol     HW 8093   2.537   3.164   4.914  0.6726 -2.9109 -0.5688
 1284Sol     MW 8094   2.568   3.185   4.832 -0.2896  0.2390 -0.2262
 1285Sol     OW 8095   1.305   2.875   2.095  0.1508 -0.3775  0.5068
 1285Sol     HW 8096   1.387   2.871   2.047  0.1579 -3.0434  0.6486
 1285Sol     HW 8097   1.237   2.875   2.027  0.2186 -1.5820  0.4242
 1285Sol     MW 8098   1.306   2.875   2.085  0.3895  0.3068 -0.3964
 1286Sol     OW 8099   1.515   1.244   3.140 -0.1068 -0.1993  0.0570
 1286Sol     HW 8100   1.522   1.340   3.136  0.2772 -0.2241  0.1354
 1286Sol     HW 8101   1.430   1.225   3.101 -1.4477  0.3644  2.6132
 1286Sol     MW 8102   1.508   1.251   3.136 -0.1307 -0.3438 -0.5528
 1287Sol     OW 8103   2.031   3.033   6.174  0.1319 -0.3335 -0.0427
 1287Sol     HW 8104   2.006   2.955   6.224  0.6618 -0.7324 -0.4048
 1287Sol     HW 8105   2.109   3.066   6.218 -0.2869  0.1918  0.3164
 1287Sol     MW 8106   2.035   3.029   6.183  0.1889 -0.0569  0.0519
 1288Sol     OW 8107   0.947   0.489   7.790 -0.3672  0.7102  0.8107
 1288Sol     HW 8108   0.939   0.543   7.869  2.1121  0.2618  1.4111
 1288Sol     HW 8109   1.023   0.525   7.744 -1.0792  0.2177 -0.8084
 1288Sol     MW 8110   0.953   0.497   7.793 -0.2457 -0.2308 -0.3962
 1289Sol     OW 8111   0.199   2.946   3.923 -0.4049 -0.8108 -0.4307
 1289Sol     HW 8112   0.157   3.029   3.899 -1.7765 -1.4413 -0.2574
 1289Sol     HW 8113   0.237   2.962   4.009  2.9424  0.8964 -2.1104
 1289Sol     MW 8114   0.199   2.955   3.928 -0.4490  0.3722 -0.1542
 1290Sol     OW 8115   3.043   2.698   1.920  0.2102 -0.2035 -0.2504
 1290Sol     HW 8116   3.114   2.719   1.981 -0.6646  0.5492  0.5255
 1290Sol     HW 8117   3.060   2.754   1.844 -0.5462  1.3319  0.6754
 1290Sol     MW 8118   3.051   2.705   1.919  0.1530  0.0885  0.6206
 1291Sol     OW 8119   0.786   0.378   4.384  0.0279  0.0953  0.3885
 1291Sol     HW 8120   0.853   0.446   4.386 -0.3714  0.4816  1.2843
 1291Sol     HW 8121   0.834   0.296   4.399  0.5535  0.1353 -1.0587
 1291Sol     MW 8122   0.796   0.377   4.386 -0.3713 -0.3416  0.7073
 1292Sol     OW 8123   1.412   3.127   1.731  0.5599 -0.1127  0.3083
 1292Sol     HW 8124   1.400   3.032   1.723  0.7633 -0.1788  0.7478
 1292Sol     HW 8125   1.362   3.150   1.810 -0.6932  0.3736 -0.6186
 1292Sol     MW 8126   1.406   3.120   1.738 -0.3509 -0.1288 -0.0849
 1293Sol     OW 8127   3.220   1.404   3.359  0.7174 -0.4915 -0.1329
 1293Sol     HW 8128   3.235   1.494   3.330  0.2713 -0.3609  0.0332
 1293Sol     HW 8129   3.138   1.409   3.408  0.3336 -1.1086 -0.7021
 1293Sol     MW 8130   3.214   1.413   3.360  0.3067  0.4555 -0.2132
 1294Sol     OW 8131   2.554   0.276   6.247  0.0207  0.1579 -0.1837
 1294Sol     HW 8132   2.564   0.267   6.152 -0.0904  1.7010 -0.3613
 1294Sol     HW 8133   2.478   0.333   6.258  1.9036  2.6059  0.7396
 1294Sol     MW 8134   2.548   0.281   6.240  0.1897 -0.3501 -0.2472
 1295Sol     OW 8135   0.156   2.093   6.427 -0.1543  0.0622  0.6198
 1295Sol     HW 8136   0.107   2.077   6.508  0.1691 -0.5703  0.6954
 1295Sol     HW 8137   0.158   2.007   6.383 -2.8473  0.9815 -1.4765
 1295Sol     MW 8138   0.151   2.084   6.430 -0.0405 -0.2059 -0.0746
 1296Sol     OW 8139   0.171   0.096   2.123  0.0298 -0.4715  0.3915
 1296Sol     HW 8140   0.244   0.138   2.168 -1.1742 -0.2934  2.2316
 1296Sol     HW 8141   0.152   0.018   2.175 -0.5690 -0.9670 -0.5366
 1296Sol     MW 8142   0.176   0.093   2.131 -0.6278  0.0666  0.2861
 1297Sol     OW 8143   2.743   0.733   5.116 -0.4197 -0.2284 -0.3324
 1297Sol     HW 8144   2.672   0.678   5.084  0.0109 -0.3470 -1.0878
 1297Sol     HW 8145   2.708   0.822   5.110 -0.0692 -0.1705 -1.9190
 1297Sol     MW 8146   2.733   0.736   5.112  0.3315  0.1860 -0.0745
 1298Sol     OW 8147   2.194   1.015   9.887 -0.5486  0.0882  0.1688
 1298Sol     HW 8148   2.227   0.971   9.965 -0.3202 -0.1271 -0.0433
 1298Sol     HW 8149   2.106   0.980   9.875 -0.5500  0.0535  0.2815
 1298Sol     MW 8150   2.189   1.008   9.893  0.3610  0.0928 -0.0948
 1299Sol     OW 8151   1.855   0.876   8.752 -0.0318  0.0551 -0.7019
 1299Sol     HW 8152   1.881   0.791   8.717  3.6637  1.4401 -1.4904
 1299Sol     HW 8153   1.877   0.871   8.845  2.0707  0.8218 -1.1425
 1299Sol     MW 8154   1.859   0.867   8.757 -0.1928  0.4164  0.1655
 1300Sol     OW 8155   1.452   1.512   3.123 -0.4631 -0.1587  0.3128
 1300Sol     HW 8156   1.489   1.495   3.036 -1.9655 -0.0022 -0.3673
 1300Sol     HW 8157   1.517   1.567   3.166  0.5624 -0.7063 -0.4999
 1300Sol     MW 8158   1.461   1.515   3.119 -0.5818 -0.1298 -0.0332
 1301Sol     OW 8159   3.073   2.619   2.278  0.1994 -0.7439 -0.0562
 1301Sol     HW 8160   3.079   2.691   2.340  0.8120 -1.4628  0.7399
 1301Sol     HW 8161   3.153   2.624   2.226  1.1985 -2.0129  1.3135
 1301Sol     MW 8162   3.080   2.626   2.279 -0.5700  0.1432  0.2612
 1302Sol     OW 8163   1.503   2.430   2.541  0.1875  0.2086  0.1491
 1302Sol     HW 8164   1.562   2.385   2.481 -1.8583 -1.2479 -0.8351
 1302Sol     HW 8165   1.494   2.518   2.505 -0.2155 -0.3453 -1.1162
 1302Sol     MW 8166   1.507   2.434   2.533  0.1121  0.0515 -0.2704
 1303Sol     OW 8167   2.493   0.541   4.007 -1.2742  0.1856 -0.1836
 1303Sol     HW 8168   2.524   0.466   3.955 -2.7594 -0.5023 -0.0887
 1303Sol     HW 8169   2.573   0.589   4.029 -0.2512 -1.6365  0.1729
 1303Sol     MW 8170   2.503   0.539   4.004  0.2142  0.0339  0.1995
 1304Sol     OW 8171   1.768   3.122   3.589 -0.0797  0.2408  0.4984
 1304Sol     HW 8172   1.747   3.049   3.531 -1.1435  1.9474 -1.3162
 1304Sol     HW 8173   1.741   3.200   3.541  1.9674  1.9259  1.9864
 1304Sol     MW 8174   1.763   3.122   3.580 -0.7341  0.3253  0.2713
 1305Sol     OW 8175   1.100   2.511   7.882  0.1110 -0.0551 -0.1920
 1305Sol     HW 8176   1.094   2.544   7.792 -0.7502  2.1235  0.6371
 1305Sol     HW 8177   1.009   2.505   7.911  0.4848  1.8303  1.4332
 1305Sol     MW 8178   1.091   2.513   7.876 -0.1411  0.5851  0.0223
 1306Sol     OW 8179   1.813   0.636   6.719 -0.0059 -0.2916  0.3653
 1306Sol     HW 8180   1.840   0.716   6.764 -0.5439  0.2557 -0.2769
 1306Sol     HW 8181   1.789   0.576   6.789 -1.5506  0.8042  0.8160
 1306Sol     MW 8182   1.813   0.638   6.729 -0.1001  0.5845 -0.2021
 1307Sol     OW 8183   2.780   2.269   2.367 -0.1913  0.0100  0.0929
 1307Sol     HW 8184   2.732   2.352   2.359  1.4039  0.8821 -0.5783
 1307Sol     HW 8185   2.805   2.264   2.459  1.9290  1.5377 -0.3823
 1307Sol     MW 8186   2.778   2.276   2.374 -0.4770  0.6443  0.2278
 1308Sol     OW 8187   1.350   1.357   7.434 -0.0815 -0.3307 -1.0283
 1308Sol     HW 8188   1.318   1.380   7.347  0.1162 -4.5787 -2.3307
 1308Sol     HW 8189   1.284   1.296   7.467  2.1363 -2.2204 -0.0504
 1308Sol     MW 8190   1.341   1.354   7.429  0.3643 -0.2875 -0.0748
 1309Sol     OW 8191   0.166   2.961   7.298  0.2158 -0.6420  0.0579
 1309Sol     HW 8192   0.116   3.039   7.324  1.1474 -0.3648  1.0450
 1309Sol     HW 8193   0.135   2.941   7.210  0.0594  0.9380 -0.2599
 1309Sol     MW 8194   0.159   2.966   7.293 -0.0580 -0.4809 -0.4017
 1310Sol     OW 8195   2.563   0.411   3.498  0.6432  0.3272  0.2042
 1310Sol     HW 8196   2.540   0.319   3.513  1.5446  0.2595  1.2577
 1310Sol     HW 8197   2.605   0.439   3.580 -0.8767  2.0889  0.4201
 1310Sol     MW 8198   2.565   0.405   3.507  0.3361  0.1992  0.6239
 1311Sol     OW 8199   1.811   1.567   3.643 -0.3409  0.0879  0.4336
 1311Sol     HW 8200   1.900   1.593   3.668 -0.3824  1.2674 -0.5898
 1311Sol     HW 8201   1.818   1.549   3.549 -1.5897  2.0335 -0.0504
 1311Sol     MW 8202   1.820   1.568   3.637 -0.4389  0.3556  0.4677
 1312Sol     OW 8203   3.012   2.627   3.463 -0.0307 -0.2349  0.1297
 1312Sol     HW 8204   3.036   2.713   3.427  0.4047 -0.5014 -0.2198
 1312Sol     HW 8205   3.078   2.567   3.428  0.0098 -0.6119  0.8356
 1312Sol     MW 8206   3.020   2.630   3.457 -0.5757 -0.2637 -0.2845
 1313Sol     OW 8207   0.992   1.031   6.509 -0.2003  0.0306  0.2666
 1313Sol     HW 8208   1.036   1.082   6.576  2.2102 -2.0291  0.3428
 1313Sol     HW 8209   1.026   0.942   6.520 -0.0079 -0.4559 -3.3938
 1313Sol     MW 8210   0.999   1.028   6.516  0.0895 -0.4285  0.0055
 1314Sol     OW 8211   1.739   2.855   7.298  0.0848 -0.3215 -0.5030
 1314Sol     HW 8212   1.832   2.835   7.309  0.4117  0.5944 -1.4993
 1314Sol     HW 8213   1.725   2.932   7.352  0.1677  0.1842 -1.1857
 1314Sol     MW 8214   1.746   2.860   7.304 -0.5611 -0.4583  0.3589
 1315Sol     OW 8215   2.501   1.875   6.722  0.9268 -0.2827  0.1574
 1315Sol     HW 8216   2.576   1.818   6.741  1.4099  0.6820  1.1920
 1315Sol     HW 8217   2.510   1.948   6.783  0.0539  0.6745 -0.8296
 1315Sol     MW 8218   2.509   1.876   6.729  0.3113  0.1858  0.0149
 1316Sol     OW 8219   1.256   1.360   8.200 -0.0618 -0.0985 -0.3072
 1316Sol     HW 8220   1.193   1.309   8.251  0.7476 -0.6306  0.1513
 1316Sol     HW 8221   1.340   1.317   8.215  0.6164  1.3385  0.0489
 1316Sol     MW 8222   1.258   1.352   8.206  0.0021 -0.2231  0.1732
 1317Sol     OW 8223   1.804   1.579   2.357  0.6421 -0.2440  0.3955
 1317Sol     HW 8224   1.893   1.548   2.377 -0.1049 -1.7562  1.4369
 1317Sol     HW 8225   1.754   1.499   2.342 -0.5829  0.6057 -0.1086
 1317Sol     MW 8226   1.808   1.569   2.357 -0.1414  0.0619  0.3199
 1318Sol     OW 8227   0.717   1.332   5.907  0.0410 -0.7977 -0.1123
 1318Sol     HW 8228   0.686   1.308   5.994 -0.9947 -0.6777 -0.4473
 1318Sol     HW 8229   0.812   1.340   5.917  0.0661 -2.0801  0.6898
 1318Sol     MW 8230   0.723   1.331   5.915  0.0441 -0.0208  0.0731
 1319Sol     OW 8231   0.639   1.273   3.222 -0.0090 -0.3947  0.1141
 1319Sol     HW 8232   0.622   1.230   3.139 -1.8896 -1.7638  1.1550
 1319Sol     HW 8233   0.609   1.363   3.210 -1.7573 -0.9918 -0.2474
 1319Sol     MW 8234   0.635   1.277   3.214  0.0998  0.1814 -0.6413
 1320Sol     OW 8235   3.118   2.370   5.979  0.3874 -0.1130  0.4809
 1320Sol     HW 8236   3.040   2.315   5.977  1.2770 -1.3683 -0.4339
 1320Sol     HW 8237   3.133   2.394   5.888  2.7673 -2.3617  0.2158
 1320Sol     MW 8238   3.112   2.367   5.971 -0.0405  0.5278  0.4654
 1321Sol     OW 8239   2.234   0.928   9.631  0.2668  0.0585  0.2293
 1321Sol     HW 8240   2.321   0.889   9.640  1.1477  1.5769 -1.3598
 1321Sol     HW 8241   2.211   0.958   9.719  0.4091 -2.2334  1.0792
 1321Sol     MW 8242   2.240   0.927   9.639  0.3526 -0.6045 -0.1287
 1322Sol     OW 8243   1.381   0.978   7.623  0.6123  0.6452  0.8427
 1322Sol     HW 8244   1.409   1.015   7.539 -1.6031 -0.9363 -0.6651
 1322Sol     HW 8245   1.422   0.892   7.626 -1.2468 -0.2862  0.2167
 1322Sol     MW 8246   1.387   0.974   7.616 -0.4014  0.2242 -0.5284
 1323Sol     OW 8247   2.511   2.579   8.153 -0.1604  0.1497 -0.0044
 1323Sol     HW 8248   2.558   2.533   8.222 -1.6237  0.0246  0.9265
 1323Sol     HW 8249   2.490   2.664   8.190  0.1559  0.5600 -0.7525
 1323Sol     MW 8250   2.513   2.582   8.162 -0.5063  0.2432  0.0529
 1324Sol     OW 8251   0.246   1.715   9.051  0.0971 -0.4712  0.2173
 1324Sol     HW 8252   0.207   1.753   8.972 -1.4764 -0.9358  0.7309
 1324Sol     HW 8253   0.326   1.673   9.021 -1.2394 -1.9306 -1.4486
 1324Sol     MW 8254   0.249   1.714   9.041  0.1707 -0.5031  0.1827
 1325Sol     OW 8255   1.581   1.424   2.904 -0.8085  0.0848 -0.4009
 1325Sol     HW 8256   1.600   1.392   2.816  0.2898 -0.3839 -0.0105
 1325Sol     HW 8257   1.644   1.495   2.918  0.6043 -1.3759  0.8530
 1325Sol     MW 8258   1.589   1.427   2.897 -0.5989  0.1377  0.0858
 1326Sol     OW 8259   1.248   2.996   8.265  0.5959  0.3870  0.0288
 1326Sol     HW 8260   1.257   3.025   8.174  1.0623 -0.0652 -0.0704
 1326Sol     HW 8261   1.153   2.992   8.280  0.5200  1.0449 -0.2457
 1326Sol     MW 8262   1.240   2.998   8.258 -0.0177 -0.1078 -0.1512
 1327Sol     OW 8263   2.817   3.085   4.177 -0.5654  0.0508  0.0616
 1327Sol     HW 8264   2.860   3.165   4.206  0.3126 -0.0448 -0.9040
 1327Sol     HW 8265   2.726   3.094   4.205  0.4279 -0.5174  3.7038
 1327Sol     MW 8266   2.813   3.093   4.182  0.9654 -0.3585 -0.1949
 1328Sol     OW 8267   0.604   1.824   9.239  0.3304 -0.1326 -0.4104
 1328Sol     HW 8268   0.544   1.885   9.282 -0.2816 -0.4478 -0.8144
 1328Sol     HW 8269   0.682   1.877   9.221  0.8016 -0.1196  1.5225
 1328Sol     MW 8270   0.605   1.834   9.241  0.3099  0.2277  0.4828
 1329Sol     OW 8271   0.980   1.937   4.987  0.6587  0.1042  0.1498
 1329Sol     HW 8272   0.898   1.969   4.948  1.3504  2.1632  0.3029
 1329Sol     HW 8273   0.952   1.878   5.057 -0.7218  0.9664  0.3568
 1329Sol     MW 8274   0.970   1.935   4.990  0.7592 -0.5799 -0.5317
 1330Sol     OW 8275   2.601   0.973   5.161  0.1825 -0.5935  0.2656
 1330Sol     HW 8276   2.616   1.027   5.084  0.3483 -0.2654  0.5230
 1330Sol     HW 8277   2.507   0.956   5.161  0.3699 -1.6355 -0.6954
 1330Sol     MW 8278   2.594   0.977   5.154  0.3167  0.0902 -0.2095
 1331Sol     OW 8279   1.852   0.887   6.833 -0.1942 -0.2692 -0.0995
 1331Sol     HW 8280   1.811   0.959   6.881 -2.3729 -1.7812  0.3413
 1331Sol     HW 8281   1.887   0.829   6.900 -2.9407 -2.2090 -0.2558
 1331Sol     MW 8282   1.852   0.889   6.843 -0.5419  0.2543  0.2267
 1332Sol     OW 8283   2.278   0.680   6.547 -0.2896 -0.5864 -0.3565
 1332Sol     HW 8284   2.198   0.726   6.520 -0.4579 -0.1751  0.8187
 1332Sol     HW 8285   2.330   0.673   6.467 -0.8856  0.3902 -0.8365
 1332Sol     MW 8286   2.275   0.683   6.537  0.2249  0.2925  0.2991
 1333Sol     OW 8287   2.068   1.384   9.038  0.1938 -0.4417 -0.3944
 1333Sol     HW 8288   2.010   1.312   9.014  0.3831 -0.3291 -1.2268
 1333Sol     HW 8289   2.144   1.373   8.981 -0.1823  0.9432 -1.2050
 1333Sol     MW 8290   2.070   1.377   9.031  0.4142  0.0638  0.3580
 1334Sol     OW 8291   2.700   1.102   9.033 -0.2840  0.0975 -0.5754
 1334Sol     HW 8292   2.708   1.019   9.080 -1.7937  0.9069  1.2049
 1334Sol     HW 8293   2.791   1.131   9.020  0.2187 -1.2135 -0.0741
 1334Sol     MW 8294   2.709   1.097   9.036  0.0713 -0.0348  0.2860
 1335Sol     OW 8295   1.551   2.965   9.575  0.4111  0.0497  0.2634
 1335Sol     HW 8296   1.588   2.951   9.488  0.0404 -1.4374  0.3358
 1335Sol     HW 8297   1.616   2.929   9.635 -0.4860 -1.2483  0.4642
 1335Sol     MW 8298   1.560   2.961   9.572 -0.0669  0.4264 -0.3770
 1336Sol     OW 8299   2.340   2.765   9.253  0.0407  0.1966  0.2126
 1336Sol     HW 8300   2.285   2.687   9.248 -0.6701  0.7394 -0.6412
 1336Sol     HW 8301   2.374   2.775   9.164  2.6747 -0.9399  1.0578
 1336Sol     MW 8302   2.338   2.759   9.244 -0.0548 -0.1609 -0.4186
 1337Sol     OW 8303   0.094   2.310   3.596  0.6978 -0.4049 -0.0912
 1337Sol     HW 8304   0.105   2.345   3.508  0.9362 -1.2910 -0.4165
 1337Sol     HW 8305   0.175   2.334   3.642  0.7227 -0.2493 -0.2182
 1337Sol     MW 8306   0.102   2.315   3.593  0.3905 -0.3215 -0.0904
 1338Sol     OW 8307   2.474   3.081   8.483 -0.0504 -0.4267 -0.4608
 1338Sol     HW 8308   2.526   3.001   8.495  3.3125  1.4990 -1.4590
 1338Sol     HW 8309   2.486   3.103   8.390 -0.2663  1.6791 -0.0115
 1338Sol     MW 8310   2.480   3.076   8.476  0.0816 -0.2949  0.2622
 1339Sol     OW 8311   1.514   1.182   8.729  0.0469  0.0177  0.0404
 1339Sol     HW 8312   1.423   1.204   8.752 -0.2186  0.5602 -1.4730
 1339Sol     HW 8313   1.558   1.267   8.722  0.8315 -0.2653  1.3467
 1339Sol     MW 8314   1.510   1.191   8.730 -0.1427  0.4196  0.1230
 1340Sol     OW 8315   1.288   3.284   6.504  0.1557  0.7272  0.2103
 1340Sol     HW 8316   1.243   3.200   6.495  1.5265 -0.0040 -0.0085
 1340Sol     HW 8317   1.218   3.348   6.516 -0.9351 -0.3635 -0.2519
 1340Sol     MW 8318   1.277   3.282   6.504 -0.1131 -0.3506 -0.0195
 1341Sol     OW 8319   2.589   0.058   2.119  0.3277  0.0620  0.3356
 1341Sol     HW 8320   2.647   0.129   2.145  1.2613  0.3165 -2.2968
 1341Sol     HW 8321   2.600   0.051   2.024 -2.9017 -0.8201 -0.0383
 1341Sol     MW 8322   2.595   0.063   2.113 -0.0386  0.4137  0.3123
 1342Sol     OW 8323   1.817   0.700   9.005  0.6591 -0.2746  0.1358
 1342Sol     HW 8324   1.737   0.752   9.010  0.5625 -0.4862  0.7867
 1342Sol     HW 8325   1.800   0.623   9.059  0.6342 -1.2284 -1.2157
 1342Sol     MW 8326   1.809   0.698   9.010 -0.1244 -0.6584 -0.3390
 1343Sol     OW 8327   1.090   1.642   9.475 -0.2495  0.5240  0.0610
 1343Sol     HW 8328   1.095   1.738   9.470  0.0364  0.4213 -2.2882
 1343Sol     HW 8329   1.182   1.614   9.480 -0.2899  0.3547 -0.1315
 1343Sol     MW 8330   1.099   1.648   9.475  0.2302 -0.2675  0.0984
 1344Sol     OW 8331   3.214   2.890   9.405  0.0833 -0.5119 -0.0208
 1344Sol     HW 8332   3.250   2.812   9.363 -0.2668  0.1930 -1.6869
 1344Sol     HW 8333   3.266   2.962   9.369  0.3358  0.0449  1.4213
 1344Sol     MW 8334   3.222   2.890   9.398  0.0473  0.2197  0.1832
 1345Sol     OW 8335   0.591   1.087   9.873 -0.4620  0.7214 -0.3510
 1345Sol     HW 8336   0.564   1.122   9.958  0.1823  0.6975 -0.1312
 1345Sol     HW 8337   0.589   1.162   9.814  0.1612  0.9723 -0.0586
 1345Sol     MW 8338   0.589   1.097   9.876 -0.0500  0.3115  0.2887
 1346Sol     OW 8339   2.613   2.311   8.636  0.3767  0.0541 -0.2185
 1346Sol     HW 8340   2.586   2.313   8.728 -1.5872 -0.0542 -0.7776
 1346Sol     HW 8341   2.708   2.304   8.640  0.3859  0.8714  1.8072
 1346Sol     MW 8342   2.619   2.310   8.645 -0.4154  0.1742 -0.2730
 1347Sol     OW 8343   2.254   3.349   9.160 -0.6632  0.4131 -0.5747
 1347Sol     HW 8344   2.322   3.300   9.205 -0.5662  1.3128  0.2832
 1347Sol     HW 8345   2.245   3.306   9.075  0.4479 -0.1624 -0.4070
 1347Sol     MW 8346   2.259   3.341   9.156 -0.3843 -0.3108 -0.0094
 1348Sol     OW 8347   2.351   0.866   5.218  0.5298  0.5369  0.5082
 1348Sol     HW 8348   2.278   0.904   5.168 -0.6686 -0.9623  1.0704
 1348Sol     HW 8349   2.326   0.877   5.309  0.9270 -0.1475  0.7033
 1348Sol     MW 8350   2.342   0.871   5.221 -0.0287  0.3255  0.2384
 1349Sol     OW 8351   2.798   2.906   3.388 -0.1770  0.8476  0.2016
 1349Sol     HW 8352   2.747   2.834   3.426  2.1593 -1.1782 -0.3129
 1349Sol     HW 8353   2.746   2.936   3.313 -1.0794 -0.5163  0.2648
 1349Sol     MW 8354   2.789   2.902   3.384 -1.0745  0.5956 -0.4864
 1350Sol     OW 8355   3.085   3.382   4.587  0.5552 -0.1204 -0.0994
 1350Sol     HW 8356   3.134   3.463   4.573  2.0403 -0.9116  0.3829
 1350Sol     HW 8357   3.031   3.399   4.665  0.6792  0.4832 -0.1480
 1350Sol     MW 8358   3.084   3.391   4.593 -0.0671 -0.0741  0.1294
 1351Sol     OW 8359   2.218   0.399   6.558  0.0959  0.3860  0.0463
 1351Sol     HW 8360   2.253   0.488   6.554  0.3393  0.3563  1.3817
 1351Sol     HW 8361   2.123   0.410   6.555  0.0639  0.8222  2.2447
 1351Sol     MW 8362   2.213   0.408   6.557 -0.2383  0.3563 -0.0286
 1352Sol     OW 8363   1.973   2.552   7.963 -0.0656 -0.2204 -0.1364
 1352Sol     HW 8364   1.884   2.517   7.968 -0.1869  0.3462  2.6856
 1352Sol     HW 8365   2.028   2.484   8.001  0.3037  0.6642  0.9428
 1352Sol     MW 8366   1.970   2.543   7.967  0.0352  0.7945  0.1311
 1353Sol     OW 8367   0.742   0.589   8.722  0.1868 -0.8246  0.1934
 1353Sol     HW 8368   0.669   0.650   8.709  0.7671 -0.3588 -0.9167
 1353Sol     HW 8369   0.820   0.644   8.718  0.5475 -1.1028  2.8690
 1353Sol     MW 8370   0.742   0.599   8.720 -0.0551 -0.0810 -0.3962
 1354Sol     OW 8371   2.211   0.118   5.366 -0.4404  0.0926  0.0727
 1354Sol     HW 8372   2.293   0.089   5.326 -1.2957  2.0318 -3.2332
 1354Sol     HW 8373   2.195   0.055   5.436  2.0569 -2.3559 -1.4629
 1354Sol     MW 8374   2.217   0.110   5.369 -0.4420 -0.2557 -0.3166
 1355Sol     OW 8375   1.053   2.075   7.940 -0.4518 -0.2535  0.3625
 1355Sol     HW 8376   1.019   2.018   8.008 -0.0332 -1.0463 -0.0840
 1355Sol     HW 8377   0.983   2.139   7.925 -1.6758 -1.7421 -0.4096
 1355Sol     MW 8378   1.044   2.076   7.944 -0.0210 -0.1429  0.1708
 1356Sol     OW 8379   1.776   1.636   5.688  0.1467 -0.4190 -0.4099
 1356Sol     HW 8380   1.736   1.681   5.614  1.5334  1.4496 -0.0444
 1356Sol     HW 8381   1.831   1.568   5.647  0.8249  0.5295 -1.1044
 1356Sol     MW 8382   1.777   1.634   5.677  0.1349 -0.4245 -0.0120
 1357Sol     OW 8383   0.917   0.605   3.798 -0.3403  0.4867 -0.3636
 1357Sol     HW 8384   0.830   0.597   3.837  0.1979 -2.0042  0.4317
 1357Sol     HW 8385   0.904   0.586   3.706 -0.3346 -2.2512  0.1511
 1357Sol     MW 8386   0.908   0.602   3.794  0.2132 -0.8991 -0.1161
 1358Sol     OW 8387   2.367   0.828   9.133 -0.1289  0.1522  0.2898
 1358Sol     HW 8388   2.375   0.873   9.218 -0.8114  1.1384 -0.1685
 1358Sol     HW 8389   2.351   0.897   9.070 -3.1172 -0.8680 -0.1722
 1358Sol     MW 8390   2.366   0.838   9.135 -0.7179 -0.2618  0.3163
 1359Sol     OW 8391   2.554   3.190   6.527 -0.1185 -0.1685  0.1815
 1359Sol     HW 8392   2.647   3.207   6.511 -0.1925  0.5201  0.4420
 1359Sol     HW 8393   2.513   3.275   6.516 -0.7052 -0.4549  0.1688
 1359Sol     MW 8394   2.559   3.199   6.525 -0.2906  0.2522 -0.2682
 1360Sol     OW 8395   2.720   2.343   5.729 -0.0173  0.2785  0.3080
 1360Sol     HW 8396   2.644   2.300   5.768  0.4633 -0.8952 -0.0531
 1360Sol     HW 8397   2.721   2.313   5.638  0.8856  0.2864  0.3118
 1360Sol     MW 8398   2.713   2.337   5.724 -0.2996 -0.0198  0.3496
 1361Sol     OW 8399   0.137   2.843   7.570  0.5261 -0.2534 -0.4086
 1361Sol     HW 8400   0.142   2.866   7.477 -0.0744  0.4103 -0.2778
 1361Sol     HW 8401   0.152   2.926   7.616  0.9106 -0.5955  0.0867
 1361Sol     MW 8402   0.139   2.852   7.566 -0.3726  0.4646 -0.1151
 1362Sol     OW 8403   2.458   0.896   6.161  0.3456 -0.0461 -0.0327
 1362Sol     HW 8404   2.397   0.967   6.183  1.2784  1.1349 -1.1826
 1362Sol     HW 8405   2.426   0.862   6.078 -0.6732 -1.6481  0.9989
 1362Sol     MW 8406   2.450   0.900   6.156  0.0033 -0.3053 -0.7312
 1363Sol     OW 8407   0.021   1.071   5.601 -0.3232 -0.7248  0.3659
 1363Sol     HW 8408   0.067   1.153   5.621 -1.6419  0.5158 -1.4906
 1363Sol     HW 8409  -0.045   1.064   5.670 -0.8118  0.2760  0.0135
 1363Sol     MW 8410   0.019   1.078   5.609  0.2063  0.4163 -0.6115
 1364Sol     OW 8411   1.215   1.655   7.405  0.0747 -0.1922 -0.3447
 1364Sol     HW 8412   1.151   1.590   7.433 -0.0449 -0.4323 -1.1838
 1364Sol     HW 8413   1.279   1.657   7.477  0.9274 -2.3606 -0.9807
 1364Sol     MW 8414   1.215   1.649   7.414  0.0445  0.3466  0.1128
 1365Sol     OW 8415   0.275   2.942   6.611 -0.0899  0.0206 -0.2673
 1365Sol     HW 8416   0.309   3.029   6.589  0.2092 -0.0935 -0.2589
 1365Sol     HW 8417   0.319   2.883   6.550  1.1314 -0.3665  0.9654
 1365Sol     MW 8418   0.282   2.944   6.604  0.0266 -0.2464 -0.6080
 1366Sol     OW 8419   3.183   1.441   9.288 -0.6694  0.5017 -0.1353
 1366Sol     HW 8420   3.115   1.508   9.287 -0.9166  0.2429 -0.7720
 1366Sol     HW 8421   3.145   1.369   9.339 -0.8833  0.3486 -0.5084
 1366Sol     MW 8422   3.173   1.441   9.292 -0.1924  0.0448 -0.2217
 1367Sol     OW 8423   2.183   1.958   7.770 -0.2279 -0.5575 -0.0915
 1367Sol     HW 8424   2.167   1.920   7.684 -0.0148 -1.1350  0.1256
 1367Sol     HW 8425   2.252   1.904   7.808 -0.4539 -0.4207  0.5183
 1367Sol     MW 8426   2.187   1.950   7.766  0.0437  0.1498 -0.1771
 1368Sol     OW 8427   2.711   1.369   7.785  0.0416 -0.1536 -0.5462
 1368Sol     HW 8428   2.653   1.350   7.712 -0.4381 -1.1308  0.0764
 1368Sol     HW 8429   2.779   1.301   7.780  1.2009  1.0561 -1.3444
 1368Sol     MW 8430   2.712   1.361   7.778 -0.3839  0.1008  0.0410
 1369Sol     OW 8431   0.614   1.456   8.594  0.5219  1.0561 -0.1036
 1369Sol     HW 8432   0.662   1.410   8.524 -0.1866  2.4040 -1.5158
 1369Sol     HW 8433   0.647   1.546   8.590 -1.2343  1.7183 -0.3100
 1369Sol     MW 8434   0.621   1.460   8.587  0.6851 -0.0955 -0.3597
 1370Sol     OW 8435   0.667   2.362   5.686  0.5134 -0.1130  0.5212
 1370Sol     HW 8436   0.585   2.376   5.733  0.0241  0.6732 -0.5657
 1370Sol     HW 8437   0.711   2.447   5.687 -0.9647  0.7858 -3.2110
 1370Sol     MW 8438   0.664   2.371   5.691  0.7199  0.0319  0.5412
 1371Sol     OW 8439   1.069   3.178   1.790 -0.0346  0.6885 -0.0355
 1371Sol     HW 8440   1.064   3.187   1.695  2.6256 -1.1865 -0.4221
 1371Sol     HW 8441   1.158   3.206   1.812 -0.1209 -0.3175  1.6851
 1371Sol     MW 8442   1.076   3.181   1.783 -0.1622  0.3252 -0.1218
 1372Sol     OW 8443   2.091   0.285   2.106 -0.4148  0.2906  0.2818
 1372Sol     HW 8444   2.170   0.245   2.142 -1.7433 -0.6124  2.3273
 1372Sol     HW 8445   2.111   0.378   2.101  0.1933  0.3009  2.4480
 1372Sol     MW 8446   2.100   0.290   2.109  0.0119  0.4768 -0.4081
 1373Sol     OW 8447   2.795   2.421   3.787 -0.1394  0.1290 -0.2648
 1373Sol     HW 8448   2.719   2.477   3.769  0.4551  0.2133 -2.6242
 1373Sol     HW 8449   2.829   2.398   3.701  2.1284 -0.4676  0.7571
 1373Sol     MW 8450   2.791   2.424   3.778  0.0023 -0.7297 -0.7208
 1374Sol     OW 8451   1.460   0.119   2.950 -0.1098  0.1709 -0.5944
 1374Sol     HW 8452   1.380   0.069   2.931 -0.6623  0.1612  1.6415
 1374Sol     HW 8453   1.531   0.055   2.942 -0.6260 -0.5390  0.3880
 1374Sol     MW 8454   1.459   0.109   2.947  0.0620 -0.3342 -0.1920
 1375Sol     OW 8455   2.625   2.861   8.541 -0.4244 -0.5261  0.4153
 1375Sol     HW 8456   2.618   2.805   8.618 -0.6611 -2.1882 -0.8013
 1375Sol     HW 8457   2.709   2.837   8.501  0.3856  1.3431  0.9122
 1375Sol     MW 8458   2.632   2.854   8.544  0.5383 -0.0798  0.2551
 1376Sol     OW 8459   2.616   2.520   4.635  0.2411  0.1345  0.0610
 1376Sol     HW 8460   2.610   2.571   4.554 -0.4402  1.0652  0.6859
 1376Sol     HW 8461   2.623   2.429   4.606  1.6741  0.5911 -1.0729
 1376Sol     MW 8462   2.616   2.516   4.625 -0.0936  0.0672  0.0627
 1377Sol     OW 8463   1.559   2.546   8.444  0.1158 -0.0606 -0.5491
 1377Sol     HW 8464   1.556   2.465   8.495 -2.7961 -0.5084 -1.3730
 1377Sol     HW 8465   1.515   2.524   8.362  1.3952  1.7121 -1.7461
 1377Sol     MW 8466   1.555   2.536   8.441 -0.9584 -0.1291  0.3306
 1378Sol     OW 8467   1.335   3.233   1.960  0.3135 -0.1006  0.8509
 1378Sol     HW 8468   1.282   3.234   2.040 -0.2357  1.1173  0.4763
 1378Sol     HW 8469   1.411   3.287   1.980 -0.0913  0.6547  0.3783
 1378Sol     MW 8470   1.337   3.238   1.969  0.1892  0.5146  0.2419
 1379Sol     OW 8471   0.951   0.045   3.231  0.6832 -0.0996 -0.0528
 1379Sol     HW 8472   1.012   0.073   3.300  0.2478  0.7617 -0.0083
 1379Sol     HW 8473   0.953   0.117   3.167 -1.0264  0.4090  0.4381
 1379Sol     MW 8474   0.956   0.054   3.232 -0.3293 -0.2981  0.2718
 1380Sol     OW 8475   1.506   1.409   7.060 -0.5589 -0.0658  0.4093
 1380Sol     HW 8476   1.429   1.413   7.117 -0.3230 -0.2256  0.7379
 1380Sol     HW 8477   1.568   1.470   7.098 -0.2258 -0.5145  0.5876
 1380Sol     MW 8478   1.505   1.415   7.068  0.6402 -0.3773  0.4115
 1381Sol     OW 8479   0.305   2.763   2.631 -0.1234  0.3987 -0.0271
 1381Sol     HW 8480   0.273   2.853   2.629  1.8853  1.1257 -1.2936
 1381Sol     HW 8481   0.352   2.756   2.715  1.3320  1.1422 -0.7597
 1381Sol     MW 8482   0.307   2.771   2.639  0.2461 -0.5007  0.5094
 1382Sol     OW 8483   3.202   3.134   7.365 -0.3916 -0.0277 -0.2299
 1382Sol     HW 8484   3.151   3.084   7.301 -0.7932 -0.1253  0.1613
 1382Sol     HW 8485   3.202   3.223   7.331  0.2269 -0.2737 -0.8701
 1382Sol     MW 8486   3.197   3.138   7.356  0.0199  0.4231  0.0639
 1383Sol     OW 8487   0.052   1.536   7.633  0.1231  0.1952  0.1993
 1383Sol     HW 8488  -0.015   1.598   7.604  1.6739  1.3393 -1.0352
 1383Sol     HW 8489   0.093   1.579   7.709 -0.8639 -0.7331  1.2753
 1383Sol     MW 8490   0.050   1.546   7.637  0.4271 -0.5567 -0.2937
 1384Sol     OW 8491   1.132   2.705   1.664 -0.3513 -0.5461 -0.2597
 1384Sol     HW 8492   1.092   2.633   1.712 -1.0153 -0.4728 -0.7028
 1384Sol     HW 8493   1.168   2.665   1.585 -1.1480 -0.3247 -0.7456
 1384Sol     MW 8494   1.132   2.695   1.661  0.2297 -0.2036  0.1579
 1385Sol     OW 8495   1.979   0.135   8.903  0.5477 -0.6866  0.4516
 1385Sol     HW 8496   2.022   0.130   8.988  1.4090  0.6347  0.1147
 1385Sol     HW 8497   1.899   0.185   8.919  0.0846 -1.5133  0.7212
 1385Sol     MW 8498   1.976   0.139   8.912 -0.1262 -0.3551  0.4096
 1386Sol     OW 8499   2.861   0.888   8.803 -0.0574 -0.1646  0.4512
 1386Sol     HW 8500   2.925   0.822   8.775  1.5586  0.9311  1.4810
 1386Sol     HW 8501   2.791   0.837   8.844  0.9806 -1.2760  0.8746
 1386Sol     MW 8502   2.860   0.877   8.804  0.8305 -0.0618  0.0507
 1387Sol     OW 8503   3.223   1.918   2.910  0.1423  0.7008  0.0861
 1387Sol     HW 8504   3.312   1.948   2.929 -0.0996  1.9856 -0.7409
 1387Sol     HW 8505   3.221   1.907   2.815 -0.7494  1.2543  0.0333
 1387Sol     MW 8506   3.231   1.920   2.903 -0.4943  0.5267 -0.3880
 1388Sol     OW 8507   2.391   2.801   8.281  0.2953 -0.1820 -0.1968
 1388Sol     HW 8508   2.423   2.884   8.244  1.6996 -0.9484 -0.7470
 1388Sol     HW 8509   2.404   2.811   8.375  1.3429 -0.1223 -0.3370
 1388Sol     MW 8510   2.395   2.809   8.286  0.0884  0.2722  0.0633
 1389Sol     OW 8511   1.829   2.054   7.324  0.4679  0.1823  0.8146
 1389Sol     HW 8512   1.737   2.043   7.300  1.1476 -1.8576 -0.9685
 1389Sol     HW 8513   1.854   1.971   7.363  1.4145  0.9263  1.8142
 1389Sol     MW 8514   1.823   2.046   7.325 -0.5762  0.1475 -0.3090
 1390Sol     OW 8515   0.867   2.670   8.837 -0.1160  0.1812 -0.2062
 1390Sol     HW 8516   0.807   2.703   8.904 -0.3871  0.7443 -0.7293
 1390Sol     HW 8517   0.884   2.745   8.780  1.0474  0.0180 -0.0972
 1390Sol     MW 8518   0.863   2.680   8.838 -0.1144 -0.7140 -0.2056
 1391Sol     OW 8519   2.084   0.930   6.688  0.1503  0.1009  0.5860
 1391Sol     HW 8520   2.152   0.890   6.742 -0.5308 -2.3588 -0.3593
 1391Sol     HW 8521   2.004   0.919   6.739  0.1833  1.6415  1.0036
 1391Sol     MW 8522   2.083   0.926   6.698 -0.0015  0.1085 -0.4832
 1392Sol     OW 8523   2.684   0.029   5.108 -0.4047  0.5570  0.3832
 1392Sol     HW 8524   2.706  -0.062   5.089  1.4580  1.1826 -0.4920
 1392Sol     HW 8525   2.626   0.055   5.037 -1.1526 -0.0214  0.7755
 1392Sol     MW 8526   2.681   0.023   5.100 -0.9558 -0.5077 -0.6376
 1393Sol     OW 8527   0.128   2.161   5.121 -0.5395  0.1094  0.3421
 1393Sol     HW 8528   0.206   2.173   5.068 -2.7094  2.8347 -2.4740
 1393Sol     HW 8529   0.124   2.239   5.176 -0.9496 -0.3207  0.9327
 1393Sol     MW 8530   0.134   2.169   5.121 -0.6033 -0.1410  0.4353
 1394Sol     OW 8531   1.795   0.822   2.811  0.3663  0.0567  0.2935
 1394Sol     HW 8532   1.778   0.901   2.862 -0.9085  0.1941 -0.3314
 1394Sol     HW 8533   1.890   0.808   2.820  0.5270  1.3659  0.8045
 1394Sol     MW 8534   1.802   0.828   2.817  0.2486  0.1595 -0.0838
 1395Sol     OW 8535   1.101   3.033   5.660  0.1838  0.7905  0.2908
 1395Sol     HW 8536   1.164   3.049   5.590  0.7335  0.4387  0.7071
 1395Sol     HW 8537   1.126   2.948   5.697 -2.0489 -0.5668 -1.1692
 1395Sol     MW 8538   1.109   3.027   5.657  0.1703  0.3152  0.1446
 1396Sol     OW 8539   0.769   0.301   8.636 -0.0413  0.3887  0.7778
 1396Sol     HW 8540   0.790   0.317   8.544 -0.5092 -0.0588  0.5904
 1396Sol     HW 8541   0.737   0.386   8.668 -3.0754 -0.2567 -0.3789
 1396Sol     MW 8542   0.768   0.310   8.631  0.7780  0.6651 -0.0061
 1397Sol     OW 8543   2.382   1.544   9.592 -0.1489  0.1009 -0.1377
 1397Sol     HW 8544   2.407   1.452   9.600  1.5958  0.4252 -1.4953
 1397Sol     HW 8545   2.376   1.559   9.498 -3.8150  0.5376  0.1124
 1397Sol     MW 8546   2.384   1.537   9.584 -0.7143  0.0948 -0.3045
 1398Sol     OW 8547   1.136   1.693   4.668  0.3054  0.0926  0.0496
 1398Sol     HW 8548   1.130   1.633   4.594 -1.4869  0.5329 -0.1766
 1398Sol     HW 8549   1.103   1.776   4.634  2.1902  1.0640  0.5334
 1398Sol     MW 8550   1.132   1.695   4.658  0.4036 -0.1749 -0.1983
 1399Sol     OW 8551   2.000   2.126   9.534  0.8512  0.2851 -0.0231
 1399Sol     HW 8552   2.062   2.197   9.548  0.1463  0.7858  0.5924
 1399Sol     HW 8553   1.998   2.079   9.617 -1.1793  1.5434  0.6808
 1399Sol     MW 8554   2.006   2.128   9.543 -0.3895  0.1320  0.4641
 1400Sol     OW 8555   2.284   2.334   2.159 -0.2619 -0.5796 -0.7802
 1400Sol     HW 8556   2.287   2.263   2.224  0.6293 -1.4678 -1.7764
 1400Sol     HW 8557   2.297   2.413   2.211 -1.2481 -1.1345  0.3479
 1400Sol     MW 8558   2.286   2.334   2.170 -0.2566 -0.4091 -0.2851
 1401Sol     OW 8559   2.772   0.555   9.890 -0.1931  0.0136 -0.3706
 1401Sol     HW 8560   2.683   0.561   9.925 -0.3277 -0.4383 -0.6319
 1401Sol     HW 8561   2.779   0.465   9.857  0.0711  0.3061 -1.1236
 1401Sol     MW 8562   2.765   0.547   9.890  0.5027  0.3058  0.0705
 1402Sol     OW 8563   0.528   2.447   7.437 -0.4487 -0.0949  0.0200
 1402Sol     HW 8564   0.470   2.481   7.369 -1.6696 -2.5842 -0.2245
 1402Sol     HW 8565   0.474   2.447   7.517  0.6874  1.9302  0.8339
 1402Sol     MW 8566   0.518   2.450   7.438 -0.3370  0.4444 -0.2501
 1403Sol     OW 8567   0.458   3.346   9.402  0.0089  0.4871 -0.2068
 1403Sol     HW 8568   0.466   3.351   9.497 -0.0517  0.8298 -0.2205
 1403Sol     HW 8569   0.530   3.288   9.375  0.6064  1.1498 -0.0412
 1403Sol     MW 8570   0.465   3.341   9.408  0.4222 -0.4754 -0.1102
 1404Sol     OW 8571   1.260   1.244   6.068  0.5760  0.1521  0.3320
 1404Sol     HW 8572   1.344   1.202   6.051 -0.1671 -1.3024  0.1957
 1404Sol     HW 8573   1.222   1.193   6.140 -0.4852  0.3705 -0.0730
 1404Sol     MW 8574   1.264   1.236   6.073  0.7420  0.5567  0.3760
 1405Sol     OW 8575   0.225   2.160   9.954 -0.2128  0.3560  0.5600
 1405Sol     HW 8576   0.303   2.117   9.988  0.1499  0.0491 -0.6567
 1405Sol     HW 8577   0.163   2.158  10.027 -0.2071 -2.2229  0.5243
 1405Sol     MW 8578   0.226   2.156   9.964 -0.0474 -0.2861 -0.1482
 1406Sol     OW 8579   2.549   0.553   5.046  0.4530  0.5541 -0.0253
 1406Sol     HW 8580   2.493   0.519   4.976  0.2347 -1.8918  1.2710
 1406Sol     HW 8581   2.518   0.508   5.125  2.4660  1.2294  1.1732
 1406Sol     MW 8582   2.541   0.546   5.047 -0.1993 -0.2610  0.0947
 1407Sol     OW 8583   2.037   1.074   7.843  0.1176 -0.3419  0.1963
 1407Sol     HW 8584   2.053   0.983   7.821 -1.3676 -0.8813  1.2294
 1407Sol     HW 8585   2.122   1.108   7.871  0.2926 -1.9674  1.6981
 1407Sol     MW 8586   2.046   1.069   7.844 -0.0944 -0.3687  0.0643
 1408Sol     OW 8587   0.221   2.002   4.161 -0.4562  0.5133 -0.2569
 1408Sol     HW 8588   0.231   1.914   4.197  2.0694  0.2475 -1.5001
 1408Sol     HW 8589   0.290   2.054   4.203 -0.3545  1.2903 -1.3659
 1408Sol     MW 8590   0.228   1.999   4.168 -0.2839 -0.5691  0.1596
 1409Sol     OW 8591   0.037   1.423   6.265 -0.0799 -0.1351 -0.5023
 1409Sol     HW 8592   0.037   1.341   6.314 -1.4359 -0.3964 -0.9146
 1409Sol     HW 8593   0.001   1.399   6.179 -0.3782  0.8679 -0.6610
 1409Sol     MW 8594   0.034   1.413   6.261  0.0783 -0.2895  0.3505
 1410Sol     OW 8595   0.120   1.146   6.350 -0.2058 -0.2897  0.6008
 1410Sol     HW 8596   0.144   1.080   6.415 -0.2004 -1.4372 -0.5357
 1410Sol     HW 8597   0.140   1.105   6.266 -2.8430  0.0733 -0.2500
 1410Sol     MW 8598   0.124   1.136   6.348  0.4238  0.7093  0.0841
 1411Sol     OW 8599   0.332   3.310   2.010  0.6237 -0.0548 -0.3707
 1411Sol     HW 8600   0.302   3.287   1.922 -1.2365 -1.6635  0.6343
 1411Sol     HW 8601   0.272   3.378   2.039 -0.4260 -1.3934  0.6400
 1411Sol     MW 8602   0.324   3.314   2.005 -0.1825  0.2395  0.1358
 1412Sol     OW 8603   0.347   0.654   7.414  0.1512  0.2150 -0.2312
 1412Sol     HW 8604   0.414   0.603   7.460 -0.8505 -2.0704 -1.2427
 1412Sol     HW 8605   0.374   0.652   7.322 -0.2285  1.0161 -0.3688
 1412Sol     MW 8606   0.355   0.649   7.410  0.0609  0.3667  0.1096
 1413Sol     OW 8607   1.361   1.544   9.530 -0.4569  0.1001  0.6874
 1413Sol     HW 8608   1.402   1.597   9.599 -2.0838  0.4497  1.4100
 1413Sol     HW 8609   1.348   1.458   9.572 -1.4055  0.2996  0.7911
 1413Sol     MW 8610   1.364   1.541   9.540  0.0155  0.4679 -0.0564
 1414Sol     OW 8611   0.927   3.357   9.966  0.6322 -0.2591  0.0650
 1414Sol     HW 8612   1.015   3.376   9.932  1.0422  0.0886  1.2714
 1414Sol     HW 8613   0.891   3.443   9.987 -0.3081 -0.3455 -1.1355
 1414Sol     MW 8614   0.932   3.367   9.965 -0.0921  0.1862  0.4878
 1415Sol     OW 8615   3.221   2.717   6.014  0.0625 -0.4012 -0.3643
 1415Sol     HW 8616   3.136   2.683   6.042  0.1440 -0.0198  0.3723
 1415Sol     HW 8617   3.205   2.810   5.998  0.0398 -0.5971 -1.5112
 1415Sol     MW 8618   3.212   2.722   6.015  0.2359  0.2578 -0.3320
 1416Sol     OW 8619   0.870   2.379   5.934  0.0427  0.1322 -0.3963
 1416Sol     HW 8620   0.906   2.290   5.934 -0.5254 -0.1088 -2.0453
 1416Sol     HW 8621   0.890   2.413   5.847 -2.1730  0.6016 -0.7503
 1416Sol     MW 8622   0.875   2.374   5.926 -0.2208  0.6992  0.1055
 1417Sol     OW 8623   1.714   1.801   2.678 -0.5783  0.4438 -0.4022
 1417Sol     HW 8624   1.652   1.874   2.671  0.3846  1.5152  1.7487
 1417Sol     HW 8625   1.786   1.825   2.620 -1.6709 -0.3349 -2.1370
 1417Sol     MW 8626   1.715   1.810   2.672  0.2142 -0.1529 -0.8352
 1418Sol     OW 8627   0.737   0.931   6.521  0.0072  0.1727 -0.0389
 1418Sol     HW 8628   0.822   0.973   6.533  0.6493 -0.8599 -0.8515
 1418Sol     HW 8629   0.749   0.873   6.446 -0.9485 -1.2118  0.8437
 1418Sol     MW 8630   0.746   0.930   6.516 -0.5073 -0.1183 -0.3052
 1419Sol     OW 8631   2.676   1.633   7.057 -0.0520  0.3813  0.2148
 1419Sol     HW 8632   2.719   1.555   7.093  1.7801  0.9155 -0.7310
 1419Sol     HW 8633   2.587   1.630   7.092 -0.7022 -3.2705 -1.4503
 1419Sol     MW 8634   2.672   1.626   7.063  0.1929  1.0004  0.6148
 1420Sol     OW 8635   2.830   2.074   4.861 -0.1682 -0.1423 -0.2145
 1420Sol     HW 8636   2.756   2.067   4.800 -1.3230  1.8148  0.9048
 1420Sol     HW 8637   2.857   2.166   4.855  1.8490 -0.7103 -0.2096
 1420Sol     MW 8638   2.826   2.081   4.855 -0.1018 -0.1405 -0.3441
 1421Sol     OW 8639   2.331   1.169   6.249  0.2329  0.1165  0.6070
 1421Sol     HW 8640   2.420   1.156   6.282 -0.0736 -1.2419  0.9206
 1421Sol     HW 8641   2.275   1.137   6.319 -0.4514 -1.3827 -0.5920
 1421Sol     MW 8642   2.334   1.165   6.258  0.3170 -0.0519 -0.4963
 1422Sol     OW 8643   0.270   0.611   7.980 -0.5596 -0.3128  0.0575
 1422Sol     HW 8644   0.303   0.552   7.913  1.5295  0.7450  0.1027
 1422Sol     HW 8645   0.242   0.689   7.932  1.3840  0.6386  0.3968
 1422Sol     MW 8646   0.271   0.613   7.970  0.1379  0.3691 -0.2054
 1423Sol     OW 8647   2.998   3.016   9.514  0.0911  0.2304 -0.1545
 1423Sol     HW 8648   3.056   3.091   9.532  1.6751 -1.3571  1.5376
 1423Sol     HW 8649   3.051   2.958   9.460 -0.9845  0.0885 -1.0813
 1423Sol     MW 8650   3.008   3.018   9.511  0.4081  0.3587  0.1048
 1424Sol     OW 8651   1.511   2.591   6.988 -0.4609 -0.2701  0.6615
 1424Sol     HW 8652   1.478   2.590   6.899  0.6908  0.4633  0.2147
 1424Sol     HW 8653   1.547   2.503   7.001  0.4187 -0.0168 -0.0069
 1424Sol     MW 8654   1.511   2.583   6.981 -0.0506 -0.2593 -0.1254
 1425Sol     OW 8655   2.142   1.672   8.297 -0.5463 -0.0627  0.1757
 1425Sol     HW 8656   2.193   1.591   8.304  0.8043  0.6918 -0.6251
 1425Sol     HW 8657   2.164   1.707   8.210 -0.1922  1.7545  0.9780
 1425Sol     MW 8658   2.149   1.668   8.290  0.0704  0.0160  0.3031
 1426Sol     OW 8659   3.189   2.363   7.256 -0.1975 -0.3168 -0.8296
 1426Sol     HW 8660   3.169   2.456   7.247 -0.2672 -0.3168 -0.6835
 1426Sol     HW 8661   3.247   2.343   7.183 -0.4541 -0.2344 -1.0579
 1426Sol     MW 8662   3.192   2.369   7.249  0.0733  0.0870  0.2175
 1427Sol     OW 8663   2.955   3.350   4.058 -0.1098 -0.0798  0.4030
 1427Sol     HW 8664   2.966   3.403   4.137 -1.4977  1.2038 -0.2373
 1427Sol     HW 8665   2.867   3.371   4.027  2.1019  3.2842 -4.2111
 1427Sol     MW 8666   2.948   3.357   4.062  0.2848  0.3073  0.9307
 1428Sol     OW 8667   2.496   0.914   7.826  0.0903  0.1799  0.6411
 1428Sol     HW 8668   2.432   0.857   7.868  0.4535  0.7302  1.9571
 1428Sol     HW 8669   2.575   0.860   7.819  0.4207  0.4900  1.8468
 1428Sol     MW 8670   2.498   0.904   7.829  0.0569  0.0098  0.9090
 1429Sol     OW 8671   3.049   3.183   5.777 -0.2748 -0.1579 -0.2507
 1429Sol     HW 8672   2.966   3.176   5.824 -0.2810 -1.1881 -0.3981
 1429Sol     HW 8673   3.092   3.260   5.815 -1.2418  0.3104 -0.1009
 1429Sol     MW 8674   3.046   3.189   5.785 -0.5431 -0.2473  0.5722
 1430Sol     OW 8675   1.893   1.267   5.919  0.4576  0.9483  0.3458
 1430Sol     HW 8676   1.980   1.282   5.955  0.4090  1.8939  0.0706
 1430Sol     HW 8677   1.902   1.286   5.825  0.2347 -0.0876  0.1065
 1430Sol     MW 8678   1.901   1.270   5.914 -0.3753 -0.0685  0.1994
 1431Sol     OW 8679   0.042   2.109   9.083  0.3503 -0.2619 -0.2056
 1431Sol     HW 8680   0.004   2.194   9.101 -1.1407 -0.7362 -0.9829
 1431Sol     HW 8681   0.102   2.124   9.010  1.2441  0.3893  0.6562
 1431Sol     MW 8682   0.044   2.118   9.078  0.2068 -0.0950  0.1851
 1432Sol     OW 8683   1.042   3.337   7.752  0.3520 -0.3424  0.3329
 1432Sol     HW 8684   1.052   3.328   7.847 -2.8739  1.1492  0.9000
 1432Sol     HW 8685   1.083   3.421   7.731 -0.7337  0.3192  0.7832
 1432Sol     MW 8686   1.046   3.344   7.758  0.2442 -0.0645  0.1520
 1433Sol     OW 8687   0.048   2.790   8.611 -0.9987  0.0172  0.6021
 1433Sol     HW 8688   0.028   2.700   8.637  0.4197 -0.2701  0.7655
 1433Sol     HW 8689  -0.035   2.837   8.618 -2.0860 -1.6300 -0.9627
 1433Sol     MW 8690   0.039   2.786   8.614  0.2106 -0.2034 -0.7807
 1434Sol     OW 8691   2.980   1.310   3.058 -0.6448 -0.2553  0.9467
 1434Sol     HW 8692   2.949   1.297   2.968  0.8728 -0.9185  0.4884
 1434Sol     HW 8693   2.959   1.228   3.103 -0.9189 -0.1272  1.0537
 1434Sol     MW 8694   2.975   1.301   3.054 -0.1660  0.3151 -0.1438
 1435Sol     OW 8695   1.061   2.569   6.819 -0.0844 -0.8129  0.3192
 1435Sol     HW 8696   1.101   2.535   6.739 -0.8616 -1.0199  0.0236
 1435Sol     HW 8697   1.135   2.579   6.880  0.7129  0.5778 -0.8431
 1435Sol     MW 8698   1.072   2.567   6.817  0.6064 -0.0904  0.0789
 1436Sol     OW 8699   0.643   2.736   5.165 -0.1351  0.4119 -0.6369
 1436Sol     HW 8700   0.549   2.750   5.159 -0.2760  0.1194  0.8001
 1436Sol     HW 8701   0.675   2.749   5.075 -1.5735  0.2133 -1.1858
 1436Sol     MW 8702   0.638   2.738   5.156  0.0901  0.1537  0.1519
 1437Sol     OW 8703   2.971   0.380   6.102 -0.4026 -0.1034  0.4343
 1437Sol     HW 8704   2.927   0.295   6.096 -1.5984  0.3749  2.2541
 1437Sol     HW 8705   3.063   0.358   6.119 -0.1731 -1.0617 -1.8121
 1437Sol     MW 8706   2.975   0.370   6.103  0.3339 -0.2056  0.0952
 1438Sol     OW 8707   0.024   2.353   6.550  0.6084  0.0995 -0.5666
 1438Sol     HW 8708   0.106   2.401   6.551 -0.2917  1.7332 -1.8569
 1438Sol     HW 8709   0.011   2.330   6.458 -0.4819  0.0160 -0.3997
 1438Sol     MW 8710   0.030   2.355   6.542 -0.1778 -0.3044 -0.1392
 1439Sol     OW 8711   1.731   1.877   3.064 -0.0392  0.2788  0.2119
 1439Sol     HW 8712   1.818   1.918   3.061 -0.1567  0.5397  0.3879
 1439Sol     HW 8713   1.673   1.940   3.021  0.2923 -0.9938 -2.2058
 1439Sol     MW 8714   1.734   1.887   3.060 -0.0156  0.0013  0.1729
 1440Sol     OW 8715   2.550   2.258   7.174 -0.9166  0.3455  0.0024
 1440Sol     HW 8716   2.484   2.293   7.115 -0.1904  0.2500 -0.8732
 1440Sol     HW 8717   2.539   2.309   7.255 -1.3911  1.0132 -0.4801
 1440Sol     MW 8718   2.543   2.266   7.176  0.8717  0.0513  1.0831
 1441Sol     OW 8719   1.877   2.641   2.420  0.4742 -0.3580 -0.1432
 1441Sol     HW 8720   1.833   2.690   2.350  0.3462 -0.5560 -0.2007
 1441Sol     HW 8721   1.854   2.689   2.500  0.3608 -0.3164 -0.2006
 1441Sol     MW 8722   1.871   2.650   2.421 -0.4207  0.3439  0.3245
 1442Sol     OW 8723   3.017   1.428   5.473 -0.3890 -0.2034  0.0605
 1442Sol     HW 8724   2.941   1.477   5.440 -1.0218 -1.9520 -1.1249
 1442Sol     HW 8725   3.019   1.448   5.567 -0.2721  2.5527 -0.4785
 1442Sol     MW 8726   3.010   1.434   5.478  0.0969 -0.4894 -0.1795
 1443Sol     OW 8727   1.651   3.010   9.316 -0.3050  0.3799  0.1132
 1443Sol     HW 8728   1.692   3.068   9.251 -1.4645  0.0127 -0.9720
 1443Sol     HW 8729   1.564   3.049   9.331 -0.7447 -0.5724  0.0457
 1443Sol     MW 8730   1.647   3.019   9.311  0.3838  0.1932 -0.1656
 1444Sol     OW 8731   0.357   0.888   6.313  0.3119  0.3496 -0.0103
 1444Sol     HW 8732   0.304   0.916   6.238 -1.4145  1.8256  1.6930
 1444Sol     HW 8733   0.439   0.938   6.304  0.5400 -0.2732 -1.4657
 1444Sol     MW 8734   0.360   0.895   6.306  0.5551  0.0114  0.0065
 1445Sol     OW 8735   0.801   2.624   6.377 -0.4698 -0.1786  0.1741
 1445Sol     HW 8736   0.738   2.554   6.394  0.8487 -1.0434  1.7233
 1445Sol     HW 8737   0.804   2.632   6.282 -3.0622  0.0315  0.0813
 1445Sol     MW 8738   0.796   2.619   6.370  0.0743 -0.0775  0.2215
 1446Sol     OW 8739   0.502   0.025   5.906  0.2439 -0.5607  0.0277
 1446Sol     HW 8740   0.597   0.017   5.895  0.2768  0.4232 -0.4585
 1446Sol     HW 8741   0.480  -0.039   5.973  1.5132  0.4595  1.4472
 1446Sol     MW 8742   0.509   0.018   5.911  0.2157 -0.4858 -0.4788
 1447Sol     OW 8743   0.790   1.851   9.585  0.1026 -0.2787 -0.6659
 1447Sol     HW 8744   0.830   1.868   9.500  0.9209  2.5178  0.2098
 1447Sol     HW 8745   0.713   1.909   9.587  1.0805  1.0120  1.1491
 1447Sol     MW 8746   0.787   1.858   9.578 -0.3290  0.2166  0.5947
 1448Sol     OW 8747   1.645   0.496   3.333 -0.2634 -0.1100  0.1182
 1448Sol     HW 8748   1.690   0.456   3.407  1.7710  0.6914 -0.6596
 1448Sol     HW 8749   1.624   0.585   3.363  1.0666  0.4044 -0.4489
 1448Sol     MW 8750   1.647   0.500   3.342  1.0615 -0.4461 -0.4892
 1449Sol     OW 8751   1.566   1.836   8.416  0.5374 -0.6278 -0.2247
 1449Sol     HW 8752   1.519   1.904   8.464 -0.2828 -0.7768 -0.7943
 1449Sol     HW 8753   1.620   1.793   8.482  0.2215 -0.1446  0.3565
 1449Sol     MW 8754   1.567   1.838   8.426 -0.2574 -0.6027 -0.0071
 1450Sol     OW 8755   1.279   0.942   3.631 -0.8922 -0.4136 -0.0804
 1450Sol     HW 8756   1.250   1.014   3.576  0.1798  0.9564  1.1148
 1450Sol     HW 8757   1.210   0.932   3.696 -0.8837 -0.2244 -0.0411
 1450Sol     MW 8758   1.270   0.947   3.632 -0.1272  0.0823 -0.1167
 1451Sol     OW 8759   1.764   3.303   2.012 -0.4737  0.2448 -0.6307
 1451Sol     HW 8760   1.811   3.363   1.954  0.0023  2.3174  1.8522
 1451Sol     HW 8761   1.672   3.331   2.007  0.0032  2.4820  1.9572
 1451Sol     MW 8762   1.760   3.311   2.006 -0.0008  0.4558 -0.0899
 1452Sol     OW 8763   0.691   0.258   7.116  0.3042  0.4302 -0.0745
 1452Sol     HW 8764   0.683   0.297   7.029  0.6650 -0.4361 -0.5094
 1452Sol     HW 8765   0.771   0.205   7.111  1.6552  2.2575  1.5195
 1452Sol     MW 8766   0.698   0.256   7.108  0.1866  0.1735  0.4044
 1453Sol     OW 8767   2.593   0.322   8.801 -0.1001 -0.2305  0.0930
 1453Sol     HW 8768   2.619   0.313   8.893 -0.2850  0.1427  0.1820
 1453Sol     HW 8769   2.650   0.262   8.754  0.8430  0.4883  0.3054
 1453Sol     MW 8770   2.600   0.316   8.805  0.5479  0.0961  0.2430
 1454Sol     OW 8771   0.363   2.483   6.893 -0.0797 -0.2476 -0.1579
 1454Sol     HW 8772   0.308   2.540   6.840 -0.8018 -0.0354  0.7916
 1454Sol     HW 8773   0.331   2.495   6.983  1.1403 -0.5465  0.3441
 1454Sol     MW 8774   0.356   2.489   6.897 -0.2104  0.4403  0.0480
 1455Sol     OW 8775   0.596   2.952   7.194 -0.0042  0.2242  0.4257
 1455Sol     HW 8776   0.552   2.911   7.268  0.9022  0.7777  1.2813
 1455Sol     HW 8777   0.560   3.040   7.189 -0.2427  0.1050  0.0600
 1455Sol     MW 8778   0.589   2.956   7.200  0.1595  0.3585  0.0284
 1456Sol     OW 8779   1.410   2.138   9.943 -0.0447 -0.4911  0.1259
 1456Sol     HW 8780   1.331   2.085   9.941  0.6895 -1.5649 -0.4110
 1456Sol     HW 8781   1.410   2.185   9.860 -0.0935 -0.5071  0.1177
 1456Sol     MW 8782   1.403   2.138   9.936  0.0212  0.1992  0.0556
 1457Sol     OW 8783   0.547   1.505   6.934 -0.2389  0.2669 -0.2820
 1457Sol     HW 8784   0.542   1.543   7.022 -1.2379 -0.0247 -0.2006
 1457Sol     HW 8785   0.635   1.527   6.903  0.1270  0.3655  0.7957
 1457Sol     MW 8786   0.554   1.510   6.939 -0.2767  0.1715  0.0986
 1458Sol     OW 8787   0.609   2.931   7.496 -0.2970  0.7512  0.6544
 1458Sol     HW 8788   0.548   2.864   7.528 -1.2513  1.9821  1.4645
 1458Sol     HW 8789   0.683   2.881   7.460 -2.7421 -0.8247 -2.4200
 1458Sol     MW 8790   0.610   2.921   7.496 -0.0402  0.1882 -0.0597
 1459Sol     OW 8791   2.313   2.015   4.369  0.0186  1.1632 -0.9460
 1459Sol     HW 8792   2.283   2.015   4.459 -3.5429 -1.0135 -2.0296
 1459Sol     HW 8793   2.396   1.968   4.371 -0.6975 -0.0483  1.0116
 1459Sol     MW 8794   2.318   2.011   4.377 -0.4096  0.7234  0.1821
 1460Sol     OW 8795   1.386   1.622   4.745 -0.1638  0.3762  0.3072
 1460Sol     HW 8796   1.366   1.530   4.763 -1.0585  0.6117  0.5605
 1460Sol     HW 8797   1.306   1.656   4.705  0.9305  0.5160 -1.7792
 1460Sol     MW 8798   1.377   1.616   4.743  0.4373 -0.7225  0.1425
 1461Sol     OW 8799   2.730   0.475   3.706 -0.4471  0.4575 -0.0817
 1461Sol     HW 8800   2.784   0.511   3.776  0.7744  0.9602 -1.2601
 1461Sol     HW 8801   2.783   0.406   3.667 -0.5747  1.0651 -1.3620
 1461Sol     MW 8802   2.739   0.472   3.709  0.4855 -0.1422  0.3366
 1462Sol     OW 8803   0.857   0.556   3.551 -0.1494 -0.8821  0.6551
 1462Sol     HW 8804   0.836   0.471   3.514 -1.1567  0.2739 -1.5243
 1462Sol     HW 8805   0.942   0.578   3.512  0.8637 -1.5547  2.4323
 1462Sol     MW 8806   0.863   0.550   3.544  0.2030 -0.1642  0.3549
 1463Sol     OW 8807   0.413   1.792   8.407 -0.8579 -0.1399 -0.1500
 1463Sol     HW 8808   0.364   1.711   8.420 -0.7096  0.1663  2.4467
 1463Sol     HW 8809   0.505   1.765   8.405 -0.7742  0.0366  1.3238
 1463Sol     MW 8810   0.417   1.783   8.408  0.1610 -0.4284 -0.1543
 1464Sol     OW 8811   1.811   3.392   8.734 -0.1083  0.2029  0.1508
 1464Sol     HW 8812   1.876   3.430   8.793  0.5252  0.6563 -0.8311
 1464Sol     HW 8813   1.750   3.463   8.717  1.2020  0.8707 -1.8662
 1464Sol     MW 8814   1.811   3.402   8.738  0.0269 -0.5558  0.0623
 1465Sol     OW 8815   0.315   3.018   6.982 -0.7760 -0.1287  0.2510
 1465Sol     HW 8816   0.371   2.957   6.933 -0.6723 -0.7299  1.0952
 1465Sol     HW 8817   0.376   3.064   7.040 -1.1279 -0.7234  1.1135
 1465Sol     MW 8818   0.326   3.016   6.983  0.0539 -0.6954  0.3131
 1466Sol     OW 8819   2.617   1.716   7.996 -0.1101  0.1345  0.0149
 1466Sol     HW 8820   2.598   1.736   8.088 -0.0885 -0.4598  0.1536
 1466Sol     HW 8821   2.660   1.630   7.999 -1.5821 -0.6504 -0.6755
 1466Sol     MW 8822   2.619   1.710   8.005  0.5836 -0.2532  0.1794
 1467Sol     OW 8823   0.174   0.790   7.771 -0.6684  0.8249  0.0557
 1467Sol     HW 8824   0.093   0.744   7.748 -0.0638 -0.2801  0.0841
 1467Sol     HW 8825   0.228   0.783   7.693 -0.4329  1.1784  0.1868
 1467Sol     MW 8826   0.171   0.785   7.762 -0.3596  0.2425  0.3644
 1468Sol     OW 8827   3.017   0.195   4.169 -0.0634  0.7128  0.3967
 1468Sol     HW 8828   3.073   0.246   4.111  1.3019 -1.4601 -0.2499
 1468Sol     HW 8829   3.067   0.186   4.250  0.1981 -0.5388  0.1081
 1468Sol     MW 8830   3.027   0.199   4.171 -0.2777  0.3475 -0.2010
 1469Sol     OW 8831   0.493   3.030   5.819  0.1730  0.1099 -0.5407
 1469Sol     HW 8832   0.493   3.065   5.908 -0.9940  0.8493 -0.8128
 1469Sol     HW 8833   0.569   3.071   5.777  0.5228  0.0315  0.0176
 1469Sol     MW 8834   0.500   3.037   5.823  0.6517 -0.6727 -0.1162
 1470Sol     OW 8835   1.457   0.216   3.816  0.0636  0.2142  0.5411
 1470Sol     HW 8836   1.493   0.304   3.805 -0.8089  0.2360 -2.8439
 1470Sol     HW 8837   1.363   0.228   3.821  0.1171 -0.3034  3.4958
 1470Sol     MW 8838   1.452   0.225   3.815  0.0801 -0.4024  0.1124
 1471Sol     OW 8839   1.321   2.147   7.364  0.2582 -0.4336  0.6277
 1471Sol     HW 8840   1.322   2.227   7.311 -2.2456  0.1500  1.3696
 1471Sol     HW 8841   1.298   2.177   7.452  2.2842 -1.6435  1.6088
 1471Sol     MW 8842   1.319   2.157   7.367 -0.1527 -0.4636  0.0979
 1472Sol     OW 8843   2.152   2.635   9.981 -0.2342  0.2838  0.0008
 1472Sol     HW 8844   2.162   2.729   9.970 -0.5491  0.4306  0.8931
 1472Sol     HW 8845   2.197   2.596   9.906  0.6765  1.1199  0.1111
 1472Sol     MW 8846   2.157   2.640   9.974 -0.0776  0.0093  0.1895
 1473Sol     OW 8847   2.378   0.920   4.713  0.2157 -0.1977  0.2390
 1473Sol     HW 8848   2.383   0.926   4.618  0.2102 -2.0117  0.1185
 1473Sol     HW 8849   2.405   1.007   4.744  0.3388  0.3560 -1.3982
 1473Sol     MW 8850   2.380   0.928   4.707 -0.2751 -0.0014  0.1242
 1474Sol     OW 8851   1.085   2.029   2.478 -0.5654  0.2370  0.1656
 1474Sol     HW 8852   1.053   2.118   2.461  1.4400  0.7808 -0.9917
 1474Sol     HW 8853   1.143   2.038   2.554 -0.8475 -0.2005  0.4355
 1474Sol     MW 8854   1.087   2.038   2.483  0.3510  0.1850  0.2593
 1475Sol     OW 8855   1.677   0.609   2.604 -0.6120  0.3689  0.9480
 1475Sol     HW 8856   1.719   0.659   2.675  0.7371  0.7811 -0.1192
 1475Sol     HW 8857   1.750   0.565   2.560 -1.7877 -2.7384  1.9573
 1475Sol     MW 8858   1.688   0.610   2.607  0.3620  0.2274  0.3300
 1476Sol     OW 8859   3.013   0.900   7.602  0.4034 -0.1924 -0.1775
 1476Sol     HW 8860   2.952   0.906   7.675  0.1668  1.4306 -0.4905
 1476Sol     HW 8861   3.080   0.965   7.621  1.5586 -1.3177 -0.3021
 1476Sol     MW 8862   3.014   0.906   7.610 -0.3677  0.2505 -0.2032
 1477Sol     OW 8863   1.358   0.936   5.367 -0.5785 -0.0351 -0.0688
 1477Sol     HW 8864   1.297   0.878   5.412 -0.1869 -0.1294  0.3514
 1477Sol     HW 8865   1.351   1.019   5.413  1.9521 -0.9525  2.0701
 1477Sol     MW 8866   1.352   0.938   5.375 -0.5588 -0.5001 -0.5047
 1478Sol     OW 8867   0.020   0.247   4.030  0.5896  0.1317 -0.0653
 1478Sol     HW 8868   0.040   0.332   4.069 -0.4341  0.2409  0.2387
 1478Sol     HW 8869   0.101   0.198   4.037  1.4702  1.3908 -1.0543
 1478Sol     MW 8870   0.029   0.251   4.034 -0.0556  0.2470 -0.3463
 1479Sol     OW 8871   1.255   2.350   6.107  0.2448 -0.4552 -0.1841
 1479Sol     HW 8872   1.215   2.432   6.079 -1.6004 -1.2017  0.2111
 1479Sol     HW 8873   1.331   2.340   6.051  0.4400  1.4863 -0.2891
 1479Sol     MW 8874   1.258   2.356   6.100  0.4315 -0.2795  0.3547
 1480Sol     OW 8875   2.696   1.865   5.236  0.5242  0.5711 -0.0753
 1480Sol     HW 8876   2.776   1.917   5.237  0.8110  0.1207  0.3002
 1480Sol     HW 8877   2.712   1.798   5.170 -0.3112  1.6830 -1.4385
 1480Sol     MW 8878   2.705   1.864   5.230  0.2183  0.6560  0.0555
 1481Sol     OW 8879   1.525   3.334   4.946  0.0172  0.3510  0.1344
 1481Sol     HW 8880   1.461   3.366   5.008 -0.4513 -0.2998 -0.0052
 1481Sol     HW 8881   1.520   3.394   4.872  0.4695  1.0381  0.6522
 1481Sol     MW 8882   1.519   3.342   4.945  0.1643 -0.6190  0.1598
 1482Sol     OW 8883   2.797   2.471   7.016  0.8092  0.1587  0.6399
 1482Sol     HW 8884   2.750   2.554   7.021  0.2317 -0.0508 -1.0537
 1482Sol     HW 8885   2.850   2.478   6.936  0.8248 -1.0491  0.5266
 1482Sol     MW 8886   2.798   2.479   7.009  0.1965 -0.7205 -0.0520
 1483Sol     OW 8887   2.300   2.698   7.309  0.2175 -0.0814  0.2744
 1483Sol     HW 8888   2.217   2.661   7.338 -0.1624 -0.0295 -0.7153
 1483Sol     HW 8889   2.286   2.718   7.216  0.8057  1.4583  0.5096
 1483Sol     MW 8890   2.291   2.697   7.303  0.1258  0.2924  0.6300
 1484Sol     OW 8891   0.287   0.242   6.415  0.0779  0.4235  0.8176
 1484Sol     HW 8892   0.318   0.193   6.492 -1.2098 -1.7707 -0.0030
 1484Sol     HW 8893   0.195   0.219   6.408  0.1817  0.5711 -1.3915
 1484Sol     MW 8894   0.282   0.235   6.422  0.7672 -0.4051 -0.6257
 1485Sol     OW 8895   2.051   0.272   9.794 -0.2545 -0.0211  0.5852
 1485Sol     HW 8896   1.991   0.345   9.811 -0.4285 -0.4257  1.7310
 1485Sol     HW 8897   1.995   0.201   9.766 -0.0113  0.5030 -1.2608
 1485Sol     MW 8898   2.041   0.272   9.793 -0.8355  0.5764 -0.1637
 1486Sol     OW 8899   1.415   0.872   2.058 -0.0534  0.5189 -0.0011
 1486Sol     HW 8900   1.332   0.885   2.103 -0.9259 -0.1780 -1.3729
 1486Sol     HW 8901   1.479   0.859   2.128 -1.2212  0.3683  1.0500
 1486Sol     MW 8902   1.414   0.872   2.068  0.5530 -0.3549 -0.2244
 1487Sol     OW 8903   2.294   1.787   5.040 -0.5770 -0.1537 -0.0492
 1487Sol     HW 8904   2.241   1.709   5.024  0.2881 -0.9023  0.7074
 1487Sol     HW 8905   2.367   1.780   4.978 -1.4198  0.9438 -1.1844
 1487Sol     MW 8906   2.296   1.780   5.033  0.1938 -0.3227 -0.5685
 1488Sol     OW 8907   1.433   0.133   6.215 -0.2645  0.6552 -0.7218
 1488Sol     HW 8908   1.469   0.209   6.170  1.2412  0.9947  1.0460
 1488Sol     HW 8909   1.510   0.083   6.243 -1.1895  0.3583  1.3221
 1488Sol     MW 8910   1.443   0.135   6.213 -0.2269  0.1374 -0.3085
 1489Sol     OW 8911   0.308   2.945   4.518 -0.1790  0.1209 -0.2734
 1489Sol     HW 8912   0.259   2.882   4.570  2.6228 -1.2543  0.7947
 1489Sol     HW 8913   0.321   2.902   4.434  0.2571 -0.0186 -0.1345
 1489Sol     MW 8914   0.304   2.936   4.515  0.0673 -0.2822 -0.1723
 1490Sol     OW 8915   2.892   2.220   5.917  0.5972  0.4548  0.1291
 1490Sol     HW 8916   2.830   2.273   5.866  0.3912  1.0246  0.9506
 1490Sol     HW 8917   2.916   2.148   5.859  0.5740  1.2400 -0.8612
 1490Sol     MW 8918   2.888   2.218   5.907  0.1672  0.0516 -0.6356
 1491Sol     OW 8919   2.950   0.775   9.232  0.6711  0.4356 -0.8426
 1491Sol     HW 8920   3.018   0.741   9.289  1.0769  0.7200 -1.1564
 1491Sol     HW 8921   2.952   0.718   9.156  0.2344  0.1516 -0.6422
 1491Sol     MW 8922   2.956   0.767   9.230 -0.4885  0.1919 -0.0909
 1492Sol     OW 8923   2.144   0.632   5.907 -0.2704 -0.1093  0.1413
 1492Sol     HW 8924   2.153   0.540   5.884 -0.3278 -0.3086  0.9106
 1492Sol     HW 8925   2.217   0.649   5.966 -0.9377  0.0398  0.9233
 1492Sol     MW 8926   2.151   0.626   5.910 -1.4429  0.3288  0.1534
 1493Sol     OW 8927   3.125   0.014   2.465  0.6302  0.1635  0.5030
 1493Sol     HW 8928   3.126   0.064   2.383  2.7833  0.2770  0.5671
 1493Sol     HW 8929   3.048  -0.042   2.459  0.4512  0.5975 -1.3479
 1493Sol     MW 8930   3.119   0.014   2.457 -0.2331  0.0289  0.1640
 1494Sol     OW 8931   2.631   0.143   6.453 -0.2068  0.0467  0.1289
 1494Sol     HW 8932   2.600   0.192   6.377 -1.4703  0.4659  0.8932
 1494Sol     HW 8933   2.651   0.210   6.519  0.7502 -0.3152  0.2143
 1494Sol     MW 8934   2.630   0.153   6.452 -0.0097  0.3478  0.0567
 1495Sol     OW 8935   0.091   1.191   8.963  0.2048  0.3647 -0.1504
 1495Sol     HW 8936   0.182   1.208   8.940  0.2643  0.7342  0.3403
 1495Sol     HW 8937   0.056   1.277   8.986  0.2815 -0.0353  1.5802
 1495Sol     MW 8938   0.096   1.201   8.963 -0.2205  0.2865 -0.5296
 1496Sol     OW 8939   2.176   2.257   5.741 -0.4355 -0.3752  0.0467
 1496Sol     HW 8940   2.089   2.273   5.704 -0.8430 -1.4096  0.5497
 1496Sol     HW 8941   2.179   2.313   5.819 -0.9990 -1.0414  0.5479
 1496Sol     MW 8942   2.168   2.264   5.744 -0.2330 -0.7327 -0.0335
 1497Sol     OW 8943   1.599   2.452   9.128  0.2934 -0.3476  0.3276
 1497Sol     HW 8944   1.560   2.539   9.121  1.9857  0.2722 -2.1234
 1497Sol     HW 8945   1.604   2.436   9.223 -2.8619  0.8650  0.7570
 1497Sol     MW 8946   1.596   2.458   9.136  0.7211  0.1811  0.1996
 1498Sol     OW 8947   0.318   3.102   8.019  0.3184  0.4079 -0.4547
 1498Sol     HW 8948   0.324   3.107   7.924  1.3674 -0.6721 -0.4592
 1498Sol     HW 8949   0.408   3.082   8.048 -0.6549 -3.0024  0.4852
 1498Sol     MW 8950   0.327   3.101   8.013  0.5451  0.4757 -0.5178
 1499Sol     OW 8951   2.375   3.352   9.733 -0.4602  0.2711 -0.0391
 1499Sol     HW 8952   2.391   3.293   9.660  3.0719  3.1498 -1.7771
 1499Sol     HW 8953   2.403   3.303   9.811 -1.3864 -1.7131 -0.9223
 1499Sol     MW 8954   2.379   3.343   9.734 -0.1983  0.7180  0.0646
 1500Sol     OW 8955   0.687   2.754   5.457  0.2384  0.0670  0.1068
 1500Sol     HW 8956   0.703   2.751   5.363  0.1914  0.2656  0.0914
 1500Sol     HW 8957   0.600   2.715   5.468  0.6333 -0.8161  0.1660
 1500Sol     MW 8958   0.681   2.750   5.450  0.0132 -0.2088 -0.3561
 1501Sol     OW 8959   2.352   2.240   3.013 -0.0344  0.1499  0.1950
 1501Sol     HW 8960   2.335   2.175   2.945 -0.9113  0.0738  0.4949
 1501Sol     HW 8961   2.447   2.256   3.006  0.0517 -0.5656 -0.4003
 1501Sol     MW 8962   2.359   2.236   3.006  0.5443  0.6077 -0.4087
 1502Sol     OW 8963   1.554   2.017   7.295  0.6621  0.0308 -0.2577
 1502Sol     HW 8964   1.527   1.976   7.213  3.5044 -0.0921 -1.2007
 1502Sol     HW 8965   1.485   2.080   7.314  0.0409  0.2028 -2.8797
 1502Sol     MW 8966   1.546   2.019   7.289  0.0831 -0.1587  0.5238
 1503Sol     OW 8967   2.616   0.790   8.917  0.4015  0.0163  0.2552
 1503Sol     HW 8968   2.551   0.858   8.900 -1.2621 -1.6157  0.0044
 1503Sol     HW 8969   2.636   0.799   9.010  1.3653  1.8409 -0.1010
 1503Sol     MW 8970   2.612   0.797   8.924  0.4839  0.0286 -0.6680
 1504Sol     OW 8971   2.023   2.755   6.314 -0.4430  0.1363 -0.5571
 1504Sol     HW 8972   1.991   2.805   6.389  0.2007 -1.1750  0.6355
 1504Sol     HW 8973   1.944   2.717   6.275 -0.6384 -0.6520  0.5680
 1504Sol     MW 8974   2.013   2.756   6.317  0.0391 -0.5085  0.0582
 1505Sol     OW 8975   1.169   1.281   5.280  0.0161 -0.5360  0.1686
 1505Sol     HW 8976   1.224   1.233   5.342  0.2104  0.1385  0.5139
 1505Sol     HW 8977   1.096   1.222   5.262  0.7363 -1.3530 -0.1256
 1505Sol     MW 8978   1.168   1.271   5.284  0.5214 -1.2618  0.6556
 1506Sol     OW 8979   2.827   0.143   8.722  0.0801 -0.0133  0.5030
 1506Sol     HW 8980   2.804   0.103   8.806 -1.0793 -1.1747 -0.3416
 1506Sol     HW 8981   2.895   0.085   8.686  2.5961  2.0085  1.8478
 1506Sol     MW 8982   2.831   0.134   8.726 -0.2798  0.2822  0.3728
 1507Sol     OW 8983   1.672   1.366   6.220  0.2400  0.2493 -0.3601
 1507Sol     HW 8984   1.669   1.452   6.180  0.1155  0.9429  1.1030
 1507Sol     HW 8985   1.612   1.372   6.294  0.8492 -0.8502  0.2369
 1507Sol     MW 8986   1.666   1.374   6.223 -0.2719  0.0608  0.2368
 1508Sol     OW 8987   1.711   2.383   9.942 -0.3036 -0.2223 -0.4552
 1508Sol     HW 8988   1.789   2.412   9.990 -0.9363  3.1190 -1.3144
 1508Sol     HW 8989   1.745   2.350   9.859  0.2847  0.5752 -0.5490
 1508Sol     MW 8990   1.721   2.383   9.939  0.2037  0.2243  0.0156
 1509Sol     OW 8991   2.205   2.367   4.174 -0.0699  0.2092 -0.1764
 1509Sol     HW 8992   2.266   2.330   4.238 -0.3357  0.7963  0.4246
 1509Sol     HW 8993   2.191   2.297   4.111  1.3180  0.1038 -0.3853
 1509Sol     MW 8994   2.209   2.358   4.174  0.0389 -0.1671  0.2412
 1510Sol     OW 8995   0.792   3.271   7.140  0.1613  0.8877 -0.4844
 1510Sol     HW 8996   0.801   3.195   7.082 -1.5468  1.9281 -2.1516
 1510Sol     HW 8997   0.737   3.240   7.212  0.3633  0.2584 -0.5968
 1510Sol     MW 8998   0.788   3.261   7.141  0.2505 -0.0596 -0.3618
 1511Sol     OW 8999   0.477   3.051   9.124 -0.0896  0.1060  0.1930
 1511Sol     HW 9000   0.454   3.018   9.037  0.7638 -1.0694  0.4055
 1511Sol     HW 9001   0.410   3.015   9.182  0.0422 -0.1100  0.2112
 1511Sol     MW 9002   0.469   3.045   9.121 -0.5149  1.4934 -0.3369
 1512Sol     OW 9003   3.005   2.790   7.795 -0.6982  0.2227 -0.4915
 1512Sol     HW 9004   2.928   2.733   7.799 -1.3020  0.8726 -2.0514
 1512Sol     HW 9005   3.044   2.785   7.881 -0.4896 -2.8929 -0.7392
 1512Sol     MW 9006   3.001   2.785   7.803  0.3414  0.0594 -0.6566
 1513Sol     OW 9007   0.957   1.916   9.784  0.0388  0.4162 -0.1795
 1513Sol     HW 9008   0.916   1.875   9.708 -0.1372  0.7774 -0.2833
 1513Sol     HW 9009   0.983   1.843   9.840 -0.4634  0.1717 -0.2614
 1513Sol     MW 9010   0.956   1.906   9.782  0.4898 -0.1942  0.2765
 1514Sol     OW 9011   2.830   1.485   9.998  0.4375  0.0390  0.1383
 1514Sol     HW 9012   2.914   1.491   9.952 -0.8985 -2.0134 -2.7111
 1514Sol     HW 9013   2.778   1.425   9.945 -2.7813  1.1051  1.9759
 1514Sol     MW 9014   2.833   1.480   9.989  0.3792  0.2977 -0.1736
 1515Sol     OW 9015   0.534   2.697   8.615  0.1146 -0.3065  0.0467
 1515Sol     HW 9016   0.510   2.723   8.526  0.7440 -1.5047 -0.4801
 1515Sol     HW 9017   0.602   2.759   8.640 -1.1080  0.9788  0.2727
 1515Sol     MW 9018   0.538   2.705   8.609 -0.3672 -0.5685  0.4719
 1516Sol     OW 9019   1.645   1.961   4.805 -0.1970  0.2531 -0.6310
 1516Sol     HW 9020   1.622   1.991   4.893  1.0077 -0.7935  0.0661
 1516Sol     HW 9021   1.616   2.032   4.747 -1.2190  0.8455  0.5816
 1516Sol     MW 9022   1.640   1.970   4.807 -0.1104 -0.3584 -0.0982
 1517Sol     OW 9023   2.664   1.419   4.273  0.3237  0.5575 -0.2010
 1517Sol     HW 9024   2.620   1.393   4.192  1.3053 -0.2247 -0.4810
 1517Sol     HW 9025   2.746   1.458   4.244  1.1102 -0.5887  0.4551
 1517Sol     MW 9026   2.667   1.420   4.263  0.4365 -0.0992  0.7534
 1518Sol     OW 9027   1.457   2.343   1.853  0.2205  0.5271 -0.2850
 1518Sol     HW 9028   1.494   2.423   1.891  1.2772  0.9830 -2.2552
 1518Sol     HW 9029   1.528   2.279   1.856  0.2330  0.4984 -1.3146
 1518Sol     MW 9030   1.466   2.344   1.857 -0.2325 -0.2352 -0.3488
 1519Sol     OW 9031   0.371   0.679   2.422 -0.4961 -0.1444 -0.4460
 1519Sol     HW 9032   0.366   0.639   2.509  1.5711  1.4431  0.4224
 1519Sol     HW 9033   0.296   0.738   2.418 -0.3643  0.0767  0.3982
 1519Sol     MW 9034   0.364   0.680   2.429  0.5597 -0.3195  0.1761
 1520Sol     OW 9035   0.972   1.409   2.374 -0.2169  0.1213 -0.1802
 1520Sol     HW 9036   0.923   1.490   2.362 -0.2499  0.1856  0.3601
 1520Sol     HW 9037   0.918   1.342   2.331  0.4954  0.6000 -1.8294
 1520Sol     MW 9038   0.962   1.410   2.369  0.5761  0.1040 -0.3944
 1521Sol     OW 9039   0.069   2.959   9.641  0.1447  0.1318 -0.1049
 1521Sol     HW 9040   0.146   3.005   9.606 -0.5767  1.5568  0.1153
 1521Sol     HW 9041   0.032   2.914   9.565  1.9732 -1.7169  0.0705
 1521Sol     MW 9042   0.072   2.959   9.631  0.5051  0.2106 -0.4549
 1522Sol     OW 9043   3.157   1.196   1.668  0.2957  0.5033 -0.1435
 1522Sol     HW 9044   3.076   1.167   1.711 -0.2361  0.7916 -0.9352
 1522Sol     HW 9045   3.197   1.116   1.635 -0.0020  0.4239 -0.3159
 1522Sol     MW 9046   3.153   1.186   1.669  0.1455 -0.3476  0.1773
 1523Sol     OW 9047   0.886   3.321   4.534 -0.6223 -0.2263 -0.4259
 1523Sol     HW 9048   0.917   3.401   4.578 -0.3569 -0.3007 -0.4790
 1523Sol     HW 9049   0.795   3.312   4.563  0.0212 -1.1543  1.3911
 1523Sol     MW 9050   0.881   3.328   4.541 -0.0539  0.1425 -0.3817
 1524Sol     OW 9051   1.557   2.434   6.240 -0.2057  0.1936 -0.0034
 1524Sol     HW 9052   1.582   2.344   6.261 -0.5270 -0.5214 -2.4585
 1524Sol     HW 9053   1.510   2.465   6.317  0.8200 -1.3748  1.2876
 1524Sol     MW 9054   1.555   2.429   6.249  0.7370  0.5157 -0.4321
 1525Sol     OW 9055   2.688   3.406   4.024  0.1935 -0.0030  0.0931
 1525Sol     HW 9056   2.626   3.478   4.033  1.6494  1.5288 -1.7330
 1525Sol     HW 9057   2.676   3.374   3.935  1.1168 -0.5389  0.1498
 1525Sol     MW 9058   2.682   3.410   4.017  0.0629 -0.2058  0.2100
 1526Sol     OW 9059   2.032   0.638   7.639 -0.0457 -0.4058 -0.0044
 1526Sol     HW 9060   2.053   0.707   7.575 -1.7515  0.0935 -0.0555
 1526Sol     HW 9061   2.018   0.560   7.586  0.6070 -0.5004 -0.0493
 1526Sol     MW 9062   2.033   0.637   7.628  0.5877 -0.0854  0.2123
 1527Sol     OW 9063   1.519   3.056  10.288 -0.1989 -0.0920  0.2099
 1527Sol     HW 9064   1.536   3.149  10.306  1.1146 -0.6549  1.9724
 1527Sol     HW 9065   1.429   3.042  10.318 -0.1071  0.4006  0.7153
 1527Sol     MW 9066   1.512   3.063  10.292  0.3952 -0.8465 -0.7665
 1528Sol     OW 9067   2.775   2.560   3.321 -0.1711  0.3818 -0.3773
 1528Sol     HW 9068   2.720   2.622   3.369 -1.0552  0.2146 -1.1757
 1528Sol     HW 9069   2.861   2.569   3.361 -0.5750  1.2644  0.3052
 1528Sol     MW 9070   2.778   2.566   3.329 -0.5825  0.0933  0.5584
 1529Sol     OW 9071   1.678   1.390   8.705 -0.2534 -0.0003  0.4609
 1529Sol     HW 9072   1.755   1.341   8.734 -0.0260  0.2404  0.2607
 1529Sol     HW 9073   1.708   1.440   8.629  0.2945  2.6835  2.3621
 1529Sol     MW 9074   1.687   1.390   8.701  0.5691  0.2655  0.0035
 1530Sol     OW 9075   2.117   2.846   2.700 -0.4603  0.3142  0.1929
 1530Sol     HW 9076   2.185   2.780   2.710 -0.5364 -0.1136 -1.8528
 1530Sol     HW 9077   2.046   2.801   2.654 -0.1683  2.0119 -1.9999
 1530Sol     MW 9078   2.117   2.836   2.696  0.4781  0.4652  0.7138
 1531Sol     OW 9079   3.015   2.501   6.519 -0.1237 -0.4546 -0.2537
 1531Sol     HW 9080   3.006   2.431   6.455  1.4461 -1.2500  0.3847
 1531Sol     HW 9081   3.107   2.500   6.545 -0.2801  1.2244  0.4697
 1531Sol     MW 9082   3.022   2.494   6.516 -0.1385 -0.4318  0.4631
 1532Sol     OW 9083   0.689   2.798   9.474  0.2731 -1.1164 -0.4006
 1532Sol     HW 9084   0.703   2.714   9.516  0.1977 -1.4955 -1.1286
 1532Sol     HW 9085   0.747   2.859   9.521 -1.2575 -1.1119  1.5381
 1532Sol     MW 9086   0.695   2.796   9.482  0.6483  0.2242 -0.0560
 1533Sol     OW 9087   2.397   1.672   7.112  0.3073  0.1665  0.2096
 1533Sol     HW 9088   2.338   1.728   7.061  0.5781 -1.1916 -1.6499
 1533Sol     HW 9089   2.340   1.603   7.146  0.3734  0.2816  0.5496
 1533Sol     MW 9090   2.387   1.671   7.110  0.2482 -0.2940 -0.0555
 1534Sol     OW 9091   2.561   1.580   2.328  0.2197  0.4231 -0.1818
 1534Sol     HW 9092   2.591   1.599   2.240  2.9297  1.5707  0.9340
 1534Sol     HW 9093   2.546   1.666   2.368 -0.2594 -0.0592  0.7056
 1534Sol     MW 9094   2.562   1.589   2.324  0.4911  0.4566 -0.1641
 1535Sol     OW 9095   2.980   2.284   8.870  0.3843 -0.1489  0.1694
 1535Sol     HW 9096   3.019   2.198   8.882  2.4225  0.6291 -0.6189
 1535Sol     HW 9097   2.942   2.282   8.782  0.8539 -0.0730 -0.0315
 1535Sol     MW 9098   2.980   2.276   8.863  0.2934  0.0445 -0.2982
 1536Sol     OW 9099   2.214   0.082   3.064  1.3701 -0.2312  0.1534
 1536Sol     HW 9100   2.247   0.011   3.009  0.1243 -1.0184  0.4208
 1536Sol     HW 9101   2.201   0.155   3.003  0.5728 -0.9086 -0.4968
 1536Sol     MW 9102   2.216   0.082   3.053  0.3114  0.4039  0.1505
 1537Sol     OW 9103   1.263   0.796   3.425  0.6462  0.6192  0.0064
 1537Sol     HW 9104   1.355   0.778   3.408  0.7045  3.2789 -2.8291
 1537Sol     HW 9105   1.263   0.845   3.507  1.6509  0.0726  0.3453
 1537Sol     MW 9106   1.271   0.798   3.431 -0.6694  0.0193 -0.8697
 1538Sol     OW 9107   1.506   2.661   2.401 -0.4454 -0.0412  0.1648
 1538Sol     HW 9108   1.421   2.701   2.419  0.0947  1.0820  0.2644
 1538Sol     HW 9109   1.554   2.728   2.351  0.2653 -0.7813 -0.1550
 1538Sol     MW 9110   1.503   2.671   2.398 -0.4383  0.4548 -0.3088
 1539Sol     OW 9111   3.117   1.544   8.286 -0.1440 -0.2539 -0.4147
 1539Sol     HW 9112   3.144   1.474   8.226  3.5785  0.1371  0.6716
 1539Sol     HW 9113   3.091   1.498   8.366 -0.5694 -0.5357 -0.7098
 1539Sol     MW 9114   3.117   1.533   8.288 -0.1304 -0.5019  0.0453
 1540Sol     OW 9115   0.873   2.134  10.179 -0.3842  0.7170  0.0401
 1540Sol     HW 9116   0.930   2.060  10.199 -1.3343 -0.4721 -1.5925
 1540Sol     HW 9117   0.924   2.211  10.207  0.5341 -0.5211  1.8971
 1540Sol     MW 9118   0.883   2.134  10.184  0.4121  0.5398 -0.0339
 1541Sol     OW 9119   0.850   2.242   7.880 -0.0875 -0.1415  0.0426
 1541Sol     HW 9120   0.776   2.206   7.928  1.4973 -0.2484  2.4825
 1541Sol     HW 9121   0.879   2.317   7.932  2.8858 -1.4369  0.3948
 1541Sol     MW 9122   0.846   2.245   7.889  0.0170 -0.2825 -0.3699
 1542Sol     OW 9123   1.506   0.027   5.362  0.2239 -0.3746 -0.2611
 1542Sol     HW 9124   1.473   0.083   5.432  0.4582 -2.0467  1.2276
 1542Sol     HW 9125   1.586   0.070   5.332 -0.1456  0.6164  0.1692
 1542Sol     MW 9126   1.510   0.036   5.365 -0.1615 -0.5456  0.2661
 1543Sol     OW 9127   1.657   2.093   6.957  0.4701  0.7509 -0.1709
 1543Sol     HW 9128   1.707   2.014   6.981  0.8849  0.9607 -0.3377
 1543Sol     HW 9129   1.664   2.098   6.862  0.4545  0.9989 -0.1584
 1543Sol     MW 9130   1.662   2.086   6.951 -0.0609 -0.0150 -0.1356
 1544Sol     OW 9131   1.066   0.891   9.768  0.0081 -0.1682  0.5734
 1544Sol     HW 9132   1.099   0.893   9.858  0.1754  0.3453  0.5067
 1544Sol     HW 9133   0.996   0.956   9.767  0.6230  0.4927  0.1052
 1544Sol     MW 9134   1.063   0.897   9.776  0.0893  0.0616  0.0068
 1545Sol     OW 9135   2.141   1.597  10.058  0.6229 -0.5277  0.1990
 1545Sol     HW 9136   2.233   1.620  10.074  0.6438  0.2501 -0.9083
 1545Sol     HW 9137   2.140   1.502  10.055  1.5621 -0.5234 -0.6268
 1545Sol     MW 9138   2.149   1.591  10.059  0.3894  0.1896 -0.0709
 1546Sol     OW 9139   1.546   2.235   4.132  0.3043 -0.6827  0.4619
 1546Sol     HW 9140   1.556   2.156   4.080 -0.2772 -1.0140  0.8463
 1546Sol     HW 9141   1.467   2.220   4.183 -0.3465  0.5538 -0.1687
 1546Sol     MW 9142   1.540   2.227   4.132  0.3162  0.2136  0.1823
 1547Sol     OW 9143   0.461   2.185   5.833  0.2614  0.0123 -0.6598
 1547Sol     HW 9144   0.424   2.123   5.896  0.8384  0.2682 -0.0677
 1547Sol     HW 9145   0.498   2.255   5.886 -1.8569  1.7241 -1.3720
 1547Sol     MW 9146   0.461   2.185   5.843 -0.1595  0.2554 -0.4083
 1548Sol     OW 9147   0.013   1.594   4.948 -0.1274 -0.0468 -0.3801
 1548Sol     HW 9148   0.006   1.525   5.014 -3.0599 -0.9389 -1.5181
 1548Sol     HW 9149   0.036   1.672   4.998  0.2284 -1.2183  1.3519
 1548Sol     MW 9150   0.014   1.595   4.958  0.0194  0.2371  0.1810
 1549Sol     OW 9151   0.351   0.512   6.432 -0.5736  0.3076 -0.0443
 1549Sol     HW 9152   0.441   0.480   6.423 -0.5557  0.5042 -0.6362
 1549Sol     HW 9153   0.298   0.441   6.396 -0.6476  0.2156  0.2521
 1549Sol     MW 9154   0.355   0.503   6.428  0.1519 -0.3417  0.5196
 1550Sol     OW 9155   0.862   0.242   9.139  0.3018  0.1539 -0.4284
 1550Sol     HW 9156   0.829   0.313   9.083 -1.2691 -1.9429 -2.2772
 1550Sol     HW 9157   0.945   0.218   9.099 -0.2991 -0.6103 -1.2396
 1550Sol     MW 9158   0.866   0.246   9.130 -0.6676  0.0262  0.2873
 1551Sol     OW 9159   2.806   2.224   9.097  1.0034 -0.1536 -0.2414
 1551Sol     HW 9160   2.882   2.242   9.041  0.9086 -0.5553 -0.5014
 1551Sol     HW 9161   2.787   2.307   9.139  2.2837 -0.3234  0.6819
 1551Sol     MW 9162   2.811   2.233   9.096  0.5577 -0.4091 -0.0154
 1552Sol     OW 9163   3.166   1.175   8.727 -1.1526 -0.1389  0.1211
 1552Sol     HW 9164   3.228   1.153   8.797  1.1047 -0.3975 -1.9190
 1552Sol     HW 9165   3.176   1.270   8.715  0.3682 -0.4843 -1.5720
 1552Sol     MW 9166   3.172   1.182   8.732 -0.3092 -0.1562  0.1169
 1553Sol     OW 9167   1.245   1.443   5.050 -0.2669 -0.3710 -0.1209
 1553Sol     HW 9168   1.168   1.476   5.004  0.3386  0.1088 -0.8087
 1553Sol     HW 9169   1.210   1.393   5.123 -1.2357 -0.6974 -0.8058
 1553Sol     MW 9170   1.235   1.442   5.052 -0.2046  0.4304 -0.2605
 1554Sol     OW 9171   2.172   0.087   9.505  0.3303 -0.0195  0.0727
 1554Sol     HW 9172   2.141   0.016   9.448 -0.2907  0.0263  0.3501
 1554Sol     HW 9173   2.140   0.064   9.592  2.4609 -0.7951  0.6568
 1554Sol     MW 9174   2.166   0.079   9.508  0.4112 -0.5054 -0.1906
 1555Sol     OW 9175   2.575   1.294   2.990 -0.0864  0.2220 -0.1856
 1555Sol     HW 9176   2.519   1.218   2.976  0.8817 -0.4047 -0.7300
 1555Sol     HW 9177   2.580   1.304   3.085 -1.6724  0.7144 -0.1382
 1555Sol     MW 9178   2.570   1.288   2.998  0.4394  0.2250 -0.2002
 1556Sol     OW 9179   3.186   0.386   3.640 -0.2069  0.1943  0.4531
 1556Sol     HW 9180   3.100   0.346   3.651 -0.2978  0.6376  1.3946
 1556Sol     HW 9181   3.249   0.318   3.663 -0.2860 -0.2116 -0.4850
 1556Sol     MW 9182   3.184   0.377   3.643 -0.0343 -0.1783 -0.0875
 1557Sol     OW 9183   1.949   0.259   3.199 -0.1881  0.0568 -0.2230
 1557Sol     HW 9184   1.859   0.286   3.181  0.2479  1.4153 -0.4207
 1557Sol     HW 9185   1.988   0.247   3.112  0.2078  0.8042 -0.1526
 1557Sol     MW 9186   1.945   0.260   3.190 -0.1575  0.2202  0.0607
 1558Sol     OW 9187   2.335   0.750   7.967  0.2699  0.1587  0.0262
 1558Sol     HW 9188   2.303   0.666   7.999  1.8100 -0.6409 -0.5077
 1558Sol     HW 9189   2.375   0.792   8.043 -2.0306  1.1972  0.7194
 1558Sol     MW 9190   2.335   0.747   7.977 -0.0353 -0.0728  0.2186
 1559Sol     OW 9191   1.134   3.037   2.793 -0.3412 -0.2192 -0.6162
 1559Sol     HW 9192   1.141   2.982   2.715 -0.0120  1.1455 -1.5658
 1559Sol     HW 9193   1.056   3.090   2.778 -0.7156 -0.4938  0.3365
 1559Sol     MW 9194   1.128   3.037   2.784  0.2085  0.3101 -0.0849
 1560Sol     OW 9195   2.566   3.412   1.856 -0.1089  0.0996 -0.6935
 1560Sol     HW 9196   2.641   3.419   1.796 -0.7846 -0.4104 -1.6057
 1560Sol     HW 9197   2.545   3.318   1.857 -0.0877  0.0982  0.3662
 1560Sol     MW 9198   2.571   3.404   1.851  0.8799 -0.0782 -0.1662
 1561Sol     OW 9199   2.332   2.588   2.265 -0.9652  0.2674 -0.2257
 1561Sol     HW 9200   2.287   2.657   2.216 -2.2067 -0.9889 -0.8821
 1561Sol     HW 9201   2.281   2.579   2.346 -0.8676  0.0508 -0.1877
 1561Sol     MW 9202   2.323   2.594   2.268  0.3210  0.2326 -0.4273
 1562Sol     OW 9203   3.222   0.566   6.445 -0.2090 -0.5224 -0.0083
 1562Sol     HW 9204   3.303   0.597   6.486 -0.5025  1.1534 -0.6356
 1562Sol     HW 9205   3.210   0.624   6.370 -0.6648 -2.3874 -1.3854
 1562Sol     MW 9206   3.228   0.574   6.442 -0.0668  0.2572 -0.2039
 1563Sol     OW 9207   2.120   1.025   4.234 -0.0805  0.3523 -0.5708
 1563Sol     HW 9208   2.105   1.113   4.268 -1.5281  0.9990 -2.7375
 1563Sol     HW 9209   2.128   1.038   4.139  2.5960 -1.5063 -0.6621
 1563Sol     MW 9210   2.120   1.034   4.228  0.3138  0.1884 -0.2266
 1564Sol     OW 9211   1.835   3.232   6.418 -0.0963 -0.4409 -0.0794
 1564Sol     HW 9212   1.904   3.291   6.387 -0.8666  0.3886 -0.2266
 1564Sol     HW 9213   1.879   3.176   6.482  0.2032  1.5467  1.4815
 1564Sol     MW 9214   1.845   3.232   6.421  0.1286  0.2977  0.1516
 1565Sol     OW 9215   2.212   1.028   8.256 -0.2439 -0.3558 -0.2301
 1565Sol     HW 9216   2.289   0.970   8.257  0.6690  0.7941 -1.4395
 1565Sol     HW 9217   2.249   1.116   8.270 -1.7102 -0.1295  2.6365
 1565Sol     MW 9218   2.222   1.031   8.257  0.3869  0.0465 -0.1261
 1566Sol     OW 9219   3.121   1.202   9.715 -0.6300  0.2463 -0.0414
 1566Sol     HW 9220   3.131   1.229   9.623 -1.8107  0.9388  0.0247
 1566Sol     HW 9221   3.082   1.115   9.710 -3.5564  1.5162 -0.1843
 1566Sol     MW 9222   3.118   1.196   9.706 -0.3527 -0.7256  0.8008
 1567Sol     OW 9223   0.460   2.273   2.059  0.5492  0.3859  0.0095
 1567Sol     HW 9224   0.379   2.235   2.093 -0.4118  1.6977 -0.7318
 1567Sol     HW 9225   0.457   2.256   1.965  1.3783  0.0173  0.0456
 1567Sol     MW 9226   0.452   2.268   2.054  0.1996  0.5940  0.3659
 1568Sol     OW 9227   1.086   0.464   8.938 -0.2280  0.0311  0.0325
 1568Sol     HW 9228   1.092   0.560   8.930  0.2979  0.0628  0.7640
 1568Sol     HW 9229   1.136   0.444   9.016  1.3046 -1.0513 -1.2077
 1568Sol     MW 9230   1.091   0.471   8.944 -0.5238 -0.3864 -0.2643
 1569Sol     OW 9231   1.432   0.139   4.698  0.6587 -0.5314  0.3572
 1569Sol     HW 9232   1.381   0.220   4.696  1.3970 -0.0398  1.1588
 1569Sol     HW 9233   1.446   0.117   4.606  0.5949  0.3390  0.1336
 1569Sol     MW 9234   1.428   0.144   4.690 -0.1395  0.0036 -0.5948
 1570Sol     OW 9235   1.215   1.014   4.022  0.3504  0.1581  0.7418
 1570Sol     HW 9236   1.190   0.947   4.086 -0.7584  2.3950  2.7060
 1570Sol     HW 9237   1.131   1.053   3.995  0.9764  0.6510 -0.5253
 1570Sol     MW 9238   1.205   1.011   4.025  0.2441  0.0862  0.3433
 1571Sol     OW 9239   0.571   2.110   4.142 -0.6728 -0.2657 -0.8259
 1571Sol     HW 9240   0.573   2.014   4.136 -2.7233 -0.3272 -0.9799
 1571Sol     HW 9241   0.538   2.127   4.230  1.1461  0.3283 -0.2449
 1571Sol     MW 9242   0.568   2.103   4.149 -0.0621 -0.4457  0.1022
 1572Sol     OW 9243   2.730   2.214  10.257 -0.2526  0.1073  0.4689
 1572Sol     HW 9244   2.813   2.166  10.254 -1.0447 -1.3763  1.6891
 1572Sol     HW 9245   2.682   2.185  10.180 -0.1551 -0.0093  0.4520
 1572Sol     MW 9246   2.733   2.207  10.250  0.1565  0.0946  0.3296
 1573Sol     OW 9247   0.639   0.370   5.240  0.1409  0.7960  0.2052
 1573Sol     HW 9248   0.606   0.406   5.322 -0.6908 -0.4904  0.4524
 1573Sol     HW 9249   0.594   0.421   5.172  0.7106  1.7558  0.5353
 1573Sol     MW 9250   0.632   0.378   5.241 -0.4915 -0.0342  0.1004
 1574Sol     OW 9251   1.061   0.044   6.495  0.5124  0.1876 -0.3250
 1574Sol     HW 9252   1.039  -0.004   6.415  0.5582 -0.7690  0.2306
 1574Sol     HW 9253   0.993   0.019   6.558  1.6739 -0.7392  0.5846
 1574Sol     MW 9254   1.053   0.037   6.493 -0.7519  0.0341 -0.2852
 1575Sol     OW 9255   1.759   0.429   6.914 -0.6017 -0.4822 -0.2180
 1575Sol     HW 9256   1.724   0.369   6.848  0.3218 -0.7070 -0.5165
 1575Sol     HW 9257   1.706   0.414   6.992  0.2658 -2.3980  0.0216
 1575Sol     MW 9258   1.751   0.422   6.915  0.0501  0.5718 -0.5839
 1576Sol     OW 9259   2.295   1.290   8.270  0.3460  0.6775  0.0968
 1576Sol     HW 9260   2.325   1.377   8.246 -0.0595  0.8636  0.2488
 1576Sol     HW 9261   2.372   1.247   8.306  0.4022  1.1889  0.5953
 1576Sol     MW 9262   2.304   1.294   8.271 -0.1053  0.0746 -0.4629
 1577Sol     OW 9263   1.009   0.843   3.718 -0.0087 -0.1636 -0.5176
 1577Sol     HW 9264   0.984   0.754   3.743 -1.0166  0.3125  0.2305
 1577Sol     HW 9265   0.943   0.869   3.654  0.8022 -0.2722 -1.4034
 1577Sol     MW 9266   1.000   0.837   3.714  0.3117  0.3966 -0.2690
 1578Sol     OW 9267   1.755   2.621   5.903 -0.1436 -0.5987 -0.5347
 1578Sol     HW 9268   1.773   2.655   5.991  0.3958 -1.6662 -0.2235
 1578Sol     HW 9269   1.667   2.652   5.882  0.3911  1.1104 -0.3197
 1578Sol     MW 9270   1.749   2.627   5.909  0.2112 -0.1705  0.2856
 1579Sol     OW 9271   1.308   1.123   3.019 -0.1269 -0.0832 -0.0291
 1579Sol     HW 9272   1.241   1.182   2.984 -0.9957 -1.6292 -1.0523
 1579Sol     HW 9273   1.261   1.069   3.082  0.9691  1.2331  1.9407
 1579Sol     MW 9274   1.298   1.123   3.021  0.6087 -0.1353  0.4507
 1580Sol     OW 9275   2.639   1.345   3.286 -0.1319 -0.2948  0.5275
 1580Sol     HW 9276   2.719   1.374   3.242 -1.4143 -1.1397 -2.4400
 1580Sol     HW 9277   2.596   1.427   3.312  0.4124  0.2341 -0.2025
 1580Sol     MW 9278   2.642   1.355   3.285  0.4994 -0.0738  0.1949
 1581Sol     OW 9279   2.992   2.294   1.738  0.7326 -0.2159 -0.5438
 1581Sol     HW 9280   2.920   2.255   1.688  1.4066  1.0478 -2.5488
 1581Sol     HW 9281   2.949   2.332   1.815 -0.3793 -1.7989 -0.3498
 1581Sol     MW 9282   2.982   2.294   1.741  0.3114 -0.1203 -0.3297
 1582Sol     OW 9283   0.967   1.268   2.023  0.0174  0.0042 -0.4746
 1582Sol     HW 9284   0.897   1.252   2.086  0.9207  0.8802  0.7725
 1582Sol     HW 9285   0.923   1.312   1.950 -0.7682  0.3180  0.1789
 1582Sol     MW 9286   0.957   1.270   2.022 -0.4732  0.2952  0.5833
 1583Sol     OW 9287   1.249   2.241   1.991 -0.5173 -0.0718  0.3293
 1583Sol     HW 9288   1.241   2.151   1.961  2.2861 -0.4801  0.6512
 1583Sol     HW 9289   1.317   2.279   1.934  0.8292  0.7945  2.4532
 1583Sol     MW 9290   1.254   2.237   1.983  0.1089  0.0009  0.1627
 1584Sol     OW 9291   0.867   2.809   2.666  0.2190  0.4616  0.4538
 1584Sol     HW 9292   0.781   2.783   2.635  0.0982  0.3348  0.8973
 1584Sol     HW 9293   0.888   2.746   2.735  1.0941 -0.1230 -0.3351
 1584Sol     MW 9294   0.861   2.801   2.669 -0.2757  0.3719 -0.1242
 1585Sol     OW 9295   1.120   2.131   6.196 -0.2039  0.1622  0.0869
 1585Sol     HW 9296   1.046   2.120   6.136  1.6208  0.4658 -2.2644
 1585Sol     HW 9297   1.159   2.214   6.171 -0.7779  1.4990  3.2842
 1585Sol     MW 9298   1.117   2.138   6.189  0.3992  0.0528 -0.5356
 1586Sol     OW 9299   0.021   3.088   4.367  0.6966 -0.2500  0.2324
 1586Sol     HW 9300   0.041   3.003   4.327  1.2753  0.1536 -0.3560
 1586Sol     HW 9301   0.051   3.080   4.457 -0.9550 -1.2969  0.6917
 1586Sol     MW 9302   0.026   3.080   4.371  0.1407 -0.4047  0.1862
 1587Sol     OW 9303   0.269   0.510  10.026  0.2873 -0.3604 -0.2109
 1587Sol     HW 9304   0.248   0.463  10.107 -0.1937 -1.7813 -1.1503
 1587Sol     HW 9305   0.190   0.504   9.973  0.3286  1.2468 -0.4954
 1587Sol     MW 9306   0.260   0.506  10.029 -0.3152 -0.4972 -0.2971
 1588Sol     OW 9307   0.132   2.981   8.170  0.3043  0.1784 -0.3029
 1588Sol     HW 9308   0.082   3.057   8.198 -0.4351 -0.4208  0.0158
 1588Sol     HW 9309   0.199   3.017   8.112  0.3491  1.1422  0.3329
 1588Sol     MW 9310   0.134   2.991   8.167 -0.0370  0.1357  0.0295
 1589Sol     OW 9311   1.692   0.337   4.615 -0.0103  0.7184  0.1920
 1589Sol     HW 9312   1.721   0.298   4.532 -0.4868  1.1845 -0.2016
 1589Sol     HW 9313   1.697   0.266   4.678 -1.4959 -0.1577 -0.6529
 1589Sol     MW 9314   1.695   0.327   4.613 -0.1480 -0.0243 -0.2846
 1590Sol     OW 9315   0.930   2.610   7.091 -0.5402 -0.1999 -0.0416
 1590Sol     HW 9316   0.834   2.609   7.095 -0.4619 -0.7527  2.3051
 1590Sol     HW 9317   0.950   2.596   6.998 -2.6945 -1.6740 -0.3302
 1590Sol     MW 9318   0.923   2.609   7.083 -0.2168  0.2882 -0.7713
 1591Sol     OW 9319   1.572   2.790   8.878  0.1903 -0.6223  0.0254
 1591Sol     HW 9320   1.598   2.850   8.808 -0.9333 -0.8193 -0.5685
 1591Sol     HW 9321   1.654   2.750   8.908  0.5054 -1.8299 -2.3624
 1591Sol     MW 9322   1.582   2.792   8.875 -0.2288  0.0445 -0.7327
 1592Sol     OW 9323   2.158   0.916   2.078  0.7126  0.0938 -0.1698
 1592Sol     HW 9324   2.081   0.860   2.065 -0.4694  1.3547  1.1769
 1592Sol     HW 9325   2.210   0.904   1.999 -1.5598  0.2737 -1.7377
 1592Sol     MW 9326   2.156   0.910   2.070 -0.1239  0.0651 -0.2556
 1593Sol     OW 9327   1.152   2.438   4.375 -0.5299 -0.0211  0.1367
 1593Sol     HW 9328   1.196   2.437   4.460  2.3615 -0.7745 -1.3000
 1593Sol     HW 9329   1.149   2.530   4.350 -0.3998  0.0988  0.5532
 1593Sol     MW 9330   1.156   2.446   4.380  0.9415 -0.3885 -0.1894
 1594Sol     OW 9331   2.364   0.831   5.881  0.5113  0.0133 -0.0634
 1594Sol     HW 9332   2.428   0.765   5.854 -0.9115 -0.2911 -2.7369
 1594Sol     HW 9333   2.283   0.808   5.836 -0.8228  1.8795  1.2819
 1594Sol     MW 9334   2.363   0.823   5.875  0.1991  0.3968  0.1696
 1595Sol     OW 9335   0.609   0.463   8.156 -0.4933  0.4213 -1.2573
 1595Sol     HW 9336   0.519   0.443   8.181 -0.4870  3.3117  1.3800
 1595Sol     HW 9337   0.652   0.378   8.149 -2.5623 -0.8373  0.8098
 1595Sol     MW 9338   0.605   0.454   8.157  0.2144  0.3180  0.1660
 1596Sol     OW 9339   1.383   2.828   3.733  0.1391 -0.2687 -0.1337
 1596Sol     HW 9340   1.472   2.862   3.723 -0.1015 -0.1968 -2.0998
 1596Sol     HW 9341   1.381   2.749   3.680 -1.2241  0.1971 -0.8130
 1596Sol     MW 9342   1.391   2.824   3.727  0.2889 -0.0736 -0.4532
 1597Sol     OW 9343   1.541   0.739   8.506 -0.0823  0.4832 -0.2407
 1597Sol     HW 9344   1.606   0.751   8.437 -0.9588  1.5546 -0.8847
 1597Sol     HW 9345   1.551   0.817   8.561 -0.4904  0.4023 -0.0523
 1597Sol     MW 9346   1.548   0.747   8.505  0.2426  0.0121 -0.2067
 1598Sol     OW 9347   2.287   0.270   9.973 -0.1432  0.6708  1.0929
 1598Sol     HW 9348   2.244   0.346  10.011 -0.0871  0.5746  1.3468
 1598Sol     HW 9349   2.237   0.251   9.893 -0.3364  0.7932  1.1859
 1598Sol     MW 9350   2.278   0.275   9.969 -0.4850 -0.3030  0.0131
 1599Sol     OW 9351   2.894   1.119   4.809 -0.1406 -0.0102  0.3443
 1599Sol     HW 9352   2.926   1.207   4.790 -1.2061  0.8802  2.4766
 1599Sol     HW 9353   2.961   1.081   4.866 -0.5740  0.1212  0.9486
 1599Sol     MW 9354   2.902   1.123   4.812  0.1011 -0.2603  0.0345
 1600Sol     OW 9355   0.646   2.534  10.148 -0.6463 -0.4510 -0.0285
 1600Sol     HW 9356   0.738   2.509  10.142 -0.5133 -0.4952  1.6801
 1600Sol     HW 9357   0.599   2.462  10.107  0.0086 -1.2570  0.5992
 1600Sol     MW 9358   0.650   2.525  10.144  0.5075  0.1770 -0.2289
 1601Sol     OW 9359   3.123   0.695   6.902 -0.7257 -0.1509  0.3018
 1601Sol     HW 9360   3.218   0.707   6.908 -0.7484  0.2686 -0.1244
 1601Sol     HW 9361   3.102   0.716   6.811 -1.2517 -0.0546  0.4426
 1601Sol     MW 9362   3.130   0.698   6.894  0.4215  0.3662 -0.2089
 1602Sol     OW 9363   2.506   2.104   6.886  0.2570  0.0275 -0.4085
 1602Sol     HW 9364   2.561   2.075   6.959  0.8362 -1.6821 -1.5033
 1602Sol     HW 9365   2.555   2.177   6.848  0.8656 -0.2724 -0.2187
 1602Sol     MW 9366   2.516   2.108   6.889  0.0660 -0.0482  0.3631
 1603Sol     OW 9367   1.116   1.100   8.955 -0.2617  0.3360  0.0890
 1603Sol     HW 9368   1.192   1.055   8.919 -0.7876 -0.5745  0.0851
 1603Sol     HW 9369   1.107   1.064   9.044 -0.9676  0.0611 -0.0815
 1603Sol     MW 9370   1.122   1.093   8.960 -0.4732 -0.2001 -0.6433
 1604Sol     OW 9371   1.314   2.778   9.303  0.0318 -0.0206 -0.3045
 1604Sol     HW 9372   1.237   2.773   9.359 -0.5648  0.9841 -1.0166
 1604Sol     HW 9373   1.308   2.864   9.261  1.5978  0.1154 -0.2872
 1604Sol     MW 9374   1.306   2.785   9.304 -0.0498  0.0525 -0.3548
 1605Sol     OW 9375   1.154   0.445   3.633  0.2047 -0.3783 -0.0404
 1605Sol     HW 9376   1.247   0.436   3.614  0.1088 -1.0492 -0.1793
 1605Sol     HW 9377   1.115   0.469   3.549  0.3419  0.5546  0.1556
 1605Sol     MW 9378   1.159   0.447   3.624  0.0898 -0.4782  0.2279
 1606Sol     OW 9379   0.386   0.248   8.678 -0.4820 -0.3603  0.7746
 1606Sol     HW 9380   0.417   0.219   8.592 -1.2053  0.9687  0.0405
 1606Sol     HW 9381   0.458   0.229   8.738  0.1470 -1.0147 -0.1802
 1606Sol     MW 9382   0.395   0.244   8.676  0.0118 -0.1156  0.0606
 1607Sol     OW 9383   0.423   1.586   9.367  0.4621 -0.5966  0.0592
 1607Sol     HW 9384   0.390   1.658   9.313  1.0780 -0.6941 -0.4536
 1607Sol     HW 9385   0.346   1.555   9.415  0.2281  0.5196  0.4210
 1607Sol     MW 9386   0.413   1.589   9.367 -0.2956 -0.2864 -0.0914
 1608Sol     OW 9387   1.006   2.700   3.380 -0.4736  0.6399  0.2155
 1608Sol     HW 9388   1.087   2.654   3.360  0.4918  1.5258  1.9597
 1608Sol     HW 9389   0.959   2.640   3.438 -1.1586  0.0596 -0.9199
 1608Sol     MW 9390   1.009   2.690   3.384  0.2714  0.4885 -0.0555
 1609Sol     OW 9391   3.184   3.239   5.500  0.9051 -0.3305 -0.0447
 1609Sol     HW 9392   3.195   3.333   5.515 -2.5541  0.2506 -0.6943
 1609Sol     HW 9393   3.167   3.203   5.587 -1.4175  0.2872 -0.1873
 1609Sol     MW 9394   3.183   3.244   5.510  0.1860 -0.4405  0.6109
 1610Sol     OW 9395   0.804   0.008   6.007  0.1597 -0.1873  0.2736
 1610Sol     HW 9396   0.863   0.014   5.932  0.1043  1.1148  0.3271
 1610Sol     HW 9397   0.796   0.097   6.040  0.4721 -0.7959  2.0774
 1610Sol     MW 9398   0.808   0.016   6.003 -0.7499  0.3100 -0.4153
 1611Sol     OW 9399   1.423   0.668   9.250 -0.0427 -0.5256 -0.2530
 1611Sol     HW 9400   1.362   0.598   9.226 -2.2499  1.5848 -0.9256
 1611Sol     HW 9401   1.489   0.623   9.304 -1.7926 -2.9974 -0.0453
 1611Sol     MW 9402   1.424   0.657   9.253  0.3760  0.1030  0.2478
 1612Sol     OW 9403   1.100   2.811   1.916 -0.0869 -0.1274  0.0098
 1612Sol     HW 9404   1.111   2.810   1.821 -1.6578  0.2722 -0.1962
 1612Sol     HW 9405   1.047   2.888   1.933 -1.4118 -1.2313  1.0160
 1612Sol     MW 9406   1.096   2.818   1.909 -0.0283  0.0036 -0.6077
 1613Sol     OW 9407   0.568   1.126   8.964  0.6458 -0.3599  0.4080
 1613Sol     HW 9408   0.638   1.184   8.933  1.8381 -0.6989  2.3562
 1613Sol     HW 9409   0.608   1.039   8.968 -0.7304 -1.0835 -1.1554
 1613Sol     MW 9410   0.578   1.124   8.962  0.3386  0.3922  0.2149
 1614Sol     OW 9411   1.411   0.047   9.759 -0.2538  0.1148 -0.0516
 1614Sol     HW 9412   1.466  -0.020   9.717 -0.1029  0.1824  0.0413
 1614Sol     HW 9413   1.370   0.092   9.685  0.7156  0.8387 -0.1600
 1614Sol     MW 9414   1.412   0.045   9.748 -0.2980  0.2476  0.0461
 1615Sol     OW 9415   0.107   1.091   8.530  0.1446  0.2702  0.2570
 1615Sol     HW 9416   0.044   1.136   8.586  0.9743  0.9877  0.6298
 1615Sol     HW 9417   0.113   1.003   8.568  2.1804  1.3350  2.5600
 1615Sol     MW 9418   0.102   1.087   8.539  0.3209  0.0955 -0.6343
 1616Sol     OW 9419   2.870   2.280   2.613  0.1779 -0.0038  0.0593
 1616Sol     HW 9420   2.857   2.236   2.698  0.1128  1.2680  0.7104
 1616Sol     HW 9421   2.964   2.275   2.598  0.0258 -1.5257 -0.5085
 1616Sol     MW 9422   2.877   2.275   2.620  0.1362  0.7796 -0.3133
 1617Sol     OW 9423   1.228   2.804   5.797 -0.1781 -0.7049  0.6441
 1617Sol     HW 9424   1.302   2.756   5.760 -0.1691  0.2323 -0.6154
 1617Sol     HW 9425   1.251   2.816   5.889  1.4791 -0.0279  0.1704
 1617Sol     MW 9426   1.237   2.801   5.802 -0.4408 -0.1759  0.2856
 1618Sol     OW 9427   2.796   1.767   9.914  0.4927 -0.0502 -0.1141
 1618Sol     HW 9428   2.776   1.675   9.930 -1.0377  0.7066  2.7121
 1618Sol     HW 9429   2.728   1.797   9.854  0.1803 -0.4469  0.0447
 1618Sol     MW 9430   2.788   1.762   9.910  0.6937 -0.0625 -0.3360
 1619Sol     OW 9431   2.615   3.112   9.046  0.3347  0.0055  0.1305
 1619Sol     HW 9432   2.702   3.110   9.006 -0.2936 -1.5360 -1.2284
 1619Sol     HW 9433   2.571   3.185   9.004  1.0294  0.9026  0.9532
 1619Sol     MW 9434   2.619   3.118   9.039  0.1578 -0.6791  0.7905
 1620Sol     OW 9435   1.616   1.455   7.382  0.3801  0.2416 -0.6598
 1620Sol     HW 9436   1.631   1.497   7.467 -0.1146 -0.9089  0.0136
 1620Sol     HW 9437   1.528   1.418   7.389  0.7721 -0.8212 -1.2639
 1620Sol     MW 9438   1.609   1.456   7.391 -0.4052  0.2625 -0.0552
 1621Sol     OW 9439   2.926   0.110   6.097  0.7072  0.3599  0.4385
 1621Sol     HW 9440   2.979   0.031   6.105  0.1117 -0.2126 -1.0398
 1621Sol     HW 9441   2.889   0.105   6.008  0.6834  2.3006  0.3129
 1621Sol     MW 9442   2.927   0.103   6.089  0.2104 -0.1851 -0.2424
 1622Sol     OW 9443   0.539   2.355   6.706 -0.2324 -0.8314  0.0479
 1622Sol     HW 9444   0.510   2.373   6.795  1.0753  0.0376  0.3229
 1622Sol     HW 9445   0.555   2.261   6.703 -2.1147 -1.1820  0.1512
 1622Sol     MW 9446   0.538   2.349   6.713  0.0205  0.1299  0.5724
 1623Sol     OW 9447   1.584   0.952   1.836 -0.4218  0.1948 -0.4713
 1623Sol     HW 9448   1.588   1.047   1.830  0.0047  0.1088 -1.6531
 1623Sol     HW 9449   1.514   0.935   1.900 -1.7903  1.2715 -1.6519
 1623Sol     MW 9450   1.578   0.959   1.841 -0.0824 -0.3863 -0.2385
 1624Sol     OW 9451   0.144   2.773   4.674  0.1297 -0.8040 -0.4062
 1624Sol     HW 9452   0.053   2.779   4.703 -0.1377  0.3451 -1.4282
 1624Sol     HW 9453   0.155   2.682   4.649 -0.0103 -1.5229  2.0322
 1624Sol     MW 9454   0.137   2.766   4.674  0.3881  0.2707 -0.0481
 1625Sol     OW 9455   1.658   3.246   7.068  0.4655 -0.1900  0.1101
 1625Sol     HW 9456   1.604   3.246   7.147 -1.2898 -0.8073 -1.0518
 1625Sol     HW 9457   1.674   3.153   7.050 -0.0671 -0.1028 -0.8516
 1625Sol     MW 9458   1.654   3.237   7.073  0.4469 -0.3031  0.2776
 1626Sol     OW 9459   1.014   2.238   8.692  0.3273  0.2702  0.0910
 1626Sol     HW 9460   0.957   2.314   8.704  1.1751  1.0317 -0.6505
 1626Sol     HW 9461   1.093   2.259   8.744  1.5314  0.9465 -1.9580
 1626Sol     MW 9462   1.016   2.247   8.698  0.3631  0.2391 -0.0599
 1627Sol     OW 9463   2.733   1.920   8.685  0.3519 -0.2603  0.1935
 1627Sol     HW 9464   2.697   1.872   8.611  0.5662  1.3100 -0.9524
 1627Sol     HW 9465   2.661   1.924   8.748 -0.6310  0.5209 -0.9655
 1627Sol     MW 9466   2.723   1.916   8.684  0.0468 -0.3179  0.3448
 1628Sol     OW 9467   0.724   0.719   9.740 -0.0235 -0.3393  0.1670
 1628Sol     HW 9468   0.647   0.683   9.697  0.3975 -0.1144 -0.7678
 1628Sol     HW 9469   0.760   0.782   9.679 -0.3589  1.1976  1.5292
 1628Sol     MW 9470   0.720   0.721   9.731 -0.0612 -0.2566 -0.0698
 1629Sol     OW 9471   2.348   2.328   3.283  0.3896 -0.6014  0.1805
 1629Sol     HW 9472   2.360   2.303   3.191 -0.4183  2.5625 -0.8170
 1629Sol     HW 9473   2.424   2.290   3.327 -0.0926 -3.6486 -1.4504
 1629Sol     MW 9474   2.356   2.322   3.279  0.2660 -0.5714 -0.4175
 1630Sol     OW 9475   3.061   2.741   8.278 -0.0737 -0.2725 -0.0580
 1630Sol     HW 9476   3.008   2.676   8.232  0.0274  0.0794 -0.6718
 1630Sol     HW 9477   3.107   2.691   8.345 -0.2432 -0.7795 -0.3186
 1630Sol     MW 9478   3.060   2.731   8.280  0.3794 -0.2568  0.2549
 1631Sol     OW 9479   1.469   3.232   4.071  0.0953 -0.5166 -0.7389
 1631Sol     HW 9480   1.536   3.171   4.038 -0.2404 -1.1011 -0.3521
 1631Sol     HW 9481   1.479   3.229   4.166  0.1715  0.1466 -0.7282
 1631Sol     MW 9482   1.476   3.226   4.076  0.5686  0.4405  0.1615
 1632Sol     OW 9483   3.172   1.710   3.302 -0.2059  0.1327  0.4789
 1632Sol     HW 9484   3.220   1.733   3.382  1.4055 -0.1718 -0.3739
 1632Sol     HW 9485   3.112   1.783   3.289  0.4604  0.8350  1.2535
 1632Sol     MW 9486   3.171   1.719   3.308  0.2191  0.4026  0.0256
 1633Sol     OW 9487   2.524   0.317   5.199 -0.3471 -0.5865 -0.4016
 1633Sol     HW 9488   2.583   0.295   5.127 -1.8094 -0.7549 -1.5720
 1633Sol     HW 9489   2.454   0.251   5.194 -0.9293 -0.0628  0.6086
 1633Sol     MW 9490   2.523   0.309   5.192  0.4900  0.3447  0.2837
 1634Sol     OW 9491   2.105   3.346   9.752  0.9659  0.3771  0.0124
 1634Sol     HW 9492   2.196   3.336   9.725  1.3010  0.3530  1.1206
 1634Sol     HW 9493   2.110   3.393   9.835 -0.0392  0.4728  0.0216
 1634Sol     MW 9494   2.114   3.349   9.757 -0.2133 -0.4227  0.0801
 1635Sol     OW 9495   1.476   1.352   6.415 -0.1185 -0.7767 -0.0009
 1635Sol     HW 9496   1.397   1.312   6.451  0.1797 -0.3617  1.1428
 1635Sol     HW 9497   1.463   1.446   6.429  0.3272 -0.6679 -0.3278
 1635Sol     MW 9498   1.467   1.357   6.420 -0.3323  0.0193  1.0193
 1636Sol     OW 9499   1.462   0.439   2.484 -0.0570 -0.3215 -0.3147
 1636Sol     HW 9500   1.526   0.480   2.542 -0.6563 -0.1996  0.2724
 1636Sol     HW 9501   1.388   0.419   2.542  0.1547 -2.0653 -0.6308
 1636Sol     MW 9502   1.461   0.441   2.495 -0.7690 -0.4991 -0.3690
 1637Sol     OW 9503   1.498   1.644   2.594  0.6713  0.1501 -0.4682
 1637Sol     HW 9504   1.522   1.551   2.591  1.1278  0.3111 -2.4039
 1637Sol     HW 9505   1.580   1.690   2.613  1.0507  0.3547 -2.4735
 1637Sol     MW 9506   1.508   1.640   2.596  0.1047 -0.1018  0.5521
 1638Sol     OW 9507   2.683   0.198   4.729  0.2628  0.2633  0.9804
 1638Sol     HW 9508   2.701   0.242   4.813  2.3539 -1.9326  1.7432
 1638Sol     HW 9509   2.759   0.220   4.675 -0.2775  0.2749  0.2232
 1638Sol     MW 9510   2.692   0.204   4.732 -0.2301  0.2134  0.4733
 1639Sol     OW 9511   1.575   0.757   5.376  0.3323 -0.2704  0.6330
 1639Sol     HW 9512   1.538   0.690   5.433 -1.2733 -1.8537 -2.1432
 1639Sol     HW 9513   1.504   0.820   5.364  1.3654  1.2113  2.0552
 1639Sol     MW 9514   1.565   0.757   5.380  0.8396  0.1796 -0.1235
 1640Sol     OW 9515   2.911   2.360   4.911  0.5807  0.4942  0.0190
 1640Sol     HW 9516   2.850   2.385   4.980 -0.4454  1.1588 -1.1085
 1640Sol     HW 9517   2.899   2.427   4.844 -0.9753 -2.0471 -2.3479
 1640Sol     MW 9518   2.905   2.369   4.911 -0.6777 -0.1631 -0.7679
 1641Sol     OW 9519   0.278   2.540   7.948 -0.0388 -0.5353 -0.2357
 1641Sol     HW 9520   0.276   2.617   7.891 -0.9013 -0.0064  0.5080
 1641Sol     HW 9521   0.200   2.491   7.925  0.1982 -0.8881 -0.2898
 1641Sol     MW 9522   0.271   2.543   7.941  0.1310  0.1975 -0.1498
 1642Sol     OW 9523   1.420   0.288   7.497 -0.0994  0.7681  0.2172
 1642Sol     HW 9524   1.476   0.283   7.574  0.9487  1.4079 -0.5039
 1642Sol     HW 9525   1.469   0.340   7.433 -1.5500  1.4612 -0.3780
 1642Sol     MW 9526   1.429   0.292   7.498 -0.0950  0.3216 -0.2029
 1643Sol     OW 9527   0.988   2.899   9.190  0.3727  0.4100  0.0044
 1643Sol     HW 9528   0.984   2.952   9.270  0.2867 -0.6352  0.7038
 1643Sol     HW 9529   1.017   2.960   9.123 -2.5489  2.0968  0.1581
 1643Sol     MW 9530   0.990   2.909   9.191  0.2275 -0.4887  0.0716
 1644Sol     OW 9531   0.124   1.791   3.550 -0.9577 -0.1067 -0.7713
 1644Sol     HW 9532   0.100   1.791   3.643  0.2155  0.4761 -0.4555
 1644Sol     HW 9533   0.147   1.882   3.532  0.0391 -0.4581 -1.2997
 1644Sol     MW 9534   0.124   1.800   3.557  0.2413 -0.3237  0.7378
 1645Sol     OW 9535   2.731   0.848   5.828 -0.2035  0.7925  0.6032
 1645Sol     HW 9536   2.744   0.833   5.735 -2.0811 -0.6379  0.5697
 1645Sol     HW 9537   2.754   0.765   5.870  0.1239  1.2641  1.3790
 1645Sol     MW 9538   2.734   0.840   5.824 -0.1342 -1.1000 -0.0708
 1646Sol     OW 9539   0.241   2.645   6.741  0.5293  0.0976 -0.2769
 1646Sol     HW 9540   0.151   2.668   6.764  0.8153 -0.1594  1.1129
 1646Sol     HW 9541   0.233   2.595   6.660 -0.4683  1.1695 -0.8638
 1646Sol     MW 9542   0.232   2.643   6.735  0.1694  0.4738  0.4134
 1647Sol     OW 9543   1.291   3.281   5.484 -0.4013  0.6633  0.3639
 1647Sol     HW 9544   1.365   3.322   5.439 -0.3717  0.0558 -0.1635
 1647Sol     HW 9545   1.270   3.340   5.556  1.6258  0.0638  1.4907
 1647Sol     MW 9546   1.296   3.290   5.486  0.2233 -0.0921 -0.0574
 1648Sol     OW 9547   2.214   0.672   4.426 -0.1650  0.5541 -0.1810
 1648Sol     HW 9548   2.128   0.662   4.467 -0.4393 -0.9634 -1.0989
 1648Sol     HW 9549   2.212   0.611   4.352  2.6030 -1.3981  1.2775
 1648Sol     MW 9550   2.206   0.666   4.423 -0.0565 -0.1523 -0.3572
 1649Sol     OW 9551   2.411   3.412   6.488 -0.4388 -0.2217 -0.5471
 1649Sol     HW 9552   2.478   3.479   6.477  0.1038 -0.8998 -1.4545
 1649Sol     HW 9553   2.343   3.454   6.539  0.5788  0.5446  0.1875
 1649Sol     MW 9554   2.411   3.421   6.491 -0.1807 -0.4826  0.0088
 1650Sol     OW 9555   1.002   1.670   9.894  0.3176 -0.1695  0.0618
 1650Sol     HW 9556   0.954   1.638   9.970 -1.4816  1.8290 -0.1919
 1650Sol     HW 9557   0.966   1.622   9.820 -0.3726  0.3954  0.0337
 1650Sol     MW 9558   0.995   1.663   9.895 -0.0071 -0.5557 -0.0958
 1651Sol     OW 9559   2.994   2.568   8.853 -0.0428 -1.0183  0.5294
 1651Sol     HW 9560   3.035   2.611   8.928 -0.8655 -1.4597  1.2532
 1651Sol     HW 9561   2.976   2.479   8.884 -0.6811 -1.1072 -0.0855
 1651Sol     MW 9562   2.996   2.564   8.863  0.5555 -0.3436 -0.4303
 1652Sol     OW 9563   0.847   3.034   8.322 -0.4454 -0.0490 -0.4783
 1652Sol     HW 9564   0.876   3.055   8.234 -0.1535  1.3443 -0.0641
 1652Sol     HW 9565   0.751   3.033   8.317 -0.4079 -1.1329 -1.0592
 1652Sol     MW 9566   0.841   3.035   8.314 -0.1008  0.4838 -0.4484
 1653Sol     OW 9567   0.355   2.288   7.158 -0.0127  0.0104 -0.5269
 1653Sol     HW 9568   0.352   2.209   7.212 -0.0011 -0.1604 -0.7753
 1653Sol     HW 9569   0.277   2.281   7.102  0.0529  0.1175 -0.6305
 1653Sol     MW 9570   0.348   2.281   7.157 -0.1090  0.8161  0.4344
 1654Sol     OW 9571   1.212   0.192   2.216  0.6091 -0.0566 -1.4265
 1654Sol     HW 9572   1.282   0.141   2.257 -0.1097 -0.5960 -0.8423
 1654Sol     HW 9573   1.177   0.245   2.288 -0.5420 -0.8724 -1.3729
 1654Sol     MW 9574   1.215   0.192   2.226  0.3680  0.8493 -0.8126
 1655Sol     OW 9575   2.998   1.949   3.290  0.3595 -0.4460 -0.0358
 1655Sol     HW 9576   2.918   1.979   3.331 -0.8486 -1.0065 -1.9046
 1655Sol     HW 9577   3.058   2.023   3.297 -0.3780  0.0410  1.2063
 1655Sol     MW 9578   2.997   1.958   3.294 -0.2792 -0.2401  0.3888
 1656Sol     OW 9579   2.460   1.858   6.266 -0.5213  0.2119 -0.4655
 1656Sol     HW 9580   2.370   1.886   6.245 -1.4232 -2.2832 -0.1238
 1656Sol     HW 9581   2.453   1.824   6.356  0.4029 -1.4993 -1.0313
 1656Sol     MW 9582   2.451   1.857   6.273  0.4825  0.3150 -0.1183
 1657Sol     OW 9583   2.127   1.475   7.900 -0.1346  0.2533 -0.0906
 1657Sol     HW 9584   2.088   1.514   7.978 -2.3453 -1.2376 -0.4214
 1657Sol     HW 9585   2.053   1.439   7.851  1.4944 -1.1465 -1.5898
 1657Sol     MW 9586   2.117   1.476   7.902  0.2534  0.1409 -0.4507
 1658Sol     OW 9587   2.467   1.565   3.305 -0.2511 -0.4383 -0.2586
 1658Sol     HW 9588   2.417   1.534   3.229 -0.8876 -2.5920  0.9762
 1658Sol     HW 9589   2.400   1.578   3.373  0.4887 -0.1580  0.4206
 1658Sol     MW 9590   2.456   1.563   3.305  0.0574 -0.0381  0.0383
 1659Sol     OW 9591   2.611   1.957   5.491  0.1812 -0.1686 -0.1668
 1659Sol     HW 9592   2.640   2.048   5.488 -0.3025 -0.0377 -1.6380
 1659Sol     HW 9593   2.651   1.916   5.414 -0.9810 -0.7551 -0.4834
 1659Sol     MW 9594   2.617   1.961   5.484  0.0882  0.1955  0.1930
 1660Sol     OW 9595   2.257   2.588   6.373  0.1231 -0.9443 -0.3814
 1660Sol     HW 9596   2.233   2.497   6.357  0.6168 -0.6986 -2.5865
 1660Sol     HW 9597   2.183   2.639   6.338  0.9854 -0.4075 -1.4264
 1660Sol     MW 9598   2.248   2.585   6.368  0.2009 -0.0664 -0.3837
 1661Sol     OW 9599   1.460   0.578   2.008  0.0698 -0.1067 -0.0341
 1661Sol     HW 9600   1.374   0.552   1.975 -0.9611  1.1713  1.5525
 1661Sol     HW 9601   1.463   0.673   1.993  0.0739  0.3007  2.3752
 1661Sol     MW 9602   1.452   0.584   2.003 -0.4821 -0.1271  0.1965
 1662Sol     OW 9603   0.941   1.813   3.418  0.0973  0.7101 -0.0272
 1662Sol     HW 9604   0.937   1.780   3.508 -1.6640 -1.0942 -0.7280
 1662Sol     HW 9605   1.029   1.791   3.389  0.8173  1.6479  1.3656
 1662Sol     MW 9606   0.949   1.808   3.424  0.0162 -0.0522  0.2621
 1663Sol     OW 9607   1.116   2.949   7.051  0.3594  0.0771 -0.3992
 1663Sol     HW 9608   1.028   2.910   7.050  0.2855  0.2400 -0.4026
 1663Sol     HW 9609   1.112   3.014   7.122  0.5972 -0.1864 -0.1417
 1663Sol     MW 9610   1.107   2.952   7.057 -0.0617  0.3596 -0.0355
 1664Sol     OW 9611   1.944   0.493   3.844 -0.2079  0.2404 -0.5965
 1664Sol     HW 9612   1.993   0.517   3.922  0.0585 -1.4449 -0.2217
 1664Sol     HW 9613   1.873   0.557   3.839 -0.6130 -0.0275  1.3995
 1664Sol     MW 9614   1.942   0.500   3.850 -0.0334 -0.0468 -0.0982
 1665Sol     OW 9615   1.169   2.563   9.872 -0.1505  0.3400  0.3939
 1665Sol     HW 9616   1.091   2.580   9.819  0.0361  0.4118  0.1385
 1665Sol     HW 9617   1.156   2.474   9.906 -0.2695  0.2915  0.2227
 1665Sol     MW 9618   1.161   2.556   9.870  0.5527  0.6986 -0.2986
 1666Sol     OW 9619   0.892   2.570   4.599  0.2011  0.1372  0.1277
 1666Sol     HW 9620   0.812   2.583   4.549  0.5022  1.3180 -0.0527
 1666Sol     HW 9621   0.962   2.576   4.534  0.4019 -1.7730  0.1336
 1666Sol     MW 9622   0.891   2.571   4.589 -0.2506  0.0633  0.0834
 1667Sol     OW 9623   3.125   2.151   3.639 -0.0518 -0.1738  0.0638
 1667Sol     HW 9624   3.084   2.151   3.726  0.0193 -1.0872  0.1076
 1667Sol     HW 9625   3.207   2.198   3.651 -0.7255  1.0062  0.1502
 1667Sol     MW 9626   3.128   2.155   3.648  0.1231  0.4312 -0.5888
 1668Sol     OW 9627   1.665   2.310   8.642  0.0917 -0.1254 -0.7609
 1668Sol     HW 9628   1.739   2.362   8.670  0.2023  0.5070 -2.1828
 1668Sol     HW 9629   1.609   2.302   8.720  0.6700  1.0671 -0.2254
 1668Sol     MW 9630   1.666   2.314   8.651 -0.7132  0.2609  0.6072
 1669Sol     OW 9631   1.569   1.061   6.528 -0.2474 -0.1529  0.3965
 1669Sol     HW 9632   1.587   1.074   6.621  0.2855 -1.1853  0.4367
 1669Sol     HW 9633   1.481   1.021   6.526  0.3371 -1.4667  0.5330
 1669Sol     MW 9634   1.562   1.059   6.536 -0.1569 -0.1965 -0.2169
 1670Sol     OW 9635   1.364   0.253   2.011  0.3471 -0.0001 -0.4923
 1670Sol     HW 9636   1.316   0.233   2.091  1.3259 -1.0555 -0.1428
 1670Sol     HW 9637   1.338   0.342   1.987  0.4953  0.5390  1.3217
 1670Sol     MW 9638   1.357   0.259   2.016 -0.2221  0.3791  0.5168
 1671Sol     OW 9639   2.103   1.844   8.777 -0.1200  0.0517  0.4261
 1671Sol     HW 9640   2.045   1.775   8.809 -1.3770  0.7384 -0.3587
 1671Sol     HW 9641   2.140   1.809   8.696  0.4658 -0.3209  0.8444
 1671Sol     MW 9642   2.101   1.834   8.773 -0.0686  0.2709  0.5522
 1672Sol     OW 9643   1.911   1.141   1.953 -0.0825 -0.6557  0.2346
 1672Sol     HW 9644   1.846   1.203   1.920  1.2788  0.9054  0.4415
 1672Sol     HW 9645   1.990   1.194   1.966  0.7136 -2.1700  1.6658
 1672Sol     MW 9646   1.912   1.151   1.951 -0.3970 -0.0768 -0.0218
 1673Sol     OW 9647   1.120   1.734   4.352 -0.3898 -0.8677  0.0246
 1673Sol     HW 9648   1.149   1.653   4.393  0.1631 -0.5112  0.3481
 1673Sol     HW 9649   1.201   1.780   4.329 -0.6907 -0.2019  0.2596
 1673Sol     MW 9650   1.130   1.731   4.353  0.0444 -0.0348 -0.1736
 1674Sol     OW 9651   1.610   1.392   2.622  0.2625  0.4110  0.0067
 1674Sol     HW 9652   1.705   1.397   2.625  0.3054 -0.1284 -0.3175
 1674Sol     HW 9653   1.591   1.298   2.622 -0.2626  0.5142 -0.1559
 1674Sol     MW 9654   1.617   1.384   2.622 -0.5652  0.0686  0.0625
 1675Sol     OW 9655   1.878   0.221   4.427  0.1488  0.4888 -0.3923
 1675Sol     HW 9656   1.822   0.171   4.368 -1.8033 -0.1316  1.8791
 1675Sol     HW 9657   1.953   0.164   4.443 -0.2393 -0.1371 -0.7814
 1675Sol     MW 9658   1.880   0.212   4.424 -0.3555 -0.1617 -0.2754
 1676Sol     OW 9659   3.176   0.215   6.880  0.1676  0.4155  0.3921
 1676Sol     HW 9660   3.137   0.295   6.914 -0.8835 -0.5046  1.3723
 1676Sol     HW 9661   3.103   0.153   6.873  0.7243 -0.0496 -1.6272
 1676Sol     MW 9662   3.166   0.217   6.882  0.6904 -0.0396  0.0345
 1677Sol     OW 9663   0.173   1.858   5.842  0.1871 -0.0900  0.3649
 1677Sol     HW 9664   0.137   1.885   5.757  0.5637  0.0203  0.2403
 1677Sol     HW 9665   0.095   1.844   5.897 -0.2009 -2.9326 -0.8093
 1677Sol     MW 9666   0.162   1.859   5.839 -0.0975  0.0634 -0.1751
 1678Sol     OW 9667   2.858   2.015   9.997 -0.2820 -0.3379  0.0951
 1678Sol     HW 9668   2.764   2.035   9.993 -0.1260  0.3119 -0.4115
 1678Sol     HW 9669   2.862   1.919   9.994 -0.9050 -0.3548 -0.5923
 1678Sol     MW 9670   2.850   2.008   9.996  0.1571 -0.6716  0.3409
 1679Sol     OW 9671   1.952   2.113   7.761 -0.1916  0.2039  0.2972
 1679Sol     HW 9672   2.039   2.074   7.767 -0.2616  0.0371  0.2069
 1679Sol     HW 9673   1.896   2.043   7.727  0.0246  0.9091 -1.5237
 1679Sol     MW 9674   1.955   2.103   7.759  0.0108 -0.5287  0.5162
 1680Sol     OW 9675   0.484   1.323   3.882 -0.4428  0.5937  0.9368
 1680Sol     HW 9676   0.443   1.356   3.802 -0.8729  0.8529  1.2665
 1680Sol     HW 9677   0.553   1.264   3.850 -0.3052  1.0532  0.3667
 1680Sol     MW 9678   0.487   1.321   3.872 -0.4643 -0.2328 -0.0670
 1681Sol     OW 9679   2.081   1.319  10.024  0.1275  0.1084 -0.5169
 1681Sol     HW 9680   1.992   1.312  10.058  0.5662  0.6985  0.8060
 1681Sol     HW 9681   2.109   1.228  10.009 -0.1108 -0.1587  0.6376
 1681Sol     MW 9682   2.076   1.310  10.026  0.3404 -0.5760  0.3161
 1682Sol     OW 9683   0.333   3.206   6.520  0.5435 -0.3653 -0.5467
 1682Sol     HW 9684   0.309   3.223   6.429  1.1129  1.1328 -0.4299
 1682Sol     HW 9685   0.346   3.293   6.558 -1.9805 -0.8697  1.5973
 1682Sol     MW 9686   0.332   3.215   6.515 -0.5536 -0.0520 -0.0028
 1683Sol     OW 9687   0.065   0.732   7.425  0.0204  0.5798 -0.3482
 1683Sol     HW 9688   0.078   0.826   7.435 -0.3538  0.5626  0.2935
 1683Sol     HW 9689   0.149   0.700   7.391 -0.1221  1.2608 -1.3649
 1683Sol     MW 9690   0.074   0.737   7.423  0.0746 -0.1459 -0.1401
 1684Sol     OW 9691   1.738   1.592   6.875 -0.4286  0.3183  0.3486
 1684Sol     HW 9692   1.697   1.637   6.949 -0.0176  0.7469  0.3230
 1684Sol     HW 9693   1.761   1.506   6.909 -0.0366  0.5945  0.7906
 1684Sol     MW 9694   1.737   1.589   6.885  0.3576  0.0481  0.0795
 1685Sol     OW 9695   2.813   2.102   3.440 -0.0121 -0.4230 -0.8422
 1685Sol     HW 9696   2.855   2.173   3.488 -1.1968  0.1148 -0.5788
 1685Sol     HW 9697   2.777   2.045   3.508  0.2595 -0.8638 -1.0629
 1685Sol     MW 9698   2.813   2.103   3.450  0.1463 -1.1274 -0.6598
 1686Sol     OW 9699   0.283   3.379   8.107  0.1223  0.2470 -0.3007
 1686Sol     HW 9700   0.280   3.287   8.083  1.5272  0.0205  0.3419
 1686Sol     HW 9701   0.372   3.407   8.083  0.3034  0.9708  1.1478
 1686Sol     MW 9702   0.291   3.374   8.102  0.2425  0.0838  0.0230
 1687Sol     OW 9703   1.522   2.009   2.689 -0.1996 -0.4857 -0.2635
 1687Sol     HW 9704   1.579   2.086   2.691  1.3320 -1.6024  0.6397
 1687Sol     HW 9705   1.488   2.007   2.599  1.4306  0.0382 -0.9186
 1687Sol     MW 9706   1.524   2.016   2.681  0.6263  0.3350  0.2674
 1688Sol     OW 9707   2.763   1.965   9.161 -0.2308  0.2647  0.1296
 1688Sol     HW 9708   2.805   1.931   9.083 -0.8555 -1.3711  0.4871
 1688Sol     HW 9709   2.767   2.060   9.152  0.7239  0.0835 -1.3270
 1688Sol     MW 9710   2.767   1.970   9.153  0.4906  0.5082  0.2670
 1689Sol     OW 9711   0.485   1.555   6.023  0.0746  0.0034  0.1789
 1689Sol     HW 9712   0.525   1.564   6.109  2.2613 -0.2137 -0.7964
 1689Sol     HW 9713   0.459   1.463   6.018  1.4072 -0.3651 -0.0135
 1689Sol     MW 9714   0.486   1.548   6.030  0.8186  0.7362  0.0458
 1690Sol     OW 9715   0.463   2.705   3.767 -0.0855 -0.1446  0.1829
 1690Sol     HW 9716   0.429   2.700   3.856  0.2094 -3.6951  0.1435
 1690Sol     HW 9717   0.539   2.763   3.774 -0.3461 -0.0066  2.1191
 1690Sol     MW 9718   0.467   2.710   3.775 -0.1883  0.0652  0.3547
 1691Sol     OW 9719   1.881   2.199   5.143  0.4888  0.7263 -0.0203
 1691Sol     HW 9720   1.906   2.265   5.079  1.8497 -0.1818 -0.4408
 1691Sol     HW 9721   1.906   2.116   5.102 -1.6827 -0.1006  0.2649
 1691Sol     MW 9722   1.885   2.197   5.133 -0.1535  0.0084  0.6080
 1692Sol     OW 9723   3.224   2.055   4.420  0.3151 -0.7011 -0.3593
 1692Sol     HW 9724   3.139   2.080   4.457  1.8429  0.9817  2.1703
 1692Sol     HW 9725   3.207   2.047   4.326 -2.6536 -0.4950  0.0932
 1692Sol     MW 9726   3.215   2.056   4.415 -0.1989 -0.6993  0.2141
 1693Sol     OW 9727   2.222   3.243   2.881  0.0369  0.4881  0.5491
 1693Sol     HW 9728   2.151   3.178   2.882  1.6147 -1.2900  0.0407
 1693Sol     HW 9729   2.217   3.283   2.794  0.8343 -1.0090 -0.2092
 1693Sol     MW 9730   2.215   3.241   2.873  0.3577  0.1620  0.2460
 1694Sol     OW 9731   1.527   0.849   8.189  0.8281  0.1839 -0.1450
 1694Sol     HW 9732   1.457   0.912   8.203  0.4934 -0.1110 -0.4928
 1694Sol     HW 9733   1.607   0.898   8.204  0.5285  0.3601  0.8806
 1694Sol     MW 9734   1.528   0.859   8.191  0.1586  0.0210 -0.0707
 1695Sol     OW 9735   2.625   2.932   7.503 -0.1973  0.0010 -0.4644
 1695Sol     HW 9736   2.707   2.946   7.552  0.1755 -0.3957 -0.9697
 1695Sol     HW 9737   2.653   2.886   7.423 -0.7660  0.8929 -1.1799
 1695Sol     MW 9738   2.635   2.929   7.500  0.1068  0.2300 -0.6856
 1696Sol     OW 9739   3.226   1.886   9.663  0.3319  0.1734  0.1582
 1696Sol     HW 9740   3.152   1.844   9.708 -1.1319  2.0886 -0.4126
 1696Sol     HW 9741   3.302   1.833   9.688 -1.1619 -1.6247  1.0438
 1696Sol     MW 9742   3.226   1.877   9.669  0.3325 -0.2888  0.2119
 1697Sol     OW 9743   1.889   1.434   2.624  0.7072 -0.2144 -0.1096
 1697Sol     HW 9744   1.909   1.435   2.530  0.2790  1.3380 -0.2073
 1697Sol     HW 9745   1.953   1.494   2.662 -0.9871  1.4634  0.1666
 1697Sol     MW 9746   1.897   1.440   2.619  0.0676  0.0989  0.3970
 1698Sol     OW 9747   0.255   0.953  10.030 -0.2178 -0.0327 -0.7174
 1698Sol     HW 9748   0.178   0.905  10.062 -0.6284  0.1422 -1.4120
 1698Sol     HW 9749   0.314   0.886   9.998  0.2912 -0.2189  0.6091
 1698Sol     MW 9750   0.253   0.943  10.030 -0.7613 -0.2716 -0.0330
 1699Sol     OW 9751   0.308   1.273   7.153  0.1201 -0.1219 -0.1000
 1699Sol     HW 9752   0.271   1.207   7.210  0.0284  0.6429  0.7309
 1699Sol     HW 9753   0.233   1.321   7.119  0.2012 -0.2796 -0.5086
 1699Sol     MW 9754   0.298   1.271   7.155  0.5564  0.1830  0.4274
 1700Sol     OW 9755   2.974   2.854   4.135 -0.2029 -0.3538 -0.5254
 1700Sol     HW 9756   2.958   2.802   4.056 -1.0708  0.9954 -1.2551
 1700Sol     HW 9757   2.904   2.920   4.135  0.3437  0.2458  0.8672
 1700Sol     MW 9758   2.967   2.855   4.128 -0.0654  0.3587  0.4815
 1701Sol     OW 9759   1.648   0.312   9.549 -0.2199 -0.2232  0.4553
 1701Sol     HW 9760   1.704   0.264   9.488  0.5802 -0.6708  1.5085
 1701Sol     HW 9761   1.559   0.297   9.518  0.2493  0.7799 -1.4440
 1701Sol     MW 9762   1.645   0.306   9.541  0.1171  0.1930 -0.9223
 1702Sol     OW 9763   2.826   0.793   5.381  0.0612  0.4021  0.4605
 1702Sol     HW 9764   2.781   0.778   5.299 -0.1013 -0.4210  0.6976
 1702Sol     HW 9765   2.830   0.889   5.389 -0.8148  0.4805 -0.0073
 1702Sol     MW 9766   2.823   0.801   5.375 -0.2168 -0.0282  0.0500
 1703Sol     OW 9767   1.535   0.555   6.314 -0.2098 -0.5028 -0.4847
 1703Sol     HW 9768   1.532   0.464   6.343  1.6644 -0.7764 -1.0853
 1703Sol     HW 9769   1.571   0.603   6.389  1.5324 -0.7211 -1.1423
 1703Sol     MW 9770   1.538   0.551   6.323  0.4289 -0.2561  0.5178
 1704Sol     OW 9771   2.323   0.628   1.797  0.2113  0.2207  0.2126
 1704Sol     HW 9772   2.248   0.570   1.784  0.9179 -0.1934 -2.2583
 1704Sol     HW 9773   2.395   0.569   1.821  1.0169 -0.0299 -2.6500
 1704Sol     MW 9774   2.323   0.617   1.798 -0.3837  0.4029  0.2428
 1705Sol     OW 9775   0.921   1.038   3.306  0.0017 -0.0778  0.0101
 1705Sol     HW 9776   0.836   1.004   3.276  0.2356 -1.4744  0.8611
 1705Sol     HW 9777   0.902   1.126   3.338 -1.1887 -0.5093  0.5068
 1705Sol     MW 9778   0.912   1.042   3.306 -0.0181  0.0094  0.4324
 1706Sol     OW 9779   0.069   2.936   5.020 -0.2845  0.1251 -0.1284
 1706Sol     HW 9780   0.007   3.007   5.007 -0.9514 -0.4592 -0.1499
 1706Sol     HW 9781   0.018   2.856   5.008  0.3697 -0.3654  0.2858
 1706Sol     MW 9782   0.059   2.935   5.018  0.3864 -0.1385  0.4221
 1707Sol     OW 9783   1.440   3.047   2.901  0.5775 -0.0191 -0.3079
 1707Sol     HW 9784   1.441   3.142   2.891  1.8258  0.3331  2.4526
 1707Sol     HW 9785   1.352   3.027   2.933  0.6801  0.3570  0.2172
 1707Sol     MW 9786   1.433   3.054   2.903  0.3474 -1.0780 -0.6072
 1708Sol     OW 9787   2.101   0.706   9.525 -0.3817  0.2540 -0.3556
 1708Sol     HW 9788   2.131   0.786   9.569 -0.2504  0.5642 -0.9874
 1708Sol     HW 9789   2.045   0.738   9.454 -1.5768 -0.2910  0.3406
 1708Sol     MW 9790   2.099   0.716   9.522  0.0327  0.5877  0.1113
 1709Sol     OW 9791   0.487   2.144   4.398  0.2458 -0.3026 -0.0999
 1709Sol     HW 9792   0.402   2.108   4.425 -0.5041  1.1212 -0.4764
 1709Sol     HW 9793   0.535   2.156   4.480 -1.5956  2.9518  0.6070
 1709Sol     MW 9794   0.483   2.142   4.408  0.0277 -0.0260 -0.0840
 1710Sol     OW 9795   0.033   0.009   9.507  0.1108  0.0643 -0.4073
 1710Sol     HW 9796   0.047   0.088   9.559 -1.6186  1.2957 -1.7232
 1710Sol     HW 9797   0.109   0.006   9.448 -1.0624  2.2099 -2.0939
 1710Sol     MW 9798   0.041   0.016   9.506 -0.4945  0.0954  0.0781
 1711Sol     OW 9799   0.669   1.108   3.852 -0.1634  0.2341 -0.2679
 1711Sol     HW 9800   0.762   1.088   3.851 -0.3029 -0.4041 -0.5822
 1711Sol     HW 9801   0.626   1.026   3.875 -0.7011  0.3269 -0.9219
 1711Sol     MW 9802   0.673   1.099   3.854  0.4924 -0.0098 -0.2649
 1712Sol     OW 9803   1.958   2.169   6.113 -0.2096  0.2863 -0.2324
 1712Sol     HW 9804   1.881   2.151   6.059  0.8723  1.1227 -2.1047
 1712Sol     HW 9805   2.032   2.138   6.060  0.9735  2.2461  0.2383
 1712Sol     MW 9806   1.958   2.164   6.104 -0.5207  0.6630  0.0129
 1713Sol     OW 9807   0.917   2.170   2.737 -0.1421  0.1730 -0.2660
 1713Sol     HW 9808   0.883   2.088   2.701 -0.2658  0.8804 -1.7866
 1713Sol     HW 9809   1.002   2.147   2.775 -0.8649 -0.9617  0.7143
 1713Sol     MW 9810   0.921   2.160   2.737 -0.1251  0.4259  0.1651
 1714Sol     OW 9811   1.766   3.150   9.109 -0.1357 -0.2320  0.0148
 1714Sol     HW 9812   1.716   3.171   9.030  0.8866  0.2125 -0.5335
 1714Sol     HW 9813   1.844   3.106   9.076  0.0936 -0.4259  0.8113
 1714Sol     MW 9814   1.769   3.148   9.099  0.1788  0.0937 -0.1758
 1715Sol     OW 9815   2.484   0.344   8.135  0.1956 -0.6519 -0.5200
 1715Sol     HW 9816   2.539   0.332   8.213  0.9082  1.1247 -0.7212
 1715Sol     HW 9817   2.395   0.336   8.167  0.5063 -0.6994  0.3446
 1715Sol     MW 9818   2.481   0.343   8.145 -0.1379 -0.8078  0.5082
 1716Sol     OW 9819   0.870   3.095   8.793 -0.5579  0.4406  0.1062
 1716Sol     HW 9820   0.961   3.082   8.819 -0.1945  0.4756 -1.0999
 1716Sol     HW 9821   0.876   3.146   8.712 -1.6625  0.7276  0.2019
 1716Sol     MW 9822   0.879   3.099   8.788  0.3506 -0.1468  0.1952
 1717Sol     OW 9823   0.004   3.193   8.261  0.1735  0.1484  0.1542
 1717Sol     HW 9824  -0.054   3.231   8.195  1.7652 -0.0211 -1.3834
 1717Sol     HW 9825  -0.046   3.119   8.296 -0.6524  0.1554 -0.9646
 1717Sol     MW 9826  -0.006   3.189   8.258 -0.4282  0.5021  0.3563
 1718Sol     OW 9827   1.107   2.881   6.666  0.4548  0.6036  0.2759
 1718Sol     HW 9828   1.017   2.858   6.641  0.0841 -1.3743  3.1291
 1718Sol     HW 9829   1.118   2.840   6.752  3.4648  2.4385  0.8042
 1718Sol     MW 9830   1.100   2.875   6.671 -0.0075  0.2932  0.1763
 1719Sol     OW 9831   0.825   0.476   8.973  0.0179 -0.0871 -0.4518
 1719Sol     HW 9832   0.778   0.503   8.894  0.6006  0.5228 -0.6007
 1719Sol     HW 9833   0.915   0.460   8.943  0.6456  1.7462  0.3720
 1719Sol     MW 9834   0.829   0.477   8.963  0.0774 -0.1907 -0.1761
 1720Sol     OW 9835   0.011   2.252  10.148 -0.5659 -0.2636 -0.0414
 1720Sol     HW 9836   0.041   2.341  10.131  0.7230 -1.0088 -1.8027
 1720Sol     HW 9837  -0.062   2.240  10.088 -0.5177 -0.5056 -0.0492
 1720Sol     MW 9838   0.008   2.259  10.141  0.4695 -0.2906 -0.2959
 1721Sol     OW 9839   0.623   2.812   7.991 -0.7801  0.1722  0.0376
 1721Sol     HW 9840   0.651   2.763   7.914  3.4896 -0.2257  1.6473
 1721Sol     HW 9841   0.587   2.745   8.050  0.2536 -0.2686  0.1837
 1721Sol     MW 9842   0.623   2.801   7.990  0.3365  0.1024  0.1791
 1722Sol     OW 9843   3.076   1.991   4.752 -0.5578 -0.8000  0.4729
 1722Sol     HW 9844   2.990   2.003   4.793 -1.0081  0.3683 -0.7925
 1722Sol     HW 9845   3.070   2.038   4.669  1.4818 -0.2431  0.6092
 1722Sol     MW 9846   3.068   1.996   4.748  0.3710  0.5544  0.6880
 1723Sol     OW 9847   1.179   0.308   6.553  0.1353 -0.3358 -0.3995
 1723Sol     HW 9848   1.136   0.375   6.501  0.0302  0.5073  0.7656
 1723Sol     HW 9849   1.134   0.227   6.530 -0.3725  0.1368 -1.0863
 1723Sol     MW 9850   1.171   0.307   6.546  0.0551 -0.2774  0.1612
 1724Sol     OW 9851   0.555   1.051   5.959  0.1447  0.1729 -0.0918
 1724Sol     HW 9852   0.611   1.042   5.881 -2.4592  1.2428 -2.1864
 1724Sol     HW 9853   0.510   0.967   5.966  0.8797 -0.1583  0.6735
 1724Sol     MW 9854   0.556   1.042   5.952  0.0677  0.2871 -0.0121
 1725Sol     OW 9855   0.495   0.926   9.574 -0.4949  0.6388 -0.5683
 1725Sol     HW 9856   0.468   0.835   9.581  0.8628  0.2248 -0.6446
 1725Sol     HW 9857   0.458   0.955   9.490 -0.9540  0.1734 -0.5294
 1725Sol     MW 9858   0.489   0.921   9.567  0.2468  0.2044 -0.3220
 1726Sol     OW 9859   3.073   2.999   8.340 -0.4331  0.6471  0.0357
 1726Sol     HW 9860   3.008   3.043   8.285  0.5093  1.0066 -0.8160
 1726Sol     HW 9861   3.064   2.906   8.318 -1.3945  0.5675  0.7240
 1726Sol     MW 9862   3.066   2.995   8.333 -0.1169  0.6979  0.2448
 1727Sol     OW 9863   1.228   0.962   8.560 -0.0604 -0.0396  0.9629
 1727Sol     HW 9864   1.187   0.884   8.522 -1.2859  0.1797  1.8298
 1727Sol     HW 9865   1.306   0.975   8.507 -1.7004  0.2256 -1.4564
 1727Sol     MW 9866   1.231   0.956   8.552 -0.1019  0.0566  0.0855
 1728Sol     OW 9867   1.111   1.157   8.318  0.3244  0.4235  0.1464
 1728Sol     HW 9868   1.104   1.185   8.409 -0.6487 -0.6349  0.4133
 1728Sol     HW 9869   1.165   1.078   8.321  0.7372  0.6888 -0.2588
 1728Sol     MW 9870   1.115   1.153   8.326  0.4500  0.1177  0.3733
 1729Sol     OW 9871   0.640   2.517   3.238 -0.5129  0.1671 -0.6896
 1729Sol     HW 9872   0.649   2.609   3.213  1.8468 -0.0564 -0.7444
 1729Sol     HW 9873   0.707   2.504   3.305  0.8024 -2.1229 -2.4086
 1729Sol     MW 9874   0.647   2.525   3.242  0.1455 -0.4279 -0.0103
 1730Sol     OW 9875   2.389   2.554   6.990  0.5140 -0.4972  0.5426
 1730Sol     HW 9876   2.352   2.641   7.006 -1.5760 -1.0975 -0.8059
 1730Sol     HW 9877   2.391   2.513   7.077 -1.6529 -0.3047  0.7027
 1730Sol     MW 9878   2.386   2.558   6.999  0.1711  0.1164 -0.0544
 1731Sol     OW 9879   1.009   0.638   7.344 -0.8148 -0.5224  0.3774
 1731Sol     HW 9880   1.083   0.578   7.334  0.0334  0.6364 -0.5113
 1731Sol     HW 9881   0.971   0.644   7.256 -1.8556 -0.9414  0.7827
 1731Sol     MW 9882   1.012   0.633   7.336 -0.0885 -0.2718  0.2384
 1732Sol     OW 9883   3.061   0.280   5.723 -0.4179 -0.1801 -0.2486
 1732Sol     HW 9884   3.099   0.361   5.755 -1.2233 -0.2713  0.9641
 1732Sol     HW 9885   2.986   0.307   5.670  0.4523 -0.0627 -1.4392
 1732Sol     MW 9886   3.058   0.289   5.721 -0.2848 -0.2054 -0.0025
 1733Sol     OW 9887   0.360   0.428   3.281  0.0120  0.2415 -0.1663
 1733Sol     HW 9888   0.350   0.523   3.289  0.7825  0.4461 -1.6369
 1733Sol     HW 9889   0.455   0.414   3.277 -0.1283 -0.5225 -0.8173
 1733Sol     MW 9890   0.368   0.435   3.282  0.0178 -0.3367  0.5883
 1734Sol     OW 9891   0.177   0.458   8.577  0.1876 -0.3610 -0.6976
 1734Sol     HW 9892   0.107   0.456   8.643  0.5961 -1.5194 -0.3033
 1734Sol     HW 9893   0.243   0.398   8.609  0.8516 -0.1658 -1.6695
 1734Sol     MW 9894   0.176   0.453   8.586 -0.0003  0.4321  0.3577
 1735Sol     OW 9895   1.262   0.523   8.013 -0.1199  0.0427  0.6788
 1735Sol     HW 9896   1.239   0.433   8.036 -1.0755  1.0158  3.6908
 1735Sol     HW 9897   1.177   0.566   7.997  0.1891  0.9388  1.4021
 1735Sol     MW 9898   1.252   0.519   8.014  0.1457  0.0350 -0.0802
 1736Sol     OW 9899   1.622   2.913   4.304  0.5043  0.1822  0.0051
 1736Sol     HW 9900   1.626   2.823   4.271 -0.3002 -0.0278  0.4499
 1736Sol     HW 9901   1.570   2.906   4.384 -0.1491  1.1451 -0.3309
 1736Sol     MW 9902   1.617   2.904   4.308 -0.1106  0.1087 -0.0563
 1737Sol     OW 9903   1.348   0.558   7.006 -0.2664 -0.5469 -0.0755
 1737Sol     HW 9904   1.361   0.554   6.911 -0.3896  0.6703 -0.1465
 1737Sol     HW 9905   1.397   0.635   7.034 -1.6131  0.0832  0.6050
 1737Sol     MW 9906   1.354   0.564   7.000  0.1536  0.1431  0.6110
 1738Sol     OW 9907   2.118   0.452   1.800  0.1644 -0.0406  0.2240
 1738Sol     HW 9908   2.152   0.446   1.889  0.3748  1.4051  0.2539
 1738Sol     HW 9909   2.025   0.472   1.810  0.1486 -0.0563  0.1130
 1738Sol     MW 9910   2.113   0.453   1.809 -0.5105 -0.0178  0.4723
 1739Sol     OW 9911   1.402   0.747   5.010 -0.3769  0.0227 -0.3182
 1739Sol     HW 9912   1.375   0.837   5.030 -2.4639 -0.4725 -0.8444
 1739Sol     HW 9913   1.376   0.734   4.919  0.9759 -0.7460 -0.6059
 1739Sol     MW 9914   1.397   0.754   5.004  0.4597 -0.6305 -0.1072
 1740Sol     OW 9915   1.926   0.074   1.504  0.5793  0.6172  0.4688
 1740Sol     HW 9916   1.894   0.061   1.593  0.5635  1.1981  0.5458
 1740Sol     HW 9917   1.987   0.146   1.511  1.2105  0.1131  0.1528
 1740Sol     MW 9918   1.928   0.079   1.513 -0.0827  0.1113  0.0518
 1741Sol     OW 9919   2.767   0.487   6.833 -0.9458 -0.1318  0.0596
 1741Sol     HW 9920   2.725   0.573   6.827 -0.5079  0.1164  0.5130
 1741Sol     HW 9921   2.754   0.448   6.746 -0.8019  0.5519 -0.2739
 1741Sol     MW 9922   2.762   0.491   6.824  0.3883  0.6387 -0.0679
 1742Sol     OW 9923   2.127   2.112   6.648  0.3770  0.2878 -0.1835
 1742Sol     HW 9924   2.174   2.142   6.570  0.3991 -1.8332 -1.0388
 1742Sol     HW 9925   2.114   2.018   6.633 -0.0710 -0.0584  2.1433
 1742Sol     MW 9926   2.130   2.106   6.639  0.3854  0.2849 -0.1665
 1743Sol     OW 9927   2.634   1.235   2.068  0.0484  0.2905 -0.3571
 1743Sol     HW 9928   2.673   1.281   2.142 -0.7680  0.5014 -0.0451
 1743Sol     HW 9929   2.540   1.234   2.088 -0.2634  0.9991 -1.7502
 1743Sol     MW 9930   2.629   1.239   2.076 -0.1045  0.2365  0.2924
 1744Sol     OW 9931   2.432   2.281   5.637  0.5477 -0.1145 -0.4534
 1744Sol     HW 9932   2.339   2.262   5.652  0.6420  0.0634  0.3536
 1744Sol     HW 9933   2.453   2.234   5.556 -0.2221 -0.2329 -0.5880
 1744Sol     MW 9934   2.426   2.275   5.631 -0.2115  0.7780  0.1413
 1745Sol     OW 9935   1.743   1.428   6.534 -0.1852 -0.0544 -0.9101
 1745Sol     HW 9936   1.828   1.446   6.494 -0.5310  1.5857 -0.9667
 1745Sol     HW 9937   1.693   1.382   6.466  0.6680 -1.0764 -0.8524
 1745Sol     MW 9938   1.746   1.426   6.524  0.5212  0.1081  0.3804
 1746Sol     OW 9939   3.108   1.449   7.848 -0.0558 -0.3754 -0.3654
 1746Sol     HW 9940   3.190   1.451   7.800  0.1644 -1.4257 -0.0444
 1746Sol     HW 9941   3.091   1.541   7.872  1.2549 -0.2173 -0.0347
 1746Sol     MW 9942   3.114   1.458   7.846  0.3255  0.3759  0.3338
 1747Sol     OW 9943   0.833   1.497   6.999  0.4499 -0.5529 -0.1432
 1747Sol     HW 9944   0.814   1.455   7.083  0.3771 -2.4847 -1.1075
 1747Sol     HW 9945   0.890   1.571   7.022 -0.2784 -0.5321  1.6957
 1747Sol     MW 9946   0.836   1.500   7.009  0.2283  0.1514  0.0676
 1748Sol     OW 9947   0.851   3.085   8.036  0.2912 -0.7321  0.4115
 1748Sol     HW 9948   0.864   3.024   7.964  0.6709  0.0677 -0.2034
 1748Sol     HW 9949   0.755   3.092   8.045  0.2438 -1.5553  0.6188
 1748Sol     MW 9950   0.843   3.080   8.031  0.2020 -0.1899 -0.0850
 1749Sol     OW 9951   1.860   2.026  10.006  0.0487 -0.2913  0.1646
 1749Sol     HW 9952   1.803   2.076  10.065 -1.3446 -2.2659  0.5601
 1749Sol     HW 9953   1.892   1.954  10.060  0.4575 -0.9281 -0.9144
 1749Sol     MW 9954   1.857   2.024  10.016  0.1553  0.5373  0.1627
 1750Sol     OW 9955   1.170   2.395   5.658 -0.6948  0.7480 -0.5106
 1750Sol     HW 9956   1.123   2.472   5.690 -0.0624  0.5111  1.0394
 1750Sol     HW 9957   1.111   2.322   5.677  1.0986  0.2050  3.3498
 1750Sol     MW 9958   1.160   2.395   5.663 -0.6123  0.1146  0.5379
 1751Sol     OW 9959   0.322   2.002   5.998 -0.4181  0.2710 -0.0206
 1751Sol     HW 9960   0.401   1.968   6.041  0.9195  1.5829 -1.3745
 1751Sol     HW 9961   0.292   1.930   5.943 -0.4817 -0.4225  0.9066
 1751Sol     MW 9962   0.327   1.992   5.997  0.1109 -0.1468 -0.6609
 1752Sol     OW 9963   0.696   2.645   7.790 -0.1865  0.0184 -0.0969
 1752Sol     HW 9964   0.632   2.677   7.726  0.8915  0.5136 -0.9309
 1752Sol     HW 9965   0.658   2.563   7.823 -1.3312  0.3966 -0.4576
 1752Sol     MW 9966   0.687   2.641   7.787  0.9730  0.5817 -0.0939
 1753Sol     OW 9967   1.713   2.398   7.291 -0.0292 -0.6808 -0.1169
 1753Sol     HW 9968   1.732   2.364   7.379  0.1049 -0.4909 -0.0723
 1753Sol     HW 9969   1.781   2.359   7.236 -0.8428 -1.7864 -0.3668
 1753Sol     MW 9970   1.721   2.391   7.294  0.3366 -0.0105 -0.5434
 1754Sol     OW 9971   0.069   0.800   5.567 -0.2338 -0.3174 -0.3000
 1754Sol     HW 9972   0.158   0.781   5.595  0.0058 -1.1456 -1.5681
 1754Sol     HW 9973   0.059   0.894   5.583 -0.0416 -0.6961  2.2322
 1754Sol     MW 9974   0.076   0.807   5.571  0.3570  0.0747 -0.3789
 1755Sol     OW 9975   0.424   2.057   7.289 -0.4542  0.3255 -0.2201
 1755Sol     HW 9976   0.459   1.979   7.246 -0.6525  0.1975 -0.1542
 1755Sol     HW 9977   0.498   2.117   7.295 -0.1779 -0.0550  0.1887
 1755Sol     MW 9978   0.433   2.055   7.285  0.4212  0.2619 -0.3406
 1756Sol     OW 9979   2.062   0.318   4.833 -0.2210  0.0211  0.4057
 1756Sol     HW 9980   2.127   0.257   4.797 -0.6095 -0.5394  0.6435
 1756Sol     HW 9981   2.003   0.263   4.884  0.0376  0.7362  1.5024
 1756Sol     MW 9982   2.063   0.308   4.835 -0.1862 -0.3967  0.6194
 1757Sol     OW 9983   3.105   2.117   2.344 -0.5396 -0.4973  0.7640
 1757Sol     HW 9984   3.106   2.170   2.424 -0.4396 -0.8728  1.0150
 1757Sol     HW 9985   3.120   2.180   2.273 -0.5808 -0.1679  1.0446
 1757Sol     MW 9986   3.107   2.128   2.345 -0.2011 -0.0076  0.3567
 1758Sol     OW 9987   1.715   2.190   2.620  0.3692  0.5261 -0.4609
 1758Sol     HW 9988   1.749   2.264   2.570  2.3694 -0.8800 -1.2396
 1758Sol     HW 9989   1.743   2.208   2.710  1.6363  0.2713 -0.7988
 1758Sol     MW 9990   1.721   2.198   2.624 -0.1717  0.3662  0.4483
 1759Sol     OW 9991   1.552   2.910   5.056  0.6323  0.4261  0.0359
 1759Sol     HW 9992   1.505   2.857   4.992  1.4904  0.8446 -0.9704
 1759Sol     HW 9993   1.582   2.848   5.122 -1.0816  0.1259  0.5393
 1759Sol     MW 9994   1.551   2.900   5.056 -0.2222  0.2023 -0.4834
 1760Sol     OW 9995   1.179   0.542   5.854 -0.4792  0.3681 -0.1831
 1760Sol     HW 9996   1.246   0.608   5.836  1.6630 -1.6528  0.1436
 1760Sol     HW 9997   1.228   0.467   5.890 -2.8602 -1.3132 -0.3265
 1760Sol     MW 9998   1.190   0.541   5.856  0.1823 -0.2705  0.0080
 1761Sol     OW 9999   0.695   1.670   9.996  0.2156  0.0060 -0.0699
 1761Sol     HW10000   0.627   1.649  10.060  2.2342 -1.4260  1.6662
 1761Sol     HW10001   0.673   1.616   9.920 -0.0953 -1.1664  0.8297
 1761Sol     MW10002   0.687   1.663   9.995 -0.8225 -0.0349  0.5883
 1762Sol     OW10003   2.579   0.850   1.867 -0.6318 -0.1181 -0.1800
 1762Sol     HW10004   2.485   0.869   1.861 -0.4280  0.7858 -0.6824
 1762Sol     HW10005   2.584   0.760   1.899 -1.6741 -0.2521 -0.3833
 1762Sol     MW10006   2.571   0.844   1.869  0.0059 -0.0774 -0.4945
 1763Sol     OW10007   2.792   1.345   1.861 -0.5269 -0.1293  0.0821
 1763Sol     HW10008   2.733   1.314   1.930 -0.7900  0.3196  0.0640
 1763Sol     HW10009   2.749   1.422   1.826 -1.3056 -1.4288 -1.8740
 1763Sol     MW10010   2.783   1.349   1.864  0.5464 -0.0104 -0.4906
 1764Sol     OW10011   3.170   0.076   7.508 -0.6370  1.3001  0.2621
 1764Sol     HW10012   3.159  -0.012   7.543 -2.3841  2.3330  2.4797
 1764Sol     HW10013   3.161   0.133   7.584  1.1931  3.3766 -1.0141
 1764Sol     MW10014   3.168   0.074   7.518  0.2229 -0.0086  0.1417
 1765Sol     OW10015   0.184   0.437   4.687  0.1881 -0.1967 -0.2936
 1765Sol     HW10016   0.206   0.488   4.609 -1.5718 -1.1396 -1.4343
 1765Sol     HW10017   0.213   0.348   4.666 -0.8870 -0.5858 -0.1506
 1765Sol     MW10018   0.189   0.434   4.678 -0.5668  0.0549  0.8973
 1766Sol     OW10019   2.251   2.030   9.146 -0.4891 -0.8402  0.6890
 1766Sol     HW10020   2.231   2.097   9.082 -1.8675 -2.2533 -0.4035
 1766Sol     HW10021   2.265   1.950   9.095 -1.4676 -1.9659  2.1239
 1766Sol     MW10022   2.251   2.028   9.136 -0.7470  0.4042  0.3044
 1767Sol     OW10023   0.853   2.184   9.334 -0.4425 -0.0150  0.0327
 1767Sol     HW10024   0.775   2.202   9.281 -1.1637  0.1085  1.1182
 1767Sol     HW10025   0.915   2.253   9.310 -0.3231 -0.6160 -1.4762
 1767Sol     MW10026   0.852   2.192   9.327 -0.7824  0.6488 -0.4187
 1768Sol     OW10027   1.984   2.144   8.599  0.3228  0.0487  0.1241
 1768Sol     HW10028   1.936   2.178   8.675 -0.2257  0.0474 -0.2219
 1768Sol     HW10029   2.062   2.199   8.594  0.4420 -0.0552  0.7907
 1768Sol     MW10030   1.987   2.152   8.605  0.0395 -0.0762  0.2102
 1769Sol     OW10031   2.404   0.079   5.177 -0.1010 -0.6023 -0.4578
 1769Sol     HW10032   2.368   0.044   5.095  0.3960 -1.0482 -0.4927
 1769Sol     HW10033   2.492   0.040   5.183 -0.8539 -2.1053  1.2586
 1769Sol     MW10034   2.409   0.072   5.170 -0.1508  0.0019  0.3457
 1770Sol     OW10035   1.955   2.437   9.516  0.1574  0.3058  0.3310
 1770Sol     HW10036   2.015   2.442   9.442  0.9387 -0.0741  0.9305
 1770Sol     HW10037   1.972   2.516   9.567  0.3066  0.0828  0.6247
 1770Sol     MW10038   1.962   2.444   9.514 -0.0767  0.5846  0.2487
 1771Sol     OW10039   2.713   1.685   6.807  0.4837 -0.6793  0.4952
 1771Sol     HW10040   2.706   1.611   6.746  0.5534  0.2021 -0.6001
 1771Sol     HW10041   2.676   1.652   6.889  1.1514 -2.1549  0.2266
 1771Sol     MW10042   2.709   1.675   6.809 -0.0986  0.3268 -0.0833
 1772Sol     OW10043   2.779   0.302   4.080  0.7996 -0.3545  0.2191
 1772Sol     HW10044   2.831   0.367   4.033  1.6348 -1.2135 -0.0656
 1772Sol     HW10045   2.844   0.247   4.124  0.1485 -1.4750 -0.1883
 1772Sol     MW10046   2.790   0.303   4.079  0.8217 -0.4509  0.2950
 1773Sol     OW10047   1.314   1.925   6.626  0.4016  0.7292  0.5589
 1773Sol     HW10048   1.263   2.001   6.656  0.8505  1.0524  0.5002
 1773Sol     HW10049   1.364   1.898   6.703  2.4503  2.2778 -0.1798
 1773Sol     MW10050   1.314   1.930   6.636  0.1321  0.0524 -0.1902
 1774Sol     OW10051   2.435   2.899   5.550  0.4149  0.3410  0.0331
 1774Sol     HW10052   2.500   2.851   5.601 -0.0747  0.2208  0.5409
 1774Sol     HW10053   2.487   2.953   5.491  0.9797  0.3324  0.5196
 1774Sol     MW10054   2.446   2.900   5.549 -0.1792  0.3291 -0.2280
 1775Sol     OW10055   2.543   1.150   2.647 -0.0049 -0.1075 -0.1491
 1775Sol     HW10056   2.572   1.059   2.643  0.6450  0.0856  0.2502
 1775Sol     HW10057   2.622   1.201   2.636 -0.1941  0.4181  0.9001
 1775Sol     MW10058   2.552   1.146   2.645  0.3429  0.1322  0.5226
 1776Sol     OW10059   0.103   2.993   9.038  0.0189 -0.2192  0.1317
 1776Sol     HW10060   0.134   2.937   8.967  0.0221 -0.6142  0.4433
 1776Sol     HW10061   0.115   3.082   9.005  0.4939 -0.3902 -0.1638
 1776Sol     MW10062   0.107   2.996   9.029 -0.1256 -0.3025  0.0163
 1777Sol     OW10063   2.608   2.754   7.305 -0.2525 -0.5653 -0.3199
 1777Sol     HW10064   2.520   2.724   7.282  0.1522 -1.7772 -0.3300
 1777Sol     HW10065   2.658   2.745   7.224 -0.0617 -0.0586 -0.2620
 1777Sol     MW10066   2.604   2.751   7.296  0.1865  0.0392 -0.4253
 1778Sol     OW10067   1.010   0.797   4.133  0.2194  0.3372  0.2571
 1778Sol     HW10068   1.028   0.730   4.066 -0.3541 -1.4013  1.7879
 1778Sol     HW10069   0.943   0.853   4.094  2.3780  1.4655 -1.9696
 1778Sol     MW10070   1.005   0.796   4.124  0.0949 -0.3278  0.1089
 1779Sol     OW10071   3.194   1.654   8.723  0.1202  0.6687 -0.7716
 1779Sol     HW10072   3.198   1.744   8.689  0.4129  0.9785  0.0712
 1779Sol     HW10073   3.100   1.635   8.728 -0.1587  2.5054  3.0693
 1779Sol     MW10074   3.186   1.661   8.720  0.0881 -0.2320 -0.5003
 1780Sol     OW10075   0.471   0.029   4.537 -0.3176 -0.9268 -0.3727
 1780Sol     HW10076   0.415  -0.045   4.513 -1.5915  0.6519 -2.4103
 1780Sol     HW10077   0.517   0.050   4.456 -1.3022  1.6480 -0.2879
 1780Sol     MW10078   0.470   0.024   4.528  0.5441  0.2410 -0.2475
 1781Sol     OW10079   2.034   0.778   6.456  0.3839 -0.0136  0.1952
 1781Sol     HW10080   2.047   0.840   6.527 -0.8371 -1.9816  2.1868
 1781Sol     HW10081   1.959   0.812   6.407  1.0824  1.2189 -0.0411
 1781Sol     MW10082   2.029   0.786   6.458 -0.4039  0.6215 -0.3760
 1782Sol     OW10083   2.662   3.200   8.649  0.8695  0.2722  0.5259
 1782Sol     HW10084   2.589   3.164   8.599 -0.8706  3.4449  0.6565
 1782Sol     HW10085   2.701   3.266   8.590  0.9451  1.6068  2.0424
 1782Sol     MW10086   2.659   3.203   8.639  0.5900 -0.2515  0.7736
 1783Sol     OW10087   2.274   1.907   4.649  0.1171  0.0233  0.3512
 1783Sol     HW10088   2.304   1.817   4.664 -1.9305 -0.7448  0.1440
 1783Sol     HW10089   2.291   1.952   4.732  0.6600 -0.7238  0.6538
 1783Sol     MW10090   2.278   1.903   4.658  0.4117  0.5130  0.0463
 1784Sol     OW10091   2.888   2.449   1.958 -0.4645  0.5907 -0.3183
 1784Sol     HW10092   2.937   2.530   1.946  1.2286 -0.5171 -1.1417
 1784Sol     HW10093   2.916   2.416   2.043  0.2891 -0.0658 -0.8087
 1784Sol     MW10094   2.895   2.453   1.965 -0.0475 -0.5563 -0.6408
 1785Sol     OW10095   2.916   0.825   6.181  0.3588  0.1624 -0.1597
 1785Sol     HW10096   2.913   0.881   6.103  1.4450 -0.2887 -0.5291
 1785Sol     HW10097   2.988   0.764   6.164  0.9870  0.4334  1.4462
 1785Sol     MW10098   2.922   0.825   6.172 -0.1809 -0.8424  0.3636
 1786Sol     OW10099   2.233   3.063   8.057 -0.1472 -0.2475  0.6032
 1786Sol     HW10100   2.323   3.072   8.087  0.1581  0.8670 -0.6259
 1786Sol     HW10101   2.240   3.020   7.972 -0.8551 -1.2067  1.0179
 1786Sol     MW10102   2.241   3.060   8.052 -0.2855 -0.1543  0.6099
 1787Sol     OW10103   0.583   2.474   9.511  0.1494 -0.3345  0.3216
 1787Sol     HW10104   0.488   2.464   9.502  0.2116  0.8575 -2.3667
 1787Sol     HW10105   0.616   2.384   9.521 -1.0532 -1.0691 -1.8393
 1787Sol     MW10106   0.578   2.465   9.511  0.1362  0.7736  0.1288
 1788Sol     OW10107   3.076   2.175   9.962 -0.1746  0.0817  0.1746
 1788Sol     HW10108   3.003   2.119   9.988 -0.4633  0.5317  0.3350
 1788Sol     HW10109   3.042   2.264   9.969 -0.1232  0.2320 -1.3314
 1788Sol     MW10110   3.066   2.178   9.965 -0.1669 -0.1569  0.1012
 1789Sol     OW10111   1.550   2.495   9.624 -0.1086 -0.1083  0.0155
 1789Sol     HW10112   1.618   2.429   9.637  3.2135  3.1937  0.2522
 1789Sol     HW10113   1.506   2.501   9.709  0.9752 -0.4678  0.6146
 1789Sol     MW10114   1.552   2.489   9.633  0.2117 -0.2606 -0.2068
 1790Sol     OW10115   2.640   2.496   2.326 -0.1529  0.3247 -0.2306
 1790Sol     HW10116   2.546   2.508   2.314 -0.2647  1.3049  1.4436
 1790Sol     HW10117   2.679   2.579   2.301  0.1343  0.3925  0.4303
 1790Sol     MW10118   2.635   2.504   2.323  0.2189  0.4252 -0.4912
 1791Sol     OW10119   1.135   1.270   7.556 -0.6934 -0.2500 -0.3522
 1791Sol     HW10120   1.101   1.359   7.557 -1.2441 -0.4644 -0.0068
 1791Sol     HW10121   1.058   1.214   7.545 -0.4973 -0.7557  0.8362
 1791Sol     MW10122   1.125   1.273   7.555  0.1767 -0.3272  0.2837
 1792Sol     OW10123   1.143   1.408  10.031 -0.1158 -0.1181  0.0557
 1792Sol     HW10124   1.174   1.493  10.000  0.7281 -0.7428 -0.8570
 1792Sol     HW10125   1.091   1.374   9.958  1.4173 -1.3544 -0.4955
 1792Sol     MW10126   1.141   1.413  10.022 -0.2849 -0.5470  0.3894
 1793Sol     OW10127   0.235   0.031   8.778  0.6322 -0.4703  0.1944
 1793Sol     HW10128   0.301   0.086   8.737  0.2092 -0.0417  0.0836
 1793Sol     HW10129   0.154   0.082   8.773  0.2192 -1.1326  0.0242
 1793Sol     MW10130   0.234   0.040   8.774 -0.6336 -0.2891 -0.3990
 1794Sol     OW10131   0.036   2.028   6.967  1.4264  0.4466  0.1960
 1794Sol     HW10132   0.128   2.002   6.973  1.1506 -0.2616  1.3491
 1794Sol     HW10133   0.008   2.040   7.057 -0.7049 -3.1891  0.1150
 1794Sol     MW10134   0.041   2.027   6.976  0.2773  0.0855  0.4584
 1795Sol     OW10135   0.653   1.957   6.899 -0.1594  0.2095  0.3239
 1795Sol     HW10136   0.619   1.997   6.819  0.3596  0.5905  0.2923
 1795Sol     HW10137   0.748   1.953   6.885 -0.1009 -0.0347  0.7809
 1795Sol     MW10138   0.658   1.960   6.891 -0.0767  0.5807  0.0871
 1796Sol     OW10139   0.861   2.288   2.186  1.1335 -0.1424  0.5574
 1796Sol     HW10140   0.808   2.223   2.234 -1.1097  0.9263 -0.4123
 1796Sol     HW10141   0.799   2.357   2.164  2.6183  0.4198 -1.9783
 1796Sol     MW10142   0.851   2.288   2.189  1.0033  0.5211 -0.3076
 1797Sol     OW10143   2.678   2.896   8.100 -0.4398 -0.1227 -0.4233
 1797Sol     HW10144   2.681   2.804   8.072  0.1562  0.2928 -1.7671
 1797Sol     HW10145   2.703   2.945   8.022 -3.9579  1.3876 -0.6995
 1797Sol     MW10146   2.680   2.892   8.090  0.2314  0.3349  0.1732
 1798Sol     OW10147   0.075   1.402   8.685  0.0976  0.2951  0.0106
 1798Sol     HW10148   0.141   1.376   8.748 -0.6124 -1.3335  0.0989
 1798Sol     HW10149   0.049   1.490   8.712  2.0691  0.8637  0.0824
 1798Sol     MW10150   0.078   1.408   8.693 -0.7224  0.1128 -0.2743
 1799Sol     OW10151   3.198   1.483   2.404  0.3920 -1.1974  0.0509
 1799Sol     HW10152   3.113   1.478   2.361 -0.7520  0.1200  2.0902
 1799Sol     HW10153   3.261   1.480   2.332 -1.4129 -0.2971 -1.6236
 1799Sol     MW10154   3.196   1.482   2.394 -0.0490  0.3877  0.4591
 1800Sol     OW10155   1.941   1.320   7.737 -0.1022 -0.1739  0.5257
 1800Sol     HW10156   1.986   1.239   7.760  0.1603 -0.1713  0.0242
 1800Sol     HW10157   1.977   1.344   7.651  1.1911  1.4504  1.4854
 1800Sol     MW10158   1.949   1.315   7.731  0.0597  0.3450  0.3492
 1801Sol     OW10159   1.107   3.142   9.750 -0.2024 -0.3986  0.2535
 1801Sol     HW10160   1.151   3.059   9.735 -0.6165 -0.6108  0.2099
 1801Sol     HW10161   1.016   3.127   9.723 -0.7641 -0.5514  2.1575
 1801Sol     MW10162   1.103   3.133   9.746 -0.6005  0.2345 -0.1745
 1802Sol     OW10163   1.634   1.288   3.889  0.0866 -0.1580 -0.2083
 1802Sol     HW10164   1.560   1.228   3.894  1.0707 -1.2454  2.0219
 1802Sol     HW10165   1.657   1.289   3.796 -3.2486  0.9090 -1.0676
 1802Sol     MW10166   1.630   1.282   3.881 -0.1969 -0.4020  0.5487
 1803Sol     OW10167   0.937   0.887   5.857  0.6318  0.4397  0.1946
 1803Sol     HW10168   1.002   0.955   5.872 -0.2550  1.6072 -1.1177
 1803Sol     HW10169   0.968   0.841   5.779  1.8118 -1.4013  1.7136
 1803Sol     MW10170   0.945   0.889   5.851  1.0618 -0.4272 -0.0436
 1804Sol     OW10171   2.885   3.273   5.494 -0.3443 -0.2875  0.3285
 1804Sol     HW10172   2.855   3.326   5.568 -1.3265 -1.8767  1.0936
 1804Sol     HW10173   2.966   3.232   5.525  0.5948  0.9900 -0.3782
 1804Sol     MW10174   2.890   3.274   5.503 -0.2893  0.3670  0.2908
 1805Sol     OW10175   0.832   1.283   3.401 -0.1385 -0.4135 -0.0411
 1805Sol     HW10176   0.744   1.273   3.366  0.3505 -1.1685 -1.1025
 1805Sol     HW10177   0.861   1.369   3.370  0.0222 -0.7743 -0.9126
 1805Sol     MW10178   0.827   1.290   3.395  0.3747  0.2175 -0.3647
 1806Sol     OW10179   0.694   1.581   2.094 -0.1575 -0.4979 -0.3851
 1806Sol     HW10180   0.743   1.610   2.171  0.9036 -1.1651 -0.7992
 1806Sol     HW10181   0.672   1.661   2.047  0.3166 -0.1800 -0.0615
 1806Sol     MW10182   0.696   1.591   2.097  0.0216  0.1498  0.2779
 1807Sol     OW10183   2.618   2.230   7.975 -0.4039  0.1232  0.1688
 1807Sol     HW10184   2.587   2.218   8.065 -1.1448 -1.4590 -0.2736
 1807Sol     HW10185   2.545   2.270   7.929 -0.1899  0.5111  0.1668
 1807Sol     MW10186   2.609   2.232   7.979 -0.1929 -0.2031 -0.4785
 1808Sol     OW10187   1.032   2.308   2.397  0.0256  0.0441  0.1888
 1808Sol     HW10188   0.978   2.288   2.320  0.7219  0.0514 -0.3014
 1808Sol     HW10189   1.122   2.305   2.365  0.2655  1.1523  0.7597
 1808Sol     MW10190   1.035   2.306   2.387 -0.2279  0.2870 -0.6502
 1809Sol     OW10191   2.216   3.302   3.808 -1.1467 -0.0943 -0.1468
 1809Sol     HW10192   2.124   3.277   3.822 -1.2216  0.5649  0.5781
 1809Sol     HW10193   2.212   3.396   3.787 -0.2642  1.1977  4.8188
 1809Sol     MW10194   2.207   3.308   3.807 -0.3259 -0.3127  0.0938
 1810Sol     OW10195   0.239   1.316   9.377  0.4130  0.4253  0.1275
 1810Sol     HW10196   0.172   1.381   9.398  0.0159  0.0659 -0.0282
 1810Sol     HW10197   0.190   1.235   9.361  0.9233  0.0246  0.5716
 1810Sol     MW10198   0.229   1.315   9.378  0.0091 -0.3848  0.0710
 1811Sol     OW10199   3.239   0.647   8.481  0.3058 -0.4526  0.4454
 1811Sol     HW10200   3.246   0.697   8.399  0.9125  0.6373  1.1416
 1811Sol     HW10201   3.311   0.585   8.478  2.2944  1.7289  1.5608
 1811Sol     MW10202   3.246   0.646   8.473 -0.4444 -0.1238 -0.1390
 1812Sol     OW10203   0.103   3.237   8.924 -0.0085  0.1704 -0.0407
 1812Sol     HW10204   0.172   3.277   8.872 -0.4757  0.8683 -0.1236
 1812Sol     HW10205   0.022   3.270   8.886 -0.3831 -0.3900  0.2648
 1812Sol     MW10206   0.102   3.244   8.916  0.4793 -0.1452  0.0509
 1813Sol     OW10207   2.019   3.066   2.881 -0.0443 -0.2183  0.1218
 1813Sol     HW10208   2.037   2.992   2.823  0.5822  0.7588 -0.9487
 1813Sol     HW10209   1.936   3.101   2.849 -0.6505 -0.8141  1.0140
 1813Sol     MW10210   2.013   3.062   2.873  0.1050 -0.2719  0.4428
 1814Sol     OW10211   0.827   0.998   2.457 -0.0505 -0.1463  0.0926
 1814Sol     HW10212   0.756   0.935   2.442  1.4636 -2.0060  0.5319
 1814Sol     HW10213   0.906   0.945   2.454  1.4492  2.1327 -1.7952
 1814Sol     MW10214   0.827   0.987   2.456 -0.1242  0.3487  0.1224
 1815Sol     OW10215   1.756   0.597   4.328 -0.5652  0.1969  0.2006
 1815Sol     HW10216   1.829   0.551   4.371 -0.9212 -0.4889  0.0843
 1815Sol     HW10217   1.734   0.668   4.388 -0.3202 -0.0776  0.6178
 1815Sol     MW10218   1.761   0.599   4.338 -0.5831 -0.1000 -0.2225
 1816Sol     OW10219   1.674   1.716   6.605 -0.0352  0.0034  0.3529
 1816Sol     HW10220   1.698   1.625   6.588 -0.4915 -0.2554  1.0700
 1816Sol     HW10221   1.695   1.762   6.523 -2.0047 -1.1698 -0.8528
 1816Sol     MW10222   1.678   1.712   6.596 -0.2143  0.7106  0.2237
 1817Sol     OW10223   2.705   1.057   4.450 -0.2583  0.4628 -0.1232
 1817Sol     HW10224   2.780   1.076   4.394 -1.2936  0.0785 -1.6534
 1817Sol     HW10225   2.675   0.970   4.422 -0.9996  0.4157  0.7859
 1817Sol     MW10226   2.709   1.051   4.443  0.1578 -0.0920  0.1562
 1818Sol     OW10227   0.006   0.612   2.809  0.3235 -0.0192 -0.0893
 1818Sol     HW10228   0.071   0.569   2.865  0.4387 -0.2304 -0.3879
 1818Sol     HW10229   0.046   0.696   2.787 -0.4132  0.7782  1.4963
 1818Sol     MW10230   0.016   0.615   2.812  0.3142 -0.1793  0.1053
 1819Sol     OW10231   2.390   2.032   4.888 -0.3214  1.3994 -0.2061
 1819Sol     HW10232   2.328   2.078   4.945 -0.2157  1.7478 -0.3717
 1819Sol     HW10233   2.466   2.014   4.944 -1.0151 -0.0282  0.3103
 1819Sol     MW10234   2.392   2.034   4.898  0.1210  0.3342  0.4576
 1820Sol     OW10235   0.212   2.075   3.223 -0.0433  0.2102 -0.5505
 1820Sol     HW10236   0.219   1.986   3.189  0.7419  0.0155  0.1011
 1820Sol     HW10237   0.147   2.117   3.167 -0.0886 -0.6382 -1.1461
 1820Sol     MW10238   0.207   2.071   3.215 -0.2056  0.2048  0.7363
 1821Sol     OW10239   1.788   0.276   2.686 -0.4696 -0.0146 -0.0191
 1821Sol     HW10240   1.799   0.205   2.749 -1.2837 -0.5304 -0.4513
 1821Sol     HW10241   1.704   0.315   2.709  0.1976  1.1193  0.5193
 1821Sol     MW10242   1.782   0.273   2.694  0.1438 -0.3311 -0.0316
 1822Sol     OW10243   0.306   1.388   8.853  0.0284 -0.1559  0.3629
 1822Sol     HW10244   0.301   1.389   8.949  1.9242  2.9484  0.4956
 1822Sol     HW10245   0.394   1.354   8.834 -0.7049 -1.7080 -0.3268
 1822Sol     MW10246   0.314   1.385   8.860 -0.1623  0.7870 -0.0427
 1823Sol     OW10247   2.734   2.054   7.211 -0.0495  0.0245  0.0461
 1823Sol     HW10248   2.815   2.094   7.182  1.3142 -1.1975  2.0530
 1823Sol     HW10249   2.669   2.125   7.209  1.3929  1.3503 -0.1666
 1823Sol     MW10250   2.735   2.064   7.208 -0.1807 -0.2581 -0.4066
 1824Sol     OW10251   0.454   0.488   5.430  0.0267 -0.3564  0.4058
 1824Sol     HW10252   0.429   0.493   5.522  0.5205 -1.5091  0.6208
 1824Sol     HW10253   0.395   0.548   5.385 -0.6404 -0.2645  1.3914
 1824Sol     MW10254   0.447   0.493   5.434 -0.2084 -0.9613 -0.5284
 1825Sol     OW10255   2.520   1.759   4.857 -0.0237  0.4304 -0.1844
 1825Sol     HW10256   2.605   1.778   4.897 -0.6397 -0.1904  1.4610
 1825Sol     HW10257   2.537   1.683   4.801  0.4555  0.1496  0.3296
 1825Sol     MW10258   2.529   1.754   4.856  0.2825 -0.4125  0.2300
 1826Sol     OW10259   0.930   1.117   5.266  0.1504  0.1588  0.0375
 1826Sol     HW10260   0.922   1.041   5.207  0.4436  0.8612 -0.9174
 1826Sol     HW10261   0.869   1.181   5.231 -0.9606 -0.0413  1.5346
 1826Sol     MW10262   0.924   1.116   5.257 -0.3056  0.8940  0.5712
 1827Sol     OW10263   1.587   1.744   8.164  0.4011  0.0714 -0.1205
 1827Sol     HW10264   1.577   1.768   8.257  0.0332  0.8338 -0.3557
 1827Sol     HW10265   1.513   1.687   8.146  1.6536 -1.8480  0.6265
 1827Sol     MW10266   1.579   1.742   8.171 -0.2335 -0.4209  0.1721
 1828Sol     OW10267   2.761   0.089   7.123 -0.2264  0.1877  0.1321
 1828Sol     HW10268   2.723   0.006   7.095 -1.1565 -0.0228  1.9601
 1828Sol     HW10269   2.708   0.156   7.079 -0.3815 -0.1540 -0.2005
 1828Sol     MW10270   2.753   0.088   7.117 -0.0596  0.0300  0.2122
 1829Sol     OW10271   1.272   0.264   3.353  0.0141 -0.3967 -0.4297
 1829Sol     HW10272   1.337   0.199   3.326  0.3750 -0.5551  0.7894
 1829Sol     HW10273   1.318   0.318   3.418 -0.6405  0.3600 -0.5937
 1829Sol     MW10274   1.282   0.263   3.357 -0.6281  0.4122 -0.6267
 1830Sol     OW10275   2.336   1.911   5.292 -0.4259 -0.2498  0.1374
 1830Sol     HW10276   2.331   1.843   5.360  1.6123 -0.0369  0.5219
 1830Sol     HW10277   2.326   1.863   5.210 -0.1861 -0.8548  0.4546
 1830Sol     MW10278   2.334   1.900   5.291  0.2896  0.1145 -0.3354
 1831Sol     OW10279   1.174   1.347   2.905  0.1532 -0.0026  0.1309
 1831Sol     HW10280   1.228   1.426   2.902  1.6288 -0.9781  0.5367
 1831Sol     HW10281   1.126   1.347   2.822  1.4026  0.4574 -0.6029
 1831Sol     MW10282   1.175   1.354   2.897 -0.2436 -0.3832 -0.4821
 1832Sol     OW10283   1.086   0.590   3.363  0.1423 -0.9285 -0.2894
 1832Sol     HW10284   1.149   0.656   3.388 -0.4902 -0.2883 -0.3702
 1832Sol     HW10285   1.128   0.541   3.292  0.2813 -0.0754 -0.7987
 1832Sol     MW10286   1.095   0.591   3.359 -0.3923  0.5792  0.4589
 1833Sol     OW10287   0.394   2.669   2.885 -0.1734 -0.3535 -0.0263
 1833Sol     HW10288   0.446   2.602   2.842 -1.9696 -1.0068 -1.2667
 1833Sol     HW10289   0.453   2.709   2.949  1.7271 -1.2430 -1.1945
 1833Sol     MW10290   0.404   2.667   2.887 -0.3282 -0.0371  0.3551
 1834Sol     OW10291   2.526   2.796   4.505 -0.0259 -0.2126  0.2712
 1834Sol     HW10292   2.599   2.857   4.512 -0.3187  0.4492 -1.9286
 1834Sol     HW10293   2.504   2.796   4.412 -3.1202 -0.0628  0.9473
 1834Sol     MW10294   2.531   2.801   4.497 -0.6819  0.2541  0.7137
 1835Sol     OW10295   2.146   1.375   3.840  0.1398  0.0073  0.0430
 1835Sol     HW10296   2.128   1.460   3.800 -1.4561  0.4968  1.7671
 1835Sol     HW10297   2.073   1.320   3.814  1.2696 -0.9142 -1.2301
 1835Sol     MW10298   2.138   1.378   3.834  0.1795  0.5869 -0.6113
 1836Sol     OW10299   1.393   0.159   8.451  0.3511  0.2721  0.2506
 1836Sol     HW10300   1.378   0.240   8.402  1.7760  0.9492  0.9202
 1836Sol     HW10301   1.481   0.132   8.426 -0.0914 -1.0451  0.0803
 1836Sol     MW10302   1.400   0.164   8.444 -0.3156 -0.2543  0.4811
 1837Sol     OW10303   1.997   0.866   8.205  0.3257  0.0065 -0.1880
 1837Sol     HW10304   2.072   0.926   8.206 -0.5178  1.1059 -1.3682
 1837Sol     HW10305   1.960   0.875   8.117  0.8374 -3.0913 -0.7649
 1837Sol     MW10306   2.000   0.872   8.197  0.3323 -0.0373 -0.4247
 1838Sol     OW10307   0.205   1.742   6.483  0.1923  0.3553  0.3579
 1838Sol     HW10308   0.118   1.779   6.465  1.2398  2.7886  0.2395
 1838Sol     HW10309   0.235   1.711   6.398  0.5985  2.0313 -0.1162
 1838Sol     MW10310   0.200   1.742   6.474  0.5987 -0.6458  0.0350
 1839Sol     OW10311   1.042   1.571   4.910  1.0148 -0.0396 -0.5675
 1839Sol     HW10312   1.074   1.597   4.824  0.8036  2.8955  0.1715
 1839Sol     HW10313   0.981   1.500   4.893  0.9567  0.5326 -2.8399
 1839Sol     MW10314   1.040   1.567   4.901  0.7185 -0.1344 -0.1006
 1840Sol     OW10315   0.485   1.178   9.215  0.7617  0.1679 -0.0599
 1840Sol     HW10316   0.439   1.259   9.196  1.1541  0.3004 -0.4576
 1840Sol     HW10317   0.529   1.155   9.132  0.6257 -0.4601  0.0403
 1840Sol     MW10318   0.485   1.183   9.205  0.1360  0.0866  0.0749
 1841Sol     OW10319   1.551   2.142   4.576  0.9801  0.3696  0.3828
 1841Sol     HW10320   1.600   2.221   4.553 -0.0517  1.2692  1.2027
 1841Sol     HW10321   1.488   2.171   4.642  0.7393 -1.1908  0.8756
 1841Sol     MW10322   1.550   2.152   4.580  0.1985  0.3087 -0.0388
 1842Sol     OW10323   1.115   0.907   7.667 -0.0841 -0.2672  0.2746
 1842Sol     HW10324   1.209   0.910   7.648 -0.2878  0.1126 -0.7048
 1842Sol     HW10325   1.080   0.986   7.627 -0.9833 -0.9283 -0.2547
 1842Sol     MW10326   1.120   0.914   7.662 -0.1708 -0.1020  0.3095
 1843Sol     OW10327   0.932   1.873   8.124 -0.6273  0.2533  0.5447
 1843Sol     HW10328   0.879   1.794   8.131 -0.2715  0.0183  0.6164
 1843Sol     HW10329   0.998   1.863   8.193  0.8059 -0.4534 -0.8851
 1843Sol     MW10330   0.933   1.865   8.131 -0.0425 -0.0423 -0.2132
 1844Sol     OW10331   2.768   1.267   8.663 -0.6928 -0.1330  0.2088
 1844Sol     HW10332   2.751   1.335   8.598 -0.4045 -1.4196 -1.2406
 1844Sol     HW10333   2.800   1.315   8.740  0.7400  1.2591 -1.2219
 1844Sol     MW10334   2.769   1.278   8.664  0.2640  0.5682  0.0647
 1845Sol     OW10335   3.022   1.352   3.541 -0.6256  0.0356 -0.4172
 1845Sol     HW10336   2.933   1.329   3.569 -0.1151  0.3309  1.5132
 1845Sol     HW10337   3.055   1.410   3.610  1.1108 -0.1487 -1.0625
 1845Sol     MW10338   3.017   1.356   3.550 -0.2217  0.2140  0.5173
 1846Sol     OW10339   2.243   1.154   5.835  0.2189  0.2464  0.0922
 1846Sol     HW10340   2.334   1.132   5.813  0.3794 -0.2084  1.1437
 1846Sol     HW10341   2.240   1.250   5.832  0.6726  0.2513 -0.2070
 1846Sol     MW10342   2.251   1.161   5.833  0.3065  0.5358 -0.4236
 1847Sol     OW10343   3.035   0.021   8.618 -0.0186 -0.0007  0.0504
 1847Sol     HW10344   3.044   0.012   8.523  2.2622  1.2073  0.1206
 1847Sol     HW10345   3.093  -0.046   8.654 -0.3204  0.0301  0.6043
 1847Sol     MW10346   3.041   0.014   8.613  0.5857  0.7104 -0.1817
 1848Sol     OW10347   1.978   0.604   3.520 -0.2801 -0.6360  0.6097
 1848Sol     HW10348   1.960   0.635   3.431 -0.7221 -1.4173  0.4246
 1848Sol     HW10349   2.010   0.515   3.508  3.5643  0.6003  0.9454
 1848Sol     MW10350   1.979   0.599   3.511 -0.0208  0.4287 -0.3750
 1849Sol     OW10351   2.372   0.024   4.232 -0.0112 -0.0309  0.0979
 1849Sol     HW10352   2.406  -0.019   4.310 -2.2011 -1.0814  0.5349
 1849Sol     HW10353   2.402  -0.030   4.159  1.4264  0.5340  0.2749
 1849Sol     MW10354   2.377   0.015   4.232 -0.4837 -0.4799 -0.3320
 1850Sol     OW10355   0.933   2.383   9.138 -0.3534 -0.0539 -0.6763
 1850Sol     HW10356   0.991   2.322   9.093  0.4474  0.7989 -0.8382
 1850Sol     HW10357   0.973   2.469   9.123  0.5532  0.1741  2.5667
 1850Sol     MW10358   0.942   2.386   9.133 -0.1791  0.3333  0.3602
 1851Sol     OW10359   3.041   2.439   7.683 -0.1248  0.6435 -0.1342
 1851Sol     HW10360   3.081   2.369   7.631 -0.4147  1.3892 -1.3825
 1851Sol     HW10361   3.109   2.464   7.746  0.4243  0.1053 -0.5007
 1851Sol     MW10362   3.051   2.435   7.684  0.2993  0.4867 -0.4130
 1852Sol     OW10363   0.050   2.614   7.020 -0.1471 -0.2062  0.6854
 1852Sol     HW10364   0.012   2.589   6.937  0.5702 -0.6555  0.4864
 1852Sol     HW10365  -0.025   2.637   7.075 -0.7671 -2.0680  0.6395
 1852Sol     MW10366   0.040   2.614   7.018  0.2695 -0.1452  0.0172
 1853Sol     OW10367   1.548   0.770   3.455 -0.1931 -0.4035 -0.2242
 1853Sol     HW10368   1.621   0.822   3.421  1.8942 -3.3488 -0.4307
 1853Sol     HW10369   1.577   0.742   3.541 -1.4346 -0.9135  0.0355
 1853Sol     MW10370   1.557   0.772   3.459 -0.2077 -0.3082 -0.8285
 1854Sol     OW10371   2.183   0.127   6.600 -0.3801  0.3360  0.0732
 1854Sol     HW10372   2.189   0.222   6.590  0.5548  0.1641 -1.2180
 1854Sol     HW10373   2.108   0.113   6.658 -0.4595  1.8618  0.3575
 1854Sol     MW10374   2.177   0.134   6.604 -0.1078  0.3169 -0.5023
 1855Sol     OW10375   3.160   3.206   9.622 -0.4519  0.3274 -0.3167
 1855Sol     HW10376   3.175   3.277   9.559  0.3185 -1.4982 -2.2437
 1855Sol     HW10377   3.237   3.151   9.615 -1.3151 -1.0393  0.7165
 1855Sol     MW10378   3.168   3.208   9.616 -0.0111 -0.2764 -0.2137
 1856Sol     OW10379   0.442   2.510   5.787  0.2129 -0.0544 -0.0715
 1856Sol     HW10380   0.350   2.522   5.810  0.3451  1.5637 -0.3350
 1856Sol     HW10381   0.466   2.590   5.740  1.4850 -0.8888 -0.8669
 1856Sol     MW10382   0.436   2.518   5.785 -0.5350  0.1243 -0.3054
 1857Sol     OW10383   2.564   2.235   8.910  0.1437  0.1558  0.3381
 1857Sol     HW10384   2.561   2.140   8.897  0.9738  0.2688 -0.8172
 1857Sol     HW10385   2.621   2.248   8.986  3.3305 -0.1354 -1.8637
 1857Sol     MW10386   2.569   2.228   8.915 -0.3292  0.4990  0.4470
 1858Sol     OW10387   1.151   2.301   3.102  0.0978 -0.0091  0.4856
 1858Sol     HW10388   1.161   2.329   3.193 -0.6521  0.6931  0.3540
 1858Sol     HW10389   1.240   2.304   3.066  0.0912  1.7402  0.6030
 1858Sol     MW10390   1.160   2.303   3.107 -0.6194  0.3148 -0.0328
 1859Sol     OW10391   2.631   1.483   6.638 -0.3024 -0.0889 -0.4026
 1859Sol     HW10392   2.536   1.495   6.640 -0.1797  0.6311  1.0496
 1859Sol     HW10393   2.642   1.390   6.617 -1.3284 -0.3392  0.1314
 1859Sol     MW10394   2.623   1.476   6.636 -0.6967  0.2822  0.1790
 1860Sol     OW10395   0.904   0.223   7.830 -0.5588  0.4343  0.3962
 1860Sol     HW10396   0.998   0.209   7.816 -1.0919 -0.0916 -3.2625
 1860Sol     HW10397   0.890   0.315   7.807 -0.7833  0.7985  1.9667
 1860Sol     MW10398   0.911   0.230   7.827  0.4083 -0.1262 -0.1361
 1861Sol     OW10399   3.179   2.833   1.734  0.2280 -0.0568  0.1322
 1861Sol     HW10400   3.245   2.767   1.712  0.2727  0.6338 -1.8430
 1861Sol     HW10401   3.194   2.904   1.671 -1.1090  0.9822  0.9603
 1861Sol     MW10402   3.186   2.833   1.727 -0.2042  0.0119 -0.2955
 1862Sol     OW10403   0.332   2.736   6.043 -0.1644  0.7678  0.1587
 1862Sol     HW10404   0.248   2.705   6.010  0.1384  1.9903 -1.8756
 1862Sol     HW10405   0.363   2.666   6.100 -1.4456 -0.7759 -1.0001
 1862Sol     MW10406   0.327   2.727   6.045  0.5053 -0.2934  0.1509
 1863Sol     OW10407   2.620   2.279   3.345  0.0548  0.0139 -0.4918
 1863Sol     HW10408   2.648   2.338   3.276 -0.1148 -1.2396 -1.6643
 1863Sol     HW10409   2.691   2.215   3.353 -0.7626 -0.9539 -0.8339
 1863Sol     MW10410   2.628   2.278   3.340 -0.0816 -0.2257  0.1577
 1864Sol     OW10411   2.771   1.699   5.011 -0.1500 -0.2568  0.2926
 1864Sol     HW10412   2.862   1.694   5.042 -0.2789 -0.0160  0.7036
 1864Sol     HW10413   2.740   1.609   5.016  0.3334 -0.4940 -0.6659
 1864Sol     MW10414   2.777   1.690   5.014 -0.1901 -0.1871  0.2391
 1865Sol     OW10415   1.611   1.641   6.142  0.0344 -0.1986 -0.4849
 1865Sol     HW10416   1.518   1.621   6.149 -0.6403  2.6014 -0.7093
 1865Sol     HW10417   1.617   1.700   6.066  1.7465  0.9479  0.5166
 1865Sol     MW10418   1.603   1.645   6.136 -0.7154 -0.1908  0.4328
 1866Sol     OW10419   2.572   2.985   3.216  0.4238 -0.2025  0.6614
 1866Sol     HW10420   2.510   3.017   3.151  0.8576  2.2320  1.3714
 1866Sol     HW10421   2.517   2.950   3.287 -0.2261  2.5613  1.5973
 1866Sol     MW10422   2.561   2.985   3.217 -0.7261 -0.3843 -0.4590
 1867Sol     OW10423   2.545   0.271   3.924 -0.1509  0.0464 -0.2384
 1867Sol     HW10424   2.573   0.272   3.832  0.1075 -0.0779 -0.1621
 1867Sol     HW10425   2.627   0.274   3.974 -0.0237 -3.8199 -0.0013
 1867Sol     MW10426   2.555   0.271   3.920  0.4250  0.5151 -0.3312
 1868Sol     OW10427   1.700   1.781   9.306  0.0850 -0.5077  0.5207
 1868Sol     HW10428   1.792   1.771   9.329  0.3550  0.1696 -0.2409
 1868Sol     HW10429   1.659   1.698   9.330  0.7902 -0.6191  1.3481
 1868Sol     MW10430   1.704   1.773   9.311  0.2316  0.1091 -0.7890
 1869Sol     OW10431   1.879   0.649   5.133 -0.0582 -0.3538 -0.1060
 1869Sol     HW10432   1.784   0.644   5.133 -0.0456 -0.6210 -0.7858
 1869Sol     HW10433   1.901   0.702   5.056  0.3230  0.1719  0.3534
 1869Sol     MW10434   1.873   0.654   5.126  0.0473  0.2511  0.2395
 1870Sol     OW10435   1.081   0.228   2.762  0.4662 -0.4197  0.1105
 1870Sol     HW10436   1.036   0.235   2.846  0.9999  2.1450  0.2071
 1870Sol     HW10437   1.158   0.175   2.780 -0.5475 -1.7098  0.7440
 1870Sol     MW10438   1.084   0.224   2.771  0.7681  0.1588 -0.5225
 1871Sol     OW10439   2.524   2.202   8.256  0.1182  0.0025  0.0755
 1871Sol     HW10440   2.430   2.194   8.246 -0.0910  0.4337  1.4735
 1871Sol     HW10441   2.537   2.292   8.287  0.9946  0.0118 -0.3219
 1871Sol     MW10442   2.517   2.209   8.258  0.5208 -0.3345 -0.2816
 1872Sol     OW10443   2.986   2.995   7.219  0.2212  0.1099  0.2330
 1872Sol     HW10444   2.927   3.057   7.261  0.1236  1.2823 -1.5797
 1872Sol     HW10445   2.974   2.913   7.268 -0.9213  1.0530  1.5613
 1872Sol     MW10446   2.980   2.993   7.227 -0.1231 -0.2520  0.6516
 1873Sol     OW10447   3.010   1.618   5.982  0.4657  0.1923 -0.6262
 1873Sol     HW10448   2.963   1.630   6.064 -1.8692  1.1599 -2.0555
 1873Sol     HW10449   3.095   1.660   5.996 -0.5120  1.7283  0.7663
 1873Sol     MW10450   3.013   1.623   5.990 -0.3432 -0.0967 -0.3793
 1874Sol     OW10451   3.059   0.185   8.128  0.3696  0.3666  0.5740
 1874Sol     HW10452   2.999   0.145   8.065  0.7893  1.5579 -0.6121
 1874Sol     HW10453   3.003   0.245   8.178  0.2383  0.2299  0.5915
 1874Sol     MW10454   3.048   0.187   8.127  0.5057  0.0415 -0.3563
 1875Sol     OW10455   0.997   1.409   2.680  0.3987 -0.1288 -0.0470
 1875Sol     HW10456   0.987   1.438   2.590 -2.2463  0.6618  0.4578
 1875Sol     HW10457   0.971   1.317   2.678  1.6544 -0.4968 -0.2997
 1875Sol     MW10458   0.994   1.403   2.672  0.1645 -0.6447 -0.1423
 1876Sol     OW10459   1.756   2.334   4.490 -0.3175 -0.0034 -0.0207
 1876Sol     HW10460   1.742   2.382   4.408  2.8564  0.7178 -0.2106
 1876Sol     HW10461   1.804   2.395   4.545 -0.5536 -1.2539  1.6083
 1876Sol     MW10462   1.759   2.344   4.487  0.1707 -0.6968 -0.0507
 1877Sol     OW10463   1.818   1.800   5.298 -0.2227 -0.1668 -0.2267
 1877Sol     HW10464   1.766   1.723   5.319  0.2168  0.4905  3.5102
 1877Sol     HW10465   1.788   1.867   5.359  1.8095  1.6019 -1.1046
 1877Sol     MW10466   1.811   1.799   5.305 -0.1135  0.0669  0.3210
 1878Sol     OW10467   1.415   1.190   1.842 -0.2382  0.4083  0.3182
 1878Sol     HW10468   1.441   1.263   1.897 -0.9730  0.8868  0.0324
 1878Sol     HW10469   1.353   1.140   1.896 -0.3608  0.4481  0.2149
 1878Sol     MW10470   1.411   1.192   1.852  0.4235 -0.1482  0.0377
 1879Sol     OW10471   2.642   0.304   6.984 -0.3793 -0.1418  0.1322
 1879Sol     HW10472   2.592   0.381   7.014  1.7944  0.8431  1.3297
 1879Sol     HW10473   2.709   0.341   6.926  0.8983 -1.0703  0.9922
 1879Sol     MW10474   2.643   0.314   6.982 -0.3164  0.2077  0.1004
 1880Sol     OW10475   2.551   0.729   9.376 -0.0566  0.0531 -0.2386
 1880Sol     HW10476   2.610   0.666   9.417  2.3398  1.4525 -1.4176
 1880Sol     HW10477   2.468   0.682   9.365  0.8772 -2.0118  1.2787
 1880Sol     MW10478   2.549   0.719   9.379 -0.2563  0.2166 -0.4430
 1881Sol     OW10479   2.397   0.182   3.235  0.0897  0.2316  0.5628
 1881Sol     HW10480   2.339   0.146   3.168 -0.9727  0.0886  1.5422
 1881Sol     HW10481   2.404   0.112   3.300 -0.1545  0.9532  1.3673
 1881Sol     MW10482   2.392   0.173   3.235  0.1349  0.2508  0.3626
 1882Sol     OW10483   1.220   1.964   7.759  0.3376 -0.0669  0.2403
 1882Sol     HW10484   1.154   2.003   7.816 -0.8752  0.5076 -1.5263
 1882Sol     HW10485   1.259   2.039   7.713  2.0588 -0.4211  1.0885
 1882Sol     MW10486   1.218   1.975   7.760  0.4679  0.7551  0.0506
 1883Sol     OW10487   2.461   1.826   8.528  0.0072  0.1981  0.3888
 1883Sol     HW10488   2.458   1.921   8.513 -0.7540 -0.1255 -1.7752
 1883Sol     HW10489   2.371   1.803   8.550 -0.3376 -0.3489 -1.4989
 1883Sol     MW10490   2.453   1.833   8.529 -0.1398 -0.1318 -0.0796
 1884Sol     OW10491   0.219   0.368   9.012  0.2623  0.3590  0.0150
 1884Sol     HW10492   0.180   0.367   8.924 -0.0339 -0.1622  0.1510
 1884Sol     HW10493   0.217   0.276   9.040 -0.1583  0.6087  0.7964
 1884Sol     MW10494   0.216   0.359   9.006  0.3780  0.3972 -0.6593
 1885Sol     OW10495   0.620   2.778   4.856 -0.1761  0.2061  0.3298
 1885Sol     HW10496   0.595   2.869   4.873 -1.0791 -0.0134  0.1962
 1885Sol     HW10497   0.540   2.736   4.825  0.4926 -0.3777 -0.6540
 1885Sol     MW10498   0.611   2.782   4.855  0.1006 -0.0849  0.1902
 1886Sol     OW10499   1.495   0.727   7.577 -0.3524 -0.0072  0.6958
 1886Sol     HW10500   1.584   0.703   7.550 -0.9950 -0.4363 -1.1379
 1886Sol     HW10501   1.468   0.657   7.636 -0.4483 -1.2974 -0.8588
 1886Sol     MW10502   1.501   0.719   7.580  0.0340  0.3955  0.1652
 1887Sol     OW10503   0.433   1.553   7.702 -0.2125  0.3398 -0.3534
 1887Sol     HW10504   0.427   1.457   7.701  0.0516  0.3119 -2.7857
 1887Sol     HW10505   0.522   1.571   7.731 -0.2734 -0.1506  0.1446
 1887Sol     MW10506   0.440   1.546   7.704  0.0996  0.1629  0.1262
 1888Sol     OW10507   1.150   0.413   7.144  0.2532 -0.6034  0.1001
 1888Sol     HW10508   1.211   0.460   7.087 -0.7598  1.0107  0.3104
 1888Sol     HW10509   1.191   0.414   7.230  0.4254 -0.4941  0.0159
 1888Sol     MW10510   1.159   0.417   7.146  0.4834  0.3977  0.2220
 1889Sol     OW10511   2.699   2.680   1.989  0.2488  0.4443  0.1790
 1889Sol     HW10512   2.753   2.603   1.968 -0.2009 -0.3559  1.8460
 1889Sol     HW10513   2.721   2.701   2.080 -1.0608  1.0866  0.3662
 1889Sol     MW10514   2.706   2.675   1.995  0.3954  0.1959  0.2302
 1890Sol     OW10515   2.191   1.484   7.132  0.1035  0.0429  0.0080
 1890Sol     HW10516   2.181   1.398   7.170  0.4550  0.6228  1.4307
 1890Sol     HW10517   2.108   1.528   7.148 -0.0800 -0.0263 -0.7244
 1890Sol     MW10518   2.183   1.481   7.137  0.5682 -0.2334 -0.0377
 1891Sol     OW10519   2.117   2.022   4.942  0.0937 -0.0523 -0.2615
 1891Sol     HW10520   2.176   1.950   4.964 -0.6060 -0.4916  0.1724
 1891Sol     HW10521   2.036   2.004   4.989 -0.2754  0.7417 -0.5626
 1891Sol     MW10522   2.115   2.014   4.948  0.4153  0.0649 -0.0725
 1892Sol     OW10523   1.050   3.126   3.702 -0.0783  0.4412  0.4821
 1892Sol     HW10524   1.086   3.060   3.761 -0.0321  0.8987  0.9646
 1892Sol     HW10525   1.034   3.078   3.620  1.0385  0.0860  0.4546
 1892Sol     MW10526   1.052   3.116   3.700 -0.4904 -0.0298 -0.1472
 1893Sol     OW10527   1.837   0.923   7.362  0.6036  0.1666 -0.7808
 1893Sol     HW10528   1.808   0.849   7.308  0.9951 -0.0407 -0.7059
 1893Sol     HW10529   1.891   0.976   7.304  0.4569  0.3078 -0.7883
 1893Sol     MW10530   1.839   0.921   7.352 -0.0617 -0.2154 -0.2004
 1894Sol     OW10531   0.145   3.172   5.303 -0.2725  0.5877  0.2254
 1894Sol     HW10532   0.238   3.152   5.310 -0.0917  1.5384  0.5548
 1894Sol     HW10533   0.111   3.158   5.392 -0.6401 -0.6893 -0.0996
 1894Sol     MW10534   0.150   3.169   5.312  0.6065 -0.2466 -0.5300
 1895Sol     OW10535   2.300   3.137   5.684  0.0231  0.2032  0.2246
 1895Sol     HW10536   2.239   3.108   5.752 -0.0181  0.9305  0.4978
 1895Sol     HW10537   2.339   3.056   5.652  0.3858 -0.1201  1.4399
 1895Sol     MW10538   2.298   3.127   5.687 -0.3753 -0.2753 -0.0876
 1896Sol     OW10539   2.555   1.583   5.382  0.7556  0.0976 -0.0563
 1896Sol     HW10540   2.485   1.643   5.410  0.5093 -0.2008 -0.0282
 1896Sol     HW10541   2.516   1.530   5.313  1.4480  1.0020 -1.1538
 1896Sol     MW10542   2.545   1.584   5.379  0.3322 -0.4675 -0.2221
 1897Sol     OW10543   3.121   3.368   7.216 -0.8220 -0.2558  0.3481
 1897Sol     HW10544   3.090   3.336   7.131 -3.0528 -1.6235  1.6309
 1897Sol     HW10545   3.143   3.460   7.201  0.5239 -0.9546 -2.1228
 1897Sol     MW10546   3.120   3.373   7.207  0.6958  1.2103 -0.0650
 1898Sol     OW10547   1.909   1.804   7.405  0.5567 -0.1167 -0.2970
 1898Sol     HW10548   2.000   1.825   7.425  1.2178 -2.4420 -0.7713
 1898Sol     HW10549   1.886   1.734   7.466 -1.2474  1.1059  0.4909
 1898Sol     MW10550   1.915   1.800   7.412 -0.2172 -0.2984 -0.2415
 1899Sol     OW10551   2.115   1.487   8.696 -0.0375  0.2972 -0.0252
 1899Sol     HW10552   2.053   1.506   8.767  0.9107 -1.7538  1.4186
 1899Sol     HW10553   2.180   1.430   8.737  1.7513  0.8656 -2.0164
 1899Sol     MW10554   2.115   1.484   8.706 -0.8483 -0.1447  0.1139
 1900Sol     OW10555   2.107   1.829   6.489  0.3064 -0.1715 -0.1135
 1900Sol     HW10556   2.072   1.849   6.403  2.5380 -0.1760 -1.0567
 1900Sol     HW10557   2.202   1.831   6.477  0.6766  1.1531  2.6259
 1900Sol     MW10558   2.112   1.831   6.480 -0.0112  0.2885  0.4240
 1901Sol     OW10559   1.392   1.186   4.359  0.5288 -0.0658  0.2745
 1901Sol     HW10560   1.318   1.214   4.304 -1.0627 -3.6023  0.4908
 1901Sol     HW10561   1.422   1.266   4.401 -3.7629  1.3554  0.8619
 1901Sol     MW10562   1.388   1.196   4.358 -0.4710 -0.1116 -0.3252
 1902Sol     OW10563   2.333   1.316   2.605 -0.0665 -0.2283  0.0492
 1902Sol     HW10564   2.280   1.237   2.597  0.1774 -0.1752 -2.6276
 1902Sol     HW10565   2.422   1.284   2.620 -0.0919 -0.4522 -0.2729
 1902Sol     MW10566   2.336   1.306   2.605  0.6158 -0.3366  0.5195
 1903Sol     OW10567   1.771   2.672   9.015 -0.1719 -0.2666 -0.3536
 1903Sol     HW10568   1.777   2.697   9.107 -3.5724 -0.4492 -0.0147
 1903Sol     HW10569   1.760   2.577   9.016  0.6533 -0.3713 -0.9923
 1903Sol     MW10570   1.770   2.666   9.023  0.1183 -0.0484  0.0177
 1904Sol     OW10571   2.585   1.945   3.322  0.0603 -0.0310 -0.2524
 1904Sol     HW10572   2.657   2.006   3.343  1.5895 -1.1576 -2.0557
 1904Sol     HW10573   2.621   1.889   3.253 -2.8471 -0.1085 -1.7765
 1904Sol     MW10574   2.595   1.946   3.318  0.6981  0.1105  0.6217
 1905Sol     OW10575   2.822   0.844   6.658 -0.0512  0.2749  0.0370
 1905Sol     HW10576   2.813   0.807   6.570  0.7873 -0.4821  0.2617
 1905Sol     HW10577   2.912   0.825   6.682 -0.2657  0.5320  1.0439
 1905Sol     MW10578   2.829   0.839   6.652  0.0174  0.6055  0.0062
 1906Sol     OW10579   1.227   3.412   5.736 -0.3472  0.1894  0.1262
 1906Sol     HW10580   1.291   3.390   5.803 -0.9925  0.7411  0.9274
 1906Sol     HW10581   1.226   3.507   5.734 -1.0050  0.1781 -0.0202
 1906Sol     MW10582   1.233   3.418   5.742 -0.6305 -0.3393 -0.3702
 1907Sol     OW10583   0.430   1.259   3.378  0.0780  0.1243 -0.0402
 1907Sol     HW10584   0.494   1.255   3.307  0.3419 -0.1277  0.2086
 1907Sol     HW10585   0.477   1.224   3.454 -0.1818  0.4546  0.2725
 1907Sol     MW10586   0.440   1.255   3.378 -1.0243 -0.4597  0.3857
 1908Sol     OW10587   0.924   3.412   9.369  0.1814  0.1750  0.1174
 1908Sol     HW10588   0.862   3.422   9.297  0.1892  0.7636  0.1888
 1908Sol     HW10589   1.009   3.401   9.327  0.0498 -0.5051  0.0229
 1908Sol     MW10590   0.926   3.412   9.359 -0.1733  0.2937 -0.4440
 1909Sol     OW10591   0.587   1.424   8.256  0.0029 -0.3458 -1.0159
 1909Sol     HW10592   0.586   1.519   8.240  1.2068 -0.3907 -1.4099
 1909Sol     HW10593   0.618   1.387   8.174  2.0627 -0.8954 -0.0070
 1909Sol     MW10594   0.590   1.429   8.247  0.2634 -0.0395  0.6698
 1910Sol     OW10595   1.575   0.123   1.568  0.1699 -0.0282  0.0316
 1910Sol     HW10596   1.663   0.149   1.542  0.4390 -0.4275  0.5333
 1910Sol     HW10597   1.587   0.039   1.613 -0.2402  0.7950  1.6982
 1910Sol     MW10598   1.584   0.118   1.570  0.3982  0.0052  0.0888
 1911Sol     OW10599   1.849   2.831   5.731  0.6926  0.0746  0.0279
 1911Sol     HW10600   1.826   2.766   5.797 -0.9082 -0.4476 -1.0145
 1911Sol     HW10601   1.844   2.915   5.778 -0.8524 -0.2527  0.4711
 1911Sol     MW10602   1.847   2.833   5.742 -0.6052 -0.8458  0.7067
 1912Sol     OW10603   2.927   0.308   3.606  0.3961  0.2147 -0.6109
 1912Sol     HW10604   2.901   0.315   3.514  0.9692  0.3686 -0.7594
 1912Sol     HW10605   2.927   0.213   3.623 -2.3962  0.2789  0.0063
 1912Sol     MW10606   2.925   0.300   3.599 -0.5345  0.1352 -0.1046
 1913Sol     OW10607   1.549   0.822   1.602 -0.0635 -0.1718  0.0725
 1913Sol     HW10608   1.577   0.885   1.536 -1.0634  1.0954  0.8348
 1913Sol     HW10609   1.577   0.861   1.685  1.0759 -1.6898  0.4081
 1913Sol     MW10610   1.554   0.831   1.604  0.5465 -0.2286 -0.3374
 1914Sol     OW10611   1.838   1.931   5.738 -0.0229 -0.0872 -0.5415
 1914Sol     HW10612   1.803   2.010   5.779  0.6567 -0.9268  1.7245
 1914Sol     HW10613   1.802   1.859   5.789  1.0915 -1.1608 -1.2395
 1914Sol     MW10614   1.832   1.931   5.746  0.5359  0.0396  0.0598
 1915Sol     OW10615   0.673   3.060   4.054 -0.2597 -0.3760  0.1874
 1915Sol     HW10616   0.726   3.004   4.110  1.5351  0.5382 -0.5595
 1915Sol     HW10617   0.736   3.106   3.998 -1.6810  2.1973  0.5851
 1915Sol     MW10618   0.683   3.059   4.054 -0.0246  0.5327 -0.5420
 1916Sol     OW10619   0.414   0.020   3.266 -0.1691  0.3112  0.9882
 1916Sol     HW10620   0.351   0.016   3.195 -0.2064 -0.6074  1.0591
 1916Sol     HW10621   0.496   0.045   3.224  0.0712 -1.3284  0.4171
 1916Sol     MW10622   0.416   0.022   3.256  0.3053  0.1561 -0.5636
 1917Sol     OW10623   2.357   0.429   3.319 -0.1754 -0.4252  0.4143
 1917Sol     HW10624   2.434   0.444   3.375  0.1669  1.1361 -0.4384
 1917Sol     HW10625   2.346   0.334   3.319 -0.6147 -0.4406  3.7029
 1917Sol     MW10626   2.363   0.422   3.324 -0.5631 -0.4759  0.3141
 1918Sol     OW10627   0.590   0.371   4.569  0.0763  0.4142  0.2488
 1918Sol     HW10628   0.655   0.379   4.499  1.2862  1.1103  1.4380
 1918Sol     HW10629   0.620   0.296   4.620 -0.8074 -0.0909  0.0372
 1918Sol     MW10630   0.599   0.365   4.567  0.0885  0.3241 -0.0589
 1919Sol     OW10631   2.730   3.028   2.188 -0.3801  0.5269  0.1521
 1919Sol     HW10632   2.737   3.004   2.096  1.1432 -1.2872  0.7194
 1919Sol     HW10633   2.758   2.950   2.236 -2.4828  0.9672  2.1994
 1919Sol     MW10634   2.733   3.019   2.184 -0.1473  0.4060  0.1536
 1920Sol     OW10635   2.584   1.143   6.334 -0.3626  0.2576 -0.2113
 1920Sol     HW10636   2.624   1.119   6.418 -0.2497 -0.9653 -0.6062
 1920Sol     HW10637   2.646   1.111   6.268 -2.0591 -1.8705 -0.8347
 1920Sol     MW10638   2.593   1.138   6.336  0.0896 -0.3598 -0.4328
 1921Sol     OW10639   3.218   0.488   9.918  0.2039 -0.6126  0.0440
 1921Sol     HW10640   3.139   0.497   9.971  0.2856 -0.4520  0.1380
 1921Sol     HW10641   3.197   0.419   9.855 -0.3765  0.1172 -0.5807
 1921Sol     MW10642   3.209   0.483   9.917  0.1727  0.3240 -0.2362
 1922Sol     OW10643   2.950   2.831   6.773  0.4878 -0.2216 -0.4778
 1922Sol     HW10644   2.912   2.863   6.691 -0.1818  1.8941  0.6195
 1922Sol     HW10645   2.891   2.864   6.841  2.2245 -0.0887  0.9984
 1922Sol     MW10646   2.941   2.837   6.771  0.0567  0.0286 -0.3038
 1923Sol     OW10647   2.933   2.705   7.378  0.1483 -0.1025 -0.0059
 1923Sol     HW10648   2.858   2.671   7.427  0.4829  1.0920  1.3644
 1923Sol     HW10649   3.002   2.716   7.443  0.4481  1.9562 -0.6351
 1923Sol     MW10650   2.932   2.703   7.388  0.5407 -0.4081 -0.0105
 1924Sol     OW10651   1.523   1.842   6.804 -0.9417  0.1907  0.4253
 1924Sol     HW10652   1.584   1.789   6.753 -2.9058 -1.0081 -0.7964
 1924Sol     HW10653   1.558   1.931   6.801 -0.3113 -0.1027 -1.9459
 1924Sol     MW10654   1.531   1.845   6.799 -0.4239 -0.0172  0.0592
 1925Sol     OW10655   2.802   1.234   3.656 -0.2693 -0.1165  0.1230
 1925Sol     HW10656   2.712   1.222   3.624 -0.1164  0.9198 -0.7214
 1925Sol     HW10657   2.793   1.292   3.731 -0.1907  0.9942 -0.7142
 1925Sol     MW10658   2.793   1.238   3.660 -0.3006  0.0296  0.5027
 1926Sol     OW10659   2.487   2.438   7.377 -0.4339 -0.3873  0.0220
 1926Sol     HW10660   2.426   2.507   7.351 -0.7961 -1.1167 -1.0897
 1926Sol     HW10661   2.445   2.396   7.452 -0.5940  0.0590  0.1879
 1926Sol     MW10662   2.478   2.441   7.382  0.4628  0.1305  0.0998
 1927Sol     OW10663   0.622   1.295   5.652  0.1739  0.1401  0.0256
 1927Sol     HW10664   0.678   1.355   5.603  0.9436 -1.9054 -1.6958
 1927Sol     HW10665   0.656   1.298   5.741  0.1436  2.2709  0.0060
 1927Sol     MW10666   0.630   1.301   5.656  0.0080  0.0030 -0.3537
 1928Sol     OW10667   0.484   2.171   8.951 -0.2636  0.4955  0.0832
 1928Sol     HW10668   0.532   2.193   9.031  3.6746 -2.4211 -1.3239
 1928Sol     HW10669   0.528   2.221   8.883 -0.1705 -1.0853 -1.0287
 1928Sol     MW10670   0.492   2.177   8.952 -0.3287 -0.4246 -0.5439
 1929Sol     OW10671   3.224   0.303   6.169  0.0510 -0.8228 -0.0268
 1929Sol     HW10672   3.289   0.247   6.126 -0.5709 -1.1729 -0.5113
 1929Sol     HW10673   3.213   0.264   6.256  1.0736 -0.2972  0.3499
 1929Sol     MW10674   3.229   0.295   6.173  0.0828 -0.3417  0.3413
 1930Sol     OW10675   0.407   2.797   7.315  0.3072  0.1916  0.2107
 1930Sol     HW10676   0.358   2.715   7.311  1.1356 -0.3295  0.8300
 1930Sol     HW10677   0.341   2.864   7.298 -0.0542 -0.6974 -2.1281
 1930Sol     MW10678   0.396   2.796   7.313 -0.0655  0.1646  0.1890
 1931Sol     OW10679   0.608   2.378   8.780 -0.0579 -0.1826 -0.1530
 1931Sol     HW10680   0.652   2.364   8.863 -0.5084  0.0093  0.1187
 1931Sol     HW10681   0.678   2.400   8.718  0.3590 -1.0315  0.0124
 1931Sol     MW10682   0.618   2.378   8.782  0.5142  0.2399 -0.1848
 1932Sol     OW10683   0.701   1.523   9.356  0.4833  0.2645  0.5103
 1932Sol     HW10684   0.746   1.607   9.348 -0.3967  0.5980 -1.1406
 1932Sol     HW10685   0.613   1.546   9.387  0.1224  0.0031 -0.3010
 1932Sol     MW10686   0.697   1.533   9.358 -0.1572 -0.2363 -0.2216
 1933Sol     OW10687   0.924   2.948   7.809 -0.4163  0.2637 -0.3048
 1933Sol     HW10688   0.915   2.852   7.814 -2.0534  0.4157  0.0581
 1933Sol     HW10689   0.990   2.962   7.741  1.5812 -1.1779  1.2513
 1933Sol     MW10690   0.929   2.940   7.803  0.0431 -0.0547  0.0779
 1934Sol     OW10691   1.659   0.639   3.008 -0.6374 -0.2279 -0.0510
 1934Sol     HW10692   1.712   0.670   2.935  0.0950 -0.2232  0.4787
 1934Sol     HW10693   1.616   0.717   3.041  1.0066  0.2084  1.1213
 1934Sol     MW10694   1.660   0.649   3.004 -0.0235  0.5863 -0.0026
 1935Sol     OW10695   2.819   3.138   5.891 -0.7434 -0.5705  0.5644
 1935Sol     HW10696   2.851   3.105   5.975  1.3139 -1.2645 -0.4410
 1935Sol     HW10697   2.760   3.210   5.914 -0.0279 -0.5918  2.5874
 1935Sol     MW10698   2.817   3.141   5.900  0.4505 -0.9137  0.0917
 1936Sol     OW10699   0.962   0.880   4.518 -0.4802 -0.3320 -0.3643
 1936Sol     HW10700   0.918   0.965   4.519  0.2201  0.0632 -1.9953
 1936Sol     HW10701   0.974   0.859   4.611 -2.6210  0.3152  0.0842
 1936Sol     MW10702   0.959   0.886   4.527 -0.1063 -0.2527 -0.0727
 1937Sol     OW10703   3.188   1.171   5.919  0.2151 -0.1462 -0.0576
 1937Sol     HW10704   3.161   1.242   5.977 -1.1146 -0.3006 -0.4700
 1937Sol     HW10705   3.253   1.210   5.860 -0.0000  0.5453  0.1652
 1937Sol     MW10706   3.191   1.181   5.919  0.2977  0.3179  0.0829
 1938Sol     OW10707   0.168   0.704   6.919  0.1032  0.2671 -0.2193
 1938Sol     HW10708   0.188   0.646   6.846 -1.2262  0.0959 -0.4574
 1938Sol     HW10709   0.221   0.671   6.992  0.4532 -0.3461 -0.7492
 1938Sol     MW10710   0.174   0.696   6.919  0.2695 -0.0052 -0.8009
 1939Sol     OW10711   0.236   1.078   3.011 -0.1501  0.3140 -0.3885
 1939Sol     HW10712   0.153   1.033   3.000 -1.1795  2.0185  0.2357
 1939Sol     HW10713   0.226   1.129   3.091  1.8711 -0.2616  0.2725
 1939Sol     MW10714   0.228   1.079   3.017 -0.2822  0.5179  0.6331
 1940Sol     OW10715   1.132   1.836   2.295 -0.3014 -0.2776 -0.3020
 1940Sol     HW10716   1.108   1.910   2.351 -0.9460  0.0288 -0.9720
 1940Sol     HW10717   1.213   1.803   2.333 -0.9851 -0.3871  1.1022
 1940Sol     MW10718   1.137   1.840   2.303  0.2606 -0.2096  0.0088
 1941Sol     OW10719   2.090   0.161   9.150 -0.1241  0.0850  0.5794
 1941Sol     HW10720   2.162   0.099   9.163  0.5298  0.9049  0.9329
 1941Sol     HW10721   2.132   0.247   9.152 -1.1060  0.5723  0.6874
 1941Sol     MW10722   2.100   0.163   9.151  0.3326  0.0523 -0.4168
 1942Sol     OW10723   2.903   0.542   8.102 -0.2911  0.2463 -0.3444
 1942Sol     HW10724   2.894   0.638   8.104 -2.5024  0.0570  1.1081
 1942Sol     HW10725   2.840   0.513   8.036 -1.1067 -0.3045  0.6497
 1942Sol     MW10726   2.896   0.548   8.097 -0.4856 -0.1140 -0.2501
 1943Sol     OW10727   1.821   1.873   7.058 -0.2170  0.0020 -0.3413
 1943Sol     HW10728   1.847   1.903   7.145 -1.3219  1.4662 -0.4963
 1943Sol     HW10729   1.797   1.781   7.070 -0.3698  0.2004  0.9006
 1943Sol     MW10730   1.821   1.868   7.067  0.0367  0.1290 -0.1192
 1944Sol     OW10731   1.430   0.871   7.910 -0.3065  0.1467 -0.1156
 1944Sol     HW10732   1.424   0.797   7.849 -1.0902 -1.0059  1.2941
 1944Sol     HW10733   1.464   0.832   7.991  2.4721  1.9952 -0.3491
 1944Sol     MW10734   1.432   0.861   7.912  0.3292  0.1724  0.0276
 1945Sol     OW10735   1.130   0.293   5.278  0.0613  0.0871  0.1264
 1945Sol     HW10736   1.074   0.306   5.202  1.6396 -0.0581 -1.0949
 1945Sol     HW10737   1.136   0.198   5.287  0.9167  0.0842 -0.3823
 1945Sol     MW10738   1.125   0.286   5.272  0.2220  0.3544  0.0899
 1946Sol     OW10739   1.795   3.329   9.560  0.1718  0.3271  0.0213
 1946Sol     HW10740   1.859   3.259   9.575  1.7018  1.8688  0.9509
 1946Sol     HW10741   1.809   3.355   9.469 -0.2350 -0.3958 -0.2545
 1946Sol     MW10742   1.802   3.325   9.554  0.2124  0.1766  0.1832
 1947Sol     OW10743   2.131   2.029   3.759  0.1298 -0.3069 -0.3760
 1947Sol     HW10744   2.118   1.934   3.764  0.3303 -0.3468 -0.6515
 1947Sol     HW10745   2.059   2.060   3.703 -0.0502 -0.2718 -0.1283
 1947Sol     MW10746   2.123   2.023   3.755  0.3729 -0.0903 -0.7703
 1948Sol     OW10747   0.277   1.113   4.897  0.1241 -0.6986 -0.2392
 1948Sol     HW10748   0.346   1.160   4.850  0.5121 -0.8388  0.1869
 1948Sol     HW10749   0.274   1.155   4.983  1.0392 -1.9912  0.4285
 1948Sol     MW10750   0.283   1.121   4.900 -0.2313 -0.4383 -0.5121
 1949Sol     OW10751   3.120   2.541   9.482 -0.3141 -0.1276  0.1936
 1949Sol     HW10752   3.054   2.608   9.497  0.9371  1.9478 -2.9612
 1949Sol     HW10753   3.069   2.463   9.459 -1.7090  1.0036 -0.6675
 1949Sol     MW10754   3.109   2.540   9.481  0.0319  0.1414 -0.0500
 1950Sol     OW10755   0.969   3.055   3.226 -0.3885  0.9233  0.2433
 1950Sol     HW10756   1.007   3.021   3.307 -0.8235  1.8153  0.8226
 1950Sol     HW10757   1.026   3.127   3.200  0.5807 -0.2618 -1.0360
 1950Sol     MW10758   0.977   3.058   3.231 -0.3357  0.3346  0.2923
 1951Sol     OW10759   0.529   0.574   4.198  0.2970 -0.0802 -0.2276
 1951Sol     HW10760   0.520   0.492   4.247  1.2142  0.9960  1.7661
 1951Sol     HW10761   0.439   0.605   4.187  0.1599  0.2309  1.7493
 1951Sol     MW10762   0.520   0.569   4.201  0.0644 -0.1259 -0.1713
 1952Sol     OW10763   0.862   0.670   5.428 -0.8726 -0.2781  0.3632
 1952Sol     HW10764   0.888   0.687   5.518 -1.5169  0.0702  0.4830
 1952Sol     HW10765   0.795   0.735   5.409  0.0827  0.3986 -0.7416
 1952Sol     MW10766   0.858   0.677   5.434 -0.2982 -0.3612  0.1758
 1953Sol     OW10767   3.038   2.599   7.151  0.9541  0.4175  0.3777
 1953Sol     HW10768   3.007   2.642   7.230  0.4240  1.0487 -0.1727
 1953Sol     HW10769   2.965   2.605   7.089  2.0583  1.7100 -0.8450
 1953Sol     MW10770   3.029   2.603   7.152  0.2654  0.0018  0.2117
 1954Sol     OW10771   2.347   3.165   2.511  0.2528 -0.1213  0.2357
 1954Sol     HW10772   2.315   3.251   2.538  0.2035 -0.0365 -0.0948
 1954Sol     HW10773   2.440   3.165   2.536  0.2493  0.0232  0.2503
 1954Sol     MW10774   2.353   3.173   2.516 -0.5718  0.0139  0.6343
 1955Sol     OW10775   2.143   2.071   2.265  0.4202  0.1568  0.2126
 1955Sol     HW10776   2.086   2.018   2.320 -1.2354 -0.0974 -1.6801
 1955Sol     HW10777   2.093   2.152   2.251  0.2834 -0.2543 -1.8312
 1955Sol     MW10778   2.133   2.074   2.269 -0.0028  0.4771  0.1590
 1956Sol     OW10779   0.398   0.407   2.806  0.1849 -0.4521 -0.3018
 1956Sol     HW10780   0.324   0.349   2.785  0.0367 -0.0174 -0.9702
 1956Sol     HW10781   0.466   0.347   2.839  0.1986 -1.0605 -1.4277
 1956Sol     MW10782   0.397   0.396   2.807  0.3321 -0.1000 -0.4452
 1957Sol     OW10783   1.414   0.442   3.527 -0.5283  0.5582 -0.6483
 1957Sol     HW10784   1.475   0.449   3.454 -1.4375 -0.7912 -1.5516
 1957Sol     HW10785   1.470   0.431   3.604  0.3745 -0.6165 -1.4564
 1957Sol     MW10786   1.424   0.442   3.527  0.2450 -0.2480  0.4611
 1958Sol     OW10787   1.239   1.681   1.920  0.3978  0.5635 -0.5044
 1958Sol     HW10788   1.298   1.658   1.848 -1.4590  1.6318 -2.4230
 1958Sol     HW10789   1.152   1.660   1.888 -0.5748  2.2227  0.9346
 1958Sol     MW10790   1.237   1.677   1.910 -0.6813  0.3560  0.5115
 1959Sol     OW10791   1.655   2.372   9.386 -0.5287 -0.0546 -0.4606
 1959Sol     HW10792   1.749   2.385   9.396 -0.2491 -1.1310 -1.5936
 1959Sol     HW10793   1.616   2.441   9.439  0.8910  0.0849  0.4327
 1959Sol     MW10794   1.660   2.380   9.391  0.2828 -0.1895 -0.5912
 1960Sol     OW10795   0.200   1.078   7.336 -0.1806  0.3806  0.2619
 1960Sol     HW10796   0.110   1.047   7.323  0.6865 -2.2422  0.2044
 1960Sol     HW10797   0.194   1.143   7.406 -1.7470 -1.8749  2.2995
 1960Sol     MW10798   0.191   1.081   7.341  0.1642 -0.1633  0.3662
 1961Sol     OW10799   3.209   0.655   3.538 -0.0226 -0.0189 -0.9334
 1961Sol     HW10800   3.178   0.669   3.448  0.1960  0.3056 -0.9571
 1961Sol     HW10801   3.206   0.560   3.549 -1.4656  0.0306 -0.7822
 1961Sol     MW10802   3.206   0.648   3.531 -0.4170 -0.8994  0.0907
 1962Sol     OW10803   0.652   0.023   4.942 -0.2397 -0.4082  0.2452
 1962Sol     HW10804   0.592  -0.050   4.960  0.9680 -1.7368 -0.9731
 1962Sol     HW10805   0.710   0.025   5.018  0.3240 -1.3430 -0.1544
 1962Sol     MW10806   0.652   0.016   4.951 -0.1595 -0.3829  0.3013
 1963Sol     OW10807   1.958   0.393   5.181  0.0042  0.6339 -0.1917
 1963Sol     HW10808   2.054   0.399   5.175  0.0464  1.1596  0.7831
 1963Sol     HW10809   1.927   0.480   5.158 -0.3148  0.1220 -1.7131
 1963Sol     MW10810   1.964   0.401   5.179 -0.0844 -0.6004  0.1018
 1964Sol     OW10811   2.412   0.616   6.793  0.4420 -0.2550 -0.0693
 1964Sol     HW10812   2.498   0.659   6.795  0.2974  0.2343 -2.2870
 1964Sol     HW10813   2.369   0.655   6.716 -2.6854  1.2336  2.3459
 1964Sol     MW10814   2.416   0.623   6.786  0.1637  0.0842  0.5980
 1965Sol     OW10815   2.811   1.333   7.069  1.0236 -0.1311 -0.6834
 1965Sol     HW10816   2.850   1.358   7.153  2.4874 -0.1096 -1.3598
 1965Sol     HW10817   2.858   1.254   7.043 -0.5502 -1.0941 -0.7049
 1965Sol     MW10818   2.818   1.328   7.074 -0.0119  0.4144 -0.0269
 1966Sol     OW10819   0.274   0.633   8.260  0.1774 -0.2021  0.1075
 1966Sol     HW10820   0.293   0.633   8.166  4.0514  1.3617  0.7824
 1966Sol     HW10821   0.300   0.546   8.290  1.0762  0.0402  0.0600
 1966Sol     MW10822   0.278   0.626   8.254  0.2695  0.4273  0.0393
 1967Sol     OW10823   2.756   1.860   2.846 -0.6991  0.0706 -0.2318
 1967Sol     HW10824   2.810   1.876   2.924 -2.6564 -1.0630  1.3939
 1967Sol     HW10825   2.820   1.846   2.776  1.1057  0.4947  1.2785
 1967Sol     MW10826   2.767   1.860   2.847  0.0697  0.4530  0.0178
 1968Sol     OW10827   2.787   1.775   5.685 -0.0493  0.0674 -0.5929
 1968Sol     HW10828   2.708   1.820   5.716 -0.3460 -0.5977 -0.3571
 1968Sol     HW10829   2.766   1.748   5.595 -0.7238 -1.5401  0.0211
 1968Sol     MW10830   2.778   1.777   5.680  0.0677  0.3815  0.0420
 1969Sol     OW10831   1.592   2.702   1.586  0.3152  0.7420 -0.8294
 1969Sol     HW10832   1.627   2.789   1.565 -0.1104  0.9607 -0.6437
 1969Sol     HW10833   1.663   2.659   1.634 -1.1149  2.6857  3.2410
 1969Sol     MW10834   1.602   2.706   1.589 -0.4539 -0.4664  0.3132
 1970Sol     OW10835   2.976   1.056   8.563 -0.3224 -0.0929  0.7131
 1970Sol     HW10836   2.913   1.128   8.550  1.6653  1.1230 -2.8210
 1970Sol     HW10837   3.040   1.092   8.624  0.4626  1.0797 -0.7563
 1970Sol     MW10838   2.976   1.066   8.567  0.3259 -0.4925 -0.0524
 1971Sol     OW10839   0.080   3.187   3.880  0.8009  0.4315 -0.1725
 1971Sol     HW10840   0.149   3.251   3.862  0.6167  0.3113 -1.3139
 1971Sol     HW10841   0.054   3.204   3.970  1.4862  1.2726 -0.1355
 1971Sol     MW10842   0.084   3.194   3.886  0.2010  0.2838 -0.5331
 1972Sol     OW10843   1.565   1.911   3.459  0.1604 -0.1691  0.3360
 1972Sol     HW10844   1.659   1.928   3.464 -0.2309  1.4167  3.2630
 1972Sol     HW10845   1.543   1.871   3.543 -2.3231  2.3888  0.9777
 1972Sol     MW10846   1.572   1.909   3.467 -1.1280  0.1275  0.3442
 1973Sol     OW10847   1.044   1.705   9.200 -0.6049  0.3939  0.3527
 1973Sol     HW10848   1.012   1.788   9.233 -0.5207  0.8980 -0.8027
 1973Sol     HW10849   1.075   1.658   9.277  0.4599  1.9092  0.8609
 1973Sol     MW10850   1.044   1.708   9.210  0.1158  0.0663  0.3092
 1974Sol     OW10851   2.722   0.861   3.878 -0.1574  0.0443 -0.3400
 1974Sol     HW10852   2.727   0.814   3.961 -0.2608 -0.9768 -0.9040
 1974Sol     HW10853   2.658   0.811   3.826 -0.1169  0.6928 -1.0137
 1974Sol     MW10854   2.717   0.852   3.881  0.2717 -0.2359  0.2336
 1975Sol     OW10855   2.111   1.771   3.853  0.4662 -0.1300  0.1955
 1975Sol     HW10856   2.023   1.750   3.883 -0.8873  3.5289 -0.9504
 1975Sol     HW10857   2.168   1.746   3.925 -1.2006 -4.3865  0.2290
 1975Sol     MW10858   2.108   1.767   3.862  0.0459 -0.4992 -0.0292
 1976Sol     OW10859   2.887   0.264   4.566  0.6244 -0.1196  0.4501
 1976Sol     HW10860   2.965   0.234   4.520  0.5972  1.1569 -0.4705
 1976Sol     HW10861   2.914   0.343   4.611 -0.3882  0.9450 -0.7591
 1976Sol     MW10862   2.896   0.268   4.566  0.0776 -0.2118  0.2042
 1977Sol     OW10863   0.679   0.700   3.401 -0.0688 -0.7542 -0.1862
 1977Sol     HW10864   0.754   0.652   3.435 -0.3491  0.0271  1.5740
 1977Sol     HW10865   0.604   0.666   3.451 -0.6431 -0.3106 -0.7357
 1977Sol     MW10866   0.679   0.693   3.408  0.5585 -0.3173  0.5307
 1978Sol     OW10867   0.781   2.180   9.911 -0.2378  0.0093 -0.7604
 1978Sol     HW10868   0.795   2.180  10.006  1.7804  0.9713 -1.0127
 1978Sol     HW10869   0.765   2.089   9.889 -2.4245 -0.0028  0.7119
 1978Sol     MW10870   0.781   2.172   9.918 -0.2904 -0.1444  0.2987
 1979Sol     OW10871   1.969   0.162   4.108  0.0755 -0.2022  0.3438
 1979Sol     HW10872   1.879   0.135   4.131  0.4229 -1.4597  0.2623
 1979Sol     HW10873   1.985   0.121   4.024  0.9442 -0.4455  0.6302
 1979Sol     MW10874   1.962   0.156   4.103 -0.4496  0.1921  0.1363
 1980Sol     OW10875   0.726   3.007   5.643  0.4282  0.2856 -0.4016
 1980Sol     HW10876   0.779   3.072   5.598 -2.3278  2.5299 -0.5416
 1980Sol     HW10877   0.696   2.948   5.573  0.1749  0.8759 -0.7971
 1980Sol     MW10878   0.728   3.008   5.633 -0.4194  0.3760  0.7658
 1981Sol     OW10879   2.783   0.443   6.326 -0.2691 -0.6412  0.6123
 1981Sol     HW10880   2.851   0.423   6.261 -0.6439  0.5117 -0.1343
 1981Sol     HW10881   2.701   0.436   6.278 -0.5564  0.1125  0.9927
 1981Sol     MW10882   2.782   0.440   6.316 -0.1134 -0.1042  0.2567
 1982Sol     OW10883   0.721   1.955   7.365 -0.0420  0.3845  0.1941
 1982Sol     HW10884   0.697   2.045   7.386 -0.6480  0.3843 -0.4989
 1982Sol     HW10885   0.741   1.915   7.450 -0.7807  0.8809  0.5999
 1982Sol     MW10886   0.721   1.959   7.375 -0.1030 -0.7387  0.2494
 1983Sol     OW10887   1.803   2.693   1.967  0.0224 -0.5852 -0.5015
 1983Sol     HW10888   1.816   2.681   1.873  0.7767  0.9430 -0.6186
 1983Sol     HW10889   1.865   2.763   1.990 -0.0609 -1.0470  1.1528
 1983Sol     MW10890   1.810   2.698   1.960 -0.7247  0.5709 -0.1408
 1984Sol     OW10891   2.610   0.128   8.031  0.4362  0.1456 -0.0150
 1984Sol     HW10892   2.567   0.112   7.947  1.7300 -0.8804 -0.4924
 1984Sol     HW10893   2.566   0.207   8.065 -0.5351  0.2033 -1.3379
 1984Sol     MW10894   2.602   0.134   8.027 -0.2307 -0.2782  0.0352
 1985Sol     OW10895   2.616   2.041   4.707  0.6447 -0.0782  0.1637
 1985Sol     HW10896   2.544   1.981   4.726  1.5472 -1.2027  0.0850
 1985Sol     HW10897   2.576   2.111   4.656 -0.5351 -0.3081  0.7658
 1985Sol     MW10898   2.606   2.042   4.704 -0.2179 -0.2946 -0.2865
 1986Sol     OW10899   0.038   0.451   2.553 -0.5206  0.0596 -0.0416
 1986Sol     HW10900   0.017   0.506   2.477 -0.4447 -0.8756 -0.7577
 1986Sol     HW10901   0.021   0.507   2.629  1.4009  1.7282 -0.7741
 1986Sol     MW10902   0.035   0.461   2.553  0.3802 -0.3369  0.2882
 1987Sol     OW10903   1.070   0.504   8.278  0.1489  0.3528 -0.2132
 1987Sol     HW10904   1.150   0.452   8.268 -0.1221 -0.1897  0.3746
 1987Sol     HW10905   1.095   0.575   8.338  0.3047  0.4330 -0.3731
 1987Sol     MW10906   1.080   0.505   8.282  0.0501 -0.2307 -0.5456
 1988Sol     OW10907   3.087   2.099   6.294 -0.4691 -0.0225 -0.2560
 1988Sol     HW10908   3.169   2.143   6.315 -1.4287  1.2311  1.0310
 1988Sol     HW10909   3.020   2.167   6.306 -1.7942 -1.3126 -0.1702
 1988Sol     MW10910   3.088   2.109   6.297  0.3512 -0.6742 -0.0575
 1989Sol     OW10911   2.117   2.204   3.979 -0.5488  0.1300 -0.3821
 1989Sol     HW10912   2.134   2.161   3.895  1.6426  0.4834 -0.1455
 1989Sol     HW10913   2.025   2.230   3.974 -0.4664  0.0752 -2.6438
 1989Sol     MW10914   2.110   2.203   3.971  0.2919  0.0613 -0.1988
 1990Sol     OW10915   0.143   2.167   7.861  0.7496 -0.5520  0.3355
 1990Sol     HW10916   0.223   2.138   7.818  1.9695  0.6727  1.7539
 1990Sol     HW10917   0.163   2.165   7.954 -0.5559  0.6657  0.6613
 1990Sol     MW10918   0.152   2.165   7.865 -0.0131  0.0018  0.9079
 1991Sol     OW10919   2.081   1.287   4.328  0.2992  0.5408 -0.1381
 1991Sol     HW10920   2.128   1.320   4.252  0.4503  2.0222  0.5691
 1991Sol     HW10921   1.996   1.331   4.324 -0.5148 -1.0263 -0.6257
 1991Sol     MW10922   2.077   1.294   4.321 -0.2674 -0.1506  0.2677
 1992Sol     OW10923   0.627   1.294   9.662  0.2743 -0.1940 -0.1779
 1992Sol     HW10924   0.532   1.292   9.649  0.3972  1.3388 -1.4541
 1992Sol     HW10925   0.663   1.299   9.574  1.3598  3.4714  0.3656
 1992Sol     MW10926   0.621   1.294   9.653  0.0267  1.0040 -0.5598
 1993Sol     OW10927   0.333   2.698   3.508 -0.1970  0.0853  0.7156
 1993Sol     HW10928   0.368   2.617   3.471  0.0885  0.4385  0.2008
 1993Sol     HW10929   0.392   2.718   3.581  1.5930  1.4658 -1.0556
 1993Sol     MW10930   0.342   2.692   3.511  0.5008 -0.1375  0.7165
 1994Sol     OW10931   3.045   0.636   7.475  0.2340  0.9264 -0.2185
 1994Sol     HW10932   3.132   0.648   7.437 -1.0705  3.9863 -2.4336
 1994Sol     HW10933   3.027   0.719   7.520 -1.7198  0.4881 -0.1424
 1994Sol     MW10934   3.051   0.644   7.476  0.0721 -0.1461 -0.1990
 1995Sol     OW10935   0.882   1.946   5.536 -0.0987  0.3094 -0.0570
 1995Sol     HW10936   0.839   1.900   5.463 -0.0087  1.6730 -0.9778
 1995Sol     HW10937   0.813   2.001   5.574  0.3889  1.2020 -0.4528
 1995Sol     MW10938   0.872   1.947   5.533 -0.1300  0.4459  0.3868
 1996Sol     OW10939   1.371   2.547   7.569  0.0939  0.4286 -0.0582
 1996Sol     HW10940   1.436   2.572   7.635  0.9661  0.1972 -0.8214
 1996Sol     HW10941   1.417   2.557   7.485 -0.5671 -0.5866 -0.5506
 1996Sol     MW10942   1.381   2.550   7.568 -0.1139  0.2579  0.0013
 1997Sol     OW10943   2.411   0.151   6.939 -0.1614 -0.6333 -0.6438
 1997Sol     HW10944   2.413   0.165   6.844  0.3522  1.1129 -0.3950
 1997Sol     HW10945   2.494   0.188   6.970 -1.0949  0.4040  0.6811
 1997Sol     MW10946   2.418   0.156   6.933  0.1757 -0.7019 -0.4654
 1998Sol     OW10947   0.784   0.695   4.869 -0.4682  0.1476 -0.2080
 1998Sol     HW10948   0.817   0.718   4.956 -1.2143 -0.3833  0.2194
 1998Sol     HW10949   0.858   0.710   4.810  0.7832 -1.7623  0.8334
 1998Sol     MW10950   0.793   0.699   4.871  0.1503  0.4143 -0.0408
 1999Sol     OW10951   2.765   3.057   5.406  0.0634 -1.0703 -0.0161
 1999Sol     HW10952   2.801   3.139   5.440 -0.9562 -0.4891 -0.3379
 1999Sol     HW10953   2.777   2.995   5.478 -0.0739 -0.3978  0.5939
 1999Sol     MW10954   2.770   3.059   5.416  0.3271  0.3899 -0.4886
 2000Sol     OW10955   2.880   2.047   5.121 -0.8833  0.1291  0.4996
 2000Sol     HW10956   2.972   2.029   5.103 -0.9813 -0.8918  0.9751
 2000Sol     HW10957   2.839   2.053   5.035 -0.3271  0.8296  0.2846
 2000Sol     MW10958   2.884   2.046   5.112  0.0721 -0.3032 -0.2945
 2001Sol     OW10959   0.772   2.632   5.691 -0.0841  0.5682  0.2293
 2001Sol     HW10960   0.707   2.665   5.752 -1.0429  0.9489 -0.9776
 2001Sol     HW10961   0.768   2.692   5.616  1.1169  0.1555 -0.1853
 2001Sol     MW10962   0.766   2.641   5.690 -0.0943 -0.2415 -0.3922
 2002Sol     OW10963   3.002   0.829   8.098 -0.3025 -0.1273 -0.2319
 2002Sol     HW10964   3.086   0.789   8.118 -0.3891 -1.2706 -2.1239
 2002Sol     HW10965   2.976   0.872   8.180  2.5719  1.0986  0.0877
 2002Sol     MW10966   3.007   0.830   8.107  0.0603  0.6192  0.4327
 2003Sol     OW10967   1.865   3.090   5.855 -0.1537 -0.4205  0.3861
 2003Sol     HW10968   1.838   3.128   5.939  1.3019 -1.2474  1.2486
 2003Sol     HW10969   1.960   3.096   5.855 -0.1663  0.1190 -1.4898
 2003Sol     MW10970   1.871   3.094   5.863 -0.1631 -0.3601  0.2448
 2004Sol     OW10971   2.813   0.603   2.082  0.0007  0.1188 -0.1004
 2004Sol     HW10972   2.787   0.652   2.160 -0.2427  0.1854 -0.2219
 2004Sol     HW10973   2.904   0.628   2.066  0.9556 -2.0228  1.7919
 2004Sol     MW10974   2.818   0.610   2.087 -0.6855  0.1368 -0.2700
 2005Sol     OW10975   0.879   2.284   7.243 -0.1898 -0.3598  0.0294
 2005Sol     HW10976   0.940   2.333   7.188 -0.2321 -0.1436  0.1725
 2005Sol     HW10977   0.918   2.197   7.250  0.3070 -0.1090  0.4397
 2005Sol     MW10978   0.888   2.281   7.239 -0.3464 -0.0625 -0.4996
 2006Sol     OW10979   2.264   1.041   2.844 -0.2556  0.3386  0.7046
 2006Sol     HW10980   2.240   1.104   2.912  0.9435  0.4928  0.9962
 2006Sol     HW10981   2.248   1.088   2.762 -0.2449  0.7017  0.9070
 2006Sol     MW10982   2.261   1.051   2.843  0.2735  0.0071 -0.4158
 2007Sol     OW10983   1.113   1.917   9.474 -0.5032 -0.1030  0.1174
 2007Sol     HW10984   1.102   1.979   9.546 -1.4889  0.6395 -0.6563
 2007Sol     HW10985   1.130   1.971   9.397 -1.7902 -0.7419 -0.6541
 2007Sol     MW10986   1.113   1.927   9.473 -0.6702 -0.5248  0.2630
 2008Sol     OW10987   1.245   2.463   4.645  0.2928  0.7052  0.0226
 2008Sol     HW10988   1.333   2.502   4.652  0.9736 -0.8484  0.2693
 2008Sol     HW10989   1.194   2.509   4.711  1.2811  0.6979  0.8137
 2008Sol     MW10990   1.249   2.471   4.652  0.4678  0.2758 -0.1904
 2009Sol     OW10991   0.078   2.645   2.110 -0.1683 -0.1163  0.9912
 2009Sol     HW10992   0.148   2.704   2.139 -0.3986  1.2736 -1.1708
 2009Sol     HW10993   0.124   2.567   2.080  0.6731  1.4992 -2.1571
 2009Sol     MW10994   0.089   2.643   2.110  0.3412 -0.1021 -0.3910
 2010Sol     OW10995   1.179   0.566   9.856 -0.2310 -0.4063 -0.3798
 2010Sol     HW10996   1.247   0.532   9.798  0.6018 -1.3311  1.1059
 2010Sol     HW10997   1.210   0.653   9.882 -0.4643 -0.1137 -1.0647
 2010Sol     MW10998   1.188   0.571   9.853 -0.0014 -0.5023  0.6188
 2011Sol     OW10999   2.152   0.086   1.906 -0.0822  0.2645 -0.3534
 2011Sol     HW11000   2.155   0.129   1.821 -0.5211  1.0773  0.0287
 2011Sol     HW11001   2.118   0.153   1.965 -1.1288 -0.7295  0.1971
 2011Sol     MW11002   2.150   0.096   1.904 -0.3726  0.4647 -0.3444
 2012Sol     OW11003   2.193   1.802   1.947 -0.3591  0.7687  0.0816
 2012Sol     HW11004   2.172   1.889   1.914 -0.5816  1.3715  1.7572
 2012Sol     HW11005   2.201   1.813   2.042  0.1336 -0.9306  0.2639
 2012Sol     MW11006   2.192   1.811   1.952 -0.0511  0.2544 -0.2520
 2013Sol     OW11007   2.932   3.200   3.363 -0.0046  0.8223 -0.3443
 2013Sol     HW11008   2.841   3.226   3.377 -0.3209 -0.3257 -0.2072
 2013Sol     HW11009   2.962   3.171   3.449 -0.6170 -2.1294 -1.0465
 2013Sol     MW11010   2.926   3.199   3.372 -0.4578  0.0002  0.0098
 2014Sol     OW11011   0.359   1.318   9.637 -0.3849 -0.2674 -0.2708
 2014Sol     HW11012   0.337   1.228   9.658  0.2888 -0.4838 -0.4966
 2014Sol     HW11013   0.321   1.334   9.551  0.5825 -0.7318 -0.7877
 2014Sol     MW11014   0.354   1.312   9.631  0.6439 -0.0589  0.5395
 2015Sol     OW11015   3.075   3.120   3.596 -0.6348  0.2807 -0.5391
 2015Sol     HW11016   3.043   3.145   3.683  3.6933  1.1667  0.8859
 2015Sol     HW11017   3.064   3.025   3.593  0.6047  0.0243  1.6314
 2015Sol     MW11018   3.071   3.114   3.604  0.1242  0.2279 -0.0689
 2016Sol     OW11019   0.054   0.530   6.067  0.9937  0.2847  0.5622
 2016Sol     HW11020   0.003   0.524   5.986  0.8758 -0.8724  0.7145
 2016Sol     HW11021   0.037   0.448   6.112  0.0981  1.4290  2.3497
 2016Sol     MW11022   0.048   0.522   6.063  0.3532  0.4551 -0.1384
 2017Sol     OW11023   2.803   2.928   1.961  0.4824  0.4159 -0.1272
 2017Sol     HW11024   2.779   2.837   1.943 -0.4404  0.8550 -1.1296
 2017Sol     HW11025   2.898   2.926   1.972  0.5537 -0.5403 -0.8857
 2017Sol     MW11026   2.809   2.919   1.961 -0.3699 -0.5704  0.1976
 2018Sol     OW11027   0.388   1.153  10.157 -0.1038  0.6399 -0.1109
 2018Sol     HW11028   0.356   1.071  10.120 -1.0796  0.7137  0.5706
 2018Sol     HW11029   0.482   1.140  10.166 -0.3786 -0.7384  0.8376
 2018Sol     MW11030   0.394   1.145  10.154  0.3662  0.1691  0.2280
 2019Sol     OW11031   0.584   2.437   2.460 -0.9184  0.0458 -0.1354
 2019Sol     HW11032   0.628   2.454   2.376 -3.0827  1.4984 -1.0121
 2019Sol     HW11033   0.653   2.401   2.516  0.9600  0.5987 -2.0222
 2019Sol     MW11034   0.594   2.435   2.457 -0.2120  0.1352  0.4998
 2020Sol     OW11035   1.738   2.908   3.410 -0.3768  0.1173 -0.1818
 2020Sol     HW11036   1.804   2.884   3.345 -0.8864 -2.0091  0.0265
 2020Sol     HW11037   1.682   2.830   3.416 -1.7014  1.1423  1.1104
 2020Sol     MW11038   1.739   2.899   3.405 -0.3236  0.2770 -0.4390
 2021Sol     OW11039   1.122   1.318   5.837 -0.4473 -0.3695 -0.2198
 2021Sol     HW11040   1.191   1.293   5.898 -0.0135  1.2689  0.0014
 2021Sol     HW11041   1.063   1.372   5.890 -0.0877  1.0321 -1.2077
 2021Sol     MW11042   1.123   1.321   5.848 -0.6431  0.4155  0.4084
 2022Sol     OW11043   0.870   1.075   9.790  0.2845  0.3925 -0.3501
 2022Sol     HW11044   0.785   1.084   9.833 -0.6046 -2.4494 -1.4454
 2022Sol     HW11045   0.849   1.047   9.701  2.4486 -4.7565  0.6052
 2022Sol     MW11046   0.861   1.074   9.786  0.4048  0.6746  0.1031
 2023Sol     OW11047   0.075   0.057   4.756 -0.1598 -0.6601  0.0093
 2023Sol     HW11048   0.093   0.068   4.849 -0.9899  2.1520 -0.1319
 2023Sol     HW11049   0.152   0.094   4.713 -1.6317  1.9749 -0.4469
 2023Sol     MW11050   0.084   0.061   4.761 -0.3653  0.0288 -0.0658
 2024Sol     OW11051   1.247   1.095  10.039  0.4999 -0.2202  0.1596
 2024Sol     HW11052   1.236   1.117  10.131 -0.0085 -0.5041  0.1698
 2024Sol     HW11053   1.265   1.178   9.996  2.2446 -0.2784  0.7334
 2024Sol     MW11054   1.247   1.104  10.043  0.5076 -0.3391 -0.1708
 2025Sol     OW11055   1.181   1.102   1.995 -0.4336  0.0631 -0.3485
 2025Sol     HW11056   1.107   1.161   2.007 -0.0838  0.2158  1.1367
 2025Sol     HW11057   1.185   1.051   2.076  1.2302  0.2421 -0.2948
 2025Sol     MW11058   1.175   1.103   2.003 -0.1767  0.7072  0.0574
 2026Sol     OW11059   0.936   0.185   7.415 -0.5330  0.0596 -0.1890
 2026Sol     HW11060   1.018   0.205   7.461 -2.3267 -0.2492  3.2444
 2026Sol     HW11061   0.883   0.263   7.424 -1.0087 -0.0762 -1.6400
 2026Sol     MW11062   0.939   0.194   7.420 -0.4191 -0.0091  0.3566
 2027Sol     OW11063   2.049   2.209   4.739 -0.1061  0.4009 -0.1074
 2027Sol     HW11064   2.004   2.165   4.667 -0.2632  0.6772 -0.1789
 2027Sol     HW11065   2.075   2.138   4.798  0.1958  0.1544 -0.5313
 2027Sol     MW11066   2.048   2.199   4.738 -0.6155  0.3285  0.9017
 2028Sol     OW11067   2.261   2.237   8.961 -0.6062  0.2270 -0.6344
 2028Sol     HW11068   2.258   2.186   8.879 -0.7339 -0.2604 -0.3260
 2028Sol     HW11069   2.348   2.278   8.961 -0.7586  0.5592 -1.2131
 2028Sol     MW11070   2.269   2.236   8.953 -0.6241  0.6438 -0.4980
 2029Sol     OW11071   1.052   1.422   6.364  0.0001 -0.2178  0.2710
 2029Sol     HW11072   1.110   1.496   6.381  1.3617 -1.0273 -0.8090
 2029Sol     HW11073   1.102   1.345   6.390 -0.3258 -0.9698 -1.2574
 2029Sol     MW11074   1.061   1.422   6.368  0.1373 -0.3437  0.1719
 2030Sol     OW11075   3.200   1.120   7.664  0.2547 -0.3619  0.5469
 2030Sol     HW11076   3.280   1.110   7.715  0.4741 -0.5217  0.1714
 2030Sol     HW11077   3.212   1.203   7.616  0.0093 -0.1643  0.8281
 2030Sol     MW11078   3.208   1.127   7.664 -0.1248 -0.2090  0.4265
 2031Sol     OW11079   2.512   0.035   5.503 -0.1486  0.1945 -0.4781
 2031Sol     HW11080   2.494   0.005   5.593  0.9973 -1.8163 -0.8882
 2031Sol     HW11081   2.444  -0.008   5.450 -0.8223  1.3775 -0.5919
 2031Sol     MW11082   2.504   0.028   5.506 -0.5076 -0.5473  0.2268
 2032Sol     OW11083   2.004   2.369   9.008  0.1148 -0.2015 -0.0905
 2032Sol     HW11084   2.088   2.328   8.987  0.4883  0.7391 -0.4525
 2032Sol     HW11085   1.958   2.304   9.061 -1.5620 -3.4327 -5.1278
 2032Sol     MW11086   2.008   2.360   9.011  0.1543 -0.2365  0.3203
 2033Sol     OW11087   0.836   3.391   5.398 -0.2357 -0.4999  0.2577
 2033Sol     HW11088   0.742   3.372   5.386 -0.4323 -0.0237  0.9948
 2033Sol     HW11089   0.863   3.333   5.469  1.0488 -3.7047 -2.7396
 2033Sol     MW11090   0.830   3.384   5.404  0.3226 -0.0882 -0.2648
 2034Sol     OW11091   2.477   1.398   6.152  0.1616  0.6834 -0.2303
 2034Sol     HW11092   2.516   1.347   6.082 -0.9696  0.2456 -0.5470
 2034Sol     HW11093   2.435   1.333   6.209 -0.5605  1.1721 -0.1891
 2034Sol     MW11094   2.476   1.388   6.151 -0.8987  0.6074 -0.1315
 2035Sol     OW11095   2.745   0.805   3.204 -0.0651 -0.2486 -0.0248
 2035Sol     HW11096   2.783   0.878   3.253 -0.5104  0.1487 -0.2743
 2035Sol     HW11097   2.763   0.728   3.258  1.6055 -0.1535 -0.3999
 2035Sol     MW11098   2.750   0.804   3.213  0.2619  0.4665  0.2281
 2036Sol     OW11099   2.682   2.969   2.787 -0.2992  0.6469  0.1772
 2036Sol     HW11100   2.657   3.009   2.704 -0.2596 -0.8961 -0.6107
 2036Sol     HW11101   2.612   2.906   2.804  1.2817 -1.2855 -0.3115
 2036Sol     MW11102   2.673   2.967   2.781  0.4095  0.1093  0.1613
 2037Sol     OW11103   0.684   2.710   2.085  0.0563 -0.2079 -0.3082
 2037Sol     HW11104   0.779   2.700   2.087 -0.0404 -1.4331 -1.3259
 2037Sol     HW11105   0.670   2.793   2.038  0.6065 -0.4234 -0.8628
 2037Sol     MW11106   0.691   2.717   2.081  0.0119 -0.0617  0.0799
 2038Sol     OW11107   2.475   0.843   8.196 -0.3045  0.3834 -0.1479
 2038Sol     HW11108   2.475   0.793   8.277 -0.7215 -1.0242 -1.0013
 2038Sol     HW11109   2.562   0.882   8.192  0.1916 -0.6726  0.2899
 2038Sol     MW11110   2.483   0.842   8.203  0.0404  0.1641  0.1553
 2039Sol     OW11111   0.394   1.357   1.812  0.4222 -0.2301 -0.0167
 2039Sol     HW11112   0.395   1.320   1.724  1.0389 -0.2692  0.0013
 2039Sol     HW11113   0.340   1.297   1.863 -0.4628  0.1380 -0.5136
 2039Sol     MW11114   0.389   1.348   1.809 -0.1563 -0.3963  0.7120
 2040Sol     OW11115   2.579   0.960   7.364  0.1798  0.0671  0.6540
 2040Sol     HW11116   2.616   0.993   7.282 -1.4613 -0.1261 -0.1780
 2040Sol     HW11117   2.629   0.881   7.383  1.8449  1.1414  0.8529
 2040Sol     MW11118   2.587   0.956   7.358 -0.2427 -0.1480 -0.0674
 2041Sol     OW11119   0.955   1.826   1.647 -0.4743  0.0215  0.0826
 2041Sol     HW11120   0.868   1.862   1.660 -0.7223 -1.1274  1.8629
 2041Sol     HW11121   1.014   1.900   1.662 -1.1277  0.8418 -1.2986
 2041Sol     MW11122   0.953   1.836   1.650 -0.2385 -0.2683 -0.1421
 2042Sol     OW11123   3.040   3.164   3.865 -0.4195 -0.8130  0.3785
 2042Sol     HW11124   3.135   3.167   3.876 -0.6272 -0.2947  2.0415
 2042Sol     HW11125   3.005   3.213   3.939 -2.0294 -1.9606  0.4064
 2042Sol     MW11126   3.045   3.169   3.872  0.0283  0.2144 -0.6030
 2043Sol     OW11127   1.695   0.106   5.640  0.3146 -0.0576  0.2746
 2043Sol     HW11128   1.677   0.019   5.605 -0.7989  0.0320  0.5931
 2043Sol     HW11129   1.774   0.095   5.694 -0.0480 -0.9508  0.6275
 2043Sol     MW11130   1.700   0.098   5.642 -0.5863 -0.3038 -0.4459
 2044Sol     OW11131   0.030   2.435   7.890  0.3754 -0.1395 -0.1353
 2044Sol     HW11132  -0.017   2.408   7.969 -0.5421  0.7186 -0.3712
 2044Sol     HW11133   0.066   2.354   7.854  0.7961 -0.5312  1.1599
 2044Sol     MW11134   0.029   2.425   7.894 -0.0877 -0.0298  0.6868
 2045Sol     OW11135   2.538   0.331   9.850  0.0067  0.0910 -0.0803
 2045Sol     HW11136   2.598   0.257   9.855  0.4810  0.4573 -0.3229
 2045Sol     HW11137   2.466   0.308   9.909  1.4829  0.6550  1.9830
 2045Sol     MW11138   2.537   0.322   9.856  0.5430 -0.3657 -0.1999
 2046Sol     OW11139   0.325   2.448   7.661 -0.3320 -0.1888  0.4504
 2046Sol     HW11140   0.379   2.425   7.736  0.2054 -1.3066 -0.2801
 2046Sol     HW11141   0.285   2.366   7.633 -2.8809  0.7026  1.3296
 2046Sol     MW11142   0.326   2.439   7.665 -0.1603 -0.2640 -0.1327
 2047Sol     OW11143   2.030   1.511   3.044 -0.2548 -0.1082 -0.3468
 2047Sol     HW11144   1.962   1.458   3.086 -0.2311 -0.3690 -0.6316
 2047Sol     HW11145   2.016   1.497   2.950  0.3093 -0.3058 -0.4019
 2047Sol     MW11146   2.022   1.505   3.039  0.6106  0.3291  0.1671
 2048Sol     OW11147   2.212   1.777   9.556  0.1183  0.0939 -0.1307
 2048Sol     HW11148   2.284   1.720   9.527  0.4750  1.0804 -1.2364
 2048Sol     HW11149   2.217   1.775   9.651  1.4932 -0.0053 -0.1944
 2048Sol     MW11150   2.219   1.772   9.562  0.4881 -0.1419  0.1655
 2049Sol     OW11151   3.218   3.285   1.632 -0.1743  0.8249 -0.1527
 2049Sol     HW11152   3.229   3.378   1.651 -0.3752  1.3797 -2.5087
 2049Sol     HW11153   3.161   3.252   1.702  0.4960  2.3069  1.0994
 2049Sol     MW11154   3.214   3.290   1.640  0.5481  0.1560 -0.1302
 2050Sol     OW11155   2.894   3.123   8.952 -0.3105 -0.4085  0.3039
 2050Sol     HW11156   2.880   3.078   8.869  3.3177  0.2148 -0.7331
 2050Sol     HW11157   2.943   3.061   9.006 -1.0431 -0.1347  1.2968
 2050Sol     MW11158   2.897   3.114   8.950 -0.2236 -0.2348 -0.3272
 2051Sol     OW11159   1.179   0.158   7.809  0.3122 -0.5046  0.3215
 2051Sol     HW11160   1.209   0.178   7.721 -0.3872  1.8902  0.5986
 2051Sol     HW11161   1.251   0.182   7.866 -0.5308  1.2570  0.6606
 2051Sol     MW11162   1.188   0.162   7.807 -0.3507 -0.4466 -0.4094
 2052Sol     OW11163   0.211   2.102   8.876  0.1152  0.2381  0.0495
 2052Sol     HW11164   0.294   2.131   8.913  0.1624 -0.0589  0.1773
 2052Sol     HW11165   0.234   2.027   8.821 -0.0583  0.1973  0.0326
 2052Sol     MW11166   0.221   2.098   8.875 -0.4462 -0.6857  0.2268
 2053Sol     OW11167   3.180   1.814   6.411  0.1430 -0.1229  0.3808
 2053Sol     HW11168   3.133   1.885   6.368 -1.2723 -1.1875  0.1053
 2053Sol     HW11169   3.140   1.809   6.498  0.8376 -0.0053  0.7064
 2053Sol     MW11170   3.172   1.820   6.415  0.4619  0.0962 -0.1063
 2054Sol     OW11171   0.258   0.675   4.138 -0.1618  0.6162  0.5882
 2054Sol     HW11172   0.276   0.740   4.071 -1.8687 -0.6820 -1.1942
 2054Sol     HW11173   0.250   0.725   4.219 -0.7575  2.5398 -0.6263
 2054Sol     MW11174   0.259   0.685   4.139 -0.4936  0.4771 -0.1134
 2055Sol     OW11175   2.012   2.404   4.361  0.8346  1.1823 -0.8219
 2055Sol     HW11176   1.929   2.374   4.324  1.0493  0.6695 -0.8977
 2055Sol     HW11177   2.077   2.379   4.296  1.1918  0.4297 -0.1870
 2055Sol     MW11178   2.010   2.399   4.352 -0.3092 -0.4112  0.0872
 2056Sol     OW11179   2.908   2.547   5.675  0.7219 -0.1366 -0.3087
 2056Sol     HW11180   2.876   2.609   5.741  0.8969 -0.5052  0.1238
 2056Sol     HW11181   2.858   2.467   5.690  0.4900 -0.0998 -0.8719
 2056Sol     MW11182   2.901   2.546   5.682  0.2393  0.0209 -0.5580
 2057Sol     OW11183   2.975   0.371   8.732  0.0337 -0.1862  0.0607
 2057Sol     HW11184   2.904   0.435   8.725 -0.1187  0.0771  3.3318
 2057Sol     HW11185   2.932   0.286   8.722  0.0501  0.1326 -3.0355
 2057Sol     MW11186   2.965   0.369   8.731 -0.1941  0.2498 -0.2681
 2058Sol     OW11187   1.095   2.703   8.075  0.2097 -0.4080  0.0878
 2058Sol     HW11188   1.166   2.683   8.135 -0.1830 -2.2007 -0.0343
 2058Sol     HW11189   1.103   2.638   8.005  0.1968  1.1714 -1.4212
 2058Sol     MW11190   1.102   2.696   8.074 -0.4186  0.1987  0.4112
 2059Sol     OW11191   0.127   3.179   5.919 -0.2131 -1.4146  0.3082
 2059Sol     HW11192   0.031   3.176   5.914 -0.1761 -3.2502  0.5408
 2059Sol     HW11193   0.149   3.268   5.893 -1.9648 -1.0843 -0.1109
 2059Sol     MW11194   0.120   3.187   5.916  0.3079 -0.2958  0.2344
 2060Sol     OW11195   1.078   3.289   3.030 -0.4519  0.0930 -0.3131
 2060Sol     HW11196   1.049   3.350   3.098  2.0765  0.5999  0.3824
 2060Sol     HW11197   0.997   3.257   2.990 -1.9011  2.5352  0.5144
 2060Sol     MW11198   1.068   3.292   3.032  0.5863 -0.6730 -0.0129
 2061Sol     OW11199   2.284   0.248   7.665 -0.5214 -0.0512  0.0946
 2061Sol     HW11200   2.253   0.313   7.728 -0.2471  0.7517 -0.5872
 2061Sol     HW11201   2.246   0.275   7.582 -0.5130 -0.8439 -0.1686
 2061Sol     MW11202   2.278   0.257   7.664 -0.4154  0.0929 -0.9023
 2062Sol     OW11203   3.182   2.513   8.656  0.3098 -0.1563  0.0552
 2062Sol     HW11204   3.115   2.547   8.716  0.1714  1.8547 -1.2119
 2062Sol     HW11205   3.230   2.449   8.709 -0.4446  0.8330  2.0060
 2062Sol     MW11206   3.180   2.510   8.667  0.3655  0.1559  0.0703
 2063Sol     OW11207   2.755   1.308   3.928  0.4797 -0.4161 -0.4903
 2063Sol     HW11208   2.842   1.303   3.968 -0.2727  0.3651  1.2893
 2063Sol     HW11209   2.704   1.240   3.971 -0.6178  1.0719  0.5955
 2063Sol     MW11210   2.758   1.302   3.935  0.3822  0.1184  0.4643
 2064Sol     OW11211   3.011   3.222   4.375 -0.0652 -0.3006 -0.0482
 2064Sol     HW11212   3.043   3.290   4.435 -1.2780 -1.2020  1.6556
 2064Sol     HW11213   3.086   3.165   4.361  0.5277  0.5110 -0.2715
 2064Sol     MW11214   3.020   3.223   4.379 -0.1359  0.1374 -0.6431
 2065Sol     OW11215   2.501   0.820   4.239 -0.3457 -0.0102  0.0349
 2065Sol     HW11216   2.542   0.753   4.292  1.6356  1.0722 -0.0904
 2065Sol     HW11217   2.426   0.850   4.292 -0.5630 -1.4833  0.5810
 2065Sol     MW11218   2.498   0.817   4.249 -0.3706 -0.2383  0.1074
 2066Sol     OW11219   1.385   2.679   6.739  0.1443  0.6526 -0.4130
 2066Sol     HW11220   1.335   2.707   6.815  2.8335  2.7194  0.6433
 2066Sol     HW11221   1.439   2.754   6.716  1.4720 -0.9145 -2.6084
 2066Sol     MW11222   1.385   2.688   6.744  0.1371 -0.4854 -0.2483
 2067Sol     OW11223   0.566   0.469   9.379  0.5655 -0.6103 -0.0869
 2067Sol     HW11224   0.631   0.520   9.330  1.5521 -1.5908  0.1751
 2067Sol     HW11225   0.604   0.381   9.384 -0.6682 -1.1288  0.3003
 2067Sol     MW11226   0.576   0.465   9.375  0.0860 -0.4700 -0.1499
 2068Sol     OW11227   1.276   1.927   2.064 -0.3891 -0.1566 -0.2616
 2068Sol     HW11228   1.216   1.910   2.137 -0.4558  1.6994  0.1281
 2068Sol     HW11229   1.273   1.846   2.012 -0.8700 -1.2347  1.3956
 2068Sol     MW11230   1.270   1.918   2.066 -0.4353 -0.3341  0.5545
 2069Sol     OW11231   0.464   1.721   4.483  0.4293 -0.2613  0.0406
 2069Sol     HW11232   0.532   1.787   4.474  0.1189  0.2780  1.5856
 2069Sol     HW11233   0.422   1.740   4.567 -2.5456  0.3112 -1.5000
 2069Sol     MW11234   0.466   1.728   4.489 -0.3181  0.0742 -0.2301
 2070Sol     OW11235   3.178   2.950   6.308  0.1216  0.5037 -0.3522
 2070Sol     HW11236   3.156   2.857   6.299  1.0590  0.3389 -0.9870
 2070Sol     HW11237   3.164   2.969   6.401 -2.2562  0.2944 -0.6146
 2070Sol     MW11238   3.175   2.943   6.315 -0.3713  0.1801 -0.2838
 2071Sol     OW11239   0.525   1.499   4.710  0.5696  0.6196  0.0624
 2071Sol     HW11240   0.467   1.573   4.693 -0.0569 -0.0791 -0.8491
 2071Sol     HW11241   0.588   1.501   4.638 -0.2045 -0.4739 -0.6535
 2071Sol     MW11242   0.526   1.506   4.702 -0.0127  0.2253  0.3255
 2072Sol     OW11243   2.644   2.814   3.737  0.7877  0.1726  0.1274
 2072Sol     HW11244   2.595   2.778   3.811 -1.3012  0.4614 -1.0655
 2072Sol     HW11245   2.701   2.880   3.775 -0.9803  1.0158  1.3618
 2072Sol     MW11246   2.645   2.816   3.747 -0.2861 -0.1148 -0.3747
 2073Sol     OW11247   0.949   2.003   7.214 -0.3838  0.0282 -0.1077
 2073Sol     HW11248   0.862   1.995   7.253 -1.0984  0.4502 -1.6043
 2073Sol     HW11249   1.008   1.966   7.280 -1.6008  0.5233  1.2678
 2073Sol     MW11250   0.947   1.999   7.224  0.0403 -0.4916  0.0996
 2074Sol     OW11251   0.239   2.243   6.795 -0.0277  0.2778 -0.0769
 2074Sol     HW11252   0.298   2.319   6.802  0.8254 -0.1631 -2.2303
 2074Sol     HW11253   0.262   2.202   6.712 -2.9339 -0.3173 -0.6298
 2074Sol     MW11254   0.246   2.246   6.788  0.3683 -0.3483  0.5381
 2075Sol     OW11255   1.907   0.391   7.141 -0.3973  0.7619 -0.6064
 2075Sol     HW11256   2.001   0.404   7.151 -0.5173  1.6249 -0.5628
 2075Sol     HW11257   1.891   0.398   7.047 -0.2070 -0.8670 -0.7667
 2075Sol     MW11258   1.914   0.393   7.134  0.0673  0.3185 -0.0480
 2076Sol     OW11259   0.017   1.582   2.648 -0.2076  0.1061  0.4849
 2076Sol     HW11260  -0.065   1.557   2.691  0.0612  0.8357  1.4325
 2076Sol     HW11261   0.007   1.550   2.559 -1.7884  0.7322  0.4144
 2076Sol     MW11262   0.008   1.577   2.644 -0.0948  0.0902 -0.5799
 2077Sol     OW11263   0.596   1.602   7.202  0.3392 -0.1075  0.2451
 2077Sol     HW11264   0.531   1.564   7.262  2.2168 -0.2558  2.2298
 2077Sol     HW11265   0.567   1.692   7.190 -0.2915 -0.1912  1.0564
 2077Sol     MW11266   0.587   1.607   7.206 -0.1458 -0.3533  0.4142
 2078Sol     OW11267   2.612   1.624   9.213  0.0804  0.1102 -1.3159
 2078Sol     HW11268   2.626   1.531   9.229 -2.6558 -0.3261 -1.2012
 2078Sol     HW11269   2.689   1.652   9.164  0.8028 -2.2725 -1.5918
 2078Sol     MW11270   2.620   1.619   9.210 -0.4266 -0.1545 -0.1851
 2079Sol     OW11271   1.493   2.461   3.154 -0.1498 -0.2800  0.1452
 2079Sol     HW11272   1.560   2.518   3.115  2.4037 -2.0391  1.8049
 2079Sol     HW11273   1.493   2.383   3.098  0.7875 -1.2057  1.4144
 2079Sol     MW11274   1.499   2.459   3.145 -0.0923  0.0550 -0.3688
 2080Sol     OW11275   2.826   1.614   5.427  0.2345 -0.3246 -0.7121
 2080Sol     HW11276   2.736   1.605   5.395  0.4274  0.5350 -1.4905
 2080Sol     HW11277   2.873   1.656   5.356  0.9057  0.6222  0.2897
 2080Sol     MW11278   2.822   1.617   5.418  0.0694  0.2127 -0.0174
 2081Sol     OW11279   0.720   1.314   8.849  0.3523  0.0318 -0.0478
 2081Sol     HW11280   0.729   1.369   8.927 -1.8396 -1.1461  1.0809
 2081Sol     HW11281   0.661   1.364   8.791 -0.4342 -0.4324  0.3428
 2081Sol     MW11282   0.715   1.323   8.850 -0.3653  0.3280  0.4849
 2082Sol     OW11283   2.869   0.272   2.177 -0.1522  0.5092 -0.3023
 2082Sol     HW11284   2.871   0.347   2.236  1.4375 -0.5949  1.0972
 2082Sol     HW11285   2.871   0.310   2.089  3.5939  2.0806  0.3749
 2082Sol     MW11286   2.870   0.282   2.174 -0.5190 -0.1249 -0.6964
 2083Sol     OW11287   1.446   2.001   9.287 -0.5550 -0.1425  0.2673
 2083Sol     HW11288   1.509   1.930   9.300 -0.2911 -0.1136 -0.8794
 2083Sol     HW11289   1.460   2.058   9.362  1.8292  0.6526 -0.7369
 2083Sol     MW11290   1.453   1.999   9.295  0.1936 -0.4371 -0.3342
 2084Sol     OW11291   0.665   0.075   3.187  0.5077  0.7252  0.0538
 2084Sol     HW11292   0.749   0.069   3.234  0.5369 -0.3408 -0.1274
 2084Sol     HW11293   0.684   0.044   3.099 -0.4778 -1.3029  0.5251
 2084Sol     MW11294   0.674   0.072   3.184  0.4692 -0.1060 -0.3573
 2085Sol     OW11295   0.508   2.570   4.199  0.4008 -0.4582 -0.3254
 2085Sol     HW11296   0.596   2.538   4.176  0.2193 -0.4519 -1.0424
 2085Sol     HW11297   0.476   2.507   4.263  1.2479 -0.0090  0.5651
 2085Sol     MW11298   0.513   2.562   4.202  0.2175 -0.1776  0.2021
 2086Sol     OW11299   2.827   1.874   7.651 -0.0104  0.1413  0.3932
 2086Sol     HW11300   2.765   1.912   7.713  0.2299  1.7362 -0.3279
 2086Sol     HW11301   2.788   1.790   7.627 -0.3573 -0.2537  2.2978
 2086Sol     MW11302   2.818   1.870   7.654  0.6288  0.8546  0.0313
 2087Sol     OW11303   1.518   0.764   7.080 -0.0551  0.5233  0.2986
 2087Sol     HW11304   1.609   0.760   7.110  0.4082 -0.9520 -1.2274
 2087Sol     HW11305   1.522   0.812   6.998 -0.5673  0.0513 -0.0084
 2087Sol     MW11306   1.527   0.768   7.076  0.2546  0.2541 -0.5724
 2088Sol     OW11307   1.816   1.936   4.190 -0.7930  0.4036 -0.2546
 2088Sol     HW11308   1.878   2.007   4.204  0.3364 -0.6121  0.0024
 2088Sol     HW11309   1.770   1.927   4.274  0.4721 -0.4942  0.3510
 2088Sol     MW11310   1.818   1.941   4.199  0.8034  0.5949 -0.2217
 2089Sol     OW11311   1.437   0.563   5.530 -0.2051 -0.1311  0.0331
 2089Sol     HW11312   1.420   0.511   5.452 -3.3948  0.8534 -0.0149
 2089Sol     HW11313   1.520   0.531   5.564 -0.5912 -3.0838 -1.7103
 2089Sol     MW11314   1.443   0.556   5.526  0.1565  0.1280 -0.4195
 2090Sol     OW11315   1.681   0.867   2.281 -0.1559 -0.7724  0.1753
 2090Sol     HW11316   1.628   0.841   2.357 -1.9313 -3.1744 -1.8006
 2090Sol     HW11317   1.768   0.831   2.300  0.3497  1.5376  2.5590
 2090Sol     MW11318   1.684   0.861   2.290 -0.6347  0.4149 -0.0264
 2091Sol     OW11319   1.265   1.015   9.651 -0.5209 -0.3077  0.1098
 2091Sol     HW11320   1.336   0.952   9.649 -0.5250 -0.3416  0.8595
 2091Sol     HW11321   1.191   0.967   9.689 -0.3422  0.3220  1.2682
 2091Sol     MW11322   1.265   1.005   9.654 -0.5752 -0.0509 -0.3605
 2092Sol     OW11323   1.843   2.244   7.125 -0.1694  0.4999 -0.4775
 2092Sol     HW11324   1.780   2.216   7.059 -0.5037  0.9967 -0.3733
 2092Sol     HW11325   1.860   2.165   7.177 -0.4166  0.2721 -0.7434
 2092Sol     MW11326   1.839   2.234   7.124 -0.3977 -0.2119 -0.2299
 2093Sol     OW11327   0.529   1.863   3.042  0.3084 -0.0920  0.1412
 2093Sol     HW11328   0.593   1.930   3.066  0.5935  0.5786 -2.2715
 2093Sol     HW11329   0.582   1.794   3.001 -0.4201  0.1764 -1.2858
 2093Sol     MW11330   0.540   1.863   3.040 -0.4065  0.8163 -0.1414
 2094Sol     OW11331   2.687   0.853   9.167 -0.3286 -0.0597  0.3690
 2094Sol     HW11332   2.773   0.816   9.186 -0.8846 -1.0545  1.0354
 2094Sol     HW11333   2.629   0.810   9.230 -1.3229  0.5450 -0.1286
 2094Sol     MW11334   2.689   0.846   9.175  0.6974  0.1345 -0.1293
 2095Sol     OW11335   0.255   1.838   3.109  0.0587 -0.1539 -0.3975
 2095Sol     HW11336   0.347   1.847   3.084 -0.4996  2.2712 -1.7652
 2095Sol     HW11337   0.249   1.751   3.149  3.0829 -0.0489  0.3830
 2095Sol     MW11338   0.262   1.831   3.110  0.1401  0.0321 -0.1675
 2096Sol     OW11339   2.097   1.637   9.164 -0.4639 -0.3357 -0.2119
 2096Sol     HW11340   2.086   1.543   9.152 -0.3723 -0.7412  2.5418
 2096Sol     HW11341   2.051   1.656   9.246  0.5491  1.7976 -0.1118
 2096Sol     MW11342   2.092   1.630   9.170  0.5088 -0.1763 -0.2708
 2097Sol     OW11343   2.791   3.285   2.231  0.0731  0.2372  0.2951
 2097Sol     HW11344   2.773   3.195   2.202 -1.1515  0.3031  0.8164
 2097Sol     HW11345   2.723   3.337   2.190  0.0819  0.7556  0.9316
 2097Sol     MW11346   2.783   3.281   2.225 -0.7073 -0.1407 -0.1358
 2098Sol     OW11347   1.569   2.420   3.925  0.4568  0.0851  0.5275
 2098Sol     HW11348   1.499   2.478   3.956 -1.9801 -1.7333 -1.3731
 2098Sol     HW11349   1.578   2.354   3.994 -0.8393 -0.5815  0.0761
 2098Sol     MW11350   1.563   2.419   3.934 -0.6005 -0.2025  0.5658
 2099Sol     OW11351   1.322   0.979   8.807 -0.5044 -0.0207  0.6249
 2099Sol     HW11352   1.398   0.921   8.814 -1.0681 -0.6489  1.5910
 2099Sol     HW11353   1.281   0.956   8.724  1.0654  1.1901 -0.5125
 2099Sol     MW11354   1.325   0.972   8.800 -0.1790  0.5685  0.0770
 2100Sol     OW11355   2.847   2.985   8.731  0.3790  0.3459  0.1897
 2100Sol     HW11356   2.830   2.891   8.740 -0.4802  0.4934  0.0566
 2100Sol     HW11357   2.773   3.019   8.682  1.2911  0.8970 -0.8316
 2100Sol     MW11358   2.839   2.980   8.728  0.1612 -1.0616 -0.3242
 2101Sol     OW11359   2.681   2.757   5.437  0.5136 -0.2202  0.1485
 2101Sol     HW11360   2.773   2.779   5.452  0.1490  1.6947 -0.2160
 2101Sol     HW11361   2.662   2.687   5.499  1.6764  0.7842  1.6870
 2101Sol     MW11362   2.688   2.753   5.444 -0.4304 -0.1857  0.5624
 2102Sol     OW11363   0.249   2.501   6.524  0.5652 -0.2714  0.5243
 2102Sol     HW11364   0.344   2.492   6.536  1.0681  3.7420  0.2699
 2102Sol     HW11365   0.237   2.490   6.429  0.7821 -0.6570  0.5378
 2102Sol     MW11366   0.257   2.499   6.516  0.0015 -0.2619 -0.0497
 2103Sol     OW11367   1.415   2.602   5.683 -0.0990  1.0519 -0.1512
 2103Sol     HW11368   1.356   2.527   5.681 -0.8850  1.5733  2.2611
 2103Sol     HW11369   1.422   2.630   5.591 -3.5749  0.9936 -0.4728
 2103Sol     MW11370   1.411   2.598   5.674 -0.0036  0.2489  0.0458
 2104Sol     OW11371   0.731   1.841   3.755 -0.5442 -0.0864  0.0605
 2104Sol     HW11372   0.755   1.883   3.837 -2.2288  0.3189  0.3541
 2104Sol     HW11373   0.674   1.769   3.780 -0.9428 -0.0642 -0.7521
 2104Sol     MW11374   0.728   1.838   3.764 -0.2851  0.2742 -0.3271
 2105Sol     OW11375   0.895   0.207   5.581  0.0307 -0.1599  0.0610
 2105Sol     HW11376   0.850   0.290   5.570  0.7060  0.3015  0.7444
 2105Sol     HW11377   0.867   0.154   5.505 -1.1573  0.3286  0.1469
 2105Sol     MW11378   0.888   0.209   5.573  0.1750 -0.2265 -0.0673
 2106Sol     OW11379   2.380   2.463   8.689  0.1934  0.2787 -0.2960
 2106Sol     HW11380   2.454   2.408   8.662  0.7559 -0.2268  2.1528
 2106Sol     HW11381   2.414   2.514   8.763 -1.5407  0.9646  0.0466
 2106Sol     MW11382   2.390   2.463   8.694  0.3479  0.0053 -0.1656
 2107Sol     OW11383   1.736   2.652   6.188  0.3623  0.2414  0.6435
 2107Sol     HW11384   1.696   2.739   6.184  1.4664  0.7338 -0.0080
 2107Sol     HW11385   1.662   2.591   6.194 -0.3926  1.2688  1.9585
 2107Sol     MW11386   1.726   2.654   6.188 -0.1999 -0.4223 -0.4398
 2108Sol     OW11387   1.427   0.382   4.912 -0.2947 -0.0164 -0.1586
 2108Sol     HW11388   1.342   0.423   4.929  0.7033  1.4884  1.2895
 2108Sol     HW11389   1.461   0.427   4.835 -0.2915  0.1815 -0.0416
 2108Sol     MW11390   1.422   0.390   4.906  0.1004 -0.0603 -0.0856
 2109Sol     OW11391   1.567   1.352   6.798  0.5330 -0.5802  0.2655
 2109Sol     HW11392   1.573   1.427   6.740 -3.3216 -1.0569 -0.9308
 2109Sol     HW11393   1.521   1.384   6.876  2.0208 -0.9073  1.3086
 2109Sol     MW11394   1.563   1.361   6.800  0.3122  0.3759 -0.1176
 2110Sol     OW11395   0.717   2.021   8.747  0.3361  0.2976  0.2871
 2110Sol     HW11396   0.783   2.026   8.816  0.0855 -0.8250  0.6125
 2110Sol     HW11397   0.647   1.969   8.785 -0.1302  0.3093 -0.5558
 2110Sol     MW11398   0.717   2.017   8.757 -0.4737  0.2347  0.2037
 2111Sol     OW11399   1.752   3.100   7.453 -0.2008  0.2688 -0.5017
 2111Sol     HW11400   1.684   3.157   7.417  0.5092  2.2498  1.1569
 2111Sol     HW11401   1.766   3.133   7.542  1.3141 -1.5521 -0.0330
 2111Sol     MW11402   1.747   3.108   7.458  0.4852 -0.2996  0.0980
 2112Sol     OW11403   1.042   2.104   5.362 -0.0732 -0.0100  0.2272
 2112Sol     HW11404   0.985   2.051   5.417  1.2459  0.4625  2.1202
 2112Sol     HW11405   1.124   2.055   5.359  0.0314  0.2246 -0.9142
 2112Sol     MW11406   1.044   2.095   5.367 -0.0444 -0.1318  0.4711
 2113Sol     OW11407   1.815   0.868   4.943  0.6579 -1.1930 -1.1920
 2113Sol     HW11408   1.776   0.790   4.904 -2.1508  1.9754 -5.1854
 2113Sol     HW11409   1.876   0.901   4.877  1.5256  0.2293  0.2539
 2113Sol     MW11410   1.817   0.864   4.934  0.1456  0.8946 -0.4101
 2114Sol     OW11411   0.958   2.614   9.715  0.0381  0.0558 -0.5094
 2114Sol     HW11412   0.977   2.532   9.670 -0.3597  0.8487 -2.1564
 2114Sol     HW11413   0.863   2.615   9.723  0.2163 -1.0664  2.2898
 2114Sol     MW11414   0.952   2.607   9.712  0.1763  0.4362 -0.0337
 2115Sol     OW11415   3.020   1.573   2.774  0.1997  0.0752  0.0032
 2115Sol     HW11416   3.049   1.620   2.852  3.5386 -1.4816 -0.1950
 2115Sol     HW11417   2.965   1.502   2.808 -1.6172  1.7301  0.5918
 2115Sol     MW11418   3.018   1.571   2.784  0.2601  0.0446 -0.3848
 2116Sol     OW11419   2.584   2.551   5.614 -0.2591 -0.1735  0.1335
 2116Sol     HW11420   2.521   2.501   5.562  1.1904 -1.0208 -0.8082
 2116Sol     HW11421   2.652   2.489   5.637  0.2859  0.7615  1.1028
 2116Sol     MW11422   2.584   2.541   5.611 -0.0900 -0.1265 -0.2218
 2117Sol     OW11423   2.343   2.329   7.844 -0.4309  0.1397  0.1099
 2117Sol     HW11424   2.263   2.315   7.896  0.1225 -1.1871  0.6351
 2117Sol     HW11425   2.332   2.416   7.806 -2.0114  0.0887  0.4006
 2117Sol     MW11426   2.335   2.335   7.845 -0.8962 -0.4230 -0.3834
 2118Sol     OW11427   2.486   2.621   4.889 -0.2751  0.5825  0.5444
 2118Sol     HW11428   2.549   2.588   4.824 -1.0403  0.0439  0.0576
 2118Sol     HW11429   2.409   2.565   4.877 -0.8721  1.2887  1.0795
 2118Sol     MW11430   2.485   2.613   4.882 -0.2319  0.0221  0.0347
 2119Sol     OW11431   2.071   2.770   7.823 -0.2102  0.8780 -0.3603
 2119Sol     HW11432   2.020   2.791   7.744 -2.2434  1.4226  1.0408
 2119Sol     HW11433   2.035   2.686   7.852 -1.4961  2.0490  1.5513
 2119Sol     MW11434   2.063   2.765   7.818  0.0999 -0.1356  0.2331
 2120Sol     OW11435   0.103   1.739   2.272  0.2874  0.3227  0.0710
 2120Sol     HW11436   0.015   1.776   2.269 -0.6582 -1.9047 -0.6889
 2120Sol     HW11437   0.149   1.790   2.339 -1.7857  1.0636  0.9534
 2120Sol     MW11438   0.099   1.747   2.278  0.5689 -0.2019  0.0750
 2121Sol     OW11439   2.899   3.261   7.749 -0.0340  0.2761  0.0096
 2121Sol     HW11440   2.849   3.324   7.697  1.1421  0.3898 -0.9972
 2121Sol     HW11441   2.980   3.249   7.700  0.3175 -0.9956  0.8996
 2121Sol     MW11442   2.902   3.266   7.740  0.6858 -0.2795 -0.0992
 2122Sol     OW11443   2.219   2.268   5.015  0.2887 -0.2140 -1.5635
 2122Sol     HW11444   2.175   2.320   5.082  2.0748 -0.5484 -0.0978
 2122Sol     HW11445   2.169   2.186   5.011  0.3776 -0.3258 -0.3975
 2122Sol     MW11446   2.211   2.265   5.020 -0.2714 -0.2393 -0.3175
 2123Sol     OW11447   0.202   0.947   5.295  0.8624  0.0228  0.2623
 2123Sol     HW11448   0.215   0.877   5.231  4.3019 -0.3042  1.2241
 2123Sol     HW11449   0.192   1.026   5.242  0.0657 -0.7277 -0.7389
 2123Sol     MW11450   0.202   0.948   5.285  0.0104 -1.4099 -0.3496
 2124Sol     OW11451   0.786   0.420   7.341  0.3094  0.4787 -0.0601
 2124Sol     HW11452   0.751   0.370   7.267 -0.4444  0.9394 -0.0161
 2124Sol     HW11453   0.850   0.479   7.301  0.4263  0.2293 -0.2474
 2124Sol     MW11454   0.789   0.421   7.330 -0.3434  0.0052 -0.5404
 2125Sol     OW11455   1.086   1.786   6.648  0.2059  0.1642  0.2023
 2125Sol     HW11456   1.164   1.837   6.626 -0.6622  2.1282  1.5553
 2125Sol     HW11457   1.052   1.756   6.564  1.4039  0.8180 -0.5205
 2125Sol     MW11458   1.090   1.788   6.639  0.3178 -0.0101  0.0506
 2126Sol     OW11459   0.189   0.180   5.609  0.5066 -0.4456 -0.3021
 2126Sol     HW11460   0.240   0.172   5.529 -0.2267 -1.0888 -0.7136
 2126Sol     HW11461   0.098   0.179   5.580  0.2540  0.7059  0.4215
 2126Sol     MW11462   0.185   0.179   5.599  0.3159 -0.2171 -0.6975
 2127Sol     OW11463   2.986   1.009   5.760  0.1758  0.1937 -1.0149
 2127Sol     HW11464   2.890   1.010   5.753  0.1570 -0.7461 -0.9745
 2127Sol     HW11465   3.008   1.093   5.800 -0.6939  0.0578 -0.2240
 2127Sol     MW11466   2.979   1.016   5.763 -0.2187 -0.7853 -0.3222
 2128Sol     OW11467   0.169   0.264   6.711  0.5634  0.6772  0.2888
 2128Sol     HW11468   0.231   0.195   6.731  0.1456  0.1899 -0.0773
 2128Sol     HW11469   0.109   0.265   6.786  0.4749  0.5319  0.2205
 2128Sol     MW11470   0.169   0.258   6.720  0.4337  0.1657  0.0078
 2129Sol     OW11471   3.200   1.004   3.034  0.1707  0.2454  0.0784
 2129Sol     HW11472   3.158   1.043   3.110  1.1934  0.3865  0.5789
 2129Sol     HW11473   3.155   1.043   2.959  0.0712  1.1222  0.5900
 2129Sol     MW11474   3.192   1.011   3.034 -0.5936 -0.0253 -0.6923
 2130Sol     OW11475   1.333   0.353   5.986 -0.1293 -0.4258 -0.2565
 2130Sol     HW11476   1.278   0.276   5.998  0.4443 -0.8380 -0.2555
 2130Sol     HW11477   1.407   0.323   5.934  0.7369 -0.1880  0.7977
 2130Sol     MW11478   1.335   0.343   5.983  0.2626 -0.5845 -0.5750
 2131Sol     OW11479   0.227   0.064   3.062 -0.3928  0.1890  0.0895
 2131Sol     HW11480   0.304   0.077   3.006 -0.6484 -0.4577 -0.3990
 2131Sol     HW11481   0.220   0.147   3.110  0.6193  0.2549  0.1502
 2131Sol     MW11482   0.234   0.073   3.061 -0.4018 -0.0414  0.0531
 2132Sol     OW11483   0.575   3.138   9.987  0.3177  0.7261 -0.5043
 2132Sol     HW11484   0.621   3.198   9.928 -0.6968  1.2121 -0.8039
 2132Sol     HW11485   0.621   3.147  10.071  1.2498  0.6330 -0.9901
 2132Sol     MW11486   0.583   3.144   9.989 -0.5556  0.1754 -0.0972
 2133Sol     OW11487   1.352   3.337   8.057  0.0622  0.6844  0.0934
 2133Sol     HW11488   1.263   3.308   8.034  1.0313 -0.5427 -2.3386
 2133Sol     HW11489   1.362   3.421   8.013 -0.3569  1.4913  1.5131
 2133Sol     MW11490   1.345   3.342   8.051 -0.6804  0.4684  0.0880
 2134Sol     OW11491   0.093   3.123   3.477  0.1813  0.3484 -0.0846
 2134Sol     HW11492   0.007   3.127   3.518  0.2117 -0.8184  0.1088
 2134Sol     HW11493   0.142   3.060   3.529  0.1630 -1.2923 -1.9800
 2134Sol     MW11494   0.090   3.118   3.485 -0.5905  0.3115  0.3778
 2135Sol     OW11495   2.504   1.714   9.781  0.0226 -0.0269 -0.0088
 2135Sol     HW11496   2.441   1.662   9.731  0.2574 -1.0276  0.6929
 2135Sol     HW11497   2.578   1.726   9.722 -0.1167 -0.3373 -0.2492
 2135Sol     MW11498   2.505   1.710   9.772  0.8230  0.0852  0.4451
 2136Sol     OW11499   3.019   1.741   7.869 -0.4840  0.4727  0.2347
 2136Sol     HW11500   3.078   1.814   7.891 -1.4468  1.0046  1.0685
 2136Sol     HW11501   2.961   1.777   7.802 -2.0770  1.0428  1.8665
 2136Sol     MW11502   3.019   1.751   7.865  0.6697  0.0312 -0.5025
 2137Sol     OW11503   2.806   3.035   4.484  0.1171  0.6284 -0.0170
 2137Sol     HW11504   2.871   3.074   4.425  1.2487 -0.7060  0.3057
 2137Sol     HW11505   2.812   3.088   4.564 -0.2057  1.3786 -0.4795
 2137Sol     MW11506   2.813   3.044   4.486 -0.2527  0.2555  0.0076
 2138Sol     OW11507   1.082   2.713   4.372 -0.0710  0.4715 -0.1792
 2138Sol     HW11508   1.083   2.793   4.425 -1.2953 -1.2727  2.5724
 2138Sol     HW11509   1.000   2.717   4.324 -0.2958  0.6983  0.2222
 2138Sol     MW11510   1.075   2.721   4.372 -0.4512  0.1724 -0.1149
 2139Sol     OW11511   1.818   3.111   1.661 -0.3263 -0.4028  0.2006
 2139Sol     HW11512   1.877   3.062   1.718  0.3062  0.0446 -0.0638
 2139Sol     HW11513   1.776   3.044   1.607 -0.6469 -0.7951  0.9168
 2139Sol     MW11514   1.819   3.100   1.662 -0.0076  0.1281  0.5796
 2140Sol     OW11515   0.137   0.314   3.172  0.4547 -0.3128  0.2718
 2140Sol     HW11516   0.129   0.379   3.102 -2.7936  0.7505  1.5072
 2140Sol     HW11517   0.207   0.347   3.227  0.6339  0.7292 -0.5577
 2140Sol     MW11518   0.142   0.323   3.170 -0.2574 -0.3233  0.5440
 2141Sol     OW11519   2.968   2.537   8.144 -0.1915  0.3841 -0.2069
 2141Sol     HW11520   2.893   2.571   8.095  0.6579  0.5129 -1.4324
 2141Sol     HW11521   3.002   2.465   8.090  0.1352 -0.1504  0.6904
 2141Sol     MW11522   2.964   2.533   8.135 -0.1032 -0.1128 -0.2417
 2142Sol     OW11523   2.376   0.791   8.481  0.2191 -0.1015  0.7042
 2142Sol     HW11524   2.297   0.768   8.434  0.0985 -0.7769  1.2303
 2142Sol     HW11525   2.401   0.712   8.528  0.8642  0.2805  1.0270
 2142Sol     MW11526   2.371   0.782   8.481  0.3323 -0.3232 -0.2897
 2143Sol     OW11527   2.588   2.728   4.222  0.2669 -0.1928  0.7467
 2143Sol     HW11528   2.616   2.722   4.131 -1.2820  2.1831  0.0614
 2143Sol     HW11529   2.662   2.768   4.267  0.3449  0.3283  0.1652
 2143Sol     MW11530   2.597   2.731   4.218  0.1383  0.3450 -0.0990
 2144Sol     OW11531   2.600   1.987   7.805 -0.2052 -0.0573  0.3358
 2144Sol     HW11532   2.602   2.019   7.896  0.8658 -1.1414  0.7160
 2144Sol     HW11533   2.532   1.920   7.805 -1.0177  0.7653  0.0470
 2144Sol     MW11534   2.594   1.984   7.813  0.0806  0.3751  0.5298
 2145Sol     OW11535   2.317   1.836   5.923  0.0768  0.2043 -0.4407
 2145Sol     HW11536   2.341   1.771   5.989  1.4170  1.1719  0.0395
 2145Sol     HW11537   2.400   1.866   5.888 -0.5968  0.3365 -1.9745
 2145Sol     MW11538   2.326   1.833   5.926 -0.0079 -0.6300  0.2338
 2146Sol     OW11539   1.217   0.938   6.858  0.0018 -0.3202  0.8367
 2146Sol     HW11540   1.217   0.975   6.946 -0.3924 -0.6253  0.9654
 2146Sol     HW11541   1.205   0.844   6.871  2.3568 -0.6826  0.5848
 2146Sol     MW11542   1.216   0.933   6.867  0.1008 -0.5891  0.7227
 2147Sol     OW11543   2.142   2.684   8.321 -0.1309 -0.0580 -0.0600
 2147Sol     HW11544   2.060   2.680   8.271 -0.7446 -1.6410  1.0161
 2147Sol     HW11545   2.196   2.748   8.275 -1.6636  0.3918 -1.2603
 2147Sol     MW11546   2.139   2.689   8.313 -0.0651 -0.5092  0.1235
 2148Sol     OW11547   2.380   1.802   3.081  0.0082  0.2223  0.7046
 2148Sol     HW11548   2.382   1.855   3.161  0.4775 -0.0391  0.8702
 2148Sol     HW11549   2.299   1.753   3.087 -0.8957  1.6091  0.1032
 2148Sol     MW11550   2.373   1.803   3.089  0.7545  0.1856 -0.1040
 2149Sol     OW11551   1.325   3.073   5.045 -0.1234 -0.0334 -0.1548
 2149Sol     HW11552   1.345   3.167   5.053 -0.0164  0.0978 -1.8089
 2149Sol     HW11553   1.398   3.037   4.995 -0.2937 -0.9705  0.2555
 2149Sol     MW11554   1.333   3.078   5.042  0.0938  0.2234 -0.4075
 2150Sol     OW11555   2.517   0.617   5.815 -0.2272 -0.5867  0.4116
 2150Sol     HW11556   2.578   0.659   5.755 -1.6141  1.1193  0.1619
 2150Sol     HW11557   2.504   0.529   5.779 -0.4169  0.1526 -1.3309
 2150Sol     MW11558   2.521   0.613   5.807 -0.0990 -0.4682 -0.2286
 2151Sol     OW11559   2.116   0.574   6.832 -0.1302 -0.3004 -0.0743
 2151Sol     HW11560   2.123   0.510   6.761 -0.0085  1.6965 -1.9181
 2151Sol     HW11561   2.206   0.588   6.860 -0.2347 -1.5924  0.9839
 2151Sol     MW11562   2.125   0.570   6.828  0.0025 -0.1062 -0.1070
 2152Sol     OW11563   2.668   1.448   5.012  0.0535 -0.2448 -0.2862
 2152Sol     HW11564   2.588   1.446   5.064 -0.6093 -0.5325 -1.3107
 2152Sol     HW11565   2.676   1.360   4.977 -0.0801  0.2336 -1.5361
 2152Sol     MW11566   2.662   1.440   5.014  0.1996  0.1364 -0.2226
 2153Sol     OW11567   2.053   0.518   6.182  0.1014 -0.1286  0.9708
 2153Sol     HW11568   1.975   0.551   6.138  0.9643 -0.7352 -1.0742
 2153Sol     HW11569   2.039   0.424   6.190  0.2308 -0.1109  1.4065
 2153Sol     MW11570   2.045   0.513   6.179 -0.9772 -0.4030 -0.1215
 2154Sol     OW11571   0.926   1.676   3.663  0.1850  0.2732 -0.1979
 2154Sol     HW11572   0.895   1.591   3.692  0.7615 -0.1254 -0.7226
 2154Sol     HW11573   0.855   1.736   3.683 -0.3670 -0.3919 -0.1420
 2154Sol     MW11574   0.917   1.674   3.667  0.3018 -0.5394 -0.0420
 2155Sol     OW11575   0.814   1.447   1.883 -0.0196 -0.0911 -0.1930
 2155Sol     HW11576   0.891   1.501   1.866 -0.7974  0.8294 -0.8622
 2155Sol     HW11577   0.771   1.490   1.957 -0.3885 -0.0684 -0.4223
 2155Sol     MW11578   0.817   1.455   1.888  0.3237  0.3441  0.1639
 2156Sol     OW11579   2.051   2.356   6.312  0.3530 -0.5243 -0.2322
 2156Sol     HW11580   2.008   2.304   6.243 -0.3112 -0.8721  0.4436
 2156Sol     HW11581   1.980   2.396   6.361  0.8580  0.7970 -0.5507
 2156Sol     MW11582   2.041   2.355   6.310  0.0170  0.0144 -0.4939
 2157Sol     OW11583   0.569   2.301  10.014  0.2853  0.0566  0.2049
 2157Sol     HW11584   0.641   2.269   9.960  1.0545 -0.5053  1.5442
 2157Sol     HW11585   0.559   2.235  10.082 -1.6416  0.0276 -0.0791
 2157Sol     MW11586   0.574   2.292  10.015 -0.3179 -0.4153  0.4860
 2158Sol     OW11587   0.260   0.177   4.614 -0.5869 -0.4589 -0.0755
 2158Sol     HW11588   0.340   0.127   4.598 -1.9624 -2.5852 -0.6333
 2158Sol     HW11589   0.221   0.189   4.528  0.6681  3.3247 -0.1782
 2158Sol     MW11590   0.263   0.173   4.605 -0.3296 -0.1794 -0.3146
 2159Sol     OW11591   2.792   3.407   8.974  0.2360  0.4631  0.2813
 2159Sol     HW11592   2.813   3.410   9.068 -1.1982 -2.4209  0.7431
 2159Sol     HW11593   2.831   3.325   8.944 -2.5489 -0.4962 -0.7928
 2159Sol     MW11594   2.798   3.400   8.980 -0.6152  0.0373  0.1933
 2160Sol     OW11595   0.800   1.348   5.141 -0.2087 -0.0747 -0.0777
 2160Sol     HW11596   0.805   1.435   5.181  1.5146 -0.2032  0.0279
 2160Sol     HW11597   0.728   1.354   5.079 -0.8273  1.1000  0.7363
 2160Sol     MW11598   0.794   1.357   5.139 -0.0785 -0.0776  0.0826
 2161Sol     OW11599   0.785   1.416   3.734 -0.3900 -0.1834  0.2672
 2161Sol     HW11600   0.708   1.468   3.758 -0.1010  0.5631 -0.3866
 2161Sol     HW11601   0.753   1.354   3.669 -0.1741  1.0446 -1.0461
 2161Sol     MW11602   0.775   1.415   3.730 -0.5730 -0.2443  0.3522
 2162Sol     OW11603   0.405   2.630   1.954 -0.4205  0.4511 -0.0697
 2162Sol     HW11604   0.345   2.560   1.930 -0.7822  0.7911 -0.1474
 2162Sol     HW11605   0.388   2.647   2.047  0.4047 -0.2924  0.2293
 2162Sol     MW11606   0.398   2.625   1.960 -0.4252  0.3078 -0.3968
 2163Sol     OW11607   2.757   2.906   5.728 -0.0287  1.0834  0.7561
 2163Sol     HW11608   2.820   2.912   5.656 -0.8183  1.7800  0.0996
 2163Sol     HW11609   2.769   2.988   5.777 -0.2620  1.1091  0.7687
 2163Sol     MW11610   2.764   2.914   5.726 -0.5330  0.0471  0.1773
 2164Sol     OW11611   3.082   1.018   9.193 -0.2128 -0.5429  0.0179
 2164Sol     HW11612   3.039   1.079   9.133 -1.0168 -0.2925  0.8515
 2164Sol     HW11613   3.029   0.939   9.188  0.3291 -0.8835 -0.3966
 2164Sol     MW11614   3.073   1.017   9.187 -0.0189  0.4547  0.1779
 2165Sol     OW11615   3.079   2.694   5.304  0.7179 -0.3952 -0.9660
 2165Sol     HW11616   2.997   2.683   5.257 -0.3298  1.2896  0.3851
 2165Sol     HW11617   3.076   2.629   5.374  0.9157 -0.8986 -1.4272
 2165Sol     MW11618   3.071   2.687   5.306  0.6869 -0.1738 -0.1757
 2166Sol     OW11619   0.879   1.126   8.137 -0.4267 -0.0978 -0.1176
 2166Sol     HW11620   0.945   1.140   8.205  0.3978  1.9616 -1.3027
 2166Sol     HW11621   0.925   1.143   8.055 -2.0762 -0.0050 -1.0518
 2166Sol     MW11622   0.889   1.129   8.136  0.1558 -0.1709 -0.0326
 2167Sol     OW11623   1.183   0.171   6.964  0.1353 -0.1309  0.5922
 2167Sol     HW11624   1.211   0.236   7.028 -0.3875  0.2816  0.4019
 2167Sol     HW11625   1.104   0.132   7.001 -0.9204  1.0369 -0.4123
 2167Sol     MW11626   1.179   0.173   6.973  0.3547 -0.5034 -0.2206
 2168Sol     OW11627   2.952   0.479   4.727 -0.4536 -0.2721  0.0444
 2168Sol     HW11628   2.956   0.428   4.808  0.9474  0.3568  0.3845
 2168Sol     HW11629   3.042   0.507   4.711 -0.5224 -1.2822 -2.3282
 2168Sol     MW11630   2.960   0.477   4.733 -0.5536  0.5975  0.6477
 2169Sol     OW11631   2.810   0.228   2.719 -0.0356  0.1895  0.2533
 2169Sol     HW11632   2.886   0.195   2.767 -0.4339 -0.5243  0.4062
 2169Sol     HW11633   2.748   0.254   2.786 -1.2476 -2.3249  0.1766
 2169Sol     MW11634   2.811   0.227   2.729  0.1335  0.3301  0.0194
 2170Sol     OW11635   1.166   2.715   7.565 -0.2890 -0.1057  0.8766
 2170Sol     HW11636   1.238   2.659   7.594 -0.4250 -0.3629  0.7221
 2170Sol     HW11637   1.109   2.656   7.515 -0.8578 -0.0167  1.4100
 2170Sol     MW11638   1.168   2.705   7.564 -0.0231 -0.0221  0.0564
 2171Sol     OW11639   1.435   3.196  10.047  0.3486  0.4109  0.0304
 2171Sol     HW11640   1.430   3.154  10.133  0.2631 -0.4491 -0.3885
 2171Sol     HW11641   1.361   3.257  10.045 -0.3369 -0.4212  0.1173
 2171Sol     MW11642   1.428   3.198  10.054  0.2198 -0.4482  0.5262
 2172Sol     OW11643   1.138   0.620   7.667 -0.2066  0.0783 -0.2909
 2172Sol     HW11644   1.161   0.606   7.575 -1.2126 -0.0480 -0.5397
 2172Sol     HW11645   1.136   0.715   7.677 -2.9195  0.1604 -1.1782
 2172Sol     MW11646   1.140   0.627   7.660  0.4510 -0.2967 -0.1108
 2173Sol     OW11647   2.020   2.110   8.178 -0.5292  0.1331  0.0835
 2173Sol     HW11648   1.958   2.173   8.216 -1.4447  0.1608 -1.3994
 2173Sol     HW11649   1.967   2.032   8.162  0.0077 -0.1153 -0.4762
 2173Sol     MW11650   2.009   2.109   8.180  0.3859 -0.4757 -0.5513
 2174Sol     OW11651   3.118   3.074   7.861 -0.1010  0.0911 -0.0768
 2174Sol     HW11652   3.124   3.133   7.937 -0.4265 -0.0028  0.0220
 2174Sol     HW11653   3.084   2.992   7.897 -0.9134  0.2688 -0.4502
 2174Sol     MW11654   3.116   3.072   7.871 -0.3158  0.0974 -0.0464
 2175Sol     OW11655   1.731   0.249   8.980 -0.3922 -0.3168  0.4697
 2175Sol     HW11656   1.720   0.212   9.068 -0.6447  0.3339  0.7191
 2175Sol     HW11657   1.643   0.247   8.943 -0.7548  1.6955  1.1680
 2175Sol     MW11658   1.722   0.245   8.985 -0.4107  0.2576  0.9609
 2176Sol     OW11659   0.181   2.780   8.356 -0.2068 -0.0161 -0.4023
 2176Sol     HW11660   0.168   2.848   8.289 -2.1769 -0.1652 -0.1864
 2176Sol     HW11661   0.124   2.806   8.428  0.5784 -0.8158  0.5118
 2176Sol     MW11662   0.175   2.789   8.356  0.1810 -0.0461 -0.1760
 2177Sol     OW11663   1.205   1.741   4.044 -0.0328 -0.3680  0.0235
 2177Sol     HW11664   1.273   1.761   4.108  1.4616  0.0933 -1.6627
 2177Sol     HW11665   1.176   1.826   4.012 -0.0890 -0.6270 -0.6147
 2177Sol     MW11666   1.208   1.750   4.047  0.0928 -0.4530  0.2760
 2178Sol     OW11667   2.387   1.763   5.513 -0.2419 -0.2846 -0.0117
 2178Sol     HW11668   2.306   1.775   5.562  0.3666  1.6709  0.5552
 2178Sol     HW11669   2.437   1.843   5.529  0.2309  0.1538 -3.3539
 2178Sol     MW11670   2.384   1.771   5.519 -0.1111 -0.6949 -0.5566
 2179Sol     OW11671   1.237   0.547   4.407  0.5501  0.4035 -0.7124
 2179Sol     HW11672   1.216   0.637   4.381  2.2256  1.3208  1.0336
 2179Sol     HW11673   1.332   0.545   4.412  0.4568 -1.0588  0.7298
 2179Sol     MW11674   1.243   0.555   4.405  0.6632  0.0627 -0.2432
 2180Sol     OW11675   1.214   0.860   9.099 -0.3107  0.1186 -0.3109
 2180Sol     HW11676   1.293   0.807   9.094 -0.3353  0.0814 -0.3060
 2180Sol     HW11677   1.170   0.831   9.179  0.2152  0.8975  0.2786
 2180Sol     MW11678   1.217   0.853   9.106  0.1284  0.0727  0.3489
 2181Sol     OW11679   1.705   2.431   3.343  0.0924  0.1293  0.2138
 2181Sol     HW11680   1.668   2.343   3.342  0.8486 -0.2218  1.5223
 2181Sol     HW11681   1.704   2.459   3.252  0.2816 -1.4225 -0.2729
 2181Sol     MW11682   1.702   2.426   3.335 -0.2002  0.0112  0.0299
 2182Sol     OW11683   1.207   0.412   4.182  0.0246  0.2790 -0.1229
 2182Sol     HW11684   1.216   0.469   4.259  0.3437 -0.1230  0.1436
 2182Sol     HW11685   1.162   0.465   4.117 -1.3450  0.2265  0.7704
 2182Sol     MW11686   1.204   0.422   4.183  0.9679  0.1381  0.0868
 2183Sol     OW11687   0.619   2.292   7.017 -0.4993  0.7024 -0.1026
 2183Sol     HW11688   0.536   2.249   7.037  0.0843 -0.1286  0.5151
 2183Sol     HW11689   0.613   2.378   7.060 -1.4820  1.0933 -0.9826
 2183Sol     MW11690   0.611   2.296   7.022  0.4275 -0.0222 -0.1023
 2184Sol     OW11691   1.304   0.852   9.940 -0.1387 -0.0542  0.4849
 2184Sol     HW11692   1.282   0.938   9.976  0.7375  0.3944 -0.0490
 2184Sol     HW11693   1.335   0.802  10.016 -0.6845  0.0818  0.8032
 2184Sol     MW11694   1.305   0.855   9.950  0.0627 -0.5319  0.0035
 2185Sol     OW11695   0.791   2.984   4.298 -0.7464  0.2615  0.3278
 2185Sol     HW11696   0.872   3.029   4.320  0.0088 -0.9295  0.0420
 2185Sol     HW11697   0.725   3.020   4.357 -0.3293  2.2631 -0.3967
 2185Sol     MW11698   0.792   2.991   4.305 -0.0844  0.2734 -0.0917
 2186Sol     OW11699   1.024   0.722   5.668  0.1491 -0.2419 -0.1155
 2186Sol     HW11700   1.087   0.754   5.604 -0.1784 -1.7852 -1.2508
 2186Sol     HW11701   1.077   0.679   5.735  0.3918 -0.0594 -0.1900
 2186Sol     MW11702   1.034   0.721   5.668  0.0831  0.3632  0.3777
 2187Sol     OW11703   1.229   2.594   2.699  0.1533  0.3660  0.1104
 2187Sol     HW11704   1.264   2.505   2.706 -1.3582 -0.2055  0.6316
 2187Sol     HW11705   1.222   2.625   2.789 -0.8460  0.3992  0.0270
 2187Sol     MW11706   1.232   2.589   2.708  0.0489 -0.0924 -0.1475
 2188Sol     OW11707   2.850   2.981   3.857 -0.0032  0.3259  0.1024
 2188Sol     HW11708   2.892   2.896   3.867  1.2577  1.0774  1.1769
 2188Sol     HW11709   2.921   3.045   3.860 -0.8327  1.3891 -1.5577
 2188Sol     MW11710   2.860   2.979   3.858  0.1745  0.0228  0.2395
 2189Sol     OW11711   1.622   2.000   8.101  0.8439 -0.0090  0.6954
 2189Sol     HW11712   1.531   2.017   8.075  1.0780 -1.6235 -1.2956
 2189Sol     HW11713   1.623   1.907   8.125  2.1309 -0.2209 -0.1238
 2189Sol     MW11714   1.614   1.993   8.101  0.2066 -0.4035  0.5519
 2190Sol     OW11715   0.562   2.705   9.943  0.2875 -0.0700  0.1359
 2190Sol     HW11716   0.477   2.704   9.988  1.0238  0.3531  1.5713
 2190Sol     HW11717   0.621   2.659  10.002  1.0897 -0.2814 -0.8125
 2190Sol     MW11718   0.559   2.701   9.952  0.1442 -0.5620  0.0176
 2191Sol     OW11719   3.234   2.883   4.167  0.4110  0.6787  0.1832
 2191Sol     HW11720   3.140   2.872   4.152  0.2244  0.9566  1.0866
 2191Sol     HW11721   3.269   2.906   4.081 -0.1281 -0.7862 -0.4389
 2191Sol     MW11722   3.228   2.884   4.158  0.3115 -0.4922 -0.0388
 2192Sol     OW11723   0.341   2.049   1.799 -0.4423  0.3604  0.0219
 2192Sol     HW11724   0.249   2.035   1.779 -0.6531  1.1795  0.4069
 2192Sol     HW11725   0.357   1.998   1.878  0.3289 -2.6773 -2.0080
 2192Sol     MW11726   0.334   2.043   1.804  0.1785  0.2031 -0.0943
 2193Sol     OW11727   3.166   0.208   2.270 -0.7874  0.0789  0.9427
 2193Sol     HW11728   3.233   0.183   2.206  0.4276 -0.2102  2.2935
 2193Sol     HW11729   3.105   0.263   2.221  2.1447  3.0066  0.3800
 2193Sol     MW11730   3.166   0.211   2.260  0.7764  0.5564  0.3791
 2194Sol     OW11731   1.972   0.730   7.017  0.0239  0.1950  0.2804
 2194Sol     HW11732   1.996   0.657   6.960 -0.3685  0.3122 -0.0476
 2194Sol     HW11733   2.052   0.754   7.062  0.1321 -0.4952  0.4522
 2194Sol     MW11734   1.981   0.726   7.016  0.5395  0.2347  0.1392
 2195Sol     OW11735   1.565   0.667   6.577  0.0061  0.2200  0.2114
 2195Sol     HW11736   1.543   0.748   6.624  1.0033  0.3541  0.4636
 2195Sol     HW11737   1.648   0.638   6.616 -0.5047 -1.1052  0.3444
 2195Sol     MW11738   1.571   0.672   6.585 -0.4786  0.1654  0.4462
 2196Sol     OW11739   2.399   0.342   2.446 -0.0554  0.4142  0.4942
 2196Sol     HW11740   2.306   0.365   2.451  0.1024  1.2084 -0.0850
 2196Sol     HW11741   2.442   0.421   2.412  0.9827  0.4070  1.7499
 2196Sol     MW11742   2.395   0.351   2.443  0.2625 -0.1708 -0.1141
 2197Sol     OW11743   2.731   0.575   8.761  0.4972  0.0754  0.1689
 2197Sol     HW11744   2.677   0.496   8.762  0.8210 -0.2744 -3.4785
 2197Sol     HW11745   2.691   0.633   8.826 -1.1886 -2.1198  1.1499
 2197Sol     MW11746   2.723   0.573   8.767  0.1004 -0.3240 -0.5448
 2198Sol     OW11747   0.973   2.787   3.868 -0.5566 -0.0501  0.0089
 2198Sol     HW11748   0.889   2.815   3.831 -1.3176  0.2803  1.9669
 2198Sol     HW11749   0.959   2.696   3.892  0.6890 -1.0005 -2.6683
 2198Sol     MW11750   0.964   2.781   3.867  0.8686 -0.0830  0.6193
 2199Sol     OW11751   2.316   1.741   4.023  0.9587  0.4376 -0.2733
 2199Sol     HW11752   2.355   1.736   4.110  0.9418  0.6420 -0.2530
 2199Sol     HW11753   2.365   1.678   3.971  0.4770 -0.2203  0.0696
 2199Sol     MW11754   2.324   1.735   4.026  0.1582 -0.4284  0.1102
 2200Sol     OW11755   2.242   1.678   3.432 -0.5823 -0.4600  0.6159
 2200Sol     HW11756   2.268   1.771   3.433 -0.9517 -0.3589  1.1391
 2200Sol     HW11757   2.213   1.662   3.342 -0.5801 -0.0515  0.5417
 2200Sol     MW11758   2.242   1.685   3.424  0.5142  0.1880  0.3653
 2201Sol     OW11759   2.413   2.875   3.414 -0.1696  0.2878 -0.3915
 2201Sol     HW11760   2.350   2.936   3.453 -1.5522 -0.4645 -1.4330
 2201Sol     HW11761   2.360   2.803   3.381  1.4856 -1.7139  1.1700
 2201Sol     MW11762   2.402   2.874   3.415 -0.0380 -0.8007  0.1701
 2202Sol     OW11763   3.085   0.787   6.630 -0.5894 -0.0151  0.0259
 2202Sol     HW11764   3.118   0.714   6.578  0.3289  0.3981  0.0332
 2202Sol     HW11765   3.107   0.865   6.579 -2.5887  0.2068 -0.5463
 2202Sol     MW11766   3.090   0.787   6.621 -0.4950 -0.6278  0.1528
 2203Sol     OW11767   1.892   2.964  10.008 -0.2228  0.0090  0.2089
 2203Sol     HW11768   1.815   2.920  10.042 -1.0131 -1.4319 -3.2721
 2203Sol     HW11769   1.885   3.054  10.041 -4.1301  0.2780 -1.1496
 2203Sol     MW11770   1.885   2.968  10.014  0.3850  0.1593  0.0579
 2204Sol     OW11771   2.276   3.352   8.752  0.1525 -0.5389  0.2663
 2204Sol     HW11772   2.370   3.358   8.769  0.1321 -0.1061  0.2403
 2204Sol     HW11773   2.245   3.287   8.814  0.2088  0.4574  1.3630
 2204Sol     MW11774   2.282   3.347   8.759 -0.2664 -0.4254 -0.0786
 2205Sol     OW11775   2.094   2.071   1.902 -0.0302 -0.0319  0.1889
 2205Sol     HW11776   2.086   2.091   1.809  0.9372 -0.4341  0.0173
 2205Sol     HW11777   2.162   2.130   1.934  0.8724 -1.1061  0.2682
 2205Sol     MW11778   2.099   2.078   1.897  0.2473  0.3765 -0.0952
 2206Sol     OW11779   1.341   3.009   5.481  0.1861 -0.6662  0.6315
 2206Sol     HW11780   1.402   2.966   5.541  0.6781 -1.0909 -0.1732
 2206Sol     HW11781   1.350   3.103   5.501  0.2818 -0.8078  1.2754
 2206Sol     MW11782   1.347   3.014   5.488 -0.3688  0.1630  0.3730
 2207Sol     OW11783   1.981   3.261   4.998 -0.4624  0.4592 -0.1214
 2207Sol     HW11784   1.986   3.351   5.032 -0.2137 -0.2256  1.7381
 2207Sol     HW11785   1.890   3.236   5.009 -0.3799  0.2313  0.0517
 2207Sol     MW11786   1.974   3.267   5.002 -0.1702 -0.3427  0.0928
 2208Sol     OW11787   0.832   3.251   3.391  0.3216 -0.1405  0.0880
 2208Sol     HW11788   0.883   3.320   3.349  0.9668  0.1657  1.3428
 2208Sol     HW11789   0.847   3.173   3.338  1.7923  0.0355  0.2327
 2208Sol     MW11790   0.838   3.250   3.383  0.4079 -0.0715 -1.0241
 2209Sol     OW11791   1.989   0.080   5.161  0.2927  0.5118 -0.0507
 2209Sol     HW11792   1.980   0.175   5.158 -2.1138  0.3624  1.1504
 2209Sol     HW11793   2.061   0.065   5.223  0.2096  1.5164  0.2942
 2209Sol     MW11794   1.995   0.087   5.166 -0.2309 -0.6471 -0.0665
 2210Sol     OW11795   1.226   1.921   3.169  0.2228  0.3654  0.2303
 2210Sol     HW11796   1.196   1.851   3.228  1.1796 -0.0972  0.1844
 2210Sol     HW11797   1.165   1.992   3.183  0.0462  0.0134  1.3059
 2210Sol     MW11798   1.218   1.921   3.175 -0.1876 -0.1824 -0.1136
 2211Sol     OW11799   0.493   1.213   2.222  0.1273 -0.3974 -0.0656
 2211Sol     HW11800   0.484   1.308   2.208 -0.2569 -0.3117  0.7162
 2211Sol     HW11801   0.463   1.200   2.312 -0.8145 -1.4055 -0.5186
 2211Sol     MW11802   0.489   1.221   2.229 -0.4540 -0.5298  0.2114
 2212Sol     OW11803   0.190   2.166   2.576 -0.5502  0.6742 -0.4142
 2212Sol     HW11804   0.245   2.232   2.533  2.4011 -1.6988 -0.4996
 2212Sol     HW11805   0.215   2.172   2.669  0.2273 -0.7275 -0.5226
 2212Sol     MW11806   0.197   2.172   2.581  0.4025  0.0393  0.0468
 2213Sol     OW11807   0.606   1.601   5.344  0.1532 -0.6330  0.4526
 2213Sol     HW11808   0.658   1.677   5.317  0.0847 -0.4171  0.9275
 2213Sol     HW11809   0.671   1.535   5.369  0.3560 -2.3199 -4.0974
 2213Sol     MW11810   0.616   1.602   5.344  0.1254  0.3865 -0.1112
 2214Sol     OW11811   2.051   2.516   7.418 -0.1638 -0.1891  0.2613
 2214Sol     HW11812   2.085   2.462   7.346  1.2171 -0.1405  0.8688
 2214Sol     HW11813   2.046   2.456   7.492  0.2111  0.2175  0.6191
 2214Sol     MW11814   2.054   2.506   7.418  0.4512  0.2310  0.4608
 2215Sol     OW11815   2.466   3.407   3.425 -0.4740 -0.1171  0.6743
 2215Sol     HW11816   2.422   3.346   3.484 -1.5943 -0.1396 -0.1608
 2215Sol     HW11817   2.531   3.354   3.379  0.7555  0.0087  2.2383
 2215Sol     MW11818   2.468   3.397   3.426  0.0100  0.0454 -0.1980
 2216Sol     OW11819   2.858   0.567   5.905 -0.0090  0.5390  0.1635
 2216Sol     HW11820   2.887   0.501   5.967  0.5195 -0.5704 -1.2465
 2216Sol     HW11821   2.839   0.519   5.824 -0.0375  2.0404 -0.7513
 2216Sol     MW11822   2.859   0.557   5.903  0.1923 -0.3857  0.1618
 2217Sol     OW11823   0.855   3.166   6.887 -0.4761  0.1537  0.0918
 2217Sol     HW11824   0.790   3.211   6.833  0.1688  1.4810  0.4180
 2217Sol     HW11825   0.937   3.212   6.871 -0.0866 -0.0125  1.4955
 2217Sol     MW11826   0.857   3.174   6.881 -0.0202  0.5128  0.2532
 2218Sol     OW11827   1.860   0.460   2.487  0.4868  0.5962 -0.2993
 2218Sol     HW11828   1.864   0.413   2.403  0.2780  1.5707 -0.8652
 2218Sol     HW11829   1.839   0.392   2.551 -1.7433  0.2104 -1.3861
 2218Sol     MW11830   1.858   0.450   2.485  0.0230 -0.2881  0.3427
 2219Sol     OW11831   2.937   0.075   5.248 -0.8683 -0.4379  0.0852
 2219Sol     HW11832   2.843   0.077   5.232 -1.0221  1.0823  1.1639
 2219Sol     HW11833   2.947   0.026   5.329 -0.7385 -0.4083  0.0868
 2219Sol     MW11834   2.930   0.070   5.253  0.0949 -0.4867  0.1083
 2220Sol     OW11835   2.383   1.818   7.375 -0.1506  0.0222  0.2765
 2220Sol     HW11836   2.470   1.857   7.371 -0.1990  0.1362  0.3230
 2220Sol     HW11837   2.383   1.752   7.306 -0.6692  1.3128 -0.9718
 2220Sol     MW11838   2.391   1.815   7.369  0.3195  0.4199  0.5493
 2221Sol     OW11839   1.289   2.267   7.633  0.1167 -0.4008 -0.3816
 2221Sol     HW11840   1.310   2.355   7.602  0.7828 -0.6631 -0.6982
 2221Sol     HW11841   1.369   2.238   7.677  0.1874 -1.1569 -0.9977
 2221Sol     MW11842   1.298   2.272   7.634  0.5085  0.2558  0.0099
 2222Sol     OW11843   2.197   0.286   8.205  0.1343  0.2497  0.0494
 2222Sol     HW11844   2.155   0.280   8.291  0.2746  0.0867  0.1075
 2222Sol     HW11845   2.187   0.199   8.168  0.2264  0.2728 -0.0291
 2222Sol     MW11846   2.192   0.278   8.209  0.2812  0.4340 -0.0689
 2223Sol     OW11847   1.933   0.321   7.993  0.4492 -0.2521 -0.1699
 2223Sol     HW11848   2.019   0.351   7.963 -0.0611  1.2097 -0.2096
 2223Sol     HW11849   1.937   0.225   7.985  1.4428 -0.0901 -1.8622
 2223Sol     MW11850   1.941   0.315   7.990 -0.2269  0.2281 -0.4838
 2224Sol     OW11851   1.559   2.270   4.936  0.2702 -0.4246  0.7207
 2224Sol     HW11852   1.486   2.244   4.881  1.4380 -2.6151  0.1544
 2224Sol     HW11853   1.599   2.344   4.890 -1.4478  0.6597  0.9422
 2224Sol     MW11854   1.556   2.274   4.927  0.0413 -0.4462 -0.1464
 2225Sol     OW11855   1.387   2.257   5.766  0.2806 -0.4615 -0.0286
 2225Sol     HW11856   1.409   2.302   5.848 -0.2203 -1.2068  0.5193
 2225Sol     HW11857   1.314   2.307   5.730  0.6647  0.0165 -0.1525
 2225Sol     MW11858   1.382   2.265   5.770 -0.3825 -0.2254 -0.3491
 2226Sol     OW11859   0.133   2.401   5.284 -0.2591 -0.2557  0.3785
 2226Sol     HW11860   0.211   2.401   5.339 -0.2804 -0.5471  0.4104
 2226Sol     HW11861   0.134   2.486   5.240  0.9288 -0.9102 -0.8538
 2226Sol     MW11862   0.140   2.408   5.285  0.4706  0.0939  0.0560
 2227Sol     OW11863   1.690   1.147   3.333  0.0914 -0.2686 -0.5813
 2227Sol     HW11864   1.617   1.164   3.274 -0.1402 -0.3738 -0.3279
 2227Sol     HW11865   1.661   1.180   3.418  0.5138  0.0949 -0.5780
 2227Sol     MW11866   1.681   1.151   3.336  0.7161 -0.0690 -0.6269
 2228Sol     OW11867   0.002   1.083   7.996 -0.0567 -0.0288 -0.0254
 2228Sol     HW11868   0.078   1.048   7.949  0.8652  0.7916  0.8405
 2228Sol     HW11869  -0.038   1.006   8.036  0.5917 -0.4120 -0.0984
 2228Sol     MW11870   0.006   1.073   7.995 -0.1642  0.1014 -0.7224
 2229Sol     OW11871   2.562   1.010   3.449 -0.0128 -0.3062  0.0178
 2229Sol     HW11872   2.533   0.950   3.380 -1.6747  0.0097  0.4283
 2229Sol     HW11873   2.532   0.969   3.530  1.7481 -0.5691  0.5754
 2229Sol     MW11874   2.557   1.001   3.450  0.0002 -0.4358 -0.0378
 2230Sol     OW11875   0.515   3.025   4.859  0.7598  0.2401  0.0337
 2230Sol     HW11876   0.500   3.064   4.773  1.0544 -0.5632 -0.3862
 2230Sol     HW11877   0.441   2.966   4.872  0.5061  0.6534  0.5113
 2230Sol     MW11878   0.507   3.023   4.853  0.3251  0.2916  0.0086
 2231Sol     OW11879   1.827   0.034   7.755 -0.0943  0.1235  0.4050
 2231Sol     HW11880   1.884   0.063   7.685  3.4756 -0.0633  3.0633
 2231Sol     HW11881   1.815  -0.060   7.739  1.1386 -0.0265  0.3136
 2231Sol     MW11882   1.831   0.028   7.748  0.1725  0.0663 -0.0034
 2232Sol     OW11883   0.745   1.566   4.373  0.0132 -0.1602  0.0016
 2232Sol     HW11884   0.724   1.659   4.386 -0.0217 -0.3885  1.6593
 2232Sol     HW11885   0.827   1.567   4.324  0.8195  0.7702  1.3197
 2232Sol     MW11886   0.750   1.575   4.370  0.5640  0.1780  0.4375
 2233Sol     OW11887   1.520   0.873   3.088 -0.7857 -0.4028  0.3799
 2233Sol     HW11888   1.584   0.942   3.069  0.3607 -2.2770 -2.9740
 2233Sol     HW11889   1.435   0.914   3.070 -0.2718  0.8095  0.6519
 2233Sol     MW11890   1.518   0.883   3.084 -0.1227  0.0551  0.3906
 2234Sol     OW11891   0.438   2.986   8.828  0.1065 -0.1434 -0.0888
 2234Sol     HW11892   0.356   2.937   8.828 -0.2070  0.3852 -0.9916
 2234Sol     HW11893   0.504   2.922   8.802 -0.1345 -0.3703 -0.1412
 2234Sol     MW11894   0.437   2.976   8.826 -0.6864 -0.0729 -0.2558
 2235Sol     OW11895   0.425   1.988   9.363  0.1196 -0.2796 -0.2376
 2235Sol     HW11896   0.414   2.074   9.403  1.2081  0.2607 -1.0809
 2235Sol     HW11897   0.343   1.974   9.314  0.4678  0.8801 -1.2010
 2235Sol     MW11898   0.417   1.994   9.362  0.1389 -0.5810 -0.0334
 2236Sol     OW11899   0.149   2.269   3.025 -0.1733  0.0563  0.1552
 2236Sol     HW11900   0.077   2.320   2.989 -1.4591 -0.4670  1.8955
 2236Sol     HW11901   0.190   2.328   3.089 -1.4399 -0.9116  1.9105
 2236Sol     MW11902   0.146   2.279   3.028  0.0517 -0.3477 -0.3665
 2237Sol     OW11903   2.342   2.639   4.288  1.1757 -0.4717  0.8046
 2237Sol     HW11904   2.432   2.659   4.260  0.8510 -1.5633 -1.0824
 2237Sol     HW11905   2.291   2.639   4.207  0.0454 -2.9006  1.4770
 2237Sol     MW11906   2.346   2.641   4.278 -0.4749  0.2142  0.6109
 2238Sol     OW11907   2.487   2.157   6.288 -0.9004 -0.3190 -0.1326
 2238Sol     HW11908   2.466   2.064   6.296  1.8795 -1.2319 -2.7066
 2238Sol     HW11909   2.550   2.174   6.358  0.6664 -1.0550 -1.3472
 2238Sol     MW11910   2.490   2.150   6.295 -0.1160 -0.6068 -0.0225
 2239Sol     OW11911   3.121   1.789   4.028 -0.2063  0.6489 -0.0662
 2239Sol     HW11912   3.032   1.767   4.000 -0.2029  1.1577 -0.4955
 2239Sol     HW11913   3.147   1.717   4.085 -1.0285  0.6770  0.3481
 2239Sol     MW11914   3.115   1.781   4.030  0.0487 -0.3696 -0.1492
 2240Sol     OW11915   2.336   3.207   3.575 -0.3622  0.0241 -0.1512
 2240Sol     HW11916   2.306   3.233   3.662 -0.1094 -1.5956  0.4439
 2240Sol     HW11917   2.259   3.170   3.532 -0.5921  1.2099 -0.7986
 2240Sol     MW11918   2.327   3.206   3.579  0.0026  0.1891 -0.6055
 2241Sol     OW11919   0.337   2.806   7.850 -0.1387  0.1902 -1.1131
 2241Sol     HW11920   0.253   2.843   7.826  0.3473  1.0042 -1.5836
 2241Sol     HW11921   0.365   2.856   7.926 -1.7305 -2.4611  1.2896
 2241Sol     MW11922   0.332   2.814   7.854  0.2287  0.0866  0.4219
 2242Sol     OW11923   0.788   0.278   9.667 -0.2225  0.1613 -0.0716
 2242Sol     HW11924   0.784   0.303   9.575 -0.0489  1.1808  0.1934
 2242Sol     HW11925   0.842   0.346   9.708 -0.7523  0.0130  0.8821
 2242Sol     MW11926   0.792   0.286   9.663 -0.2347 -0.5456 -0.3954
 2243Sol     OW11927   2.534   3.176   6.829  0.0805 -0.0914 -0.4812
 2243Sol     HW11928   2.539   3.192   6.735 -0.7018  1.4302 -0.2864
 2243Sol     HW11929   2.443   3.197   6.852  0.1754 -0.7564  0.5633
 2243Sol     MW11930   2.526   3.180   6.823 -0.5046 -0.7381 -0.6170
 2244Sol     OW11931   1.540   1.977   2.168  0.3474 -0.3596 -0.1556
 2244Sol     HW11932   1.450   1.989   2.137  0.1691  0.6459  0.7198
 2244Sol     HW11933   1.548   1.883   2.182  0.4006 -0.8420 -3.1103
 2244Sol     MW11934   1.533   1.970   2.166 -0.3081  0.2536  0.5634
 2245Sol     OW11935   0.159   0.933   6.503 -0.4840 -0.1449  0.5459
 2245Sol     HW11936   0.210   0.879   6.443 -1.8952 -0.4701 -0.3883
 2245Sol     HW11937   0.220   0.955   6.573  1.0501 -0.1933 -0.7327
 2245Sol     MW11938   0.169   0.931   6.504 -0.6935 -0.3139 -0.0237
 2246Sol     OW11939   2.452   0.372   5.694 -0.1304  0.1945  0.1948
 2246Sol     HW11940   2.528   0.356   5.637  0.3286  1.7764  0.3182
 2246Sol     HW11941   2.377   0.340   5.644  0.4509  0.0622 -0.6103
 2246Sol     MW11942   2.452   0.368   5.684  0.3793 -0.2596 -0.0222
 2247Sol     OW11943   2.437   0.223   1.740  0.3560  0.2212  0.4473
 2247Sol     HW11944   2.465   0.144   1.786  1.1633 -0.1333 -0.6285
 2247Sol     HW11945   2.518   0.272   1.725 -0.1595  1.3328  1.2603
 2247Sol     MW11946   2.447   0.220   1.742  0.0514  0.1546 -0.1746
 2248Sol     OW11947   0.009   0.745   8.212 -0.4004  0.1900  0.1351
 2248Sol     HW11948   0.086   0.688   8.203 -1.1917 -1.1285  1.4885
 2248Sol     HW11949   0.044   0.827   8.247  0.3683 -0.5161  1.0540
 2248Sol     MW11950   0.019   0.747   8.214  0.6583  0.1519 -0.0278
 2249Sol     OW11951   0.071   1.920   5.595  0.1623 -0.3664  0.1029
 2249Sol     HW11952   0.028   2.006   5.593 -0.5020 -0.7312 -1.7379
 2249Sol     HW11953   0.003   1.858   5.569  1.2318 -1.1998 -0.7611
 2249Sol     MW11954   0.061   1.922   5.593 -0.5222  0.0415 -0.5265
 2250Sol     OW11955   1.837   1.595   3.375  0.4075  0.2979 -0.6407
 2250Sol     HW11956   1.866   1.517   3.329 -0.2723 -0.7515  0.6869
 2250Sol     HW11957   1.790   1.646   3.309 -0.0472 -0.9143 -1.2614
 2250Sol     MW11958   1.835   1.593   3.365  0.3307  0.1268  0.1169
 2251Sol     OW11959   1.896   1.150   9.017  0.3438 -0.6325  0.0581
 2251Sol     HW11960   1.945   1.071   9.042 -1.8729 -1.8682  0.6155
 2251Sol     HW11961   1.805   1.129   9.036 -0.7201  0.7449 -3.0995
 2251Sol     MW11962   1.892   1.141   9.021  0.1693  0.0512  1.0511
 2252Sol     OW11963   1.850   2.227   8.362 -0.2926  0.3037 -1.1408
 2252Sol     HW11964   1.895   2.188   8.437 -1.6151 -3.4675 -2.1723
 2252Sol     HW11965   1.767   2.180   8.357 -1.3917  2.3842 -3.3681
 2252Sol     MW11966   1.847   2.219   8.368  0.0126 -0.4497  0.1022
 2253Sol     OW11967   2.480   1.879   2.109  0.1618  0.0978  0.4831
 2253Sol     HW11968   2.457   1.967   2.080 -1.7062 -0.1259  1.1964
 2253Sol     HW11969   2.574   1.872   2.094  0.3302  2.2200  0.4721
 2253Sol     MW11970   2.486   1.886   2.105  0.5412  0.0977 -0.6912
 2254Sol     OW11971   0.563   1.888   6.081  0.2380  0.3502 -0.0303
 2254Sol     HW11972   0.632   1.935   6.129 -0.2618 -0.2353  1.3057
 2254Sol     HW11973   0.574   1.797   6.108  0.8930 -0.2638 -2.2333
 2254Sol     MW11974   0.571   1.884   6.088 -0.3851 -0.7287  0.4447
 2255Sol     OW11975   1.912   2.233   2.211  0.5110 -0.5417  0.0430
 2255Sol     HW11976   1.868   2.148   2.211 -2.9661  1.1411  0.1979
 2255Sol     HW11977   1.896   2.268   2.123  1.7727  0.0257  0.0310
 2255Sol     MW11978   1.907   2.229   2.203  0.1693 -0.0385 -0.0542
 2256Sol     OW11979   2.102   2.310   8.008 -0.1214 -0.2883  0.4501
 2256Sol     HW11980   2.075   2.218   8.008  1.1494 -0.6860 -0.6937
 2256Sol     HW11981   2.157   2.318   8.086 -0.9117 -0.2846  1.0099
 2256Sol     MW11982   2.105   2.302   8.015 -0.3078  0.1298 -0.6990
 2257Sol     OW11983   2.937   3.032   6.116 -0.5237  0.6161  0.2892
 2257Sol     HW11984   3.016   3.051   6.167 -0.1837  0.1112 -0.0554
 2257Sol     HW11985   2.895   2.960   6.164 -0.7401  0.8361  0.4312
 2257Sol     MW11986   2.940   3.027   6.125 -0.3128 -0.1237  0.6078
 2258Sol     OW11987   0.188   0.555   9.238  0.0060  0.1225  0.4258
 2258Sol     HW11988   0.170   0.526   9.148 -1.9326  1.2582  0.4190
 2258Sol     HW11989   0.231   0.640   9.227 -0.4435  0.3702  0.5649
 2258Sol     MW11990   0.190   0.560   9.229  0.1902 -0.6607  0.4479
 2259Sol     OW11991   0.269   1.077   9.690  0.0138 -0.0169  0.4270
 2259Sol     HW11992   0.339   1.022   9.656 -0.1086  0.3918 -0.5059
 2259Sol     HW11993   0.189   1.029   9.669  0.0432 -1.1526  2.7051
 2259Sol     MW11994   0.268   1.068   9.685  0.5561  0.4553 -0.5162
 2260Sol     OW11995   0.817   2.823   3.199  0.1481  0.2346  0.5028
 2260Sol     HW11996   0.824   2.917   3.219  0.5071  0.8721 -2.4238
 2260Sol     HW11997   0.889   2.783   3.248 -0.2813  1.4180  2.1339
 2260Sol     MW11998   0.824   2.828   3.205 -0.2131  0.2461  0.0338
 2261Sol     OW11999   1.177   2.965   4.483  0.3124  0.5181 -0.2664
 2261Sol     HW12000   1.111   2.959   4.552  1.3195 -0.7954  0.5798
 2261Sol     HW12001   1.137   3.023   4.418 -1.0196  1.0258  0.9773
 2261Sol     MW12002   1.167   2.970   4.483  0.2897  0.3734 -0.8107
 2262Sol     OW12003   1.037   0.098   4.672 -0.1259  0.0497 -0.1025
 2262Sol     HW12004   1.115   0.098   4.616 -1.2157  1.6940 -1.6457
 2262Sol     HW12005   1.071   0.074   4.759  2.0880  0.5939 -0.7769
 2262Sol     MW12006   1.047   0.096   4.675  0.5172  0.2354 -0.2335
 2263Sol     OW12007   2.146   2.143   7.396 -0.3919  0.0015  0.2221
 2263Sol     HW12008   2.220   2.163   7.453 -1.0109 -1.6535  1.6304
 2263Sol     HW12009   2.113   2.228   7.370  1.6835  0.7715 -0.0122
 2263Sol     MW12010   2.150   2.152   7.399 -0.4818 -0.8975 -0.0346
 2264Sol     OW12011   1.480   2.541   6.483 -0.3674 -0.3350  0.5127
 2264Sol     HW12012   1.460   2.484   6.557 -0.5094 -0.2060  0.5748
 2264Sol     HW12013   1.411   2.608   6.485 -0.8001 -0.7578 -0.1836
 2264Sol     MW12014   1.472   2.542   6.490 -0.6640  0.5939 -0.0559
 2265Sol     OW12015   0.856   1.935   9.195  0.0202  0.1813 -0.1665
 2265Sol     HW12016   0.874   2.011   9.251 -0.6861  1.2029 -1.2905
 2265Sol     HW12017   0.879   1.965   9.107 -0.7012 -0.7587 -0.6804
 2265Sol     MW12018   0.859   1.945   9.192  0.3847  0.0407  0.1329
 2266Sol     OW12019   0.091   2.818   2.370 -0.3829  0.5092  0.4197
 2266Sol     HW12020   0.131   2.883   2.427  1.5983  0.1069 -0.4769
 2266Sol     HW12021   0.012   2.861   2.336  0.1356  1.9183  0.9623
 2266Sol     MW12022   0.087   2.828   2.372  0.0920  0.2962 -0.0929
 2267Sol     OW12023   2.043   0.580   5.486  0.0156  0.1550 -0.1265
 2267Sol     HW12024   1.957   0.561   5.447 -0.1818 -0.3089  0.5301
 2267Sol     HW12025   2.091   0.624   5.416 -0.3814 -0.5529 -0.8607
 2267Sol     MW12026   2.039   0.582   5.476  0.8433 -0.2597  0.2073
 2268Sol     OW12027   1.593   0.247   7.720 -0.2797 -0.4846 -0.3507
 2268Sol     HW12028   1.629   0.160   7.731 -0.9644 -0.5405  1.6525
 2268Sol     HW12029   1.666   0.306   7.735 -0.7167 -0.6249  2.6552
 2268Sol     MW12030   1.603   0.245   7.722  0.3765  0.1486  0.3116
 2269Sol     OW12031   1.944   1.080   3.008 -0.3142 -0.5348 -0.3821
 2269Sol     HW12032   1.967   1.113   2.921  0.2632 -0.3269 -0.1477
 2269Sol     HW12033   1.849   1.095   3.014  0.2017  2.6888  0.4016
 2269Sol     MW12034   1.937   1.085   3.000 -0.2264  0.9629 -0.4210
 2270Sol     OW12035   0.731   2.680   7.390  0.0810  0.1208  0.3457
 2270Sol     HW12036   0.821   2.652   7.403 -0.4961 -1.4539  1.0422
 2270Sol     HW12037   0.679   2.620   7.444 -1.5936 -0.5534 -1.9420
 2270Sol     MW12038   0.734   2.672   7.396 -0.2071 -0.7406  0.4008
 2271Sol     OW12039   2.949   2.882   5.549  0.0453 -0.8450  0.5570
 2271Sol     HW12040   2.992   2.924   5.474  0.5631 -1.0727  0.7269
 2271Sol     HW12041   3.021   2.844   5.599 -0.4086 -1.7831  0.4945
 2271Sol     MW12042   2.959   2.882   5.547 -0.0428 -0.1811 -0.2954
 2272Sol     OW12043   1.821   2.072   3.386 -0.0927 -0.4843  0.1232
 2272Sol     HW12044   1.813   2.107   3.474 -2.9470 -0.8800  0.0497
 2272Sol     HW12045   1.893   2.009   3.391  1.9622  1.8773  1.3640
 2272Sol     MW12046   1.827   2.070   3.394 -0.1866  0.2399  0.0470
 2273Sol     OW12047   2.952   2.702   2.667  0.6174  0.5815 -0.2982
 2273Sol     HW12048   2.888   2.637   2.636 -1.1981  2.1987 -0.0101
 2273Sol     HW12049   2.922   2.727   2.754  1.8695  1.0833  0.0074
 2273Sol     MW12050   2.944   2.698   2.672 -0.3153 -0.0106 -0.5531
 2274Sol     OW12051   2.113   2.285   5.380 -1.0688 -0.2727 -0.0772
 2274Sol     HW12052   2.033   2.308   5.428 -1.4538  0.6879 -1.1558
 2274Sol     HW12053   2.101   2.323   5.293  0.4219 -0.3902 -0.3555
 2274Sol     MW12054   2.105   2.291   5.377 -0.3078  0.2169 -0.5165
 2275Sol     OW12055   1.207   0.893   8.275  0.7073 -0.1409 -0.4796
 2275Sol     HW12056   1.185   0.892   8.182  0.4581  0.2168 -0.4253
 2275Sol     HW12057   1.170   0.812   8.310 -1.0302  0.7284 -0.2722
 2275Sol     MW12058   1.202   0.886   8.270  0.1470  0.0749 -0.0125
 2276Sol     OW12059   3.046   1.729   9.778 -0.3278 -0.1530  0.5698
 2276Sol     HW12060   2.972   1.751   9.835 -1.2889  0.1678 -0.7868
 2276Sol     HW12061   3.077   1.644   9.810 -0.7115  0.1312  1.7079
 2276Sol     MW12062   3.042   1.723   9.786 -0.0865  0.1982 -0.1938
 2277Sol     OW12063   2.594   0.535   2.393  0.6702 -1.0687 -0.1361
 2277Sol     HW12064   2.666   0.574   2.344  1.4264 -0.8091  1.1589
 2277Sol     HW12065   2.634   0.506   2.475 -1.1282  1.1380  1.5805
 2277Sol     MW12066   2.604   0.536   2.396 -0.3384  0.1218  0.2806
 2278Sol     OW12067   0.848   2.616   6.088 -0.0411 -0.4315 -0.2514
 2278Sol     HW12068   0.874   2.528   6.060 -2.4249 -1.1481 -0.3429
 2278Sol     HW12069   0.772   2.636   6.034 -0.5597  0.9834  0.9893
 2278Sol     MW12070   0.844   2.610   6.081  0.1613  0.6736  0.1424
 2279Sol     OW12071   1.901   2.956   4.393  0.3119  0.5320 -0.2926
 2279Sol     HW12072   1.812   2.948   4.357  0.1285  0.5986  0.1402
 2279Sol     HW12073   1.938   2.869   4.384 -0.1898  0.2350  0.5457
 2279Sol     MW12074   1.896   2.948   4.389  0.6396  0.7222 -0.1759
 2280Sol     OW12075   1.173   1.927   3.828 -0.4542 -0.5265  1.0531
 2280Sol     HW12076   1.090   1.960   3.793  0.0480 -2.5038 -2.1657
 2280Sol     HW12077   1.234   2.000   3.819 -0.9614 -0.2207  0.0377
 2280Sol     MW12078   1.171   1.937   3.824  0.0528 -0.1101  0.3189
 2281Sol     OW12079   1.398   0.525   3.006 -0.3048  0.4899 -0.4507
 2281Sol     HW12080   1.404   0.470   2.928 -0.7553 -0.8582  0.4457
 2281Sol     HW12081   1.466   0.591   2.995  0.2698 -0.2757 -1.5204
 2281Sol     MW12082   1.405   0.526   2.998 -0.2055 -0.3039 -0.2681
 2282Sol     OW12083   0.004   1.272   2.068  0.3746 -0.0844  0.1866
 2282Sol     HW12084   0.058   1.343   2.103  0.8373 -0.5440  0.4241
 2282Sol     HW12085  -0.023   1.302   1.982  1.4337 -0.0467 -0.1402
 2282Sol     MW12086   0.007   1.281   2.063  0.3884  0.0033  0.0710
 2283Sol     OW12087   2.135   2.401   8.576 -0.6376  0.1069 -0.5795
 2283Sol     HW12088   2.223   2.411   8.613 -1.2656  1.1277  0.6639
 2283Sol     HW12089   2.146   2.423   8.484  0.2972  0.8108 -0.3102
 2283Sol     MW12090   2.144   2.404   8.571  0.7791  0.5183 -0.3681
 2284Sol     OW12091   0.803   1.775   7.576 -0.1205 -0.2141  0.4346
 2284Sol     HW12092   0.818   1.864   7.608 -1.1831 -0.3561  1.3282
 2284Sol     HW12093   0.843   1.719   7.641 -2.7619 -0.5254  1.8633
 2284Sol     MW12094   0.808   1.778   7.584  0.0534 -0.1519  0.2971
 2285Sol     OW12095   1.832   0.078   6.622  0.4206 -0.3993  0.0346
 2285Sol     HW12096   1.776   0.002   6.636 -0.1154  0.0821  0.5140
 2285Sol     HW12097   1.863   0.068   6.532 -3.1705  1.0626 -1.4782
 2285Sol     MW12098   1.829   0.070   6.615 -0.6176 -0.3045 -0.4790
 2286Sol     OW12099   2.419   1.966   8.091 -0.2099 -0.0312 -0.2522
 2286Sol     HW12100   2.362   1.922   8.028 -0.1339 -0.7898  0.2038
 2286Sol     HW12101   2.361   1.987   8.164  0.0933 -0.8335  0.2266
 2286Sol     MW12102   2.409   1.964   8.092  0.0381  0.3350  0.4772
 2287Sol     OW12103   1.674   1.041   1.490  0.4039  0.1034  0.5047
 2287Sol     HW12104   1.746   1.094   1.526 -0.0402  1.1755 -0.1405
 2287Sol     HW12105   1.596   1.096   1.501 -0.4225 -1.3137  1.7692
 2287Sol     MW12106   1.674   1.051   1.494  0.0583  0.0382  0.3129
 2288Sol     OW12107   0.653   1.019   5.028 -0.5447 -0.0018  0.6749
 2288Sol     HW12108   0.588   0.950   5.044 -1.0689  0.5030  0.7624
 2288Sol     HW12109   0.732   0.989   5.072  0.0719 -1.8597 -1.5745
 2288Sol     MW12110   0.654   1.010   5.033  0.0640  0.2621  0.1311
 2289Sol     OW12111   1.399   1.981   2.430 -0.9081 -0.3678 -0.0548
 2289Sol     HW12112   1.438   1.960   2.345  1.2572  2.4684  0.1842
 2289Sol     HW12113   1.335   2.049   2.411 -0.6156  0.0744  0.5220
 2289Sol     MW12114   1.397   1.985   2.420  0.0361 -1.0353  0.0611
 2290Sol     OW12115   2.347   1.595   9.322  0.5083 -0.4501 -0.2095
 2290Sol     HW12116   2.427   1.584   9.270 -0.0666 -0.4102 -1.1134
 2290Sol     HW12117   2.281   1.621   9.258 -0.1872 -0.3100  0.5657
 2290Sol     MW12118   2.349   1.597   9.311  0.2049 -0.7281 -0.6756
 2291Sol     OW12119   2.435   1.063   8.926  0.0623  0.1796 -0.4702
 2291Sol     HW12120   2.530   1.072   8.933  0.0991 -0.1676 -0.5270
 2291Sol     HW12121   2.420   1.043   8.834 -0.0523  0.0569 -0.4241
 2291Sol     MW12122   2.442   1.062   8.918  0.7591 -0.3514 -0.4518
 2292Sol     OW12123   0.159   0.207   9.644  0.4554  0.3977  0.1700
 2292Sol     HW12124   0.190   0.289   9.605 -0.6118  1.1801  0.9126
 2292Sol     HW12125   0.081   0.233   9.694  0.8663 -0.8522  1.4894
 2292Sol     MW12126   0.155   0.217   9.645 -0.5409 -0.7925 -0.1109
 2293Sol     OW12127   2.270   0.706   2.738  0.0315 -0.6355  0.4149
 2293Sol     HW12128   2.331   0.707   2.812 -0.6902 -0.4350  1.0069
 2293Sol     HW12129   2.313   0.758   2.670  0.6542 -0.7518  0.7200
 2293Sol     MW12130   2.279   0.710   2.738  0.2287 -0.6254  0.0549
 2294Sol     OW12131   3.041   1.582   6.357 -0.0509  0.1689  0.0441
 2294Sol     HW12132   3.107   1.651   6.366 -0.6243  0.7233  0.0018
 2294Sol     HW12133   3.092   1.501   6.348  0.6446  0.7489 -1.3679
 2294Sol     MW12134   3.052   1.581   6.357 -0.7520  0.5276  0.0255
 2295Sol     OW12135   0.052   0.841   3.293  0.1317  0.0669 -0.1285
 2295Sol     HW12136   0.042   0.879   3.205  2.9666 -1.7804 -1.3579
 2295Sol     HW12137  -0.023   0.783   3.303 -1.7383  2.4060 -0.1204
 2295Sol     MW12138   0.044   0.839   3.286 -0.4144 -0.4711 -0.1806
 2296Sol     OW12139   0.326   2.052   8.385 -0.1277  0.1129 -0.3597
 2296Sol     HW12140   0.398   2.104   8.420 -0.4255  0.9754 -0.9972
 2296Sol     HW12141   0.354   1.961   8.395 -0.4942  0.2891  2.7465
 2296Sol     MW12142   0.335   2.049   8.389  0.3985 -0.1706  0.2423
 2297Sol     OW12143   2.975   1.058   6.329 -1.0544  0.1688 -0.2119
 2297Sol     HW12144   2.977   0.969   6.292  0.2737  0.0461  0.1313
 2297Sol     HW12145   2.937   1.112   6.260  0.8029 -0.1704 -1.5348
 2297Sol     MW12146   2.972   1.055   6.320 -0.0833 -0.2294 -0.0586
 2298Sol     OW12147   2.600   0.959   2.121  0.1604 -0.0594  0.0447
 2298Sol     HW12148   2.634   1.049   2.115  0.2551 -0.0834  0.2276
 2298Sol     HW12149   2.599   0.928   2.030 -0.2454  0.2658 -0.0613
 2298Sol     MW12150   2.603   0.965   2.112  0.1544  0.4884  0.3563
 2299Sol     OW12151   0.711   1.617   6.711  0.5065  0.4448 -0.2888
 2299Sol     HW12152   0.623   1.631   6.675  0.6837  0.8112 -0.5753
 2299Sol     HW12153   0.725   1.692   6.769  0.8112  0.6164 -0.5879
 2299Sol     MW12154   0.704   1.625   6.713 -0.1991 -0.5213 -0.2779
 2300Sol     OW12155   3.144   2.021   5.042  1.0648 -0.1753  0.0968
 2300Sol     HW12156   3.221   2.070   5.072  1.2944 -0.4950  0.0284
 2300Sol     HW12157   3.146   2.031   4.947 -0.0022  1.3472  0.2190
 2300Sol     MW12158   3.151   2.026   5.036 -0.4210  0.1284 -0.2102
 2301Sol     OW12159   2.260   2.455   8.247 -0.3505 -0.3324  0.3037
 2301Sol     HW12160   2.213   2.538   8.259 -1.3807 -1.0824  1.5280
 2301Sol     HW12161   2.347   2.482   8.216 -0.5267  1.2286  1.1074
 2301Sol     MW12162   2.264   2.465   8.245  0.3620  0.3240  0.9249
 2302Sol     OW12163   2.973   2.161   5.365 -0.2215  0.5094  0.3881
 2302Sol     HW12164   2.948   2.114   5.285 -1.1977  1.7110 -0.0368
 2302Sol     HW12165   3.014   2.241   5.334 -3.1944  2.3552  1.0166
 2302Sol     MW12166   2.974   2.164   5.355  0.2379  0.5637  0.1133
 2303Sol     OW12167   0.894   2.512   3.863 -0.1454  0.4761 -0.4967
 2303Sol     HW12168   0.819   2.518   3.805  0.5975 -0.2929 -1.5637
 2303Sol     HW12169   0.932   2.426   3.844  1.5551  1.2459 -0.6693
 2303Sol     MW12170   0.891   2.505   3.856 -0.1884 -0.2755 -0.0655
 2304Sol     OW12171   1.918   1.347   4.734  0.5388  0.4242  0.1809
 2304Sol     HW12172   1.976   1.292   4.682 -0.9201  0.5616 -1.6405
 2304Sol     HW12173   1.905   1.297   4.815  3.4165  0.5481  0.7770
 2304Sol     MW12174   1.922   1.337   4.737  0.0279 -0.0617  0.5297
 2305Sol     OW12175   2.740   1.619   7.416 -0.1922  0.4621  0.1846
 2305Sol     HW12176   2.674   1.571   7.365  1.4843 -0.6894 -0.9321
 2305Sol     HW12177   2.706   1.709   7.419 -1.0681  0.2361 -1.7092
 2305Sol     MW12178   2.731   1.623   7.412 -0.6747  0.0244 -0.1196
 2306Sol     OW12179   2.752   2.526   2.592  0.2639 -0.5828  0.2052
 2306Sol     HW12180   2.690   2.520   2.519 -0.0391 -0.4451  0.4495
 2306Sol     HW12181   2.792   2.439   2.597  2.2230  0.1760 -1.8196
 2306Sol     MW12182   2.750   2.517   2.586  0.4400  0.2463 -0.1032
 2307Sol     OW12183   0.002   0.866   4.623 -0.2353  0.0578  0.0914
 2307Sol     HW12184  -0.015   0.944   4.570 -1.0919  0.0871  0.4033
 2307Sol     HW12185   0.090   0.880   4.658 -0.0170  0.4522 -0.6024
 2307Sol     MW12186   0.009   0.874   4.622 -0.4727  0.0247 -0.6700
 2308Sol     OW12187   2.412   2.164   2.371  0.1105  0.3902 -0.0832
 2308Sol     HW12188   2.350   2.101   2.334  0.1619 -0.1733  0.7823
 2308Sol     HW12189   2.498   2.122   2.360  0.1343  0.2505  0.5849
 2308Sol     MW12190   2.414   2.154   2.367 -0.5398  0.3586  0.2247
 2309Sol     OW12191   0.392   1.680   5.762 -0.4926  0.3607  0.2384
 2309Sol     HW12192   0.328   1.746   5.786  2.0790  2.6098  1.1422
 2309Sol     HW12193   0.406   1.629   5.842 -1.5588 -0.5004 -0.1171
 2309Sol     MW12194   0.388   1.681   5.771 -0.4837 -0.1496  0.0962
 2310Sol     OW12195   0.232   0.756   9.713 -0.0730 -0.1595 -0.3037
 2310Sol     HW12196   0.275   0.684   9.667  2.6206  2.4174 -2.0133
 2310Sol     HW12197   0.291   0.779   9.784 -1.2279 -0.0509  0.6448
 2310Sol     MW12198   0.241   0.752   9.715 -0.1977 -0.3554  0.1825
 2311Sol     OW12199   2.847   0.996   3.412 -0.2476 -0.3925 -0.5892
 2311Sol     HW12200   2.754   1.015   3.417  0.1220  1.5384 -0.7889
 2311Sol     HW12201   2.881   1.020   3.499 -0.0342 -1.6244 -0.3275
 2311Sol     MW12202   2.842   1.000   3.421 -0.1241 -0.4462 -0.3777
 2312Sol     OW12203   1.319   1.184   5.481 -0.0400 -0.5831  0.1771
 2312Sol     HW12204   1.403   1.206   5.520  0.1888  1.6406 -1.3910
 2312Sol     HW12205   1.256   1.186   5.553  0.5646  2.1876  0.6843
 2312Sol     MW12206   1.321   1.187   5.491 -0.3847  0.3234 -0.2262
 2313Sol     OW12207   1.247   0.934   5.856 -0.0493 -0.6108 -0.2605
 2313Sol     HW12208   1.341   0.922   5.842  0.4924  0.2364  2.3416
 2313Sol     HW12209   1.225   0.873   5.926 -1.0153  0.5543  0.4766
 2313Sol     MW12210   1.254   0.928   5.861  0.0898 -0.4749 -0.2348
 2314Sol     OW12211   0.509   0.769   5.117 -0.3295  0.0210  0.1045
 2314Sol     HW12212   0.414   0.780   5.112 -0.1189  1.8432 -0.4193
 2314Sol     HW12213   0.526   0.683   5.077 -1.7399 -0.2770  0.1424
 2314Sol     MW12214   0.502   0.762   5.113  0.1058 -0.0507 -0.3002
 2315Sol     OW12215   1.100   1.336   8.809 -0.3535 -0.7277  0.2452
 2315Sol     HW12216   1.032   1.334   8.741  1.7262 -0.2943 -1.9240
 2315Sol     HW12217   1.090   1.253   8.855 -1.8652 -1.0016 -0.5417
 2315Sol     MW12218   1.093   1.328   8.807 -0.2172  0.4647  0.6149
 2316Sol     OW12219   1.152   2.466   3.575  0.8236  0.4019 -0.2159
 2316Sol     HW12220   1.097   2.527   3.624 -0.3393 -1.3500  0.6868
 2316Sol     HW12221   1.239   2.507   3.575  0.2193  1.7135  0.9746
 2316Sol     MW12222   1.155   2.476   3.579  0.5819 -0.6709  0.2521
 2317Sol     OW12223   2.962   0.611   9.012 -1.0537 -0.0399 -0.6139
 2317Sol     HW12224   2.976   0.601   8.918 -2.7061 -1.2934 -0.7446
 2317Sol     HW12225   2.878   0.570   9.028 -0.2943 -0.7732  1.6061
 2317Sol     MW12226   2.956   0.607   9.005 -0.2905 -0.2266 -0.1131
 2318Sol     OW12227   0.742   1.994   3.493 -0.6799  0.1932  0.7617
 2318Sol     HW12228   0.716   1.976   3.584 -1.5964  0.9050  0.6437
 2318Sol     HW12229   0.819   1.939   3.479 -2.0324 -1.8687  1.1674
 2318Sol     MW12230   0.746   1.987   3.500  0.8250 -0.3026 -0.2594
 2319Sol     OW12231   0.850   1.389   8.413  0.1665 -0.5561 -0.3150
 2319Sol     HW12232   0.897   1.471   8.429  0.5812 -0.7215 -0.6609
 2319Sol     HW12233   0.806   1.402   8.329  0.7592 -0.9172 -0.6886
 2319Sol     MW12234   0.850   1.397   8.407  0.2540  0.2990  0.2417
 2320Sol     OW12235   2.741   3.133   5.122  0.4450  0.1961  0.2602
 2320Sol     HW12236   2.645   3.126   5.118  0.5736 -1.6605 -0.0518
 2320Sol     HW12237   2.766   3.083   5.199  1.2343 -0.2425 -0.2703
 2320Sol     MW12238   2.734   3.128   5.128 -0.0006  0.2265 -0.3437
 2321Sol     OW12239   0.719   0.876   7.518  0.2086  0.2255  0.6489
 2321Sol     HW12240   0.757   0.817   7.583 -2.5204 -0.4095  1.7042
 2321Sol     HW12241   0.699   0.820   7.443 -1.3429 -0.0015  1.2212
 2321Sol     MW12242   0.721   0.866   7.517  0.4409 -0.5813  0.1365
 2322Sol     OW12243   3.092   1.546   3.743  0.0614  0.2566  0.3996
 2322Sol     HW12244   3.160   1.591   3.793  1.2318 -0.1389 -0.8022
 2322Sol     HW12245   3.048   1.616   3.694  0.6797  0.3336 -0.0598
 2322Sol     MW12246   3.094   1.557   3.743 -0.8016 -0.2140  0.3062
 2323Sol     OW12247   3.069   2.238   6.883 -0.1402  0.6645  0.1185
 2323Sol     HW12248   3.121   2.158   6.869  0.5000  0.9140  0.9950
 2323Sol     HW12249   3.014   2.217   6.959  1.2007  1.6168  1.3634
 2323Sol     MW12250   3.069   2.229   6.889 -0.2766  0.2920  0.0379
 2324Sol     OW12251   0.844   1.663   7.300 -0.4495  0.1438 -0.3378
 2324Sol     HW12252   0.825   1.704   7.385  0.2763  2.5149 -1.2639
 2324Sol     HW12253   0.759   1.631   7.270 -0.8468 -0.0276  0.9339
 2324Sol     MW12254   0.835   1.664   7.305  0.1821  0.0651 -0.2485
 2325Sol     OW12255   2.498   2.633   8.908 -0.1047 -0.3554  0.0639
 2325Sol     HW12256   2.483   2.573   8.982  2.0295 -0.3749  0.5244
 2325Sol     HW12257   2.495   2.720   8.947  1.6034 -0.3897  0.3050
 2325Sol     MW12258   2.496   2.635   8.918 -0.2959  0.3303  0.1634
 2326Sol     OW12259   0.784   2.970   5.896  0.3837  0.3432 -0.1831
 2326Sol     HW12260   0.777   2.978   5.801 -0.8894 -0.6166 -0.1990
 2326Sol     HW12261   0.725   3.037   5.930  0.4640  0.3685 -0.0971
 2326Sol     MW12262   0.778   2.976   5.891  0.3231  0.2245 -0.7274
 2327Sol     OW12263   2.777   1.616   6.424 -0.1532  0.3145 -0.0109
 2327Sol     HW12264   2.734   1.572   6.497  2.3483 -0.8811  0.8219
 2327Sol     HW12265   2.864   1.575   6.419  0.8201  2.4465 -1.7564
 2327Sol     MW12266   2.781   1.608   6.430  0.5875  0.7463  0.2900
 2328Sol     OW12267   1.972   0.511   6.528 -0.2590 -0.4053 -0.4470
 2328Sol     HW12268   1.997   0.597   6.495 -1.0602  0.4928  1.2609
 2328Sol     HW12269   1.922   0.528   6.607  0.3563 -2.4805  0.4309
 2328Sol     MW12270   1.970   0.520   6.532  0.6375 -0.4864 -0.1362
 2329Sol     OW12271   3.225   3.402   3.483 -0.1775  0.0463 -0.0177
 2329Sol     HW12272   3.260   3.317   3.509 -1.7574 -1.6774 -3.2028
 2329Sol     HW12273   3.132   3.397   3.503  0.0077  1.7399  1.4109
 2329Sol     MW12274   3.220   3.394   3.487 -0.5594  0.2008 -0.0499
 2330Sol     OW12275   1.892   1.665   9.859 -0.3576 -0.0810 -0.5685
 2330Sol     HW12276   1.902   1.595   9.924 -3.9633  0.0140  0.2224
 2330Sol     HW12277   1.929   1.742   9.902 -0.9304 -0.4416  0.6084
 2330Sol     MW12278   1.896   1.665   9.869  0.4389  0.5166 -0.1344
 2331Sol     OW12279   2.535   0.684   3.698  0.2708 -0.3140 -0.1433
 2331Sol     HW12280   2.456   0.641   3.728  0.8227 -0.5563  0.9912
 2331Sol     HW12281   2.602   0.616   3.700  0.7135  0.1189 -0.2000
 2331Sol     MW12282   2.534   0.674   3.700  0.4719 -0.1521 -0.4105
 2332Sol     OW12283   0.424   0.688   8.939  0.1021 -0.2833  0.0497
 2332Sol     HW12284   0.373   0.730   9.009  3.5981  1.3163  1.7730
 2332Sol     HW12285   0.448   0.603   8.975 -0.4948 -0.6159 -0.3437
 2332Sol     MW12286   0.422   0.684   8.949  0.2000  0.4785  0.5558
 2333Sol     OW12287   2.639   0.724   5.597 -0.1194  0.8595  0.4790
 2333Sol     HW12288   2.554   0.737   5.555 -0.5836 -2.5436  0.1884
 2333Sol     HW12289   2.703   0.749   5.530 -0.8873  0.2968 -0.4696
 2333Sol     MW12290   2.637   0.727   5.587 -0.1224 -0.6314 -0.4072
 2334Sol     OW12291   0.439   1.481   2.143  0.1172 -0.7890  0.0309
 2334Sol     HW12292   0.516   1.537   2.150 -0.2995 -0.4212  1.8443
 2334Sol     HW12293   0.434   1.458   2.050  2.8007 -1.3663 -0.0022
 2334Sol     MW12294   0.445   1.484   2.135 -0.1529  0.1333  0.1678
 2335Sol     OW12295   2.575   3.131   7.254 -0.3557 -0.0577 -0.4635
 2335Sol     HW12296   2.613   3.196   7.194 -0.6555  0.4166 -0.1448
 2335Sol     HW12297   2.644   3.113   7.317 -1.2534  2.2280  1.2563
 2335Sol     MW12298   2.584   3.135   7.254  0.8830 -0.4985 -0.2427
 2336Sol     OW12299   1.550   0.355   2.775 -0.0859 -0.0385 -0.2119
 2336Sol     HW12300   1.590   0.417   2.837 -0.0712  1.3524 -1.5859
 2336Sol     HW12301   1.521   0.282   2.830 -0.8704  1.5679  1.5726
 2336Sol     MW12302   1.551   0.354   2.786  0.0606  0.2256 -0.2853
 2337Sol     OW12303   0.657   0.828   5.342 -0.8997 -0.0699  0.2801
 2337Sol     HW12304   0.619   0.909   5.377  0.8136  0.6194  0.5614
 2337Sol     HW12305   0.614   0.817   5.257 -2.2627  0.3022  0.8987
 2337Sol     MW12306   0.650   0.834   5.337 -0.6678 -0.0702 -0.1099
 2338Sol     OW12307   2.684   0.328   4.974 -0.0337  0.3962 -0.1934
 2338Sol     HW12308   2.779   0.334   4.971 -0.0853  1.0444 -0.8559
 2338Sol     HW12309   2.656   0.418   4.995 -0.4920  0.1701  0.1679
 2338Sol     MW12310   2.690   0.337   4.976  0.0673  0.0652 -0.6096
 2339Sol     OW12311   0.960   0.577   4.457 -0.3790 -0.1595 -0.1250
 2339Sol     HW12312   1.050   0.550   4.443  0.0120  0.3624  1.3584
 2339Sol     HW12313   0.960   0.672   4.443 -0.6398 -0.1170  0.1518
 2339Sol     MW12314   0.968   0.583   4.454 -0.1934 -0.2001 -0.2174
 2340Sol     OW12315   3.106   1.219   9.441  0.2998 -0.6335  0.2799
 2340Sol     HW12316   3.104   1.135   9.394  0.3393  0.9194 -2.5634
 2340Sol     HW12317   3.013   1.240   9.454  0.2858 -0.9783  0.7467
 2340Sol     MW12318   3.097   1.213   9.438 -0.2559 -0.2273  0.2292
 2341Sol     OW12319   0.629   3.016   7.760 -0.1067 -0.5868  0.1032
 2341Sol     HW12320   0.722   3.033   7.770 -0.1260  0.5131 -1.4395
 2341Sol     HW12321   0.617   3.001   7.666 -1.6537  0.4342  0.1128
 2341Sol     MW12322   0.636   3.016   7.752  0.1533  0.0748 -0.2671
 2342Sol     OW12323   2.174   2.943  10.012 -0.5349  0.1159  0.3823
 2342Sol     HW12324   2.082   2.924  10.031 -0.6838  2.7116  2.5609
 2342Sol     HW12325   2.172   2.999   9.934 -0.8075  0.2785  0.5065
 2342Sol     MW12326   2.166   2.946  10.007  0.0482 -0.1157 -0.8889
 2343Sol     OW12327   1.127   0.198   9.062 -0.0840 -0.1109  0.4698
 2343Sol     HW12328   1.156   0.208   8.972 -0.6522 -0.8802  0.1897
 2343Sol     HW12329   1.205   0.168   9.110  0.4094  1.0333  0.3938
 2343Sol     MW12330   1.137   0.196   9.059 -0.0626 -0.5017  0.3204
 2344Sol     OW12331   1.251   2.276   6.399 -0.2925 -0.2761  0.0152
 2344Sol     HW12332   1.299   2.312   6.324 -2.1927  3.0972  0.3146
 2344Sol     HW12333   1.188   2.216   6.361 -0.1517  0.1864 -0.9505
 2344Sol     MW12334   1.250   2.274   6.389 -0.2072  0.3576 -0.2941
 2345Sol     OW12335   1.406   3.232   8.987  0.1607 -0.7465 -0.0875
 2345Sol     HW12336   1.340   3.248   8.919 -0.8498 -1.3950  0.7342
 2345Sol     HW12337   1.489   3.233   8.939 -0.5458 -1.2997 -1.3582
 2345Sol     MW12338   1.407   3.234   8.976  0.2646  0.1375  0.1882
 2346Sol     OW12339   0.164   2.561   8.968  0.0655  0.4638 -0.0342
 2346Sol     HW12340   0.156   2.488   8.906 -1.2456  1.9006 -1.5992
 2346Sol     HW12341   0.258   2.574   8.977  0.2897  0.1455 -1.6350
 2346Sol     MW12342   0.172   2.556   8.963  0.0928 -0.3455  0.2075
 2347Sol     OW12343   1.725   0.433   8.393 -0.6360 -0.0651  0.3034
 2347Sol     HW12344   1.741   0.346   8.355  1.4583  0.5071 -0.2092
 2347Sol     HW12345   1.708   0.489   8.318 -0.5193  0.2586  0.5185
 2347Sol     MW12346   1.725   0.430   8.383  0.0706 -0.1198  0.2110
 2348Sol     OW12347   0.821   2.734   8.168 -0.2069  0.5427  0.4054
 2348Sol     HW12348   0.909   2.768   8.153 -0.6786  1.0548 -1.2960
 2348Sol     HW12349   0.764   2.788   8.114 -1.1739 -1.8549 -1.0543
 2348Sol     MW12350   0.823   2.742   8.162 -0.0152  0.4708  0.2903
 2349Sol     OW12351   1.159   2.713   9.537  0.3196  0.4155  0.3277
 2349Sol     HW12352   1.065   2.708   9.554  0.1280  0.9821 -0.5503
 2349Sol     HW12353   1.190   2.623   9.547 -0.3426  0.1974  0.4437
 2349Sol     MW12354   1.153   2.705   9.540  0.5747  0.1328 -0.5854
 2350Sol     OW12355   1.564   2.661   3.330  0.1291 -0.2092 -0.1083
 2350Sol     HW12356   1.624   2.591   3.355  0.1331  0.1328  0.8529
 2350Sol     HW12357   1.500   2.618   3.273  1.0820 -0.6440 -0.8615
 2350Sol     MW12358   1.564   2.651   3.327  0.7131 -0.6985 -0.4056
 2351Sol     OW12359   0.669   3.192   7.399  0.5868  0.2633 -0.0053
 2351Sol     HW12360   0.636   3.109   7.434  1.1182 -0.3893 -1.0568
 2351Sol     HW12361   0.759   3.198   7.431  0.8898 -0.0666 -0.7912
 2351Sol     MW12362   0.674   3.185   7.405  0.0654 -0.5480 -0.4344
 2352Sol     OW12363   0.015   1.611   4.212  0.7403 -0.2045  0.3206
 2352Sol     HW12364   0.031   1.519   4.231 -1.3280 -0.3637  1.4677
 2352Sol     HW12365   0.011   1.653   4.298  0.5694  0.7481 -0.1412
 2352Sol     MW12366   0.016   1.606   4.221  0.1286  0.6129  0.4176
 2353Sol     OW12367   1.664   2.491   4.820  0.0921  0.2913 -0.1564
 2353Sol     HW12368   1.749   2.501   4.777  0.3726 -0.4976  0.2080
 2353Sol     HW12369   1.603   2.539   4.764  0.5568 -0.2455 -1.1301
 2353Sol     MW12370   1.666   2.496   4.811 -0.4316 -0.1961 -0.5801
 2354Sol     OW12371   1.326   0.738   4.732  0.2788  0.0044 -1.0971
 2354Sol     HW12372   1.393   0.674   4.709 -0.4334 -0.5517 -1.6505
 2354Sol     HW12373   1.362   0.822   4.703  2.3664  0.2463  2.0071
 2354Sol     MW12374   1.335   0.740   4.727 -0.1877 -0.3310  0.3659
 2355Sol     OW12375   1.394   1.851   8.880  0.3180  0.9064 -0.3841
 2355Sol     HW12376   1.452   1.826   8.952 -0.6501  1.3357  0.5698
 2355Sol     HW12377   1.376   1.768   8.835 -1.0000  0.1991  1.3524
 2355Sol     MW12378   1.397   1.841   8.882  0.3132 -0.1700  0.2589
 2356Sol     OW12379   2.252   0.355   3.863 -0.5071  0.2676  0.6248
 2356Sol     HW12380   2.344   0.333   3.872 -0.8472 -0.8106  1.6217
 2356Sol     HW12381   2.214   0.339   3.949 -1.7358  0.1891  0.0919
 2356Sol     MW12382   2.257   0.352   3.871  0.4230  0.3093 -0.2458
 2357Sol     OW12383   2.490   1.027   5.757  0.5998  0.4077 -0.7112
 2357Sol     HW12384   2.562   1.058   5.813  0.4110  0.1933 -0.3498
 2357Sol     HW12385   2.454   0.952   5.804 -0.1410  0.7806 -0.6819
 2357Sol     MW12386   2.493   1.023   5.767  0.0621  0.0502  0.4292
 2358Sol     OW12387   1.468   0.834   6.798 -0.2377 -0.0340 -0.4685
 2358Sol     HW12388   1.521   0.914   6.806 -0.4633  0.0642  0.1214
 2358Sol     HW12389   1.377   0.865   6.809 -0.2393 -0.5457  1.1462
 2358Sol     MW12390   1.464   0.844   6.800 -0.2783 -0.1804  0.7489
 2359Sol     OW12391   3.068   1.791   1.971 -0.1165  0.4414  0.4793
 2359Sol     HW12392   3.038   1.701   1.966 -0.0305  0.5083 -1.8276
 2359Sol     HW12393   3.090   1.804   2.063 -3.4504 -0.7898  1.5370
 2359Sol     MW12394   3.067   1.784   1.979  0.2086 -0.1131  0.8047
 2360Sol     OW12395   1.642   0.878   4.091  0.2498  0.3271 -0.3259
 2360Sol     HW12396   1.571   0.862   4.153  1.2451 -0.6573  0.5950
 2360Sol     HW12397   1.721   0.872   4.143  0.9899  2.0865 -1.2196
 2360Sol     MW12398   1.643   0.876   4.101 -0.1501 -0.1697  0.4454
 2361Sol     OW12399   2.899   1.025   2.593  0.0890  0.0203  0.3997
 2361Sol     HW12400   2.928   0.981   2.513  0.9341 -3.8530  2.6929
 2361Sol     HW12401   2.978   1.029   2.647 -1.0734  0.0187  2.1174
 2361Sol     MW12402   2.909   1.021   2.591  0.2435  0.0429  0.8094
 2362Sol     OW12403   1.682   1.095   2.998  0.2315  0.4924  0.7431
 2362Sol     HW12404   1.622   1.153   3.046 -0.4459 -0.3164  0.8856
 2362Sol     HW12405   1.667   1.117   2.906 -0.4901  0.1041  0.7638
 2362Sol     MW12406   1.675   1.102   2.994  0.0064 -0.1047 -0.1885
 2363Sol     OW12407   0.407   2.921   3.301 -0.4964 -0.0064  0.0723
 2363Sol     HW12408   0.381   2.877   3.382  1.8955 -1.7502 -0.0393
 2363Sol     HW12409   0.412   3.014   3.324 -3.0244 -0.0753  1.0269
 2363Sol     MW12410   0.405   2.925   3.310  0.2369 -0.0866  0.7132
 2364Sol     OW12411   1.358   2.611   1.460  0.6276  0.2465  0.6718
 2364Sol     HW12412   1.332   2.532   1.507  1.7577  0.5613  1.8563
 2364Sol     HW12413   1.448   2.627   1.487  0.8000  1.2926 -0.4518
 2364Sol     MW12414   1.364   2.606   1.467 -0.3355  0.3114 -0.0267
 2365Sol     OW12415   2.436   0.341   6.700 -0.0297  0.0679  0.3394
 2365Sol     HW12416   2.364   0.353   6.638  0.6535  0.3816 -0.4119
 2365Sol     HW12417   2.446   0.426   6.742 -2.2125 -0.8335  2.8197
 2365Sol     MW12418   2.431   0.349   6.698 -0.7441  0.5348 -0.2333
 2366Sol     OW12419   1.473   1.053   7.140 -0.1519 -0.1023 -0.3052
 2366Sol     HW12420   1.383   1.072   7.112 -0.6418  2.6673  2.8995
 2366Sol     HW12421   1.527   1.112   7.088 -0.4814  0.4495 -0.0307
 2366Sol     MW12422   1.470   1.060   7.132 -0.0066  0.2260 -0.2826
 2367Sol     OW12423   1.603   2.887   6.182  0.5288 -0.3719  0.7075
 2367Sol     HW12424   1.590   2.911   6.090  1.2113 -0.4794  0.5812
 2367Sol     HW12425   1.603   2.970   6.229  0.8413 -0.2685  0.5272
 2367Sol     MW12426   1.602   2.896   6.178 -0.3278  0.2747 -0.1906
 2368Sol     OW12427   1.852   1.132   6.981  0.5422 -0.0329  0.2070
 2368Sol     HW12428   1.935   1.160   6.945  0.3171 -0.9889 -1.0837
 2368Sol     HW12429   1.821   1.207   7.032  1.1880  1.0821 -1.0255
 2368Sol     MW12430   1.856   1.141   6.983 -1.1393 -0.0156  0.1107
 2369Sol     OW12431   0.523   0.768   8.707 -0.3157 -0.1411  0.3043
 2369Sol     HW12432   0.473   0.759   8.788 -1.5475 -1.8424 -0.6163
 2369Sol     HW12433   0.457   0.772   8.638  0.6794  2.3792 -0.5711
 2369Sol     MW12434   0.513   0.768   8.708 -0.6786 -0.0670 -0.0580
 2370Sol     OW12435   1.802   2.363   2.434 -0.0218 -0.1368  0.6166
 2370Sol     HW12436   1.832   2.319   2.354 -1.7506 -0.7592  0.2845
 2370Sol     HW12437   1.818   2.456   2.418  0.1645 -0.3073 -0.2367
 2370Sol     MW12438   1.806   2.367   2.425  0.2219  0.5904 -0.0590
 2371Sol     OW12439   0.211   3.353   9.311  0.2602 -0.1284 -0.5030
 2371Sol     HW12440   0.207   3.399   9.227  2.6115 -0.0979 -0.6157
 2371Sol     HW12441   0.302   3.362   9.339 -0.6845  0.6726  2.5024
 2371Sol     MW12442   0.219   3.358   9.306  0.2770 -0.4853  0.1127
 2372Sol     OW12443   0.807   2.981   6.283 -0.2808  0.0013 -0.2191
 2372Sol     HW12444   0.880   2.992   6.223 -0.2021  4.7920  0.6134
 2372Sol     HW12445   0.736   2.949   6.228  1.1616 -0.3874 -1.8996
 2372Sol     MW12446   0.807   2.979   6.273  0.0491 -0.5092 -0.0955
 2373Sol     OW12447   2.224   0.473   9.630  0.3474 -0.1197  0.6961
 2373Sol     HW12448   2.176   0.555   9.615  1.2731  0.0031 -1.8031
 2373Sol     HW12449   2.158   0.413   9.667 -0.9674  0.9605  0.1439
 2373Sol     MW12450   2.214   0.475   9.632  0.2905 -0.0955  0.4801
 2374Sol     OW12451   3.138   0.041   9.976 -0.7315  0.3064  0.3285
 2374Sol     HW12452   3.073  -0.010   9.927 -1.0952 -0.3209  1.4353
 2374Sol     HW12453   3.191  -0.025  10.021  0.9344  0.7898 -0.8453
 2374Sol     MW12454   3.137   0.030   9.975  0.2624  0.1936  0.3895
 2375Sol     OW12455   0.887   1.720   8.764 -0.1278  0.5327 -0.4521
 2375Sol     HW12456   0.793   1.725   8.748 -0.3312  0.1851  0.6033
 2375Sol     HW12457   0.896   1.658   8.837  0.8379  1.3409  0.1268
 2375Sol     MW12458   0.879   1.715   8.769 -1.1690 -0.2793 -0.1415
 2376Sol     OW12459   1.990   1.747   9.400 -0.1698  0.2731  0.3358
 2376Sol     HW12460   2.079   1.773   9.423 -0.4654  2.4973 -0.9165
 2376Sol     HW12461   1.941   1.755   9.482  0.3804  0.8647  0.6138
 2376Sol     MW12462   1.993   1.750   9.409 -0.1807 -0.0902 -0.4216
 2377Sol     OW12463   1.224   3.045   4.138 -0.6207 -0.7996  0.0067
 2377Sol     HW12464   1.280   3.123   4.149 -0.0475 -1.3445  1.0586
 2377Sol     HW12465   1.222   3.030   4.044 -0.5095  0.3347 -0.1841
 2377Sol     MW12466   1.229   3.051   4.131 -0.2907  0.2867 -0.1208
 2378Sol     OW12467   2.082   3.405   6.379 -0.3275 -0.2609  0.0602
 2378Sol     HW12468   2.116   3.426   6.466 -0.3575  1.3422 -0.3014
 2378Sol     HW12469   2.150   3.351   6.339  0.2567  0.0557  0.6161
 2378Sol     MW12470   2.091   3.402   6.383  0.0026 -0.7325 -0.2435
 2379Sol     OW12471   0.212   1.076   7.800 -0.1172  0.8997 -0.5187
 2379Sol     HW12472   0.195   0.996   7.750  0.5933 -0.0293  0.7321
 2379Sol     HW12473   0.285   1.054   7.857  0.6581  2.7122 -0.7800
 2379Sol     MW12474   0.217   1.067   7.800 -0.0049 -0.1363  0.2440
 2380Sol     OW12475   1.732   0.459   7.814  0.6979  0.0901  0.0538
 2380Sol     HW12476   1.773   0.544   7.825 -0.1406  0.3623  1.0926
 2380Sol     HW12477   1.781   0.401   7.872  0.5286  0.1125  0.2197
 2380Sol     MW12478   1.740   0.461   7.820 -0.6893 -0.0975  0.6668
 2381Sol     OW12479   3.059   0.180   2.833  0.1129 -0.7719  0.6191
 2381Sol     HW12480   3.074   0.225   2.750  1.2603  0.8724  1.6861
 2381Sol     HW12481   3.137   0.126   2.846  0.1506 -0.6613  0.8544
 2381Sol     MW12482   3.067   0.179   2.826  0.4106  0.2202  0.0140
 2382Sol     OW12483   2.098   3.153   4.482  0.5138  0.0860 -0.7121
 2382Sol     HW12484   2.030   3.096   4.446 -1.1769  1.9708 -0.5880
 2382Sol     HW12485   2.108   3.223   4.417  1.0097  0.8147  0.1302
 2382Sol     MW12486   2.092   3.154   4.473 -0.3251  0.0150  0.4689
 2383Sol     OW12487   2.164   2.108   3.296 -0.7539 -0.5383  0.2847
 2383Sol     HW12488   2.218   2.187   3.297 -1.0651 -0.3145 -0.1160
 2383Sol     HW12489   2.218   2.041   3.338 -0.2572 -0.2617  0.0962
 2383Sol     MW12490   2.174   2.110   3.300  0.2737 -0.0990 -0.2242
 2384Sol     OW12491   1.885   1.409   7.081  0.4485  0.7951  0.2892
 2384Sol     HW12492   1.895   1.499   7.110  3.0715  0.2405  1.2267
 2384Sol     HW12493   1.866   1.360   7.161  0.5333  0.2886  0.0047
 2384Sol     MW12494   1.884   1.412   7.091 -0.5593 -1.1193  0.4618
 2385Sol     OW12495   1.172   3.287   8.815  0.1269 -0.1135  0.3550
 2385Sol     HW12496   1.160   3.222   8.746 -0.4310  2.2731 -1.8552
 2385Sol     HW12497   1.087   3.332   8.820  0.9888  1.4908  0.7645
 2385Sol     MW12498   1.163   3.285   8.810  0.6318  0.7529  0.3005
 2386Sol     OW12499   0.591   3.141   6.613 -0.2723  0.3644  0.2129
 2386Sol     HW12500   0.588   3.053   6.650 -0.0436  1.4219  2.8351
 2386Sol     HW12501   0.501   3.160   6.588 -0.1383 -1.0222 -1.4579
 2386Sol     MW12502   0.583   3.135   6.614  0.0939 -0.4591 -0.3896
 2387Sol     OW12503   1.846   2.002   3.792 -0.0329 -0.2874 -0.6960
 2387Sol     HW12504   1.904   1.926   3.796  0.5802  0.2343  0.4896
 2387Sol     HW12505   1.772   1.978   3.849 -0.5063 -0.5410 -1.4069
 2387Sol     MW12506   1.844   1.993   3.797 -0.3994  0.2090 -0.7295
 2388Sol     OW12507   0.468   1.048   7.935 -0.1935  0.3762  0.2024
 2388Sol     HW12508   0.478   1.049   7.840  0.9015 -0.7382  0.2916
 2388Sol     HW12509   0.546   1.003   7.967 -2.2624 -2.5584  1.4122
 2388Sol     MW12510   0.476   1.044   7.930 -0.3817 -0.5902 -0.3084
 2389Sol     OW12511   1.863   0.290   5.504 -0.0717 -0.0055  0.0641
 2389Sol     HW12512   1.885   0.268   5.413 -3.1048 -0.7410 -0.5593
 2389Sol     HW12513   1.798   0.225   5.529 -0.0234  0.8188  2.4465
 2389Sol     MW12514   1.859   0.282   5.498  0.2112 -0.3703 -0.1339
 2390Sol     OW12515   0.127   0.988   8.263  0.5040 -0.3392  0.3728
 2390Sol     HW12516   0.128   1.036   8.346 -0.6760  0.4597 -0.0651
 2390Sol     HW12517   0.195   1.031   8.210 -1.8762  2.2012 -0.7399
 2390Sol     MW12518   0.133   0.996   8.266  0.2982 -0.2738 -0.1002
 2391Sol     OW12519   3.182   3.208   8.711  0.0853 -0.0326 -0.1650
 2391Sol     HW12520   3.269   3.203   8.670  0.8993  0.4069  1.4796
 2391Sol     HW12521   3.148   3.119   8.708  0.7112 -0.2593 -0.5294
 2391Sol     MW12522   3.187   3.200   8.707 -0.2989  0.0188 -0.7336
 2392Sol     OW12523   3.003   2.366   3.071  0.1746  0.0312 -0.1222
 2392Sol     HW12524   2.938   2.432   3.047 -2.3386 -2.7277 -1.2158
 2392Sol     HW12525   3.074   2.378   3.007 -0.5612  1.2130 -0.7410
 2392Sol     MW12526   3.004   2.373   3.063 -0.4561 -0.2131 -0.0041
 2393Sol     OW12527   2.126   0.554   8.914  0.5151  0.5819  0.2237
 2393Sol     HW12528   2.191   0.516   8.855  0.8331  1.1025  0.2387
 2393Sol     HW12529   2.043   0.547   8.866  0.6117  0.0894  0.1297
 2393Sol     MW12530   2.124   0.550   8.904 -0.1390  0.0478 -0.2839
 2394Sol     OW12531   3.224   0.427   5.484  0.1944  0.4297 -0.0825
 2394Sol     HW12532   3.171   0.502   5.509  1.4092  1.4061 -0.3788
 2394Sol     HW12533   3.302   0.432   5.539  1.1115  0.4177 -1.3444
 2394Sol     MW12534   3.226   0.434   5.491 -0.6014 -0.1411  0.3848
 2395Sol     OW12535   0.584   2.819   2.374 -0.1873  0.2222  0.6030
 2395Sol     HW12536   0.597   2.804   2.468  0.1849  0.6017  0.6160
 2395Sol     HW12537   0.666   2.791   2.334  0.2681  1.5786  0.5646
 2395Sol     MW12538   0.592   2.815   2.379  0.4507 -0.2124  0.4165
 2396Sol     OW12539   0.730   0.912   4.141  0.4394  0.6225  0.0624
 2396Sol     HW12540   0.741   0.880   4.230  0.1333  2.7742  0.9257
 2396Sol     HW12541   0.680   0.994   4.151  0.2990  0.8451 -2.0837
 2396Sol     MW12542   0.726   0.917   4.150  0.1413  0.2212 -0.1051
 2397Sol     OW12543   0.195   0.032   8.357  0.0882  0.3749 -0.1704
 2397Sol     HW12544   0.229  -0.001   8.273  0.0219  0.1114 -0.0926
 2397Sol     HW12545   0.143   0.109   8.332 -0.6034 -0.1781 -0.4575
 2397Sol     MW12546   0.194   0.036   8.347  0.3183 -0.5955 -0.0108
 2398Sol     OW12547   0.010   1.459   9.011  0.1430 -0.0583  0.0394
 2398Sol     HW12548  -0.020   1.452   9.101 -1.0635 -0.7974 -0.4009
 2398Sol     HW12549   0.068   1.535   9.010  1.1766 -0.7889  1.6978
 2398Sol     MW12550   0.013   1.465   9.019  0.2534 -0.4562 -0.0409
 2399Sol     OW12551   0.197   3.027   2.548 -0.3627 -0.5300 -0.0106
 2399Sol     HW12552   0.160   3.115   2.555  1.3240  0.1412  0.7995
 2399Sol     HW12553   0.274   3.038   2.492 -1.2686 -1.8825 -1.5784
 2399Sol     MW12554   0.201   3.036   2.543 -1.0992 -0.1868  0.5130
 2400Sol     OW12555   0.451   2.851   6.799 -0.1923 -0.2062  0.2940
 2400Sol     HW12556   0.483   2.762   6.813 -0.8108 -0.4231  0.3679
 2400Sol     HW12557   0.379   2.841   6.737  0.5117  0.3907 -0.6278
 2400Sol     MW12558   0.447   2.842   6.795 -0.1039  1.2770  0.4204
 2401Sol     OW12559   1.569   0.303   8.152 -0.4208 -0.5142  0.2477
 2401Sol     HW12560   1.661   0.277   8.147 -0.7059 -1.7150  1.0026
 2401Sol     HW12561   1.570   0.397   8.136  0.9592 -0.4770  0.4602
 2401Sol     MW12562   1.577   0.309   8.150  0.1923 -0.0875  0.2439
 2402Sol     OW12563   1.738   0.367   3.527  0.5366 -0.3997 -0.5378
 2402Sol     HW12564   1.745   0.275   3.503  0.4824 -0.9945  1.7048
 2402Sol     HW12565   1.811   0.383   3.587  1.5449  1.4560 -2.1931
 2402Sol     MW12566   1.745   0.361   3.530 -0.1310 -0.4102  0.0994
 2403Sol     OW12567   1.232   2.717   6.962 -0.3756 -0.3644  0.4431
 2403Sol     HW12568   1.199   2.803   6.986 -0.2542 -0.3047  0.3950
 2403Sol     HW12569   1.280   2.687   7.040 -0.1969 -0.2779  0.3676
 2403Sol     MW12570   1.234   2.722   6.971  0.6173 -0.0311 -0.3420
 2404Sol     OW12571   2.724   1.527   3.609 -0.1774  0.9332 -0.2202
 2404Sol     HW12572   2.673   1.450   3.584 -1.4176  1.5000  0.5313
 2404Sol     HW12573   2.661   1.598   3.610  1.3444  2.4360 -3.0047
 2404Sol     MW12574   2.714   1.526   3.607  0.0645  0.0799  0.9284
 2405Sol     OW12575   2.799   0.083   7.658 -0.5179 -0.0358 -0.0603
 2405Sol     HW12576   2.837   0.077   7.570 -0.6295 -3.4123  0.0335
 2405Sol     HW12577   2.864   0.132   7.709 -0.0576  1.2043 -1.7913
 2405Sol     MW12578   2.809   0.087   7.655 -0.1805  0.2369 -0.3531
 2406Sol     OW12579   1.871   1.217   1.607  0.3785 -0.1756 -0.6101
 2406Sol     HW12580   1.953   1.168   1.615  0.2178 -0.3654 -0.1462
 2406Sol     HW12581   1.880   1.291   1.667  0.8948  0.7497 -1.8057
 2406Sol     MW12582   1.879   1.219   1.613  0.1921 -0.2158 -0.1172
 2407Sol     OW12583   1.801   0.758   8.402  0.3750 -0.5707  0.5024
 2407Sol     HW12584   1.862   0.814   8.451  1.0402  0.6710 -1.6661
 2407Sol     HW12585   1.839   0.752   8.314 -0.5778 -3.0846  0.2210
 2407Sol     MW12586   1.810   0.763   8.399  0.3438  0.2855 -0.2428
 2408Sol     OW12587   1.423   0.072   4.425 -0.1149  0.3157  1.0143
 2408Sol     HW12588   1.444   0.148   4.371 -3.0420 -0.0588 -0.7264
 2408Sol     HW12589   1.487   0.006   4.399 -0.5730  0.6250 -0.9300
 2408Sol     MW12590   1.431   0.073   4.418  0.1606  0.0121  0.0070
 2409Sol     OW12591   0.026   2.615   9.919  0.5241  0.2917 -0.4217
 2409Sol     HW12592   0.026   2.544   9.855 -0.5082 -0.0862 -0.0044
 2409Sol     HW12593   0.011   2.694   9.867 -0.9056 -0.0758 -0.5749
 2409Sol     MW12594   0.025   2.616   9.909 -0.1133 -0.4267 -0.6534
 2410Sol     OW12595   3.176   2.053   1.472  0.6562  0.0139 -0.4698
 2410Sol     HW12596   3.179   1.995   1.548 -2.7258 -0.5226 -0.6921
 2410Sol     HW12597   3.175   2.141   1.508  3.7619 -0.0538 -0.0795
 2410Sol     MW12598   3.177   2.055   1.482 -0.1313 -0.1627  0.2206
 2411Sol     OW12599   0.551   1.374   4.998 -0.0252  0.0534 -0.5249
 2411Sol     HW12600   0.535   1.400   4.907  1.2851 -0.6894 -0.9825
 2411Sol     HW12601   0.467   1.342   5.029  0.0009 -1.6986 -2.1673
 2411Sol     MW12602   0.542   1.374   4.992  0.0658  0.3351 -0.0444
 2412Sol     OW12603   0.727   0.100   2.913  0.2033 -0.0575 -0.0462
 2412Sol     HW12604   0.741   0.189   2.944  1.5489 -0.5556  0.8320
 2412Sol     HW12605   0.746   0.104   2.819  1.2063  0.3982  0.1612
 2412Sol     MW12606   0.730   0.108   2.908 -0.2465 -0.3189 -0.8276
 2413Sol     OW12607   3.190   2.019   4.161 -0.0094  0.5835 -0.0230
 2413Sol     HW12608   3.282   2.041   4.151  0.2445 -0.9333 -1.2853
 2413Sol     HW12609   3.180   1.937   4.112 -1.6067 -0.2795  1.6867
 2413Sol     MW12610   3.197   2.014   4.155 -0.5204  0.0742  0.0838
 2414Sol     OW12611   1.406   2.574   3.570  0.2771  0.2460 -0.6758
 2414Sol     HW12612   1.444   2.590   3.483  1.0143  0.2031 -0.3641
 2414Sol     HW12613   1.444   2.490   3.597 -0.9989 -0.4150 -0.8850
 2414Sol     MW12614   1.413   2.568   3.564 -0.3927  0.0824 -0.3862
 2415Sol     OW12615   0.115   2.340   7.036  0.3276  0.6963  0.3093
 2415Sol     HW12616   0.152   2.311   6.952 -2.7220 -0.6825 -0.6178
 2415Sol     HW12617   0.058   2.413   7.013 -1.0739 -0.1433  1.0557
 2415Sol     MW12618   0.113   2.344   7.027 -0.2369  0.0988 -0.7520
 2416Sol     OW12619   2.300   3.315   6.943  0.3090  0.1801 -1.2075
 2416Sol     HW12620   2.312   3.410   6.950  0.0735  0.1397 -0.1055
 2416Sol     HW12621   2.310   3.284   7.033 -0.8709 -0.6944 -1.3717
 2416Sol     MW12622   2.302   3.321   6.952 -0.0978  0.4167  0.7646
 2417Sol     OW12623   2.027   1.966   9.790 -0.8206 -0.3447  0.1325
 2417Sol     HW12624   1.968   1.981   9.864  0.9581  1.4537  1.2293
 2417Sol     HW12625   2.094   1.907   9.824 -0.9848 -0.9414 -0.5771
 2417Sol     MW12626   2.028   1.962   9.800  0.0971 -0.0001 -0.2006
 2418Sol     OW12627   2.346   1.561   2.778 -0.6039  0.1990  0.3579
 2418Sol     HW12628   2.349   1.483   2.724  0.0959  0.1644  0.4450
 2418Sol     HW12629   2.437   1.584   2.793 -0.7992  0.9870  0.3976
 2418Sol     MW12630   2.354   1.556   2.775  0.2245  0.2061 -0.2020
 2419Sol     OW12631   1.357   2.428   5.348  0.0220  0.3994  0.0398
 2419Sol     HW12632   1.405   2.355   5.384  0.6893  1.1239  0.6335
 2419Sol     HW12633   1.265   2.404   5.359  0.2309 -0.7265 -0.5735
 2419Sol     MW12634   1.353   2.420   5.352 -0.1938 -0.8671 -0.1667
 2420Sol     OW12635   1.282   2.920   3.293  0.0848  0.1001  0.6818
 2420Sol     HW12636   1.248   2.946   3.207  3.3818 -0.5557 -0.9011
 2420Sol     HW12637   1.285   2.825   3.289  0.3717  0.0730  1.5083
 2420Sol     MW12638   1.279   2.914   3.285 -0.2938 -0.1412  0.0470
 2421Sol     OW12639   2.102   0.075   4.493 -0.1420 -0.0398  0.5499
 2421Sol     HW12640   2.141   0.162   4.501  0.4704 -0.1659 -0.7925
 2421Sol     HW12641   2.163   0.017   4.539 -0.4299  0.2080  1.2442
 2421Sol     MW12642   2.111   0.077   4.497  0.2296  0.1992 -0.0499
 2422Sol     OW12643   1.962   0.554   9.755  0.3204 -0.6006  0.0107
 2422Sol     HW12644   1.968   0.641   9.716 -1.7477 -0.2983  0.3360
 2422Sol     HW12645   2.043   0.545   9.804  0.7629  0.9552 -0.3967
 2422Sol     MW12646   1.970   0.561   9.756 -0.4519  0.2833  0.0584
 2423Sol     OW12647   1.502   1.841   7.092 -0.2095  0.5220 -0.9101
 2423Sol     HW12648   1.411   1.814   7.107  0.2289 -0.1336  0.7206
 2423Sol     HW12649   1.515   1.830   6.998 -1.8064  0.5904 -1.1662
 2423Sol     MW12650   1.495   1.838   7.085 -0.4727  0.0297  1.0081
 2424Sol     OW12651   3.011   2.029   7.464  0.1230  0.5476  0.3941
 2424Sol     HW12652   2.950   2.055   7.532 -1.4721 -3.3363  0.6000
 2424Sol     HW12653   2.958   1.978   7.403  2.3847  0.4332 -1.5511
 2424Sol     MW12654   3.001   2.027   7.464  0.4045  0.3860 -0.0896
 2425Sol     OW12655   1.657   1.622   8.872 -0.1343 -0.7347  0.3982
 2425Sol     HW12656   1.626   1.540   8.834 -1.7046 -0.1259  0.3236
 2425Sol     HW12657   1.609   1.630   8.954  0.6359 -0.3010  0.8063
 2425Sol     MW12658   1.650   1.615   8.876 -0.3421 -0.4244 -0.0175
 2426Sol     OW12659   1.071   2.880   9.888  0.2039  0.2828 -0.6708
 2426Sol     HW12660   1.146   2.871   9.829 -0.0603  1.6748 -1.2351
 2426Sol     HW12661   1.094   2.826   9.963  1.1377 -0.4575 -1.4635
 2426Sol     MW12662   1.080   2.874   9.889 -0.1342  0.0632  0.2535
 2427Sol     OW12663   2.649   1.172   4.939 -0.1397  0.2832  0.7189
 2427Sol     HW12664   2.723   1.144   4.885 -0.7487 -1.4437  0.7543
 2427Sol     HW12665   2.576   1.179   4.878 -0.3085  0.4839  0.9432
 2427Sol     MW12666   2.649   1.170   4.929 -0.2676  0.3191  0.6080
 2428Sol     OW12667   0.171   2.006   7.415  0.5113  0.0322 -0.2567
 2428Sol     HW12668   0.254   1.993   7.370 -0.1172  0.2876 -1.5077
 2428Sol     HW12669   0.181   1.959   7.498  1.6783 -0.4395 -0.6574
 2428Sol     MW12670   0.179   2.001   7.419 -0.0818  0.5376  0.1899
 2429Sol     OW12671   1.498   1.077   8.450  0.1865 -0.1046 -0.1862
 2429Sol     HW12672   1.569   1.074   8.386 -0.3471 -1.1920 -0.7320
 2429Sol     HW12673   1.534   1.128   8.523  0.9747  0.7065 -1.1223
 2429Sol     MW12674   1.508   1.081   8.451 -0.0079 -0.4737  0.4192
 2430Sol     OW12675   2.507   0.169   3.625 -0.5804  0.8475  0.6859
 2430Sol     HW12676   2.526   0.117   3.547  0.5802  2.3014 -0.0178
 2430Sol     HW12677   2.414   0.153   3.642 -0.8641  0.5481 -1.0246
 2430Sol     MW12678   2.500   0.163   3.619  0.3628  0.2221  0.5230
 2431Sol     OW12679   3.150   1.037   6.552 -0.0005 -0.0991 -0.0115
 2431Sol     HW12680   3.227   0.990   6.521 -0.4329 -0.2101 -0.9304
 2431Sol     HW12681   3.105   1.064   6.472 -0.6304  0.4304  0.5204
 2431Sol     MW12682   3.153   1.035   6.542 -0.5997 -0.7329 -0.0458
 2432Sol     OW12683   1.653   0.268   6.725  0.1034  0.0232 -0.7533
 2432Sol     HW12684   1.715   0.200   6.699 -0.2945  0.2582 -2.3634
 2432Sol     HW12685   1.572   0.221   6.742 -0.0069  0.0236 -1.2746
 2432Sol     MW12686   1.652   0.258   6.724  0.2547  0.1427 -0.3641
 2433Sol     OW12687   0.150   1.476   2.202 -0.5300  0.6433  0.1193
 2433Sol     HW12688   0.146   1.568   2.225 -0.7302  1.1763 -1.9533
 2433Sol     HW12689   0.241   1.461   2.177 -1.1479  1.0494 -2.5024
 2433Sol     MW12690   0.158   1.483   2.202 -0.5202 -0.2065  0.4097
 2434Sol     OW12691   0.632   2.013   5.605 -0.0759 -0.1463  0.3027
 2434Sol     HW12692   0.597   1.924   5.604  0.8574 -0.5216  0.7251
 2434Sol     HW12693   0.584   2.057   5.675  0.5940 -0.7825  1.1645
 2434Sol     MW12694   0.625   2.009   5.611 -0.3863  0.0766  0.4714
 2435Sol     OW12695   3.066   1.120   3.254  0.3025  0.5237 -0.5337
 2435Sol     HW12696   3.128   1.167   3.311 -0.0209  1.7024 -1.1303
 2435Sol     HW12697   2.993   1.097   3.312  0.1596  1.3604 -0.3751
 2435Sol     MW12698   3.065   1.122   3.265 -0.4764  0.3636  0.2725
 2436Sol     OW12699   0.145   3.041   7.756 -0.0777  0.5321 -0.7480
 2436Sol     HW12700   0.152   3.137   7.760  1.7115  0.3421  3.1458
 2436Sol     HW12701   0.068   3.021   7.808  1.0049 -0.2435  0.5870
 2436Sol     MW12702   0.139   3.048   7.761 -0.2670  0.0803  0.3708
 2437Sol     OW12703   0.755   0.440   5.512  0.4155  0.5377  0.0486
 2437Sol     HW12704   0.667   0.476   5.525  1.3983  1.6391  4.2411
 2437Sol     HW12705   0.806   0.514   5.480 -0.1700 -0.1869 -2.7268
 2437Sol     MW12706   0.752   0.450   5.510 -0.1455  0.0781  0.3920
 2438Sol     OW12707   0.644   3.092   4.505  0.2412 -0.0244 -0.0628
 2438Sol     HW12708   0.663   3.156   4.573 -0.6592 -0.6314  0.7845
 2438Sol     HW12709   0.582   3.136   4.446 -1.3863 -0.5385  1.2328
 2438Sol     MW12710   0.640   3.101   4.506 -0.4038  0.1046  0.6426
 2439Sol     OW12711   0.873   0.852   9.101  0.4196 -0.6232  0.2310
 2439Sol     HW12712   0.811   0.874   9.031 -0.5517 -3.1283  0.2499
 2439Sol     HW12713   0.858   0.919   9.167 -0.8137  0.0104 -0.6581
 2439Sol     MW12714   0.866   0.860   9.100  0.0121 -0.2929  0.1781
 2440Sol     OW12715   1.987   1.209   3.713  0.2161  0.0069 -0.4885
 2440Sol     HW12716   1.935   1.130   3.725 -0.1989  0.4539  0.8565
 2440Sol     HW12717   2.068   1.180   3.671  0.8123 -1.3979  1.5834
 2440Sol     MW12718   1.990   1.200   3.710  0.4734 -0.2939  0.5849
 2441Sol     OW12719   0.431   0.141   8.427  0.3331 -0.2407  0.5196
 2441Sol     HW12720   0.436   0.223   8.378 -0.9287 -0.7909 -0.5506
 2441Sol     HW12721   0.339   0.114   8.419  0.1663 -0.5065  2.9186
 2441Sol     MW12722   0.423   0.146   8.422  0.4214  0.2345  0.1321
 2442Sol     OW12723   1.643   1.796   5.905 -0.6981  0.0294 -0.3939
 2442Sol     HW12724   1.585   1.872   5.895  0.9159  1.3511 -0.0248
 2442Sol     HW12725   1.621   1.739   5.831 -1.0350  1.4788 -1.4408
 2442Sol     MW12726   1.636   1.798   5.897 -0.1110 -0.2894  0.7284
 2443Sol     OW12727   2.399   0.636   2.234 -0.0915  0.3366 -0.0267
 2443Sol     HW12728   2.467   0.593   2.285 -1.3626 -0.4757  1.0273
 2443Sol     HW12729   2.407   0.729   2.257  2.6902  0.7346 -2.3585
 2443Sol     MW12730   2.405   0.641   2.241  0.0032 -0.0946  0.0444
 2444Sol     OW12731   1.162   0.487   4.886 -0.2315  0.2445  0.3682
 2444Sol     HW12732   1.119   0.554   4.939 -0.0719  1.2878 -0.7858
 2444Sol     HW12733   1.108   0.409   4.898  0.2243  0.2605  2.6237
 2444Sol     MW12734   1.153   0.486   4.892  0.3919  0.6956 -0.1018
 2445Sol     OW12735   0.400   1.936   9.821  0.0282  0.3426 -0.0080
 2445Sol     HW12736   0.495   1.934   9.836  0.2314 -0.5661 -1.3121
 2445Sol     HW12737   0.362   1.924   9.907  1.0962  1.0449  0.5856
 2445Sol     MW12738   0.405   1.935   9.830  0.2839 -0.0373  0.1477
 2446Sol     OW12739   1.211   0.509   1.901  0.1016  0.2587 -0.3620
 2446Sol     HW12740   1.196   0.539   1.811  0.3615  0.0826 -0.4665
 2446Sol     HW12741   1.138   0.450   1.919  0.4360 -0.2697 -0.7180
 2446Sol     MW12742   1.203   0.506   1.895 -0.0695 -0.6586 -0.4042
 2447Sol     OW12743   2.677   1.004   6.064 -0.0720 -0.1478 -0.6184
 2447Sol     HW12744   2.705   0.945   5.995  0.0217 -0.4576 -0.3173
 2447Sol     HW12745   2.598   0.964   6.100 -1.0979  0.8939 -1.6785
 2447Sol     MW12746   2.673   0.995   6.061 -0.7704  0.5068  0.0155
 2448Sol     OW12747   1.738   3.218   8.517  0.3364 -0.1965 -0.4271
 2448Sol     HW12748   1.823   3.176   8.501  1.0743  1.5655 -1.3724
 2448Sol     HW12749   1.750   3.266   8.599 -0.3769 -1.4808  0.4445
 2448Sol     MW12750   1.747   3.218   8.523  0.0102  0.1327  0.1928
 2449Sol     OW12751   2.080   0.824   7.429 -0.1102 -0.2144 -0.2323
 2449Sol     HW12752   2.141   0.896   7.445  0.6930 -0.5125 -1.7754
 2449Sol     HW12753   1.997   0.867   7.407  0.3085  0.2400 -0.9379
 2449Sol     MW12754   2.078   0.835   7.428 -0.2422  0.2400 -0.0005
 2450Sol     OW12755   1.876   0.637   5.708 -0.3962 -0.0495  0.1135
 2450Sol     HW12756   1.891   0.720   5.753 -1.3120  1.0121 -1.4498
 2450Sol     HW12757   1.952   0.627   5.650 -0.2764 -0.3087  0.3159
 2450Sol     MW12758   1.884   0.643   5.706 -0.2556  0.0213 -0.2490
 2451Sol     OW12759   0.774   0.666   7.680 -0.2905 -0.2216  0.2412
 2451Sol     HW12760   0.841   0.599   7.697 -1.2227 -1.6299 -1.4467
 2451Sol     HW12761   0.723   0.668   7.761  1.4932  0.5460  1.3797
 2451Sol     MW12762   0.775   0.660   7.689  0.1750  0.1475 -0.2028
 2452Sol     OW12763   1.588   2.168   8.334 -0.5535 -0.0037  0.6493
 2452Sol     HW12764   1.569   2.111   8.259 -0.0290 -1.4562  1.6058
 2452Sol     HW12765   1.536   2.246   8.318 -0.6327 -0.3971 -1.1167
 2452Sol     MW12766   1.582   2.170   8.326 -0.3283  0.2575 -0.8533
 2453Sol     OW12767   1.941   2.121   4.510  0.1563 -0.4055 -0.5201
 2453Sol     HW12768   2.005   2.144   4.443  1.3943 -0.9519  0.4567
 2453Sol     HW12769   1.873   2.187   4.501  1.9030  1.5025 -0.1523
 2453Sol     MW12770   1.941   2.129   4.503  0.0470 -0.2741  0.1756
 2454Sol     OW12771   1.037   2.451   1.718 -0.0831 -0.3128  0.2366
 2454Sol     HW12772   1.033   2.410   1.804 -0.7035 -0.9111 -0.0701
 2454Sol     HW12773   0.954   2.429   1.676  1.3916 -2.5940 -1.6501
 2454Sol     MW12774   1.029   2.445   1.722 -0.2554  0.2756  0.5450
 2455Sol     OW12775   3.131   0.673   2.432  0.0925  0.2069  0.8595
 2455Sol     HW12776   3.067   0.603   2.419  0.8858 -0.1057 -1.5044
 2455Sol     HW12777   3.083   0.754   2.413 -0.3887  0.2092  2.0289
 2455Sol     MW12778   3.121   0.674   2.429 -0.4750 -0.0796 -0.1459
 2456Sol     OW12779   0.927   1.714   5.139 -0.3524  0.2987  0.2848
 2456Sol     HW12780   0.954   1.690   5.050 -2.0203  1.3832 -0.5375
 2456Sol     HW12781   0.979   1.657   5.195 -0.3909 -1.4978 -1.4358
 2456Sol     MW12782   0.934   1.707   5.136 -0.2331  0.3441 -0.2971
 2457Sol     OW12783   0.891   2.951   9.685 -0.3115 -0.3573  0.0489
 2457Sol     HW12784   0.944   2.918   9.757 -0.3275 -2.3840 -0.8373
 2457Sol     HW12785   0.830   3.012   9.726  0.6813 -0.3358  1.5125
 2457Sol     MW12786   0.890   2.953   9.695  0.3723  0.4611 -0.4039
 2458Sol     OW12787   2.854   3.308   2.493 -0.3170 -0.0374  0.2782
 2458Sol     HW12788   2.834   3.302   2.399  0.6910  1.4263 -0.0451
 2458Sol     HW12789   2.785   3.365   2.528 -0.6907 -0.5806  0.4321
 2458Sol     MW12790   2.846   3.312   2.488  0.2339  0.1647  0.4320
 2459Sol     OW12791   0.691   2.558   9.238 -0.1440  0.1419 -0.5396
 2459Sol     HW12792   0.763   2.619   9.257  0.0630  0.2288 -1.5939
 2459Sol     HW12793   0.649   2.544   9.323  1.6712 -0.6130  0.2787
 2459Sol     MW12794   0.694   2.562   9.248  0.2706 -0.2178 -0.3285
 2460Sol     OW12795   0.642   0.696   1.816  0.1560  0.5183 -0.0053
 2460Sol     HW12796   0.630   0.734   1.903  0.0468  0.7088 -0.1021
 2460Sol     HW12797   0.705   0.754   1.773  0.6860  0.0637  0.1666
 2460Sol     MW12798   0.646   0.705   1.820 -0.3330 -0.0274 -0.3274
 2461Sol     OW12799   1.550   3.412   6.487  0.4133 -0.1139  0.9308
 2461Sol     HW12800   1.468   3.363   6.478 -1.2103  2.4059  1.4074
 2461Sol     HW12801   1.592   3.405   6.402 -0.9584 -0.3289  0.2567
 2461Sol     MW12802   1.546   3.407   6.479  0.1819 -0.0317  0.0856
 2462Sol     OW12803   0.025   1.738   3.813  0.0385  0.6657  0.2693
 2462Sol     HW12804   0.079   1.685   3.872 -3.1810 -1.6767  1.2145
 2462Sol     HW12805  -0.031   1.789   3.871 -0.7264  0.9879 -0.7457
 2462Sol     MW12806   0.025   1.738   3.823 -0.0703 -0.0450  0.3095
 2463Sol     OW12807   1.095   2.385   5.392 -0.3569  0.2024 -0.4757
 2463Sol     HW12808   1.076   2.293   5.375 -1.9049  0.4084  0.0793
 2463Sol     HW12809   1.104   2.391   5.487  1.1268  0.3866 -0.6067
 2463Sol     MW12810   1.094   2.377   5.399 -0.0760  0.2073  0.1422
 2464Sol     OW12811   2.181   2.069   5.971 -0.9226 -0.1911  0.3682
 2464Sol     HW12812   2.251   2.004   5.961 -1.6114 -0.9710  0.5480
 2464Sol     HW12813   2.180   2.116   5.888 -1.5266 -1.5301 -0.4026
 2464Sol     MW12814   2.187   2.067   5.963 -0.2322  0.1831  0.2518
 2465Sol     OW12815   0.338   1.937   4.931 -0.4610 -0.3499 -0.8149
 2465Sol     HW12816   0.372   2.023   4.955  1.5986 -0.9582 -1.4509
 2465Sol     HW12817   0.270   1.955   4.866 -2.2483  0.9664  1.3705
 2465Sol     MW12818   0.335   1.946   4.927  0.0677 -0.3043 -0.7003
 2466Sol     OW12819   2.820   3.245   6.503  0.7015  0.3966 -0.0051
 2466Sol     HW12820   2.909   3.236   6.538  0.1974 -0.1457  1.1527
 2466Sol     HW12821   2.814   3.338   6.478  0.9381  0.8922  1.7136
 2466Sol     MW12822   2.828   3.253   6.504  0.6575 -0.4866 -0.2815
 2467Sol     OW12823   2.423   3.162   5.078 -0.4960  0.0203 -0.5955
 2467Sol     HW12824   2.336   3.168   5.039 -1.2341  0.2930  1.0665
 2467Sol     HW12825   2.419   3.084   5.133  0.9536 -1.1232 -2.0348
 2467Sol     MW12826   2.415   3.155   5.079  0.0823 -0.3751  0.6161
 2468Sol     OW12827   2.119   2.031   7.144  0.3532  0.4259 -0.2360
 2468Sol     HW12828   2.156   2.097   7.084 -0.0909 -0.2044 -1.2022
 2468Sol     HW12829   2.105   2.079   7.226  0.5336  1.4040 -0.7700
 2468Sol     MW12830   2.121   2.042   7.146 -0.0160 -0.1829 -0.3068
 2469Sol     OW12831   2.529   1.767   8.240 -0.0228 -0.2078 -0.7325
 2469Sol     HW12832   2.520   1.854   8.200 -2.0331  0.0689  0.2589
 2469Sol     HW12833   2.511   1.781   8.333 -0.5631 -1.7219 -0.5992
 2469Sol     MW12834   2.527   1.776   8.244 -0.0043  0.4710  0.2915
 2470Sol     OW12835   2.154   0.047   8.032  0.0323  0.1544  0.7463
 2470Sol     HW12836   2.197  -0.010   8.097 -0.5951 -1.8938 -0.5961
 2470Sol     HW12837   2.206   0.037   7.953 -0.7239  0.6367  0.1851
 2470Sol     MW12838   2.163   0.041   8.031 -0.4954  0.0963 -0.4567
 2471Sol     OW12839   1.300   2.048  10.388  0.0132 -0.1409 -0.0244
 2471Sol     HW12840   1.306   2.054  10.484 -0.4908 -0.5544  0.0342
 2471Sol     HW12841   1.362   2.114  10.356  0.8699 -0.6376  0.5845
 2471Sol     MW12842   1.306   2.055  10.394  0.0288 -0.2640 -0.4867
 2472Sol     OW12843   1.110   1.783   8.324  0.5913  0.0379 -0.1416
 2472Sol     HW12844   1.145   1.847   8.386  0.1828  0.6547 -0.5435
 2472Sol     HW12845   1.053   1.727   8.376 -1.7109  2.0925 -0.4254
 2472Sol     MW12846   1.108   1.784   8.334  0.6571 -0.0482  0.2919
 2473Sol     OW12847   3.031   3.243   1.834 -0.1671  0.2910 -0.0524
 2473Sol     HW12848   3.035   3.288   1.918 -0.2070 -0.2324  0.2367
 2473Sol     HW12849   3.036   3.150   1.857 -1.5440  0.0912 -0.5295
 2473Sol     MW12850   3.032   3.238   1.843 -0.1166  0.2382 -0.4000
 2474Sol     OW12851   0.386   0.792   5.950  0.2452 -0.5748 -0.1898
 2474Sol     HW12852   0.370   0.719   6.011  2.8872  0.3706  1.7411
 2474Sol     HW12853   0.335   0.769   5.872 -1.7603 -2.7610  1.6485
 2474Sol     MW12854   0.380   0.783   5.949  0.0762 -0.3212 -0.3483
 2475Sol     OW12855   0.608   1.041   1.616 -0.2933  0.1733  0.0154
 2475Sol     HW12856   0.636   1.123   1.656 -2.5521  0.7874  0.4267
 2475Sol     HW12857   0.679   0.980   1.633  0.9555  1.7633  0.6071
 2475Sol     MW12858   0.617   1.043   1.621  0.1295 -0.0416 -0.4568
 2476Sol     OW12859   3.210   0.629   7.729  0.0152 -0.5956  0.1504
 2476Sol     HW12860   3.183   0.547   7.770 -0.4593 -0.6067 -0.1874
 2476Sol     HW12861   3.166   0.629   7.644  0.8607 -0.4894 -0.2927
 2476Sol     MW12862   3.204   0.621   7.725  0.1890 -0.0075  0.3654
 2477Sol     OW12863   1.966   1.633   4.397  0.1244 -0.3803  0.4478
 2477Sol     HW12864   1.998   1.711   4.442 -0.2948  0.5237 -0.8035
 2477Sol     HW12865   1.905   1.593   4.460 -0.2182  0.6933  0.8229
 2477Sol     MW12866   1.963   1.636   4.407 -0.5076 -0.7609  0.3666
 2478Sol     OW12867   2.147   1.152   2.272  0.3148 -0.1987 -0.6053
 2478Sol     HW12868   2.219   1.190   2.222  3.2198 -2.0574  1.9716
 2478Sol     HW12869   2.124   1.073   2.225  1.1159 -0.4775 -0.5324
 2478Sol     MW12870   2.151   1.149   2.264  0.4364  0.0205  0.2247
 2479Sol     OW12871   1.619   1.738   4.654  0.1317  0.1107 -1.1952
 2479Sol     HW12872   1.532   1.700   4.662  0.6074 -0.9647 -1.0282
 2479Sol     HW12873   1.617   1.816   4.710 -1.0447  0.6982 -2.0358
 2479Sol     MW12874   1.611   1.742   4.660 -0.1794 -0.3932  0.0433
 2480Sol     OW12875   1.622   1.369   2.252 -1.1099  0.3628 -0.7605
 2480Sol     HW12876   1.585   1.337   2.334  1.6025  1.6392  1.0238
 2480Sol     HW12877   1.669   1.294   2.216 -0.7657  0.3349 -0.2417
 2480Sol     MW12878   1.623   1.359   2.256  0.1863  0.2227 -0.5743
 2481Sol     OW12879   3.097   0.194   4.824  0.3430 -0.4658 -0.2103
 2481Sol     HW12880   3.183   0.168   4.790  0.2221 -0.1251 -0.7923
 2481Sol     HW12881   3.109   0.198   4.919  0.3380 -2.7203 -0.0738
 2481Sol     MW12882   3.106   0.192   4.829 -0.0348 -0.0237 -0.3674
 2482Sol     OW12883   3.204   0.235   7.272  0.2481  0.9706 -0.0126
 2482Sol     HW12884   3.112   0.263   7.274  0.1024  0.4225  1.7607
 2482Sol     HW12885   3.218   0.190   7.356  2.5170  2.2784  0.3618
 2482Sol     MW12886   3.197   0.234   7.280 -0.1500  0.6322  0.0054
 2483Sol     OW12887   2.052   1.867   4.487 -0.0093  0.0611 -0.6766
 2483Sol     HW12888   2.121   1.879   4.553  0.6326 -1.5818 -1.0396
 2483Sol     HW12889   1.996   1.945   4.497  0.6786  0.3571  1.0821
 2483Sol     MW12890   2.053   1.875   4.494  0.4000 -0.4472  0.0328
 2484Sol     OW12891   2.249   3.017   4.908  0.2647 -0.5310 -0.4290
 2484Sol     HW12892   2.169   2.968   4.924 -0.8657  1.3302 -0.2178
 2484Sol     HW12893   2.314   2.951   4.883 -1.2478 -2.0841 -0.2943
 2484Sol     MW12894   2.248   3.007   4.907 -0.5178 -0.3168  0.1592
 2485Sol     OW12895   0.890   1.260   8.644  0.3292  0.4985 -0.1766
 2485Sol     HW12896   0.862   1.323   8.577  1.7440  1.8003  0.4260
 2485Sol     HW12897   0.824   1.267   8.713 -0.4365  0.0813 -0.8587
 2485Sol     MW12898   0.882   1.266   8.644  0.0731  0.4306  0.2849
 2486Sol     OW12899   3.013   1.445   4.543  0.6695  0.3269 -0.1320
 2486Sol     HW12900   2.968   1.439   4.628  1.4258  2.3530  0.4364
 2486Sol     HW12901   3.105   1.458   4.566  0.7072  2.1261 -1.2390
 2486Sol     MW12902   3.017   1.445   4.553  0.1324  0.2103 -0.0317
 2487Sol     OW12903   2.432   0.619   5.450 -0.8973  0.2337 -0.0232
 2487Sol     HW12904   2.380   0.591   5.375 -0.5185  0.5479 -0.4119
 2487Sol     HW12905   2.434   0.543   5.508 -1.5814  0.1452 -0.1164
 2487Sol     MW12906   2.428   0.609   5.449 -0.1403 -0.2840  0.5301
 2488Sol     OW12907   0.595   1.096   3.578  0.0271  0.0599 -0.1807
 2488Sol     HW12908   0.672   1.043   3.556  1.3049  1.7957 -0.0639
 2488Sol     HW12909   0.590   1.090   3.674  0.6472  0.7573 -0.0965
 2488Sol     MW12910   0.602   1.091   3.585 -0.2242 -0.3631  0.0430
 2489Sol     OW12911   2.363   2.466   3.972 -0.5054 -0.1976  0.7233
 2489Sol     HW12912   2.306   2.440   4.043 -0.0739  0.7331  1.4284
 2489Sol     HW12913   2.416   2.389   3.953 -1.6001 -0.8833  0.4502
 2489Sol     MW12914   2.363   2.457   3.976 -0.2923  1.0241 -0.1970
 2490Sol     OW12915   1.321   2.631   8.597 -0.0325  0.3199  0.1049
 2490Sol     HW12916   1.404   2.625   8.550  0.1979  1.2251  0.3802
 2490Sol     HW12917   1.344   2.609   8.688 -0.3470 -0.7439 -0.0635
 2490Sol     MW12918   1.330   2.628   8.601  0.3713  0.2002 -0.4523
 2491Sol     OW12919   3.105   1.718   4.719  0.2920 -0.3121  0.1214
 2491Sol     HW12920   3.082   1.811   4.725  0.4818 -0.1153 -1.8861
 2491Sol     HW12921   3.140   1.696   4.805 -0.4871  1.2798  0.8563
 2491Sol     MW12922   3.106   1.724   4.727 -0.0475 -0.3772 -0.5660
 2492Sol     OW12923   2.708   1.846   9.548 -0.0779 -1.0555 -0.0578
 2492Sol     HW12924   2.662   1.846   9.464  0.9500  0.4821 -0.6316
 2492Sol     HW12925   2.783   1.788   9.535  0.2817 -0.5332 -0.3139
 2492Sol     MW12926   2.710   1.840   9.539 -0.4301 -0.2270  0.5009
 2493Sol     OW12927   2.748   2.625   8.031 -0.3681 -0.8696  0.5666
 2493Sol     HW12928   2.666   2.588   8.064 -1.3887  0.5304 -0.3255
 2493Sol     HW12929   2.753   2.593   7.941 -0.2607 -0.4478  0.4215
 2493Sol     MW12930   2.741   2.619   8.026  0.1614 -0.4140  0.3375
 2494Sol     OW12931   3.152   2.862   9.899  0.1835 -0.1187  0.5255
 2494Sol     HW12932   3.222   2.927   9.891 -1.2142  1.5143  1.3162
 2494Sol     HW12933   3.158   2.833   9.990  1.6870 -2.1666 -0.1796
 2494Sol     MW12934   3.159   2.865   9.907  0.3519 -0.3090 -0.7799
 2495Sol     OW12935   1.738   0.699   7.211 -0.0261 -0.1663  0.5686
 2495Sol     HW12936   1.718   0.611   7.243 -0.8480  0.0270  0.6069
 2495Sol     HW12937   1.796   0.684   7.137 -1.2486 -0.8288 -0.2869
 2495Sol     MW12938   1.741   0.690   7.207  0.0991 -0.0852 -0.1349
 2496Sol     OW12939   2.346   1.934   3.467  0.1667 -0.3984  0.2562
 2496Sol     HW12940   2.374   1.980   3.546 -1.0286 -1.4905  1.3549
 2496Sol     HW12941   2.424   1.929   3.413  0.9602  0.5315  1.2907
 2496Sol     MW12942   2.355   1.938   3.470  0.1636 -0.7949  0.2492
 2497Sol     OW12943   1.335   1.730   2.993 -0.4241  0.4763 -0.5926
 2497Sol     HW12944   1.361   1.663   3.056 -1.7474 -1.0060 -1.5741
 2497Sol     HW12945   1.269   1.781   3.039 -2.3640 -1.4243 -1.1564
 2497Sol     MW12946   1.331   1.728   3.003 -0.0889  0.1660  0.1397
 2498Sol     OW12947   0.293   3.227   4.518 -0.5995  0.0792  0.0867
 2498Sol     HW12948   0.306   3.134   4.499 -0.2469  0.1586 -0.0685
 2498Sol     HW12949   0.218   3.229   4.577  0.3017 -0.4163  1.2722
 2498Sol     MW12950   0.287   3.219   4.522  0.3452 -0.5200  0.4461
 2499Sol     OW12951   2.969   2.451   9.947 -0.6621 -0.4699  0.2707
 2499Sol     HW12952   2.975   2.530   9.893 -2.4587  1.1535  2.3859
 2499Sol     HW12953   2.892   2.464  10.002  1.9583 -1.3380  4.3745
 2499Sol     MW12954   2.963   2.459   9.947 -0.1774 -0.0296  0.2454
 2500Sol     OW12955   1.319   1.010   5.070 -0.5653  0.4796  0.6217
 2500Sol     HW12956   1.332   0.996   5.164 -1.0080 -0.4190  0.5600
 2500Sol     HW12957   1.400   1.052   5.040 -0.0833  0.0202  1.2580
 2500Sol     MW12958   1.328   1.012   5.076  0.1930 -0.4184  0.0570
 2501Sol     OW12959   2.688   0.555   9.129 -0.0246 -0.9270 -0.0111
 2501Sol     HW12960   2.662   0.578   9.219  0.2729 -1.0919  0.1198
 2501Sol     HW12961   2.610   0.572   9.076  0.4295  1.2264 -0.0518
 2501Sol     MW12962   2.679   0.559   9.133  0.0655 -0.1238 -0.0689
 2502Sol     OW12963   3.228   0.626   5.151  0.1513  0.4361  0.3125
 2502Sol     HW12964   3.167   0.664   5.088  0.6423 -0.2448 -0.5819
 2502Sol     HW12965   3.197   0.537   5.164  1.5253 -0.2460 -0.9303
 2502Sol     MW12966   3.220   0.621   5.146  0.1668  0.1167  0.0981
 2503Sol     OW12967   2.059   3.055   3.166  0.0889  0.1493  0.0274
 2503Sol     HW12968   2.056   3.146   3.197 -0.8698 -0.3856  1.5450
 2503Sol     HW12969   2.064   3.063   3.071  0.6852  1.7985  0.1671
 2503Sol     MW12970   2.059   3.064   3.161  0.9164  0.2290 -0.4236
 2504Sol     OW12971   1.129   3.083   6.460 -0.0715 -0.3513 -0.1074
 2504Sol     HW12972   1.112   3.044   6.546 -1.5297  0.5711  0.0334
 2504Sol     HW12973   1.053   3.058   6.407  0.0901  0.3763 -0.6809
 2504Sol     MW12974   1.121   3.077   6.463  0.5818  0.6741  0.3289
 2505Sol     OW12975   2.040   0.245   6.248 -0.2999  0.0924  0.0087
 2505Sol     HW12976   1.956   0.267   6.288  0.1947  1.3496  0.3593
 2505Sol     HW12977   2.082   0.185   6.310 -1.9274 -2.4638 -1.2570
 2505Sol     MW12978   2.036   0.241   6.257 -0.0416  0.0202  0.3096
 2506Sol     OW12979   2.880   2.045   1.527  0.1713 -0.1213  0.7231
 2506Sol     HW12980   2.879   1.962   1.574  1.6999 -0.1596  0.6927
 2506Sol     HW12981   2.969   2.053   1.494  0.8862  2.9292  3.1897
 2506Sol     MW12982   2.888   2.038   1.528 -0.1302 -0.2638 -0.1381
 2507Sol     OW12983   3.167   0.127   5.539 -0.5388 -0.1868 -0.1608
 2507Sol     HW12984   3.128   0.192   5.598  1.4604  1.9432 -1.1203
 2507Sol     HW12985   3.165   0.168   5.453  0.4086 -1.5805 -0.8606
 2507Sol     MW12986   3.163   0.136   5.537 -0.3391  0.2146 -0.0744
 2508Sol     OW12987   0.179   1.276   3.246 -0.0816  0.0733 -0.0379
 2508Sol     HW12988   0.251   1.273   3.309 -0.9149 -0.0367  0.9222
 2508Sol     HW12989   0.105   1.311   3.296 -1.0863 -1.1857 -0.6229
 2508Sol     MW12990   0.179   1.279   3.256  0.6133  0.2049 -0.4763
 2509Sol     OW12991   1.572   1.120   2.732 -0.1485  0.0492 -0.0809
 2509Sol     HW12992   1.614   1.103   2.648 -0.6548  0.7458 -0.4716
 2509Sol     HW12993   1.484   1.085   2.723  0.3069 -1.3471  0.7180
 2509Sol     MW12994   1.568   1.115   2.724  0.2933  0.0687 -0.1351
 2510Sol     OW12995   2.896   0.005   9.222  0.0288  0.3060  0.0172
 2510Sol     HW12996   2.952   0.067   9.269  0.2318  0.8481 -0.9235
 2510Sol     HW12997   2.942  -0.079   9.228  0.5808  0.5973 -0.1369
 2510Sol     MW12998   2.905   0.003   9.227 -0.2455  0.2966  0.1111
 2511Sol     OW12999   0.623   1.859   4.025 -0.3429  0.3139 -0.1144
 2511Sol     HW13000   0.535   1.887   4.000  0.1693  0.7211 -1.4925
 2511Sol     HW13001   0.612   1.768   4.052 -1.0283  0.0410 -1.2697
 2511Sol     MW13002   0.614   1.853   4.025 -0.0275 -0.0424 -0.2987
 2512Sol     OW13003   2.661   1.582   1.772 -0.3003  0.4558 -0.4470
 2512Sol     HW13004   2.715   1.660   1.759 -1.2960  1.9172  3.5625
 2512Sol     HW13005   2.571   1.614   1.766 -0.7212 -0.7377 -0.5537
 2512Sol     MW13006   2.658   1.592   1.770 -0.1944 -0.5047 -0.8046
 2513Sol     OW13007   1.051   2.943   3.493  0.0872  0.0734 -0.5360
 2513Sol     HW13008   1.027   2.852   3.480  0.2795 -0.5510  2.8474
 2513Sol     HW13009   1.143   2.948   3.467  0.7528 -1.2980  1.4203
 2513Sol     MW13010   1.057   2.935   3.490  0.2680 -0.3517  0.1362
 2514Sol     OW13011   1.999   0.286   3.677 -0.3254  0.6178  0.2404
 2514Sol     HW13012   2.045   0.326   3.603  0.6380  1.0731  1.0698
 2514Sol     HW13013   1.982   0.358   3.737  1.0285 -0.1081  1.5416
 2514Sol     MW13014   2.002   0.296   3.676 -0.1811 -0.0784 -0.0730
 2515Sol     OW13015   1.959   1.843   3.480  0.0976  0.0196  0.0072
 2515Sol     HW13016   1.905   1.767   3.458 -1.8380  1.3810 -0.0518
 2515Sol     HW13017   2.048   1.818   3.452 -0.9489 -1.2582 -2.3440
 2515Sol     MW13018   1.962   1.834   3.475  0.9186  0.5349 -0.0790
 2516Sol     OW13019   2.296   2.573   7.733 -0.2646 -0.2165 -0.0757
 2516Sol     HW13020   2.316   2.614   7.649  0.8198  1.7219  1.0786
 2516Sol     HW13021   2.326   2.637   7.798  1.8193 -3.0158  1.8268
 2516Sol     MW13022   2.300   2.583   7.732  0.1052  0.0103  0.4433
 2517Sol     OW13023   1.216   0.720   5.462 -0.1420  0.3173 -0.3543
 2517Sol     HW13024   1.206   0.693   5.371  1.4280  0.0922 -0.4796
 2517Sol     HW13025   1.306   0.695   5.485 -0.9906 -1.0035  1.7169
 2517Sol     MW13026   1.223   0.715   5.456  0.1454 -0.2316 -0.3518
 2518Sol     OW13027   1.182   2.720   5.045 -0.0514 -0.6461 -0.3966
 2518Sol     HW13028   1.112   2.665   5.080  1.4480 -2.2315  0.2439
 2518Sol     HW13029   1.198   2.785   5.113  0.1565 -1.2630  0.1512
 2518Sol     MW13030   1.177   2.721   5.054 -0.0184 -0.0962  0.1214
 2519Sol     OW13031   2.529   1.441   7.311  0.0493  0.3935  0.4206
 2519Sol     HW13032   2.474   1.381   7.261 -1.5599  1.2196  1.1349
 2519Sol     HW13033   2.558   1.389   7.386  1.1350 -0.3612 -0.5081
 2519Sol     MW13034   2.527   1.431   7.314 -0.3773  0.3522 -0.0331
 2520Sol     OW13035   0.544   2.798   3.089  0.1305  0.5881  0.0929
 2520Sol     HW13036   0.618   2.858   3.082  0.0197  0.7051 -0.0800
 2520Sol     HW13037   0.486   2.837   3.154 -0.3981  1.1556 -0.7048
 2520Sol     MW13038   0.546   2.807   3.094 -0.0105 -0.4219 -0.4044
 2521Sol     OW13039   0.460   0.078   2.917 -0.0132  0.4410  0.5698
 2521Sol     HW13040   0.555   0.090   2.919 -0.0729  0.8223  1.1643
 2521Sol     HW13041   0.447   0.002   2.860  0.5833  1.0709 -0.4356
 2521Sol     MW13042   0.467   0.072   2.912 -0.3380 -0.2848 -0.1828
 2522Sol     OW13043   0.377   2.704   5.080 -0.5500 -0.2881  0.3969
 2522Sol     HW13044   0.285   2.697   5.105 -0.5858  1.6716  0.8830
 2522Sol     HW13045   0.378   2.759   5.002  0.2390  0.0217  0.6128
 2522Sol     MW13046   0.369   2.708   5.075  0.0331  0.1068  0.5566
 2523Sol     OW13047   1.805   0.909   3.393 -0.4531 -0.2117 -0.1210
 2523Sol     HW13048   1.836   0.855   3.320  1.0064  0.3194  0.0980
 2523Sol     HW13049   1.769   0.987   3.351  1.1963  0.4941 -0.2419
 2523Sol     MW13050   1.804   0.911   3.382  0.3512  0.0027 -0.2667
 2524Sol     OW13051   0.667   3.146   9.301 -0.2433 -0.3278  0.2968
 2524Sol     HW13052   0.609   3.104   9.238 -0.7102 -1.7270  1.6436
 2524Sol     HW13053   0.644   3.107   9.385 -0.0304  1.9526  1.4439
 2524Sol     MW13054   0.660   3.138   9.302 -0.9882  0.3554  0.3412
 2525Sol     OW13055   3.003   3.401   8.354  0.0728 -0.2045  0.4780
 2525Sol     HW13056   3.028   3.466   8.288  1.8869 -0.4853  0.8428
 2525Sol     HW13057   3.015   3.317   8.310  0.4585 -0.3678  0.8924
 2525Sol     MW13058   3.007   3.399   8.344  0.1418 -0.1955 -0.4176
 2526Sol     OW13059   2.504   1.026   2.971 -0.1694 -0.3287  0.1061
 2526Sol     HW13060   2.481   0.972   3.047 -1.6194 -0.7161 -0.5775
 2526Sol     HW13061   2.424   1.028   2.918  0.1011  1.8446 -0.2845
 2526Sol     MW13062   2.495   1.021   2.973  0.1248 -0.3222  0.2493
 2527Sol     OW13063   1.417   2.663   3.973  0.0283  0.2778  0.3415
 2527Sol     HW13064   1.368   2.695   4.049  1.0606  0.0853  1.0931
 2527Sol     HW13065   1.380   2.712   3.899 -0.6499  0.8215  1.0262
 2527Sol     MW13066   1.409   2.670   3.973  0.1356 -0.5763  0.0824
 2528Sol     OW13067   1.716   2.478   7.974 -0.2152 -0.7328  0.4363
 2528Sol     HW13068   1.670   2.494   8.056 -0.0201  0.3595  0.3391
 2528Sol     HW13069   1.719   2.382   7.966 -2.4139 -0.8405  0.4826
 2528Sol     MW13070   1.712   2.471   7.980  0.1711  0.3031 -0.3222
 2529Sol     OW13071   0.420   3.055   2.365  0.4963  0.1197 -0.2454
 2529Sol     HW13072   0.489   3.115   2.393  1.1690 -1.1059  0.7704
 2529Sol     HW13073   0.464   2.971   2.354 -1.1638 -1.0982  2.1524
 2529Sol     MW13074   0.430   3.053   2.366  0.0749 -0.2977 -0.2446
 2530Sol     OW13075   1.414   2.404  10.084 -0.3284 -0.6505 -0.2780
 2530Sol     HW13076   1.417   2.317  10.044  1.8368 -0.3262 -0.8535
 2530Sol     HW13077   1.438   2.464  10.014  1.2551  0.1323  0.9035
 2530Sol     MW13078   1.416   2.402  10.074  0.8234 -0.1721 -0.4220
 2531Sol     OW13079   1.293   3.168   7.438 -0.2772 -0.4785  0.7187
 2531Sol     HW13080   1.250   3.083   7.440  0.6561 -0.9531  2.0584
 2531Sol     HW13081   1.305   3.190   7.530 -0.3295  1.0190  0.3764
 2531Sol     MW13082   1.291   3.162   7.447  0.2188  0.5002 -0.2383
 2532Sol     OW13083   0.561   1.605   3.810  0.9686 -0.3124 -0.4987
 2532Sol     HW13084   0.504   1.579   3.883  1.2795  0.0202 -0.1413
 2532Sol     HW13085   0.539   1.543   3.740  0.3334 -0.3317 -0.2813
 2532Sol     MW13086   0.554   1.597   3.810  0.0215 -0.1992  0.3650
 2533Sol     OW13087   2.232   0.388   5.033  0.1459 -0.6299  0.1077
 2533Sol     HW13088   2.307   0.394   4.974 -0.4690  1.8625 -0.4551
 2533Sol     HW13089   2.159   0.361   4.977  0.2290 -1.3108  0.3231
 2533Sol     MW13090   2.232   0.386   5.023  0.1329  0.3303  0.4192
 2534Sol     OW13091   3.064   1.398   8.511  0.1238 -0.1606  0.5052
 2534Sol     HW13092   3.058   1.326   8.448  1.1826  1.9871 -2.1377
 2534Sol     HW13093   3.139   1.376   8.566  1.0422 -0.6031 -0.9103
 2534Sol     MW13094   3.070   1.390   8.510  0.0471  0.2295  0.5194
 2535Sol     OW13095   2.522   3.307   8.862  0.2485 -0.4323  0.8296
 2535Sol     HW13096   2.571   3.273   8.787 -0.1764 -2.9585  1.6396
 2535Sol     HW13097   2.570   3.385   8.889  1.8270 -0.8935 -0.5509
 2535Sol     MW13098   2.531   3.311   8.858 -0.3525 -0.2225  0.4980
 2536Sol     OW13099   2.145   1.239   7.320  0.2831  0.4809 -0.0612
 2536Sol     HW13100   2.100   1.195   7.248 -0.0667  0.3741  0.2197
 2536Sol     HW13101   2.078   1.297   7.358 -0.2730 -1.2782  1.7305
 2536Sol     MW13102   2.135   1.241   7.317 -0.4287  0.1162  0.5502
 2537Sol     OW13103   1.884   2.486   6.553  0.3703  0.3505  0.7192
 2537Sol     HW13104   1.821   2.556   6.569  0.6764  0.5013  1.3062
 2537Sol     HW13105   1.964   2.517   6.595  1.7525  1.5321 -2.6307
 2537Sol     MW13106   1.885   2.495   6.559 -0.0981 -0.3148  0.4249
 2538Sol     OW13107   2.295   0.887   1.845  0.0430 -0.4668 -0.2404
 2538Sol     HW13108   2.253   0.923   1.766 -1.2208 -1.6776 -0.1436
 2538Sol     HW13109   2.308   0.794   1.825 -0.9026 -0.9247  1.2258
 2538Sol     MW13110   2.292   0.882   1.836 -0.2165 -0.6691 -0.2161
 2539Sol     OW13111   0.872   3.173   2.906  0.0548  0.6472 -0.2717
 2539Sol     HW13112   0.802   3.128   2.954  0.9368 -0.0092  0.4042
 2539Sol     HW13113   0.831   3.200   2.824 -1.3185  1.2669  0.5909
 2539Sol     MW13114   0.862   3.172   2.903 -0.1268 -0.4960  0.0814
 2540Sol     OW13115   2.988   3.222   9.867  0.7756  0.1513 -0.3264
 2540Sol     HW13116   3.052   3.210   9.797 -0.6183 -2.3933 -1.2416
 2540Sol     HW13117   3.023   3.172   9.940  2.0183  2.4585  0.6946
 2540Sol     MW13118   2.997   3.216   9.867 -0.3653 -0.1964  0.4139
 2541Sol     OW13119   0.139   1.305   5.775  0.3482 -0.0112 -0.0684
 2541Sol     HW13120   0.154   1.379   5.716 -0.5417  1.0865  1.0709
 2541Sol     HW13121   0.212   1.309   5.837  1.2239 -1.1010 -0.9980
 2541Sol     MW13122   0.147   1.312   5.775 -0.0102 -0.2180  0.4618
 2542Sol     OW13123   1.008   2.661   7.334  0.2341 -0.2965  0.2562
 2542Sol     HW13124   0.964   2.652   7.250 -0.6424  3.2111  0.2716
 2542Sol     HW13125   1.001   2.574   7.374 -2.7336 -1.0115 -1.6472
 2542Sol     MW13126   1.003   2.652   7.330 -0.5805 -0.1347  0.1815
 2543Sol     OW13127   3.240   1.054   6.825 -0.1411  0.5936  0.0943
 2543Sol     HW13128   3.296   1.131   6.829 -0.2765  0.6767  0.3756
 2543Sol     HW13129   3.212   1.049   6.733  0.6088  0.3462 -0.1260
 2543Sol     MW13130   3.242   1.060   6.817  0.2377  0.3641 -0.1524
 2544Sol     OW13131   1.897   1.508   8.524 -0.1512 -0.0310  0.3021
 2544Sol     HW13132   1.970   1.495   8.584 -0.8853 -0.4507  1.1276
 2544Sol     HW13133   1.930   1.478   8.439  0.9873  0.8317  0.4259
 2544Sol     MW13134   1.906   1.504   8.522 -0.0830  0.4920  0.2119
 2545Sol     OW13135   0.199   1.790   5.168 -0.3830 -0.1091  0.1295
 2545Sol     HW13136   0.265   1.721   5.162 -0.4932 -0.1167 -0.9590
 2545Sol     HW13137   0.247   1.871   5.152 -0.3963  0.0100  0.6660
 2545Sol     MW13138   0.209   1.791   5.166 -0.1623  0.0821 -0.5839
 2546Sol     OW13139   2.939   0.445   3.883  0.4101  0.0600 -0.4281
 2546Sol     HW13140   3.013   0.504   3.893  0.5187 -0.1870  0.2960
 2546Sol     HW13141   2.962   0.389   3.809  1.2380 -0.4339  0.1975
 2546Sol     MW13142   2.948   0.445   3.877 -0.1220  0.0570 -0.2624
 2547Sol     OW13143   2.333   1.527   2.127 -0.0817 -0.4343  0.1749
 2547Sol     HW13144   2.374   1.603   2.085  0.7511 -0.8745  0.1890
 2547Sol     HW13145   2.243   1.527   2.094  0.6934 -1.0880 -2.0423
 2547Sol     MW13146   2.329   1.534   2.120  0.4509 -0.0853 -0.3866
 2548Sol     OW13147   2.317   2.602   3.348  0.2354 -0.0818 -0.2632
 2548Sol     HW13148   2.351   2.517   3.321  0.3525 -0.1284  0.0351
 2548Sol     HW13149   2.225   2.586   3.369  0.5812 -0.3991  1.0459
 2548Sol     MW13150   2.312   2.593   3.347 -0.4131  0.4240  0.4818
 2549Sol     OW13151   2.061   2.680   4.808 -0.4628 -0.3940  0.0051
 2549Sol     HW13152   2.132   2.626   4.842  0.5717  0.4795 -0.7640
 2549Sol     HW13153   2.043   2.743   4.879  0.4457  0.2440 -0.3231
 2549Sol     MW13154   2.066   2.681   4.818  0.2986  0.0634  0.6353
 2550Sol     OW13155   0.386   2.421   4.394 -0.3216 -0.7113 -0.5249
 2550Sol     HW13156   0.309   2.420   4.450 -1.2661  0.1689 -1.7782
 2550Sol     HW13157   0.415   2.329   4.391 -1.1669 -1.0025  0.1363
 2550Sol     MW13158   0.382   2.412   4.399  0.3378 -0.1873 -0.3769
 2551Sol     OW13159   2.846   0.500   5.623  0.4763  0.1040 -0.4295
 2551Sol     HW13160   2.924   0.545   5.590  0.5291  1.6257  1.6847
 2551Sol     HW13161   2.773   0.552   5.590  0.5257  1.5499  1.6841
 2551Sol     MW13162   2.847   0.508   5.617  0.0534  0.1005  0.3913
 2552Sol     OW13163   2.776   1.797   2.456  0.2129 -0.2623  0.5534
 2552Sol     HW13164   2.837   1.773   2.526  1.2251  0.7594  0.0330
 2552Sol     HW13165   2.742   1.713   2.425  0.8650 -0.8043  1.2771
 2552Sol     MW13166   2.779   1.787   2.460 -0.1068  0.5346  0.0572
 2553Sol     OW13167   0.893   1.527   9.667  0.0672 -0.3366  0.2890
 2553Sol     HW13168   0.943   1.570   9.598  1.4371 -1.3352  0.6482
 2553Sol     HW13169   0.813   1.580   9.675 -0.5866 -0.7792 -2.7406
 2553Sol     MW13170   0.890   1.536   9.661 -0.0348 -0.0260 -0.3909
 2554Sol     OW13171   1.907   3.164   4.074 -0.0500  0.7819  0.1718
 2554Sol     HW13172   1.892   3.216   4.153  0.8219  0.7656  0.3601
 2554Sol     HW13173   1.998   3.135   4.082  0.0031  0.6717 -0.7790
 2554Sol     MW13174   1.914   3.166   4.082 -0.5729  0.1772 -0.2295
 2555Sol     OW13175   0.906   0.652   6.828  0.4043  0.0119 -0.1293
 2555Sol     HW13176   0.858   0.734   6.814 -1.3733 -0.9322  0.2006
 2555Sol     HW13177   0.992   0.668   6.790  0.3394  2.2758  0.5955
 2555Sol     MW13178   0.909   0.661   6.823 -0.3123 -0.0068  0.4075
 2556Sol     OW13179   0.791   2.395   2.641  0.1480  0.0453 -0.0226
 2556Sol     HW13180   0.868   2.446   2.618  0.2685 -0.5142 -0.8814
 2556Sol     HW13181   0.824   2.308   2.662 -0.2469 -0.1962 -0.3875
 2556Sol     MW13182   0.801   2.392   2.641  0.7223  0.1362  0.2012
 2557Sol     OW13183   0.905   3.211   5.600  0.5131  0.4226 -0.3414
 2557Sol     HW13184   0.976   3.150   5.620  0.4503  0.4629  0.0212
 2557Sol     HW13185   0.893   3.261   5.681 -2.0495 -1.7415  0.6938
 2557Sol     MW13186   0.910   3.210   5.609 -0.0425 -0.0354  0.0332
 2558Sol     OW13187   1.046   0.824   2.467 -0.2221 -0.5787  0.0567
 2558Sol     HW13188   1.083   0.775   2.394  0.6461  0.1856 -0.0276
 2558Sol     HW13189   1.116   0.827   2.532 -1.0763 -1.4626  1.0260
 2558Sol     MW13190   1.055   0.820   2.466  0.4901 -0.3561 -0.0987
 2559Sol     OW13191   2.945   3.271   6.935  0.2451 -0.1988  0.1571
 2559Sol     HW13192   3.031   3.233   6.919  1.4794  1.8628  1.5133
 2559Sol     HW13193   2.951   3.360   6.899 -1.1064  0.1568  0.7743
 2559Sol     MW13194   2.953   3.276   6.931 -0.4034 -0.3967 -0.1129
 2560Sol     OW13195   0.924   0.071   8.533 -0.4896 -0.0660 -0.0269
 2560Sol     HW13196   0.950   0.085   8.442 -1.0965 -0.2944 -0.2397
 2560Sol     HW13197   0.843   0.122   8.542 -0.1625  0.3594  0.5258
 2560Sol     MW13198   0.919   0.077   8.526  0.0514  0.4592  0.2284
 2561Sol     OW13199   0.709   0.917   8.219  0.2415 -0.3915  0.3067
 2561Sol     HW13200   0.762   0.845   8.252  0.3699 -0.1143  0.7133
 2561Sol     HW13201   0.772   0.983   8.191  0.1164  0.0731  1.0929
 2561Sol     MW13202   0.719   0.917   8.220  0.0281 -0.5792 -0.0545
 2562Sol     OW13203   0.220   2.920   3.625 -0.4024 -0.0944 -0.0580
 2562Sol     HW13204   0.223   2.912   3.721  3.5925  1.3650  0.0749
 2562Sol     HW13205   0.234   2.831   3.593 -0.8431 -0.4501  0.7254
 2562Sol     MW13206   0.222   2.911   3.631  0.8388 -0.8728  0.1055
 2563Sol     OW13207   0.804   2.483   3.451  0.1293  0.6082  0.4494
 2563Sol     HW13208   0.825   2.390   3.451 -1.4892  0.1459 -3.2206
 2563Sol     HW13209   0.752   2.496   3.531 -2.5136 -2.4355 -0.6577
 2563Sol     MW13210   0.801   2.476   3.458  0.2191  0.5272 -0.1120
 2564Sol     OW13211   1.906   0.208  10.110  0.2007 -0.1124  0.0556
 2564Sol     HW13212   1.833   0.153  10.137  0.2250 -0.9861 -1.6066
 2564Sol     HW13213   1.970   0.147  10.073  1.2078  0.7867  0.2861
 2564Sol     MW13214   1.905   0.198  10.109  0.0389 -0.4682  0.3641
 2565Sol     OW13215   0.318   2.242   9.424 -0.2308 -0.0593 -0.5351
 2565Sol     HW13216   0.263   2.298   9.369 -1.5351 -0.8815 -0.0752
 2565Sol     HW13217   0.266   2.227   9.503  0.0868 -1.9583 -0.6671
 2565Sol     MW13218   0.309   2.246   9.426  0.0628  0.1800 -0.2412
 2566Sol     OW13219   2.326   0.423   8.734  0.1893 -0.5775  0.3471
 2566Sol     HW13220   2.376   0.405   8.813 -0.8503 -0.2079  1.0930
 2566Sol     HW13221   2.289   0.338   8.710 -0.5303 -0.4388  0.9701
 2566Sol     MW13222   2.327   0.414   8.739  0.5350  0.1182 -0.1844
 2567Sol     OW13223   2.808   2.846   6.280 -0.1695 -0.0813 -0.2346
 2567Sol     HW13224   2.745   2.777   6.258  1.2999 -1.4572 -0.2341
 2567Sol     HW13225   2.892   2.800   6.287  0.5382  1.4284  1.5271
 2567Sol     MW13226   2.810   2.835   6.279  0.3468  0.7012 -0.0101
 2568Sol     OW13227   2.886   2.369   8.360  0.6299  0.2322 -0.5095
 2568Sol     HW13228   2.914   2.278   8.354  0.9802  0.3578 -0.7908
 2568Sol     HW13229   2.938   2.415   8.294 -0.7680  0.3524 -1.5457
 2568Sol     MW13230   2.893   2.365   8.354  0.9324  0.1280  0.4668
 2569Sol     OW13231   2.173   0.417   7.852 -0.2755 -0.0877  0.4602
 2569Sol     HW13232   2.198   0.455   7.936 -2.3253  1.2607  0.5285
 2569Sol     HW13233   2.145   0.492   7.800 -0.2337 -1.0533 -0.9853
 2569Sol     MW13234   2.172   0.427   7.855  0.3579 -0.3425  0.0110
 2570Sol     OW13235   0.784   0.945   9.558  0.2121  1.2425  0.4105
 2570Sol     HW13236   0.691   0.949   9.578  0.5566  1.3094  1.9971
 2570Sol     HW13237   0.790   0.975   9.467 -1.4035  0.4030  0.0101
 2570Sol     MW13238   0.776   0.948   9.551 -0.1014  0.1780  0.4555
 2571Sol     OW13239   1.827   0.479   9.205  0.2007  0.2839 -0.2355
 2571Sol     HW13240   1.922   0.482   9.192  0.2469 -2.6316 -1.1031
 2571Sol     HW13241   1.806   0.385   9.201 -2.8856  0.9663 -1.3621
 2571Sol     MW13242   1.833   0.471   9.204  0.5713 -0.4619 -0.0527
 2572Sol     OW13243   1.844   2.628   1.696  0.2944 -0.1330 -0.4741
 2572Sol     HW13244   1.903   2.556   1.716 -1.2438 -1.7853 -1.8017
 2572Sol     HW13245   1.887   2.675   1.624 -0.3165 -1.7300 -1.8956
 2572Sol     MW13246   1.853   2.626   1.691  0.0165 -0.3303 -0.6389
 2573Sol     OW13247   1.039   0.763   6.506 -0.3403  0.1875  0.8247
 2573Sol     HW13248   0.984   0.742   6.430  0.7365  0.6853 -0.1140
 2573Sol     HW13249   1.062   0.677   6.542 -0.5899 -0.0685  0.3901
 2573Sol     MW13250   1.036   0.753   6.502 -0.3385 -0.0434  0.1680
 2574Sol     OW13251   2.121   1.293   6.105  0.1208 -0.1665  0.0273
 2574Sol     HW13252   2.048   1.294   6.168 -0.3011 -0.0984 -0.4565
 2574Sol     HW13253   2.198   1.271   6.157 -0.2282 -0.1055  0.5687
 2574Sol     MW13254   2.121   1.291   6.115 -0.3943 -1.0199  0.3656
 2575Sol     OW13255   2.916   2.261   8.619  0.8726  0.1959  0.0711
 2575Sol     HW13256   2.966   2.186   8.588 -1.8840 -0.7642 -2.2391
 2575Sol     HW13257   2.927   2.327   8.550  0.7093  0.7528  0.5782
 2575Sol     MW13258   2.922   2.260   8.610 -0.0124 -0.1184 -0.2119
 2576Sol     OW13259   0.962   0.044   2.151 -0.4933  0.2178 -0.3211
 2576Sol     HW13260   0.949   0.083   2.065 -0.5656  1.0868  0.0834
 2576Sol     HW13261   1.046   0.079   2.181 -0.9127  0.6424  0.3614
 2576Sol     MW13262   0.969   0.050   2.146  0.3503  0.0329  0.7149
 2577Sol     OW13263   1.114   0.691   8.474 -0.2965 -0.2137  0.3964
 2577Sol     HW13264   1.185   0.655   8.526 -0.1580 -0.6867 -0.1202
 2577Sol     HW13265   1.043   0.705   8.537 -0.0809 -0.6396  0.7379
 2577Sol     MW13266   1.114   0.689   8.484 -0.0966  0.5517  0.2125
 2578Sol     OW13267   3.071   0.709   3.312  0.0607  0.3388 -0.5016
 2578Sol     HW13268   2.988   0.690   3.356  1.5110 -1.5421  1.5401
 2578Sol     HW13269   3.062   0.669   3.225 -1.1263  0.0734 -0.2679
 2578Sol     MW13270   3.063   0.704   3.308 -0.4429 -0.6498  0.1263
 2579Sol     OW13271   3.177   2.028   7.231  0.3145  0.1870  0.0444
 2579Sol     HW13272   3.255   2.037   7.285  0.4276 -2.3708  0.3825
 2579Sol     HW13273   3.104   2.039   7.292  0.4095  1.6909 -0.1074
 2579Sol     MW13274   3.177   2.029   7.241  0.1636  0.3651 -0.0751
 2580Sol     OW13275   1.276   0.527   6.193 -0.9188 -0.0014  0.5473
 2580Sol     HW13276   1.308   0.461   6.131 -0.6325 -0.2151  0.9170
 2580Sol     HW13277   1.353   0.550   6.245 -0.7340  1.5399 -0.3897
 2580Sol     MW13278   1.286   0.523   6.192 -0.6141  0.4029 -0.1088
 2581Sol     OW13279   0.993   2.884   4.651  0.3052 -0.2318  0.1753
 2581Sol     HW13280   0.902   2.860   4.633 -0.6954  2.6432  1.1118
 2581Sol     HW13281   0.989   2.933   4.733  2.4629  1.4304 -0.6777
 2581Sol     MW13282   0.984   2.886   4.657  0.0779  0.0894 -0.0159
 2582Sol     OW13283   0.509   1.612   8.029 -0.3617 -0.2915  0.3380
 2582Sol     HW13284   0.438   1.675   8.038 -0.3253 -0.4213  1.5270
 2582Sol     HW13285   0.474   1.546   7.969 -1.1511 -0.2180  0.7043
 2582Sol     MW13286   0.499   1.612   8.024 -0.0528 -0.0600  0.0136
 2583Sol     OW13287   0.623   2.609   4.497  0.3237  0.3526  0.3151
 2583Sol     HW13288   0.660   2.631   4.411 -0.6032 -0.7576 -0.3670
 2583Sol     HW13289   0.625   2.692   4.545  2.0188  0.7089 -0.3353
 2583Sol     MW13290   0.627   2.619   4.494 -0.3036  0.3610 -0.7468
 2584Sol     OW13291   1.005   2.351   8.230 -0.1469 -0.3925  0.3303
 2584Sol     HW13292   0.996   2.273   8.284  2.0347  0.2453  1.6822
 2584Sol     HW13293   1.041   2.417   8.289  0.9681  0.7409 -1.5566
 2584Sol     MW13294   1.007   2.350   8.240  0.6138 -0.2934 -0.2626
 2585Sol     OW13295   3.220   2.467   6.820  0.3379  0.2343 -0.7456
 2585Sol     HW13296   3.270   2.430   6.747  3.1731 -3.8449  2.9899
 2585Sol     HW13297   3.147   2.405   6.831  0.7103  0.0538  0.7157
 2585Sol     MW13298   3.218   2.458   6.814  0.2968  0.3117  0.6471
 2586Sol     OW13299   0.686   2.792   6.595 -0.4931 -0.0057 -0.2906
 2586Sol     HW13300   0.716   2.841   6.671 -1.4622 -0.1326  0.1865
 2586Sol     HW13301   0.762   2.787   6.537  0.6247 -1.0367  1.2495
 2586Sol     MW13302   0.695   2.796   6.596  0.0486 -0.1266  0.6845
 2587Sol     OW13303   3.210   1.413   5.128 -0.0014  0.2717  0.3403
 2587Sol     HW13304   3.214   1.367   5.212 -1.4936 -0.1445  0.1889
 2587Sol     HW13305   3.183   1.347   5.065 -0.6963  0.9976 -0.1377
 2587Sol     MW13306   3.208   1.403   5.130 -0.0254  0.1186  0.2742
 2588Sol     OW13307   3.067   2.889   3.403  0.0656 -0.0911  0.0862
 2588Sol     HW13308   2.977   2.917   3.385 -0.2429  0.6728  2.7115
 2588Sol     HW13309   3.120   2.939   3.341 -1.1890  0.3374 -0.6665
 2588Sol     MW13310   3.064   2.896   3.396  0.5359  0.2414 -0.5586
 2589Sol     OW13311   0.586   0.254   8.874 -0.8980  0.1252  0.4039
 2589Sol     HW13312   0.664   0.285   8.828 -0.7971 -0.8855 -0.1258
 2589Sol     HW13313   0.562   0.325   8.933  0.8641  0.1463  1.1021
 2589Sol     MW13314   0.591   0.263   8.875 -0.0339  0.1649  0.6549
 2590Sol     OW13315   0.763   3.344   9.162  0.4442 -0.4922  0.2941
 2590Sol     HW13316   0.718   3.278   9.215 -0.8174 -0.3759 -0.5957
 2590Sol     HW13317   0.697   3.373   9.099  1.3171  0.8200 -0.0428
 2590Sol     MW13318   0.753   3.340   9.161 -0.1568  0.2576  0.6477
 2591Sol     OW13319   0.936   1.914   6.838 -0.4963  0.1678 -0.4092
 2591Sol     HW13320   1.004   1.976   6.863  0.1423 -0.7999  0.2928
 2591Sol     HW13321   0.971   1.868   6.762 -0.1075 -0.7472  0.3161
 2591Sol     MW13322   0.945   1.915   6.834  0.2193 -0.1619  0.4997
 2592Sol     OW13323   1.998   1.959   3.095 -0.2255 -0.2509 -0.7103
 2592Sol     HW13324   1.989   1.986   3.003 -0.6407  1.0921 -0.2737
 2592Sol     HW13325   2.045   2.031   3.137 -0.5576 -0.6002  0.2701
 2592Sol     MW13326   2.002   1.968   3.090 -0.6683 -0.5716 -0.1021
 2593Sol     OW13327   2.280   2.263   4.593 -0.4025  0.0321 -0.1116
 2593Sol     HW13328   2.250   2.346   4.554 -1.2232 -0.6326 -0.9179
 2593Sol     HW13329   2.216   2.245   4.661  0.9379  1.1066  1.4770
 2593Sol     MW13330   2.272   2.269   4.595 -0.3594  0.1908  0.3786
 2594Sol     OW13331   2.166   1.255   9.272 -0.4236 -0.4141 -0.1533
 2594Sol     HW13332   2.105   1.277   9.202 -0.1268  0.1797 -0.2287
 2594Sol     HW13333   2.144   1.314   9.344 -0.4901 -0.7741  0.1267
 2594Sol     MW13334   2.159   1.262   9.273 -0.6450 -0.2209  0.5591
 2595Sol     OW13335   0.217   0.731   3.675  0.1842  0.3323  0.4514
 2595Sol     HW13336   0.127   0.720   3.642  0.3437 -1.3766  0.5425
 2595Sol     HW13337   0.246   0.814   3.638 -0.0676 -0.9593 -2.8199
 2595Sol     MW13338   0.211   0.737   3.669 -0.3839  0.2978 -0.0675
 2596Sol     OW13339   0.128   2.498  10.157 -0.2648  0.3986  0.0558
 2596Sol     HW13340   0.197   2.541  10.106 -0.6641 -0.2882 -1.0768
 2596Sol     HW13341   0.047   2.523  10.112 -0.6733  0.3210  0.7486
 2596Sol     MW13342   0.127   2.504  10.148  0.4123  0.0791  0.0853
 2597Sol     OW13343   0.194   2.776   5.568 -0.7653 -0.1485  0.2420
 2597Sol     HW13344   0.147   2.810   5.492 -1.4681  0.5399  0.9706
 2597Sol     HW13345   0.236   2.853   5.606 -0.0261 -0.5662  0.2960
 2597Sol     MW13346   0.194   2.786   5.564 -0.2363  0.1434  0.3294
 2598Sol     OW13347   0.397   3.287   6.109 -0.3656  0.4540 -0.0908
 2598Sol     HW13348   0.394   3.337   6.190  1.7440 -1.0470  0.9455
 2598Sol     HW13349   0.332   3.217   6.122  0.2210  0.0052  0.4565
 2598Sol     MW13350   0.391   3.285   6.117  0.1072 -0.1274  0.5578
 2599Sol     OW13351   2.096   2.299   6.834 -0.3662 -0.2075 -0.1473
 2599Sol     HW13352   2.104   2.229   6.769 -1.4731 -0.0631 -0.4611
 2599Sol     HW13353   2.133   2.376   6.792  0.5291 -0.5179  0.0634
 2599Sol     MW13354   2.100   2.300   6.825 -0.3496  0.2713 -0.0371
 2600Sol     OW13355   2.657   2.033   2.360 -0.0561  0.1535  0.8486
 2600Sol     HW13356   2.690   1.959   2.411  0.2139 -1.1997 -1.2288
 2600Sol     HW13357   2.716   2.105   2.381  1.5309 -1.0395  0.6038
 2600Sol     MW13358   2.665   2.033   2.366 -0.0845 -0.0017  0.3780
 2601Sol     OW13359   0.054   0.263   8.277 -0.5076  0.0404 -0.4883
 2601Sol     HW13360  -0.001   0.311   8.339 -2.1987 -1.6077 -0.6863
 2601Sol     HW13361  -0.007   0.223   8.215  1.0233 -0.2358 -1.8574
 2601Sol     MW13362   0.044   0.263   8.277  0.4434  0.4891  0.1375
 2602Sol     OW13363   0.346   1.095   8.812 -0.5025  0.3361 -0.2723
 2602Sol     HW13364   0.364   1.143   8.731  0.1006 -0.7671 -0.8068
 2602Sol     HW13365   0.414   1.123   8.873 -1.3640  1.6923  0.0944
 2602Sol     MW13366   0.354   1.102   8.810  0.4389  0.1522  0.2195
 2603Sol     OW13367   0.641   3.295   4.673 -0.1135 -0.2208 -0.1563
 2603Sol     HW13368   0.563   3.345   4.646  0.0695  0.9372  1.3278
 2603Sol     HW13369   0.678   3.347   4.744  0.9334 -1.7617  0.4469
 2603Sol     MW13370   0.637   3.304   4.677  0.6714 -0.0141  0.1455
 2604Sol     OW13371   1.532   3.239   4.332  0.0714  0.5663 -0.1812
 2604Sol     HW13372   1.620   3.207   4.311  0.8819  3.4780 -1.5203
 2604Sol     HW13373   1.506   3.190   4.410  2.9057 -0.2849  0.2791
 2604Sol     MW13374   1.538   3.232   4.337 -0.2461 -0.0206 -0.2281
 2605Sol     OW13375   2.887   0.823   2.919 -0.2618 -0.3326 -0.0329
 2605Sol     HW13376   2.944   0.753   2.953 -0.5351 -0.4689  0.1506
 2605Sol     HW13377   2.838   0.852   2.996  0.2132  0.4130 -0.0060
 2605Sol     MW13378   2.888   0.819   2.929 -0.0831 -0.2436 -0.2477
 2606Sol     OW13379   0.801   0.137   5.160 -0.0460  0.0958  0.7372
 2606Sol     HW13380   0.746   0.212   5.182  0.3824  0.2155  1.4328
 2606Sol     HW13381   0.805   0.085   5.241 -0.2294 -0.6029  0.2991
 2606Sol     MW13382   0.797   0.139   5.169  0.3762 -0.4175 -0.2875
 2607Sol     OW13383   1.656   1.407   5.830  0.1338  0.4833 -0.2234
 2607Sol     HW13384   1.725   1.364   5.880 -0.9451 -1.6693 -0.5110
 2607Sol     HW13385   1.702   1.462   5.768  1.5396  0.9781  1.2335
 2607Sol     MW13386   1.666   1.408   5.829  0.2288 -0.7393 -0.1120
 2608Sol     OW13387   1.121   2.932   3.044  0.0006 -0.0218 -0.8891
 2608Sol     HW13388   1.029   2.944   3.068  0.0503  0.6284 -0.9994
 2608Sol     HW13389   1.126   2.962   2.953  0.7368  2.0176 -0.2179
 2608Sol     MW13390   1.114   2.936   3.038  0.0426 -0.0095 -0.1509
 2609Sol     OW13391   1.133   0.158   4.087 -0.6312  0.4841  0.1820
 2609Sol     HW13392   1.138   0.182   3.994  0.0432  1.4823  0.4638
 2609Sol     HW13393   1.160   0.237   4.133 -0.3001 -0.2201  1.2109
 2609Sol     MW13394   1.136   0.167   4.083  0.4449 -0.2714 -0.2632
 2610Sol     OW13395   1.636   0.525   9.373 -0.3319  0.0369  0.1369
 2610Sol     HW13396   1.719   0.510   9.328 -0.4133  0.8738 -0.3068
 2610Sol     HW13397   1.645   0.479   9.457 -0.0241 -1.1800 -0.5590
 2610Sol     MW13398   1.644   0.519   9.377 -0.0541 -0.2165 -0.5530
 2611Sol     OW13399   1.627   1.246   4.252 -0.2365  0.3702  0.2104
 2611Sol     HW13400   1.604   1.279   4.165  0.8470 -0.0085 -0.2290
 2611Sol     HW13401   1.544   1.216   4.289 -0.7408  0.7517 -0.5948
 2611Sol     MW13402   1.617   1.246   4.247  0.3399  0.1495  0.1138
 2612Sol     OW13403   0.557   1.060   6.240 -0.1164 -0.1045 -0.7676
 2612Sol     HW13404   0.621   1.127   6.263 -1.0439  0.7815 -0.7434
 2612Sol     HW13405   0.564   1.051   6.145  0.1789 -0.1596 -0.7413
 2612Sol     MW13406   0.564   1.065   6.234  0.3376 -0.0696 -0.1426
 2613Sol     OW13407   0.412   2.827   9.497  0.0834  0.5322  0.2178
 2613Sol     HW13408   0.388   2.743   9.537 -0.4834 -0.3434 -1.8891
 2613Sol     HW13409   0.507   2.823   9.489  0.1278  0.3978  0.7359
 2613Sol     MW13410   0.418   2.819   9.500  0.1366 -0.5611  0.2834
 2614Sol     OW13411   1.746   0.169   5.258  0.4032 -0.4087  0.2289
 2614Sol     HW13412   1.830   0.133   5.229 -0.6256 -1.6622 -1.2522
 2614Sol     HW13413   1.722   0.232   5.190  0.9712  1.2150  1.5269
 2614Sol     MW13414   1.751   0.171   5.249  0.1801  0.3280  0.2991
 2615Sol     OW13415   0.020   0.282   6.458  0.2920  0.0293  0.1327
 2615Sol     HW13416   0.069   0.287   6.540  0.8809  2.2127 -0.3394
 2615Sol     HW13417  -0.005   0.372   6.439 -2.0068 -0.7566 -0.8100
 2615Sol     MW13418   0.022   0.290   6.464 -0.2295 -0.0124  0.0138
 2616Sol     OW13419   1.941   1.255   8.768  0.4968  0.8127  0.0644
 2616Sol     HW13420   1.926   1.191   8.837 -1.1552  0.7764 -0.3173
 2616Sol     HW13421   2.020   1.224   8.723 -0.1001 -0.7791  0.0820
 2616Sol     MW13422   1.947   1.247   8.770 -0.0287 -0.0216 -0.0243
 2617Sol     OW13423   1.701   0.610   9.819 -0.1190 -0.0396  0.0043
 2617Sol     HW13424   1.788   0.586   9.785  0.4435  0.7307  0.8816
 2617Sol     HW13425   1.695   0.564   9.903  0.1449  1.2833  0.7506
 2617Sol     MW13426   1.709   0.604   9.824 -0.3776  0.2501 -0.4144
 2618Sol     OW13427   2.665   0.707   2.806  0.6030 -0.7444  0.0343
 2618Sol     HW13428   2.730   0.750   2.861  0.1579 -1.2276  0.9525
 2618Sol     HW13429   2.583   0.713   2.856  0.1648 -1.0696 -0.6303
 2618Sol     MW13430   2.663   0.711   2.815 -0.4374 -0.3183 -0.4212
 2619Sol     OW13431   1.417   1.150   1.518  0.0725  0.1700 -0.0803
 2619Sol     HW13432   1.438   1.241   1.499  2.9791 -0.5202 -0.4480
 2619Sol     HW13433   1.417   1.144   1.613 -2.4106  1.0211 -0.0014
 2619Sol     MW13434   1.419   1.157   1.524  0.5054  0.1532  0.6116
 2620Sol     OW13435   1.885   0.839   4.202 -0.1505 -0.2146 -0.3554
 2620Sol     HW13436   1.915   0.773   4.265 -0.4972  0.8604  0.9573
 2620Sol     HW13437   1.956   0.903   4.199 -0.7840  0.5105  0.0763
 2620Sol     MW13438   1.894   0.838   4.207 -0.2391  0.6053  0.0121
 2621Sol     OW13439   0.359   1.666   3.488 -0.0626 -0.0973  0.4275
 2621Sol     HW13440   0.281   1.709   3.522 -0.3302  0.9033 -1.3877
 2621Sol     HW13441   0.408   1.736   3.444  1.1120 -1.0040  0.2578
 2621Sol     MW13442   0.357   1.676   3.487  0.3583 -0.1000  0.3960
 2622Sol     OW13443   1.617   2.674   4.188  0.3867 -0.5269  0.3862
 2622Sol     HW13444   1.573   2.657   4.105  0.4791  0.6281  0.0952
 2622Sol     HW13445   1.680   2.602   4.196 -0.5624 -1.3923  0.1208
 2622Sol     MW13446   1.619   2.666   4.181 -0.2582  0.0403  0.0972
 2623Sol     OW13447   1.933   1.622   8.875 -0.2893 -0.6583 -0.0192
 2623Sol     HW13448   1.966   1.587   8.958 -2.4292 -1.1700  0.6251
 2623Sol     HW13449   1.838   1.624   8.885 -0.5133  0.2929 -2.0673
 2623Sol     MW13450   1.928   1.619   8.883  0.7376 -0.0829 -0.1149
 2624Sol     OW13451   2.974   1.543   5.723 -0.3780  0.7211 -0.0323
 2624Sol     HW13452   2.939   1.629   5.699 -2.4231  0.4429  1.8179
 2624Sol     HW13453   3.017   1.557   5.808 -1.4296 -0.2444  0.6664
 2624Sol     MW13454   2.975   1.552   5.728 -0.1373 -0.0622 -0.0453
 2625Sol     OW13455   0.437   2.165   5.286  0.4170 -0.0248  0.6326
 2625Sol     HW13456   0.529   2.142   5.294  0.5087  0.3919  0.7702
 2625Sol     HW13457   0.393   2.117   5.357  0.2643 -1.6384 -0.5097
 2625Sol     MW13458   0.441   2.158   5.293  0.3243 -0.6695  0.1196
 2626Sol     OW13459   1.370   0.588   2.267  0.0550  0.3100  0.0374
 2626Sol     HW13460   1.398   0.515   2.322 -0.4704 -0.5266 -0.7890
 2626Sol     HW13461   1.386   0.558   2.177 -0.9721  0.8727 -0.3477
 2626Sol     MW13462   1.374   0.579   2.264 -0.1030 -0.0911  0.0802
 2627Sol     OW13463   1.007   2.272   7.663  0.6085  0.4389  0.4355
 2627Sol     HW13464   1.098   2.248   7.680  0.3304 -1.1488 -0.2972
 2627Sol     HW13465   0.962   2.256   7.746  0.4594 -1.4644  0.0073
 2627Sol     MW13466   1.011   2.269   7.672  0.4384 -0.0647 -0.1989
 2628Sol     OW13467   3.105   0.265   2.577 -0.3751  0.3020  0.2420
 2628Sol     HW13468   3.181   0.319   2.556 -0.5047 -0.1487 -1.4980
 2628Sol     HW13469   3.119   0.184   2.528 -2.1693  0.3835 -0.4612
 2628Sol     MW13470   3.113   0.262   2.570 -0.2648 -0.0675 -0.3473
 2629Sol     OW13471   1.967   2.887   2.038  0.0861  0.1281 -0.1300
 2629Sol     HW13472   1.919   2.960   2.077  1.4298  0.5131  0.8288
 2629Sol     HW13473   2.037   2.868   2.100  0.6235 -1.0337 -1.0670
 2629Sol     MW13474   1.969   2.892   2.047  0.4993 -0.3995 -0.1046
 2630Sol     OW13475   0.339   0.864   7.194 -0.0337 -0.0841 -0.2599
 2630Sol     HW13476   0.330   0.914   7.113  1.3386  1.7261  0.6719
 2630Sol     HW13477   0.304   0.922   7.262  2.7844  0.2125  1.0255
 2630Sol     MW13478   0.335   0.874   7.193  0.1806 -0.6339  0.7410
 2631Sol     OW13479   0.989   2.152   8.420  0.1133  0.6057  0.0394
 2631Sol     HW13480   0.983   2.186   8.509 -1.8871  1.6540 -0.4671
 2631Sol     HW13481   1.072   2.104   8.418  0.2398  0.6638  2.4242
 2631Sol     MW13482   0.996   2.150   8.427  0.4468  0.3621 -0.4147
 2632Sol     OW13483   1.575   2.157   7.666  0.4433 -0.5851  0.1653
 2632Sol     HW13484   1.646   2.205   7.623  0.0656 -0.2186 -0.0417
 2632Sol     HW13485   1.603   2.151   7.757  0.2699  0.4522  0.2950
 2632Sol     MW13486   1.584   2.161   7.670 -0.4473  0.0021  0.0308
 2633Sol     OW13487   3.178   0.602   4.654  0.1101 -0.4537 -0.0004
 2633Sol     HW13488   3.261   0.558   4.672  0.2054  0.1493  1.0863
 2633Sol     HW13489   3.202   0.694   4.644 -0.1230 -0.5856 -1.9816
 2633Sol     MW13490   3.187   0.606   4.654  0.1626  0.9443 -0.7559
 2634Sol     OW13491   1.298   2.772   4.181 -0.2440 -0.7204 -0.4282
 2634Sol     HW13492   1.297   2.867   4.169  0.8296 -0.8064 -1.2328
 2634Sol     HW13493   1.219   2.754   4.233  0.1556  0.7390  0.7326
 2634Sol     MW13494   1.291   2.779   4.185 -0.9724 -0.0555 -0.5096
 2635Sol     OW13495   3.152   3.138   4.920 -0.2326  0.2696  0.2101
 2635Sol     HW13496   3.074   3.089   4.892  0.3962 -0.8579  0.4071
 2635Sol     HW13497   3.117   3.207   4.975 -1.2063  0.5316 -0.7030
 2635Sol     MW13498   3.142   3.139   4.922  0.0873  0.3688  0.1425
 2636Sol     OW13499   0.491   1.636  10.184 -0.4349 -0.1648 -0.0856
 2636Sol     HW13500   0.445   1.565  10.140 -0.8382  0.7962 -1.2289
 2636Sol     HW13501   0.427   1.672  10.246 -0.5133 -0.2417 -0.1229
 2636Sol     MW13502   0.481   1.633  10.186 -0.9273  0.0558 -0.2246
 2637Sol     OW13503   2.003   1.670   7.187  0.4689  0.1131  0.2666
 2637Sol     HW13504   2.050   1.731   7.129 -1.4642  0.0402 -1.4457
 2637Sol     HW13505   1.966   1.726   7.255  0.9954  0.4888  0.2504
 2637Sol     MW13506   2.004   1.681   7.188 -0.2405  0.0410 -0.1040
 2638Sol     OW13507   1.372   1.617   3.572  0.0631  0.6720  0.1179
 2638Sol     HW13508   1.307   1.637   3.640  0.5001  0.0196  0.7364
 2638Sol     HW13509   1.455   1.647   3.609  0.1747  1.1696 -0.5220
 2638Sol     MW13510   1.373   1.621   3.582 -0.2977 -0.4509  0.3319
 2639Sol     OW13511   1.205   1.300   3.784 -0.1768  0.0562  0.3728
 2639Sol     HW13512   1.151   1.296   3.706  0.1477  0.7851  0.1017
 2639Sol     HW13513   1.295   1.299   3.751 -0.0291  2.6822  0.5773
 2639Sol     MW13514   1.208   1.300   3.774 -0.0808  0.2382 -0.1238
 2640Sol     OW13515   2.375   3.299   6.091  0.2569  0.3375 -0.1780
 2640Sol     HW13516   2.326   3.371   6.051 -2.8351 -0.2164  2.4475
 2640Sol     HW13517   2.332   3.220   6.059 -0.6092 -0.1599  2.1740
 2640Sol     MW13518   2.367   3.298   6.084  0.0292  0.4023  0.1561
 2641Sol     OW13519   0.333   0.351   8.279  0.1736 -0.3013 -0.1490
 2641Sol     HW13520   0.240   0.359   8.300  0.2846 -0.6333  0.4548
 2641Sol     HW13521   0.334   0.323   8.187 -0.2817  1.8978 -0.8495
 2641Sol     MW13522   0.325   0.349   8.272  0.1150 -0.1654 -0.1584
 2642Sol     OW13523   1.713   3.399   2.856  0.2085 -0.4059 -0.1479
 2642Sol     HW13524   1.727   3.314   2.897 -1.0787 -0.0107  1.1424
 2642Sol     HW13525   1.683   3.378   2.767 -1.2826 -1.3283  0.5584
 2642Sol     MW13526   1.711   3.390   2.851 -0.0500 -0.5033  0.2377
 2643Sol     OW13527   1.950   3.059   9.575  0.1834  0.1333  0.0887
 2643Sol     HW13528   1.884   2.995   9.603 -0.5492  0.9189  0.1976
 2643Sol     HW13529   2.000   3.078   9.654 -0.5598  0.7986  0.4150
 2643Sol     MW13530   1.949   3.055   9.585 -0.0361 -0.1249 -0.0797
 2644Sol     OW13531   2.465   3.349   5.747  0.1100 -0.0656 -0.1505
 2644Sol     HW13532   2.526   3.322   5.815  0.5910  0.3026 -0.4389
 2644Sol     HW13533   2.403   3.276   5.741  0.6355 -0.5292 -0.0025
 2644Sol     MW13534   2.465   3.340   5.752  0.3763  0.2547 -0.1245
 2645Sol     OW13535   2.891   1.487   3.250 -0.3345  0.4706 -0.0984
 2645Sol     HW13536   2.931   1.444   3.174  1.6349  0.7479  0.7272
 2645Sol     HW13537   2.924   1.437   3.325  0.6501  2.3660  0.7696
 2645Sol     MW13538   2.898   1.478   3.250  0.2900  0.3892  0.2763
 2646Sol     OW13539   0.730   1.156   4.792 -0.1524 -0.1374 -0.5889
 2646Sol     HW13540   0.701   1.108   4.869 -0.3374  0.5412 -0.2317
 2646Sol     HW13541   0.794   1.219   4.825 -0.6554  0.5443 -0.9017
 2646Sol     MW13542   0.734   1.157   4.802 -0.2464 -0.1942 -0.0388
 2647Sol     OW13543   1.768   0.924   5.242  0.2495 -0.5159 -0.7142
 2647Sol     HW13544   1.740   0.869   5.169  0.8532 -0.7591 -0.7733
 2647Sol     HW13545   1.733   0.881   5.320  0.0093 -0.5219 -0.8266
 2647Sol     MW13546   1.763   0.915   5.243  0.4003  0.4989 -0.2969
 2648Sol     OW13547   2.370   0.523   6.180 -0.4166 -0.1216  0.3003
 2648Sol     HW13548   2.278   0.519   6.204 -0.2446 -1.2464  0.8021
 2648Sol     HW13549   2.410   0.582   6.244 -0.9075  0.9433 -0.3545
 2648Sol     MW13550   2.366   0.528   6.188  0.2576 -0.2682 -0.5893
 2649Sol     OW13551   1.721   3.372   9.266  0.9793  0.1602 -0.4836
 2649Sol     HW13552   1.626   3.359   9.256  0.9646 -1.4872  1.4698
 2649Sol     HW13553   1.761   3.311   9.205  0.8068  1.8314 -2.3209
 2649Sol     MW13554   1.716   3.365   9.260 -0.1980 -0.3784  0.5320
 2650Sol     OW13555   0.601   2.341   4.613  0.0811 -0.2650 -0.1618
 2650Sol     HW13556   0.592   2.421   4.562 -0.5824  0.4020  0.9894
 2650Sol     HW13557   0.695   2.330   4.624  0.1508  0.9121  0.5279
 2650Sol     MW13558   0.609   2.347   4.609  0.2374  0.0483  0.3229
 2651Sol     OW13559   2.777   1.742   8.457 -0.7256 -0.3291  0.4131
 2651Sol     HW13560   2.811   1.771   8.373  0.2519  1.4021  1.3725
 2651Sol     HW13561   2.724   1.665   8.437 -1.9101  1.0562 -1.9945
 2651Sol     MW13562   2.775   1.738   8.448  0.4356  0.2160 -0.1219
 2652Sol     OW13563   0.538   2.318   8.093  0.4284 -0.2568  0.2575
 2652Sol     HW13564   0.574   2.231   8.112  0.3639 -0.4504 -0.5042
 2652Sol     HW13565   0.444   2.304   8.083  0.7682 -0.6346 -2.8929
 2652Sol     MW13566   0.533   2.309   8.094 -0.4604 -0.0214 -0.2018
 2653Sol     OW13567   3.125   2.875   8.055  0.3050 -0.2219  0.6343
 2653Sol     HW13568   3.102   2.821   8.130  0.4975  0.5552  1.2673
 2653Sol     HW13569   3.211   2.913   8.078 -0.9043  2.2394  1.2865
 2653Sol     MW13570   3.131   2.874   8.064 -0.2842 -0.5962  0.5329
 2654Sol     OW13571   0.758   0.302   6.864  0.0101 -0.1068 -0.2960
 2654Sol     HW13572   0.716   0.370   6.811  1.1658  0.8240 -0.0480
 2654Sol     HW13573   0.852   0.315   6.850  0.2747 -0.9172  0.6636
 2654Sol     MW13574   0.763   0.310   6.858 -0.3821  0.2705 -0.4434
 2655Sol     OW13575   3.127   3.308   8.022  0.2013  0.7827 -0.8737
 2655Sol     HW13576   3.042   3.353   8.032 -0.3113 -0.1842 -0.8551
 2655Sol     HW13577   3.182   3.372   7.976 -0.7586  1.1470 -1.5342
 2655Sol     MW13578   3.124   3.318   8.019  0.8282 -0.0098  0.2950
 2656Sol     OW13579   3.192   1.384   1.841  0.0978  0.1354 -0.4379
 2656Sol     HW13580   3.178   1.327   1.766  0.9159 -0.3710 -0.2114
 2656Sol     HW13581   3.258   1.446   1.812  0.6278 -0.2420 -0.0430
 2656Sol     MW13582   3.196   1.385   1.832 -0.6312 -0.6085 -0.2484
 2657Sol     OW13583   1.132   1.094   5.683 -0.0809 -0.0635  0.1176
 2657Sol     HW13584   1.120   1.171   5.739  2.1914 -0.2605  0.8980
 2657Sol     HW13585   1.179   1.031   5.738 -0.4386 -1.3834 -1.0605
 2657Sol     MW13586   1.135   1.096   5.693  0.7864 -0.1120  0.1160
 2658Sol     OW13587   2.173   2.789   4.578  0.0092  0.5130 -0.1913
 2658Sol     HW13588   2.126   2.777   4.661 -1.1676  0.5735 -0.8383
 2658Sol     HW13589   2.215   2.705   4.562  0.3492  0.5374  0.5249
 2658Sol     MW13590   2.172   2.781   4.584 -0.2327 -0.6579 -0.0425
 2659Sol     OW13591   3.096   2.777   4.749  0.3795  0.6707 -0.5313
 2659Sol     HW13592   3.041   2.845   4.787 -1.3399  0.5850 -2.7495
 2659Sol     HW13593   3.035   2.707   4.726  2.1313 -1.7567  1.8493
 2659Sol     MW13594   3.086   2.776   4.750  0.3699  0.2914 -0.8211
 2660Sol     OW13595   0.225   0.628   5.335  0.0721 -0.4763 -0.0016
 2660Sol     HW13596   0.227   0.722   5.354 -0.4110 -0.2680 -0.9483
 2660Sol     HW13597   0.139   0.614   5.294  0.4394 -1.2001 -0.5303
 2660Sol     MW13598   0.217   0.636   5.333 -0.1179 -0.2508  0.6398
 2661Sol     OW13599   0.004   0.149   8.758  0.7425 -0.2857  0.5769
 2661Sol     HW13600  -0.020   0.242   8.765  1.4946 -0.1064  0.7440
 2661Sol     HW13601  -0.079   0.105   8.740  0.5169  0.5357 -0.4716
 2661Sol     MW13602  -0.006   0.154   8.757  0.3379  0.4916 -0.4356
 2662Sol     OW13603   1.615   1.915   4.423 -0.3396 -0.0317  0.1712
 2662Sol     HW13604   1.611   2.004   4.457  3.0953  0.4673 -0.5404
 2662Sol     HW13605   1.588   1.860   4.497 -0.3509  1.4792  1.3118
 2662Sol     MW13606   1.612   1.918   4.433 -0.3957 -0.1924 -0.0080
 2663Sol     OW13607   2.282   3.118   9.567 -0.0234 -0.3363  0.5196
 2663Sol     HW13608   2.334   3.058   9.514  0.6295 -0.7129  1.5657
 2663Sol     HW13609   2.216   3.153   9.507  1.3231  0.0038 -0.7865
 2663Sol     MW13610   2.281   3.116   9.557 -0.6298  0.4647  0.3662
 2664Sol     OW13611   0.628   3.221   8.897  0.7589  0.5723  0.1863
 2664Sol     HW13612   0.572   3.145   8.906  2.0931 -0.4642 -0.1474
 2664Sol     HW13613   0.711   3.187   8.863  1.5652  2.0776  0.5727
 2664Sol     MW13614   0.631   3.211   8.895 -0.1324 -0.5074  0.0965
 2665Sol     OW13615   1.188   2.965   3.878 -0.3313  0.0425  0.2420
 2665Sol     HW13616   1.257   2.926   3.825  0.6390  0.3566  1.2318
 2665Sol     HW13617   1.123   2.896   3.890  1.4287 -1.3628  2.1029
 2665Sol     MW13618   1.189   2.956   3.875 -0.3269  0.0548 -0.2337
 2666Sol     OW13619   1.569   1.142   2.428  0.2336 -0.0046 -0.3750
 2666Sol     HW13620   1.478   1.120   2.444  0.3299 -0.7335 -0.7917
 2666Sol     HW13621   1.585   1.114   2.337  0.1840  2.3988 -1.1405
 2666Sol     MW13622   1.563   1.137   2.421  0.3360 -0.6486 -0.1222
 2667Sol     OW13623   0.020   0.930   1.590  0.4688  0.2098  0.8954
 2667Sol     HW13624  -0.045   0.862   1.603  0.5606 -0.1972 -0.7699
 2667Sol     HW13625   0.083   0.916   1.662  0.6978 -1.7066  0.3589
 2667Sol     MW13626   0.020   0.923   1.598  0.4165 -0.6251 -0.3884
 2668Sol     OW13627   1.428   2.159   5.491  0.0298  0.8091  0.3568
 2668Sol     HW13628   1.442   2.181   5.583  0.5785 -2.7085  1.1854
 2668Sol     HW13629   1.516   2.163   5.452 -0.1908  2.2157 -0.0397
 2668Sol     MW13630   1.437   2.162   5.496 -0.9302 -0.5894 -0.1326
 2669Sol     OW13631   1.395   2.090   3.301 -0.0052  0.1635 -0.4458
 2669Sol     HW13632   1.350   2.025   3.246  1.0615 -1.5772  0.7009
 2669Sol     HW13633   1.449   2.038   3.360 -0.6447  2.0419  1.8461
 2669Sol     MW13634   1.396   2.079   3.301  0.2510  0.1313  0.1473
 2670Sol     OW13635   2.863   1.082   9.970  0.4799  0.4146  0.1091
 2670Sol     HW13636   2.958   1.075   9.966  0.4466 -0.0924  0.1920
 2670Sol     HW13637   2.831   1.006   9.921  0.1186  0.7249 -0.1392
 2670Sol     MW13638   2.869   1.075   9.965  0.0558  0.5154 -0.0759
 2671Sol     OW13639   3.028   1.647   9.292  0.1018  0.3455  0.2009
 2671Sol     HW13640   2.976   1.636   9.372 -0.9253  1.4574 -0.2808
 2671Sol     HW13641   3.090   1.717   9.314  0.3643  0.0806  0.2937
 2671Sol     MW13642   3.029   1.652   9.301 -0.1709  0.2691  0.4510
 2672Sol     OW13643   0.294   1.932   6.953  0.0303  0.6228 -0.1479
 2672Sol     HW13644   0.307   1.839   6.932 -0.9000  0.2048  1.1227
 2672Sol     HW13645   0.368   1.953   7.011 -1.1659 -0.0139  1.6525
 2672Sol     MW13646   0.302   1.925   6.956  0.3543 -0.0111  0.0764
 2673Sol     OW13647   3.112   0.816   3.794 -0.7871 -0.5758  0.3523
 2673Sol     HW13648   3.053   0.887   3.767  1.1212  0.7907 -0.2821
 2673Sol     HW13649   3.142   0.777   3.712  0.1383 -0.4869  0.6458
 2673Sol     MW13650   3.109   0.819   3.784  0.2896  0.1221 -0.3173
 2674Sol     OW13651   1.213   2.981   7.989 -0.1438  0.3955  0.7669
 2674Sol     HW13652   1.307   2.982   7.975 -0.2274  2.0913  0.1938
 2674Sol     HW13653   1.195   2.896   8.029  1.2865 -0.9863 -1.4688
 2674Sol     MW13654   1.220   2.973   7.992 -0.1176 -0.5378  0.1218
 2675Sol     OW13655   1.906   2.485   4.683 -0.5271 -0.4556  0.6004
 2675Sol     HW13656   1.960   2.553   4.723 -2.6157  0.9193  1.1109
 2675Sol     HW13657   1.931   2.405   4.729  0.1645  0.3847  1.7089
 2675Sol     MW13658   1.913   2.484   4.691 -0.8260 -0.7710  0.0322
 2676Sol     OW13659   2.643   0.648   4.395  0.0569 -0.9912  0.4812
 2676Sol     HW13660   2.638   0.665   4.489 -1.7355 -0.4289  0.2834
 2676Sol     HW13661   2.621   0.555   4.387 -1.6540 -0.5985  0.4537
 2676Sol     MW13662   2.641   0.641   4.403  0.0401 -0.2526  0.3110
 2677Sol     OW13663   1.640   0.789   4.532 -0.4893 -0.2092 -0.8037
 2677Sol     HW13664   1.609   0.722   4.594 -0.8854  1.6328  1.0457
 2677Sol     HW13665   1.570   0.795   4.468  0.4992 -3.0777 -2.2427
 2677Sol     MW13666   1.631   0.783   4.532  0.1170  0.0127  0.2947
 2678Sol     OW13667   1.916   3.346   7.066  0.0347 -0.3903  0.2013
 2678Sol     HW13668   1.942   3.324   7.156 -1.0555  0.5656  0.7548
 2678Sol     HW13669   1.823   3.323   7.062 -0.0394  0.0485 -0.5382
 2678Sol     MW13670   1.910   3.342   7.074  0.7501 -0.2448 -0.4042
 2679Sol     OW13671   1.887   2.909   6.501  0.3797  0.0588  0.6524
 2679Sol     HW13672   1.858   2.978   6.560 -0.9645  1.1014 -1.1947
 2679Sol     HW13673   1.813   2.849   6.495  1.0287 -0.8064  1.1230
 2679Sol     MW13674   1.878   2.910   6.506  0.5711 -0.0758 -0.1717
 2680Sol     OW13675   0.670   0.758   4.368 -0.7092  0.0168  0.1107
 2680Sol     HW13676   0.621   0.719   4.296  1.6584  0.7053 -1.9495
 2680Sol     HW13677   0.742   0.697   4.384 -1.8287 -0.6881  2.6811
 2680Sol     MW13678   0.672   0.749   4.363 -0.0063 -0.5572 -0.0447
 2681Sol     OW13679   1.186   0.937   2.211  0.3509  0.5179  0.1735
 2681Sol     HW13680   1.226   0.963   2.294  0.8709  2.2448 -0.5971
 2681Sol     HW13681   1.136   0.858   2.232  0.4919  0.9287  2.1208
 2681Sol     MW13682   1.185   0.932   2.220 -0.0345  0.2563 -0.5285
 2682Sol     OW13683   1.872   0.893   1.854 -0.4512 -0.4209  0.4862
 2682Sol     HW13684   1.778   0.897   1.835 -0.3004  0.0982 -0.1608
 2682Sol     HW13685   1.892   0.980   1.890 -0.5529 -1.0840  2.1857
 2682Sol     MW13686   1.865   0.902   1.856 -0.4446 -0.1518 -0.1863
 2683Sol     OW13687   0.068   3.369   6.335 -0.3449 -0.2180 -0.0515
 2683Sol     HW13688   0.068   3.380   6.430  2.7532  1.4917 -0.1664
 2683Sol     HW13689   0.111   3.284   6.321 -0.5004 -0.3181  0.0873
 2683Sol     MW13690   0.072   3.362   6.342  0.0395  0.2184 -0.2660
 2684Sol     OW13691   0.873   1.409   6.601 -0.3655  0.4685 -0.1774
 2684Sol     HW13692   0.924   1.422   6.521  1.9346 -0.8010  1.0383
 2684Sol     HW13693   0.829   1.493   6.615 -0.2813  0.9130 -2.3986
 2684Sol     MW13694   0.873   1.418   6.595  0.1228 -0.0031 -0.0463
 2685Sol     OW13695   1.856   1.356   3.169 -1.2030  0.4107 -0.0966
 2685Sol     HW13696   1.768   1.353   3.132 -1.8979  0.5022  1.5074
 2685Sol     HW13697   1.861   1.279   3.227 -0.9043  1.4293  1.2677
 2685Sol     MW13698   1.849   1.349   3.171 -0.4564 -0.0486 -0.2978
 2686Sol     OW13699   0.948   1.289   4.903 -0.4639 -0.2183  0.4318
 2686Sol     HW13700   0.928   1.315   4.993 -1.1957  0.6324  0.0218
 2686Sol     HW13701   0.997   1.207   4.913  1.5469  1.0762  1.7199
 2686Sol     MW13702   0.951   1.284   4.912 -0.4158 -0.0847 -0.3195
 2687Sol     OW13703   2.650   1.964   3.633  0.6107  0.0967 -0.0315
 2687Sol     HW13704   2.581   2.031   3.635 -0.9573 -1.5020  1.2555
 2687Sol     HW13705   2.693   1.972   3.718 -0.2901 -1.2305  0.5585
 2687Sol     MW13706   2.648   1.971   3.640  0.0219  0.3450 -0.3250
 2688Sol     OW13707   0.352   2.715   2.245 -0.4300  0.3761  0.5000
 2688Sol     HW13708   0.311   2.693   2.329 -2.2441 -0.3953 -0.5728
 2688Sol     HW13709   0.444   2.729   2.267 -0.3405 -2.5538  2.1852
 2688Sol     MW13710   0.357   2.715   2.255  0.6487  0.0858  0.0770
 2689Sol     OW13711   1.330   1.996   4.377 -0.9532 -0.0951  0.5081
 2689Sol     HW13712   1.284   2.068   4.335  0.8627 -0.1126 -1.6229
 2689Sol     HW13713   1.409   2.036   4.414 -1.6255 -0.4042  2.3042
 2689Sol     MW13714   1.333   2.006   4.377 -0.0571  0.1301  0.3395
 2690Sol     OW13715   0.566   2.376   1.540 -0.2067  0.0948  0.6462
 2690Sol     HW13716   0.554   2.462   1.581 -0.2072  0.6284 -0.4388
 2690Sol     HW13717   0.477   2.351   1.512 -0.1118  0.0455  0.3838
 2690Sol     MW13718   0.557   2.382   1.541 -0.0411  0.2864 -0.3761
 2691Sol     OW13719   0.831   1.937   8.519 -0.1352 -0.2613 -0.1200
 2691Sol     HW13720   0.802   1.964   8.606  0.2222 -1.9413  0.5373
 2691Sol     HW13721   0.902   1.998   8.497 -0.7997  0.7088  0.3772
 2691Sol     MW13722   0.835   1.945   8.525  0.4489  0.1338 -0.2578
 2692Sol     OW13723   1.184   0.210   3.829  0.3522 -0.2738 -0.3819
 2692Sol     HW13724   1.142   0.286   3.788  2.4116  1.5720  0.7839
 2692Sol     HW13725   1.143   0.135   3.788 -1.8829  1.4712 -1.4613
 2692Sol     MW13726   1.177   0.210   3.822 -0.3052  0.5953  0.3144
 2693Sol     OW13727   0.062   0.302   1.988  0.1490  0.0887 -0.1912
 2693Sol     HW13728   0.102   0.223   2.024 -0.0127  1.1837  2.5167
 2693Sol     HW13729   0.134   0.350   1.947  0.2207 -1.4809 -1.9620
 2693Sol     MW13730   0.072   0.300   1.988  0.1108 -0.6741 -0.3720
 2694Sol     OW13731   2.797   2.688   5.890 -0.5779  0.3104  0.1407
 2694Sol     HW13732   2.762   2.712   5.976 -2.6174  0.6519 -0.7501
 2694Sol     HW13733   2.794   2.770   5.840 -0.8430 -0.2239 -0.7166
 2694Sol     MW13734   2.794   2.698   5.894 -0.1994 -0.1284 -0.0790
 2695Sol     OW13735   1.161   1.493   4.486 -0.2592 -0.0184  0.1744
 2695Sol     HW13736   1.116   1.410   4.497 -0.3189 -0.3299 -2.2267
 2695Sol     HW13737   1.253   1.469   4.475 -0.1227  0.3224  0.5367
 2695Sol     MW13738   1.165   1.484   4.486  0.1980  0.0684 -0.2546
 2696Sol     OW13739   2.525   1.838   4.374 -0.1694  0.1227 -0.1849
 2696Sol     HW13740   2.481   1.762   4.334  0.0749 -0.0001 -0.2207
 2696Sol     HW13741   2.618   1.818   4.367 -0.1319 -0.0534  0.7398
 2696Sol     MW13742   2.529   1.829   4.370 -0.5119  0.0142 -0.1472
 2697Sol     OW13743   2.497   0.346   5.975 -0.2055 -0.0229  0.1829
 2697Sol     HW13744   2.460   0.345   5.887  1.3922 -1.7114 -0.5071
 2697Sol     HW13745   2.457   0.421   6.018 -2.9661 -0.7102 -1.1382
 2697Sol     MW13746   2.490   0.352   5.971 -0.0726  0.1198  0.0670
 2698Sol     OW13747   1.935   1.519   8.120  0.2902  0.1368  0.2641
 2698Sol     HW13748   1.965   1.580   8.188  2.6745 -0.0072 -0.6130
 2698Sol     HW13749   1.953   1.433   8.157  0.6275  0.0454 -0.1079
 2698Sol     MW13750   1.939   1.517   8.130  0.0827 -0.6741  0.1299
 2699Sol     OW13751   1.793   3.169   6.106  0.6847 -0.3157 -0.6730
 2699Sol     HW13752   1.866   3.115   6.136  1.9756  1.3574 -0.7273
 2699Sol     HW13753   1.831   3.256   6.095 -1.5220  0.7837  0.1276
 2699Sol     MW13754   1.803   3.172   6.108  0.4632  0.0219 -0.2618
 2700Sol     OW13755   0.629   0.331   3.285  0.3994 -0.0288 -0.3315
 2700Sol     HW13756   0.597   0.245   3.258 -0.9793  0.0225  1.0990
 2700Sol     HW13757   0.705   0.312   3.340  2.0778 -0.1926 -2.6287
 2700Sol     MW13758   0.633   0.322   3.287 -0.4615  0.0818 -0.4414
 2701Sol     OW13759   0.625   3.355   8.438 -0.5588  0.2928  0.8903
 2701Sol     HW13760   0.553   3.416   8.422  0.3626  1.4094  0.9362
 2701Sol     HW13761   0.595   3.302   8.512 -1.9660 -0.2860 -0.0661
 2701Sol     MW13762   0.616   3.356   8.443  0.4482  0.0439  0.5026
 2702Sol     OW13763   2.444   1.278   9.257 -0.2130  0.4312 -0.2170
 2702Sol     HW13764   2.466   1.210   9.193 -0.6305 -1.4606  1.5758
 2702Sol     HW13765   2.350   1.293   9.244 -0.5984 -0.9380  0.8086
 2702Sol     MW13766   2.437   1.273   9.250 -0.1861 -0.3632 -0.6082
 2703Sol     OW13767   0.049   0.922   9.045  0.1198  0.1097  0.1123
 2703Sol     HW13768   0.065   1.001   8.994  1.5049 -0.2454 -0.0020
 2703Sol     HW13769  -0.013   0.951   9.113  0.8886  1.3778  0.2992
 2703Sol     MW13770   0.045   0.932   9.047  0.4046 -0.4176 -0.3906
 2704Sol     OW13771   3.121   0.991   9.954 -0.0549 -0.2749  0.2205
 2704Sol     HW13772   3.170   0.915   9.985 -0.1505 -0.3421  0.2046
 2704Sol     HW13773   3.186   1.061   9.951  0.1616 -0.4924 -0.2940
 2704Sol     MW13774   3.131   0.990   9.957  0.0858 -0.0895  0.1047
 2705Sol     OW13775   1.710   2.771   2.237  0.5236  0.3625  0.0222
 2705Sol     HW13776   1.697   2.864   2.223 -0.2012  0.5911  2.0085
 2705Sol     HW13777   1.716   2.733   2.149  0.7134  2.2515 -0.7924
 2705Sol     MW13778   1.710   2.776   2.228 -0.2711 -0.1657 -0.1180
 2706Sol     OW13779   0.825   3.102   2.631 -0.5555  0.6689 -0.0251
 2706Sol     HW13780   0.856   3.122   2.543 -2.9891 -0.3012 -1.1681
 2706Sol     HW13781   0.838   3.007   2.640 -2.0529  0.4494 -0.0793
 2706Sol     MW13782   0.829   3.095   2.624 -0.0209  0.0558 -1.1647
 2707Sol     OW13783   1.388   2.567   8.845 -0.5462 -0.3141 -0.5388
 2707Sol     HW13784   1.337   2.586   8.924  0.4566  0.1920 -0.0017
 2707Sol     HW13785   1.459   2.631   8.847  0.8859 -1.8962 -0.5699
 2707Sol     MW13786   1.390   2.575   8.852 -0.7248 -0.2801  0.2940
 2708Sol     OW13787   1.384   2.086   7.996 -0.7192  0.5108  0.2640
 2708Sol     HW13788   1.359   2.177   8.011 -0.4142  0.8693 -1.2934
 2708Sol     HW13789   1.312   2.050   7.945  0.1183  0.4658 -0.9028
 2708Sol     MW13790   1.375   2.091   7.993 -0.5604 -0.3523 -0.1833
 2709Sol     OW13791   1.253   0.082   1.829  0.2705 -0.2160 -0.0620
 2709Sol     HW13792   1.278   0.003   1.877 -1.5400 -0.3260  0.7208
 2709Sol     HW13793   1.287   0.154   1.882 -0.9825 -0.3661  0.9698
 2709Sol     MW13794   1.258   0.081   1.838  0.0651 -0.0313 -0.3585
 2710Sol     OW13795   1.309   1.653   8.184 -0.0215  0.0844  0.0383
 2710Sol     HW13796   1.277   1.565   8.201 -0.5729  0.2323 -0.2353
 2710Sol     HW13797   1.241   1.711   8.218 -0.2038  0.3930 -0.8476
 2710Sol     MW13798   1.300   1.650   8.188  0.0922 -0.1521 -0.1619
 2711Sol     OW13799   0.417   1.622   6.576 -0.3924 -0.1681 -0.1568
 2711Sol     HW13800   0.434   1.539   6.532 -0.0760  0.4810 -1.2787
 2711Sol     HW13801   0.343   1.660   6.529  1.2982  1.5168 -1.5623
 2711Sol     MW13802   0.412   1.618   6.568  0.5019 -0.3763 -0.4279
 2712Sol     OW13803   2.535   1.938   2.680 -0.1067  0.1361 -0.0254
 2712Sol     HW13804   2.612   1.909   2.729 -1.1138 -2.4620  0.1290
 2712Sol     HW13805   2.548   1.904   2.592 -1.7224 -1.6012  0.3759
 2712Sol     MW13806   2.543   1.932   2.677  0.0147 -0.8864  0.1796
 2713Sol     OW13807   2.273   1.454   7.600 -0.0351  0.1007 -1.1882
 2713Sol     HW13808   2.278   1.433   7.693  0.2418 -0.5625 -1.3471
 2713Sol     HW13809   2.323   1.535   7.591 -1.0378  0.7962 -0.5797
 2713Sol     MW13810   2.278   1.460   7.608 -0.1273 -0.4710  0.3286
 2714Sol     OW13811   1.225   1.947   5.691 -0.2215  0.1756  0.2013
 2714Sol     HW13812   1.209   1.939   5.597 -0.6652  0.3954  0.2554
 2714Sol     HW13813   1.148   1.993   5.725 -0.0781  0.0741  0.6766
 2714Sol     MW13814   1.216   1.950   5.686 -0.0192 -0.4234 -0.1881
 2715Sol     OW13815   2.074   2.662   9.642  0.3311  0.6869  0.1797
 2715Sol     HW13816   2.108   2.716   9.571 -0.6446  2.1579  0.8123
 2715Sol     HW13817   2.152   2.627   9.685  0.9833  1.7111 -0.1519
 2715Sol     MW13818   2.084   2.664   9.640  0.0862 -0.1430  0.3601
 2716Sol     OW13819   2.129   2.522   2.502 -0.2757 -0.6944  0.0677
 2716Sol     HW13820   2.042   2.550   2.476  0.2799  0.0767 -1.0023
 2716Sol     HW13821   2.125   2.426   2.502 -1.3430 -0.6570  0.8302
 2716Sol     MW13822   2.121   2.516   2.500 -0.0872  0.1845 -0.5853
 2717Sol     OW13823   1.462   0.542   7.794 -0.4638 -0.2509  0.0547
 2717Sol     HW13824   1.526   0.473   7.810 -0.1090  0.4081  1.5273
 2717Sol     HW13825   1.382   0.510   7.836 -0.4609 -0.0389  0.2241
 2717Sol     MW13826   1.460   0.533   7.800 -0.3348 -0.6562 -0.1400
 2718Sol     OW13827   2.445   2.099   8.532 -0.1204 -0.9587  0.3297
 2718Sol     HW13828   2.450   2.136   8.443  0.7553 -1.4558  0.1591
 2718Sol     HW13829   2.519   2.139   8.578 -0.8384 -0.3623  0.9723
 2718Sol     MW13830   2.452   2.106   8.528 -0.3272 -0.1548  0.0918
 2719Sol     OW13831   1.225   3.347   9.922  0.5976  0.4413  0.6967
 2719Sol     HW13832   1.294   3.397   9.880  0.1533  0.3640 -0.1479
 2719Sol     HW13833   1.201   3.280   9.857 -0.5939  0.7719  0.7783
 2719Sol     MW13834   1.229   3.345   9.912  0.1080 -0.4763 -0.3802
 2720Sol     OW13835   1.315   3.172   2.343  0.3877  0.2043  0.5173
 2720Sol     HW13836   1.294   3.081   2.365  0.0133  0.3399  0.7164
 2720Sol     HW13837   1.249   3.197   2.278 -0.1854  0.6908  1.2847
 2720Sol     MW13838   1.307   3.166   2.339  0.3030 -0.1428 -0.4674
 2721Sol     OW13839   2.493   3.203   9.931  0.2164  0.2142  0.2453
 2721Sol     HW13840   2.465   3.139   9.996 -0.9662 -0.3916 -0.8272
 2721Sol     HW13841   2.562   3.253   9.974 -0.4984 -0.2219  1.9236
 2721Sol     MW13842   2.496   3.201   9.941  0.4913  0.0645  0.1080
 2722Sol     OW13843   1.507   0.514   4.405  0.2000 -0.1632 -0.3246
 2722Sol     HW13844   1.492   0.423   4.377  1.0378 -0.7964  1.2343
 2722Sol     HW13845   1.592   0.537   4.367 -0.1702  0.1116 -1.0121
 2722Sol     MW13846   1.514   0.508   4.399 -0.4305 -0.1362  0.1757
 2723Sol     OW13847   0.377   1.258   6.253  0.0666 -0.1223 -0.0445
 2723Sol     HW13848   0.285   1.241   6.272  0.3188  0.6101  2.0570
 2723Sol     HW13849   0.420   1.173   6.263 -0.0259 -0.0116  1.5627
 2723Sol     MW13850   0.373   1.249   6.256 -0.1951 -0.2987  0.3557
 2724Sol     OW13851   1.261   1.618   6.441  0.4254 -0.3531  0.1003
 2724Sol     HW13852   1.204   1.690   6.413 -0.4733 -0.8892  0.5333
 2724Sol     HW13853   1.273   1.632   6.535 -0.1162 -1.0184  0.2694
 2724Sol     MW13854   1.257   1.626   6.447  0.6971 -0.4673 -0.6549
 2725Sol     OW13855   1.634   2.254   8.919 -0.1870 -0.0459  0.1090
 2725Sol     HW13856   1.687   2.187   8.961  1.7502  1.3070 -0.0854
 2725Sol     HW13857   1.624   2.322   8.986 -1.3223 -0.1035 -0.0002
 2725Sol     MW13858   1.638   2.254   8.929  0.1449  0.3696  0.1090
 2726Sol     OW13859   0.522   2.555   6.538  0.2807 -0.1929 -0.0933
 2726Sol     HW13860   0.559   2.637   6.570 -1.5111  1.2771 -1.6837
 2726Sol     HW13861   0.541   2.492   6.608  1.8892  1.5070  1.0537
 2726Sol     MW13862   0.527   2.557   6.547 -0.3051 -0.3067  0.2415
 2727Sol     OW13863   2.354   1.244   2.115 -0.2302  0.0159 -0.1631
 2727Sol     HW13864   2.368   1.338   2.124 -1.4466  0.1012  0.9057
 2727Sol     HW13865   2.294   1.235   2.042 -0.8699  0.1398  0.3399
 2727Sol     MW13866   2.350   1.251   2.110  0.4306 -0.3878 -0.1818
 2728Sol     OW13867   1.315   2.257   9.695  0.3838  0.2279  0.6451
 2728Sol     HW13868   1.382   2.211   9.646  0.3894 -0.2268  1.0754
 2728Sol     HW13869   1.236   2.203   9.685  0.6340 -0.3982  1.9571
 2728Sol     MW13870   1.314   2.248   9.690  0.0887 -0.1383 -0.1593
 2729Sol     OW13871   2.642   0.076   9.802 -0.5808  0.2982 -0.1112
 2729Sol     HW13872   2.557   0.095   9.764 -1.1793 -1.1452  0.4603
 2729Sol     HW13873   2.663  -0.012   9.771 -0.5802 -0.4671  1.9786
 2729Sol     MW13874   2.636   0.070   9.796  0.3010  0.2818  0.0003
 2730Sol     OW13875   2.035   2.558   3.410  0.2766 -0.3702 -0.0929
 2730Sol     HW13876   1.993   2.633   3.368 -0.2130  0.0333  1.0975
 2730Sol     HW13877   2.018   2.485   3.351  0.2660  0.3413 -0.9819
 2730Sol     MW13878   2.030   2.558   3.401  0.3834  0.2934  0.2637
 2731Sol     OW13879   0.817   1.004   8.686  0.1149  0.3477  0.1291
 2731Sol     HW13880   0.871   1.077   8.657  1.1547 -0.1663  0.7385
 2731Sol     HW13881   0.729   1.025   8.655  0.4211  1.8134  0.2324
 2731Sol     MW13882   0.814   1.012   8.681 -0.3273  0.6786  0.1829
 2732Sol     OW13883   2.606   1.411   5.619  0.3958  0.3739  0.4162
 2732Sol     HW13884   2.616   1.475   5.689  1.1139  0.7611 -0.0433
 2732Sol     HW13885   2.622   1.460   5.539  0.2143 -0.2178  0.0148
 2732Sol     MW13886   2.608   1.421   5.618  0.2263  0.4216 -0.1465
 2733Sol     OW13887   1.479   2.729   2.911 -0.0240 -0.2055 -0.0705
 2733Sol     HW13888   1.452   2.819   2.929 -1.6144 -0.5793 -0.5132
 2733Sol     HW13889   1.401   2.677   2.928  1.2811 -1.6833  1.6013
 2733Sol     MW13890   1.469   2.732   2.914 -0.5192 -0.1159  0.0393
 2734Sol     OW13891   0.993   3.352   8.258 -0.4449 -0.1221 -0.7057
 2734Sol     HW13892   0.993   3.301   8.177 -0.6008  0.9182 -1.3655
 2734Sol     HW13893   1.086   3.359   8.281 -0.4969 -1.8321  0.1182
 2734Sol     MW13894   1.002   3.348   8.253  0.4700 -0.8463  0.1076
 2735Sol     OW13895   1.839   0.341   2.252 -0.4780  0.0090  0.0852
 2735Sol     HW13896   1.777   0.405   2.217 -1.7188 -0.3160  1.6613
 2735Sol     HW13897   1.903   0.328   2.181 -1.2633  1.5848 -0.9293
 2735Sol     MW13898   1.840   0.346   2.242 -0.3429  0.6214 -0.3867
 2736Sol     OW13899   2.165   0.314   2.900  0.3289 -0.1556 -0.3933
 2736Sol     HW13900   2.196   0.360   2.822  1.5707 -2.1261 -1.1039
 2736Sol     HW13901   2.087   0.267   2.872 -0.2510  0.5483  0.0237
 2736Sol     MW13902   2.161   0.314   2.891 -0.0425 -0.4513 -0.0759
 2737Sol     OW13903   3.062   2.927   9.087 -0.7559 -0.2476  0.0158
 2737Sol     HW13904   3.033   2.975   9.165 -1.5529  0.7015 -0.8436
 2737Sol     HW13905   3.156   2.945   9.082 -0.2480 -2.1166  1.9729
 2737Sol     MW13906   3.068   2.933   9.094 -0.3836 -0.1343 -0.1769
 2738Sol     OW13907   2.302   2.921   7.801 -0.6502  0.1500 -0.1424
 2738Sol     HW13908   2.336   2.884   7.719 -0.9556  0.6615 -0.5004
 2738Sol     HW13909   2.223   2.870   7.818  0.2190 -0.9785  0.6422
 2738Sol     MW13910   2.298   2.913   7.795 -0.4242 -0.4683  0.2911
 2739Sol     OW13911   0.019   0.442   8.811  0.3539 -0.3487  0.5471
 2739Sol     HW13912   0.028   0.527   8.854 -0.7978  0.0756 -0.0333
 2739Sol     HW13913  -0.075   0.429   8.805  0.5280 -1.7762  0.8309
 2739Sol     MW13914   0.012   0.449   8.814 -0.5325 -0.0642  0.0939
 2740Sol     OW13915   1.074   1.531   3.072  0.2290  0.1736  0.0195
 2740Sol     HW13916   1.096   1.452   3.023  1.6138  0.0900  0.7242
 2740Sol     HW13917   0.990   1.511   3.114  0.5570 -0.9197  0.1749
 2740Sol     MW13918   1.069   1.522   3.072  0.5026  0.2329 -0.0626
 2741Sol     OW13919   1.920   2.768   7.022  0.1585  0.0439  0.8120
 2741Sol     HW13920   1.936   2.674   7.017  0.3275  0.1478 -1.0192
 2741Sol     HW13921   1.825   2.777   7.025  0.1151 -0.1456 -0.0706
 2741Sol     MW13922   1.913   2.761   7.022 -0.4481  0.4107 -0.9167
 2742Sol     OW13923   1.355   2.924   9.047 -0.1397 -0.0857 -0.1006
 2742Sol     HW13924   1.416   2.882   8.986 -0.5611  0.4481 -0.8836
 2742Sol     HW13925   1.390   3.012   9.059  1.0612 -0.7891  1.9805
 2742Sol     MW13926   1.364   2.928   9.043 -0.3813 -0.5175 -0.6798
 2743Sol     OW13927   0.269   1.775   4.299 -0.2037 -0.2746  0.1384
 2743Sol     HW13928   0.339   1.777   4.365 -0.5053  2.5271  0.4410
 2743Sol     HW13929   0.193   1.742   4.346 -0.7078  2.7226  1.5863
 2743Sol     MW13930   0.268   1.772   4.309  0.7311 -0.2449  0.0916
 2744Sol     OW13931   2.159   0.247   7.411 -0.6907 -0.1577 -0.2493
 2744Sol     HW13932   2.213   0.175   7.377 -0.9892 -0.9508  0.9333
 2744Sol     HW13933   2.165   0.315   7.344  1.2418 -0.4968 -0.4306
 2744Sol     MW13934   2.164   0.247   7.402  0.5222 -0.1028 -0.5121
 2745Sol     OW13935   0.429   0.431   7.774 -0.3655 -0.2523 -0.0772
 2745Sol     HW13936   0.489   0.386   7.714  1.4551  0.7590  0.9298
 2745Sol     HW13937   0.342   0.413   7.739  0.4847 -2.1821 -1.3033
 2745Sol     MW13938   0.427   0.425   7.765 -0.2140  0.0105 -0.1067
 2746Sol     OW13939   3.002   1.264   8.275 -0.4489 -0.0824 -0.1350
 2746Sol     HW13940   2.986   1.170   8.284 -1.2942 -0.2339 -2.8607
 2746Sol     HW13941   3.054   1.272   8.195  1.6778  1.5903  1.3527
 2746Sol     MW13942   3.006   1.256   8.269 -0.0142 -0.1652 -0.5040
 2747Sol     OW13943   1.289   1.615   8.771  0.1748  0.0104  0.3350
 2747Sol     HW13944   1.287   1.573   8.685 -2.1381 -1.0402  0.8711
 2747Sol     HW13945   1.290   1.542   8.833  1.2359  0.7582  1.2130
 2747Sol     MW13946   1.289   1.604   8.769 -0.1184 -0.5071  0.4224
 2748Sol     OW13947   2.652   2.083   9.720 -0.4439  0.4108 -0.4435
 2748Sol     HW13948   2.690   2.035   9.647  1.2666  0.7548  0.1885
 2748Sol     HW13949   2.559   2.086   9.701 -0.2105 -0.7688 -1.8700
 2748Sol     MW13950   2.647   2.079   9.712 -0.2315 -0.0900  0.0657
 2749Sol     OW13951   3.177   2.279   7.512 -0.2502  0.0951 -0.3295
 2749Sol     HW13952   3.123   2.200   7.501  0.0924  0.1024 -2.2203
 2749Sol     HW13953   3.172   2.323   7.427 -0.0029  1.8417  0.5508
 2749Sol     MW13954   3.171   2.276   7.503  0.0848 -0.2952 -0.6283
 2750Sol     OW13955   2.709   1.271   9.863 -0.2620 -0.4965 -0.7306
 2750Sol     HW13956   2.760   1.213   9.918 -0.8621 -1.7775 -1.5148
 2750Sol     HW13957   2.623   1.228   9.855 -1.1530  1.1343 -0.2167
 2750Sol     MW13958   2.706   1.262   9.867 -0.1717  0.1448 -0.5025
 2751Sol     OW13959   2.681   0.189   3.161  0.5378 -0.4838 -0.3736
 2751Sol     HW13960   2.701   0.110   3.111 -0.3842  0.8926 -2.9999
 2751Sol     HW13961   2.587   0.184   3.176  0.3696  0.4159 -1.1014
 2751Sol     MW13962   2.675   0.181   3.158 -0.4224  0.1522 -0.0285
 2752Sol     OW13963   2.038   3.177   6.881  0.6506 -0.4183  0.8860
 2752Sol     HW13964   1.996   3.231   6.948  0.2094  0.3442  0.0076
 2752Sol     HW13965   2.125   3.215   6.870 -0.1953  1.1409 -0.8445
 2752Sol     MW13966   2.042   3.185   6.886 -0.0656 -0.2926  0.5058
 2753Sol     OW13967   1.396   3.338   3.773 -0.1583  0.4568 -0.0783
 2753Sol     HW13968   1.443   3.421   3.778  0.4439  0.1174 -0.0914
 2753Sol     HW13969   1.388   3.311   3.865  2.4253 -1.0183 -0.2347
 2753Sol     MW13970   1.399   3.343   3.782  0.0918 -0.5779 -0.1606
 2754Sol     OW13971   0.370   1.681   6.838  0.4222 -0.2804  0.6952
 2754Sol     HW13972   0.392   1.670   6.746 -0.9029 -2.1405  0.5791
 2754Sol     HW13973   0.428   1.620   6.884 -0.3863 -0.8988  0.9009
 2754Sol     MW13974   0.377   1.674   6.834 -0.5797 -0.1774 -0.5639
 2755Sol     OW13975   2.580   2.329   5.289  0.5728  0.7067 -0.1621
 2755Sol     HW13976   2.509   2.386   5.317  0.5202  0.8235 -0.5442
 2755Sol     HW13977   2.539   2.265   5.231  0.4704 -0.2524  0.9491
 2755Sol     MW13978   2.570   2.328   5.287  0.3024  0.1792  0.3680
 2756Sol     OW13979   0.975   0.886   6.134 -0.6664  0.6709  0.1115
 2756Sol     HW13980   0.964   0.872   6.040 -1.3252  1.9607 -0.0161
 2756Sol     HW13981   1.060   0.845   6.154 -0.1698  1.0244 -1.1840
 2756Sol     MW13982   0.982   0.881   6.127 -0.1599 -0.2702  0.0625
 2757Sol     OW13983   2.218   2.279   9.680  0.1744  0.2866 -0.4538
 2757Sol     HW13984   2.298   2.227   9.687  1.7809  2.5909 -0.7940
 2757Sol     HW13985   2.172   2.264   9.762  0.5059 -1.7619 -0.6134
 2757Sol     MW13986   2.221   2.273   9.688 -0.2572  0.0108 -0.5213
 2758Sol     OW13987   1.662   3.020   4.019  0.5462 -0.1738 -0.2215
 2758Sol     HW13988   1.737   3.077   4.038 -0.8837  1.9861 -0.9144
 2758Sol     HW13989   1.638   2.984   4.105 -0.1093  2.2999  0.6898
 2758Sol     MW13990   1.667   3.022   4.029  0.5897  0.1208  0.3150
 2759Sol     OW13991   1.490   0.571   8.171 -0.2134 -0.3388 -0.6181
 2759Sol     HW13992   1.522   0.662   8.174  0.1435 -0.4176 -1.9989
 2759Sol     HW13993   1.420   0.572   8.106 -0.7194 -0.9100 -0.0919
 2759Sol     MW13994   1.486   0.580   8.166 -0.3379 -0.0200 -0.4439
 2760Sol     OW13995   0.403   0.880   2.890  0.1589 -0.4658  0.1390
 2760Sol     HW13996   0.331   0.943   2.896  0.9977  0.4504  0.6679
 2760Sol     HW13997   0.457   0.913   2.818 -0.3545 -1.5870 -0.7777
 2760Sol     MW13998   0.401   0.889   2.884 -0.4263  0.3974 -0.4436
 2761Sol     OW13999   0.278   0.890   7.528 -0.1694 -0.0831 -0.3540
 2761Sol     HW14000   0.253   0.956   7.464 -1.1367 -1.1947 -1.1394
 2761Sol     HW14001   0.320   0.822   7.477 -0.1291 -0.5632  0.3143
 2761Sol     MW14002   0.279   0.890   7.518  0.0653  0.0269  0.1542
 2762Sol     OW14003   1.000   2.073   3.161  0.2919  0.3687  0.3480
 2762Sol     HW14004   0.948   2.071   3.241  2.3286 -0.9495  1.6886
 2762Sol     HW14005   1.022   2.165   3.148 -1.4331  0.8042  0.3443
 2762Sol     MW14006   0.997   2.081   3.167  0.0185 -0.2170 -0.2401
 2763Sol     OW14007   3.040   2.279   9.438 -0.9454 -0.4594  0.2785
 2763Sol     HW14008   3.017   2.200   9.390  0.7121 -0.2111 -0.9655
 2763Sol     HW14009   3.072   2.247   9.523 -0.3973 -1.1239 -0.1764
 2763Sol     MW14010   3.041   2.269   9.442 -0.1098 -0.0150 -0.1879
 2764Sol     OW14011   0.036   3.143   9.280 -0.1811 -0.1628  0.4439
 2764Sol     HW14012   0.093   3.210   9.318  0.1677 -0.2620  0.0939
 2764Sol     HW14013   0.078   3.119   9.197 -1.1882  0.4057 -0.2427
 2764Sol     MW14014   0.045   3.147   9.276 -0.1261  0.3429  0.4631
 2765Sol     OW14015   2.923   1.000   3.715 -0.2613 -0.3462 -0.0068
 2765Sol     HW14016   2.888   1.090   3.710  0.0772 -0.1843  0.5337
 2765Sol     HW14017   2.850   0.948   3.749  0.0026 -0.0109  1.0973
 2765Sol     MW14018   2.913   1.004   3.718  0.1435  0.3941  0.1928
 2766Sol     OW14019   2.643   0.413   1.726 -0.3890 -0.0693 -0.2269
 2766Sol     HW14020   2.651   0.482   1.661  1.8889  0.8758  1.0377
 2766Sol     HW14021   2.644   0.458   1.810 -0.5082 -1.5139  0.5682
 2766Sol     MW14022   2.643   0.423   1.728  0.9491 -0.1148 -0.3374
 2767Sol     OW14023   2.024   1.024   7.161 -0.2295  0.4675  0.5284
 2767Sol     HW14024   1.955   1.060   7.105  0.4642  0.2924 -0.4558
 2767Sol     HW14025   2.102   1.026   7.106  0.4684  0.2995  1.5044
 2767Sol     MW14026   2.025   1.028   7.151 -0.2253 -0.0385 -0.1740
 2768Sol     OW14027   2.949   1.799   2.655 -0.1790 -0.1049 -0.3962
 2768Sol     HW14028   3.028   1.842   2.621  0.3864  0.2978  1.3607
 2768Sol     HW14029   2.980   1.715   2.688 -0.2564  0.4732  1.2344
 2768Sol     MW14030   2.959   1.796   2.655 -0.0995 -0.4317  0.1953
 2769Sol     OW14031   2.909   0.110   6.822  0.2551  0.1892  0.2373
 2769Sol     HW14032   2.841   0.178   6.825  0.6519  0.5883  0.2348
 2769Sol     HW14033   2.935   0.107   6.731 -0.0183 -0.2257  0.1722
 2769Sol     MW14034   2.905   0.116   6.814 -0.5528  0.0254  0.0040
 2770Sol     OW14035   2.858   0.276   9.437  0.1123 -0.0552  0.1379
 2770Sol     HW14036   2.934   0.258   9.383  1.0504 -2.4172  2.1503
 2770Sol     HW14037   2.813   0.192   9.446 -2.0512  1.0381  0.0275
 2770Sol     MW14038   2.861   0.267   9.433 -0.8259 -0.1690 -0.2972
 2771Sol     OW14039   2.420   1.646   6.080  0.2625  0.5527 -0.1496
 2771Sol     HW14040   2.414   1.563   6.128  0.6917 -0.1579 -1.2954
 2771Sol     HW14041   2.440   1.711   6.147 -0.3514 -0.2233  0.8120
 2771Sol     MW14042   2.421   1.644   6.090 -0.0768  0.0355 -0.3762
 2772Sol     OW14043   2.291   1.627   4.673 -0.5656 -0.5963  0.5980
 2772Sol     HW14044   2.383   1.601   4.683 -0.4083 -0.0566  0.5564
 2772Sol     HW14045   2.261   1.580   4.595 -0.5474 -1.3790  1.0505
 2772Sol     MW14046   2.297   1.620   4.667 -0.2674 -0.0295  0.0734
 2773Sol     OW14047   2.892   2.545   4.718  0.1281 -0.2055  0.3195
 2773Sol     HW14048   2.927   2.492   4.647 -0.4709  0.5625 -0.5627
 2773Sol     HW14049   2.800   2.560   4.694  0.3210  1.3153  0.4923
 2773Sol     MW14050   2.887   2.542   4.710 -0.3146 -0.1187  0.0132
 2774Sol     OW14051   0.766   0.295   2.225 -0.3206 -0.3874  0.0115
 2774Sol     HW14052   0.703   0.343   2.278  1.0915 -0.0387  1.4018
 2774Sol     HW14053   0.714   0.257   2.154 -1.5868  2.6646 -0.8016
 2774Sol     MW14054   0.756   0.296   2.223 -0.0340  0.0647  0.2018
 2775Sol     OW14055   0.069   3.284   2.254  0.2411 -0.0298  0.7116
 2775Sol     HW14056   0.083   3.281   2.349  0.5971 -0.7787  0.6433
 2775Sol     HW14057  -0.026   3.291   2.244  0.2440  0.6810  1.1296
 2775Sol     MW14058   0.062   3.284   2.262  0.5506 -0.2677  0.0600
 2776Sol     OW14059   0.293   0.820   9.146 -0.6853  0.2926  0.3075
 2776Sol     HW14060   0.223   0.878   9.118 -0.0548  0.8709 -0.1043
 2776Sol     HW14061   0.337   0.868   9.216  0.9466  1.1250 -1.2307
 2776Sol     MW14062   0.291   0.830   9.150 -0.0458 -0.3566 -0.1381
 2777Sol     OW14063   2.860   1.260   6.503  0.0358 -0.3875 -0.6535
 2777Sol     HW14064   2.913   1.332   6.534  0.3483 -0.4275 -1.0889
 2777Sol     HW14065   2.923   1.197   6.467 -0.1929 -1.1075  0.1820
 2777Sol     MW14066   2.870   1.261   6.502  0.4900 -0.1678  0.5595
 2778Sol     OW14067   2.196   0.332   5.546  0.8266  0.2175 -0.2505
 2778Sol     HW14068   2.193   0.263   5.479  0.5633  0.4563 -0.4847
 2778Sol     HW14069   2.125   0.391   5.523 -0.7777 -0.9238  1.5500
 2778Sol     MW14070   2.189   0.331   5.538  0.0057 -0.0307 -0.1532
 2779Sol     OW14071   2.318   2.451  10.099 -0.3389 -0.8778 -0.2448
 2779Sol     HW14072   2.401   2.474  10.058 -0.8017  0.5253 -0.4200
 2779Sol     HW14073   2.260   2.525  10.080 -1.7403 -1.9936 -0.4330
 2779Sol     MW14074   2.320   2.460  10.093  0.4286  0.5386  0.1797
 2780Sol     OW14075   1.828   0.697   7.915  0.5817  0.3675  0.3548
 2780Sol     HW14076   1.914   0.739   7.912  0.5143  0.5965  1.4142
 2780Sol     HW14077   1.767   0.769   7.896  0.5071  0.6289  1.5410
 2780Sol     MW14078   1.830   0.708   7.913 -0.3101 -0.3798  0.2745
 2781Sol     OW14079   1.139   0.349   2.428 -0.1130 -0.4418 -0.3274
 2781Sol     HW14080   1.103   0.265   2.458 -0.5269 -0.3427 -0.5403
 2781Sol     HW14081   1.079   0.377   2.359  0.2419 -0.1554 -0.5233
 2781Sol     MW14082   1.130   0.344   2.424  0.3695 -0.0468  0.0606
 2782Sol     OW14083   0.972   0.367   1.918 -0.0657  0.2258  0.2635
 2782Sol     HW14084   0.972   0.285   1.869  1.6993 -1.4658  2.9802
 2782Sol     HW14085   0.880   0.382   1.940 -0.5015 -0.5646 -0.9689
 2782Sol     MW14086   0.964   0.361   1.915 -0.4094 -0.0421 -0.3853
 2783Sol     OW14087   0.333   3.268   9.960  0.4428  0.3789  0.1527
 2783Sol     HW14088   0.342   3.315   9.877  0.3858  1.3630  0.6921
 2783Sol     HW14089   0.413   3.216   9.967  0.6851  0.6896 -0.2622
 2783Sol     MW14090   0.341   3.267   9.953  0.1547 -0.3213  0.6569
 2784Sol     OW14091   2.206   0.334   4.487  0.1085 -0.1483  0.2443
 2784Sol     HW14092   2.291   0.369   4.460  0.4309  2.4930  4.3254
 2784Sol     HW14093   2.142   0.389   4.441  0.5698 -0.6502 -1.0234
 2784Sol     MW14094   2.208   0.342   4.480 -0.4851  0.1476  0.2236
 2785Sol     OW14095   0.060   2.850   5.327 -0.1649 -0.2039  0.1104
 2785Sol     HW14096   0.029   2.937   5.301  0.9648  1.1013  2.8869
 2785Sol     HW14097  -0.020   2.801   5.346 -0.7641  0.9331  0.5792
 2785Sol     MW14098   0.050   2.853   5.327 -0.4583  0.2951  0.3440
 2786Sol     OW14099   0.763   1.810   5.331  0.2722  0.4481  0.3113
 2786Sol     HW14100   0.823   1.781   5.263 -0.8807 -0.4567 -0.3248
 2786Sol     HW14101   0.733   1.897   5.302 -0.5843 -0.1362 -0.5902
 2786Sol     MW14102   0.766   1.816   5.322  0.3889  0.7679  0.5027
 2787Sol     OW14103   1.114   0.666   2.265 -0.0050 -0.0315  0.2909
 2787Sol     HW14104   1.200   0.624   2.263 -0.2928 -0.6105 -4.0362
 2787Sol     HW14105   1.053   0.599   2.235 -1.6983  0.9757  1.3643
 2787Sol     MW14106   1.116   0.656   2.262 -0.1845  0.8443 -0.0206
 2788Sol     OW14107   1.772   1.541   4.578 -0.8482 -0.2441  0.0026
 2788Sol     HW14108   1.701   1.602   4.599 -0.4981  0.3858 -0.6192
 2788Sol     HW14109   1.802   1.510   4.663 -2.0648 -0.7437  0.2621
 2788Sol     MW14110   1.768   1.544   4.588 -0.1458 -0.0890  0.1011
 2789Sol     OW14111   0.118   1.185   9.917  0.4231 -0.1937  0.4517
 2789Sol     HW14112   0.137   1.235   9.838  0.7047 -1.7905 -0.5017
 2789Sol     HW14113   0.190   1.122   9.925 -0.1352 -0.7311  1.4022
 2789Sol     MW14114   0.126   1.184   9.911 -0.0499 -0.1971 -0.2083
 2790Sol     OW14115   3.071   1.762   7.259 -0.5745 -0.2601 -0.5229
 2790Sol     HW14116   3.085   1.852   7.229 -0.5934 -0.2436 -0.4832
 2790Sol     HW14117   3.086   1.708   7.182  3.2082 -0.5352  0.2899
 2790Sol     MW14118   3.074   1.765   7.250  0.6478 -0.3520 -0.3574
 2791Sol     OW14119   2.271   1.795   9.005  0.2792 -0.4680  0.8056
 2791Sol     HW14120   2.209   1.735   9.047 -0.7999  0.7728  1.0108
 2791Sol     HW14121   2.235   1.809   8.917  1.0480 -0.8764  0.4214
 2791Sol     MW14122   2.262   1.791   9.001  0.0959 -0.5995  0.0797
 2792Sol     OW14123   2.976   0.710   4.965 -0.2625  0.4950 -0.4666
 2792Sol     HW14124   2.935   0.745   4.886 -1.0609 -0.4920 -0.5011
 2792Sol     HW14125   2.912   0.728   5.034 -1.0249 -1.5205 -0.6058
 2792Sol     MW14126   2.966   0.715   4.964 -0.3022  0.1895 -0.3517
 2793Sol     OW14127   2.290   1.109   7.921 -0.4799  0.4742 -0.5910
 2793Sol     HW14128   2.347   1.086   7.847  1.5399 -0.0659  1.0885
 2793Sol     HW14129   2.314   1.046   7.989 -2.2536  1.0376  0.5700
 2793Sol     MW14130   2.298   1.101   7.920  0.0201 -0.0962  0.2272
 2794Sol     OW14131   0.247   0.475   1.843 -0.0684 -0.0608 -0.1544
 2794Sol     HW14132   0.267   0.486   1.750 -0.0597  2.2047  0.0948
 2794Sol     HW14133   0.332   0.466   1.885  0.0605  1.2332 -0.1086
 2794Sol     MW14134   0.256   0.475   1.838  0.4984  0.0370  0.7181
 2795Sol     OW14135   1.171   3.132   6.848 -0.3216 -0.2566  0.4511
 2795Sol     HW14136   1.169   3.095   6.936  0.4241 -1.4212 -0.0086
 2795Sol     HW14137   1.161   3.056   6.790  0.1239  0.3897 -0.4785
 2795Sol     MW14138   1.170   3.122   6.850  0.3791 -0.3690 -0.4068
 2796Sol     OW14139   0.984   0.651   7.991  0.3771 -0.1553  0.2855
 2796Sol     HW14140   0.998   0.743   8.013  2.4259 -0.7360  1.4636
 2796Sol     HW14141   0.973   0.608   8.076 -0.8262 -0.9868 -0.2769
 2796Sol     MW14142   0.984   0.656   8.001  0.0917 -0.0893  0.0469
 2797Sol     OW14143   2.434   2.457   9.132  0.4610  0.2971  0.2276
 2797Sol     HW14144   2.339   2.454   9.120  0.6564 -0.1855 -1.4388
 2797Sol     HW14145   2.450   2.411   9.214 -0.7035 -0.0356  0.2730
 2797Sol     MW14146   2.427   2.453   9.138 -0.1579  0.4756  0.3906
 2798Sol     OW14147   1.432   2.131   8.781 -0.1752  0.0934 -0.5757
 2798Sol     HW14148   1.500   2.161   8.842 -0.9457 -0.6746  0.6789
 2798Sol     HW14149   1.401   2.049   8.818 -2.2593  0.7621 -0.7584
 2798Sol     MW14150   1.435   2.127   8.790  0.4045 -0.4023 -0.7083
 2799Sol     OW14151   0.058   1.329   4.228 -0.8346  0.2999  0.3112
 2799Sol     HW14152   0.060   1.235   4.208  2.9382  0.0631  1.4823
 2799Sol     HW14153   0.123   1.367   4.170  0.8289  1.5001  2.8823
 2799Sol     MW14154   0.064   1.324   4.221  0.4973  0.0537 -0.5539
 2800Sol     OW14155   2.394   0.454   3.035  0.0719  0.2781 -0.6956
 2800Sol     HW14156   2.386   0.426   3.126  1.6063  1.6810 -0.1011
 2800Sol     HW14157   2.315   0.422   2.992 -0.8018 -0.1222  1.1960
 2800Sol     MW14158   2.387   0.449   3.039  0.3007 -0.0508 -0.4623
 2801Sol     OW14159   0.636   0.187   9.378 -0.5191 -0.2149  0.4377
 2801Sol     HW14160   0.584   0.120   9.422 -1.3110  0.2339  0.2034
 2801Sol     HW14161   0.619   0.174   9.285  0.2498 -0.4334  0.3214
 2801Sol     MW14162   0.630   0.180   9.374 -0.0482  0.2592  0.7790
 2802Sol     OW14163   0.622   2.967   1.967  0.4031 -0.1626  0.5530
 2802Sol     HW14164   0.551   2.916   1.928  0.9323  1.1381 -2.2121
 2802Sol     HW14165   0.578   3.038   2.014 -0.1772 -0.1812  0.0395
 2802Sol     MW14166   0.612   2.969   1.968 -0.4830 -0.3622 -0.3395
 2803Sol     OW14167   0.231   1.386   5.320 -0.8675 -0.2420  0.1317
 2803Sol     HW14168   0.276   1.347   5.395 -1.0614 -0.9367 -0.1077
 2803Sol     HW14169   0.138   1.370   5.338 -1.0494  1.5344  0.8195
 2803Sol     MW14170   0.227   1.381   5.329 -0.6301 -0.2281 -0.8070
 2804Sol     OW14171   0.332   1.878   3.941  0.0014  0.3505 -0.7582
 2804Sol     HW14172   0.270   1.935   3.987 -1.6508 -0.4073 -1.9683
 2804Sol     HW14173   0.307   1.789   3.967  0.6515  0.0399 -1.1758
 2804Sol     MW14174   0.324   1.875   3.948  0.1823  0.0882  1.0791
 2805Sol     OW14175   0.194   1.240   6.792  0.2500 -0.4221 -0.0715
 2805Sol     HW14176   0.173   1.323   6.748  1.4352  0.6334  1.2953
 2805Sol     HW14177   0.289   1.240   6.800  0.0067  0.2320  3.9321
 2805Sol     MW14178   0.200   1.248   6.788 -0.5855 -0.3937 -0.3314
 2806Sol     OW14179   0.231   0.023   5.843  0.2820 -0.8182  0.3024
 2806Sol     HW14180   0.324   0.001   5.856  0.4428  0.0386  0.6380
 2806Sol     HW14181   0.228   0.063   5.756  0.4009  0.0629  0.6926
 2806Sol     MW14182   0.239   0.025   5.837 -0.2729  0.5999 -0.6189
 2807Sol     OW14183   2.946   0.995   8.310 -0.0335  0.0232 -0.3625
 2807Sol     HW14184   2.854   0.976   8.326  0.3661 -0.7416  1.1244
 2807Sol     HW14185   2.988   0.986   8.396  1.9054 -2.4034 -1.4978
 2807Sol     MW14186   2.942   0.993   8.320 -0.2927 -0.1379 -0.1467
 2808Sol     OW14187   0.612   0.592   7.476  0.4170  0.2834 -0.1024
 2808Sol     HW14188   0.664   0.613   7.553 -0.1896  0.5942  0.2267
 2808Sol     HW14189   0.660   0.522   7.433  0.5945 -0.1162  0.7374
 2808Sol     MW14190   0.621   0.587   7.479  0.2836  0.4699  0.0559
 2809Sol     OW14191   1.309   1.209   7.782 -0.7470  0.0280 -0.5243
 2809Sol     HW14192   1.242   1.227   7.716 -1.8118  0.0714  0.5566
 2809Sol     HW14193   1.355   1.132   7.748 -1.1875  0.1413 -1.3901
 2809Sol     MW14194   1.307   1.203   7.773  0.1104  0.4634 -0.1214
 2810Sol     OW14195   2.657   0.739   6.834 -0.0569  0.0044 -0.0492
 2810Sol     HW14196   2.713   0.790   6.776  1.6098 -0.4356  1.1109
 2810Sol     HW14197   2.591   0.801   6.865  1.1052  1.1189  0.2505
 2810Sol     MW14198   2.656   0.749   6.832  0.0724 -0.6064 -0.6005
 2811Sol     OW14199   3.194   1.120   4.515 -0.3899  0.2951  0.8941
 2811Sol     HW14200   3.213   1.195   4.572  0.5426  1.4842 -0.8993
 2811Sol     HW14201   3.133   1.154   4.450  1.3850  0.0490 -0.9857
 2811Sol     MW14202   3.190   1.130   4.514  0.3422  0.0217 -0.1917
 2812Sol     OW14203   2.688   1.620   7.668 -0.1127  0.3387 -0.3345
 2812Sol     HW14204   2.710   1.538   7.713 -0.8606  0.1859 -0.2373
 2812Sol     HW14205   2.725   1.609   7.580  3.0557  1.4263  0.7653
 2812Sol     MW14206   2.694   1.611   7.664 -0.5025 -0.0675 -0.5943
 2813Sol     OW14207   1.634   1.066   9.012  0.4638 -0.5240 -0.4104
 2813Sol     HW14208   1.620   0.972   8.999 -0.1049 -0.3092 -1.3527
 2813Sol     HW14209   1.611   1.106   8.929 -1.6942  0.6959  0.7085
 2813Sol     MW14210   1.630   1.061   9.004 -0.0829  0.4441 -0.3353
 2814Sol     OW14211   2.439   0.522   8.999  0.0662  0.2287 -0.5215
 2814Sol     HW14212   2.389   0.603   9.001 -1.2049 -0.5572  0.8228
 2814Sol     HW14213   2.391   0.463   9.058  1.1728 -1.3637 -1.1808
 2814Sol     MW14214   2.430   0.524   9.005  0.2916 -0.3161  0.0388
 2815Sol     OW14215   2.461   2.573   1.861 -0.0282  0.2346 -0.6491
 2815Sol     HW14216   2.382   2.620   1.887  0.5486  0.9309 -0.1206
 2815Sol     HW14217   2.531   2.615   1.911  0.7487 -0.0205 -1.5010
 2815Sol     MW14218   2.460   2.581   1.867 -0.5616  0.2171 -0.1537
 2816Sol     OW14219   1.724   3.144   5.072 -0.4136 -0.2941  0.1496
 2816Sol     HW14220   1.668   3.210   5.032 -0.4145 -0.4129 -0.0525
 2816Sol     HW14221   1.667   3.067   5.082  0.0005 -0.7879 -1.1157
 2816Sol     MW14222   1.714   3.143   5.069 -0.4161 -0.2045 -0.2820
 2817Sol     OW14223   1.243   3.108  10.339  0.3877  0.4164 -0.1622
 2817Sol     HW14224   1.191   3.099  10.419 -1.2717 -1.3104 -1.3914
 2817Sol     HW14225   1.183   3.146  10.276  1.5032  1.1603 -0.7763
 2817Sol     MW14226   1.233   3.110  10.341 -0.2214 -0.4337 -0.3226
 2818Sol     OW14227   2.659   3.266   3.317  0.4764 -0.7803 -0.3051
 2818Sol     HW14228   2.691   3.321   3.245 -0.1814  0.8498  0.6066
 2818Sol     HW14229   2.658   3.177   3.281  0.8728 -0.0999 -2.0636
 2818Sol     MW14230   2.662   3.263   3.307  0.5789 -0.3850  1.1026
 2819Sol     OW14231   0.461   3.131   8.566  0.0800 -0.3289 -0.3548
 2819Sol     HW14232   0.366   3.138   8.556  0.1878  2.6982  0.1887
 2819Sol     HW14233   0.474   3.075   8.642 -1.2831 -0.2925 -0.0915
 2819Sol     MW14234   0.454   3.127   8.572  0.0641  0.4983  0.1505
 2820Sol     OW14235   2.884   1.883   8.927  0.6526 -0.1850 -0.4022
 2820Sol     HW14236   2.843   1.872   8.841  0.0022  0.4597 -0.1807
 2820Sol     HW14237   2.963   1.934   8.910 -0.0116  0.8228 -0.4819
 2820Sol     MW14238   2.887   1.887   8.918 -0.1948 -0.0538 -0.4176
 2821Sol     OW14239   3.092   0.640   3.996 -0.4956  0.1359 -0.1857
 2821Sol     HW14240   3.094   0.707   3.928  0.1384  0.8378  0.5250
 2821Sol     HW14241   3.025   0.669   4.058  1.3252  1.2558  1.2807
 2821Sol     MW14242   3.086   0.648   3.996  0.5706  0.0127 -0.2373
 2822Sol     OW14243   0.125   2.633   5.168 -0.2870 -0.2924 -0.3397
 2822Sol     HW14244   0.054   2.647   5.106 -1.4518 -1.7914  0.6291
 2822Sol     HW14245   0.114   2.702   5.234  0.4979  0.8313 -1.3536
 2822Sol     MW14246   0.118   2.640   5.168  0.1052 -0.5096 -0.1023
 2823Sol     OW14247   3.238   2.966   6.563  0.1183 -0.5565  0.1127
 2823Sol     HW14248   3.333   2.972   6.556  0.3561 -3.6457 -0.0581
 2823Sol     HW14249   3.222   2.914   6.642 -1.4246 -0.7080 -0.2685
 2823Sol     MW14250   3.245   2.962   6.570 -0.1735  0.3771 -0.6171
 2824Sol     OW14251   3.234   2.360   5.713 -0.4593 -0.4856 -0.2837
 2824Sol     HW14252   3.307   2.302   5.689  0.3658  0.3233  0.2520
 2824Sol     HW14253   3.159   2.322   5.668  0.4149 -0.9507 -1.3986
 2824Sol     MW14254   3.234   2.351   5.707 -0.3399 -0.1065  0.1162
 2825Sol     OW14255   3.009   1.655   5.199  0.0574 -0.1962  0.4378
 2825Sol     HW14256   3.050   1.574   5.169 -0.8438 -1.4092  2.3558
 2825Sol     HW14257   3.082   1.708   5.232  0.7983  0.3049 -1.9553
 2825Sol     MW14258   3.019   1.652   5.200  0.1172  0.4026 -0.1236
 2826Sol     OW14259   2.522   1.349   7.582 -0.2952 -0.4049 -0.8529
 2826Sol     HW14260   2.498   1.258   7.600 -0.7113 -0.1202  0.0684
 2826Sol     HW14261   2.443   1.399   7.603 -0.1162  0.1546 -1.5101
 2826Sol     MW14262   2.513   1.345   7.586  0.2394 -0.3715 -0.0316
 2827Sol     OW14263   1.710   0.101   4.753  0.4986  0.5127 -0.5789
 2827Sol     HW14264   1.719   0.104   4.848  1.0430 -2.2232 -0.4925
 2827Sol     HW14265   1.616   0.110   4.737  0.1520 -1.1608  0.3763
 2827Sol     MW14266   1.703   0.102   4.760 -0.1031  0.5322 -0.8154
 2828Sol     OW14267   2.189   2.710   5.192  0.4693 -0.3580  0.4894
 2828Sol     HW14268   2.189   2.712   5.287 -1.3071 -3.6851  0.6302
 2828Sol     HW14269   2.272   2.669   5.168  0.4337 -0.5171  0.6395
 2828Sol     MW14270   2.196   2.707   5.198 -0.1238  0.3576 -0.1151
 2829Sol     OW14271   2.885   0.012   4.778 -0.2050  0.0616  0.2316
 2829Sol     HW14272   2.810   0.066   4.752  0.5702  1.3567  0.6477
 2829Sol     HW14273   2.952   0.075   4.804  1.5804 -1.0304 -1.5875
 2829Sol     MW14274   2.884   0.022   4.778  0.2412  0.2010 -0.2185
 2830Sol     OW14275   0.363   0.670   2.700 -0.0283  0.5552  0.2151
 2830Sol     HW14276   0.389   0.593   2.751 -0.9321  1.2348  1.7712
 2830Sol     HW14277   0.345   0.737   2.767 -1.7598  1.3112 -0.9809
 2830Sol     MW14278   0.363   0.669   2.711 -0.1583 -0.5538 -0.5251
 2831Sol     OW14279   0.131   0.158   3.640  1.0298 -0.3970 -0.0702
 2831Sol     HW14280   0.205   0.175   3.582  0.6223  0.8386 -0.2510
 2831Sol     HW14281   0.074   0.101   3.589  1.0627  0.0175 -0.5794
 2831Sol     MW14282   0.133   0.155   3.630  0.0735  0.5850  0.6296
 2832Sol     OW14283   1.543   2.626   9.395  0.4329  0.3927  0.0722
 2832Sol     HW14284   1.460   2.655   9.356  1.5620  2.9834 -0.4812
 2832Sol     HW14285   1.521   2.607   9.486 -0.5649  2.0202  0.1755
 2832Sol     MW14286   1.533   2.627   9.399 -0.2769 -0.2337  0.2359
 2833Sol     OW14287   1.601   1.922   7.543  0.3279  0.6550 -0.1830
 2833Sol     HW14288   1.583   2.005   7.587  1.2764  1.0222 -0.4906
 2833Sol     HW14289   1.596   1.942   7.450  1.9567  0.6903 -0.2785
 2833Sol     MW14290   1.599   1.931   7.539  0.0061 -0.3295  0.0049
 2834Sol     OW14291   1.218   1.253  10.252  0.1649 -0.1558  0.1011
 2834Sol     HW14292   1.303   1.295  10.252 -0.6754  1.6470  1.9803
 2834Sol     HW14293   1.162   1.313  10.202 -0.2009 -0.8932 -0.3777
 2834Sol     MW14294   1.220   1.262  10.248  0.2784  0.0732  0.0597
 2835Sol     OW14295   0.366   2.365   5.471 -0.0975 -0.4895  0.1036
 2835Sol     HW14296   0.343   2.326   5.555  2.4755 -1.2790  0.4628
 2835Sol     HW14297   0.412   2.296   5.423 -0.8037  0.2130 -1.6483
 2835Sol     MW14298   0.368   2.355   5.474  0.8815  0.3331 -0.0611
 2836Sol     OW14299   3.085   1.358   6.077 -0.1867  0.2204  0.7934
 2836Sol     HW14300   3.001   1.322   6.108  0.3147 -1.7325 -0.0717
 2836Sol     HW14301   3.060   1.437   6.028 -1.7062 -1.2828 -0.9472
 2836Sol     MW14302   3.075   1.362   6.075 -0.2821  0.6027 -0.2247
 2837Sol     OW14303   0.636   1.240   1.810 -0.0865 -0.2051  0.2296
 2837Sol     HW14304   0.563   1.302   1.804  0.2927  0.1210 -1.1623
 2837Sol     HW14305   0.712   1.295   1.832  0.1592 -0.2359 -0.5328
 2837Sol     MW14306   0.637   1.250   1.811 -0.3980 -0.1979 -0.5277
 2838Sol     OW14307   0.581   0.517   4.995 -0.0184  0.0629  0.2746
 2838Sol     HW14308   0.522   0.532   4.920 -0.8082  1.8511  1.1996
 2838Sol     HW14309   0.662   0.560   4.970 -0.3521  0.8460  0.5175
 2838Sol     MW14310   0.583   0.522   4.986 -0.2717  0.6130  0.4560
 2839Sol     OW14311   2.030   1.617   5.312  0.0551  0.7873 -0.5106
 2839Sol     HW14312   1.985   1.702   5.311  0.5239  1.0328 -1.1413
 2839Sol     HW14313   2.049   1.602   5.405 -0.6773  1.0208 -0.3110
 2839Sol     MW14314   2.027   1.624   5.320 -0.3020 -0.5524 -0.1185
 2840Sol     OW14315   2.663   1.468   8.451 -0.3625 -0.0961 -0.2770
 2840Sol     HW14316   2.662   1.408   8.375 -1.0324 -0.3836 -0.0440
 2840Sol     HW14317   2.571   1.471   8.480 -0.2902  0.8741 -0.1499
 2840Sol     MW14318   2.654   1.463   8.446  0.0877 -0.0209 -0.0474
 2841Sol     OW14319   3.142   1.973   8.115 -0.3733  0.0733  0.8072
 2841Sol     HW14320   3.210   1.946   8.054 -0.1866 -1.6250  1.7316
 2841Sol     HW14321   3.185   1.972   8.201 -0.6567  2.3160  0.9953
 2841Sol     MW14322   3.152   1.971   8.118  0.4032  0.6467 -0.4088
 2842Sol     OW14323   1.741   2.512   3.024  0.1132 -0.1010 -0.8278
 2842Sol     HW14324   1.828   2.545   3.044 -0.3018  0.4610  0.0804
 2842Sol     HW14325   1.718   2.551   2.940 -0.9167  3.0346  0.8396
 2842Sol     MW14326   1.746   2.518   3.018 -0.8547 -0.0769  0.7348
 2843Sol     OW14327   1.626   2.112   1.924 -0.7868  0.1271 -0.3103
 2843Sol     HW14328   1.619   2.049   1.996 -1.2237  2.1134  1.4343
 2843Sol     HW14329   1.711   2.154   1.937 -1.7666  1.9600  0.3048
 2843Sol     MW14330   1.633   2.110   1.931  0.3195 -0.3367  0.5220
 2844Sol     OW14331   1.807   0.153   8.266 -0.0891  0.4252 -0.2763
 2844Sol     HW14332   1.845   0.131   8.181  1.1548 -1.0093  0.6260
 2844Sol     HW14333   1.883   0.164   8.324 -0.9864 -0.6689  1.1309
 2844Sol     MW14334   1.818   0.152   8.264 -0.3847 -0.7694  0.0499
 2845Sol     OW14335   0.250   0.519   2.202 -0.1666 -0.2828  0.1637
 2845Sol     HW14336   0.270   0.584   2.270  0.7135  0.5432 -0.8526
 2845Sol     HW14337   0.201   0.569   2.136 -0.4238 -0.9084 -0.1151
 2845Sol     MW14338   0.248   0.530   2.202  0.1655 -0.1816 -0.3281
 2846Sol     OW14339   0.798   0.911   3.536 -0.6369 -0.7674 -0.7599
 2846Sol     HW14340   0.863   0.953   3.479  1.0388 -1.9633  0.2373
 2846Sol     HW14341   0.758   0.844   3.480 -3.7310  2.4025 -2.5433
 2846Sol     MW14342   0.801   0.909   3.526 -0.3871 -0.1273 -0.6427
 2847Sol     OW14343   1.090   0.715   9.564  0.2164  0.3233 -0.2115
 2847Sol     HW14344   0.997   0.691   9.559  0.1920  0.0116  1.3430
 2847Sol     HW14345   1.103   0.741   9.655  2.4830 -3.1279  0.5530
 2847Sol     MW14346   1.083   0.715   9.572 -0.4153 -0.0972  0.7695
 2848Sol     OW14347   0.838   3.210   3.856  0.2134 -0.9203 -0.3095
 2848Sol     HW14348   0.913   3.173   3.808 -0.3314 -0.9165 -1.1749
 2848Sol     HW14349   0.878   3.267   3.922  0.9572  0.1495 -1.6481
 2848Sol     MW14350   0.849   3.212   3.858  0.5303  0.7441 -0.5955
 2849Sol     OW14351   2.609   1.299   5.938  0.1644 -0.0612 -0.5449
 2849Sol     HW14352   2.703   1.285   5.938  0.1364 -0.2779  0.2190
 2849Sol     HW14353   2.598   1.392   5.920  0.4655 -0.3047 -2.1110
 2849Sol     MW14354   2.616   1.306   5.936 -0.2060  0.0646 -0.2890
 2850Sol     OW14355   1.857   1.746   3.992 -0.0613  0.2867 -0.3883
 2850Sol     HW14356   1.872   1.667   4.044 -1.6148  0.4977  0.4059
 2850Sol     HW14357   1.829   1.812   4.056 -1.6504  0.6558 -1.4451
 2850Sol     MW14358   1.856   1.745   4.003  0.3412 -0.0008 -0.0714
 2851Sol     OW14359   0.330   1.892   2.047 -0.0894  0.4393  0.2424
 2851Sol     HW14360   0.282   1.850   1.975  0.1141 -0.9896  0.9183
 2851Sol     HW14361   0.297   1.849   2.126  2.3161 -0.6138  0.7192
 2851Sol     MW14362   0.322   1.884   2.047  0.2961  0.2703  0.2100
 2852Sol     OW14363   3.197   0.907   7.054 -0.7802 -0.0284 -0.7392
 2852Sol     HW14364   3.133   0.847   7.015  0.4307 -1.9234  0.1641
 2852Sol     HW14365   3.224   0.963   6.982 -1.6786 -0.7799 -1.6711
 2852Sol     MW14366   3.193   0.907   7.044 -0.4092 -0.2947 -0.0776
 2853Sol     OW14367   0.103   2.638   4.316  0.2611  0.4283 -0.0014
 2853Sol     HW14368   0.077   2.570   4.254  0.4357  0.4829 -0.1356
 2853Sol     HW14369   0.051   2.714   4.292 -1.4339 -0.2520  1.4401
 2853Sol     MW14370   0.096   2.639   4.308 -0.2552  0.0142 -0.0931
 2854Sol     OW14371   2.244   0.114   4.792  0.2286  0.3669  0.0139
 2854Sol     HW14372   2.198   0.030   4.787  0.8552  0.1158 -2.1886
 2854Sol     HW14373   2.329   0.093   4.832  0.1221  0.0470  0.0697
 2854Sol     MW14374   2.248   0.104   4.795  1.0552 -0.5247  0.0706
 2855Sol     OW14375   2.800   1.420   2.853 -0.3620  0.2895 -0.0546
 2855Sol     HW14376   2.740   1.485   2.891 -1.8466 -1.1125  0.0613
 2855Sol     HW14377   2.758   1.336   2.870  1.5865 -0.7190 -0.1251
 2855Sol     MW14378   2.791   1.418   2.858 -0.3677  0.0075  0.3908
 2856Sol     OW14379   1.740   1.013   8.272 -0.0812  0.3540  0.3879
 2856Sol     HW14380   1.814   1.029   8.214 -0.4597 -0.2333 -0.2677
 2856Sol     HW14381   1.779   0.981   8.353  0.4448  1.0763  0.4278
 2856Sol     MW14382   1.750   1.012   8.274  0.1103  0.1781  0.2749
 2857Sol     OW14383   1.381   1.769   7.598 -0.4215  0.2689 -0.0893
 2857Sol     HW14384   1.332   1.816   7.665 -1.2768 -0.0814 -0.4637
 2857Sol     HW14385   1.455   1.826   7.577 -0.7785  0.8834  0.3397
 2857Sol     MW14386   1.383   1.778   7.602  0.5795  0.1506 -0.4080
 2858Sol     OW14387   1.966   0.106   2.876  0.5736 -0.2185 -0.1110
 2858Sol     HW14388   2.042   0.055   2.848  0.8488 -1.3695  2.5414
 2858Sol     HW14389   1.892   0.047   2.865  0.3750  0.1121 -0.5514
 2858Sol     MW14390   1.967   0.096   2.873 -0.2790  0.2089 -0.0667
 2859Sol     OW14391   0.835   1.536   6.206  0.0429  0.2317 -0.2251
 2859Sol     HW14392   0.887   1.527   6.126  1.0155  2.0010  0.1796
 2859Sol     HW14393   0.900   1.536   6.277 -0.9011 -2.7203  0.7087
 2859Sol     MW14394   0.846   1.535   6.206 -0.6194  0.1699 -0.0425
 2860Sol     OW14395   0.265   0.839   4.366 -0.1803  0.3720 -0.1780
 2860Sol     HW14396   0.236   0.925   4.335  0.0146  0.3273 -0.4838
 2860Sol     HW14397   0.340   0.858   4.422 -0.3650  0.4303  0.0516
 2860Sol     MW14398   0.269   0.848   4.369  0.3881  0.3236 -0.4763
 2861Sol     OW14399   1.202   2.331   3.350 -0.0538 -0.2067 -0.0141
 2861Sol     HW14400   1.268   2.264   3.367 -0.4986 -1.0825 -1.6636
 2861Sol     HW14401   1.181   2.367   3.436  1.6000 -0.8404  0.6643
 2861Sol     MW14402   1.206   2.328   3.359 -0.5224 -0.1890 -0.4615
 2862Sol     OW14403   1.432   1.443   4.488 -0.1450  0.3454  0.4102
 2862Sol     HW14404   1.496   1.502   4.448 -0.4437 -0.5581 -1.4615
 2862Sol     HW14405   1.479   1.400   4.559  0.7395  1.1408  0.3065
 2862Sol     MW14406   1.442   1.444   4.490  0.0127 -0.0836  0.0440
 2863Sol     OW14407   1.070   2.131   9.647 -0.0719 -0.2970  0.2409
 2863Sol     HW14408   1.019   2.064   9.692  1.4518 -0.4161  1.8486
 2863Sol     HW14409   1.012   2.206   9.640 -0.7594 -0.7369  1.2302
 2863Sol     MW14410   1.060   2.132   9.650  0.1639 -0.1026  0.1955
 2864Sol     OW14411   0.695   2.886   8.752 -0.2671  0.1217  0.1519
 2864Sol     HW14412   0.744   2.889   8.670 -0.9418 -0.8954 -0.3041
 2864Sol     HW14413   0.742   2.944   8.811  1.7546 -1.2059 -0.1237
 2864Sol     MW14414   0.703   2.891   8.750 -0.1602 -0.4814  0.1697
 2865Sol     OW14415   2.486   2.450   2.817 -0.1700 -0.2744  0.2467
 2865Sol     HW14416   2.469   2.387   2.747  0.1537 -2.3754  2.0188
 2865Sol     HW14417   2.537   2.401   2.882 -0.0810  1.7530  1.7475
 2865Sol     MW14418   2.489   2.440   2.817  0.1414  0.0342  0.1089
 2866Sol     OW14419   1.691   0.939   7.862  0.0420 -1.2003  0.3597
 2866Sol     HW14420   1.705   0.948   7.768  1.7851 -0.3902  0.6744
 2866Sol     HW14421   1.598   0.953   7.874  0.1212  0.6700 -1.0271
 2866Sol     MW14422   1.684   0.941   7.855 -0.1914 -0.0760  0.8481
 2867Sol     OW14423   0.442   0.834   1.678 -0.5458 -0.2139  0.1715
 2867Sol     HW14424   0.500   0.782   1.733 -1.2067 -0.8878  0.2378
 2867Sol     HW14425   0.498   0.903   1.642 -0.1258  0.3234  1.7898
 2867Sol     MW14426   0.452   0.836   1.680  0.5123  0.5197 -0.0066
 2868Sol     OW14427   0.632   0.165   3.627 -0.0865  0.9322  0.0034
 2868Sol     HW14428   0.542   0.173   3.596 -0.0507 -0.6016 -0.5346
 2868Sol     HW14429   0.650   0.071   3.625  2.1374  1.3358 -1.7168
 2868Sol     MW14430   0.626   0.157   3.624 -0.1729  0.0331  0.1505
 2869Sol     OW14431   1.189   0.181   7.532  0.1409 -0.1641  0.2642
 2869Sol     HW14432   1.271   0.230   7.528 -0.1127  0.2563  0.2689
 2869Sol     HW14433   1.193   0.123   7.455 -0.3163  1.0493 -0.6972
 2869Sol     MW14434   1.197   0.180   7.525 -0.3142  0.0394  0.1110
 2870Sol     OW14435   0.545   2.236   6.179  0.4068  0.7244  0.0077
 2870Sol     HW14436   0.461   2.258   6.219 -0.0881 -0.3844 -0.4196
 2870Sol     HW14437   0.556   2.301   6.109 -0.7193  0.0499 -0.7977
 2870Sol     MW14438   0.539   2.244   6.176  0.6011 -0.4790  0.2444
 2871Sol     OW14439   0.525   0.790   4.759  0.4226 -0.3305  0.0591
 2871Sol     HW14440   0.498   0.704   4.728  0.1227  0.0231 -0.6456
 2871Sol     HW14441   0.616   0.776   4.789 -0.4658 -1.5027  2.4103
 2871Sol     MW14442   0.531   0.781   4.759 -0.2438 -0.3597  0.1174
 2872Sol     OW14443   1.849   2.773   2.682  0.1220  0.6633 -0.4165
 2872Sol     HW14444   1.795   2.698   2.704  0.2938  0.4323 -0.7688
 2872Sol     HW14445   1.791   2.849   2.688 -0.7191  0.2332 -2.5748
 2872Sol     MW14446   1.839   2.773   2.684 -0.1082 -0.1659 -0.1171
 2873Sol     OW14447   0.951   0.750   8.665 -0.3888  0.2806 -0.3196
 2873Sol     HW14448   1.000   0.758   8.747  1.6280 -1.7893 -1.2558
 2873Sol     HW14449   0.896   0.828   8.662 -0.2217  0.5752  2.8111
 2873Sol     MW14450   0.951   0.758   8.672 -0.2025 -0.6171 -0.2716
 2874Sol     OW14451   1.548   0.920   3.735 -0.0934 -0.5429  0.6903
 2874Sol     HW14452   1.517   0.959   3.817 -0.3818 -2.5393  1.5632
 2874Sol     HW14453   1.477   0.936   3.672  0.0976  0.9285  0.8317
 2874Sol     MW14454   1.539   0.925   3.737  0.1289 -0.4266  0.0317
 2875Sol     OW14455   2.151   2.430   3.014  0.1240  0.3425  0.0016
 2875Sol     HW14456   2.217   2.364   2.989 -0.8351 -0.6175 -0.0143
 2875Sol     HW14457   2.112   2.395   3.094 -1.5868  0.0390 -0.9376
 2875Sol     MW14458   2.154   2.421   3.019  0.5627 -0.3745 -0.2927
 2876Sol     OW14459   3.203   2.429   2.904  0.1401  0.6414 -0.2626
 2876Sol     HW14460   3.192   2.455   2.813 -0.4760  0.5247 -0.2231
 2876Sol     HW14461   3.261   2.496   2.942  0.3310  0.7314 -0.7137
 2876Sol     MW14462   3.208   2.437   2.899  0.3586  0.0236  0.1683
 2877Sol     OW14463   1.804   0.016   3.227  0.5527  0.0520  0.0644
 2877Sol     HW14464   1.836   0.101   3.199  0.8133  0.7052  2.2996
 2877Sol     HW14465   1.881  -0.040   3.229  0.5425  0.0128 -0.3874
 2877Sol     MW14466   1.814   0.018   3.224  0.5089  0.0394  0.4671
 2878Sol     OW14467   3.126   2.438   4.560  0.0342  0.4198  0.2804
 2878Sol     HW14468   3.221   2.448   4.563 -0.0545  1.8015 -0.7938
 2878Sol     HW14469   3.108   2.414   4.469 -0.4585 -2.1537  1.0215
 2878Sol     MW14470   3.133   2.437   4.552 -0.3934 -0.3652 -0.1218
 2879Sol     OW14471   1.494   3.370   7.732  0.3885  0.0831  0.6914
 2879Sol     HW14472   1.540   3.364   7.816 -2.0865 -0.6302  2.0229
 2879Sol     HW14473   1.413   3.321   7.745 -1.1741  2.0413 -1.3183
 2879Sol     MW14474   1.491   3.365   7.741 -0.1406  0.7003  0.1681
 2880Sol     OW14475   2.895   0.354   8.286  0.4406  0.2943 -0.7871
 2880Sol     HW14476   2.958   0.376   8.354  0.9663 -0.6881 -0.9475
 2880Sol     HW14477   2.903   0.424   8.221  0.7796  0.6076 -0.4054
 2880Sol     MW14478   2.901   0.362   8.286 -0.0052  0.3560 -0.1913
 2881Sol     OW14479   0.250   0.102   9.066 -0.3591  0.0441 -0.4602
 2881Sol     HW14480   0.211   0.062   8.989  0.4967 -2.1749  0.2235
 2881Sol     HW14481   0.343   0.081   9.059  0.0203  1.4577  0.2079
 2881Sol     MW14482   0.255   0.096   9.059  0.8401  0.5578  0.1305
 2882Sol     OW14483   1.098   1.966   4.597  0.8364  0.3717  0.5203
 2882Sol     HW14484   1.178   1.964   4.545  0.6741  1.1183  0.2253
 2882Sol     HW14485   1.128   1.974   4.687  1.1204 -0.9565  0.5498
 2882Sol     MW14486   1.108   1.967   4.600 -0.5645  0.5058  0.2432
 2883Sol     OW14487   0.156   2.356   8.771  0.1204 -0.4286  0.1239
 2883Sol     HW14488   0.163   2.267   8.805  0.5899 -0.5371 -0.2322
 2883Sol     HW14489   0.246   2.380   8.748 -0.0369  0.0381 -0.0285
 2883Sol     MW14490   0.165   2.351   8.772 -0.5748 -0.1650  0.4063
 2884Sol     OW14491   2.149   3.032   4.087 -0.3047 -0.1804  0.6548
 2884Sol     HW14492   2.197   3.035   4.170  1.1761  0.7767 -0.2065
 2884Sol     HW14493   2.189   2.960   4.039 -0.5740 -0.1751  0.4228
 2884Sol     MW14494   2.157   3.026   4.090 -0.5870  0.0563 -0.0783
 2885Sol     OW14495   3.006   0.455   6.957  0.6244 -0.3272  0.6833
 2885Sol     HW14496   2.919   0.462   6.917 -0.3350 -3.0114  2.1511
 2885Sol     HW14497   3.043   0.542   6.949 -2.3899  1.0040  0.4147
 2885Sol     MW14498   3.001   0.463   6.953 -0.4541  0.4277  0.6021
 2886Sol     OW14499   2.705   0.985   8.138 -0.6039 -0.7102 -0.2562
 2886Sol     HW14500   2.678   1.057   8.082  0.3395 -1.9675 -2.3592
 2886Sol     HW14501   2.799   0.997   8.152 -1.1802  0.7917  2.8813
 2886Sol     MW14502   2.711   0.992   8.134  0.3386 -0.1744  0.3084
 2887Sol     OW14503   2.373   1.537   8.206  0.0889 -0.0155  0.5879
 2887Sol     HW14504   2.378   1.493   8.121 -0.3738  0.5915  0.2368
 2887Sol     HW14505   2.417   1.621   8.191  3.5136 -1.4660  2.0157
 2887Sol     MW14506   2.378   1.541   8.197 -0.3173  0.1141  0.5920
 2888Sol     OW14507   0.275   1.576   3.232  0.0809 -0.1739 -0.4556
 2888Sol     HW14508   0.311   1.596   3.318 -1.8658  0.7279  0.1758
 2888Sol     HW14509   0.248   1.484   3.237  0.0150 -0.1343 -0.1279
 2888Sol     MW14510   0.276   1.569   3.240 -0.0560  0.0169 -0.7216
 2889Sol     OW14511   1.744   0.678   3.681 -0.0385  0.1542  0.1626
 2889Sol     HW14512   1.823   0.654   3.633 -0.1725  1.4518 -0.7099
 2889Sol     HW14513   1.761   0.766   3.714 -0.7900  0.1082  0.6909
 2889Sol     MW14514   1.753   0.683   3.680  0.1355  0.2104 -0.0020
 2890Sol     OW14515   0.791   3.229   9.783  0.2910 -0.3464  0.1767
 2890Sol     HW14516   0.795   3.294   9.714  0.6401  0.4872  0.9804
 2890Sol     HW14517   0.852   3.261   9.850  0.5093 -1.5167  0.5534
 2890Sol     MW14518   0.797   3.237   9.783  0.0807  0.5175  0.1713
 2891Sol     OW14519   2.730   2.223   5.479 -0.2811  0.4044  0.0302
 2891Sol     HW14520   2.817   2.196   5.449 -0.5651  0.1799 -0.6137
 2891Sol     HW14521   2.689   2.261   5.401 -1.1411 -0.4657  0.0438
 2891Sol     MW14522   2.734   2.224   5.469 -0.3402  0.0602  0.5718
 2892Sol     OW14523   0.130   1.303   7.528  0.2993 -0.3104  0.5405
 2892Sol     HW14524   0.206   1.292   7.586 -1.2811  0.1463  2.7786
 2892Sol     HW14525   0.097   1.390   7.549 -0.7862 -0.4668 -0.4920
 2892Sol     MW14526   0.134   1.310   7.535  0.1509  0.3316  0.5409
 2893Sol     OW14527   0.048   2.455   9.696  0.2137 -0.1615 -0.2766
 2893Sol     HW14528   0.004   2.468   9.612  0.2690 -1.1504 -0.4548
 2893Sol     HW14529   0.082   2.366   9.693  2.0552  0.4999 -0.0594
 2893Sol     MW14530   0.047   2.448   9.688 -0.1792 -0.5095 -0.4035
 2894Sol     OW14531   1.867   1.636   7.621  0.1246 -0.0224 -0.4527
 2894Sol     HW14532   1.781   1.595   7.627  0.6344 -1.2082 -1.1608
 2894Sol     HW14533   1.866   1.703   7.690 -0.6041 -1.4358  0.9404
 2894Sol     MW14534   1.859   1.638   7.628 -0.3951  0.3670  0.5773
 2895Sol     OW14535   2.479   1.828   2.416 -0.0874  0.2456  0.0094
 2895Sol     HW14536   2.493   1.862   2.328  2.3810 -1.8560 -0.4766
 2895Sol     HW14537   2.388   1.799   2.416 -0.4515  1.3282 -1.4653
 2895Sol     MW14538   2.472   1.828   2.408 -0.2061 -0.3782  0.1103
 2896Sol     OW14539   1.203   3.362   4.316  0.2053  0.6445  0.6811
 2896Sol     HW14540   1.169   3.433   4.261  0.0509  0.1305  0.1154
 2896Sol     HW14541   1.276   3.402   4.363  0.4379  1.0420 -0.0151
 2896Sol     MW14542   1.206   3.372   4.316 -0.6818  0.0483  0.9972
 2897Sol     OW14543   0.041   0.035   2.870  0.6786 -0.5875 -0.2070
 2897Sol     HW14544   0.086   0.043   2.955 -1.7208 -0.9202  1.1470
 2897Sol     HW14545   0.064  -0.052   2.838  1.1161 -0.6980  0.4054
 2897Sol     MW14546   0.047   0.028   2.875 -0.0176 -0.0672 -0.2935
 2898Sol     OW14547   2.393   3.244   4.007  0.1825 -0.0666  0.5905
 2898Sol     HW14548   2.388   3.150   4.020 -1.0265  0.0183  0.8089
 2898Sol     HW14549   2.319   3.265   3.951  1.1112  0.6037 -0.4068
 2898Sol     MW14550   2.386   3.238   4.003 -0.5193 -0.4373 -0.4276
 2899Sol     OW14551   1.661   1.622   7.156  0.0795 -0.1681 -0.2310
 2899Sol     HW14552   1.592   1.687   7.165  0.7192  0.4425  0.3200
 2899Sol     HW14553   1.671   1.584   7.243 -0.6266 -1.3594 -0.6562
 2899Sol     MW14554   1.656   1.624   7.164 -0.1677 -0.2393 -0.0546
 2900Sol     OW14555   1.541   2.837   1.956 -0.0828 -0.6781 -0.1787
 2900Sol     HW14556   1.486   2.840   1.878 -0.8635 -0.1727  0.3756
 2900Sol     HW14557   1.534   2.746   1.986 -1.5063 -0.3655  0.4967
 2900Sol     MW14558   1.535   2.829   1.952 -0.1148  0.3352  0.3387
 2901Sol     OW14559   2.994   1.740   6.864 -0.0508  0.9256  0.5699
 2901Sol     HW14560   2.956   1.827   6.874 -0.1225  1.0311 -0.5548
 2901Sol     HW14561   2.924   1.687   6.826 -0.7030 -0.1773  3.2219
 2901Sol     MW14562   2.984   1.743   6.861  0.0968  0.3341 -0.0594
 2902Sol     OW14563   2.654   2.336   6.788 -0.1419  0.5915 -0.4749
 2902Sol     HW14564   2.562   2.355   6.774 -0.7912  0.9181  3.7139
 2902Sol     HW14565   2.692   2.419   6.816  1.0749  0.0905 -0.5877
 2902Sol     MW14566   2.649   2.345   6.789 -0.4441  0.5110  0.6758
 2903Sol     OW14567   1.805   1.239   7.281 -0.2283  0.3599 -0.1627
 2903Sol     HW14568   1.741   1.171   7.302 -0.5222  0.0182 -2.0432
 2903Sol     HW14569   1.785   1.311   7.340 -1.1165 -0.4851  0.5674
 2903Sol     MW14570   1.798   1.239   7.288 -0.2141  0.3032 -0.1606
 2904Sol     OW14571   1.180   1.648   3.752  0.0965  0.3123 -0.1508
 2904Sol     HW14572   1.101   1.650   3.699  0.8188  0.9661 -1.2289
 2904Sol     HW14573   1.181   1.732   3.797 -0.6618 -0.3518  1.1525
 2904Sol     MW14574   1.173   1.656   3.751  0.1149 -0.0518 -0.0279
 2905Sol     OW14575   3.159   1.669   3.013 -0.1769 -0.0757 -0.3123
 2905Sol     HW14576   3.186   1.758   2.989 -1.6089  0.6740  0.7641
 2905Sol     HW14577   3.162   1.668   3.108  2.3495 -2.0138 -0.3642
 2905Sol     MW14578   3.161   1.677   3.019  0.1707  0.1704  0.1022
 2906Sol     OW14579   3.095   0.444   1.855 -0.4319 -0.0154 -0.2366
 2906Sol     HW14580   3.161   0.400   1.909  2.7255  0.9543 -3.2068
 2906Sol     HW14581   3.021   0.383   1.855  1.4404 -2.3961  0.9686
 2906Sol     MW14582   3.094   0.435   1.860  0.8258 -0.2124  0.2182
 2907Sol     OW14583   2.311   0.313   9.422  0.9666 -0.6659  0.1170
 2907Sol     HW14584   2.272   0.228   9.445  0.8344 -1.0476 -1.4622
 2907Sol     HW14585   2.295   0.368   9.499 -0.5475 -1.5441  0.4538
 2907Sol     MW14586   2.306   0.310   9.431 -0.5156  0.0994 -0.3245
 2908Sol     OW14587   0.754   0.349   3.021  0.4145  0.2917 -0.0747
 2908Sol     HW14588   0.759   0.443   3.004 -0.2864  0.8979  2.7991
 2908Sol     HW14589   0.708   0.342   3.105  2.7258 -2.5116  1.0401
 2908Sol     MW14590   0.750   0.357   3.027  0.3660 -0.4865  0.0718
 2909Sol     OW14591   1.978   0.702   4.531  0.3121 -0.1403  0.0841
 2909Sol     HW14592   1.939   0.630   4.581 -2.6102 -0.1641 -2.0722
 2909Sol     HW14593   1.941   0.781   4.571  1.1628  0.0481  0.5161
 2909Sol     MW14594   1.971   0.703   4.539  0.1771  0.1038 -0.0838
 2910Sol     OW14595   2.537   1.439   4.014 -0.1567 -0.1916  0.0883
 2910Sol     HW14596   2.624   1.417   3.980  0.6826  0.1489  1.9655
 2910Sol     HW14597   2.502   1.502   3.951  1.0288 -0.2150 -0.6076
 2910Sol     MW14598   2.541   1.443   4.005 -0.0063  0.1279  0.2292
 2911Sol     OW14599   0.377   1.291   5.961  0.4661  0.0424 -0.0886
 2911Sol     HW14600   0.443   1.234   5.920 -0.0038 -0.9844  0.5647
 2911Sol     HW14601   0.365   1.255   6.048  0.0635  1.0801  0.2928
 2911Sol     MW14602   0.382   1.283   5.965  0.2218 -0.4492 -0.4527
 2912Sol     OW14603   1.461   1.928   6.393  0.6171  0.0329 -0.0743
 2912Sol     HW14604   1.526   1.862   6.418  0.6016  0.1356  0.2503
 2912Sol     HW14605   1.397   1.926   6.465 -0.0542 -0.4861 -0.6761
 2912Sol     MW14606   1.461   1.922   6.402  0.3872  0.0134  0.0431
 2913Sol     OW14607   1.686   0.020   6.252  0.0197  0.0840  0.2989
 2913Sol     HW14608   1.753   0.081   6.221  0.3639  0.4462  1.7227
 2913Sol     HW14609   1.736  -0.056   6.282 -0.2366  0.1444  0.8848
 2913Sol     MW14610   1.697   0.019   6.252  0.2806  0.2278  0.3142
 2914Sol     OW14611   0.550   2.237   2.794 -0.0365 -0.5302 -0.8708
 2914Sol     HW14612   0.617   2.200   2.851 -1.2469 -0.6198  0.5062
 2914Sol     HW14613   0.566   2.196   2.708  0.8163 -1.5788 -0.2183
 2914Sol     MW14614   0.557   2.230   2.791  0.4437  0.3120 -0.1386
 2915Sol     OW14615   0.293   3.054   4.160  0.2402 -0.0121 -0.7039
 2915Sol     HW14616   0.313   2.973   4.208  1.0670  0.8445  0.4059
 2915Sol     HW14617   0.355   3.118   4.193 -0.3113  1.0569 -1.6946
 2915Sol     MW14618   0.300   3.052   4.167  0.4394 -0.6695  0.0111
 2916Sol     OW14619   2.490   2.299   1.806  0.0971  0.1612  0.3980
 2916Sol     HW14620   2.565   2.281   1.749  0.4781 -2.4883  1.6570
 2916Sol     HW14621   2.474   2.393   1.796  2.6457  0.4908 -1.0146
 2916Sol     MW14622   2.495   2.306   1.800 -0.2627 -0.3779 -0.8917
 2917Sol     OW14623   1.675   0.345   5.055  0.0435 -0.0721 -0.3281
 2917Sol     HW14624   1.668   0.434   5.088 -1.0062 -0.2905  0.0569
 2917Sol     HW14625   1.585   0.321   5.031  0.4236 -0.7777 -1.0708
 2917Sol     MW14626   1.666   0.351   5.055  0.4893 -0.1664 -0.1713
 2918Sol     OW14627   0.493   0.630   9.615  0.4697 -0.8879 -0.0866
 2918Sol     HW14628   0.517   0.576   9.539  1.7727 -0.6793  0.1658
 2918Sol     HW14629   0.480   0.567   9.686 -0.5757 -1.0699 -0.4270
 2918Sol     MW14630   0.494   0.619   9.614 -0.5524 -0.6904 -0.9751
 2919Sol     OW14631   1.368   1.373   8.910 -0.0277  0.7409  0.0767
 2919Sol     HW14632   1.390   1.331   8.993  1.7742 -1.2589 -1.3448
 2919Sol     HW14633   1.283   1.337   8.886  1.0220 -1.3642 -0.6060
 2919Sol     MW14634   1.363   1.366   8.915 -0.3500 -0.0321  0.7029
 2920Sol     OW14635   2.399   0.738   3.465  0.2499  0.2439 -0.1543
 2920Sol     HW14636   2.307   0.741   3.491 -0.0701 -1.0923 -1.0600
 2920Sol     HW14637   2.445   0.706   3.542 -0.2664 -0.6424 -0.2119
 2920Sol     MW14638   2.395   0.735   3.474 -0.4505  0.2774  0.2946
 2921Sol     OW14639   0.747   3.242   6.403 -0.2445  0.0517 -0.2178
 2921Sol     HW14640   0.665   3.212   6.443 -0.5354  0.6342 -0.3836
 2921Sol     HW14641   0.790   3.161   6.376 -0.3884 -0.3060  0.5946
 2921Sol     MW14642   0.744   3.232   6.404 -0.3350 -0.3505 -0.1209
 2922Sol     OW14643   1.163   1.699   5.846 -0.4729 -0.5628 -0.1866
 2922Sol     HW14644   1.241   1.653   5.876 -0.5343 -1.0021 -0.6967
 2922Sol     HW14645   1.195   1.782   5.812 -0.4585  0.2116  1.6425
 2922Sol     MW14646   1.173   1.702   5.846  0.2713  0.1103  0.2298
 2923Sol     OW14647   2.525   2.128   5.851  0.1451 -0.1805  0.3938
 2923Sol     HW14648   2.492   2.168   5.770  3.1995 -0.9603 -1.3288
 2923Sol     HW14649   2.489   2.182   5.921 -4.4291 -0.7680 -1.2897
 2923Sol     MW14650   2.519   2.136   5.850 -0.0912  0.2451 -0.0642
 2924Sol     OW14651   0.682   1.884   4.353 -0.3378  0.1544  0.0266
 2924Sol     HW14652   0.709   1.944   4.423 -1.5446  0.3767  0.3156
 2924Sol     HW14653   0.739   1.906   4.280  1.2382 -0.3735  1.0737
 2924Sol     MW14654   0.689   1.892   4.353  0.0601  0.2189 -0.2009
 2925Sol     OW14655   2.335   0.969   7.240 -0.3118 -0.8170 -0.4241
 2925Sol     HW14656   2.277   0.999   7.310  0.5535  1.0070 -0.4729
 2925Sol     HW14657   2.421   0.963   7.281 -0.3550 -2.7952 -0.5496
 2925Sol     MW14658   2.337   0.971   7.250  0.0609 -0.1745 -0.2219
 2926Sol     OW14659   1.616   0.495   7.376 -0.0098 -0.5552  0.6834
 2926Sol     HW14660   1.693   0.450   7.412  1.5755  0.3485 -1.4990
 2926Sol     HW14661   1.601   0.452   7.292 -0.0049  1.3035 -0.2834
 2926Sol     MW14662   1.622   0.487   7.372  0.0178 -0.7315 -0.0684
 2927Sol     OW14663   0.157   1.082   4.297 -0.1606  0.0978 -0.0895
 2927Sol     HW14664   0.226   1.140   4.328  0.0392  0.7013 -1.6247
 2927Sol     HW14665   0.082   1.102   4.353  0.4669  0.4761  0.6249
 2927Sol     MW14666   0.156   1.089   4.305 -0.9404  0.3224 -0.3835
 2928Sol     OW14667   0.369   0.979   9.339  0.8671  0.8970  0.1484
 2928Sol     HW14668   0.277   1.002   9.328  1.0409  0.6623 -1.9853
 2928Sol     HW14669   0.417   1.051   9.298  1.6147  0.8089  0.8664
 2928Sol     MW14670   0.365   0.987   9.334  0.0803  0.5267 -0.2369
 2929Sol     OW14671   1.355   2.213   4.748  0.5840  0.0671  0.4093
 2929Sol     HW14672   1.301   2.283   4.713  1.6734  2.2502  2.9341
 2929Sol     HW14673   1.293   2.153   4.790 -0.2868 -0.1709 -1.1924
 2929Sol     MW14674   1.345   2.214   4.749 -0.2769  0.5746  0.2248
 2930Sol     OW14675   2.963   1.782   8.222 -0.2978 -0.1797  0.7351
 2930Sol     HW14676   3.033   1.836   8.186 -0.6046  0.8378  1.6103
 2930Sol     HW14677   2.997   1.693   8.221  0.4290  0.1126 -0.2274
 2930Sol     MW14678   2.972   1.779   8.219  0.2880 -0.3437  0.1463
 2931Sol     OW14679   2.791   0.813   7.446 -0.5447  0.3177 -0.4160
 2931Sol     HW14680   2.830   0.726   7.440  0.4973  0.8022 -0.9529
 2931Sol     HW14681   2.860   0.868   7.483 -1.8673  0.5211  1.8208
 2931Sol     MW14682   2.801   0.810   7.449 -0.0718 -0.1183 -0.1272
 2932Sol     OW14683   0.377   0.133   9.788 -0.2054  0.2420  0.0134
 2932Sol     HW14684   0.354   0.145   9.880 -0.1073 -0.0904  0.0822
 2932Sol     HW14685   0.293   0.134   9.742 -0.3855 -1.1919  0.2861
 2932Sol     MW14686   0.368   0.134   9.792 -0.3048  0.4857 -0.1131
 2933Sol     OW14687   1.484   1.387   2.019 -0.1539  0.3385 -0.0077
 2933Sol     HW14688   1.524   1.396   2.106 -0.9957 -0.8748  0.5098
 2933Sol     HW14689   1.391   1.401   2.034 -0.3183 -0.0270 -0.6923
 2933Sol     MW14690   1.480   1.389   2.028  0.3242  0.0185 -0.2223
 2934Sol     OW14691   2.884   2.199   2.881  0.3003  0.0259 -0.6129
 2934Sol     HW14692   2.931   2.250   2.947 -1.3126 -0.8904  1.3017
 2934Sol     HW14693   2.909   2.108   2.899 -1.5703 -0.4023 -0.0370
 2934Sol     MW14694   2.890   2.195   2.888  0.1148  0.2548  0.0983
 2935Sol     OW14695   2.048   2.473   5.169  0.7412 -0.3639 -0.7857
 2935Sol     HW14696   2.080   2.563   5.175 -1.1812  0.2836 -0.1579
 2935Sol     HW14697   1.957   2.481   5.142  0.3736 -2.1030 -0.1393
 2935Sol     MW14698   2.043   2.482   5.167  0.1433 -0.6410  0.5409
 2936Sol     OW14699   0.470   1.237   6.806  0.1540 -0.1699 -0.1016
 2936Sol     HW14700   0.512   1.321   6.826 -1.3939  0.7904 -0.8900
 2936Sol     HW14701   0.518   1.203   6.730 -0.3323  0.8046 -0.8427
 2936Sol     MW14702   0.478   1.241   6.801 -0.0835 -0.0948  0.7320
 2937Sol     OW14703   0.414   2.559   6.233 -0.0974 -0.2357  0.0873
 2937Sol     HW14704   0.463   2.568   6.314  1.5068  1.4579 -1.0342
 2937Sol     HW14705   0.384   2.468   6.232  0.5992 -0.4965  2.1334
 2937Sol     MW14706   0.415   2.552   6.240 -0.2358  0.2175 -0.5940
 2938Sol     OW14707   0.387   0.228   6.090  0.7057  0.2009 -0.6353
 2938Sol     HW14708   0.297   0.206   6.112  1.5638 -1.1335  1.6831
 2938Sol     HW14709   0.413   0.161   6.026 -0.2178  1.1704 -2.0656
 2938Sol     MW14710   0.382   0.220   6.086 -0.3977  0.1617  0.1335
 2939Sol     OW14711   2.565   1.037   5.405 -0.3538 -0.6194  0.2626
 2939Sol     HW14712   2.586   1.018   5.314  0.2260  0.9646  0.0548
 2939Sol     HW14713   2.525   1.123   5.404  0.6721 -0.0940  1.6233
 2939Sol     MW14714   2.564   1.043   5.397 -0.4058 -0.0696  1.1419
 2940Sol     OW14715   0.740   2.041   6.242  0.4848  0.1341  0.0880
 2940Sol     HW14716   0.679   2.114   6.245 -0.9211 -1.0345  0.2900
 2940Sol     HW14717   0.793   2.050   6.321 -1.6907 -0.7621  1.6942
 2940Sol     MW14718   0.740   2.048   6.249 -0.1319 -0.2375 -0.0421
 2941Sol     OW14719   0.594   0.857   3.914  0.8704 -0.8592 -0.4270
 2941Sol     HW14720   0.609   0.768   3.881 -0.8994 -1.4319  0.2502
 2941Sol     HW14721   0.643   0.861   3.996 -0.2007 -1.7231  0.2796
 2941Sol     MW14722   0.600   0.850   3.918  0.5098 -0.2369 -0.2786
 2942Sol     OW14723   3.001   3.381   2.084  0.7261 -0.4504  0.0677
 2942Sol     HW14724   2.976   3.471   2.102  0.6370  0.0350 -2.2581
 2942Sol     HW14725   2.936   3.328   2.129  0.3494  0.6537  0.8359
 2942Sol     MW14726   2.993   3.384   2.089 -0.4428  0.6398  0.5324
 2943Sol     OW14727   1.228   2.225   4.243  0.4970  0.3885  0.1725
 2943Sol     HW14728   1.198   2.312   4.269 -0.1843  0.0995  0.3520
 2943Sol     HW14729   1.152   2.168   4.256  1.0159 -0.2800  0.3164
 2943Sol     MW14730   1.219   2.228   4.247  0.0469 -0.1241 -0.0839
 2944Sol     OW14731   2.151   1.283   1.896  0.2834  0.0672  0.4031
 2944Sol     HW14732   2.149   1.271   1.802 -1.1802 -0.4708  0.4931
 2944Sol     HW14733   2.135   1.376   1.909 -0.8472 -0.0982  0.1747
 2944Sol     MW14734   2.150   1.290   1.889  0.2681  0.4355  0.0751
 2945Sol     OW14735   1.971   2.764   6.724  0.3488  0.0738  0.3367
 2945Sol     HW14736   1.962   2.796   6.813  2.4149  2.2736 -0.1834
 2945Sol     HW14737   1.931   2.832   6.669  0.0447 -0.7405 -0.4675
 2945Sol     MW14738   1.967   2.773   6.727 -0.6852 -0.6255 -0.1199
 2946Sol     OW14739   0.571   3.390   5.368 -0.3883 -0.5672 -0.0310
 2946Sol     HW14740   0.503   3.322   5.362  0.0353 -0.9319 -0.7435
 2946Sol     HW14741   0.523   3.470   5.387 -0.8871 -1.0903  0.9946
 2946Sol     MW14742   0.561   3.391   5.369 -0.3297 -0.1576  0.0426
 2947Sol     OW14743   1.016   2.392   1.989 -0.6991 -0.5312  0.5191
 2947Sol     HW14744   1.105   2.364   2.012 -1.0162  0.2527  2.7741
 2947Sol     HW14745   0.960   2.353   2.057 -2.0120 -0.5273 -0.5432
 2947Sol     MW14746   1.019   2.386   1.997  0.0283  0.6133  0.4130
 2948Sol     OW14747   0.562   1.893   7.147 -0.0138 -0.0431 -0.2733
 2948Sol     HW14748   0.632   1.901   7.212 -0.1217  1.4159 -0.3129
 2948Sol     HW14749   0.604   1.912   7.063  0.0264 -1.4732 -0.5970
 2948Sol     MW14750   0.572   1.895   7.145 -0.1215 -0.1643 -0.7282
 2949Sol     OW14751   2.555   1.517   4.777  0.0377  0.2416  1.4224
 2949Sol     HW14752   2.592   1.455   4.714  0.9127  0.6805  1.4973
 2949Sol     HW14753   2.594   1.492   4.861 -1.8666 -0.9489  1.9678
 2949Sol     MW14754   2.562   1.509   4.779  0.4024 -0.2957 -0.4341
 2950Sol     OW14755   2.174   0.450   7.192 -0.0603  0.1475 -0.9048
 2950Sol     HW14756   2.194   0.399   7.113 -0.1249  1.5894 -1.8588
 2950Sol     HW14757   2.184   0.541   7.166 -0.7097  0.6692  0.5850
 2950Sol     MW14758   2.176   0.453   7.183  0.0524  0.2489 -0.0566
 2951Sol     OW14759   1.324   1.965   6.153 -0.1509  0.1768  0.2980
 2951Sol     HW14760   1.377   1.984   6.231 -1.0165 -1.7258  1.3694
 2951Sol     HW14761   1.244   2.015   6.165  0.4501  1.3038 -0.2620
 2951Sol     MW14762   1.322   1.971   6.161 -0.6082 -0.4851  0.4840
 2952Sol     OW14763   2.924   2.701   9.816 -0.0950 -0.3298 -0.1686
 2952Sol     HW14764   2.950   2.688   9.725  1.8109 -1.3329  0.4904
 2952Sol     HW14765   2.992   2.757   9.853 -2.2016  2.2502  0.0291
 2952Sol     MW14766   2.932   2.705   9.811 -0.2498 -0.2781 -0.8129
 2953Sol     OW14767   0.525   0.032   9.036  0.0851  0.3101 -0.4174
 2953Sol     HW14768   0.549   0.108   8.984 -0.9632  1.0778  0.1992
 2953Sol     HW14769   0.538  -0.042   8.978  1.6523  0.9035 -0.8449
 2953Sol     MW14770   0.528   0.032   9.026 -0.2324 -0.0377  0.0835
 2954Sol     OW14771   1.517   1.124   4.932 -0.3764 -0.1144 -0.6158
 2954Sol     HW14772   1.481   1.206   4.898 -0.6985 -0.8924 -2.1857
 2954Sol     HW14773   1.556   1.149   5.016 -0.9119  1.5460 -0.8239
 2954Sol     MW14774   1.517   1.134   4.936 -0.1200  0.5790 -0.1625
 2955Sol     OW14775   2.876   3.140   8.155  0.1745  0.5968  0.4475
 2955Sol     HW14776   2.843   3.069   8.099  0.0365  0.0321  1.2361
 2955Sol     HW14777   2.798   3.190   8.178  0.1430  0.4703  0.6220
 2955Sol     MW14778   2.866   3.138   8.152  0.1160 -0.7438  0.2210
 2956Sol     OW14779   1.358   1.537   6.137  0.4848 -0.2293  0.5530
 2956Sol     HW14780   1.306   1.457   6.133  0.4425 -0.1505 -0.4313
 2956Sol     HW14781   1.297   1.604   6.169 -0.1554 -0.0329 -1.0358
 2956Sol     MW14782   1.348   1.536   6.140  0.3915 -0.5111 -0.3723
 2957Sol     OW14783   1.591   0.901   8.726 -0.0583 -0.1063 -0.5228
 2957Sol     HW14784   1.555   0.988   8.711  0.0471  0.0533  0.1081
 2957Sol     HW14785   1.686   0.912   8.720 -0.0832 -0.3642 -1.3762
 2957Sol     MW14786   1.596   0.909   8.724 -0.0421 -0.0552 -0.0697
 2958Sol     OW14787   1.542   2.333   7.050  0.2136  0.0797 -0.4848
 2958Sol     HW14788   1.572   2.328   7.140 -2.4283  0.5516  0.4776
 2958Sol     HW14789   1.566   2.249   7.012  1.7266  0.0362  0.5100
 2958Sol     MW14790   1.547   2.325   7.055  0.1978 -0.3867 -0.0856
 2959Sol     OW14791   2.123   1.587   3.658 -0.1012  0.4845 -0.0203
 2959Sol     HW14792   2.118   1.666   3.712 -1.1580 -0.1761  0.8771
 2959Sol     HW14793   2.141   1.619   3.570 -2.1302  1.8724  0.0242
 2959Sol     MW14794   2.124   1.597   3.655  0.1480 -0.3683 -0.1316
 2960Sol     OW14795   3.214   1.794   6.038 -0.3567  0.2267 -0.2576
 2960Sol     HW14796   3.280   1.831   6.097 -1.2781  1.2826  0.1312
 2960Sol     HW14797   3.138   1.850   6.050 -1.2455 -0.8406 -0.8859
 2960Sol     MW14798   3.213   1.802   6.044 -0.9463 -0.0956 -0.0573
 2961Sol     OW14799   1.092   3.241   8.001  0.0509  0.1912 -0.1009
 2961Sol     HW14800   1.009   3.197   8.023 -0.9946  2.3877  0.5515
 2961Sol     HW14801   1.143   3.175   7.955 -2.8216 -0.6753 -2.1852
 2961Sol     MW14802   1.089   3.232   7.999 -0.2815  0.0391 -0.1256
 2962Sol     OW14803   2.090   0.814   7.861  0.1006 -0.0432  0.4447
 2962Sol     HW14804   2.077   0.759   7.784 -1.3569 -0.2585  0.8259
 2962Sol     HW14805   2.171   0.783   7.900  0.0963 -0.8861 -0.2038
 2962Sol     MW14806   2.096   0.807   7.857 -0.0887 -0.0244  0.2065
 2963Sol     OW14807   2.137   1.179   5.272 -0.2548 -0.6420 -0.0771
 2963Sol     HW14808   2.086   1.138   5.202 -0.8425 -0.0293 -0.0121
 2963Sol     HW14809   2.160   1.266   5.237 -0.8030 -0.2216  0.6051
 2963Sol     MW14810   2.135   1.183   5.262 -0.4396  0.0037 -0.0888
 2964Sol     OW14811   2.669   1.029   8.676  0.7455  0.1155 -0.3011
 2964Sol     HW14812   2.697   1.120   8.668  0.3053  0.3502  0.7524
 2964Sol     HW14813   2.740   0.985   8.724  0.8166 -0.0287 -0.5360
 2964Sol     MW14814   2.678   1.033   8.679 -0.0440 -0.1050  0.1397
 2965Sol     OW14815   0.762   2.529   4.867 -0.5517  0.3763 -0.1321
 2965Sol     HW14816   0.724   2.617   4.858  1.3079  1.0466 -1.9261
 2965Sol     HW14817   0.842   2.533   4.815 -0.7164 -2.5715 -0.6620
 2965Sol     MW14818   0.766   2.538   4.861  0.1026 -0.1794 -0.4000
 2966Sol     OW14819   0.204   0.422   7.640 -0.1748 -0.0508  0.0722
 2966Sol     HW14820   0.151   0.373   7.703  0.3115  1.4592  1.6793
 2966Sol     HW14821   0.145   0.490   7.608 -0.1246 -0.2303 -0.3985
 2966Sol     MW14822   0.194   0.424   7.643 -0.0579  0.1564  0.4588
 2967Sol     OW14823   1.555   0.795   9.023 -0.2364 -0.4482  0.3778
 2967Sol     HW14824   1.521   0.744   9.096  0.7005 -0.1188  1.0412
 2967Sol     HW14825   1.534   0.742   8.946 -0.1291 -1.3850  0.9831
 2967Sol     MW14826   1.550   0.786   9.022 -0.1605  0.0565 -0.2865
 2968Sol     OW14827   2.187   2.265   9.962  0.0266 -0.4112 -0.1492
 2968Sol     HW14828   2.099   2.265   9.999  0.7083 -1.8348  1.5450
 2968Sol     HW14829   2.238   2.323  10.019  0.4451 -0.4528 -0.4740
 2968Sol     MW14830   2.184   2.270   9.971  0.4436 -0.1450 -0.1884
 2969Sol     OW14831   0.397   0.383   4.362 -0.1092 -0.0802  0.0374
 2969Sol     HW14832   0.339   0.452   4.395 -1.5862 -2.1084  1.8233
 2969Sol     HW14833   0.466   0.377   4.428 -0.7592 -1.2467  0.6257
 2969Sol     MW14834   0.398   0.389   4.371  0.0653 -0.0031 -0.1898
 2970Sol     OW14835   2.751   1.366   8.207  0.3094  0.0730  0.0852
 2970Sol     HW14836   2.837   1.336   8.234  0.7308  0.5378 -0.7208
 2970Sol     HW14837   2.768   1.429   8.137 -0.6257  0.9314  0.5977
 2970Sol     MW14838   2.760   1.369   8.203  0.2622 -0.1988  0.1340
 2971Sol     OW14839   2.541   2.459   3.595  0.2882 -0.7616  0.3981
 2971Sol     HW14840   2.555   2.546   3.558  0.7829  0.0855  2.5236
 2971Sol     HW14841   2.558   2.399   3.522  3.3630  0.7659 -0.2209
 2971Sol     MW14842   2.544   2.462   3.585  0.3192  0.3010 -0.4918
 2972Sol     OW14843   0.331   1.229   8.551  0.2444 -0.1090 -0.1668
 2972Sol     HW14844   0.382   1.178   8.488 -0.3795 -0.2334 -0.5781
 2972Sol     HW14845   0.243   1.191   8.546  0.0088  0.3822  0.2307
 2972Sol     MW14846   0.328   1.221   8.545  0.1216 -0.3306  0.1461
 2973Sol     OW14847   1.812   2.661   8.513  0.2407  0.0342 -0.7274
 2973Sol     HW14848   1.810   2.600   8.587  0.9957  1.3255  0.3914
 2973Sol     HW14849   1.723   2.697   8.509  0.0781 -0.3678 -0.7376
 2973Sol     MW14850   1.804   2.659   8.519  0.0111  0.0841  0.4221
 2974Sol     OW14851   0.770   1.858   7.877  0.0675 -0.0356 -0.1665
 2974Sol     HW14852   0.838   1.907   7.831 -0.7293  0.3458 -0.9418
 2974Sol     HW14853   0.751   1.911   7.955 -1.8084  1.6733 -1.7149
 2974Sol     MW14854   0.774   1.867   7.880  0.3785  0.2482 -0.1278
 2975Sol     OW14855   0.566   1.999   9.601  0.6304  0.0615  0.5428
 2975Sol     HW14856   0.502   1.994   9.672  2.7232 -0.3091  2.4541
 2975Sol     HW14857   0.514   1.987   9.521 -1.5146 -1.2994  2.0929
 2975Sol     MW14858   0.555   1.998   9.600  0.9205 -0.0655 -0.1263
 2976Sol     OW14859   2.282   2.224   7.019  0.5861  0.2487 -0.8450
 2976Sol     HW14860   2.353   2.175   6.978 -0.7690 -1.6725 -0.9627
 2976Sol     HW14861   2.224   2.247   6.947 -0.2740 -0.5218 -0.3996
 2976Sol     MW14862   2.283   2.222   7.009 -0.2190  0.2268  0.0515
 2977Sol     OW14863   2.593   0.598   1.928  0.2171  0.6030 -0.1831
 2977Sol     HW14864   2.668   0.593   1.987  1.9769  1.8394 -2.2014
 2977Sol     HW14865   2.517   0.576   1.982  1.9991 -0.3557  1.9898
 2977Sol     MW14866   2.593   0.596   1.938  0.7748  0.1865  0.0154
 2978Sol     OW14867   3.133   0.273   9.766 -0.1296  1.6105 -0.0606
 2978Sol     HW14868   3.039   0.280   9.750 -0.1013  1.0604 -0.5260
 2978Sol     HW14869   3.142   0.193   9.818 -0.1657  3.1291  2.3384
 2978Sol     MW14870   3.125   0.266   9.769 -0.2274 -0.0666  0.2952
 2979Sol     OW14871   1.409   2.255   2.991 -0.5695  0.0542  0.7982
 2979Sol     HW14872   1.413   2.160   2.998  0.1340  0.1449  1.6494
 2979Sol     HW14873   1.387   2.271   2.899  0.9457 -0.8954  0.2484
 2979Sol     MW14874   1.407   2.248   2.983 -0.8491  0.2010  0.2305
 2980Sol     OW14875   1.388   1.678   5.041  0.3340  0.2938  0.4864
 2980Sol     HW14876   1.425   1.675   4.953 -1.5042 -1.3822 -0.2680
 2980Sol     HW14877   1.356   1.589   5.057  1.6805  0.2608  3.3254
 2980Sol     MW14878   1.388   1.670   5.035 -0.7972  0.3496 -0.0644
 2981Sol     OW14879   1.753   2.405   4.210  0.4052 -0.3266 -0.0568
 2981Sol     HW14880   1.679   2.349   4.190  0.5014 -0.6025  0.3588
 2981Sol     HW14881   1.808   2.401   4.132 -0.0059 -0.1320 -0.3591
 2981Sol     MW14882   1.752   2.400   4.201 -0.1249 -0.0346  0.2804
 2982Sol     OW14883   1.008   1.523   7.544  0.0671 -0.3994  0.1684
 2982Sol     HW14884   0.921   1.514   7.507  0.2968 -1.4627 -0.1092
 2982Sol     HW14885   1.001   1.599   7.603 -0.6376  0.4540 -1.0078
 2982Sol     MW14886   1.000   1.529   7.546 -0.1127 -0.3698  0.6492
 2983Sol     OW14887   0.150   0.280   7.881  0.2040  0.5164 -0.2907
 2983Sol     HW14888   0.118   0.190   7.876  2.0900 -0.0802 -2.7358
 2983Sol     HW14889   0.230   0.274   7.934  1.1472  0.4606 -1.6852
 2983Sol     MW14890   0.154   0.272   7.885  0.0350 -0.8311 -0.1717
 2984Sol     OW14891   2.061   0.276   8.432  0.1640  0.3085 -0.5853
 2984Sol     HW14892   2.038   0.366   8.457 -0.7019 -0.1083  0.1969
 2984Sol     HW14893   2.085   0.234   8.515 -0.3857 -0.4456 -0.8030
 2984Sol     MW14894   2.061   0.281   8.442 -0.6281 -0.3086  0.7872
 2985Sol     OW14895   2.390   0.898   2.545 -0.1598 -0.2115 -0.4334
 2985Sol     HW14896   2.390   0.921   2.452  1.1187 -0.0686 -0.4144
 2985Sol     HW14897   2.483   0.883   2.565 -0.3288  0.6408  1.0281
 2985Sol     MW14898   2.399   0.899   2.538  0.5352 -0.3414 -0.1129
 2986Sol     OW14899   3.081   0.633   2.043  0.1903 -0.0100  0.2145
 2986Sol     HW14900   3.175   0.648   2.053  0.5208 -2.8279  2.0721
 2986Sol     HW14901   3.072   0.595   1.956  1.0972 -1.6738  0.8127
 2986Sol     MW14902   3.089   0.631   2.036  0.0642 -0.0129 -0.1712
 2987Sol     OW14903   0.485   1.458   4.384 -0.6040 -0.4543 -0.3140
 2987Sol     HW14904   0.469   1.548   4.411 -0.8627  0.2569 -2.6515
 2987Sol     HW14905   0.574   1.459   4.348 -0.1287 -1.4241  0.8168
 2987Sol     MW14906   0.491   1.466   4.383 -0.6772  0.1204  0.2736
 2988Sol     OW14907   1.429   1.585   5.885  0.3574 -0.0574  0.1317
 2988Sol     HW14908   1.498   1.520   5.866  1.2462  1.0898 -0.6623
 2988Sol     HW14909   1.405   1.568   5.976 -0.9744 -2.9253 -0.7034
 2988Sol     MW14910   1.433   1.577   5.891 -0.1972  0.1001 -0.1285
 2989Sol     OW14911   0.383   2.873   1.799 -0.0184 -0.6513 -0.0859
 2989Sol     HW14912   0.403   2.785   1.829 -0.5710 -1.0010 -0.7247
 2989Sol     HW14913   0.338   2.914   1.872 -0.7318 -1.2597 -0.1796
 2989Sol     MW14914   0.381   2.869   1.808  0.0131  0.5025 -0.1256
 2990Sol     OW14915   1.964   2.489   7.007  0.0873  0.2297 -0.9230
 2990Sol     HW14916   1.895   2.436   7.047  0.7536 -0.3722 -0.5431
 2990Sol     HW14917   2.007   2.429   6.945  0.0565  0.6980 -1.4037
 2990Sol     MW14918   1.962   2.479   7.005  0.0303  0.2090  0.9042
 2991Sol     OW14919   0.307   2.614   4.005  0.4394  0.0509 -0.0003
 2991Sol     HW14920   0.378   2.601   4.068  1.4285 -0.1214 -1.1320
 2991Sol     HW14921   0.286   2.707   4.011  0.6450  0.0683  0.4517
 2991Sol     MW14922   0.311   2.621   4.012  0.1860 -0.1059  0.2002
 2992Sol     OW14923   2.349   2.450   5.372 -0.3786  0.0223  0.1135
 2992Sol     HW14924   2.263   2.409   5.389  0.3981  0.1911  5.3625
 2992Sol     HW14925   2.336   2.542   5.394  0.2824  0.8209 -2.6646
 2992Sol     MW14926   2.340   2.454   5.376 -0.3466 -0.0595 -0.1811
 2993Sol     OW14927   2.111   0.578   4.121  0.0404  0.6626  0.6169
 2993Sol     HW14928   2.147   0.665   4.105  0.4547  0.1655 -1.2743
 2993Sol     HW14929   2.187   0.525   4.145  0.1456  0.2986 -0.4901
 2993Sol     MW14930   2.121   0.581   4.122 -0.2721  0.0812  0.2924
 2994Sol     OW14931   1.145   0.888   7.329 -0.5337 -0.1298  0.5552
 2994Sol     HW14932   1.233   0.851   7.336 -0.6917 -0.4903  0.6283
 2994Sol     HW14933   1.089   0.813   7.308 -0.7588  0.1754  0.0729
 2994Sol     MW14934   1.148   0.878   7.328  0.0880 -0.1066  0.2182
 2995Sol     OW14935   2.529   2.668   3.955 -0.4941  0.3077  0.2370
 2995Sol     HW14936   2.485   2.583   3.952 -1.2731  0.7494 -1.0721
 2995Sol     HW14937   2.465   2.726   3.995  0.6236 -0.0430  2.6251
 2995Sol     MW14938   2.519   2.665   3.958  0.2637  0.5688 -0.3818
 2996Sol     OW14939   1.924   1.276   6.310  0.2522 -0.3410 -0.4942
 2996Sol     HW14940   1.850   1.327   6.275  0.4018  0.8904  0.9344
 2996Sol     HW14941   1.887   1.190   6.328 -0.4936 -0.1576 -1.0965
 2996Sol     MW14942   1.914   1.273   6.308  0.1419 -0.1150 -0.0391
 2997Sol     OW14943   2.386   2.391   6.756 -1.2612 -0.0325  0.5962
 2997Sol     HW14944   2.380   2.450   6.831  1.3979  1.4916 -0.3474
 2997Sol     HW14945   2.313   2.416   6.700 -0.5794  1.8654  0.5477
 2997Sol     MW14946   2.379   2.398   6.758  0.0509  0.0704  0.2300
 2998Sol     OW14947   1.493   0.959   4.707 -0.0857 -0.0565 -0.0258
 2998Sol     HW14948   1.582   0.950   4.672  0.7387 -1.7106  2.3882
 2998Sol     HW14949   1.503   1.004   4.790 -1.6297  0.5722 -0.1497
 2998Sol     MW14950   1.502   0.962   4.711 -0.3689  0.0842  0.3276
 2999Sol     OW14951   1.828   0.458   5.922 -0.3218 -0.1366  0.1807
 2999Sol     HW14952   1.856   0.526   5.861 -1.7448  0.7771  0.5220
 2999Sol     HW14953   1.796   0.506   5.998 -0.1730 -1.2310  0.9461
 2999Sol     MW14954   1.828   0.468   5.924  0.3537  0.2356 -0.6023
 3000Sol     OW14955   3.045   3.206   2.692 -0.7790  0.2267 -0.0201
 3000Sol     HW14956   3.029   3.260   2.770 -0.8627  1.7686 -1.0808
 3000Sol     HW14957   2.958   3.190   2.656 -0.7670 -0.7997  0.4117
 3000Sol     MW14958   3.036   3.210   2.696 -0.0372 -0.1628  0.4258
 3001Sol     OW14959   2.727   0.796   2.283 -0.1934  0.1388  0.1946
 3001Sol     HW14960   2.684   0.856   2.222 -0.4694 -1.2588 -1.0124
 3001Sol     HW14961   2.718   0.838   2.369 -0.6071  1.6821 -0.5946
 3001Sol     MW14962   2.722   0.805   2.286 -0.2015  0.0519  0.2363
   3.24010   3.41360  11.65800
