Water-ethanol mixture in organosilica
14766
    1Sil     Ob    1   2.278   1.445  11.791  0.1872  0.6188  0.5125
    1Sil     Ob    2   2.824   1.492  11.038 -0.0937  0.1280 -0.1842
    1Sil     Ob    3   2.568   1.406  11.353 -0.0452  0.1228 -0.1925
    1Sil     Ob    4   2.161   1.820  11.433 -0.2796  0.0470  0.0665
    1Sil     Ob    5   2.677   1.814  11.750 -0.1962  0.1442  0.3773
    1Sil     Ob    6   2.387   1.855  10.881  0.3044 -0.0415 -0.1130
    1Sil     Ob    7   2.448   1.744  11.817  0.6193 -0.3553 -0.0725
    1Sil     Ob    8   2.221   1.782  11.041  0.0103  0.3113 -0.2836
    1Sil     Ob    9   2.725   1.700  11.425 -0.0128 -0.1444  0.3272
    1Sil     Ob   10   2.282   1.527  11.542  0.3876 -0.0716  0.6854
    1Sil     Ob   11   2.518   1.456  11.092  0.3608 -0.1352  0.0842
    1Sil     Ob   12   2.219   1.690  11.736 -0.8236 -0.0011 -0.3977
    1Sil     Ob   13   2.507   1.638  11.302  0.6164  0.2455 -0.0725
    1Sil     Ob   14   2.138   1.574  11.337  0.5408  0.5796  0.1264
    1Sil     Ob   15   2.602   1.569  11.719 -0.6436 -0.1439  0.3893
    1Sil     Ob   16   2.397   1.617  10.964 -0.2696  0.4424  0.0494
    1Sil     Ob   17   2.634   1.538  10.864 -0.3321 -0.2140 -0.0466
    1Sil     Ob   18   2.064   1.497  11.678 -0.3693 -0.1510 -0.2360
    1Sil     Ob   19   2.340   1.441  11.299  0.7512 -0.5213  0.6479
    1Sil     Ob   20   2.045   1.791  11.227 -0.1664 -0.5421 -0.5526
    1Sil     Ob   21   2.512   1.745  11.558 -0.3934  0.1648 -0.1441
    1Sil     Ob   22   2.152   1.640  10.850 -0.2760 -0.1809 -0.0016
    1Sil     Ob   23   2.234   1.484  12.910  0.6042  0.6819  0.2616
    1Sil     Ob   24   2.775   1.453  12.163 -0.0944  0.2458 -0.1873
    1Sil     Ob   25   2.499   1.394  12.594 -0.9608  0.3755  0.0313
    1Sil     Ob   26   2.085   1.835  12.579 -0.2764  0.3838 -0.3021
    1Sil     Ob   27   2.602   1.852  12.939  0.1448 -0.1294 -0.2568
    1Sil     Ob   28   2.412   1.815  12.176  0.0837 -0.0827  0.4604
    1Sil     Ob   29   2.365   1.781  13.037 -0.1023 -0.1008 -0.0574
    1Sil     Ob   30   2.175   1.749  12.218  0.2411 -0.4355  0.3891
    1Sil     Ob   31   2.657   1.700  12.607  0.2780  0.2560 -0.5578
    1Sil     Ob   32   2.182   1.542  12.691 -0.3984 -0.3032  0.0274
    1Sil     Ob   33   2.764   1.520  11.912  0.0148 -0.6752  0.0039
    1Sil     Ob   34   2.487   1.488  12.342 -0.4452  0.6665  0.1392
    1Sil     Ob   35   2.174   1.729  12.873  0.2611  0.2399 -0.3428
    1Sil     Ob   36   2.433   1.643  12.540  0.7984  0.2999  0.4337
    1Sil     Ob   37   2.070   1.588  12.475  0.0897  0.5361  0.2325
    1Sil     Ob   38   2.606   1.606  13.042  0.2962  0.5336  0.9661
    1Sil     Ob   39   2.326   1.567  12.161  0.0387 -0.2432  0.0074
    1Sil     Ob   40   2.558   1.522  12.086  0.1220  0.0129 -0.4980
    1Sil     Ob   41   1.997   1.544  12.866 -0.3451 -0.7349 -0.1151
    1Sil     Ob   42   2.275   1.457  12.476  0.1317  0.2721 -0.4031
    1Sil     Ob   43   1.960   1.789  12.368  0.2041 -0.0940 -0.4086
    1Sil     Ob   44   2.488   1.684  12.805  0.5028 -0.0881 -0.4081
    1Sil     Ob   45   2.252   1.739  11.985 -0.3406 -0.1233 -0.3269
    1Sil     Ob   46   2.073   1.886  13.065  0.4705 -0.3689  0.2616
    1Sil     Ob   47   2.079   2.381  13.065 -0.0333  0.1624  0.4147
    1Sil     Ob   48   2.083   2.866  13.053 -0.0866 -0.9224  0.9658
    1Sil     Ob   49   2.078   3.367  13.049  0.6429  0.5633 -0.5872
    1Sil     Ob   50   2.061   3.830  13.045  0.1090  0.4855  0.8905
    1Sil     Ob   51   2.077   4.323  13.054  0.0695 -0.3000  0.2677
    1Sil     Ob   52   2.072   1.405  13.053  0.3917  0.0834 -0.5685
    1Sil     Ob   53   2.853   1.896  13.062 -0.1793 -0.5964  0.4146
    1Sil     Ob   54   2.845   2.380  13.054  0.0839 -0.1052  0.2713
    1Sil     Ob   55   2.847   2.868  13.052 -0.3134 -0.7261 -0.7881
    1Sil     Ob   56   2.857   3.361  13.064  0.4330 -0.1035 -0.0995
    1Sil     Ob   57   2.853   3.849  13.071 -0.3238 -0.5848  0.2698
    1Sil     Ob   58   2.855   4.329  13.053 -0.1028  0.2655 -0.2230
    1Sil     Ob   59   2.854   1.402  13.062 -0.1375  0.0258  0.0202
    1Sil     Ob   60   3.612   1.895  13.047  0.1197  0.0572  0.0534
    1Sil     Ob   61   3.626   2.386  13.059  0.4307  0.3494 -0.2738
    1Sil     Ob   62   3.629   2.866  13.054 -1.0959  0.8305  0.1757
    1Sil     Ob   63   3.633   3.354  13.070  0.2662 -0.7925 -0.1555
    1Sil     Ob   64   3.632   3.848  13.054  0.1855  0.2368  0.1198
    1Sil     Ob   65   3.622   4.329  13.056  0.0254  0.2806 -0.1571
    1Sil     Ob   66   3.628   1.416  13.047 -0.0454  0.7402 -0.2480
    1Sil     Ob   67   4.399   1.894  13.044 -0.2110  0.1253 -0.0402
    1Sil     Ob   68   4.400   2.377  13.063  0.4137 -0.4118  0.4476
    1Sil     Ob   69   4.403   2.872  13.057  0.2665 -0.7368  0.2513
    1Sil     Ob   70   4.407   3.355  13.060  0.1900 -0.3717  0.3099
    1Sil     Ob   71   4.405   3.844  13.040  0.6954 -0.2323 -0.3125
    1Sil     Ob   72   4.395   4.314  13.040 -0.4310  0.5165 -0.9612
    1Sil     Ob   73   4.401   1.417  13.048 -0.3159 -0.1952 -0.3356
    1Sil     Ob   74   2.284   1.928  11.796  0.3451  0.0796 -0.4553
    1Sil     Ob   75   2.829   1.983  11.033 -0.2268  0.7712  0.3259
    1Sil     Ob   76   2.575   1.887  11.345  0.0368 -0.9598 -0.0834
    1Sil     Ob   77   2.174   2.313  11.419 -0.3239  0.1270 -0.2440
    1Sil     Ob   78   2.692   2.295  11.756  0.6472 -0.0262  0.2957
    1Sil     Ob   79   2.383   2.342  10.876  0.1551 -0.1625 -0.0382
    1Sil     Ob   80   2.453   2.246  11.829  0.3712 -0.9585 -0.1209
    1Sil     Ob   81   2.221   2.269  11.054 -0.0829 -0.4875  0.2903
    1Sil     Ob   82   2.722   2.191  11.435 -0.1582  0.2652 -0.0884
    1Sil     Ob   83   2.287   1.999  11.551 -0.9248 -0.1451 -0.2442
    1Sil     Ob   84   2.512   1.945  11.104  0.1140 -0.1391 -0.0358
    1Sil     Ob   85   2.232   2.172  11.737 -0.0883  0.1586  0.0919
    1Sil     Ob   86   2.508   2.129  11.311 -0.3811  0.4446 -0.2327
    1Sil     Ob   87   2.148   2.064  11.343 -0.2369 -0.0186 -0.2099
    1Sil     Ob   88   2.602   2.056  11.743  0.2788  0.3240 -0.0606
    1Sil     Ob   89   2.376   2.100  10.977  0.3662 -0.3771  0.2321
    1Sil     Ob   90   2.620   2.040  10.873 -0.3472 -0.2213  0.3106
    1Sil     Ob   91   2.069   2.000  11.685  0.4114 -0.2199  0.4320
    1Sil     Ob   92   2.347   1.931  11.305  0.0133 -0.5684 -0.3248
    1Sil     Ob   93   2.037   2.274  11.228  0.4247  0.0984 -0.0274
    1Sil     Ob   94   2.517   2.226  11.572  0.0899  0.2415  0.2230
    1Sil     Ob   95   2.152   2.137  10.847  0.5984  0.1108 -0.2236
    1Sil     Ob   96   2.241   1.973  12.921  0.0903 -0.3296  0.3032
    1Sil     Ob   97   2.773   1.943  12.175 -0.2435 -0.3073 -0.2920
    1Sil     Ob   98   2.490   1.880  12.604  0.0457 -0.1001 -0.3175
    1Sil     Ob   99   2.095   2.320  12.570  0.3249 -0.4170  1.1616
    1Sil     Ob  100   2.601   2.353  12.940 -0.2652 -0.2713  0.3578
    1Sil     Ob  101   2.405   2.297  12.177  0.4221 -0.2605 -0.2067
    1Sil     Ob  102   2.378   2.274  13.032 -0.0371  0.8243  0.5531
    1Sil     Ob  103   2.164   2.232  12.228 -0.4431 -0.2465  0.0981
    1Sil     Ob  104   2.656   2.201  12.617 -0.6540  0.1479  0.1242
    1Sil     Ob  105   2.189   2.043  12.693 -0.1500 -0.4206 -0.0237
    1Sil     Ob  106   2.755   1.993  11.926 -0.0345 -0.3061  0.0660
    1Sil     Ob  107   2.489   1.972  12.344  0.0617 -0.0265 -0.3718
    1Sil     Ob  108   2.173   2.226  12.878  0.8357 -0.0453 -0.4618
    1Sil     Ob  109   2.432   2.125  12.555 -0.3255 -0.0093  0.0284
    1Sil     Ob  110   2.062   2.079  12.491  0.1104  0.1825  0.0917
    1Sil     Ob  111   2.617   2.102  13.024  0.4605 -1.0257 -0.0794
    1Sil     Ob  112   2.331   2.058  12.163 -0.3962  0.3428  0.5426
    1Sil     Ob  113   2.558   2.001  12.087 -0.1276 -0.0875  0.2641
    1Sil     Ob  114   2.006   2.036  12.879 -0.4848 -0.4019  0.1915
    1Sil     Ob  115   2.283   1.940  12.489 -0.9718  0.2166 -0.1500
    1Sil     Ob  116   1.949   2.259  12.365 -0.4500 -0.1987 -0.1298
    1Sil     Ob  117   2.481   2.193  12.803 -0.4205  0.6390  0.5362
    1Sil     Ob  118   2.255   2.238  11.991  0.5720  0.0295  0.9268
    1Sil     Ob  119   2.271   2.410  11.795 -0.9375  1.0367  0.5324
    1Sil     Ob  120   2.814   2.462  11.044  1.0023 -0.3441  0.5058
    1Sil     Ob  121   2.569   2.377  11.352 -0.6321  0.5592 -0.4164
    1Sil     Ob  122   2.168   2.797  11.418 -0.0524  0.1638  0.0809
    1Sil     Ob  123   2.676   2.784  11.763 -0.7092 -0.2776 -0.4614
    1Sil     Ob  124   2.385   2.829  10.864 -0.0738 -0.0258  0.4398
    1Sil     Ob  125   2.444   2.713  11.822 -0.0047 -0.8814 -0.4182
    1Sil     Ob  126   2.224   2.752  11.033 -0.5454  0.1338 -0.1941
    1Sil     Ob  127   2.720   2.689  11.442  0.0975 -0.4431  0.1586
    1Sil     Ob  128   2.271   2.498  11.545  0.7570  0.1063 -0.0865
    1Sil     Ob  129   2.509   2.440  11.098 -0.1590 -0.7603  0.4072
    1Sil     Ob  130   2.222   2.653  11.733  0.2014  0.4090 -0.3635
    1Sil     Ob  131   2.521   2.616  11.303 -0.1120 -0.6958  0.1069
    1Sil     Ob  132   2.135   2.554  11.329 -0.3786 -0.2809 -0.1474
    1Sil     Ob  133   2.607   2.528  11.726  0.3521  0.1300  0.4536
    1Sil     Ob  134   2.393   2.598  10.954 -0.7131  0.5116  0.1336
    1Sil     Ob  135   2.634   2.509  10.871 -0.3695 -0.5207 -0.1581
    1Sil     Ob  136   2.057   2.479  11.682 -0.4467 -0.1846  0.1705
    1Sil     Ob  137   2.344   2.424  11.298  0.4637 -0.6707 -0.2218
    1Sil     Ob  138   2.036   2.763  11.212  0.2561 -0.2224  0.2683
    1Sil     Ob  139   2.512   2.709  11.562  0.5770  0.2274 -0.1234
    1Sil     Ob  140   2.152   2.618  10.844  0.3012  0.7891  0.0844
    1Sil     Ob  141   2.254   2.464  12.906 -0.0279  0.3214 -0.1613
    1Sil     Ob  142   2.778   2.428  12.177  0.6126 -0.1992  0.2849
    1Sil     Ob  143   2.491   2.370  12.593  0.3714  0.2086  0.5502
    1Sil     Ob  144   2.079   2.798  12.577 -0.0992 -0.0107  0.0667
    1Sil     Ob  145   2.618   2.826  12.926  0.0982  0.8620  0.1315
    1Sil     Ob  146   2.400   2.785  12.179  1.0359  0.0497 -0.0699
    1Sil     Ob  147   2.376   2.755  13.026  0.0345  0.3516 -0.6765
    1Sil     Ob  148   2.164   2.729  12.222  0.1337 -0.1313 -0.0677
    1Sil     Ob  149   2.659   2.674  12.597 -0.6447 -0.2610  0.0177
    1Sil     Ob  150   2.192   2.533  12.678  0.1264  0.5324  0.7317
    1Sil     Ob  151   2.761   2.478  11.929 -0.1047  0.1315 -0.4251
    1Sil     Ob  152   2.488   2.463  12.339  0.6627  0.0121 -0.3376
    1Sil     Ob  153   2.181   2.705  12.870 -0.6191 -0.0220 -0.2209
    1Sil     Ob  154   2.434   2.611  12.541 -0.1492 -0.0026  0.4503
    1Sil     Ob  155   2.048   2.561  12.478 -0.6266 -0.0488 -0.0875
    1Sil     Ob  156   2.614   2.583  13.031 -0.4857 -0.5235 -0.1323
    1Sil     Ob  157   2.318   2.542  12.157  0.3340  0.3672  0.4638
    1Sil     Ob  158   2.554   2.482  12.081 -0.3448 -0.0248 -0.0867
    1Sil     Ob  159   2.009   2.511  12.859 -0.3242 -0.6791 -0.0811
    1Sil     Ob  160   2.279   2.454  12.463 -0.2201  0.1203 -0.6104
    1Sil     Ob  161   1.945   2.746  12.362  0.3576 -0.5452 -0.6565
    1Sil     Ob  162   2.494   2.663  12.798  0.3342 -0.7025 -0.5764
    1Sil     Ob  163   2.250   2.719  11.985 -0.3529 -0.2049 -0.0357
    1Sil     Ob  164   2.278   2.900  11.793 -0.3052  0.5492 -0.4797
    1Sil     Ob  165   2.817   2.945  11.041  0.5004 -0.2604 -0.0134
    1Sil     Ob  166   2.567   2.860  11.362 -0.0160  0.3872 -0.0064
    1Sil     Ob  167   2.157   3.288  11.428  0.0988 -0.5444  0.1617
    1Sil     Ob  168   2.691   3.266  11.734 -0.3614  0.5810  0.3839
    1Sil     Ob  169   2.389   3.320  10.868  0.2690 -0.4671  0.0352
    1Sil     Ob  170   2.456   3.214  11.821 -0.1618  0.6430  0.8529
    1Sil     Ob  171   2.221   3.251  11.044  0.6172 -0.4301 -0.5946
    1Sil     Ob  172   2.722   3.165  11.435  0.1640  0.1539  0.2353
    1Sil     Ob  173   2.280   2.994  11.545 -0.3466  0.2041 -0.3085
    1Sil     Ob  174   2.509   2.912  11.094 -0.1093  0.1047 -0.6834
    1Sil     Ob  175   2.226   3.155  11.738  0.5631  0.0529  0.5746
    1Sil     Ob  176   2.500   3.104  11.302  0.0548  0.7201 -0.2485
    1Sil     Ob  177   2.144   3.038  11.338 -0.2495 -0.0266  0.5020
    1Sil     Ob  178   2.603   3.034  11.742  0.7510 -0.1678 -0.1320
    1Sil     Ob  179   2.393   3.075  10.973 -0.4722 -0.1737 -0.3904
    1Sil     Ob  180   2.629   3.012  10.871 -0.2299  0.4989 -0.2755
    1Sil     Ob  181   2.067   2.984  11.683  0.3491 -0.0336 -0.1879
    1Sil     Ob  182   2.346   2.917  11.304 -0.1957  0.0625  0.1086
    1Sil     Ob  183   2.043   3.260  11.221 -0.5360  0.3048 -0.1578
    1Sil     Ob  184   2.512   3.191  11.561 -0.4904 -0.4785 -0.2190
    1Sil     Ob  185   2.156   3.109  10.850  0.1396  0.1582 -0.0165
    1Sil     Ob  186   2.249   2.950  12.910  0.2881 -0.0934  0.0361
    1Sil     Ob  187   2.776   2.910  12.168 -0.1803 -0.1642 -0.2348
    1Sil     Ob  188   2.485   2.855  12.612  0.4038 -0.3422  0.0755
    1Sil     Ob  189   2.095   3.285  12.556  0.1885  0.3349 -0.1186
    1Sil     Ob  190   2.631   3.316  12.935  0.2938 -0.3655 -0.2924
    1Sil     Ob  191   2.410   3.275  12.184 -0.2739 -0.3364 -0.6851
    1Sil     Ob  192   2.374   3.253  13.031 -0.1879 -0.2549  0.7113
    1Sil     Ob  193   2.171   3.215  12.224 -0.0372  0.4338  0.6024
    1Sil     Ob  194   2.656   3.153  12.602  0.4192  0.3136 -0.0104
    1Sil     Ob  195   2.190   3.012  12.684  0.0716 -0.1290  0.0317
    1Sil     Ob  196   2.754   2.971  11.935 -0.7595  0.0399  0.4982
    1Sil     Ob  197   2.487   2.952  12.349  0.3254 -0.5840 -0.8979
    1Sil     Ob  198   2.186   3.196  12.863  0.2147  0.3956  0.0886
    1Sil     Ob  199   2.419   3.100  12.550  0.4508  0.4031  0.1900
    1Sil     Ob  200   2.057   3.036  12.486 -0.2959  0.1700  0.5472
    1Sil     Ob  201   2.608   3.072  13.027  0.0338  0.0819 -0.5310
    1Sil     Ob  202   2.324   3.031  12.157  0.6497  0.2247  0.5368
    1Sil     Ob  203   2.548   2.971  12.092  0.5117  0.0996  0.6299
    1Sil     Ob  204   2.010   3.001  12.864 -0.6316 -0.2914 -0.0430
    1Sil     Ob  205   2.270   2.920  12.474 -0.6675 -0.1593 -0.1665
    1Sil     Ob  206   1.949   3.227  12.359  0.0161  0.1042  0.4373
    1Sil     Ob  207   2.484   3.162  12.802 -0.6005 -0.0422 -0.0395
    1Sil     Ob  208   2.258   3.214  11.992  0.1147 -0.3360 -0.1780
    1Sil     Ob  209   2.284   3.396  11.804  0.1578 -0.4630 -0.0137
    1Sil     Ob  210   2.836   3.439  11.042  0.2246  0.3836  0.0806
    1Sil     Ob  211   2.565   3.335  11.354 -0.1105 -0.1076 -0.0211
    1Sil     Ob  212   2.167   3.788  11.413 -1.0913 -0.2122 -0.3703
    1Sil     Ob  213   2.692   3.754  11.756 -0.3984 -0.2370  0.6053
    1Sil     Ob  214   2.382   3.812  10.870 -0.2977 -0.0744 -0.2929
    1Sil     Ob  215   2.457   3.698  11.816 -0.1456  0.0713 -0.1557
    1Sil     Ob  216   2.215   3.739  11.034  0.1996 -0.0436 -0.2181
    1Sil     Ob  217   2.742   3.655  11.434  0.0218  0.0713 -0.0762
    1Sil     Ob  218   2.271   3.469  11.550  0.2157 -0.0133  0.2509
    1Sil     Ob  219   2.524   3.404  11.098 -0.2534  0.2430  0.5091
    1Sil     Ob  220   2.227   3.648  11.729  0.3808  0.2844 -1.0726
    1Sil     Ob  221   2.520   3.584  11.317 -0.2356  0.3763  0.0289
    1Sil     Ob  222   2.142   3.532  11.344 -0.6084 -0.3122  0.4607
    1Sil     Ob  223   2.606   3.509  11.748  0.0589  0.0262 -0.6133
    1Sil     Ob  224   2.402   3.567  10.965 -0.0585  0.2305  0.0067
    1Sil     Ob  225   2.641   3.484  10.867  0.0411 -0.3929 -0.2371
    1Sil     Ob  226   2.064   3.441  11.691 -0.2296 -0.0840  0.0923
    1Sil     Ob  227   2.346   3.401  11.296  0.4155  0.2764 -0.9690
    1Sil     Ob  228   2.030   3.738  11.213 -0.3283  0.1903  0.0151
    1Sil     Ob  229   2.530   3.679  11.573 -0.0828 -0.1622 -0.6133
    1Sil     Ob  230   2.155   3.600  10.842  0.1410 -0.5781 -0.2350
    1Sil     Ob  231   2.250   3.444  12.899 -0.1271  0.0777  0.5634
    1Sil     Ob  232   2.773   3.390  12.182  0.2739 -0.0556  0.7352
    1Sil     Ob  233   2.496   3.346  12.587 -0.6394  0.2040  0.0303
    1Sil     Ob  234   2.096   3.778  12.561 -0.0004  0.5716 -0.1772
    1Sil     Ob  235   2.610   3.812  12.947 -0.2779 -0.2899  0.0039
    1Sil     Ob  236   2.404   3.767  12.173 -0.0913  0.0897  0.1861
    1Sil     Ob  237   2.366   3.738  13.035 -0.1056 -0.0706  0.8530
    1Sil     Ob  238   2.164   3.698  12.211 -0.2166  0.1087  0.0951
    1Sil     Ob  239   2.661   3.644  12.596 -0.5184  0.2763  0.0510
    1Sil     Ob  240   2.191   3.503  12.670 -0.1393  0.3488 -0.6436
    1Sil     Ob  241   2.774   3.434  11.926  0.5979  0.0425  0.5097
    1Sil     Ob  242   2.482   3.467  12.336 -0.4369  0.1241 -0.1683
    1Sil     Ob  243   2.177   3.686  12.851 -0.4759 -0.1688 -0.3574
    1Sil     Ob  244   2.434   3.589  12.557  0.4531 -0.3729 -0.2381
    1Sil     Ob  245   2.053   3.534  12.480 -0.9314  0.1617 -0.0442
    1Sil     Ob  246   2.612   3.558  13.035  0.0884 -0.3656  0.1387
    1Sil     Ob  247   2.332   3.524  12.133 -0.5509  0.0977  0.7422
    1Sil     Ob  248   2.568   3.449  12.079  0.0506  0.3375 -0.0488
    1Sil     Ob  249   2.007   3.492  12.853 -0.1056 -0.1087  0.2580
    1Sil     Ob  250   2.275   3.422  12.463  0.3204 -0.0291  1.7526
    1Sil     Ob  251   1.955   3.723  12.354 -0.0936  0.0308  0.2405
    1Sil     Ob  252   2.487   3.650  12.803  0.4503 -0.4045 -0.6562
    1Sil     Ob  253   2.258   3.696  11.967  0.0312 -0.2369 -0.7868
    1Sil     Ob  254   2.276   3.879  11.796  0.2942 -0.0108 -0.2841
    1Sil     Ob  255   2.824   3.924  11.038  0.6127 -0.6814  0.1807
    1Sil     Ob  256   2.579   3.827  11.360 -0.2472 -0.3916  0.2533
    1Sil     Ob  257   2.176   4.258  11.416 -0.7515  0.5308 -0.2351
    1Sil     Ob  258   2.675   4.244  11.753 -0.1453  0.1376  0.4743
    1Sil     Ob  259   2.392   4.296  10.870 -0.0880 -0.5208  0.0222
    1Sil     Ob  260   2.446   4.173  11.817 -0.3219 -0.0669 -0.0779
    1Sil     Ob  261   2.222   4.226  11.040  0.0554 -0.3223  0.7050
    1Sil     Ob  262   2.729   4.149  11.432 -0.6484 -0.4845  0.0717
    1Sil     Ob  263   2.278   3.962  11.540 -0.0505  0.1114  0.0050
    1Sil     Ob  264   2.526   3.895  11.103  0.3170 -0.4351  0.2141
    1Sil     Ob  265   2.216   4.122  11.735  0.1689 -0.2897 -0.0336
    1Sil     Ob  266   2.525   4.076  11.300 -0.6881  0.2722  0.1734
    1Sil     Ob  267   2.140   4.023  11.331  0.6371 -0.8378 -0.4972
    1Sil     Ob  268   2.608   3.990  11.731 -0.1982  0.5792 -0.1490
    1Sil     Ob  269   2.390   4.057  10.967 -0.0589 -0.0732  0.5253
    1Sil     Ob  270   2.629   3.974  10.866 -0.1417 -0.3258 -0.3453
    1Sil     Ob  271   2.056   3.947  11.676  0.0807  0.1411 -0.0688
    1Sil     Ob  272   2.351   3.895  11.294  0.2372 -0.5083 -0.1755
    1Sil     Ob  273   2.032   4.227  11.216  0.5515 -0.1891 -0.7555
    1Sil     Ob  274   2.515   4.154  11.561 -0.0200  0.4482 -0.1834
    1Sil     Ob  275   2.155   4.088  10.849 -0.0270  0.1980  0.5167
    1Sil     Ob  276   2.245   3.924  12.914  0.0979 -0.0949 -0.6174
    1Sil     Ob  277   2.794   3.877  12.156  0.2038  0.5815  0.0939
    1Sil     Ob  278   2.502   3.828  12.589 -1.0372 -0.3168 -0.2788
    1Sil     Ob  279   2.087   4.270  12.568  0.1347  0.2139  0.2960
    1Sil     Ob  280   2.601   4.304  12.929 -0.0009  0.3712 -0.1143
    1Sil     Ob  281   2.407   4.248  12.166 -0.0307  0.1541 -0.3293
    1Sil     Ob  282   2.363   4.211  13.025  0.1457  0.0757  0.0661
    1Sil     Ob  283   2.178   4.199  12.220  0.1773  0.0223 -0.0151
    1Sil     Ob  284   2.666   4.127  12.605  0.4996 -0.2444  0.1341
    1Sil     Ob  285   2.202   3.984  12.679  0.5404 -0.3606  0.0205
    1Sil     Ob  286   2.774   3.945  11.913 -0.4482  0.5383 -0.3997
    1Sil     Ob  287   2.497   3.939  12.320 -0.2122 -0.1436 -0.6600
    1Sil     Ob  288   2.168   4.168  12.867  0.1953  0.1334  0.1396
    1Sil     Ob  289   2.445   4.077  12.544 -0.6358  0.6211  0.6539
    1Sil     Ob  290   2.066   4.028  12.475 -0.0775 -0.5040  1.1112
    1Sil     Ob  291   2.619   4.060  13.040 -0.5979 -0.2342 -0.1723
    1Sil     Ob  292   2.328   4.005  12.139  0.2001  0.0033 -0.0820
    1Sil     Ob  293   2.566   3.917  12.072 -0.0999 -0.5811  0.1508
    1Sil     Ob  294   2.004   3.974  12.858  0.2903  0.1089  0.1296
    1Sil     Ob  295   2.290   3.898  12.468  0.1455 -0.8033 -0.4189
    1Sil     Ob  296   1.955   4.212  12.356  0.5313  0.1599  0.3506
    1Sil     Ob  297   2.489   4.131  12.800 -0.0271  0.1782 -0.2586
    1Sil     Ob  298   2.251   4.179  11.974  0.5721  0.8443  0.1019
    1Sil     Ob  299   2.292   4.363  11.788 -0.2822 -0.0804  0.2091
    1Sil     Ob  300   2.826   4.422  11.034  0.1029  0.2465  0.4741
    1Sil     Ob  301   2.565   4.318  11.363  0.5357  0.0003  0.0995
    1Sil     Ob  302   2.159   1.333  11.428  0.8051 -0.0604  0.3092
    1Sil     Ob  303   2.684   1.328  11.748  0.1016 -0.1008  0.2390
    1Sil     Ob  304   2.385   1.366  10.866  0.3967 -0.3027  0.1994
    1Sil     Ob  305   2.456   1.276  11.818  0.1280  0.2168  0.4194
    1Sil     Ob  306   2.223   1.296  11.033 -0.7073 -0.7337  0.4224
    1Sil     Ob  307   2.727   1.232  11.428 -0.7363  0.4382 -0.0875
    1Sil     Ob  308   2.288   4.442  11.542  0.1212 -0.5487 -0.1437
    1Sil     Ob  309   2.527   4.376  11.105  0.3369  0.5112  0.8376
    1Sil     Ob  310   2.233   4.611  11.725  0.1683  0.2133 -0.0902
    1Sil     Ob  311   2.522   4.563  11.307  0.1549  0.4370 -0.2234
    1Sil     Ob  312   2.151   1.095  11.338  0.0418  0.0655 -0.0820
    1Sil     Ob  313   2.608   1.083  11.727 -0.3588  0.0566 -0.1941
    1Sil     Ob  314   2.396   1.133  10.959  0.3798  0.5503  0.0606
    1Sil     Ob  315   2.644   4.469  10.870 -0.1672 -0.3511  0.6566
    1Sil     Ob  316   2.070   4.427  11.680 -0.0986 -0.0426 -0.0445
    1Sil     Ob  317   2.352   4.381  11.285  0.3384  0.4813 -0.6606
    1Sil     Ob  318   2.046   1.300  11.221  0.1670  0.4361 -0.2280
    1Sil     Ob  319   2.513   1.248  11.561 -0.6967 -0.2384 -0.3529
    1Sil     Ob  320   2.153   1.164  10.837  0.3315 -1.2589  0.1714
    1Sil     Ob  321   2.245   4.404  12.903 -0.8389  0.3372 -0.2006
    1Sil     Ob  322   2.793   4.364  12.158  0.0351  0.1562 -0.2803
    1Sil     Ob  323   2.500   4.320  12.593 -0.3578 -0.3260 -0.1259
    1Sil     Ob  324   2.085   1.339  12.561 -0.1905 -0.3426 -0.0076
    1Sil     Ob  325   2.609   1.372  12.937 -0.4593  0.1179 -0.0383
    1Sil     Ob  326   2.415   1.329  12.142  0.9178  0.8132  0.3748
    1Sil     Ob  327   2.367   1.295  13.034  0.5546  0.3715 -0.2149
    1Sil     Ob  328   2.175   1.270  12.211  0.0097  0.1855  0.3510
    1Sil     Ob  329   2.667   1.207  12.601 -0.4371  0.3867  0.1510
    1Sil     Ob  330   2.195   4.487  12.669  0.0916  0.1677 -0.0330
    1Sil     Ob  331   2.770   4.428  11.922 -0.3769  0.3664 -0.3357
    1Sil     Ob  332   2.498   4.415  12.334 -0.1663 -0.0692 -0.1062
    1Sil     Ob  333   2.172   4.652  12.861  0.4252  0.2215 -0.2284
    1Sil     Ob  334   2.444   4.562  12.540  0.1841  0.7352  0.2514
    1Sil     Ob  335   2.070   1.102  12.462  0.4133  0.1240 -0.1301
    1Sil     Ob  336   2.612   1.123  13.031 -0.4635  0.0406  0.2121
    1Sil     Ob  337   2.334   1.085  12.150 -1.2840 -0.6040 -0.1994
    1Sil     Ob  338   2.564   4.430  12.078  0.2208  0.7866 -0.0483
    1Sil     Ob  339   2.005   4.464  12.857  0.1681  0.1303  0.4437
    1Sil     Ob  340   2.291   4.380  12.464 -0.3969 -0.4048 -0.2481
    1Sil     Ob  341   1.957   1.288  12.344 -0.0295  0.2687 -0.4281
    1Sil     Ob  342   2.483   1.217  12.797 -0.2460 -0.2454  0.2803
    1Sil     Ob  343   2.246   1.255  11.967 -0.7734  0.0096  0.2433
    1Sil     Ob  344   3.067   1.444  11.792  0.5602 -1.0535 -0.5489
    1Sil     Ob  345   3.607   1.490  11.040 -0.4106 -0.4797 -0.3284
    1Sil     Ob  346   3.349   1.401  11.359 -0.3398 -0.3018  0.0791
    1Sil     Ob  347   2.948   1.824  11.420 -0.0966 -0.1074 -0.3066
    1Sil     Ob  348   3.448   1.808  11.760  0.4358  0.2567  0.4084
    1Sil     Ob  349   3.158   1.857  10.865 -0.1925  0.2410 -0.5249
    1Sil     Ob  350   3.216   1.741  11.820 -0.0038  0.3228  0.7568
    1Sil     Ob  351   2.997   1.779  11.034 -0.4992 -0.2273 -0.2242
    1Sil     Ob  352   3.505   1.717  11.431  0.3895  0.2402 -0.4583
    1Sil     Ob  353   3.061   1.525  11.537  0.5468 -0.0287 -0.3343
    1Sil     Ob  354   3.307   1.448  11.099  0.2156 -0.1276 -0.0156
    1Sil     Ob  355   3.004   1.690  11.723  0.2752 -0.6541 -0.5458
    1Sil     Ob  356   2.763   1.735  10.982  0.6385 -0.2158  0.7692
    1Sil     Ob  357   3.300   1.638  11.303 -0.0215 -0.6327 -0.2357
    1Sil     Ob  358   2.928   1.580  11.335  0.1750 -0.3227  0.0961
    1Sil     Ob  359   3.378   1.562  11.733 -0.3089  1.1269 -0.4665
    1Sil     Ob  360   3.178   1.613  10.952 -0.4669 -0.5788 -0.3632
    1Sil     Ob  361   3.422   1.534  10.871 -0.2668  1.1893 -0.2379
    1Sil     Ob  362   2.849   1.499  11.674 -0.4098 -0.3754  0.7185
    1Sil     Ob  363   3.130   1.467  11.286 -0.3136  0.7913  0.1928
    1Sil     Ob  364   2.823   1.794  11.212 -0.4635 -0.2006 -0.1435
    1Sil     Ob  365   3.290   1.734  11.559  0.3881  0.7332  0.4917
    1Sil     Ob  366   2.930   1.643  10.844  0.0382 -0.2907 -0.2527
    1Sil     Ob  367   3.030   1.485  12.911 -0.5042 -0.1317 -0.0944
    1Sil     Ob  368   3.539   1.443  12.169 -0.2684  0.0996  0.2402
    1Sil     Ob  369   3.261   1.402  12.592  0.8013  0.0989 -0.0197
    1Sil     Ob  370   2.864   1.828  12.560 -0.5391  0.2539  0.5497
    1Sil     Ob  371   3.371   1.866  12.933  0.0753 -0.1268  0.1473
    1Sil     Ob  372   3.173   1.811  12.163  0.0292 -0.5854  0.0248
    1Sil     Ob  373   3.147   1.774  13.033 -0.5548 -0.0311 -0.3832
    1Sil     Ob  374   2.931   1.756  12.220  0.1856 -0.3346 -0.0002
    1Sil     Ob  375   3.426   1.701  12.604  0.1062 -0.5084  0.3332
    1Sil     Ob  376   2.959   1.543  12.692 -0.3432 -0.4252  0.5960
    1Sil     Ob  377   3.532   1.498  11.920 -0.2687  0.3810 -0.2032
    1Sil     Ob  378   3.258   1.496  12.336 -0.7534 -0.6188 -0.2889
    1Sil     Ob  379   2.960   1.731  12.872 -0.6943  0.5644  0.0359
    1Sil     Ob  380   2.722   1.697  12.104  0.2462  0.4544 -0.3495
    1Sil     Ob  381   3.201   1.644  12.548 -0.2990  0.6628  0.4065
    1Sil     Ob  382   2.841   1.587  12.477 -0.6002 -0.6796 -0.0865
    1Sil     Ob  383   3.399   1.623  13.021  0.0495  0.2527 -0.1767
    1Sil     Ob  384   3.093   1.556  12.150  0.7366  0.3260  0.3087
    1Sil     Ob  385   3.322   1.497  12.067 -0.0010  0.4599 -0.0398
    1Sil     Ob  386   2.784   1.540  12.869 -0.0331 -0.4962 -0.6138
    1Sil     Ob  387   3.046   1.460  12.473  0.6401 -0.0274  0.0709
    1Sil     Ob  388   2.721   1.763  12.358 -0.1997 -0.4017  0.6902
    1Sil     Ob  389   3.260   1.696  12.802  0.2193  0.2060  0.3251
    1Sil     Ob  390   3.011   1.746  11.976  0.1269  0.3815  0.6771
    1Sil     Ob  391   3.057   1.940  11.790  0.0784 -0.2953 -0.8569
    1Sil     Ob  392   3.602   1.981  11.035  0.8462 -0.1277  0.7216
    1Sil     Ob  393   3.339   1.891  11.358 -0.6499  1.1530  0.1160
    1Sil     Ob  394   2.941   2.306  11.426  0.0529  0.0834 -0.1164
    1Sil     Ob  395   3.451   2.291  11.748 -0.3843  0.1002 -0.0452
    1Sil     Ob  396   3.166   2.349  10.879 -0.2205 -0.4306  0.3084
    1Sil     Ob  397   3.225   2.227  11.810 -0.2342 -0.8526  0.7876
    1Sil     Ob  398   2.987   2.278  11.046 -0.6601  0.2977 -0.1391
    1Sil     Ob  399   3.502   2.205  11.424  0.0461 -0.5435 -0.4145
    1Sil     Ob  400   3.051   2.016  11.540 -0.7324  0.3060  0.4186
    1Sil     Ob  401   3.287   1.935  11.100  0.6930 -0.4412  1.0875
    1Sil     Ob  402   2.994   2.184  11.730 -0.3402 -0.2907  0.1603
    1Sil     Ob  403   2.749   2.218  11.006 -0.2910 -0.2624  0.0359
    1Sil     Ob  404   3.298   2.132  11.294  0.4473  0.3062  0.3411
    1Sil     Ob  405   2.911   2.067  11.336  0.3437  0.4078 -0.1398
    1Sil     Ob  406   3.380   2.047  11.719  0.6493 -0.2555 -0.1891
    1Sil     Ob  407   3.165   2.099  10.969 -0.4051  0.5349 -0.7835
    1Sil     Ob  408   3.405   2.014  10.876  0.0652 -0.0629  0.0003
    1Sil     Ob  409   2.835   1.990  11.677 -0.5726 -0.7875 -0.0054
    1Sil     Ob  410   3.118   1.944  11.296  0.4592  0.4050 -0.4849
    1Sil     Ob  411   2.818   2.284  11.231 -0.1438  0.3754 -0.1261
    1Sil     Ob  412   3.286   2.219  11.551 -0.1399  1.0518  0.3780
    1Sil     Ob  413   2.921   2.148  10.850  0.4818 -0.7674  0.5859
    1Sil     Ob  414   3.022   1.971  12.909 -0.1276  0.5688 -0.1063
    1Sil     Ob  415   3.557   1.920  12.154 -0.3088 -0.0839 -0.4629
    1Sil     Ob  416   3.267   1.889  12.601  0.0674 -0.1608 -0.3175
    1Sil     Ob  417   2.870   2.323  12.560  0.4804 -0.5004 -0.2592
    1Sil     Ob  418   3.387   2.341  12.937  0.0050  0.1035 -0.8388
    1Sil     Ob  419   3.178   2.297  12.182 -0.1604 -0.3267  0.4250
    1Sil     Ob  420   3.140   2.274  13.041 -0.3234 -0.4498  0.7099
    1Sil     Ob  421   2.935   2.234  12.225 -0.1949  1.0209  0.0239
    1Sil     Ob  422   3.420   2.196  12.611  0.0433 -0.0248  0.5597
    1Sil     Ob  423   2.977   2.032  12.687 -0.0244  0.0030 -0.0469
    1Sil     Ob  424   3.529   2.006  11.912 -0.9123 -0.1473 -0.1743
    1Sil     Ob  425   3.265   1.987  12.335 -0.0257 -0.0206 -0.1288
    1Sil     Ob  426   2.947   2.223  12.863 -0.1722 -0.0129 -0.4154
    1Sil     Ob  427   2.724   2.180  12.110  0.2558 -0.0303  0.1746
    1Sil     Ob  428   3.210   2.141  12.542 -0.4083  0.5581  0.1284
    1Sil     Ob  429   2.835   2.073  12.496  0.1635  0.2606  0.4833
    1Sil     Ob  430   3.387   2.107  13.033  0.2351 -0.0144  0.0930
    1Sil     Ob  431   3.106   2.058  12.137  0.3280 -0.4716  0.0669
    1Sil     Ob  432   3.326   1.988  12.075 -0.3305 -0.4579 -0.3142
    1Sil     Ob  433   2.782   2.022  12.858 -0.0169  0.2513 -0.7625
    1Sil     Ob  434   3.056   1.956  12.469 -0.3499 -0.1366  0.0405
    1Sil     Ob  435   2.718   2.247  12.360  0.3402 -0.1012  0.2559
    1Sil     Ob  436   3.252   2.193  12.808  0.1897 -0.0109  0.4459
    1Sil     Ob  437   3.028   2.244  11.976  0.4599  0.3148 -0.2485
    1Sil     Ob  438   3.060   2.419  11.798 -0.6251  0.1774 -0.3422
    1Sil     Ob  439   3.597   2.464  11.037  0.0427 -0.0581 -0.2712
    1Sil     Ob  440   3.339   2.379  11.360 -0.0925  0.0907 -0.5880
    1Sil     Ob  441   2.958   2.785  11.435 -0.0637 -1.0236 -0.3297
    1Sil     Ob  442   3.463   2.786  11.759 -0.4801  0.4076  0.0970
    1Sil     Ob  443   3.164   2.827  10.874  0.0255 -0.0274 -0.2922
    1Sil     Ob  444   3.238   2.730  11.823 -0.1056 -0.2781  0.0409
    1Sil     Ob  445   2.996   2.748  11.058  0.6056  0.0753  0.3561
    1Sil     Ob  446   3.511   2.700  11.438 -0.6799  0.3654  0.2873
    1Sil     Ob  447   3.054   2.485  11.550  0.3559 -0.2756  0.3424
    1Sil     Ob  448   3.282   2.434  11.103  0.1403 -0.0563 -0.3341
    1Sil     Ob  449   3.014   2.658  11.743  0.3899 -0.5906  0.6855
    1Sil     Ob  450   2.755   2.699  10.996 -0.1371  0.0844 -0.1052
    1Sil     Ob  451   3.293   2.618  11.310 -0.5377 -0.1650 -0.4562
    1Sil     Ob  452   2.898   2.542  11.354 -0.9257 -0.0817 -0.4262
    1Sil     Ob  453   3.383   2.543  11.725 -0.2367  0.0227  0.0964
    1Sil     Ob  454   3.172   2.597  10.975 -0.0203  0.0789  0.1198
    1Sil     Ob  455   3.405   2.513  10.873 -0.2333 -0.0835 -0.8897
    1Sil     Ob  456   2.851   2.476  11.691  0.6620 -0.1124  0.4726
    1Sil     Ob  457   3.113   2.438  11.302  0.0219  0.1016 -0.2787
    1Sil     Ob  458   2.807   2.769  11.232  0.2779 -0.5859  0.0646
    1Sil     Ob  459   3.296   2.719  11.564 -0.2378  0.3436  0.5517
    1Sil     Ob  460   2.929   2.617  10.856 -0.3416  0.0021 -0.1445
    1Sil     Ob  461   3.017   2.463  12.905 -0.7309 -0.1703 -0.1391
    1Sil     Ob  462   3.546   2.415  12.177  0.2465 -0.7573 -0.0789
    1Sil     Ob  463   3.274   2.380  12.601  0.0474  0.0427  0.5677
    1Sil     Ob  464   2.867   2.800  12.562 -0.3246  0.0782  0.0553
    1Sil     Ob  465   3.386   2.837  12.942 -0.1206 -0.5335  0.2533
    1Sil     Ob  466   3.189   2.782  12.180  0.2749  0.5007 -0.2697
    1Sil     Ob  467   3.144   2.765  13.038  0.0811  0.0683 -0.4688
    1Sil     Ob  468   2.942   2.728  12.218  0.0522  0.1890 -0.1621
    1Sil     Ob  469   3.442   2.685  12.614 -0.1651  0.2329 -0.6253
    1Sil     Ob  470   2.964   2.543  12.679 -0.3236 -0.5451 -0.9236
    1Sil     Ob  471   3.528   2.464  11.929 -0.5373 -0.5259  0.9121
    1Sil     Ob  472   3.271   2.477  12.339 -0.1520 -0.8401 -0.5240
    1Sil     Ob  473   2.950   2.719  12.863  0.0200  0.1274 -0.3108
    1Sil     Ob  474   2.715   2.665  12.112 -0.1797 -0.2036  0.2805
    1Sil     Ob  475   3.211   2.631  12.555 -0.0389 -0.1095  0.0171
    1Sil     Ob  476   2.835   2.557  12.467  0.1642 -0.2823 -0.5479
    1Sil     Ob  477   3.388   2.587  13.032  0.2490 -0.1816  0.0183
    1Sil     Ob  478   3.103   2.541  12.164 -0.2477  0.1053  0.1845
    1Sil     Ob  479   3.328   2.484  12.083 -0.0109 -0.2388 -0.3700
    1Sil     Ob  480   2.782   2.516  12.856 -0.3295 -0.5820  0.0456
    1Sil     Ob  481   3.061   2.449  12.473 -0.0949 -0.1568  0.2878
    1Sil     Ob  482   2.722   2.753  12.353  0.3216  0.1053 -0.5279
    1Sil     Ob  483   3.260   2.672  12.812 -0.4112  0.1141  0.5002
    1Sil     Ob  484   3.025   2.722  11.993 -0.1987  0.3718  0.1961
    1Sil     Ob  485   3.059   2.906  11.802  0.4347  0.0577 -0.1622
    1Sil     Ob  486   3.615   2.947  11.051  0.2481 -0.0018  0.2430
    1Sil     Ob  487   3.349   2.866  11.359  0.4205 -0.3116 -0.3470
    1Sil     Ob  488   2.949   3.278  11.421 -0.0518  0.2358  0.5799
    1Sil     Ob  489   3.452   3.261  11.767  0.5389  0.2672  0.1681
    1Sil     Ob  490   3.165   3.311  10.884  0.7367 -0.2921 -0.3948
    1Sil     Ob  491   3.223   3.193  11.817  0.2506 -0.1662  0.6415
    1Sil     Ob  492   3.001   3.238  11.047 -0.1975  0.1021 -0.6407
    1Sil     Ob  493   3.495   3.171  11.431 -0.0710 -0.0212 -0.7832
    1Sil     Ob  494   3.056   2.974  11.554 -0.1627  0.9248  0.1184
    1Sil     Ob  495   3.302   2.910  11.102  0.2130  0.5457 -0.4758
    1Sil     Ob  496   2.998   3.141  11.736  0.7113  0.1103 -0.1616
    1Sil     Ob  497   2.759   3.192  11.002 -0.3820  0.3445 -0.1052
    1Sil     Ob  498   3.282   3.107  11.312 -0.2060 -0.2145 -0.2696
    1Sil     Ob  499   2.916   3.034  11.344 -0.1723  0.2112  0.3814
    1Sil     Ob  500   3.380   3.022  11.729  0.1881 -0.0731 -0.1841
    1Sil     Ob  501   3.173   3.063  10.976  0.0183 -0.0564  0.3438
    1Sil     Ob  502   3.418   2.992  10.878  0.0754  0.0015  0.4798
    1Sil     Ob  503   2.844   2.955  11.696  0.2692  0.3493  0.0352
    1Sil     Ob  504   3.128   2.909  11.305  0.0949  0.6400 -0.0325
    1Sil     Ob  505   2.815   3.247  11.227 -0.1779 -0.1271  0.2706
    1Sil     Ob  506   3.299   3.191  11.569 -0.4026  0.8438 -0.3778
    1Sil     Ob  507   2.932   3.104  10.854  0.0858  0.0393  0.4765
    1Sil     Ob  508   3.016   2.966  12.920 -0.2528  0.0669 -0.4617
    1Sil     Ob  509   3.561   2.905  12.174 -0.2092 -0.1349 -0.1455
    1Sil     Ob  510   3.264   2.867  12.611  0.2053  0.0919  0.1663
    1Sil     Ob  511   2.864   3.297  12.570  0.8855 -0.5653 -0.3065
    1Sil     Ob  512   3.391   3.323  12.944 -0.4075  1.1241  0.4671
    1Sil     Ob  513   3.178   3.274  12.172  0.0206 -0.4619  0.1598
    1Sil     Ob  514   3.146   3.248  13.037 -0.2513  0.2630  0.3586
    1Sil     Ob  515   2.942   3.215  12.220 -0.3767 -0.0477  0.0010
    1Sil     Ob  516   3.439   3.171  12.601 -0.5350  0.1396 -0.4483
    1Sil     Ob  517   2.968   3.018  12.690 -0.0202  0.6969 -0.0273
    1Sil     Ob  518   3.532   2.967  11.930  0.3336  0.0391 -0.1324
    1Sil     Ob  519   3.274   2.950  12.354 -0.4638  0.5143  0.0771
    1Sil     Ob  520   2.952   3.203  12.878 -0.0708  0.5171 -0.2176
    1Sil     Ob  521   2.719   3.153  12.112  0.4574  0.1315 -0.1615
    1Sil     Ob  522   3.209   3.106  12.563  0.5596 -0.2101 -0.0038
    1Sil     Ob  523   2.846   3.050  12.478  0.0241  0.7777 -0.9018
    1Sil     Ob  524   3.399   3.078  13.042 -0.4894 -0.0992  0.1020
    1Sil     Ob  525   3.102   3.025  12.159  0.3143  0.2272  0.6116
    1Sil     Ob  526   3.333   2.951  12.089 -0.3248  0.1340 -0.6993
    1Sil     Ob  527   2.778   3.001  12.862 -0.2411 -0.4626  0.7282
    1Sil     Ob  528   3.056   2.921  12.483  0.0650 -0.0289  0.2946
    1Sil     Ob  529   2.731   3.225  12.357 -0.0775  0.6973  0.2253
    1Sil     Ob  530   3.281   3.160  12.809  0.9882 -0.0062 -0.1119
    1Sil     Ob  531   3.018   3.200  11.974  0.1144 -0.4988  0.1085
    1Sil     Ob  532   3.056   3.387  11.781 -0.2166  0.1868  0.1243
    1Sil     Ob  533   3.604   3.437  11.030 -0.1743 -0.1852 -0.0395
    1Sil     Ob  534   3.349   3.346  11.365 -0.6466  0.3601  0.1425
    1Sil     Ob  535   2.956   3.764  11.407 -0.0350 -0.1877  0.0146
    1Sil     Ob  536   3.472   3.762  11.731 -0.0085 -0.2521 -0.5357
    1Sil     Ob  537   3.182   3.797  10.881 -0.0130 -0.0585 -0.0826
    1Sil     Ob  538   3.239   3.695  11.810  0.4351 -0.3505 -0.3265
    1Sil     Ob  539   2.999   3.733  11.040  0.4129  1.1997 -0.6117
    1Sil     Ob  540   3.517   3.655  11.425 -0.0190 -0.0877 -0.2730
    1Sil     Ob  541   3.057   3.474  11.536  0.5975 -0.4459 -0.1066
    1Sil     Ob  542   3.305   3.396  11.101 -0.0457 -0.9784 -0.0560
    1Sil     Ob  543   3.015   3.632  11.734  0.8327 -0.3209  0.3063
    1Sil     Ob  544   2.754   3.675  10.990  0.1057  0.2658  0.1192
    1Sil     Ob  545   3.309   3.586  11.294 -0.0514  0.2045 -0.1862
    1Sil     Ob  546   2.919   3.521  11.330  0.1028  0.0406 -0.5522
    1Sil     Ob  547   3.384   3.512  11.728  0.5008 -0.1322  0.3197
    1Sil     Ob  548   3.174   3.561  10.969 -0.0677 -0.1642  0.5040
    1Sil     Ob  549   3.406   3.474  10.866 -0.0490 -0.2695 -0.0896
    1Sil     Ob  550   2.843   3.464  11.680  0.2395  0.3611 -0.1333
    1Sil     Ob  551   3.127   3.411  11.296 -0.2358 -0.1695 -0.3019
    1Sil     Ob  552   2.817   3.728  11.219  0.6496 -0.4844 -0.1660
    1Sil     Ob  553   3.298   3.669  11.553  0.1630 -0.3099  0.0377
    1Sil     Ob  554   2.937   3.596  10.849  0.3516  0.5952 -0.0688
    1Sil     Ob  555   3.026   3.446  12.914  0.3500 -0.3683  0.2937
    1Sil     Ob  556   3.553   3.399  12.166 -0.6423  0.1954 -0.6851
    1Sil     Ob  557   3.276   3.349  12.593  0.0263 -0.4239 -0.0227
    1Sil     Ob  558   2.854   3.777  12.564 -0.0666  0.7417 -0.1690
    1Sil     Ob  559   3.387   3.807  12.939  0.0750 -0.2741 -0.4061
    1Sil     Ob  560   3.194   3.765  12.163  0.1750 -0.5172 -0.7932
    1Sil     Ob  561   3.147   3.734  13.042 -0.4292  0.1961 -0.1676
    1Sil     Ob  562   2.949   3.699  12.214  0.1287  0.0697 -0.4629
    1Sil     Ob  563   3.430   3.646  12.622  0.0519  0.0829  0.3650
    1Sil     Ob  564   2.973   3.506  12.688  0.0522 -0.1250  0.0519
    1Sil     Ob  565   3.537   3.455  11.921 -0.0118  0.0872  0.1053
    1Sil     Ob  566   3.274   3.431  12.338 -0.5366 -0.4173 -0.4872
    1Sil     Ob  567   2.953   3.693  12.873  0.2072  0.2674 -0.1748
    1Sil     Ob  568   2.741   3.632  12.095 -0.1658  0.0395  0.3859
    1Sil     Ob  569   3.213   3.591  12.548  0.3704  0.3313  0.5276
    1Sil     Ob  570   2.846   3.535  12.481 -0.2221  0.5021 -0.2013
    1Sil     Ob  571   3.397   3.569  13.028 -0.0609  0.1831 -0.0057
    1Sil     Ob  572   3.106   3.515  12.148  0.1524 -0.5305 -0.3957
    1Sil     Ob  573   3.327   3.463  12.077  0.3972  0.2154  0.0295
    1Sil     Ob  574   2.791   3.492  12.874  0.1426 -0.0427  0.0282
    1Sil     Ob  575   3.064   3.409  12.477 -0.2253 -0.1560 -0.0212
    1Sil     Ob  576   2.735   3.715  12.347 -1.0441  0.2465  0.6125
    1Sil     Ob  577   3.259   3.653  12.798  0.0184  1.0708 -0.4675
    1Sil     Ob  578   3.037   3.708  11.974 -0.0379 -0.0880  0.0600
    1Sil     Ob  579   3.077   3.874  11.773  0.2832 -0.2038 -0.2324
    1Sil     Ob  580   3.599   3.922  11.034 -0.0029 -0.1607  1.1192
    1Sil     Ob  581   3.352   3.829  11.364 -0.2922 -0.3653  0.0255
    1Sil     Ob  582   2.955   4.256  11.417  0.4076  0.3502 -0.4455
    1Sil     Ob  583   3.457   4.245  11.755  0.2267  0.1189 -0.0808
    1Sil     Ob  584   3.170   4.287  10.869 -0.1433 -0.0075  0.4950
    1Sil     Ob  585   3.233   4.178  11.824 -0.1357 -0.0680 -0.2316
    1Sil     Ob  586   3.007   4.217  11.041 -0.4393  0.1566 -0.1846
    1Sil     Ob  587   3.505   4.167  11.441 -0.3537  0.1800  0.6189
    1Sil     Ob  588   3.059   3.954  11.541 -0.1138  0.3244  0.1842
    1Sil     Ob  589   3.305   3.882  11.113 -0.4871  0.3891  0.6618
    1Sil     Ob  590   3.008   4.120  11.728  0.0116 -1.0498  0.0311
    1Sil     Ob  591   2.768   4.168  10.982  0.2536  0.2643  0.1236
    1Sil     Ob  592   3.308   4.077  11.311 -0.3287  0.0689 -0.1824
    1Sil     Ob  593   2.918   4.013  11.336  0.7224  0.2446  0.3176
    1Sil     Ob  594   3.383   4.001  11.739  0.3373 -0.1453 -0.4247
    1Sil     Ob  595   3.180   4.053  10.972 -0.0702  0.0145  0.0194
    1Sil     Ob  596   3.420   3.972  10.875 -0.4847 -0.2098  0.0277
    1Sil     Ob  597   2.847   3.934  11.670 -0.3188 -0.7550  0.3981
    1Sil     Ob  598   3.129   3.894  11.295  0.2108 -0.5727 -0.4388
    1Sil     Ob  599   2.820   4.222  11.211  0.2672  0.5957  0.0429
    1Sil     Ob  600   3.293   4.170  11.567  0.3233  0.5990  0.1746
    1Sil     Ob  601   2.939   4.081  10.845 -0.6149 -0.0703  0.3357
    1Sil     Ob  602   3.021   3.920  12.918  0.2901 -0.2535 -0.3632
    1Sil     Ob  603   3.545   3.876  12.183 -0.1798  0.1577 -0.0530
    1Sil     Ob  604   3.278   3.836  12.587  0.3721 -0.4756 -0.6198
    1Sil     Ob  605   2.876   4.264  12.566 -0.2218  0.2489  0.6499
    1Sil     Ob  606   3.383   4.300  12.935 -0.0316 -0.0035  0.4754
    1Sil     Ob  607   3.182   4.239  12.175 -0.0155 -0.0271 -0.4748
    1Sil     Ob  608   3.153   4.219  13.032  0.5193 -0.5671  0.4122
    1Sil     Ob  609   2.942   4.177  12.213  0.2105 -0.3620  0.3573
    1Sil     Ob  610   3.434   4.133  12.620 -0.0478  0.0345 -0.1555
    1Sil     Ob  611   2.966   3.979  12.688 -0.2478 -0.0191 -0.0080
    1Sil     Ob  612   3.544   3.926  11.924 -0.7112  0.4195 -0.0377
    1Sil     Ob  613   3.269   3.932  12.340  0.1154  0.0224  0.7692
    1Sil     Ob  614   2.948   4.170  12.865  0.3705  0.2750 -0.4243
    1Sil     Ob  615   2.722   4.112  12.109 -0.3136  0.6875 -0.2437
    1Sil     Ob  616   3.210   4.071  12.548  0.5103 -0.1930  0.1028
    1Sil     Ob  617   2.846   4.017  12.474  0.0324 -0.5463  0.4806
    1Sil     Ob  618   3.397   4.046  13.036  0.3016 -0.2864 -0.3372
    1Sil     Ob  619   3.111   4.000  12.142  0.8979  0.3076  0.2395
    1Sil     Ob  620   3.339   3.960  12.084  0.0471  0.4964 -0.7228
    1Sil     Ob  621   2.783   3.971  12.868  0.8037  0.2352  0.1777
    1Sil     Ob  622   3.070   3.880  12.480  0.3952  0.3017 -0.1295
    1Sil     Ob  623   2.733   4.202  12.358 -0.0442 -0.2399  0.2482
    1Sil     Ob  624   3.260   4.121  12.811 -0.9756 -0.0904 -0.3093
    1Sil     Ob  625   3.024   4.170  11.971  0.3938 -1.0639 -0.3606
    1Sil     Ob  626   3.064   4.362  11.795  0.2547 -0.1900  0.1124
    1Sil     Ob  627   3.610   4.404  11.035  0.0257  0.3586 -0.0598
    1Sil     Ob  628   3.338   4.321  11.358 -0.1242 -0.9163 -0.1173
    1Sil     Ob  629   2.961   1.332  11.407 -0.1013  0.0543  0.1567
    1Sil     Ob  630   3.455   1.321  11.746  0.0645 -0.1454 -0.2784
    1Sil     Ob  631   3.180   1.366  10.864  0.6266 -0.1240  0.0079
    1Sil     Ob  632   3.227   1.244  11.812 -0.1612 -0.5540  0.0547
    1Sil     Ob  633   3.004   4.709  11.037 -0.1488 -0.0098 -0.1478
    1Sil     Ob  634   3.493   1.217  11.434 -0.6071  0.2680  0.1591
    1Sil     Ob  635   3.055   4.443  11.544  0.0314  0.8517  0.1444
    1Sil     Ob  636   3.290   4.366  11.098 -0.6647  0.4607 -0.2916
    1Sil     Ob  637   3.000   4.606  11.733 -0.0184 -0.2734 -0.0488
    1Sil     Ob  638   2.763   4.658  10.983 -0.4024 -0.0128  0.2168
    1Sil     Ob  639   3.279   4.568  11.302 -0.6971 -0.0318 -0.0005
    1Sil     Ob  640   2.901   1.090  11.342 -0.1076  0.3929 -0.6825
    1Sil     Ob  641   3.388   1.081  11.716  0.7574  0.2090 -0.0338
    1Sil     Ob  642   3.183   4.531  10.959  0.3494 -0.1821  0.0629
    1Sil     Ob  643   3.416   4.458  10.873  0.4661  0.3533 -0.1551
    1Sil     Ob  644   2.843   4.411  11.681  0.5984  0.7209  0.5302
    1Sil     Ob  645   3.120   4.383  11.297 -0.2749  0.0268  0.6612
    1Sil     Ob  646   2.815   1.297  11.209  0.2514  0.1991  0.0826
    1Sil     Ob  647   3.286   1.254  11.560 -0.0629  0.6367 -0.4163
    1Sil     Ob  648   2.942   4.567  10.841  0.0110  0.1761 -0.7606
    1Sil     Ob  649   3.017   4.409  12.908 -0.2510  0.5331  0.3102
    1Sil     Ob  650   3.564   4.366  12.174 -0.3079  0.7711  0.3631
    1Sil     Ob  651   3.257   4.316  12.604  0.4851  0.3463  0.2301
    1Sil     Ob  652   2.865   1.341  12.565 -0.4448  0.3428  0.2729
    1Sil     Ob  653   3.382   1.381  12.931  0.3639 -0.1855  0.0278
    1Sil     Ob  654   3.173   1.321  12.171 -0.2204 -0.2750  0.1304
    1Sil     Ob  655   3.143   1.297  13.031 -0.3317 -0.2993  0.1892
    1Sil     Ob  656   2.935   1.258  12.223  0.2623 -0.0082 -0.1592
    1Sil     Ob  657   3.434   1.219  12.601  0.0584 -0.0950 -0.0867
    1Sil     Ob  658   2.974   4.478  12.683  0.1717  0.2083  0.1875
    1Sil     Ob  659   3.529   4.421  11.924  0.3785 -0.0722 -0.0085
    1Sil     Ob  660   3.274   4.408  12.337  0.1725  0.0093  0.0995
    1Sil     Ob  661   2.946   4.659  12.873 -0.1611  0.3141  0.0519
    1Sil     Ob  662   2.728   4.615  12.111 -0.2361 -0.1554 -0.0772
    1Sil     Ob  663   3.216   4.570  12.539 -0.5306 -0.2063 -0.1879
    1Sil     Ob  664   2.846   1.098  12.471  0.5863 -0.5640 -0.4526
    1Sil     Ob  665   3.389   1.130  13.030 -0.3196 -0.0391  0.3570
    1Sil     Ob  666   3.095   1.073  12.173 -0.6540  0.1316 -0.6330
    1Sil     Ob  667   3.325   4.423  12.083  0.0715 -0.0154  0.1747
    1Sil     Ob  668   2.781   4.456  12.854  0.2917  0.4330  0.2486
    1Sil     Ob  669   3.064   4.385  12.472 -0.2180 -0.0768  0.2589
    1Sil     Ob  670   2.715   1.280  12.356 -0.7272 -0.3744 -0.9653
    1Sil     Ob  671   3.265   1.205  12.803  0.0376 -0.2687  0.6879
    1Sil     Ob  672   3.026   1.247  11.980 -0.6508  0.4405 -0.1098
    1Sil     Ob  673   3.828   1.448  11.792  1.1651 -0.0046 -0.1922
    1Sil     Ob  674   4.385   1.490  11.032 -0.1265 -0.0405  0.2523
    1Sil     Ob  675   4.122   1.403  11.360  0.5749  0.0100  0.4054
    1Sil     Ob  676   3.734   1.825  11.411  0.6104 -0.2195  0.2374
    1Sil     Ob  677   4.233   1.806  11.754 -0.1604 -0.5776 -0.2647
    1Sil     Ob  678   3.941   1.857  10.870 -0.1072 -0.5154  0.1631
    1Sil     Ob  679   3.994   1.727  11.813 -0.0240 -0.0520 -0.1340
    1Sil     Ob  680   3.767   1.795  11.036  0.0043  0.2000 -0.6848
    1Sil     Ob  681   4.267   1.717  11.428  0.1972 -0.5220  0.3947
    1Sil     Ob  682   3.830   1.533  11.543 -0.1993  0.3660 -0.0981
    1Sil     Ob  683   4.067   1.453  11.100  0.8231  0.1113 -0.1510
    1Sil     Ob  684   3.771   1.692  11.735  0.2394  0.0725 -0.0530
    1Sil     Ob  685   3.533   1.732  10.987  0.0212 -0.6278 -0.0243
    1Sil     Ob  686   4.063   1.644  11.300 -0.1764  0.5627 -0.1358
    1Sil     Ob  687   3.685   1.583  11.340 -0.8813 -1.0558 -0.2517
    1Sil     Ob  688   4.157   1.569  11.720 -0.0304  0.1035 -0.1544
    1Sil     Ob  689   3.945   1.618  10.975 -0.1566 -0.3764  0.0699
    1Sil     Ob  690   4.192   1.543  10.865 -0.4453  0.4059 -0.2263
    1Sil     Ob  691   3.610   1.511  11.681  0.2136  0.3996  0.1778
    1Sil     Ob  692   3.898   1.452  11.300 -0.5794  0.4236  0.1170
    1Sil     Ob  693   3.587   1.798  11.210 -0.0376  0.0037 -0.0277
    1Sil     Ob  694   4.061   1.734  11.559  0.1626 -0.7847  0.0309
    1Sil     Ob  695   3.708   1.647  10.849 -0.5564 -0.0018 -0.7710
    1Sil     Ob  696   3.800   1.494  12.889  0.3279  0.3679 -0.7862
    1Sil     Ob  697   4.341   1.452  12.150  0.2251 -0.1491  0.1297
    1Sil     Ob  698   4.033   1.410  12.594  0.3242 -0.2382 -0.4947
    1Sil     Ob  699   3.644   1.811  12.563 -0.2040  0.6094 -1.0966
    1Sil     Ob  700   4.152   1.862  12.932 -0.2274  0.1617 -0.0630
    1Sil     Ob  701   3.952   1.810  12.173 -0.0144 -0.0371  0.6967
    1Sil     Ob  702   3.913   1.785  13.023 -0.0725 -0.4571 -0.1559
    1Sil     Ob  703   3.713   1.741  12.211 -0.3970 -0.0901  0.5146
    1Sil     Ob  704   4.206   1.708  12.606 -0.3472  1.3443 -0.2782
    1Sil     Ob  705   3.737   1.552  12.667  0.7430 -0.1560 -0.5223
    1Sil     Ob  706   4.304   1.500  11.907  0.2406 -0.0427  0.2202
    1Sil     Ob  707   4.040   1.495  12.329 -0.5034 -0.1541 -0.4875
    1Sil     Ob  708   3.719   1.736  12.851 -0.3614  0.2677 -0.0963
    1Sil     Ob  709   3.489   1.683  12.101  0.2078  0.1122 -0.2668
    1Sil     Ob  710   3.980   1.652  12.534  0.0307  0.2527  0.0097
    1Sil     Ob  711   3.598   1.578  12.469 -0.3686  0.2563  0.0246
    1Sil     Ob  712   4.165   1.619  13.021  0.0672  0.0711 -0.6358
    1Sil     Ob  713   3.882   1.561  12.138 -0.1416  0.5564  0.0037
    1Sil     Ob  714   4.111   1.495  12.076 -0.1965 -0.5714  0.4795
    1Sil     Ob  715   3.561   1.543  12.849  0.3145 -0.0726 -0.4047
    1Sil     Ob  716   3.826   1.472  12.453  0.7491  0.0473 -0.8208
    1Sil     Ob  717   3.505   1.771  12.348  0.2288  0.1755  0.7302
    1Sil     Ob  718   4.025   1.698  12.799  0.0061 -0.3535 -0.2386
    1Sil     Ob  719   3.798   1.748  11.976  0.2607  0.5766  0.7713
    1Sil     Ob  720   3.834   1.934  11.788  0.5931 -0.2716 -0.2400
    1Sil     Ob  721   4.368   1.975  11.037 -0.2254 -0.1064 -0.3546
    1Sil     Ob  722   4.128   1.884  11.352 -0.1078  0.1274  0.4909
    1Sil     Ob  723   3.731   2.299  11.417 -0.0993  0.3832  0.2619
    1Sil     Ob  724   4.244   2.298  11.744 -0.4701 -0.0084  0.1360
    1Sil     Ob  725   3.939   2.347  10.860 -0.2251 -0.3497  0.2129
    1Sil     Ob  726   4.001   2.238  11.818  0.2679  0.4281 -0.6731
    1Sil     Ob  727   3.769   2.280  11.027 -0.2688 -0.3147  0.2724
    1Sil     Ob  728   4.282   2.193  11.422  0.3165 -0.3882 -0.0822
    1Sil     Ob  729   3.832   2.010  11.538  0.2309 -0.1405  0.5792
    1Sil     Ob  730   4.071   1.949  11.096 -0.0952  0.0870 -0.7755
    1Sil     Ob  731   3.770   2.170  11.727  0.3734  0.6502 -0.6433
    1Sil     Ob  732   3.523   2.219  10.996 -0.1798 -0.4120 -0.3705
    1Sil     Ob  733   4.074   2.129  11.309 -0.2778 -0.0922 -1.0190
    1Sil     Ob  734   3.679   2.069  11.339  0.4350  0.5273  0.4611
    1Sil     Ob  735   4.159   2.062  11.733 -0.1424  0.9890 -0.2634
    1Sil     Ob  736   3.952   2.110  10.957  0.4311 -0.1227  0.2588
    1Sil     Ob  737   4.185   2.027  10.867 -0.5967 -0.0820  0.7048
    1Sil     Ob  738   3.612   1.988  11.673  0.6940  0.4631 -0.3662
    1Sil     Ob  739   3.901   1.948  11.285 -0.4551  0.7921  0.3983
    1Sil     Ob  740   3.591   2.284  11.216 -0.1107 -0.0545 -0.1050
    1Sil     Ob  741   4.069   2.228  11.563  0.5341  0.4780  0.0588
    1Sil     Ob  742   3.699   2.139  10.844  0.5613 -0.1806 -0.4831
    1Sil     Ob  743   3.783   1.978  12.913  0.2208 -0.1691 -0.2815
    1Sil     Ob  744   4.314   1.936  12.176 -0.2298 -0.3907 -0.3586
    1Sil     Ob  745   4.029   1.890  12.596  0.4159  0.5178  0.1050
    1Sil     Ob  746   3.638   2.298  12.565 -0.1342  0.3206 -0.2697
    1Sil     Ob  747   4.161   2.352  12.931  0.1619  0.0820 -0.2636
    1Sil     Ob  748   3.956   2.292  12.171 -0.5166  0.1325  0.3249
    1Sil     Ob  749   3.924   2.274  13.035  0.1243 -1.3588  0.5441
    1Sil     Ob  750   3.712   2.229  12.218 -0.0925 -0.6597  0.4443
    1Sil     Ob  751   4.204   2.203  12.605  0.6605 -0.0215 -0.0895
    1Sil     Ob  752   3.739   2.030  12.683 -0.3386  0.3901 -0.4906
    1Sil     Ob  753   4.310   1.991  11.925 -0.0190 -0.3774  0.1391
    1Sil     Ob  754   4.043   1.984  12.332  0.6116  0.2253  0.2186
    1Sil     Ob  755   3.734   2.223  12.870  0.1253  0.1182  0.6043
    1Sil     Ob  756   3.499   2.172  12.114 -0.5567 -0.3551 -0.0438
    1Sil     Ob  757   3.985   2.133  12.538  1.1255  0.1832 -0.0676
    1Sil     Ob  758   3.595   2.052  12.487  0.2079 -0.3478 -0.2631
    1Sil     Ob  759   4.169   2.107  13.026 -0.2931  0.3939 -0.3356
    1Sil     Ob  760   3.874   2.050  12.145  0.1514  0.1078  0.4007
    1Sil     Ob  761   4.103   2.001  12.077  0.3018 -0.5920 -0.2113
    1Sil     Ob  762   3.549   2.037  12.864  0.0608  0.2030  0.0585
    1Sil     Ob  763   3.822   1.961  12.468  0.0763 -0.0958  0.5295
    1Sil     Ob  764   3.498   2.245  12.360 -0.3211 -0.1055  0.3354
    1Sil     Ob  765   4.031   2.182  12.803 -0.3694 -0.2764  0.0031
    1Sil     Ob  766   3.800   2.230  11.975 -0.0638  0.1204  0.7607
    1Sil     Ob  767   3.819   2.417  11.796 -0.2807  0.1700 -0.0345
    1Sil     Ob  768   4.387   2.480  11.029 -0.4429  0.3906  0.1272
    1Sil     Ob  769   4.127   2.369  11.356 -0.7509 -0.8266  0.0127
    1Sil     Ob  770   3.746   2.799  11.419 -0.2987  0.7190  0.8727
    1Sil     Ob  771   4.233   2.783  11.748  0.3716 -0.3979 -0.3821
    1Sil     Ob  772   3.941   2.831  10.875 -0.1317 -0.2511  0.5088
    1Sil     Ob  773   4.004   2.714  11.811  0.4612 -0.2123  0.7265
    1Sil     Ob  774   3.781   2.750  11.045 -0.1123 -0.2220 -0.9440
    1Sil     Ob  775   4.278   2.683  11.427 -0.4192  0.0888  0.6623
    1Sil     Ob  776   3.839   2.487  11.540  0.1365 -0.0018  0.3332
    1Sil     Ob  777   4.079   2.419  11.093  0.1623  0.0282 -0.1684
    1Sil     Ob  778   3.782   2.667  11.730 -0.0219 -0.1011  0.2479
    1Sil     Ob  779   3.535   2.706  11.003  0.1279 -0.1739  0.3182
    1Sil     Ob  780   4.067   2.607  11.297  0.1751 -0.1681 -0.1998
    1Sil     Ob  781   3.697   2.554  11.344  0.3177 -0.1730  0.4296
    1Sil     Ob  782   4.158   2.532  11.734 -0.1007 -0.4568  0.1381
    1Sil     Ob  783   3.946   2.584  10.967 -0.5216  0.5882 -0.1675
    1Sil     Ob  784   4.192   2.511  10.857  0.0213  0.0391  0.4709
    1Sil     Ob  785   3.616   2.483  11.683 -0.3630  0.5697  0.2391
    1Sil     Ob  786   3.895   2.434  11.289  0.3278  0.0967 -0.2538
    1Sil     Ob  787   3.604   2.754  11.224  0.4435 -0.3126  0.5168
    1Sil     Ob  788   4.062   2.699  11.557 -0.1143 -0.5437 -0.2859
    1Sil     Ob  789   3.698   2.625  10.853 -0.1573  0.1534  0.1207
    1Sil     Ob  790   3.792   2.469  12.911 -0.8931  0.0694  0.1352
    1Sil     Ob  791   4.341   2.418  12.168 -0.1271 -0.2119 -0.1801
    1Sil     Ob  792   4.035   2.373  12.595 -0.3840 -0.5808 -0.0651
    1Sil     Ob  793   3.645   2.797  12.567 -0.0719 -0.8501  0.1597
    1Sil     Ob  794   4.166   2.831  12.939 -0.2387  0.0059  0.1739
    1Sil     Ob  795   3.951   2.788  12.174 -0.0462  0.2733 -0.5124
    1Sil     Ob  796   3.924   2.765  13.033  0.2213  0.3810  0.0586
    1Sil     Ob  797   3.723   2.716  12.220  0.2354  0.3052 -0.5477
    1Sil     Ob  798   4.193   2.668  12.608 -0.1487 -0.4314  0.1945
    1Sil     Ob  799   3.745   2.510  12.683 -0.0254  0.5454  0.8293
    1Sil     Ob  800   4.315   2.471  11.925  0.5554  0.0680  0.4133
    1Sil     Ob  801   4.041   2.466  12.342  0.3541 -0.1559 -0.5317
    1Sil     Ob  802   3.746   2.716  12.858  0.3252 -0.0853 -0.1908
    1Sil     Ob  803   3.516   2.656  12.103 -0.2130 -0.4330  0.4417
    1Sil     Ob  804   3.971   2.610  12.549  0.2317  0.1298 -0.0956
    1Sil     Ob  805   3.613   2.548  12.481  0.1341 -0.0464 -0.1550
    1Sil     Ob  806   4.169   2.587  13.042  0.0221 -0.5544  0.0773
    1Sil     Ob  807   3.882   2.539  12.159 -0.7410  1.1423  0.2322
    1Sil     Ob  808   4.113   2.469  12.086  0.1496  0.9467  0.4154
    1Sil     Ob  809   3.555   2.520  12.864  0.3340 -0.9047  0.0627
    1Sil     Ob  810   3.829   2.438  12.457  0.0742  0.1724 -0.3205
    1Sil     Ob  811   3.508   2.731  12.356  0.0716 -0.1208 -0.4626
    1Sil     Ob  812   4.040   2.676  12.813  0.4848  0.0302 -0.1920
    1Sil     Ob  813   3.802   2.724  11.976  0.2798  0.1866  0.1616
    1Sil     Ob  814   3.836   2.907  11.792 -0.0042  0.2477 -0.3475
    1Sil     Ob  815   4.391   2.953  11.026  0.4613 -0.1296  0.0347
    1Sil     Ob  816   4.120   2.852  11.363  0.1444 -0.0902 -0.2771
    1Sil     Ob  817   3.716   3.283  11.426  0.1746  0.3944  0.7261
    1Sil     Ob  818   4.228   3.260  11.750  0.2049 -0.0613  0.1003
    1Sil     Ob  819   3.937   3.314  10.879  0.4297 -0.0452  0.0862
    1Sil     Ob  820   4.004   3.191  11.822 -0.3510 -0.4600 -0.4892
    1Sil     Ob  821   3.774   3.236  11.043 -0.1981 -0.6601 -0.4040
    1Sil     Ob  822   4.279   3.168  11.434 -0.0289 -0.3121 -1.0616
    1Sil     Ob  823   3.827   2.991  11.544  0.0279  0.0109  0.2618
    1Sil     Ob  824   4.073   2.905  11.105 -0.0240  0.3430  0.1603
    1Sil     Ob  825   3.777   3.150  11.737  0.1298 -0.0778 -0.3992
    1Sil     Ob  826   3.539   3.179  10.997 -0.0263  0.2790  0.4921
    1Sil     Ob  827   4.086   3.097  11.305 -0.6868  0.0983  0.0854
    1Sil     Ob  828   3.675   3.033  11.334 -0.1049 -0.2350  0.2981
    1Sil     Ob  829   4.153   3.023  11.721  0.3993 -0.8154  0.2223
    1Sil     Ob  830   3.959   3.077  10.973 -0.3974 -0.7283  0.8643
    1Sil     Ob  831   4.189   2.992  10.871 -0.1368  0.0494  0.8061
    1Sil     Ob  832   3.617   2.974  11.688 -0.2908 -0.1121 -1.1267
    1Sil     Ob  833   3.899   2.943  11.290  0.4998 -0.2298 -0.6443
    1Sil     Ob  834   3.588   3.248  11.222 -0.1725 -0.3728  0.1430
    1Sil     Ob  835   4.057   3.190  11.557  0.1806  0.3665 -0.0410
    1Sil     Ob  836   3.712   3.092  10.857 -0.0891 -0.5738  0.5470
    1Sil     Ob  837   3.802   2.954  12.905 -0.0999  1.2556  0.0751
    1Sil     Ob  838   4.320   2.906  12.163 -0.5971 -0.1874 -0.7973
    1Sil     Ob  839   4.039   2.851  12.600 -0.0666 -0.7640  0.2273
    1Sil     Ob  840   3.648   3.282  12.563  0.0035  0.1787  0.0196
    1Sil     Ob  841   4.164   3.312  12.938 -0.3160  0.0442 -0.6293
    1Sil     Ob  842   3.955   3.274  12.173 -0.1742  0.3647  0.3142
    1Sil     Ob  843   3.927   3.243  13.033  0.1722  0.2027  0.0824
    1Sil     Ob  844   3.719   3.229  12.220  0.1215 -0.2343  0.3024
    1Sil     Ob  845   4.210   3.165  12.601 -0.0896  0.5732 -0.4872
    1Sil     Ob  846   3.738   3.025  12.687  0.3473  0.6484 -0.6537
    1Sil     Ob  847   4.311   2.969  11.915  0.3915  0.0319  0.0435
    1Sil     Ob  848   4.051   2.944  12.344  0.8564  0.1626 -0.0294
    1Sil     Ob  849   3.725   3.201  12.870 -0.3337 -0.0268 -0.1548
    1Sil     Ob  850   3.497   3.150  12.113 -0.2901  0.3598  0.2786
    1Sil     Ob  851   3.993   3.098  12.551  0.0055  0.4650  0.3038
    1Sil     Ob  852   3.612   3.040  12.470 -0.0187  0.3280 -0.3419
    1Sil     Ob  853   4.163   3.076  13.036 -0.0883  0.2240 -0.2601
    1Sil     Ob  854   3.884   3.034  12.168 -0.6295  0.5861  0.0526
    1Sil     Ob  855   4.106   2.956  12.080  0.0872  0.1983 -0.1107
    1Sil     Ob  856   3.564   3.002  12.863  0.6070  0.6673 -0.5575
    1Sil     Ob  857   3.836   2.928  12.470 -0.6114 -0.6755  0.0683
    1Sil     Ob  858   3.506   3.237  12.357  0.0337  0.3324  0.8894
    1Sil     Ob  859   4.036   3.162  12.799  0.6951  0.4791  0.3088
    1Sil     Ob  860   3.800   3.202  11.983 -0.1011 -0.1975 -0.0929
    1Sil     Ob  861   3.844   3.388  11.789  0.1226  0.1922  0.2790
    1Sil     Ob  862   4.392   3.441  11.035  0.2019 -0.1130 -0.0609
    1Sil     Ob  863   4.121   3.338  11.363 -0.3538  0.9243 -0.8334
    1Sil     Ob  864   3.744   3.765  11.421  0.2389 -0.0196  0.2197
    1Sil     Ob  865   4.244   3.749  11.757 -0.1114 -0.3702 -0.0747
    1Sil     Ob  866   3.942   3.800  10.869 -0.6739  0.3160  0.0557
    1Sil     Ob  867   4.006   3.678  11.828  0.0997 -0.3532 -0.1689
    1Sil     Ob  868   3.771   3.736  11.028 -0.4016  0.2733 -0.4279
    1Sil     Ob  869   4.284   3.654  11.436  0.1748  0.6962  0.2947
    1Sil     Ob  870   3.834   3.467  11.553  0.0014 -0.1222  0.2365
    1Sil     Ob  871   4.082   3.406  11.110  0.3745 -0.7218 -0.1790
    1Sil     Ob  872   3.771   3.617  11.740  0.1722 -0.1324 -1.4292
    1Sil     Ob  873   3.532   3.670  10.991  0.0620 -0.2416 -0.5719
    1Sil     Ob  874   4.066   3.584  11.316  0.1983  0.5831 -0.0178
    1Sil     Ob  875   3.698   3.523  11.336 -0.2950 -0.3788 -0.1944
    1Sil     Ob  876   4.161   3.506  11.737  0.6891 -0.3445  0.2842
    1Sil     Ob  877   3.946   3.562  10.977  0.3150  0.3842  0.0920
    1Sil     Ob  878   4.181   3.487  10.873 -0.4701  0.1906 -0.4750
    1Sil     Ob  879   3.613   3.429  11.680  0.7428  0.2894  0.0926
    1Sil     Ob  880   3.899   3.398  11.309 -0.3047  0.0260 -0.4483
    1Sil     Ob  881   3.597   3.736  11.223 -0.1275 -0.1414  0.2697
    1Sil     Ob  882   4.080   3.677  11.571  0.7538  0.4978 -0.2576
    1Sil     Ob  883   3.701   3.585  10.843 -0.5498  0.2302 -0.1899
    1Sil     Ob  884   3.798   3.441  12.913 -0.0054 -0.1302  0.1426
    1Sil     Ob  885   4.335   3.389  12.148 -0.0791  0.1261  0.6609
    1Sil     Ob  886   4.052   3.350  12.589 -0.1551 -0.2983 -0.3433
    1Sil     Ob  887   3.646   3.763  12.563  0.5680 -0.1805  0.5679
    1Sil     Ob  888   4.161   3.802  12.925 -0.1522 -0.5969 -0.0860
    1Sil     Ob  889   3.957   3.745  12.171 -0.3212 -0.5434 -0.3187
    1Sil     Ob  890   3.924   3.729  13.026 -0.0303  1.3844  0.7200
    1Sil     Ob  891   3.712   3.683  12.232  0.1841 -0.6010 -0.2356
    1Sil     Ob  892   4.211   3.650  12.605  0.0215  0.3007  0.3212
    1Sil     Ob  893   3.749   3.487  12.678  0.3647 -0.2280 -0.7241
    1Sil     Ob  894   4.311   3.441  11.917  0.4680  0.1702  0.3788
    1Sil     Ob  895   4.043   3.443  12.333  0.4077 -0.0617 -0.7079
    1Sil     Ob  896   3.721   3.674  12.865  0.1238 -0.2784 -0.0750
    1Sil     Ob  897   3.487   3.634  12.109 -0.2617 -0.4223  0.4483
    1Sil     Ob  898   3.987   3.594  12.544  0.4198 -0.7117  0.2198
    1Sil     Ob  899   3.606   3.521  12.482  0.1459 -0.1391  0.0659
    1Sil     Ob  900   4.168   3.552  13.021 -0.4600  0.3051  0.1450
    1Sil     Ob  901   3.877   3.509  12.143 -0.3307 -0.2856  0.6771
    1Sil     Ob  902   4.106   3.451  12.081 -0.2518 -0.0179  0.6282
    1Sil     Ob  903   3.563   3.483  12.869 -0.4066 -0.5067  0.1307
    1Sil     Ob  904   3.836   3.418  12.468  0.3539 -0.2984  0.1186
    1Sil     Ob  905   3.491   3.706  12.371 -0.3013 -0.1683 -0.1037
    1Sil     Ob  906   4.037   3.648  12.795 -0.0582  0.0266 -0.4033
    1Sil     Ob  907   3.800   3.700  11.984  0.4849 -0.6837 -0.0864
    1Sil     Ob  908   3.845   3.860  11.792 -0.0901 -0.2009  0.7505
    1Sil     Ob  909   4.385   3.926  11.044 -0.2963 -0.1693 -0.7082
    1Sil     Ob  910   4.127   3.837  11.362  0.4924  0.3558  0.9535
    1Sil     Ob  911   3.737   4.257  11.412  0.5632  0.0636 -0.0893
    1Sil     Ob  912   4.231   4.239  11.737  0.0422 -0.5373 -0.2611
    1Sil     Ob  913   3.937   4.286  10.864 -0.0114 -0.3204 -0.4201
    1Sil     Ob  914   4.011   4.170  11.823 -0.0670 -0.5355  0.3646
    1Sil     Ob  915   3.774   4.210  11.039  0.4431  0.1695 -0.1906
    1Sil     Ob  916   4.278   4.148  11.423 -0.1792 -0.1213 -0.3579
    1Sil     Ob  917   3.845   3.949  11.553  0.1297 -0.1386 -0.2256
    1Sil     Ob  918   4.087   3.875  11.097 -0.8764 -0.0124  0.1661
    1Sil     Ob  919   3.806   4.115  11.729  0.7469  0.2468  0.3061
    1Sil     Ob  920   3.538   4.156  10.996 -0.4664  0.6373  0.2345
    1Sil     Ob  921   4.073   4.077  11.299 -0.0756  0.7295  0.2940
    1Sil     Ob  922   3.677   4.007  11.360 -0.8214  0.4102 -0.1392
    1Sil     Ob  923   4.172   3.991  11.716 -0.6768 -0.3321  0.1051
    1Sil     Ob  924   3.948   4.042  10.974 -0.1932  0.1829 -0.1892
    1Sil     Ob  925   4.187   3.959  10.875  0.6359  0.5403  0.4948
    1Sil     Ob  926   3.626   3.949  11.690 -0.2478  0.2156 -0.2809
    1Sil     Ob  927   3.899   3.903  11.295 -0.2034 -0.1973 -0.1939
    1Sil     Ob  928   3.587   4.219  11.213 -0.1768  0.0481 -0.0191
    1Sil     Ob  929   4.066   4.167  11.555  0.3770 -0.3511 -0.1694
    1Sil     Ob  930   3.711   4.078  10.843  0.0377 -0.1284 -0.2003
    1Sil     Ob  931   3.792   3.911  12.896 -0.0335  0.2666  0.6648
    1Sil     Ob  932   4.332   3.873  12.167  0.2328  0.1482  0.1986
    1Sil     Ob  933   4.044   3.846  12.595 -0.5073  0.1500  0.1911
    1Sil     Ob  934   3.636   4.253  12.575 -0.3371 -0.0227 -0.6536
    1Sil     Ob  935   4.154   4.287  12.923 -0.3529  0.1441 -0.1977
    1Sil     Ob  936   3.968   4.244  12.184 -1.4405 -0.5929  0.7213
    1Sil     Ob  937   3.917   4.211  13.029 -0.2520 -0.3502 -0.8745
    1Sil     Ob  938   3.726   4.176  12.223  0.6562 -0.2758  0.2519
    1Sil     Ob  939   4.212   4.148  12.596 -0.1723 -0.2155  0.3074
    1Sil     Ob  940   3.734   3.984  12.674 -0.0830 -0.1698  0.4253
    1Sil     Ob  941   4.319   3.930  11.921  0.1258 -0.1771 -0.3046
    1Sil     Ob  942   4.049   3.922  12.339 -0.2189  0.2703  0.0617
    1Sil     Ob  943   3.726   4.167  12.863  0.7234 -0.0323  1.0143
    1Sil     Ob  944   3.521   4.127  12.109  0.2857 -0.3340  0.0518
    1Sil     Ob  945   3.993   4.090  12.536  0.6531 -0.3209  0.0442
    1Sil     Ob  946   3.603   4.003  12.483 -0.6632 -0.1625  0.3151
    1Sil     Ob  947   4.167   4.045  13.029 -0.2136 -0.1011 -0.2138
    1Sil     Ob  948   3.884   3.993  12.151 -1.2169  0.6021  0.7829
    1Sil     Ob  949   4.104   3.923  12.073  0.4283  0.0025  0.2200
    1Sil     Ob  950   3.551   3.972  12.852 -0.6873  0.5776 -0.4089
    1Sil     Ob  951   3.839   3.911  12.470 -0.0140 -0.5510  0.3493
    1Sil     Ob  952   3.509   4.205  12.358  0.8263  0.1755 -0.3913
    1Sil     Ob  953   4.046   4.122  12.794  0.2430 -0.0320  0.3996
    1Sil     Ob  954   3.814   4.184  11.990  0.1363 -0.4312 -0.0341
    1Sil     Ob  955   3.841   4.360  11.797 -0.3189 -0.1781  0.3849
    1Sil     Ob  956   4.387   4.408  11.033  0.2131  0.6005 -0.6523
    1Sil     Ob  957   4.123   4.322  11.352 -0.0968 -0.5338  0.0428
    1Sil     Ob  958   3.709   1.332  11.428  0.0670  0.0551  0.4490
    1Sil     Ob  959   4.223   1.316  11.738 -0.3503 -0.8380 -0.7952
    1Sil     Ob  960   3.946   1.365  10.868 -0.2744 -0.4498 -0.8648
    1Sil     Ob  961   4.000   1.264  11.812  0.2299 -0.0654  0.6428
    1Sil     Ob  962   3.781   4.697  11.050  0.2583 -0.0358  0.4830
    1Sil     Ob  963   4.274   1.228  11.434 -0.0482 -0.1396  0.2296
    1Sil     Ob  964   3.835   4.447  11.539 -0.1196  0.0987 -0.1802
    1Sil     Ob  965   4.076   4.385  11.092  0.3670  0.4236  0.2808
    1Sil     Ob  966   3.787   4.603  11.723 -0.2893 -0.4876  0.2852
    1Sil     Ob  967   3.543   4.644  10.998 -0.0533 -0.0388 -0.4675
    1Sil     Ob  968   4.084   4.567  11.294  0.2382 -0.0166  0.3299
    1Sil     Ob  969   3.679   1.086  11.338 -0.3611  0.3341  0.1900
    1Sil     Ob  970   4.140   1.070  11.711 -0.4816  0.1538  0.7180
    1Sil     Ob  971   3.952   4.542  10.962 -0.2704 -0.0967 -0.7525
    1Sil     Ob  972   4.186   4.461  10.866  0.0493  0.3957 -0.0974
    1Sil     Ob  973   3.621   4.415  11.682  0.3885  0.0677  0.2779
    1Sil     Ob  974   3.898   4.398  11.289 -0.7306  0.0133  0.1355
    1Sil     Ob  975   3.592   1.303  11.226 -0.1931  0.2423 -0.8811
    1Sil     Ob  976   4.061   1.248  11.557  0.1587  0.4679 -0.1300
    1Sil     Ob  977   3.710   4.567  10.846 -0.1250 -0.3084  0.3239
    1Sil     Ob  978   3.795   4.410  12.909  0.7849 -0.0377  0.1548
    1Sil     Ob  979   4.331   4.370  12.158  0.0592  0.3596  0.0041
    1Sil     Ob  980   4.039   4.328  12.589  0.0675  0.5133  0.0049
    1Sil     Ob  981   3.646   1.335  12.548  0.8449  0.2238  0.1192
    1Sil     Ob  982   4.161   1.377  12.926  0.3080 -0.2666 -0.2365
    1Sil     Ob  983   3.957   1.313  12.158  0.9828 -0.2378  0.1824
    1Sil     Ob  984   3.920   1.300  13.020  0.0475 -0.3677 -0.1837
    1Sil     Ob  985   3.720   1.270  12.212 -0.1719 -0.2473  0.0741
    1Sil     Ob  986   4.198   1.204  12.590 -0.0199 -0.5616  0.1002
    1Sil     Ob  987   3.737   4.477  12.682  0.1003  0.7406 -0.0268
    1Sil     Ob  988   4.294   4.424  11.913  0.2260  0.0117  0.0870
    1Sil     Ob  989   4.034   4.427  12.336  0.0649 -0.1680 -0.1377
    1Sil     Ob  990   3.721   4.658  12.864 -0.1086  0.2247 -0.2062
    1Sil     Ob  991   3.494   4.606  12.105 -0.3782  0.0774 -0.4455
    1Sil     Ob  992   3.970   4.572  12.540 -0.6785 -0.0136  0.2690
    1Sil     Ob  993   3.605   1.088  12.478 -0.5952 -0.4546 -0.3122
    1Sil     Ob  994   4.168   1.118  13.026  0.1439 -0.5568 -0.4210
    1Sil     Ob  995   3.875   1.079  12.142 -0.2258 -0.5199 -0.0508
    1Sil     Ob  996   4.103   4.423  12.072  0.7220  0.6135  0.5366
    1Sil     Ob  997   3.554   4.467  12.865  0.2047  0.1743 -0.5324
    1Sil     Ob  998   3.819   4.381  12.465 -0.5199 -0.4541 -0.5946
    1Sil     Ob  999   3.497   1.271  12.349 -0.2274  0.4127  0.1540
    1Sil     Ob 1000   4.034   1.210  12.794 -0.0365  0.5122  0.1553
    1Sil     Ob 1001   3.795   1.254  11.966 -0.0604  0.4583  0.4823
    1Sil     Ob 1002   4.596   1.454  11.791 -0.3406  0.2856 -0.0527
    1Sil     Ob 1003   1.787   1.398  11.357  0.2401 -0.1340 -0.5053
    1Sil     Ob 1004   4.496   1.834  11.418  0.6996 -0.6833  0.2353
    1Sil     Ob 1005   5.011   1.813  11.747 -0.5273 -0.1939 -0.1283
    1Sil     Ob 1006   4.721   1.855  10.867 -0.0398 -0.6532  0.3733
    1Sil     Ob 1007   4.774   1.756  11.821 -0.0573 -0.0050 -0.0823
    1Sil     Ob 1008   4.549   1.793  11.029 -0.3380  0.3707 -0.1872
    1Sil     Ob 1009   1.941   1.705  11.429  0.1148 -0.4981  0.0130
    1Sil     Ob 1010   4.607   1.533  11.543  0.0468 -0.6601 -0.0742
    1Sil     Ob 1011   1.728   1.441  11.090  0.3173  0.1285  0.1815
    1Sil     Ob 1012   4.542   1.697  11.731 -0.3340 -0.8108  0.2417
    1Sil     Ob 1013   4.318   1.727  10.992 -0.3214  0.0508  0.3054
    1Sil     Ob 1014   1.741   1.641  11.299 -0.2321  0.1564 -0.1143
    1Sil     Ob 1015   4.463   1.589  11.333 -0.0351 -0.0530 -0.0882
    1Sil     Ob 1016   4.932   1.575  11.732 -0.0700  0.5664 -0.4569
    1Sil     Ob 1017   4.716   1.617  10.963  0.2137 -0.0036 -0.1234
    1Sil     Ob 1018   1.857   1.536  10.873  0.0519 -0.3549 -0.6087
    1Sil     Ob 1019   4.388   1.498  11.672  0.2503 -0.0987  0.1757
    1Sil     Ob 1020   1.570   1.466  11.294 -0.8261 -0.2251 -0.2705
    1Sil     Ob 1021   4.365   1.785  11.213 -0.3806  0.2264 -0.4233
    1Sil     Ob 1022   4.842   1.743  11.560 -0.2978  0.1906  0.0956
    1Sil     Ob 1023   4.484   1.653  10.838 -0.2512  0.0831 -0.2595
    1Sil     Ob 1024   4.574   1.493  12.912  0.0275  0.0380 -0.7821
    1Sil     Ob 1025   1.715   1.400  12.602  0.2169 -0.2429 -0.1155
    1Sil     Ob 1026   4.416   1.820  12.550 -0.0454  0.3601  0.5617
    1Sil     Ob 1027   4.937   1.850  12.939 -0.1796  0.1948 -0.9096
    1Sil     Ob 1028   4.732   1.812  12.164  0.0620  0.0675 -0.3700
    1Sil     Ob 1029   4.694   1.787  13.024  0.2978  0.5386 -0.2549
    1Sil     Ob 1030   4.487   1.761  12.221 -0.0422 -0.4228 -1.0415
    1Sil     Ob 1031   1.883   1.689  12.606  0.5806 -0.1794 -0.3056
    1Sil     Ob 1032   4.515   1.545  12.682  0.7820 -0.5796  0.3695
    1Sil     Ob 1033   1.712   1.481  12.343 -0.0143  0.7884  0.1394
    1Sil     Ob 1034   4.500   1.743  12.856 -0.1327 -0.3398 -0.3854
    1Sil     Ob 1035   4.269   1.697  12.098 -0.2462  0.1794  0.2109
    1Sil     Ob 1036   1.658   1.638  12.542  0.2413 -0.1991 -0.1680
    1Sil     Ob 1037   4.383   1.584  12.474  1.2574 -0.2644  0.3959
    1Sil     Ob 1038   4.937   1.606  13.026 -0.1576  0.6607 -0.3469
    1Sil     Ob 1039   4.647   1.563  12.157  0.1238 -0.2041 -0.7097
    1Sil     Ob 1040   1.782   1.505  12.089 -0.4738  0.3465  0.1988
    1Sil     Ob 1041   4.327   1.546  12.863  0.3087 -0.0103  0.2410
    1Sil     Ob 1042   1.501   1.462  12.476  0.1138 -0.0105 -0.3152
    1Sil     Ob 1043   4.267   1.763  12.352 -0.1740  0.2575 -0.0757
    1Sil     Ob 1044   4.809   1.694  12.795 -0.7794  0.0592  0.0421
    1Sil     Ob 1045   4.570   1.746  11.981  0.4555 -0.2777 -0.4120
    1Sil     Ob 1046   4.599   1.936  11.793 -0.1372  0.1494  0.3265
    1Sil     Ob 1047   1.798   1.885  11.354 -0.3486 -0.1513 -0.2687
    1Sil     Ob 1048   4.492   2.319  11.419 -0.5801 -0.0394 -0.6343
    1Sil     Ob 1049   5.007   2.296  11.761  0.0798 -0.2892  0.2959
    1Sil     Ob 1050   4.727   2.333  10.876  0.1415  0.3607  0.2085
    1Sil     Ob 1051   4.771   2.229  11.824  0.2982 -0.3812 -0.0911
    1Sil     Ob 1052   4.557   2.277  11.045 -0.3309 -0.3181 -0.2174
    1Sil     Ob 1053   1.952   2.191  11.437  0.1914 -0.7357  0.5574
    1Sil     Ob 1054   4.610   2.007  11.539  0.1295  0.3118  0.5442
    1Sil     Ob 1055   1.754   1.935  11.101  0.4731  0.4044 -0.7077
    1Sil     Ob 1056   4.548   2.182  11.718 -0.0714  0.7234  0.0793
    1Sil     Ob 1057   4.314   2.228  10.996 -0.5352  0.2572 -0.4546
    1Sil     Ob 1058   1.750   2.126  11.304 -0.7723 -0.6696 -0.4514
    1Sil     Ob 1059   4.480   2.083  11.322 -0.1392  0.1327  0.1656
    1Sil     Ob 1060   4.929   2.050  11.737  0.2654  0.0666 -0.1303
    1Sil     Ob 1061   4.738   2.101  10.975  0.4389  0.2114 -0.2083
    1Sil     Ob 1062   1.860   2.025  10.875 -0.3769 -0.6123 -0.1633
    1Sil     Ob 1063   4.391   1.994  11.677  0.2497 -0.4651  0.3793
    1Sil     Ob 1064   1.576   1.941  11.287  0.1089 -0.1255  0.0734
    1Sil     Ob 1065   4.373   2.300  11.213  0.6265 -0.4773 -0.5747
    1Sil     Ob 1066   4.842   2.214  11.562 -0.1181  0.6440  0.4574
    1Sil     Ob 1067   4.478   2.133  10.854 -0.5846  0.2405  0.8278
    1Sil     Ob 1068   4.574   1.970  12.906  0.4652  0.2382  0.6222
    1Sil     Ob 1069   1.717   1.880  12.588  0.5900  0.9211  0.4105
    1Sil     Ob 1070   4.412   2.318  12.565 -0.2154  0.4484  0.1755
    1Sil     Ob 1071   4.937   2.341  12.940 -1.1391 -0.4846  0.0319
    1Sil     Ob 1072   4.729   2.290  12.169 -1.1573  0.0842 -0.3120
    1Sil     Ob 1073   4.690   2.271  13.037 -0.2900 -0.2056 -0.1832
    1Sil     Ob 1074   4.492   2.227  12.212  0.6368  0.5813  0.6732
    1Sil     Ob 1075   1.883   2.201  12.612  0.4990  0.1677  0.1319
    1Sil     Ob 1076   4.516   2.021  12.685 -0.1435 -0.3648  0.2338
    1Sil     Ob 1077   1.712   1.986  12.338  0.0665  0.2021 -0.4788
    1Sil     Ob 1078   4.509   2.221  12.862  0.5559  0.3603 -0.3857
    1Sil     Ob 1079   4.279   2.181  12.109 -0.0856  0.5310  0.3717
    1Sil     Ob 1080   1.663   2.122  12.560 -0.4692  0.7624 -0.4424
    1Sil     Ob 1081   4.382   2.082  12.477 -0.0451  0.4819 -0.4110
    1Sil     Ob 1082   4.938   2.095  13.043  0.1085 -0.0427  0.1554
    1Sil     Ob 1083   4.649   2.055  12.137 -0.0800 -0.0336 -0.5789
    1Sil     Ob 1084   1.782   1.994  12.083  0.3347 -0.2836 -0.0769
    1Sil     Ob 1085   4.336   2.037  12.855 -0.4483 -0.3084 -0.2167
    1Sil     Ob 1086   1.496   1.949  12.464 -0.5124  0.9023  0.5283
    1Sil     Ob 1087   4.275   2.252  12.355  0.3972  0.2031  0.1557
    1Sil     Ob 1088   4.811   2.186  12.810  0.1908  0.2576 -0.9357
    1Sil     Ob 1089   4.569   2.250  11.968 -0.1382  0.4443 -0.4518
    1Sil     Ob 1090   4.619   2.420  11.776  0.2712  0.0476  0.2201
    1Sil     Ob 1091   1.798   2.368  11.356 -0.0175 -0.0836 -0.8378
    1Sil     Ob 1092   4.499   2.797  11.415  0.2813  0.3406 -0.5487
    1Sil     Ob 1093   5.021   2.790  11.746 -0.1239 -0.5864  0.0507
    1Sil     Ob 1094   4.718   2.836  10.867 -0.2547 -0.1703 -0.0709
    1Sil     Ob 1095   4.795   2.724  11.807 -0.3164  0.0221 -0.0993
    1Sil     Ob 1096   4.550   2.753  11.037 -0.6775 -0.5163  0.5548
    1Sil     Ob 1097   1.943   2.678  11.424 -0.1926 -0.1226 -0.3599
    1Sil     Ob 1098   4.609   2.514  11.538 -0.6318  0.1859 -0.1187
    1Sil     Ob 1099   1.756   2.431  11.100 -0.4715 -0.3062 -0.1424
    1Sil     Ob 1100   4.566   2.660  11.746  0.7665  0.1318  0.1283
    1Sil     Ob 1101   4.316   2.706  10.977 -0.1133  0.5486 -0.5161
    1Sil     Ob 1102   1.730   2.620  11.297  0.0519  0.0350  0.7818
    1Sil     Ob 1103   4.464   2.554  11.337 -0.6216 -0.1335 -0.1546
    1Sil     Ob 1104   4.934   2.542  11.722  0.3584 -0.7320 -0.6495
    1Sil     Ob 1105   4.730   2.585  10.960  0.0456  0.5555  0.0847
    1Sil     Ob 1106   1.869   2.504  10.866 -0.3105 -0.1175 -0.7667
    1Sil     Ob 1107   4.392   2.490  11.685 -0.3347 -0.0237  0.4695
    1Sil     Ob 1108   1.565   2.447  11.297  0.7752  0.2402 -0.0300
    1Sil     Ob 1109   4.371   2.764  11.213 -0.1338  0.1734 -0.2360
    1Sil     Ob 1110   4.848   2.706  11.550  0.3252  0.4923  0.1968
    1Sil     Ob 1111   4.482   2.621  10.835  0.7060 -0.2495 -0.1216
    1Sil     Ob 1112   4.566   2.461  12.914  0.3673  0.5844 -0.1600
    1Sil     Ob 1113   1.700   2.368  12.606  0.3062  0.6743 -0.0445
    1Sil     Ob 1114   4.403   2.800  12.565  0.2951  0.1982  0.7664
    1Sil     Ob 1115   4.945   2.833  12.933 -0.2756  0.0800  0.2782
    1Sil     Ob 1116   4.743   2.781  12.168 -0.7783 -0.3301 -0.1916
    1Sil     Ob 1117   4.705   2.773  13.034  0.5135 -0.0417  0.2645
    1Sil     Ob 1118   4.500   2.734  12.221  0.1922  0.1618 -0.4961
    1Sil     Ob 1119   1.872   2.680  12.608  0.4170 -0.1725 -0.1420
    1Sil     Ob 1120   4.514   2.525  12.687  0.3290  0.3022 -0.1138
    1Sil     Ob 1121   1.719   2.458  12.349  0.3264 -0.7368  0.4661
    1Sil     Ob 1122   4.502   2.713  12.873 -0.2378 -0.6958 -0.1906
    1Sil     Ob 1123   4.276   2.658  12.107  0.4274  0.2909  0.2373
    1Sil     Ob 1124   1.660   2.614  12.539 -0.0635  0.2450 -0.6847
    1Sil     Ob 1125   4.376   2.562  12.486  0.1740 -0.5294 -0.3744
    1Sil     Ob 1126   4.949   2.592  13.030  0.2863 -0.3833 -0.2416
    1Sil     Ob 1127   4.661   2.543  12.172  0.2156 -0.0061  0.1912
    1Sil     Ob 1128   1.776   2.465  12.081  0.9478 -0.1405  0.3368
    1Sil     Ob 1129   4.337   2.519  12.865 -0.3259 -0.2093  0.6181
    1Sil     Ob 1130   1.492   2.446  12.467 -0.3116  0.3326  0.4120
    1Sil     Ob 1131   4.275   2.740  12.358 -0.3876  0.1756  0.1531
    1Sil     Ob 1132   4.809   2.673  12.803 -0.1223 -0.1769  0.2982
    1Sil     Ob 1133   4.595   2.704  11.981  0.2809 -0.4848 -0.0866
    1Sil     Ob 1134   4.614   2.902  11.805 -0.6450  0.4056  0.0860
    1Sil     Ob 1135   1.792   2.861  11.364  0.5734  0.1925  0.8254
    1Sil     Ob 1136   4.512   3.274  11.429  0.3666  0.4293 -0.3118
    1Sil     Ob 1137   5.007   3.271  11.758 -0.5931  0.5115  0.4176
    1Sil     Ob 1138   4.713   3.321  10.854  0.9783  0.0197 -0.4077
    1Sil     Ob 1139   4.776   3.205  11.814 -0.4133 -0.5288 -0.2364
    1Sil     Ob 1140   4.558   3.244  11.031  0.4847 -0.6408 -0.8613
    1Sil     Ob 1141   1.947   3.171  11.428  0.0126 -0.0589 -0.0754
    1Sil     Ob 1142   4.626   2.965  11.550 -0.0449 -0.0941 -0.6263
    1Sil     Ob 1143   1.747   2.909  11.097  0.1992 -0.2909 -0.3304
    1Sil     Ob 1144   4.568   3.144  11.721  0.7950  0.0666  0.2976
    1Sil     Ob 1145   4.314   3.192  11.001 -0.1028 -0.0340  0.4728
    1Sil     Ob 1146   1.735   3.106  11.305  0.5924 -0.1912  0.8312
    1Sil     Ob 1147   4.476   3.036  11.337  0.3872 -0.4909  0.0385
    1Sil     Ob 1148   4.932   3.030  11.728  0.2517 -0.8700  0.3451
    1Sil     Ob 1149   4.722   3.078  10.966  0.0880 -0.3981 -0.0526
    1Sil     Ob 1150   1.864   2.997  10.875  0.2975  0.0002 -0.5791
    1Sil     Ob 1151   4.403   2.971  11.682 -0.1526  0.1897 -0.4457
    1Sil     Ob 1152   1.570   2.920  11.289  0.2691  0.6572  0.0095
    1Sil     Ob 1153   4.382   3.265  11.224  0.0931 -0.0702 -0.0964
    1Sil     Ob 1154   4.844   3.205  11.555 -0.0943  0.7658 -0.3473
    1Sil     Ob 1155   4.482   3.115  10.837 -0.1471 -0.3980  0.5328
    1Sil     Ob 1156   4.572   2.953  12.907 -0.1416  0.2530  0.0630
    1Sil     Ob 1157   1.700   2.856  12.604  0.1060 -0.0250 -0.4988
    1Sil     Ob 1158   4.414   3.281  12.558  0.1239  0.3028 -0.4649
    1Sil     Ob 1159   4.949   3.315  12.931 -0.1585 -0.6739 -0.2537
    1Sil     Ob 1160   4.733   3.264  12.159 -0.4452  0.5110  0.0589
    1Sil     Ob 1161   4.707   3.250  13.034  0.3556  0.8191 -0.6039
    1Sil     Ob 1162   4.484   3.207  12.208 -0.6524  0.3019  0.0974
    1Sil     Ob 1163   1.880   3.169  12.614  0.0660 -0.0296  0.4013
    1Sil     Ob 1164   4.512   3.015  12.671  0.3101  0.3997 -0.4832
    1Sil     Ob 1165   1.720   2.950  12.345  0.4588  0.3026 -0.2683
    1Sil     Ob 1166   4.510   3.202  12.867 -0.2798 -0.4720 -0.2102
    1Sil     Ob 1167   4.268   3.151  12.100 -0.5183 -0.1511 -0.1747
    1Sil     Ob 1168   1.665   3.105  12.541  0.6183 -0.4818  0.1126
    1Sil     Ob 1169   4.377   3.041  12.468  0.1025 -0.1842 -0.5459
    1Sil     Ob 1170   4.955   3.068  13.030 -0.3468 -0.3706 -0.0183
    1Sil     Ob 1171   4.653   3.019  12.146 -0.4868 -0.5006  0.1319
    1Sil     Ob 1172   1.781   2.974  12.086 -0.0237  0.3603 -0.7259
    1Sil     Ob 1173   4.328   3.001  12.860  0.1901 -0.0439 -0.0845
    1Sil     Ob 1174   1.503   2.925  12.473 -0.1826  0.4991  0.0956
    1Sil     Ob 1175   4.277   3.230  12.347  0.4857 -0.1278 -0.3918
    1Sil     Ob 1176   4.820   3.157  12.801  0.4008 -0.2317  0.4655
    1Sil     Ob 1177   4.575   3.188  11.972 -0.6654 -0.0807 -0.0277
    1Sil     Ob 1178   4.609   3.382  11.794 -0.5481 -0.6073  0.1812
    1Sil     Ob 1179   1.797   3.346  11.343  1.3797 -0.1879 -0.1349
    1Sil     Ob 1180   4.506   3.765  11.425  0.1811 -0.1002 -0.0935
    1Sil     Ob 1181   5.012   3.765  11.760  0.5504 -0.3205 -0.1300
    1Sil     Ob 1182   4.729   3.802  10.870  0.0158 -0.2991  0.1539
    1Sil     Ob 1183   4.781   3.681  11.820 -0.3407 -0.6027 -0.3443
    1Sil     Ob 1184   4.555   3.734  11.035  0.3273 -0.0584 -0.7941
    1Sil     Ob 1185   1.954   3.659  11.439 -0.2423 -0.3823 -0.1278
    1Sil     Ob 1186   4.616   3.469  11.547  0.1387 -0.0474 -0.1083
    1Sil     Ob 1187   1.740   3.393  11.090 -0.6278 -0.1485 -0.4330
    1Sil     Ob 1188   4.559   3.634  11.736 -0.2973  0.7729 -0.4914
    1Sil     Ob 1189   4.318   3.677  11.002 -0.3437 -0.4844  0.1888
    1Sil     Ob 1190   1.750   3.590  11.291 -0.3225  0.3264  0.2728
    1Sil     Ob 1191   4.472   3.528  11.344 -0.1245  0.0072  0.4148
    1Sil     Ob 1192   4.934   3.512  11.723 -0.7271 -0.0398  0.3543
    1Sil     Ob 1193   4.731   3.565  10.958 -1.0354  0.2296 -0.3512
    1Sil     Ob 1194   1.862   3.480  10.863  0.0293 -0.1465 -0.0138
    1Sil     Ob 1195   4.393   3.449  11.680 -0.1090 -0.4227 -0.0436
    1Sil     Ob 1196   1.572   3.413  11.288 -0.7439  0.2017  0.3907
    1Sil     Ob 1197   4.373   3.736  11.229  0.3531  0.0794 -0.0275
    1Sil     Ob 1198   4.849   3.688  11.559  0.4989 -0.6136  0.2858
    1Sil     Ob 1199   4.478   3.611  10.840  0.5198 -0.7698 -0.4554
    1Sil     Ob 1200   4.580   3.438  12.907 -0.3320  0.1576  0.6778
    1Sil     Ob 1201   1.707   3.344  12.593 -0.4881  0.1877  0.0452
    1Sil     Ob 1202   4.411   3.777  12.569  0.4737  0.3417  0.0999
    1Sil     Ob 1203   4.923   3.796  12.928 -0.4202  0.4027  0.5390
    1Sil     Ob 1204   4.730   3.752  12.168 -0.5645 -0.2710  1.0088
    1Sil     Ob 1205   4.688   3.718  13.014  0.1136  0.1487 -0.0714
    1Sil     Ob 1206   4.492   3.691  12.216 -0.6388  0.3516  0.2069
    1Sil     Ob 1207   1.886   3.662  12.609  0.6377 -0.3796 -0.0538
    1Sil     Ob 1208   4.513   3.497  12.679  0.3340 -0.3240  0.0115
    1Sil     Ob 1209   1.715   3.439  12.332 -0.1093 -0.4985  0.0561
    1Sil     Ob 1210   4.496   3.684  12.853  0.4530 -0.6557 -0.5286
    1Sil     Ob 1211   4.278   3.627  12.102  0.0290  0.0546 -0.2554
    1Sil     Ob 1212   1.666   3.588  12.537  0.2038 -0.0519  0.4213
    1Sil     Ob 1213   4.391   3.525  12.481  0.0518  0.1089 -0.3573
    1Sil     Ob 1214   4.943   3.563  13.022 -0.2683  0.5508 -0.0551
    1Sil     Ob 1215   4.657   3.520  12.148  0.2429 -0.5238  0.3217
    1Sil     Ob 1216   1.779   3.444  12.073  0.2253  0.3109 -0.5543
    1Sil     Ob 1217   4.335   3.477  12.853 -0.4279 -0.3731  0.1548
    1Sil     Ob 1218   1.498   3.410  12.466 -1.1387  0.0010 -0.0680
    1Sil     Ob 1219   4.285   3.702  12.361  0.2246  0.2985  0.0001
    1Sil     Ob 1220   4.810   3.633  12.800  0.5465 -0.3578 -0.3146
    1Sil     Ob 1221   4.575   3.702  11.973  0.1830 -0.4360  0.2954
    1Sil     Ob 1222   4.626   3.877  11.778 -0.5971 -0.1020 -0.4961
    1Sil     Ob 1223   1.799   3.834  11.365  0.2737  0.8324 -0.6925
    1Sil     Ob 1224   4.502   4.259  11.416 -0.2858  0.1914 -0.3044
    1Sil     Ob 1225   5.004   4.248  11.746  0.2717  0.0218 -0.1836
    1Sil     Ob 1226   4.719   4.290  10.865 -0.2030  0.0118 -0.6559
    1Sil     Ob 1227   4.775   4.185  11.823  0.1738 -0.7338  0.1527
    1Sil     Ob 1228   4.555   4.214  11.035 -0.3161 -0.5756  0.5701
    1Sil     Ob 1229   1.946   4.158  11.428 -0.1017 -0.3107 -0.2980
    1Sil     Ob 1230   4.614   3.955  11.535 -0.3116 -0.0945 -0.2798
    1Sil     Ob 1231   1.749   3.891  11.102  0.1298 -0.1474 -0.2547
    1Sil     Ob 1232   4.553   4.113  11.727  0.7735 -0.3540 -0.3864
    1Sil     Ob 1233   4.315   4.162  11.001  0.2287  0.4461 -0.2394
    1Sil     Ob 1234   1.751   4.072  11.301  0.3805 -0.1453  0.1092
    1Sil     Ob 1235   4.465   4.011  11.343 -0.2284  0.2252 -0.4541
    1Sil     Ob 1236   4.924   4.006  11.737 -0.3241  0.4373 -0.0809
    1Sil     Ob 1237   4.711   4.047  10.965 -0.5934  0.2113 -0.0996
    1Sil     Ob 1238   1.858   3.981  10.878 -0.4088  0.1497  0.8779
    1Sil     Ob 1239   4.404   3.915  11.681 -1.1524  0.4334 -0.3239
    1Sil     Ob 1240   1.569   3.902  11.290 -0.6143 -0.1132 -0.7650
    1Sil     Ob 1241   4.375   4.232  11.213  0.0095  0.5061 -0.2496
    1Sil     Ob 1242   4.841   4.172  11.557  0.0901 -0.1543 -0.2616
    1Sil     Ob 1243   4.479   4.079  10.843  0.4286 -0.0356  0.5825
    1Sil     Ob 1244   4.576   3.919  12.886 -0.2269  0.3929 -0.1765
    1Sil     Ob 1245   1.703   3.832  12.605  0.6562 -0.5401 -0.1849
    1Sil     Ob 1246   4.419   4.270  12.547 -0.4257  0.5782  0.6152
    1Sil     Ob 1247   4.928   4.291  12.938  0.1907  0.2818  0.8509
    1Sil     Ob 1248   4.728   4.242  12.161 -0.0548  0.1016  0.0656
    1Sil     Ob 1249   4.687   4.205  13.023 -0.1803 -0.0764 -0.3150
    1Sil     Ob 1250   4.478   4.177  12.215 -0.2145  0.2109  0.4729
    1Sil     Ob 1251   1.880   4.142  12.601 -0.3381  0.6479 -0.5207
    1Sil     Ob 1252   4.513   3.991  12.667 -0.1637  0.2969 -0.0173
    1Sil     Ob 1253   1.708   3.920  12.342 -0.2234  0.1530  0.6735
    1Sil     Ob 1254   4.515   4.171  12.844  0.4935 -0.2645 -0.3362
    1Sil     Ob 1255   4.267   4.120  12.097  0.2224  0.3619  0.9038
    1Sil     Ob 1256   1.660   4.078  12.542 -0.1909  0.2480 -0.2309
    1Sil     Ob 1257   4.376   4.016  12.465  0.1352 -0.0946 -0.1060
    1Sil     Ob 1258   4.940   4.032  13.022  0.4135  0.0371 -0.1607
    1Sil     Ob 1259   4.646   4.000  12.155 -0.0472  0.1138 -0.0078
    1Sil     Ob 1260   1.776   3.936  12.087  0.1754  0.2454 -0.5281
    1Sil     Ob 1261   4.338   3.979  12.841  0.7526 -0.1053  0.0794
    1Sil     Ob 1262   1.495   3.908  12.464 -0.0163  0.3030 -0.4737
    1Sil     Ob 1263   4.270   4.204  12.348 -0.5943 -1.0608 -0.1989
    1Sil     Ob 1264   4.820   4.118  12.798  0.1877 -0.0158  0.5493
    1Sil     Ob 1265   4.565   4.180  11.980 -0.3000 -0.7898  0.0344
    1Sil     Ob 1266   4.599   4.365  11.786 -0.3503 -0.2131 -0.2237
    1Sil     Ob 1267   1.792   4.314  11.355 -0.3762 -0.2913  0.1330
    1Sil     Ob 1268   4.501   1.344  11.416 -0.1777 -0.2718 -0.2565
    1Sil     Ob 1269   1.901   1.327  11.745 -0.2770  0.0959  0.2501
    1Sil     Ob 1270   1.611   1.376  10.865 -0.0692  0.2304 -0.6269
    1Sil     Ob 1271   1.666   1.273  11.809  0.2841  0.4129 -0.1215
    1Sil     Ob 1272   4.550   4.706  11.039 -0.3614  0.4882  0.1263
    1Sil     Ob 1273   1.943   1.203  11.425 -0.0083 -0.0822 -0.3936
    1Sil     Ob 1274   4.609   4.450  11.537 -0.0440 -0.0031  0.3066
    1Sil     Ob 1275   1.748   4.373  11.096 -0.6881  0.0003  0.3489
    1Sil     Ob 1276   4.554   4.613  11.723  0.0218 -0.5557 -0.6391
    1Sil     Ob 1277   4.313   4.646  10.996 -0.4601  0.1670 -0.2562
    1Sil     Ob 1278   1.732   4.557  11.301 -0.5100  1.0063  0.3464
    1Sil     Ob 1279   4.465   1.102  11.334 -0.0697  0.4634 -0.9487
    1Sil     Ob 1280   1.822   1.089  11.735 -0.1601  1.0037  0.3485
    1Sil     Ob 1281   4.726   4.545  10.968 -0.4046 -0.0239 -0.6523
    1Sil     Ob 1282   1.861   4.464  10.865 -0.5309  0.3235  0.2888
    1Sil     Ob 1283   4.394   4.420  11.669 -0.2136 -0.7310 -0.7249
    1Sil     Ob 1284   1.570   4.377  11.286 -0.5040  0.6635 -0.5164
    1Sil     Ob 1285   4.369   1.319  11.221  0.6959  0.0743 -0.4072
    1Sil     Ob 1286   1.738   1.245  11.554  0.5160  0.4338  0.3483
    1Sil     Ob 1287   4.480   4.569  10.837 -0.4168  0.6267  0.1430
    1Sil     Ob 1288   4.569   4.407  12.913 -0.5579  0.5138  0.0521
    1Sil     Ob 1289   1.704   4.311  12.603  0.4545 -0.0071  0.3009
    1Sil     Ob 1290   4.397   1.344  12.560 -0.6821 -0.1459 -0.2242
    1Sil     Ob 1291   1.829   1.364  12.932 -0.1490 -0.3027 -0.9449
    1Sil     Ob 1292   1.636   1.321  12.164 -0.4494  0.3272 -0.3409
    1Sil     Ob 1293   1.590   1.297  13.033 -0.3427  0.2747 -0.2220
    1Sil     Ob 1294   1.391   1.263  12.213 -0.6427  0.0567 -0.1698
    1Sil     Ob 1295   1.889   1.210  12.597 -0.0478  0.2704  0.3045
    1Sil     Ob 1296   4.524   4.473  12.682  0.1564 -0.2243  0.3093
    1Sil     Ob 1297   1.712   4.398  12.335 -0.3537 -0.7241  0.4535
    1Sil     Ob 1298   4.501   4.656  12.870 -0.3360  0.1950 -0.7537
    1Sil     Ob 1299   4.280   4.613  12.094  0.0686  0.0072 -0.5658
    1Sil     Ob 1300   1.666   4.558  12.531  0.2363 -0.1693  0.0326
    1Sil     Ob 1301   4.371   1.090  12.477  0.3445  0.7248 -0.4337
    1Sil     Ob 1302   1.839   1.124  13.036  0.0635 -0.2679  0.6526
    1Sil     Ob 1303   1.553   1.082  12.145 -0.2786 -0.3093 -0.3745
    1Sil     Ob 1304   1.785   4.412  12.076 -0.5398 -0.0366  0.1964
    1Sil     Ob 1305   4.331   4.461  12.857 -0.3861 -0.2122  0.6593
    1Sil     Ob 1306   1.505   4.400  12.462  0.4452 -0.2680  1.1713
    1Sil     Ob 1307   4.271   1.282  12.339 -0.0066  0.0966 -0.0702
    1Sil     Ob 1308   1.719   1.200  12.802 -0.0566  0.3128  0.5295
    1Sil     Ob 1309   4.577   1.268  11.973  0.2244 -0.1756  0.0780
    1Sil     Ob 1310   2.053   1.490  11.041  0.0897  0.0679 -0.2987
    1Sil     Ob 1311   2.005   1.447  12.164  0.4711  0.1154  0.1302
    1Sil     Ob 1312   1.982   1.520  11.925  0.1164  0.5276  0.2303
    1Sil     Ob 1313   2.057   1.980  11.045  0.2623  0.2001  0.3775
    1Sil     Ob 1314   2.015   1.939  12.173  0.0363 -0.3388  0.3708
    1Sil     Ob 1315   1.983   1.994  11.924 -0.5666 -0.2032 -0.4232
    1Sil     Ob 1316   2.057   2.466  11.040  0.4515 -0.8934 -0.4842
    1Sil     Ob 1317   2.008   2.419  12.162 -0.3363 -0.0056 -0.0967
    1Sil     Ob 1318   1.977   2.493  11.917  0.0142  0.4991 -0.4028
    1Sil     Ob 1319   2.059   2.947  11.037  0.5855  0.0117  0.0309
    1Sil     Ob 1320   1.989   2.905  12.177 -0.2699 -0.3222 -0.0170
    1Sil     Ob 1321   1.986   2.971  11.924  0.1579  0.0464  0.1971
    1Sil     Ob 1322   2.048   3.443  11.031  0.0962 -0.1372  0.3792
    1Sil     Ob 1323   1.997   3.388  12.172  0.6620 -0.7418  0.7885
    1Sil     Ob 1324   1.981   3.454  11.922 -0.1294 -0.1456  0.8676
    1Sil     Ob 1325   2.050   3.935  11.039  0.0718 -0.1821 -0.1184
    1Sil     Ob 1326   2.014   3.882  12.156 -0.3427  0.2416 -0.0015
    1Sil     Ob 1327   1.976   3.951  11.922 -0.6308 -0.2134  0.2634
    1Sil     Ob 1328   2.059   4.428  11.031 -0.0389 -0.2538  0.1863
    1Sil     Ob 1329   2.011   4.370  12.171 -0.5669  0.1296  0.4763
    1Sil     Ob 1330   1.978   4.428  11.919 -0.8062  0.5895  0.1237
    1Sil     Ob 1331   1.983   1.731  10.992 -0.1775 -0.0519  0.6180
    1Sil     Ob 1332   1.936   1.690  12.130  0.2340 -0.1160  0.0339
    1Sil     Ob 1333   1.982   2.218  11.001  0.6248  0.3495  0.8624
    1Sil     Ob 1334   1.942   2.178  12.111 -0.0018  0.5373 -0.5432
    1Sil     Ob 1335   1.981   2.703  10.986  0.0453  0.0067 -0.1230
    1Sil     Ob 1336   1.943   2.658  12.112  0.6136  0.9094  0.1136
    1Sil     Ob 1337   1.982   3.192  10.996 -0.0864  0.2687 -0.3772
    1Sil     Ob 1338   1.951   3.149  12.113  0.3550 -0.2614  0.2905
    1Sil     Ob 1339   1.972   3.688  10.987 -0.8572 -0.7300 -0.2300
    1Sil     Ob 1340   1.942   3.633  12.105 -1.1720 -0.3330 -0.2490
    1Sil     Ob 1341   1.985   4.166  10.998  0.3669  0.0785  0.0898
    1Sil     Ob 1342   1.955   4.130  12.117  0.1375  0.5777 -0.3130
    1Sil     Ob 1343   1.982   1.251  10.987 -0.7905  0.1503  0.1977
    1Sil     Ob 1344   1.955   1.200  12.105 -0.0694 -0.1335  0.5473
    1Sil    Sib 1345   2.786   1.597  10.922  0.0300  0.5652  0.2942
    1Sil    Sib 1346   2.214   1.544  11.684 -0.1547  0.0339 -0.0824
    1Sil    Sib 1347   2.483   1.486  11.252 -0.0676 -0.1057 -0.3006
    1Sil    Sib 1348   2.075   1.713  11.360  0.2877  0.0395 -0.1800
    1Sil    Sib 1349   2.557   1.720  11.709  0.8776  0.0405  0.1227
    1Sil    Sib 1350   2.288   1.720  10.918 -0.0724 -0.2059 -0.0789
    1Sil    Sib 1351   2.302   1.774  11.836  0.5765  0.3873 -0.1266
    1Sil    Sib 1352   2.076   1.828  11.078 -0.3738  0.1824 -0.0337
    1Sil    Sib 1353   2.572   1.738  11.406  0.0084 -0.0446 -0.0463
    1Sil    Sib 1354   2.234   1.468  11.403  0.0266 -0.1617  0.1432
    1Sil    Sib 1355   2.722   1.478  11.763  0.3401 -0.6222  0.1563
    1Sil    Sib 1356   2.482   1.489  10.934 -0.3433 -0.1299 -0.1806
    1Sil    Sib 1357   2.709   1.550  12.063 -0.2112  0.3961  0.1578
    1Sil    Sib 1358   2.144   1.580  12.831  0.0323  0.6158  0.1239
    1Sil    Sib 1359   2.425   1.492  12.486  0.2594 -0.2859 -0.2492
    1Sil    Sib 1360   1.994   1.726  12.510 -0.1307  0.3217  0.1725
    1Sil    Sib 1361   2.509   1.727  12.965 -0.3641  0.1374  0.3041
    1Sil    Sib 1362   2.292   1.716  12.130 -0.0323  0.1552  0.2463
    1Sil    Sib 1363   2.215   1.833  12.984  0.3086 -0.1652 -0.2017
    1Sil    Sib 1364   2.022   1.791  12.224 -0.0457  0.2684 -0.0929
    1Sil    Sib 1365   2.514   1.733  12.645 -0.5502 -0.1074 -0.5805
    1Sil    Sib 1366   2.145   1.479  12.555  0.3329 -0.2555  0.7187
    1Sil    Sib 1367   2.713   1.475  12.991  0.0630  0.0663 -0.3125
    1Sil    Sib 1368   2.448   1.475  12.185  0.0359  0.0856 -0.9500
    1Sil    Sib 1369   2.774   2.092  10.927 -0.3302 -0.4414 -0.3880
    1Sil    Sib 1370   2.220   2.026  11.691  0.2230  0.4950 -0.1954
    1Sil    Sib 1371   2.488   1.980  11.256 -0.1040  0.0101  0.1564
    1Sil    Sib 1372   2.083   2.204  11.356 -0.0984  0.2332  0.1225
    1Sil    Sib 1373   2.567   2.207  11.721 -0.3357 -0.0665 -0.0071
    1Sil    Sib 1374   2.286   2.217  10.927 -0.0718  0.3610 -0.2630
    1Sil    Sib 1375   2.301   2.265  11.845 -0.0817 -0.0063  0.2970
    1Sil    Sib 1376   2.075   2.312  11.085 -0.0903 -0.0504 -0.1790
    1Sil    Sib 1377   2.573   2.232  11.420  0.4907  0.1684 -0.3449
    1Sil    Sib 1378   2.239   1.952  11.408  0.3611 -0.1976  0.5165
    1Sil    Sib 1379   2.716   1.964  11.776  0.1596 -0.1220  0.3221
    1Sil    Sib 1380   2.474   1.979  10.949  0.0890  0.3071  0.0209
    1Sil    Sib 1381   2.707   2.029  12.069  0.0158  0.0524  0.2217
    1Sil    Sib 1382   2.153   2.077  12.844  0.2791  0.4891  0.4131
    1Sil    Sib 1383   2.430   1.979  12.496  0.1789 -0.1352 -0.2733
    1Sil    Sib 1384   1.993   2.216  12.507  0.6945  0.4354 -0.1469
    1Sil    Sib 1385   2.518   2.225  12.953  0.4388 -0.2463  0.1153
    1Sil    Sib 1386   2.287   2.205  12.135  0.3039  0.3935 -0.0339
    1Sil    Sib 1387   2.225   2.332  12.984 -0.2286 -0.5969 -0.5552
    1Sil    Sib 1388   2.009   2.270  12.217  0.9133  0.3310  0.1681
    1Sil    Sib 1389   2.510   2.227  12.647 -0.8662  0.3982 -0.3944
    1Sil    Sib 1390   2.152   1.969  12.564  0.0707 -0.5445 -0.0768
    1Sil    Sib 1391   2.706   1.963  12.990  0.3446  0.1675 -0.2397
    1Sil    Sib 1392   2.448   1.960  12.192 -0.0215  0.1316  0.1711
    1Sil    Sib 1393   2.781   2.570  10.926 -0.6150  0.4495 -0.0858
    1Sil    Sib 1394   2.206   2.506  11.692  0.0190 -0.4209  0.1257
    1Sil    Sib 1395   2.486   2.468  11.256  0.0162 -0.1193  0.0557
    1Sil    Sib 1396   2.074   2.696  11.343  0.5994  0.3035  0.0886
    1Sil    Sib 1397   2.562   2.683  11.714 -0.4656 -0.0929  0.2257
    1Sil    Sib 1398   2.295   2.696  10.906  0.1761 -0.2533  0.1145
    1Sil    Sib 1399   2.294   2.746  11.834 -0.0549 -0.1569 -0.2254
    1Sil    Sib 1400   2.074   2.796  11.069 -0.0290 -0.2678 -0.1390
    1Sil    Sib 1401   2.576   2.715  11.420 -0.1279 -0.2665 -0.1600
    1Sil    Sib 1402   2.232   2.454  11.399 -0.3004  0.2321 -0.2136
    1Sil    Sib 1403   2.724   2.445  11.779  0.2611  0.2137  0.3113
    1Sil    Sib 1404   2.477   2.468  10.941 -0.0385 -0.0059 -0.2823
    1Sil    Sib 1405   2.702   2.514  12.073 -0.3254  0.0448 -0.3735
    1Sil    Sib 1406   2.158   2.555  12.828  0.0632 -0.2201  0.0890
    1Sil    Sib 1407   2.429   2.471  12.485  0.0448 -0.2603 -0.0383
    1Sil    Sib 1408   1.983   2.698  12.504  0.0492  0.1318  0.2752
    1Sil    Sib 1409   2.521   2.705  12.953  0.4638  0.2114 -0.2022
    1Sil    Sib 1410   2.282   2.693  12.135 -0.2779 -0.4297  0.2348
    1Sil    Sib 1411   2.225   2.808  12.973  0.2588  0.0376  0.3509
    1Sil    Sib 1412   2.006   2.760  12.219  0.0408  0.1876 -0.1794
    1Sil    Sib 1413   2.520   2.704  12.641  0.1563 -0.7312  0.1324
    1Sil    Sib 1414   2.149   2.465  12.544  0.0742 -0.0683 -0.0100
    1Sil    Sib 1415   2.709   2.458  12.983  0.1843 -0.1284 -0.0211
    1Sil    Sib 1416   2.438   2.448  12.187  0.6986 -0.1324 -0.4740
    1Sil    Sib 1417   2.778   3.056  10.925  0.1419 -0.0966  0.1611
    1Sil    Sib 1418   2.216   3.005  11.690  0.3571 -0.0448 -0.8671
    1Sil    Sib 1419   2.489   2.953  11.260 -0.1334  0.1066 -0.1845
    1Sil    Sib 1420   2.075   3.186  11.353  0.7695  0.2203 -0.4066
    1Sil    Sib 1421   2.566   3.181  11.709  0.0483 -0.0492  0.0984
    1Sil    Sib 1422   2.299   3.186  10.921  0.4562  0.2235  0.1626
    1Sil    Sib 1423   2.302   3.242  11.844 -0.3078 -0.8242 -0.0447
    1Sil    Sib 1424   2.073   3.292  11.075 -0.3831  0.0085 -0.3473
    1Sil    Sib 1425   2.568   3.198  11.415  0.0225  0.0352  0.0297
    1Sil    Sib 1426   2.238   2.938  11.406  0.3165 -0.1370 -0.3488
    1Sil    Sib 1427   2.716   2.939  11.786 -0.0996  0.7447 -0.5459
    1Sil    Sib 1428   2.480   2.953  10.943  0.3371  0.1179 -0.1170
    1Sil    Sib 1429   2.697   3.000  12.076 -0.1882  0.1356  0.0129
    1Sil    Sib 1430   2.159   3.048  12.829  0.0768 -0.2382  0.1879
    1Sil    Sib 1431   2.421   2.955  12.490 -0.2068 -0.3239 -0.2031
    1Sil    Sib 1432   1.987   3.179  12.501 -0.0181  0.2706  0.0565
    1Sil    Sib 1433   2.521   3.201  12.954  0.5299 -0.2966 -0.0072
    1Sil    Sib 1434   2.293   3.180  12.141  0.6217 -0.7137  0.4452
    1Sil    Sib 1435   2.225   3.311  12.976  0.1429  0.0404  0.2404
    1Sil    Sib 1436   2.015   3.243  12.215  0.1050 -0.3284  0.0625
    1Sil    Sib 1437   2.510   3.194  12.638  0.0766  0.2274 -0.1397
    1Sil    Sib 1438   2.143   2.939  12.556  0.4595 -0.2904  0.4936
    1Sil    Sib 1439   2.709   2.940  12.981 -0.2443  0.8116 -0.3385
    1Sil    Sib 1440   2.440   2.938  12.192  0.1982 -0.4674 -0.1842
    1Sil    Sib 1441   2.793   3.540  10.924  0.1946 -0.6556 -0.1910
    1Sil    Sib 1442   2.211   3.490  11.692  0.8619 -0.2211 -0.2498
    1Sil    Sib 1443   2.490   3.432  11.260 -0.4688  0.0712 -0.1230
    1Sil    Sib 1444   2.081   3.677  11.351 -0.0102  0.6281 -0.2961
    1Sil    Sib 1445   2.568   3.661  11.722 -0.3052 -0.0132  0.3056
    1Sil    Sib 1446   2.296   3.674  10.911  0.8043 -0.1901  0.2909
    1Sil    Sib 1447   2.306   3.735  11.827 -0.0773  0.4591 -0.2313
    1Sil    Sib 1448   2.065   3.785  11.070 -0.1449  0.2764 -0.1311
    1Sil    Sib 1449   2.588   3.683  11.421  0.5846  0.2138  0.0480
    1Sil    Sib 1450   2.233   3.424  11.408  0.2612 -0.0263 -0.0506
    1Sil    Sib 1451   2.726   3.414  11.775 -0.0602 -0.2845 -0.0662
    1Sil    Sib 1452   2.490   3.442  10.939  0.2699  0.3792 -0.2210
    1Sil    Sib 1453   2.716   3.476  12.068  0.2308 -0.2414  0.1662
    1Sil    Sib 1454   2.156   3.538  12.815  0.1557  0.7322 -0.3063
    1Sil    Sib 1455   2.428   3.449  12.488  0.1747 -0.1462  0.3013
    1Sil    Sib 1456   1.997   3.677  12.503  0.2575  0.0574  0.1839
    1Sil    Sib 1457   2.513   3.683  12.964 -0.0391  0.2567  0.2068
    1Sil    Sib 1458   2.290   3.670  12.119 -0.2326 -0.4956  0.1566
    1Sil    Sib 1459   2.214   3.783  12.976 -0.2776 -0.1192  0.1108
    1Sil    Sib 1460   2.017   3.733  12.206  0.2464 -0.3482  0.3265
    1Sil    Sib 1461   2.519   3.678  12.642 -0.1340 -0.0221 -0.0624
    1Sil    Sib 1462   2.147   3.430  12.542 -0.0714  0.0835 -0.0259
    1Sil    Sib 1463   2.716   3.428  12.991 -0.0981  0.1466 -0.3707
    1Sil    Sib 1464   2.446   3.429  12.183 -0.1610  0.4893  0.2510
    1Sil    Sib 1465   2.790   4.030  10.919 -0.1123  0.2553 -0.6297
    1Sil    Sib 1466   2.209   3.974  11.687 -0.0976 -0.1630  0.2052
    1Sil    Sib 1467   2.495   3.924  11.260 -0.2100 -0.3383 -0.1756
    1Sil    Sib 1468   2.076   4.162  11.349  0.2585  0.6810 -0.5055
    1Sil    Sib 1469   2.557   4.137  11.712 -0.3083  0.1214 -0.0179
    1Sil    Sib 1470   2.301   4.165  10.915  0.0820 -0.4898  0.3919
    1Sil    Sib 1471   2.300   4.212  11.829 -0.2290 -0.3965 -0.2051
    1Sil    Sib 1472   2.076   4.273  11.074  0.0752  0.0692  0.1100
    1Sil    Sib 1473   2.580   4.170  11.412 -0.1870 -0.2781  0.0005
    1Sil    Sib 1474   2.235   3.917  11.395  0.1957 -0.4100 -0.0266
    1Sil    Sib 1475   2.729   3.904  11.765 -0.3072 -0.3365  0.1355
    1Sil    Sib 1476   2.483   3.933  10.947  0.2020  0.1079  0.2072
    1Sil    Sib 1477   2.714   3.967  12.060 -0.1606 -0.2515  0.0967
    1Sil    Sib 1478   2.156   4.017  12.825  0.1495 -0.5958 -0.7067
    1Sil    Sib 1479   2.442   3.930  12.479 -0.5677 -0.3099 -0.0119
    1Sil    Sib 1480   1.995   4.167  12.499  0.2116 -0.3799  0.0324
    1Sil    Sib 1481   2.518   4.172  12.959  0.4759 -0.0500 -0.3142
    1Sil    Sib 1482   2.289   4.157  12.125  0.3038  0.1993  0.0061
    1Sil    Sib 1483   2.218   4.272  12.978 -0.1491  0.6563  0.6432
    1Sil    Sib 1484   2.022   4.229  12.220 -0.4390 -0.1836 -0.2739
    1Sil    Sib 1485   2.525   4.168  12.639  0.1602 -0.5265  0.1048
    1Sil    Sib 1486   2.162   3.921  12.545 -0.1781 -0.2034 -0.2520
    1Sil    Sib 1487   2.710   3.920  12.998  0.0577 -0.1593 -0.0797
    1Sil    Sib 1488   2.450   3.910  12.176 -0.1651  0.0913 -0.0377
    1Sil    Sib 1489   2.795   4.526  10.914  0.3821 -0.1615  0.3582
    1Sil    Sib 1490   2.224   4.460  11.686  0.0790 -0.1048 -0.3874
    1Sil    Sib 1491   2.494   4.411  11.263 -0.5492  0.1507 -0.1918
    1Sil    Sib 1492   2.076   1.228  11.355  0.1429  0.2142  0.2132
    1Sil    Sib 1493   2.568   1.235  11.715  0.0220  0.1882  0.1803
    1Sil    Sib 1494   2.294   1.236  10.908 -0.1227  0.2898  0.1455
    1Sil    Sib 1495   2.300   1.298  11.826  0.0635  0.6101  0.2741
    1Sil    Sib 1496   2.077   1.339  11.076 -0.2290 -0.0794 -0.0704
    1Sil    Sib 1497   2.576   1.258  11.412  0.3825 -0.1518 -0.1108
    1Sil    Sib 1498   2.246   4.395  11.398 -0.4499  0.4196  0.1806
    1Sil    Sib 1499   2.721   4.395  11.773 -0.3848 -0.3807  0.0321
    1Sil    Sib 1500   2.497   4.411  10.942  0.2619 -0.4227  0.1531
    1Sil    Sib 1501   2.714   4.464  12.068 -0.2235 -0.1138  0.3806
    1Sil    Sib 1502   2.155   4.507  12.815  0.1519 -0.5389 -0.3976
    1Sil    Sib 1503   2.442   4.413  12.479  0.7852  0.2389 -0.3605
    1Sil    Sib 1504   1.994   1.235  12.487  0.2995  0.2529 -0.0762
    1Sil    Sib 1505   2.513   1.244  12.959 -0.0115 -0.0512 -0.3790
    1Sil    Sib 1506   2.292   1.234  12.117  0.0578 -0.0902  0.3522
    1Sil    Sib 1507   2.217   1.346  12.976  0.3902 -0.7807  0.1659
    1Sil    Sib 1508   2.020   1.302  12.205  0.5413  0.4103 -0.0039
    1Sil    Sib 1509   2.524   1.244  12.641 -0.1614  0.4257  0.0781
    1Sil    Sib 1510   2.159   4.408  12.538  0.3473 -0.1706 -0.6610
    1Sil    Sib 1511   2.707   4.405  12.982  0.0116  0.1367 -0.2404
    1Sil    Sib 1512   2.453   4.397  12.181 -0.1179 -0.0094 -0.1190
    1Sil    Sib 1513   3.564   1.592  10.928 -0.4306 -0.5923 -0.2722
    1Sil    Sib 1514   3.002   1.537  11.680  0.3118  0.1582 -0.6407
    1Sil    Sib 1515   3.274   1.490  11.256  0.1042  0.2323 -0.1174
    1Sil    Sib 1516   2.859   1.722  11.350 -0.0579 -0.0123  0.0580
    1Sil    Sib 1517   3.330   1.706  11.715 -0.1594 -0.7054 -0.0361
    1Sil    Sib 1518   3.074   1.718  10.907 -0.0954 -0.2419 -0.1581
    1Sil    Sib 1519   3.069   1.789  11.832 -0.4972  0.2820  0.0861
    1Sil    Sib 1520   2.852   1.828  11.067  0.0696  0.5356  0.0071
    1Sil    Sib 1521   3.352   1.742  11.417 -0.0244  0.0429 -0.2121
    1Sil    Sib 1522   3.024   1.475  11.392 -0.0594 -0.5030 -0.0950
    1Sil    Sib 1523   3.492   1.471  11.773  0.0516  0.0308 -0.0839
    1Sil    Sib 1524   3.274   1.488  10.938 -0.3142 -0.1834 -0.3295
    1Sil    Sib 1525   3.470   1.531  12.064  0.2561  0.2698 -0.1093
    1Sil    Sib 1526   2.933   1.580  12.837  0.4034 -0.3019  0.0600
    1Sil    Sib 1527   3.193   1.499  12.483 -0.1014  0.0538  0.0561
    1Sil    Sib 1528   2.767   1.721  12.501 -0.0147 -0.1697  0.2502
    1Sil    Sib 1529   3.293   1.736  12.956 -0.0486  0.1968  0.2531
    1Sil    Sib 1530   3.051   1.710  12.129  0.2632  0.5427  0.0009
    1Sil    Sib 1531   3.004   1.839  12.978  0.5294  0.4846  0.1674
    1Sil    Sib 1532   2.785   1.791  12.218 -0.3389  0.0587  0.5100
    1Sil    Sib 1533   3.284   1.733  12.643 -0.0267 -0.1866  0.2867
    1Sil    Sib 1534   2.922   1.488  12.556  0.1975 -0.2336  0.1972
    1Sil    Sib 1535   3.487   1.484  12.976  0.2260  0.1467 -0.2282
    1Sil    Sib 1536   3.218   1.468  12.181  0.1430 -0.6759 -0.0484
    1Sil    Sib 1537   3.551   2.083  10.925  0.0489  0.3494 -0.3404
    1Sil    Sib 1538   2.987   2.030  11.682  0.0477  0.0865 -0.3205
    1Sil    Sib 1539   3.264   1.981  11.258  0.0615 -0.0045  0.4614
    1Sil    Sib 1540   2.851   2.208  11.360  0.1131  0.3907 -0.1214
    1Sil    Sib 1541   3.334   2.193  11.706 -0.6319 -0.4832 -0.2434
    1Sil    Sib 1542   3.064   2.215  10.921  0.0818  0.5684  0.1360
    1Sil    Sib 1543   3.077   2.268  11.833  0.2518 -0.0860  0.8750
    1Sil    Sib 1544   2.839   2.314  11.084 -0.4618 -0.0273  0.3854
    1Sil    Sib 1545   3.350   2.231  11.407  0.1554 -0.3857  0.1690
    1Sil    Sib 1546   3.009   1.960  11.399 -0.0456 -0.2341  0.3959
    1Sil    Sib 1547   3.490   1.963  11.769  0.1477  0.0863  0.1234
    1Sil    Sib 1548   3.254   1.971  10.942  0.1177 -0.3831  0.2122
    1Sil    Sib 1549   3.485   2.020  12.064  0.1756  0.0737 -0.0364
    1Sil    Sib 1550   2.932   2.067  12.829  0.3295  0.3249 -0.1982
    1Sil    Sib 1551   3.205   1.992  12.485  0.0482  0.0680 -0.2683
    1Sil    Sib 1552   2.769   2.216  12.510  0.2025 -0.2266  0.4658
    1Sil    Sib 1553   3.289   2.223  12.963 -0.1780  0.1497  0.1808
    1Sil    Sib 1554   3.063   2.206  12.129  0.0075  0.6824  0.2316
    1Sil    Sib 1555   2.991   2.329  12.972  0.0040  0.3631 -0.3357
    1Sil    Sib 1556   2.786   2.272  12.218  0.2478  0.0782  0.2397
    1Sil    Sib 1557   3.280   2.230  12.645 -0.3510  0.1342 -0.3833
    1Sil    Sib 1558   2.929   1.971  12.554  0.2649 -0.0310  0.3283
    1Sil    Sib 1559   3.475   1.971  12.984 -0.3880  0.1336  0.1290
    1Sil    Sib 1560   3.218   1.958  12.183  0.3157 -0.2460  0.1996
    1Sil    Sib 1561   3.551   2.571  10.929 -0.0070 -0.2179  0.2263
    1Sil    Sib 1562   2.994   2.512  11.698 -0.4895 -0.5056  0.4489
    1Sil    Sib 1563   3.261   2.472  11.266 -0.0314  0.7459  0.5636
    1Sil    Sib 1564   2.852   2.694  11.364  0.3816 -0.4040 -0.0269
    1Sil    Sib 1565   3.348   2.696  11.712 -0.1018  0.5292  0.3640
    1Sil    Sib 1566   3.071   2.695  10.926  0.3671  0.4914  0.0375
    1Sil    Sib 1567   3.086   2.754  11.841  0.0965  0.1617 -0.0028
    1Sil    Sib 1568   2.845   2.794  11.086  0.3545  0.0192  0.3777
    1Sil    Sib 1569   3.357   2.720  11.419  0.1952  0.2840 -0.0494
    1Sil    Sib 1570   3.006   2.445  11.410 -0.3226 -0.2205 -0.2909
    1Sil    Sib 1571   3.494   2.443  11.773 -0.1390 -0.1145 -0.0283
    1Sil    Sib 1572   3.261   2.466  10.949 -0.2086  0.0380 -0.4192
    1Sil    Sib 1573   3.479   2.507  12.074 -0.1359 -0.4123 -0.3299
    1Sil    Sib 1574   2.931   2.568  12.827  0.2466  0.2993 -0.0805
    1Sil    Sib 1575   3.212   2.482  12.494 -0.3560  0.0400  1.4168
    1Sil    Sib 1576   2.766   2.702  12.491 -0.5289  0.1720 -0.3452
    1Sil    Sib 1577   3.292   2.713  12.968 -0.1806  0.1000  0.0899
    1Sil    Sib 1578   3.070   2.690  12.140  0.4413 -0.3148  0.2040
    1Sil    Sib 1579   2.992   2.825  12.982 -0.0939  0.2958 -0.1382
    1Sil    Sib 1580   2.788   2.764  12.213  0.1490 -0.8904  0.0200
    1Sil    Sib 1581   3.289   2.718  12.653  0.1911  0.0319  0.2830
    1Sil    Sib 1582   2.930   2.464  12.542  0.7363  0.1186  0.0643
    1Sil    Sib 1583   3.483   2.457  12.986 -0.1472 -0.5078 -0.0596
    1Sil    Sib 1584   3.225   2.445  12.192 -0.2246  0.2598 -0.1055
    1Sil    Sib 1585   3.571   3.042  10.933 -0.3057  0.2085  0.1371
    1Sil    Sib 1586   2.991   2.990  11.693 -0.0563  0.3911 -0.1731
    1Sil    Sib 1587   3.269   2.951  11.264 -0.2620  0.2861 -0.1993
    1Sil    Sib 1588   2.855   3.177  11.356  0.1460 -0.1413 -0.1918
    1Sil    Sib 1589   3.339   3.170  11.721 -0.6012 -0.3912 -0.6603
    1Sil    Sib 1590   3.070   3.173  10.924  0.1615 -0.0754 -0.5675
    1Sil    Sib 1591   3.071   3.239  11.830 -0.3557  0.1341  0.2370
    1Sil    Sib 1592   2.855   3.285  11.084 -0.2108 -0.6816 -0.0461
    1Sil    Sib 1593   3.352   3.202  11.420  0.0849 -0.3156  0.0885
    1Sil    Sib 1594   3.017   2.931  11.413 -0.1498  0.1415 -0.3193
    1Sil    Sib 1595   3.500   2.935  11.776  0.3124 -0.1799 -0.1516
    1Sil    Sib 1596   3.272   2.945  10.942  0.0664 -0.1064  0.2472
    1Sil    Sib 1597   3.487   2.996  12.077  0.0091  0.0020  0.0664
    1Sil    Sib 1598   2.921   3.053  12.831 -0.0912 -0.1374  0.4429
    1Sil    Sib 1599   3.208   2.957  12.497  0.1520 -0.1801 -0.2839
    1Sil    Sib 1600   2.774   3.186  12.504  0.0651  0.2793 -0.0189
    1Sil    Sib 1601   3.296   3.194  12.965 -0.1386 -0.1888  0.3157
    1Sil    Sib 1602   3.065   3.175  12.127  0.5008  0.1344 -0.1761
    1Sil    Sib 1603   2.995   3.310  12.983 -0.1455 -0.1717 -0.3986
    1Sil    Sib 1604   2.787   3.244  12.221 -0.1204 -0.4498  0.4785
    1Sil    Sib 1605   3.298   3.197  12.648  0.3646  0.3418 -0.2074
    1Sil    Sib 1606   2.928   2.941  12.554  0.0615 -0.7777 -0.3646
    1Sil    Sib 1607   3.487   2.943  12.990 -0.5868  0.3343  0.0177
    1Sil    Sib 1608   3.225   2.931  12.197  0.4265  0.4127 -0.1030
    1Sil    Sib 1609   3.556   3.535  10.917 -0.2660 -0.1411  0.1007
    1Sil    Sib 1610   2.994   3.490  11.679  0.0289 -0.4930  0.1370
    1Sil    Sib 1611   3.273   3.435  11.260  0.1715 -0.0411 -0.2954
    1Sil    Sib 1612   2.860   3.664  11.347  0.0077 -0.1850 -0.3856
    1Sil    Sib 1613   3.347   3.665  11.705  0.2387  0.1158 -0.0635
    1Sil    Sib 1614   3.078   3.664  10.921 -0.2086 -0.6983  0.2307
    1Sil    Sib 1615   3.094   3.728  11.825  0.7066 -0.0013 -0.0931
    1Sil    Sib 1616   2.851   3.766  11.079  0.0702 -0.3476 -0.7388
    1Sil    Sib 1617   3.362   3.684  11.406 -0.0650  0.2667 -0.1531
    1Sil    Sib 1618   3.014   3.423  11.400  0.2670 -0.0910 -0.1179
    1Sil    Sib 1619   3.497   3.408  11.776  0.1153 -0.0646 -0.0999
    1Sil    Sib 1620   3.263   3.436  10.949  0.2951 -0.4955  0.3934
    1Sil    Sib 1621   3.477   3.489  12.062  0.5935  0.3397 -0.0353
    1Sil    Sib 1622   2.941   3.541  12.832 -0.0606 -0.2423 -0.0514
    1Sil    Sib 1623   3.208   3.443  12.484 -0.1791  0.1303 -0.4062
    1Sil    Sib 1624   2.771   3.668  12.491 -0.4036  0.1853  0.1516
    1Sil    Sib 1625   3.291   3.681  12.958  0.4171  0.0101 -0.5750
    1Sil    Sib 1626   3.077   3.670  12.126  0.0588  0.4928 -0.4937
    1Sil    Sib 1627   2.995   3.787  12.993 -0.2939 -0.1109  0.0731
    1Sil    Sib 1628   2.806   3.730  12.203 -0.3259 -0.2158  0.0339
    1Sil    Sib 1629   3.285   3.687  12.644 -0.2405 -0.2400 -0.1456
    1Sil    Sib 1630   2.936   3.439  12.556 -0.0612 -0.0585  0.2781
    1Sil    Sib 1631   3.492   3.428  12.996 -0.0101  0.4258  0.1189
    1Sil    Sib 1632   3.225   3.417  12.186  0.2460 -0.0113 -0.2886
    1Sil    Sib 1633   3.569   4.022  10.923  0.3039 -0.1372 -0.1630
    1Sil    Sib 1634   2.999   3.971  11.680  0.0928  0.0677  0.1452
    1Sil    Sib 1635   3.275   3.925  11.268 -0.0381 -0.0043  0.0552
    1Sil    Sib 1636   2.859   4.160  11.349 -0.1108  0.0002 -0.6261
    1Sil    Sib 1637   3.342   4.150  11.718 -0.1352 -0.2673  0.2363
    1Sil    Sib 1638   3.076   4.153  10.917  0.3946  0.3731  0.3984
    1Sil    Sib 1639   3.083   4.209  11.831  0.5637 -0.2045 -0.0017
    1Sil    Sib 1640   2.859   4.266  11.071 -0.0734  0.1361  0.1900
    1Sil    Sib 1641   3.359   4.181  11.418  0.2880  0.2257  0.1709
    1Sil    Sib 1642   3.017   3.909  11.400 -0.1331  0.4365  0.2832
    1Sil    Sib 1643   3.500   3.906  11.771 -0.3659  0.4435 -0.5368
    1Sil    Sib 1644   3.277   3.920  10.954 -0.0674 -0.4998 -0.4644
    1Sil    Sib 1645   3.496   3.974  12.067  0.3586  0.0288 -0.2581
    1Sil    Sib 1646   2.928   4.017  12.832 -0.1542 -0.1842  0.0300
    1Sil    Sib 1647   3.211   3.925  12.488  0.0776  0.1090  0.0731
    1Sil    Sib 1648   2.776   4.158  12.500 -0.1885  0.3486 -0.1593
    1Sil    Sib 1649   3.297   4.167  12.959 -0.0722  0.1471  0.6300
    1Sil    Sib 1650   3.066   4.145  12.121 -0.1664  0.2028  0.3180
    1Sil    Sib 1651   2.998   4.282  12.980 -0.0742 -0.2085  0.3559
    1Sil    Sib 1652   2.787   4.215  12.210 -0.0431 -0.0600 -0.2203
    1Sil    Sib 1653   3.283   4.161  12.653  0.0239  0.4530  0.1825
    1Sil    Sib 1654   2.930   3.913  12.552  0.1815  0.4254 -0.4121
    1Sil    Sib 1655   3.486   3.912  12.988  0.2424  0.0100 -0.5424
    1Sil    Sib 1656   3.231   3.912  12.185  0.3072 -0.0055  0.5228
    1Sil    Sib 1657   3.566   4.513  10.924  0.1242  0.5507  0.0865
    1Sil    Sib 1658   2.993   4.454  11.688  0.4349  0.0570 -0.0734
    1Sil    Sib 1659   3.263   4.409  11.260 -0.0847 -0.2143  0.3916
    1Sil    Sib 1660   2.858   1.236  11.344  0.3887  0.2859 -0.1042
    1Sil    Sib 1661   3.339   1.228  11.709 -0.2503 -0.7222  0.1518
    1Sil    Sib 1662   3.083   4.638  10.906  0.2270  0.0333 -0.0016
    1Sil    Sib 1663   3.080   1.286  11.835  0.1736  0.3738  0.1943
    1Sil    Sib 1664   2.850   1.342  11.071 -0.3021 -0.2429 -0.3581
    1Sil    Sib 1665   3.348   1.257  11.414  0.1151  0.2721  0.3837
    1Sil    Sib 1666   3.009   4.398  11.405 -0.1628  0.0244  0.0304
    1Sil    Sib 1667   3.496   4.394  11.769 -0.0048  0.2370 -0.4419
    1Sil    Sib 1668   3.269   4.402  10.942  0.1598 -0.2415 -0.3660
    1Sil    Sib 1669   3.477   4.451  12.071 -0.3088 -0.4255  0.0260
    1Sil    Sib 1670   2.926   4.508  12.834 -0.4120  0.0615  0.4758
    1Sil    Sib 1671   3.210   4.419  12.486 -0.0086  0.1632  0.1538
    1Sil    Sib 1672   2.775   1.237  12.496  0.1553  0.0756 -0.8576
    1Sil    Sib 1673   3.292   1.246  12.959  0.0837  0.1115  0.0229
    1Sil    Sib 1674   3.058   1.220  12.135 -0.1234  0.1531  0.4236
    1Sil    Sib 1675   2.994   1.349  12.984 -0.0829  0.0672  0.2188
    1Sil    Sib 1676   2.784   1.301  12.213  0.4049 -0.2352 -0.1000
    1Sil    Sib 1677   3.293   1.254  12.643  0.1450  0.5593 -0.7856
    1Sil    Sib 1678   2.936   4.406  12.546  0.2680  0.5602 -0.1463
    1Sil    Sib 1679   3.483   4.408  12.986  0.1294 -0.5584  0.1663
    1Sil    Sib 1680   3.219   4.386  12.192  0.0991  0.0897 -0.0076
    1Sil    Sib 1681   4.340   1.595  10.919  0.1850  0.2776 -0.1153
    1Sil    Sib 1682   3.761   1.544  11.685  0.0291 -0.0847  0.3583
    1Sil    Sib 1683   4.042   1.491  11.257 -0.1082 -0.4154 -0.3971
    1Sil    Sib 1684   3.631   1.728  11.349  0.1025 -0.0879 -0.4416
    1Sil    Sib 1685   4.109   1.718  11.708  0.3122 -0.3741 -0.2952
    1Sil    Sib 1686   3.843   1.730  10.918 -0.1130 -0.0685  0.0485
    1Sil    Sib 1687   3.849   1.783  11.834 -0.1003  0.1022 -0.3359
    1Sil    Sib 1688   3.622   1.835  11.072 -0.1713 -0.2084  0.1153
    1Sil    Sib 1689   4.124   1.741  11.412 -0.0313 -0.2200  0.1475
    1Sil    Sib 1690   3.788   1.472  11.405 -0.1527 -0.5573  0.1763
    1Sil    Sib 1691   4.266   1.470  11.762 -0.0436  0.3706  0.4561
    1Sil    Sib 1692   4.040   1.494  10.944 -0.2834 -0.6088  0.1380
    1Sil    Sib 1693   4.256   1.542  12.052  0.3594  0.0290 -0.0220
    1Sil    Sib 1694   3.707   1.586  12.812  0.1374  0.0875  0.2970
    1Sil    Sib 1695   3.972   1.504  12.478 -0.0336  0.0842 -0.0805
    1Sil    Sib 1696   3.540   1.718  12.496  0.0273  0.1640 -0.1040
    1Sil    Sib 1697   4.063   1.736  12.954 -0.2798 -0.1397 -0.2925
    1Sil    Sib 1698   3.838   1.712  12.122 -0.2198 -0.1904  0.2797
    1Sil    Sib 1699   3.757   1.837  12.973  0.3885 -0.1053  0.6114
    1Sil    Sib 1700   3.564   1.778  12.205  0.0920  0.0381 -0.2438
    1Sil    Sib 1701   4.057   1.738  12.639 -0.3967 -0.2325 -0.1263
    1Sil    Sib 1702   3.698   1.478  12.537  0.2119 -0.1084 -0.1288
    1Sil    Sib 1703   4.254   1.484  12.983  0.1703 -0.2840 -0.1067
    1Sil    Sib 1704   3.997   1.466  12.177 -0.1954 -0.3785  0.1347
    1Sil    Sib 1705   4.333   2.082  10.928 -0.3004  0.1848  0.3524
    1Sil    Sib 1706   3.766   2.023  11.680 -0.0033  0.0110 -0.1115
    1Sil    Sib 1707   4.050   1.980  11.261  0.1903 -0.4095 -0.0385
    1Sil    Sib 1708   3.629   2.214  11.346 -0.0897 -0.2170 -0.0802
    1Sil    Sib 1709   4.120   2.206  11.715 -0.3375  0.0669 -0.0002
    1Sil    Sib 1710   3.845   2.212  10.905 -0.0469 -0.0248 -0.1924
    1Sil    Sib 1711   3.849   2.265  11.830  0.1734  0.4140 -0.1220
    1Sil    Sib 1712   3.619   2.319  11.069 -0.3796 -0.0604 -0.2489
    1Sil    Sib 1713   4.135   2.230  11.418  0.0280  0.0934  0.0785
    1Sil    Sib 1714   3.788   1.968  11.394 -0.2246 -0.0770  0.2607
    1Sil    Sib 1715   4.271   1.960  11.774  0.1300 -0.3714 -0.2536
    1Sil    Sib 1716   4.035   1.980  10.941  0.2625  0.0185 -0.3560
    1Sil    Sib 1717   4.252   2.031  12.069 -0.3395  0.1005 -0.3089
    1Sil    Sib 1718   3.697   2.074  12.826 -0.6500  0.2440 -0.0519
    1Sil    Sib 1719   3.975   1.988  12.481  0.3981 -0.4186  0.2018
    1Sil    Sib 1720   3.538   2.195  12.503 -0.3242  0.0034 -0.0580
    1Sil    Sib 1721   4.069   2.226  12.955 -0.2693 -0.2894 -0.2864
    1Sil    Sib 1722   3.834   2.203  12.125 -0.1822  0.1618  0.0825
    1Sil    Sib 1723   3.769   2.327  12.983  0.4216  0.3494  0.0779
    1Sil    Sib 1724   3.564   2.266  12.221 -0.4878 -0.1840 -0.1561
    1Sil    Sib 1725   4.057   2.224  12.641  0.1374 -0.1547 -0.1638
    1Sil    Sib 1726   3.694   1.958  12.552  0.2458 -0.3404 -0.3987
    1Sil    Sib 1727   4.259   1.971  12.979 -0.4169  0.7525  0.3559
    1Sil    Sib 1728   3.992   1.961  12.183  0.0205  0.2090 -0.4701
    1Sil    Sib 1729   4.344   2.570  10.907  0.1612  0.3595 -0.2239
    1Sil    Sib 1730   3.769   2.517  11.683  0.0500  0.1302 -0.2661
    1Sil    Sib 1731   4.048   2.458  11.251  0.1658  0.5009 -0.2348
    1Sil    Sib 1732   3.644   2.698  11.362  0.3108  0.4144 -0.0781
    1Sil    Sib 1733   4.113   2.682  11.708  0.3194  0.1286 -0.0585
    1Sil    Sib 1734   3.847   2.697  10.918 -0.1873 -0.3319  0.0780
    1Sil    Sib 1735   3.857   2.757  11.830  0.1361  0.1129 -0.6308
    1Sil    Sib 1736   3.633   2.796  11.083  0.0791 -0.3104  0.3573
    1Sil    Sib 1737   4.124   2.707  11.411 -0.0961 -0.2411  0.2128
    1Sil    Sib 1738   3.790   2.446  11.407 -0.2791  0.1651 -0.2761
    1Sil    Sib 1739   4.279   2.444  11.776 -0.0495  0.2115 -0.1820
    1Sil    Sib 1740   4.043   2.460  10.933 -0.1830  0.2034  0.0680
    1Sil    Sib 1741   4.262   2.505  12.071  0.2626 -0.1737  0.2142
    1Sil    Sib 1742   3.704   2.562  12.824 -0.1856  0.2939  0.2575
    1Sil    Sib 1743   3.975   2.469  12.482 -0.3329 -0.4945 -0.0255
    1Sil    Sib 1744   3.550   2.689  12.502 -0.2048  0.7179 -0.0223
    1Sil    Sib 1745   4.071   2.713  12.969 -0.3473 -0.3453 -0.0214
    1Sil    Sib 1746   3.842   2.689  12.125 -0.3259  0.5382  0.2477
    1Sil    Sib 1747   3.776   2.822  12.977  0.2755 -0.4769 -0.0113
    1Sil    Sib 1748   3.573   2.758  12.215  0.1768  0.7289  0.0836
    1Sil    Sib 1749   4.055   2.706  12.652  0.2711  0.0536  0.1113
    1Sil    Sib 1750   3.702   2.443  12.546  0.4714  0.2318  0.1174
    1Sil    Sib 1751   4.263   2.456  12.990 -0.1057 -0.4027  0.2557
    1Sil    Sib 1752   4.000   2.442  12.192  0.4755  0.2983  0.2182
    1Sil    Sib 1753   4.342   3.056  10.918  0.0944  0.3696  0.4059
    1Sil    Sib 1754   3.771   3.002  11.691 -0.1223 -0.3443 -0.2127
    1Sil    Sib 1755   4.046   2.946  11.263 -0.3281  0.1801 -0.1892
    1Sil    Sib 1756   3.627   3.184  11.354  0.2122 -0.4427 -0.3385
    1Sil    Sib 1757   4.110   3.171  11.711  0.0684  0.0079 -0.4863
    1Sil    Sib 1758   3.848   3.173  10.923 -0.0378 -0.6011 -0.0628
    1Sil    Sib 1759   3.860   3.234  11.839 -0.2419 -0.1599 -0.4502
    1Sil    Sib 1760   3.626   3.282  11.076 -0.4877  0.2097  0.0797
    1Sil    Sib 1761   4.131   3.192  11.415 -0.5613 -0.2153 -0.4703
    1Sil    Sib 1762   3.784   2.942  11.401 -0.1860 -0.0275  0.1077
    1Sil    Sib 1763   4.271   2.933  11.764 -0.0651 -0.0230  0.2371
    1Sil    Sib 1764   4.045   2.949  10.952  0.0245  0.5495  0.3164
    1Sil    Sib 1765   4.258   3.002  12.057 -0.6000 -0.2665  0.3657
    1Sil    Sib 1766   3.710   3.051  12.832 -0.0703 -0.3593 -0.1801
    1Sil    Sib 1767   3.981   2.953  12.487 -0.0987 -0.0939 -0.0136
    1Sil    Sib 1768   3.549   3.183  12.496 -0.1808  0.2731  0.0421
    1Sil    Sib 1769   4.067   3.193  12.959 -0.4063  0.0325  0.2940
    1Sil    Sib 1770   3.839   3.181  12.132 -0.1392 -0.0717 -0.1116
    1Sil    Sib 1771   3.776   3.303  12.984 -0.1892 -0.0056  0.0022
    1Sil    Sib 1772   3.569   3.253  12.214  0.0238  0.0621 -0.0886
    1Sil    Sib 1773   4.071   3.195  12.641 -0.1008  0.0059 -0.1536
    1Sil    Sib 1774   3.703   2.947  12.551  0.2428  0.4590  0.1893
    1Sil    Sib 1775   4.263   2.945  12.994  0.0020 -0.0258 -0.0667
    1Sil    Sib 1776   4.001   2.940  12.190  0.4081  0.4312 -0.3697
    1Sil    Sib 1777   4.337   3.545  10.923  0.1589  0.1049  0.0923
    1Sil    Sib 1778   3.765   3.478  11.692  0.8243  0.0716 -0.5450
    1Sil    Sib 1779   4.045   3.428  11.269 -0.0456 -0.4135 -0.1444
    1Sil    Sib 1780   3.647   3.671  11.351  0.0165  0.0955 -0.2098
    1Sil    Sib 1781   4.125   3.653  11.726 -0.3375  0.0424 -0.4588
    1Sil    Sib 1782   3.846   3.666  10.914 -0.1542  0.0580 -0.0508
    1Sil    Sib 1783   3.853   3.713  11.834 -0.1734  0.0218 -0.1033
    1Sil    Sib 1784   3.628   3.771  11.075  0.2188  0.6278  0.0761
    1Sil    Sib 1785   4.137   3.689  11.420  0.1129 -0.0084  0.0567
    1Sil    Sib 1786   3.790   3.417  11.412  0.0361  0.1439  0.0198
    1Sil    Sib 1787   4.274   3.410  11.772 -0.0859  0.7606  0.1371
    1Sil    Sib 1788   4.038   3.431  10.953  0.4198 -0.3521 -0.1681
    1Sil    Sib 1789   4.263   3.479  12.061  0.1133 -0.1231  0.2540
    1Sil    Sib 1790   3.712   3.525  12.828  0.1123 -0.2990  0.2354
    1Sil    Sib 1791   3.980   3.448  12.482 -0.0369  0.0558  0.2280
    1Sil    Sib 1792   3.539   3.658  12.506  0.2194 -0.2147 -0.0769
    1Sil    Sib 1793   4.070   3.675  12.954 -0.1157 -0.3495  0.1587
    1Sil    Sib 1794   3.834   3.655  12.135 -0.1905 -0.4634  0.0983
    1Sil    Sib 1795   3.768   3.778  12.977  0.1894 -0.1926  0.4688
    1Sil    Sib 1796   3.553   3.722  12.223 -0.0699 -0.0661 -0.2160
    1Sil    Sib 1797   4.065   3.690  12.641 -0.3735 -0.3299  0.1259
    1Sil    Sib 1798   3.709   3.423  12.543 -0.2496 -0.3629 -0.1250
    1Sil    Sib 1799   4.265   3.425  12.985  0.3674  0.2190  0.2310
    1Sil    Sib 1800   3.994   3.421  12.184  0.1624  0.3381 -0.4506
    1Sil    Sib 1801   4.340   4.026  10.922 -0.1511  0.0155 -0.2030
    1Sil    Sib 1802   3.782   3.964  11.693 -0.2464  0.1459 -0.3420
    1Sil    Sib 1803   4.048   3.920  11.257  0.1208  0.3436  0.0211
    1Sil    Sib 1804   3.630   4.155  11.354 -0.4899  0.4251 -0.3387
    1Sil    Sib 1805   4.115   4.140  11.704 -0.1707  0.0309 -0.4224
    1Sil    Sib 1806   3.845   4.153  10.918  0.0619 -0.5669  0.3750
    1Sil    Sib 1807   3.866   4.207  11.843  0.0201 -0.4533 -0.3443
    1Sil    Sib 1808   3.625   4.255  11.070  0.2044  0.1551  0.2374
    1Sil    Sib 1809   4.131   4.177  11.412 -0.2531 -0.5502  0.1041
    1Sil    Sib 1810   3.791   3.909  11.408 -0.0953 -0.1422  0.0043
    1Sil    Sib 1811   4.283   3.895  11.773  0.3067  0.4017  0.2399
    1Sil    Sib 1812   4.042   3.914  10.947 -1.1381 -0.1808  0.7619
    1Sil    Sib 1813   4.255   3.965  12.060 -0.2241  0.5178 -0.1985
    1Sil    Sib 1814   3.705   4.014  12.818  0.6407  0.2090 -0.1481
    1Sil    Sib 1815   3.984   3.938  12.483  0.5005  0.0876 -0.3387
    1Sil    Sib 1816   3.543   4.149  12.504  0.1383 -0.1922 -0.0358
    1Sil    Sib 1817   4.062   4.160  12.956  0.2758  0.1606 -0.1670
    1Sil    Sib 1818   3.848   4.149  12.141  0.1947  0.2853 -0.1903
    1Sil    Sib 1819   3.768   4.278  12.977  0.3975  0.1187 -0.0524
    1Sil    Sib 1820   3.578   4.219  12.216  0.3065  0.5041 -0.0804
    1Sil    Sib 1821   4.068   4.175  12.634 -0.0430 -0.2100  0.0325
    1Sil    Sib 1822   3.704   3.913  12.550 -0.1772  0.0166 -0.0586
    1Sil    Sib 1823   4.265   3.921  12.971 -0.1309  0.0176  0.3472
    1Sil    Sib 1824   4.001   3.897  12.185  0.1986  0.0984 -0.6210
    1Sil    Sib 1825   4.339   4.510  10.923  0.0929 -0.1075 -0.3503
    1Sil    Sib 1826   3.772   4.450  11.686  0.3044  0.0045 -0.2888
    1Sil    Sib 1827   4.050   4.416  11.253 -0.0776 -0.0557  0.3130
    1Sil    Sib 1828   3.618   1.228  11.359  0.2503 -0.2662  0.0133
    1Sil    Sib 1829   4.101   1.224  11.706  0.1970  0.2284  0.0190
    1Sil    Sib 1830   3.846   4.645  10.920 -0.0572 -0.1889  0.3075
    1Sil    Sib 1831   3.850   1.293  11.825 -0.0123 -0.0295 -0.2691
    1Sil    Sib 1832   3.633   1.338  11.079 -0.1167  0.0703  0.1898
    1Sil    Sib 1833   4.128   1.257  11.414  0.5433  0.1267 -0.4575
    1Sil    Sib 1834   3.789   4.399  11.394 -0.4707 -0.3914  0.2378
    1Sil    Sib 1835   4.264   4.391  11.758  0.4063 -0.0258 -0.1855
    1Sil    Sib 1836   4.038   4.411  10.936  0.5176  0.0598  0.1416
    1Sil    Sib 1837   4.250   4.461  12.059 -0.0605 -0.2627 -0.1606
    1Sil    Sib 1838   3.702   4.511  12.828 -0.0857  0.3792  0.7309
    1Sil    Sib 1839   3.967   4.425  12.479 -0.2633 -0.4614 -0.3877
    1Sil    Sib 1840   3.543   1.233  12.493 -0.1716  0.2682 -0.0293
    1Sil    Sib 1841   4.074   1.246  12.948 -0.1654  0.0054  0.4246
    1Sil    Sib 1842   3.840   1.225  12.120  0.1077 -0.2185 -0.1305
    1Sil    Sib 1843   3.775   1.365  12.966  0.0169 -0.1287  0.1118
    1Sil    Sib 1844   3.561   1.293  12.207 -0.0212  0.2781 -0.0394
    1Sil    Sib 1845   4.059   1.253  12.636 -0.2576 -0.5040 -0.1877
    1Sil    Sib 1846   3.699   4.395  12.556  0.7039 -0.5627  0.1430
    1Sil    Sib 1847   4.258   4.390  12.978  0.0269  0.6216  0.3076
    1Sil    Sib 1848   3.998   4.397  12.184 -0.5922  0.4575 -0.3542
    1Sil    Sib 1849   2.005   1.593  10.930  0.2543 -0.2227  0.0094
    1Sil    Sib 1850   4.537   1.550  11.681 -0.0613  0.0262 -0.1821
    1Sil    Sib 1851   1.715   1.489  11.249 -0.2837 -0.2268 -0.2125
    1Sil    Sib 1852   4.402   1.728  11.346  0.5418  0.2634  0.0026
    1Sil    Sib 1853   4.886   1.726  11.714 -0.0967 -0.4438  0.6163
    1Sil    Sib 1854   4.619   1.724  10.910 -0.0763  0.2115  0.4645
    1Sil    Sib 1855   4.619   1.790  11.838  0.0232  0.2048  0.1490
    1Sil    Sib 1856   4.401   1.825  11.070  0.0352 -0.1757 -0.3857
    1Sil    Sib 1857   1.799   1.741  11.413  0.3694 -0.4688  0.1361
    1Sil    Sib 1858   4.566   1.486  11.398 -0.1349 -0.0679  0.5518
    1Sil    Sib 1859   1.943   1.476  11.774 -0.2147  0.0206  0.1338
    1Sil    Sib 1860   1.707   1.491  10.935 -0.3365 -0.0469  0.2778
    1Sil    Sib 1861   1.927   1.544  12.072  0.1605  0.1406 -0.1644
    1Sil    Sib 1862   4.475   1.588  12.825  0.0426  0.5243  0.1169
    1Sil    Sib 1863   1.650   1.493  12.490 -0.0147  0.0595 -0.4694
    1Sil    Sib 1864   4.317   1.719  12.494 -0.1743 -0.5669 -0.2355
    1Sil    Sib 1865   4.839   1.728  12.954  0.0491 -0.0713 -0.5814
    1Sil    Sib 1866   4.613   1.719  12.133 -0.0867  0.5529  0.3561
    1Sil    Sib 1867   4.543   1.839  12.970 -0.0103  0.3384 -0.2139
    1Sil    Sib 1868   4.331   1.789  12.213  0.3488 -0.2416  0.4114
    1Sil    Sib 1869   1.738   1.726  12.640 -0.2790  0.0466 -0.0139
    1Sil    Sib 1870   4.465   1.483  12.542 -0.0181 -0.3080  0.0289
    1Sil    Sib 1871   1.930   1.473  12.984 -0.4453  0.0142  0.1016
    1Sil    Sib 1872   1.669   1.470  12.191  0.1102 -0.2546  0.1262
    1Sil    Sib 1873   2.010   2.084  10.932  0.1724  0.1115 -0.1624
    1Sil    Sib 1874   4.538   2.030  11.679  0.1561  0.1796 -0.0531
    1Sil    Sib 1875   1.725   1.974  11.257  0.0266  0.1082  0.4457
    1Sil    Sib 1876   4.407   2.216  11.342  0.0677 -0.1021  0.0252
    1Sil    Sib 1877   4.890   2.196  11.719  0.1090  0.1901 -0.0397
    1Sil    Sib 1878   4.629   2.206  10.924  0.0906  0.3436  0.3601
    1Sil    Sib 1879   4.623   2.268  11.825  0.0350  0.1830  0.9236
    1Sil    Sib 1880   4.407   2.327  11.067  0.0244 -0.0599  0.0729
    1Sil    Sib 1881   1.801   2.225  11.418  0.1129 -0.2041  0.1088
    1Sil    Sib 1882   4.566   1.968  11.394  0.1806  0.7088  0.5315
    1Sil    Sib 1883   1.950   1.963  11.773  0.0447 -0.2683  0.6827
    1Sil    Sib 1884   4.821   1.970  10.947 -0.4860 -0.1062 -0.3323
    1Sil    Sib 1885   1.929   2.028  12.072 -0.2540 -0.0744 -0.2671
    1Sil    Sib 1886   4.487   2.073  12.828 -0.0411  0.4291 -0.2083
    1Sil    Sib 1887   1.648   1.979  12.484 -0.3588 -0.2456 -0.2150
    1Sil    Sib 1888   4.316   2.216  12.500 -0.0874 -0.0941 -0.0295
    1Sil    Sib 1889   4.841   2.223  12.966  0.1979  0.0777  0.2986
    1Sil    Sib 1890   4.614   2.207  12.115  0.0074 -0.1657 -0.0329
    1Sil    Sib 1891   4.543   2.322  12.980  0.2411  0.3545 -0.0177
    1Sil    Sib 1892   4.348   2.272  12.218 -0.0019 -0.2908 -0.2750
    1Sil    Sib 1893   1.739   2.218  12.651 -0.0041 -0.1077  0.3237
    1Sil    Sib 1894   4.471   1.971  12.545  0.0481  0.4156  0.0613
    1Sil    Sib 1895   1.931   1.963  12.999  0.2185 -0.4347  0.4311
    1Sil    Sib 1896   4.775   1.964  12.183 -0.4711 -0.2265 -0.1791
    1Sil    Sib 1897   2.016   2.560  10.928  0.4044 -0.7207 -0.2200
    1Sil    Sib 1898   4.546   2.520  11.679 -0.1816  0.1663  0.3287
    1Sil    Sib 1899   1.716   2.464  11.255 -0.4719 -0.2588 -0.0655
    1Sil    Sib 1900   4.407   2.698  11.347  0.0353  0.3643  0.0545
    1Sil    Sib 1901   4.899   2.696  11.700  0.0165  0.2365 -0.0485
    1Sil    Sib 1902   4.625   2.697  10.910 -0.1093  0.1989 -0.0956
    1Sil    Sib 1903   4.648   2.750  11.838 -0.1237  0.3364  0.0714
    1Sil    Sib 1904   4.403   2.798  11.066  0.2139  0.4406  0.2336
    1Sil    Sib 1905   1.797   2.714  11.407  0.0958  0.3181 -0.2842
    1Sil    Sib 1906   4.567   2.457  11.401  0.8029 -0.0568  0.2730
    1Sil    Sib 1907   1.938   2.447  11.771 -0.2058 -0.4197  0.3998
    1Sil    Sib 1908   4.826   2.456  10.941 -0.4161 -0.7274  0.1409
    1Sil    Sib 1909   1.929   2.510  12.067 -0.0101  0.2845  0.1250
    1Sil    Sib 1910   4.484   2.561  12.833 -0.0093  0.1618 -0.0770
    1Sil    Sib 1911   1.646   2.466  12.490 -0.2744  0.2913  0.0717
    1Sil    Sib 1912   4.310   2.695  12.506 -0.2879 -0.0355  0.0499
    1Sil    Sib 1913   4.846   2.713  12.958  0.2023 -0.2005 -0.0079
    1Sil    Sib 1914   4.628   2.690  12.133 -0.0069  0.4314 -0.2726
    1Sil    Sib 1915   4.552   2.814  12.980  0.0055 -0.2566 -0.2393
    1Sil    Sib 1916   4.341   2.757  12.216  0.2434 -0.4088  0.3568
    1Sil    Sib 1917   1.728   2.711  12.646  0.1853  0.7709 -0.0432
    1Sil    Sib 1918   4.467   2.463  12.552 -0.3094 -0.7375 -0.0166
    1Sil    Sib 1919   1.935   2.454  12.989  0.0186 -0.2098 -0.6288
    1Sil    Sib 1920   4.774   2.444  12.196  0.4733  0.0488  0.4297
    1Sil    Sib 1921   2.011   3.058  10.925  0.1153  0.2893  0.2682
    1Sil    Sib 1922   4.560   2.992  11.689  0.0835  0.1270  0.3126
    1Sil    Sib 1923   1.717   2.951  11.255 -0.5531 -0.1973  0.1147
    1Sil    Sib 1924   4.414   3.179  11.357 -0.0468 -0.0554 -0.2610
    1Sil    Sib 1925   4.888   3.178  11.708 -0.2090 -0.2629 -0.3073
    1Sil    Sib 1926   4.622   3.185  10.901 -0.0365  0.0094 -0.0457
    1Sil    Sib 1927   4.623   3.232  11.830 -0.2695  0.0183  0.2068
    1Sil    Sib 1928   4.409   3.291  11.079 -0.0422  0.1128  0.3996
    1Sil    Sib 1929   1.798   3.207  11.411 -0.6394  0.1186  0.1585
    1Sil    Sib 1930   4.572   2.934  11.400 -0.3059  0.5064  0.0398
    1Sil    Sib 1931   1.949   2.945  11.770  0.2584  0.1855 -0.1043
    1Sil    Sib 1932   4.818   2.950  10.943  0.0183 -0.3565  0.0575
    1Sil    Sib 1933   1.929   3.001  12.070  0.5678 -0.2454 -0.6673
    1Sil    Sib 1934   4.482   3.046  12.822 -0.2962  0.0160 -0.3329
    1Sil    Sib 1935   1.652   2.956  12.493 -0.0256 -0.3520  0.6653
    1Sil    Sib 1936   4.316   3.183  12.491 -0.0429  0.4561 -0.2348
    1Sil    Sib 1937   4.849   3.191  12.956  0.1061 -0.0884 -0.2692
    1Sil    Sib 1938   4.614   3.172  12.124  0.5386 -0.0932  0.6735
    1Sil    Sib 1939   4.558   3.307  12.979  0.3957  0.3700 -0.0710
    1Sil    Sib 1940   4.335   3.244  12.204  0.0476 -0.1175 -0.2061
    1Sil    Sib 1941   1.729   3.195  12.643 -0.1686 -0.7256 -0.4148
    1Sil    Sib 1942   4.472   2.943  12.539 -0.1112 -0.2506 -0.6011
    1Sil    Sib 1943   1.941   2.943  12.990  0.3366 -0.1663 -0.3137
    1Sil    Sib 1944   4.776   2.930  12.185  0.1877 -0.0234 -0.1012
    1Sil    Sib 1945   2.005   3.546  10.918  0.1846 -0.2095 -0.1133
    1Sil    Sib 1946   4.545   3.484  11.687 -0.2891 -0.2355  0.4488
    1Sil    Sib 1947   1.715   3.439  11.246 -1.1216 -0.4335 -0.1266
    1Sil    Sib 1948   4.412   3.667  11.361 -0.0859  0.1008  0.0553
    1Sil    Sib 1949   4.895   3.663  11.715 -0.3745 -0.0395  0.3532
    1Sil    Sib 1950   4.629   3.673  10.906  0.4236 -0.7670 -0.0209
    1Sil    Sib 1951   4.637   3.725  11.830 -0.0840 -0.2381  0.1080
    1Sil    Sib 1952   4.411   3.773  11.079  0.2023 -0.0451 -0.2623
    1Sil    Sib 1953   1.808   3.690  11.415  0.4720 -0.0655 -0.0406
    1Sil    Sib 1954   4.572   3.422  11.405 -0.2640  0.3049 -0.0972
    1Sil    Sib 1955   1.943   3.418  11.775  0.2953 -0.3388  0.2548
    1Sil    Sib 1956   4.814   3.432  10.931 -0.5770  0.0475  0.2095
    1Sil    Sib 1957   1.926   3.480  12.068  0.2604  0.1844 -0.1383
    1Sil    Sib 1958   4.482   3.530  12.823 -0.0546 -0.2281  0.3961
    1Sil    Sib 1959   1.648   3.441  12.479  0.2181 -0.6433  0.0187
    1Sil    Sib 1960   4.327   3.665  12.502  0.3956  0.1180 -0.2500
    1Sil    Sib 1961   4.839   3.672  12.950 -0.2164 -0.1480 -0.0907
    1Sil    Sib 1962   4.614   3.667  12.121 -0.1270 -0.1104 -0.2131
    1Sil    Sib 1963   4.548   3.790  12.960 -0.1505  0.1018 -0.0557
    1Sil    Sib 1964   4.344   3.724  12.211  0.4142 -0.1643 -0.4936
    1Sil    Sib 1965   1.736   3.679  12.642 -0.5333 -0.5914  0.2581
    1Sil    Sib 1966   4.476   3.422  12.550 -0.1675  0.1514 -0.3134
    1Sil    Sib 1967   1.934   3.432  12.980  0.2446  0.2942 -0.2243
    1Sil    Sib 1968   4.774   3.414  12.177 -0.2775  0.2315 -0.4632
    1Sil    Sib 1969   2.012   4.037  10.929 -0.1271  0.0678  0.2740
    1Sil    Sib 1970   4.553   3.968  11.680  0.1731  0.2519  0.0838
    1Sil    Sib 1971   1.721   3.925  11.260  0.3702  0.3198 -0.0564
    1Sil    Sib 1972   4.414   4.164  11.346 -0.1947  0.6752  0.0999
    1Sil    Sib 1973   4.885   4.154  11.713  0.0280  0.2864 -0.0421
    1Sil    Sib 1974   4.616   4.158  10.906 -0.0637  0.0669 -0.1391
    1Sil    Sib 1975   4.616   4.213  11.830  0.1228 -0.0247 -0.3959
    1Sil    Sib 1976   4.413   4.260  11.072 -0.3191 -0.1767  0.0468
    1Sil    Sib 1977   1.796   4.174  11.413 -0.0891  0.2929  0.2450
    1Sil    Sib 1978   4.563   3.908  11.399 -0.5512  0.3313 -0.2676
    1Sil    Sib 1979   1.937   3.914  11.775 -0.0821 -0.3412 -0.1301
    1Sil    Sib 1980   4.812   3.929  10.946 -0.4577  0.3509 -0.3228
    1Sil    Sib 1981   1.931   3.977  12.067  0.2867 -0.0773  0.0295
    1Sil    Sib 1982   4.488   4.024  12.809  0.0764  0.0947 -0.2639
    1Sil    Sib 1983   1.646   3.932  12.487 -0.4888  0.1037 -0.1349
    1Sil    Sib 1984   4.316   4.161  12.489 -0.3463  0.0612  0.5942
    1Sil    Sib 1985   4.841   4.160  12.957 -0.1278 -0.7818 -0.0691
    1Sil    Sib 1986   4.607   4.148  12.126 -0.0676  0.0373  0.0058
    1Sil    Sib 1987   4.541   4.268  12.968  0.1528  0.1853 -0.1903
    1Sil    Sib 1988   4.332   4.221  12.205  0.1900  0.3849  0.0929
    1Sil    Sib 1989   1.738   4.170  12.640 -0.0831 -0.2118  0.0602
    1Sil    Sib 1990   4.470   3.923  12.541 -0.2774  0.2152  0.5381
    1Sil    Sib 1991   1.927   3.901  12.978 -0.1307 -0.2690 -0.0691
    1Sil    Sib 1992   4.769   3.903  12.189  0.1897 -0.0018  0.5177
    1Sil    Sib 1993   2.012   4.523  10.916 -0.6052 -0.0703  0.1000
    1Sil    Sib 1994   4.543   4.461  11.677 -0.0859  0.4132  0.3927
    1Sil    Sib 1995   1.717   4.405  11.252  0.3899 -0.1111 -0.6486
    1Sil    Sib 1996   4.403   1.241  11.356 -0.2446 -0.2423 -0.7270
    1Sil    Sib 1997   1.781   1.237  11.708  0.5689  0.1699 -0.0661
    1Sil    Sib 1998   4.626   4.647  10.912  0.1073  0.0674 -0.0646
    1Sil    Sib 1999   4.618   1.301  11.826  0.1957  0.1392 -0.0152
    1Sil    Sib 2000   4.404   1.340  11.074 -0.3539  0.1955  0.2919
    1Sil    Sib 2001   1.797   1.247  11.408  0.3787 -0.2152 -0.8517
    1Sil    Sib 2002   4.566   4.403  11.390  0.1671  0.1333  0.1877
    1Sil    Sib 2003   1.938   4.399  11.769  0.0680  0.2191 -0.2337
    1Sil    Sib 2004   4.812   4.412  10.940  0.1201  0.0850 -0.1059
    1Sil    Sib 2005   1.938   4.453  12.065  0.4309  0.5354 -0.0251
    1Sil    Sib 2006   4.481   4.505  12.831  0.7093  0.2286  0.2430
    1Sil    Sib 2007   1.655   4.411  12.482  0.5523  0.2826  0.0396
    1Sil    Sib 2008   4.309   1.233  12.487 -0.2700 -0.1358 -0.0469
    1Sil    Sib 2009   1.739   1.242  12.960 -0.0178  0.4952  0.3139
    1Sil    Sib 2010   1.514   1.233  12.125 -0.0452 -0.1356 -0.0243
    1Sil    Sib 2011   4.544   1.359  12.979 -0.0726  0.4624  0.1267
    1Sil    Sib 2012   4.346   1.306  12.202  0.2359  0.1071  0.2864
    1Sil    Sib 2013   1.742   1.244  12.639 -0.6936  0.1055  0.2066
    1Sil    Sib 2014   4.481   4.409  12.543 -0.0793  0.0731 -0.6014
    1Sil    Sib 2015   1.933   4.398  12.983 -0.1301 -0.5734  0.1874
    1Sil    Sib 2016   4.772   4.391  12.182  0.2071 -0.1332  0.3470
    2Eth     Ho 2017   1.721   2.651   4.243 -2.3277 -0.9999 -1.3543
    2Eth     Oh 2018   1.688   2.596   4.312 -0.2259  0.4160  0.8533
    2Eth     Co 2019   1.769   2.617   4.425 -0.6608  0.7136  0.6524
    2Eth    Hco 2020   1.767   2.721   4.458 -0.1908  1.3582 -1.2420
    2Eth    Hco 2021   1.872   2.609   4.390 -0.5802  2.5073  0.4140
    2Eth     Ch 2022   1.727   2.526   4.539 -0.6079  0.1820  0.2265
    2Eth    Hcc 2023   1.757   2.423   4.520 -1.0400 -0.1977  1.5036
    2Eth    Hcc 2024   1.622   2.526   4.569 -0.3371  0.9666  1.2125
    2Eth    Hcc 2025   1.788   2.564   4.622 -1.4091  0.8288  0.5224
    3Eth     Ho 2026   0.189   1.115   4.999 -1.2583 -1.8553  0.0768
    3Eth     Oh 2027   0.248   1.100   5.071 -0.2710 -0.1207 -0.3624
    3Eth     Co 2028   0.199   1.176   5.180 -0.0757  0.4948  0.8371
    3Eth    Hco 2029   0.097   1.145   5.202 -0.1400  0.6350  0.7383
    3Eth    Hco 2030   0.188   1.276   5.139 -1.1934  1.1604  2.7305
    3Eth     Ch 2031   0.286   1.171   5.303 -0.9596  0.1585 -0.5411
    3Eth    Hcc 2032   0.246   1.240   5.378  1.6121  0.1193  0.9439
    3Eth    Hcc 2033   0.391   1.195   5.285 -0.2771 -1.6230  0.9031
    3Eth    Hcc 2034   0.272   1.073   5.350  1.4359  0.8411  1.7285
    4Eth     Ho 2035   0.433   0.914   4.474  0.9595  0.7244 -0.9130
    4Eth     Oh 2036   0.421   0.849   4.407  0.8701 -0.1062 -0.1133
    4Eth     Co 2037   0.398   0.923   4.281 -0.4857 -0.3867  0.5448
    4Eth    Hco 2038   0.476   1.000   4.273 -1.7612  0.8164 -0.6088
    4Eth    Hco 2039   0.296   0.961   4.282 -0.4565 -0.2710 -0.2799
    4Eth     Ch 2040   0.413   0.826   4.158  0.2716 -1.4040  0.5547
    4Eth    Hcc 2041   0.507   0.771   4.153  0.3941 -1.1057 -0.7333
    4Eth    Hcc 2042   0.395   0.876   4.063 -0.4709 -0.2938  1.2690
    4Eth    Hcc 2043   0.335   0.750   4.165 -0.0582 -1.1579 -0.3600
    5Eth     Ho 2044   0.107   1.754   3.980 -2.0862 -1.1628  1.7180
    5Eth     Oh 2045   0.178   1.693   3.987 -0.4395  0.4891 -0.0855
    5Eth     Co 2046   0.263   1.733   4.092 -0.0085  0.1058 -0.1153
    5Eth    Hco 2047   0.233   1.691   4.188 -0.3131  0.4196 -0.0717
    5Eth    Hco 2048   0.254   1.841   4.104 -2.1079 -0.0007 -0.6136
    5Eth     Ch 2049   0.411   1.703   4.068  0.5455  0.1434  0.0249
    5Eth    Hcc 2050   0.433   1.601   4.100  1.9921  0.8822  1.4794
    5Eth    Hcc 2051   0.480   1.771   4.117  1.3739 -1.6453  1.4250
    5Eth    Hcc 2052   0.436   1.711   3.962 -0.1298  3.1228  0.0434
    6Eth     Ho 2053   2.036   3.299   1.360 -0.3684  1.0979 -1.9533
    6Eth     Oh 2054   1.952   3.258   1.364  0.1328  0.1650 -0.1151
    6Eth     Co 2055   1.858   3.358   1.375 -0.1101 -0.5333  0.1970
    6Eth    Hco 2056   1.848   3.417   1.284 -0.5582  1.2618  1.3751
    6Eth    Hco 2057   1.904   3.430   1.443  0.8934 -0.3683 -0.6336
    6Eth     Ch 2058   1.716   3.309   1.407 -0.4701 -1.0974 -0.1385
    6Eth    Hcc 2059   1.693   3.227   1.339  1.0095 -1.3418 -0.3442
    6Eth    Hcc 2060   1.644   3.391   1.416 -0.0510 -0.7425 -0.0022
    6Eth    Hcc 2061   1.708   3.262   1.505 -1.8388 -0.2019  0.2044
    7Eth     Ho 2062   0.814   0.189   2.331 -0.4494 -0.3899 -0.1844
    7Eth     Oh 2063   0.798   0.116   2.388  0.2112 -0.2750  0.1470
    7Eth     Co 2064   0.663   0.084   2.383 -0.1263 -1.0999  0.5627
    7Eth    Hco 2065   0.628   0.059   2.283  2.5785  0.8456 -0.9257
    7Eth    Hco 2066   0.606   0.174   2.406 -0.2604 -0.6365 -1.4854
    7Eth     Ch 2067   0.633  -0.018   2.491  0.4847  1.0139  0.2968
    7Eth    Hcc 2068   0.525  -0.020   2.506  0.2739  0.7025 -1.1660
    7Eth    Hcc 2069   0.676   0.018   2.584  0.7402  1.1742  0.1173
    7Eth    Hcc 2070   0.678  -0.116   2.479 -0.6129  0.5392  0.0375
    8Eth     Ho 2071   1.164   1.437   3.492 -1.3641 -0.0401  0.0581
    8Eth     Oh 2072   1.178   1.444   3.585  0.7193  0.2581 -0.2541
    8Eth     Co 2073   1.130   1.318   3.642  0.7877 -0.3612  0.0942
    8Eth    Hco 2074   1.208   1.242   3.640  0.6361 -0.4904 -2.0633
    8Eth    Hco 2075   1.049   1.264   3.592  0.0951  0.7569 -0.0245
    8Eth     Ch 2076   1.116   1.341   3.792  0.1278  1.0303  0.0147
    8Eth    Hcc 2077   1.209   1.382   3.832  1.0307  1.2299 -2.2069
    8Eth    Hcc 2078   1.079   1.263   3.859  1.1790  0.3195 -0.2339
    8Eth    Hcc 2079   1.045   1.423   3.807 -1.2869 -0.0589 -0.6463
    9Eth     Ho 2080   2.280   2.852   5.632 -0.4816  0.4413 -0.8092
    9Eth     Oh 2081   2.268   2.945   5.626  0.2500  0.5950  0.0041
    9Eth     Co 2082   2.397   3.007   5.602 -0.3415  0.1535 -1.0660
    9Eth    Hco 2083   2.441   2.962   5.513 -0.4939  0.7779 -1.4585
    9Eth    Hco 2084   2.452   2.983   5.692 -2.5470 -0.8105  0.0769
    9Eth     Ch 2085   2.400   3.158   5.585 -0.4135  0.4877  0.2021
    9Eth    Hcc 2086   2.337   3.212   5.656  0.8505  2.8159 -0.4223
    9Eth    Hcc 2087   2.354   3.178   5.488 -0.3675  0.4327  0.1693
    9Eth    Hcc 2088   2.497   3.207   5.578 -0.3680  0.4129  0.3063
   10Eth     Ho 2089   2.362   1.668   7.791  1.0881 -0.5935  0.7380
   10Eth     Oh 2090   2.354   1.759   7.813  0.7048 -0.4447 -0.0207
   10Eth     Co 2091   2.247   1.805   7.733  0.5741  0.1884  0.5142
   10Eth    Hco 2092   2.155   1.799   7.790 -0.4058  0.3609 -1.0345
   10Eth    Hco 2093   2.247   1.740   7.645 -0.4072  0.0145  0.6416
   10Eth     Ch 2094   2.278   1.942   7.681  0.8625  0.0342 -0.3540
   10Eth    Hcc 2095   2.210   1.986   7.608 -0.1331  0.9662  1.1011
   10Eth    Hcc 2096   2.378   1.952   7.639  1.3606  0.2538  0.8808
   10Eth    Hcc 2097   2.274   2.014   7.763 -1.4647  0.1065 -0.4966
   11Eth     Ho 2098   1.131   2.360  10.447 -0.1031  1.6489 -0.6019
   11Eth     Oh 2099   1.220   2.342  10.424 -0.0592  0.1589  0.6246
   11Eth     Co 2100   1.277   2.232  10.493 -0.5233  0.5606 -0.0020
   11Eth    Hco 2101   1.208   2.154  10.525  0.4487 -0.6850 -0.8675
   11Eth    Hco 2102   1.328   2.272  10.580 -0.6416  0.4001  0.1405
   11Eth     Ch 2103   1.373   2.151  10.405 -0.4933  0.0749  0.4378
   11Eth    Hcc 2104   1.327   2.105  10.317  0.6277 -1.3209  0.5471
   11Eth    Hcc 2105   1.408   2.065  10.463 -2.2611 -1.0705 -0.1225
   11Eth    Hcc 2106   1.463   2.202  10.373 -0.9265  0.9872  0.6716
   12Eth     Ho 2107   3.098   1.307   7.178 -2.0207 -2.3128  0.7175
   12Eth     Oh 2108   3.137   1.258   7.108 -0.1770 -0.0865  0.1088
   12Eth     Co 2109   3.067   1.134   7.116  0.7858  0.2977  0.3131
   12Eth    Hco 2110   2.968   1.154   7.073  0.4880 -2.2932 -0.3082
   12Eth    Hco 2111   3.064   1.108   7.222 -4.3033 -2.8767 -0.4191
   12Eth     Ch 2112   3.129   1.019   7.043  0.6395  0.2356  0.2560
   12Eth    Hcc 2113   3.074   0.930   7.071  1.2434 -0.9213 -2.0906
   12Eth    Hcc 2114   3.234   0.995   7.057  0.1067 -2.0176  0.5341
   12Eth    Hcc 2115   3.106   1.025   6.936 -2.2373 -0.6774  0.7693
   13Eth     Ho 2116   2.771   2.635   5.603 -1.0867  0.9747 -2.0384
   13Eth     Oh 2117   2.807   2.560   5.559  0.0862  0.1613  0.2088
   13Eth     Co 2118   2.824   2.466   5.664  0.1218 -0.3051  0.0600
   13Eth    Hco 2119   2.732   2.461   5.723  0.2408  0.9642  0.3607
   13Eth    Hco 2120   2.886   2.503   5.746  0.0303 -1.3056  0.5936
   13Eth     Ch 2121   2.884   2.332   5.621  0.1626 -0.7545 -0.0086
   13Eth    Hcc 2122   2.825   2.285   5.542  0.6902  1.0706 -1.5507
   13Eth    Hcc 2123   2.896   2.261   5.702  0.5724  1.8061  2.2294
   13Eth    Hcc 2124   2.988   2.346   5.592  1.1545 -0.5647  3.5255
   14Eth     Ho 2125   1.254   2.269   3.455 -0.1602 -0.1472 -2.8442
   14Eth     Oh 2126   1.162   2.252   3.453 -0.1735 -0.7715  0.7712
   14Eth     Co 2127   1.072   2.367   3.446  0.1376  0.0507  0.1160
   14Eth    Hco 2128   1.107   2.442   3.375 -0.6436 -0.5057 -0.8679
   14Eth    Hco 2129   1.069   2.411   3.545  4.3786  1.1192 -0.1085
   14Eth     Ch 2130   0.935   2.341   3.391  0.2792 -0.3425 -0.0888
   14Eth    Hcc 2131   0.864   2.422   3.407 -2.3104 -2.7267  0.8116
   14Eth    Hcc 2132   0.890   2.255   3.440 -1.9029  3.2763  4.6602
   14Eth    Hcc 2133   0.945   2.315   3.285 -0.0360  0.1855 -0.2479
   15Eth     Ho 2134   0.154   0.434   6.338  0.0857 -0.0452 -0.8069
   15Eth     Oh 2135   0.066   0.418   6.366  0.1799  0.3126 -0.2884
   15Eth     Co 2136   0.060   0.466   6.497  0.6989  0.3510  0.1691
   15Eth    Hco 2137   0.114   0.561   6.495  1.2325  0.0410 -1.9246
   15Eth    Hco 2138   0.109   0.409   6.576  0.6432  0.8783  0.5911
   15Eth     Ch 2139  -0.089   0.480   6.539 -0.2597 -0.4593 -0.6727
   15Eth    Hcc 2140  -0.096   0.536   6.633  0.5923 -0.9804 -0.2930
   15Eth    Hcc 2141  -0.134   0.383   6.560 -0.6147  0.1539  1.5668
   15Eth    Hcc 2142  -0.149   0.533   6.464 -1.3732 -0.5520  0.1310
   16Eth     Ho 2143   0.657   1.526   5.511 -1.2748 -2.4803 -0.8800
   16Eth     Oh 2144   0.748   1.505   5.497 -0.5527 -0.1353  0.1356
   16Eth     Co 2145   0.744   1.438   5.375  0.0580  0.5243  0.1216
   16Eth    Hco 2146   0.719   1.512   5.298 -1.5698  0.2669  0.3815
   16Eth    Hco 2147   0.669   1.359   5.374  1.1116 -0.4815 -1.0565
   16Eth     Ch 2148   0.875   1.376   5.353 -0.4155 -0.2833  0.6481
   16Eth    Hcc 2149   0.914   1.312   5.432  1.8840 -3.3447 -2.8452
   16Eth    Hcc 2150   0.957   1.447   5.347  0.3253 -1.1002  1.0573
   16Eth    Hcc 2151   0.881   1.326   5.257  0.4963  1.0883 -0.0355
   17Eth     Ho 2152   2.687   1.768   1.720 -0.5895  0.0324  0.4322
   17Eth     Oh 2153   2.732   1.721   1.788  0.0288  0.1304  0.1014
   17Eth     Co 2154   2.868   1.715   1.738  0.1744 -0.3291 -0.0860
   17Eth    Hco 2155   2.905   1.817   1.744 -1.4899  0.2214  1.6169
   17Eth    Hco 2156   2.856   1.711   1.630  0.8044  0.4669 -0.1891
   17Eth     Ch 2157   2.959   1.606   1.785  0.1399 -0.1248  0.2521
   17Eth    Hcc 2158   2.996   1.618   1.887  2.6294 -0.5668 -0.5482
   17Eth    Hcc 2159   3.038   1.601   1.710  0.3860 -2.6205  0.6206
   17Eth    Hcc 2160   2.908   1.511   1.771 -1.0144  0.4422  0.5475
   18Eth     Ho 2161   0.586   2.204   1.680  0.1156  2.3556 -0.4483
   18Eth     Oh 2162   0.561   2.167   1.597  0.4003  0.5300  0.2523
   18Eth     Co 2163   0.661   2.192   1.502  0.0861 -0.0835  0.2727
   18Eth    Hco 2164   0.754   2.162   1.549  0.0828  0.1526  0.4311
   18Eth    Hco 2165   0.661   2.300   1.490 -2.8512 -0.2726 -2.0347
   18Eth     Ch 2166   0.622   2.116   1.373 -0.5776 -0.4135  0.2401
   18Eth    Hcc 2167   0.537   2.151   1.316  1.2125  1.4087 -1.3906
   18Eth    Hcc 2168   0.601   2.010   1.385 -0.5037 -0.5443 -0.7886
   18Eth    Hcc 2169   0.709   2.117   1.307 -0.6061  2.1497  0.1765
   19Eth     Ho 2170   2.893   2.024   3.165  2.4598 -0.3275 -2.0853
   19Eth     Oh 2171   2.821   1.986   3.118  0.7752  0.3054 -0.1078
   19Eth     Co 2172   2.868   1.969   2.984  0.6494  0.5608  0.0692
   19Eth    Hco 2173   2.967   1.930   3.007  0.8035  1.3461  0.7757
   19Eth    Hco 2174   2.889   2.068   2.943 -0.3656  1.1220  0.8654
   19Eth     Ch 2175   2.783   1.877   2.898  0.3178  0.6930 -0.0460
   19Eth    Hcc 2176   2.803   1.773   2.924 -1.8688  0.3682  0.4145
   19Eth    Hcc 2177   2.820   1.901   2.798 -0.4743  0.1495 -0.4754
   19Eth    Hcc 2178   2.678   1.903   2.910  0.2296 -0.2556  1.2677
   20Eth     Ho 2179   0.313   2.659   3.895 -1.7053  0.6222  1.2362
   20Eth     Oh 2180   0.286   2.694   3.812  0.1002  0.2815  0.4712
   20Eth     Co 2181   0.388   2.765   3.756  0.4749 -0.2997  0.3903
   20Eth    Hco 2182   0.478   2.711   3.727 -0.4729 -0.8633 -1.5922
   20Eth    Hco 2183   0.429   2.821   3.839  1.4827  0.0257 -0.3142
   20Eth     Ch 2184   0.346   2.848   3.635 -0.4814 -0.4641 -0.7848
   20Eth    Hcc 2185   0.439   2.896   3.605 -0.9321  0.5096 -0.6344
   20Eth    Hcc 2186   0.272   2.923   3.663 -1.1914 -1.4408  0.0064
   20Eth    Hcc 2187   0.308   2.782   3.557 -0.9217 -2.5180  1.1316
   21Eth     Ho 2188   0.572   1.590  10.265  0.7162  0.0050  0.1038
   21Eth     Oh 2189   0.569   1.620  10.354 -0.0630 -0.0719  0.1074
   21Eth     Co 2190   0.432   1.628  10.391  0.0215  0.3625 -0.1618
   21Eth    Hco 2191   0.376   1.546  10.346  0.7570  0.4761 -1.3251
   21Eth    Hco 2192   0.380   1.719  10.359  1.7072  0.9637 -1.3014
   21Eth     Ch 2193   0.420   1.620  10.541  0.4432  0.5215  0.0836
   21Eth    Hcc 2194   0.472   1.709  10.578 -1.1945  0.7284  1.9916
   21Eth    Hcc 2195   0.460   1.524  10.574  1.3401  0.3442 -1.5019
   21Eth    Hcc 2196   0.316   1.632  10.572  0.8101  2.6042  0.6040
   22Eth     Ho 2197   2.101   3.251  10.486 -0.6575 -0.3265 -1.6734
   22Eth     Oh 2198   2.136   3.178  10.438  0.1739 -0.7243 -0.4557
   22Eth     Co 2199   2.283   3.186  10.442 -0.4930 -0.6977  0.9549
   22Eth    Hco 2200   2.310   3.196  10.547  3.1346 -1.1652  0.1258
   22Eth    Hco 2201   2.325   3.263  10.378 -0.2385 -3.0855 -1.8641
   22Eth     Ch 2202   2.338   3.049  10.407 -0.1018 -0.1012  0.1312
   22Eth    Hcc 2203   2.296   3.003  10.317 -0.4825  1.7082 -0.6273
   22Eth    Hcc 2204   2.335   2.969  10.482  0.1590 -0.0769  0.1662
   22Eth    Hcc 2205   2.444   3.066  10.392 -0.2128  0.3188 -0.1795
   23Eth     Ho 2206   2.379   0.291   1.304  0.1530  0.8985  1.0340
   23Eth     Oh 2207   2.376   0.202   1.336  0.7495  0.6029  0.2929
   23Eth     Co 2208   2.498   0.160   1.390 -0.3693  0.1041 -0.5554
   23Eth    Hco 2209   2.504   0.182   1.496 -0.7590  0.5517 -0.6253
   23Eth    Hco 2210   2.576   0.217   1.338  1.7569  0.6133  3.0366
   23Eth     Ch 2211   2.505   0.005   1.379 -0.0873 -0.2588  0.2505
   23Eth    Hcc 2212   2.481  -0.049   1.287 -2.8437  0.5851  0.4293
   23Eth    Hcc 2213   2.435  -0.040   1.449 -0.1729  0.8799  0.9006
   23Eth    Hcc 2214   2.605  -0.027   1.408  0.5006  1.1375 -0.1415
   24Eth     Ho 2215   0.736   0.701  10.361  0.9040 -0.1699 -0.0254
   24Eth     Oh 2216   0.674   0.630  10.364  0.2960  0.3321 -0.3718
   24Eth     Co 2217   0.695   0.575  10.491 -0.2328  0.2319  0.4155
   24Eth    Hco 2218   0.731   0.646  10.565 -0.9149  1.4984 -0.4686
   24Eth    Hco 2219   0.775   0.501  10.479 -0.4130 -0.0571  0.9617
   24Eth     Ch 2220   0.573   0.498  10.543 -0.1507  0.5754 -0.0082
   24Eth    Hcc 2221   0.590   0.441  10.634  1.0318  0.2191 -0.4385
   24Eth    Hcc 2222   0.542   0.427  10.466  3.3736 -0.7258 -0.3464
   24Eth    Hcc 2223   0.492   0.567  10.565 -0.7037 -0.7474  2.2662
   25Eth     Ho 2224   1.907   0.490  10.182  0.1814 -0.9786  1.4872
   25Eth     Oh 2225   1.851   0.447  10.120  0.5724  0.0412  0.4109
   25Eth     Co 2226   1.738   0.525  10.101 -0.1435  0.1609  0.5389
   25Eth    Hco 2227   1.753   0.567  10.001 -0.5043 -2.1219 -0.5003
   25Eth    Hco 2228   1.733   0.598  10.181 -0.2872 -1.0176  1.6155
   25Eth     Ch 2229   1.612   0.438  10.096 -0.1638 -0.5077 -0.5471
   25Eth    Hcc 2230   1.529   0.495  10.055 -1.1950 -1.6432 -0.0478
   25Eth    Hcc 2231   1.584   0.416  10.199  4.3673  2.6551  1.5527
   25Eth    Hcc 2232   1.625   0.357  10.025 -1.4578  0.5798 -2.0463
   26Eth     Ho 2233   1.333   2.411   4.271  0.1042  1.8940 -1.5733
   26Eth     Oh 2234   1.347   2.334   4.218 -0.0745  0.0146  1.0239
   26Eth     Co 2235   1.398   2.395   4.097 -0.9177  0.1610 -0.1889
   26Eth    Hco 2236   1.504   2.416   4.112 -0.7320 -0.1709 -1.0060
   26Eth    Hco 2237   1.344   2.485   4.068  0.4514  1.1477  0.3108
   26Eth     Ch 2238   1.384   2.296   3.984  0.0136  0.7148  0.4527
   26Eth    Hcc 2239   1.295   2.312   3.923  1.9223  3.9184 -1.6528
   26Eth    Hcc 2240   1.374   2.192   4.013  0.5859  1.1148  2.1438
   26Eth    Hcc 2241   1.469   2.296   3.916  1.1434 -4.2882  1.6660
   27Eth     Ho 2242   0.267   0.072  10.315 -0.1176  1.2097 -1.6801
   27Eth     Oh 2243   0.219   0.114  10.384  0.7493  0.2414 -0.4628
   27Eth     Co 2244   0.317   0.166  10.479  0.6054  0.0177  0.0927
   27Eth    Hco 2245   0.386   0.233  10.430  1.0647  0.1034  0.8458
   27Eth    Hco 2246   0.365   0.074  10.513 -1.2252 -0.8101  0.5528
   27Eth     Ch 2247   0.244   0.234  10.596  0.0578 -0.0671  0.5623
   27Eth    Hcc 2248   0.186   0.321  10.566 -0.7078  0.3589  3.1037
   27Eth    Hcc 2249   0.315   0.271  10.671 -0.0356 -0.9975  1.1121
   27Eth    Hcc 2250   0.180   0.159  10.641 -0.1082 -1.0429 -1.2446
   28Eth     Ho 2251   1.828   3.033   2.382 -0.0261  0.5297 -0.1355
   28Eth     Oh 2252   1.795   3.033   2.294  0.2556 -0.1254 -0.2418
   28Eth     Co 2253   1.898   2.985   2.217 -0.1524 -0.5871  0.4045
   28Eth    Hco 2254   1.913   2.883   2.250  3.5657 -0.3652 -0.4134
   28Eth    Hco 2255   1.978   3.054   2.244  0.5375 -1.0054 -0.5543
   28Eth     Ch 2256   1.854   3.009   2.077  0.3945 -0.5448  1.0017
   28Eth    Hcc 2257   1.908   2.944   2.008  0.3668 -2.6248  2.8918
   28Eth    Hcc 2258   1.871   3.112   2.045 -1.3041 -1.4415 -3.1958
   28Eth    Hcc 2259   1.748   2.986   2.067  0.4955 -0.2136 -1.3082
   29Eth     Ho 2260   1.728   2.725  10.400 -2.9560  1.9972  0.6745
   29Eth     Oh 2261   1.764   2.805  10.364  0.5347  0.1757 -0.0537
   29Eth     Co 2262   1.877   2.825  10.442 -0.2569 -0.3183 -0.6238
   29Eth    Hco 2263   1.930   2.917  10.413  1.2207 -0.4741  1.4750
   29Eth    Hco 2264   1.950   2.749  10.412  0.2653 -0.5811  1.2582
   29Eth     Ch 2265   1.858   2.830  10.588  0.2496  0.2467  0.1929
   29Eth    Hcc 2266   1.955   2.825  10.637 -0.3047 -2.4509  1.1303
   29Eth    Hcc 2267   1.798   2.746  10.625 -1.3628  0.3853 -1.9832
   29Eth    Hcc 2268   1.805   2.922  10.610  0.3845  0.4633 -0.3652
   30Eth     Ho 2269   1.915   1.909  10.238  0.1348  2.2773 -0.1073
   30Eth     Oh 2270   1.874   1.898  10.322  0.2533  0.8667 -0.2269
   30Eth     Co 2271   1.790   2.004  10.370 -0.3198  0.2688 -0.5169
   30Eth    Hco 2272   1.700   2.016  10.309 -0.1942  1.7778 -0.4176
   30Eth    Hco 2273   1.848   2.095  10.356 -2.3967  1.6310 -0.4933
   30Eth     Ch 2274   1.759   2.003  10.519 -0.2033 -0.0581 -0.2104
   30Eth    Hcc 2275   1.851   2.013  10.576 -0.5059 -1.3564  0.5253
   30Eth    Hcc 2276   1.702   1.911  10.532 -2.0695  1.0532 -0.2258
   30Eth    Hcc 2277   1.699   2.091  10.541 -0.1374  0.0992 -0.6580
   31Eth     Ho 2278   1.046   2.713  10.326 -0.1437 -2.8151 -1.6750
   31Eth     Oh 2279   1.043   2.678  10.414  0.2329  0.7160 -0.1890
   31Eth     Co 2280   0.988   2.778  10.495 -0.3352  0.3032  0.0333
   31Eth    Hco 2281   0.989   2.873  10.443  3.0997 -1.1069 -2.7102
   31Eth    Hco 2282   1.046   2.811  10.582 -0.7586  1.8549 -0.2660
   31Eth     Ch 2283   0.847   2.747  10.539 -0.9912  0.5716 -0.7118
   31Eth    Hcc 2284   0.834   2.656  10.598 -1.6776  0.9632 -0.2517
   31Eth    Hcc 2285   0.784   2.738  10.451 -0.4278 -1.2990 -0.9503
   31Eth    Hcc 2286   0.795   2.829  10.588  1.0452  1.0866  0.6264
   32Eth     Ho 2287   3.059   0.083   6.561 -0.9817  0.4015 -0.4148
   32Eth     Oh 2288   2.986   0.036   6.594 -0.4034  0.1523  0.5277
   32Eth     Co 2289   2.963   0.062   6.730  0.6125 -0.1025  0.2294
   32Eth    Hco 2290   2.975   0.169   6.744  1.3046 -0.0634 -0.6887
   32Eth    Hco 2291   3.043   0.012   6.785  0.0285 -0.2206  0.9886
   32Eth     Ch 2292   2.834   0.007   6.794  0.4593 -0.4993  0.7025
   32Eth    Hcc 2293   2.743   0.055   6.756 -0.0217 -2.3816 -0.6338
   32Eth    Hcc 2294   2.825   0.025   6.901 -1.7868  0.1209  0.4372
   32Eth    Hcc 2295   2.822  -0.101   6.787  1.8872 -0.6731  0.8986
   33Eth     Ho 2296   0.225   2.081  10.297 -0.8065  0.4530 -1.2833
   33Eth     Oh 2297   0.160   2.051  10.357  0.4135  0.4698  0.0798
   33Eth     Co 2298   0.184   1.912  10.387  0.1400 -0.3915 -0.0316
   33Eth    Hco 2299   0.284   1.906  10.431  0.2668 -1.3456 -0.4390
   33Eth    Hco 2300   0.180   1.859  10.292 -0.1682 -0.4881  0.0334
   33Eth     Ch 2301   0.074   1.857  10.472 -0.5415  0.0648  0.0088
   33Eth    Hcc 2302  -0.019   1.863  10.415 -1.2369 -2.3383  0.8315
   33Eth    Hcc 2303   0.052   1.911  10.565  1.1276  1.9750 -0.6806
   33Eth    Hcc 2304   0.086   1.757  10.512 -1.8665  0.8083  2.4053
   34Eth     Ho 2305   2.249   1.700  10.441  0.2840 -1.4407  0.7581
   34Eth     Oh 2306   2.229   1.747  10.519 -0.4963 -0.1353 -0.2108
   34Eth     Co 2307   2.219   1.882  10.471 -0.3790 -0.0167  0.1649
   34Eth    Hco 2308   2.153   1.879  10.384  0.9375  0.2986 -0.8559
   34Eth    Hco 2309   2.319   1.914  10.441 -2.0270  2.1692 -3.4018
   34Eth     Ch 2310   2.160   1.957  10.590  1.1381  0.2186 -0.1030
   34Eth    Hcc 2311   2.060   1.916  10.583  0.9563  0.0481  2.9845
   34Eth    Hcc 2312   2.154   2.066  10.588  1.4284  0.2574  0.8858
   34Eth    Hcc 2313   2.208   1.932  10.685  0.8412 -1.2086 -0.3150
   35Eth     Ho 2314   1.810   1.984   4.771  1.2523 -0.3868 -1.5743
   35Eth     Oh 2315   1.838   1.924   4.837  0.5013  0.2507 -0.6719
   35Eth     Co 2316   1.803   1.988   4.961  0.9359 -0.2479  0.1059
   35Eth    Hco 2317   1.707   2.038   4.952 -0.7585 -3.1250  1.6067
   35Eth    Hco 2318   1.878   2.063   4.986  0.7637  0.3474 -1.1565
   35Eth     Ch 2319   1.780   1.899   5.085  0.0678  0.3831  0.1563
   35Eth    Hcc 2320   1.740   1.953   5.171  2.5237 -0.5341  1.9085
   35Eth    Hcc 2321   1.868   1.843   5.117  1.3669  1.2514 -1.7866
   35Eth    Hcc 2322   1.715   1.817   5.055  0.7711 -0.3461  0.6248
   36Eth     Ho 2323   2.864   3.365   1.678  1.2016  1.3129  2.1087
   36Eth     Oh 2324   2.941   3.401   1.636  0.1709  0.8271 -0.2944
   36Eth     Co 2325   2.903   3.410   1.501  0.1810 -0.2890  0.1977
   36Eth    Hco 2326   2.822   3.481   1.480 -2.0530 -2.1924  2.1131
   36Eth    Hco 2327   2.877   3.312   1.460 -0.1636 -1.3816  2.9772
   36Eth     Ch 2328   3.030   3.454   1.426  0.1458  0.0612  0.5304
   36Eth    Hcc 2329   2.996   3.529   1.355 -0.9099  0.7008  1.6692
   36Eth    Hcc 2330   3.053   3.357   1.382 -1.5319  0.7322 -1.9322
   36Eth    Hcc 2331   3.107   3.495   1.491 -0.1243  2.1534 -0.4469
   37Eth     Ho 2332   2.449   0.201  10.452 -0.4703 -1.1092  1.6721
   37Eth     Oh 2333   2.393   0.272  10.479  0.3881  0.1119  0.3303
   37Eth     Co 2334   2.467   0.391  10.515  1.0949 -0.2088 -0.2567
   37Eth    Hco 2335   2.537   0.435  10.444  1.1942  0.1851  0.0901
   37Eth    Hco 2336   2.528   0.364  10.601 -0.2378 -0.5129  0.6028
   37Eth     Ch 2337   2.365   0.496  10.547 -0.1580 -0.1087  0.2950
   37Eth    Hcc 2338   2.286   0.451  10.606 -0.4116  0.9304  0.7672
   37Eth    Hcc 2339   2.314   0.535  10.459 -0.1837 -3.3002 -1.1567
   37Eth    Hcc 2340   2.402   0.587  10.595 -1.4885  0.6042  0.0122
   38Eth     Ho 2341   2.421   1.907   5.861  1.9349 -1.8766 -0.4979
   38Eth     Oh 2342   2.367   1.858   5.920 -0.1777  0.1259 -0.6780
   38Eth     Co 2343   2.419   1.725   5.911 -0.8515  0.0325 -0.8934
   38Eth    Hco 2344   2.511   1.703   5.965 -1.0678  1.4589  0.0718
   38Eth    Hco 2345   2.437   1.701   5.807  1.9416 -0.6317 -0.3024
   38Eth     Ch 2346   2.299   1.641   5.961 -0.1708 -0.9704 -0.2520
   38Eth    Hcc 2347   2.298   1.533   5.945  0.7525 -1.3678  2.1030
   38Eth    Hcc 2348   2.208   1.687   5.924  0.0497  1.2694  1.8810
   38Eth    Hcc 2349   2.287   1.653   6.069  0.0045 -0.6160 -0.2732
   39Eth     Ho 2350   3.002   0.893  10.383  2.2195  0.9813 -2.1018
   39Eth     Oh 2351   3.088   0.891  10.420  1.1836 -0.2233  0.3373
   39Eth     Co 2352   3.139   0.766  10.465 -0.2897  0.2411  0.0047
   39Eth    Hco 2353   3.156   0.702  10.378 -1.4759 -2.5654  1.7562
   39Eth    Hco 2354   3.060   0.718  10.523  1.9578 -1.5926  1.6521
   39Eth     Ch 2355   3.262   0.777  10.549 -0.2248 -0.2343  0.2630
   39Eth    Hcc 2356   3.345   0.807  10.486 -1.2782  1.2899 -0.4163
   39Eth    Hcc 2357   3.287   0.678  10.588  0.9986 -1.3969 -3.2971
   39Eth    Hcc 2358   3.247   0.842  10.635  0.5118 -0.2270  0.3861
   40Eth     Ho 2359   0.329   0.923  10.188 -0.0672  1.1682  0.2489
   40Eth     Oh 2360   0.401   0.881  10.144 -0.3487  0.7582  0.1812
   40Eth     Co 2361   0.382   0.743  10.162 -0.3285  0.3360  0.0081
   40Eth    Hco 2362   0.280   0.722  10.196  0.1217  0.9552  1.8346
   40Eth    Hco 2363   0.459   0.715  10.234  1.6238  0.6047 -1.9328
   40Eth     Ch 2364   0.412   0.678  10.028 -0.3842 -0.4787 -0.1014
   40Eth    Hcc 2365   0.393   0.572  10.043 -1.5286 -0.0014  1.9004
   40Eth    Hcc 2366   0.513   0.694   9.989 -0.1413 -1.6126  0.0465
   40Eth    Hcc 2367   0.340   0.710   9.952  0.6754 -0.5188 -1.1511
   41Eth     Ho 2368   2.923   1.203   1.626  0.4327 -1.3315  0.3055
   41Eth     Oh 2369   2.877   1.170   1.550 -0.7583 -0.0336  0.4298
   41Eth     Co 2370   2.741   1.198   1.547  0.3021 -0.5425  0.1187
   41Eth    Hco 2371   2.732   1.306   1.535 -1.9235 -0.7683 -0.2855
   41Eth    Hco 2372   2.698   1.171   1.644  0.5773  1.4511  0.8229
   41Eth     Ch 2373   2.669   1.136   1.424  0.2188 -0.8050  0.0410
   41Eth    Hcc 2374   2.724   1.159   1.333 -1.1472  0.3004 -0.5335
   41Eth    Hcc 2375   2.565   1.162   1.404  0.8877  1.5794 -0.5791
   41Eth    Hcc 2376   2.677   1.028   1.426 -0.5162 -0.8942 -1.0862
   42Eth     Ho 2377   2.724   1.423   2.522  1.2491 -2.5053 -0.6968
   42Eth     Oh 2378   2.731   1.386   2.608  0.1369 -0.2778  0.3826
   42Eth     Co 2379   2.782   1.253   2.591  0.3954  0.5715  0.0133
   42Eth    Hco 2380   2.890   1.243   2.582  0.3727  0.3665 -0.0380
   42Eth    Hco 2381   2.735   1.210   2.502 -1.0295  0.0168  1.0062
   42Eth     Ch 2382   2.731   1.167   2.704  0.0636 -0.2868  0.0600
   42Eth    Hcc 2383   2.623   1.174   2.708 -0.0931 -1.6997 -1.0781
   42Eth    Hcc 2384   2.771   1.209   2.796  1.0662 -1.1318  0.0249
   42Eth    Hcc 2385   2.746   1.059   2.696 -0.7049 -0.5997  2.5352
   43Eth     Ho 2386   1.028   1.188   8.420 -1.6731 -0.7198 -0.9603
   43Eth     Oh 2387   1.038   1.195   8.327 -0.1688  0.0441 -0.7563
   43Eth     Co 2388   1.149   1.281   8.312  0.5732 -0.1694  0.1732
   43Eth    Hco 2389   1.208   1.294   8.403 -0.7346  1.1046  0.8844
   43Eth    Hco 2390   1.109   1.382   8.300 -1.0041 -0.6178  1.4232
   43Eth     Ch 2391   1.230   1.251   8.183 -0.0244 -0.4754 -0.1300
   43Eth    Hcc 2392   1.280   1.341   8.146 -1.3188  0.0589 -0.5738
   43Eth    Hcc 2393   1.152   1.236   8.109  0.5577 -1.3176 -0.5830
   43Eth    Hcc 2394   1.291   1.163   8.202  0.0650 -0.5469 -0.7430
   44Eth     Ho 2395   2.984   1.058   1.442 -0.8580 -0.3922  0.8692
   44Eth     Oh 2396   3.052   1.003   1.408 -0.5727  0.2233  0.4306
   44Eth     Co 2397   3.175   1.079   1.427 -0.1175 -0.0012 -0.5345
   44Eth    Hco 2398   3.168   1.132   1.522  0.3346  0.1452 -0.5853
   44Eth    Hco 2399   3.181   1.159   1.353 -0.8441  0.5226 -0.0413
   44Eth     Ch 2400   3.288   0.971   1.432 -0.4105 -0.2895  0.0382
   44Eth    Hcc 2401   3.278   0.909   1.521  2.0024 -0.6814  0.0805
   44Eth    Hcc 2402   3.389   1.008   1.448 -0.3653 -0.7297  0.7614
   44Eth    Hcc 2403   3.285   0.912   1.340  1.9837 -0.5332  0.0647
   45Eth     Ho 2404   1.625   1.566   2.227  0.4364  1.1963 -1.0670
   45Eth     Oh 2405   1.626   1.639   2.287  0.1647 -0.2069  0.6733
   45Eth     Co 2406   1.490   1.681   2.296  0.0517 -0.4781  0.0143
   45Eth    Hco 2407   1.441   1.614   2.367  0.9804 -0.3544  0.7807
   45Eth    Hco 2408   1.443   1.691   2.198  0.6774 -3.3643 -0.6138
   45Eth     Ch 2409   1.472   1.828   2.348  0.6231  0.4933 -0.4444
   45Eth    Hcc 2410   1.367   1.837   2.375  0.3378  1.0374 -1.6993
   45Eth    Hcc 2411   1.480   1.906   2.272 -1.0266  1.4217  0.3016
   45Eth    Hcc 2412   1.535   1.855   2.433  0.1506 -2.2502  0.8358
   46Eth     Ho 2413   0.684   0.968  10.270 -0.3695  0.0387 -1.0304
   46Eth     Oh 2414   0.627   1.038  10.296  0.3679  0.4084 -0.3849
   46Eth     Co 2415   0.594   1.003  10.431 -0.3618  0.6571  0.3434
   46Eth    Hco 2416   0.667   1.054  10.495 -0.1730  2.4749 -1.2781
   46Eth    Hco 2417   0.611   0.895  10.430 -0.2740  0.6337  1.9057
   46Eth     Ch 2418   0.452   1.047  10.461 -0.2059  0.4245  0.4420
   46Eth    Hcc 2419   0.388   1.004  10.385  2.4758 -0.1115 -1.5587
   46Eth    Hcc 2420   0.453   1.156  10.453  2.0559  0.4283  0.5602
   46Eth    Hcc 2421   0.405   1.014  10.554  1.6759 -1.3488  0.7809
   47Eth     Ho 2422   2.561   3.204   6.914  0.8585  0.4251 -4.5530
   47Eth     Oh 2423   2.477   3.172   6.889 -0.2181 -0.1778 -0.6199
   47Eth     Co 2424   2.490   3.034   6.860  0.9257 -1.3141 -0.4742
   47Eth    Hco 2425   2.580   3.041   6.799  0.0511  1.1898 -1.5392
   47Eth    Hco 2426   2.402   3.002   6.804  1.6415  0.3622 -2.6343
   47Eth     Ch 2427   2.496   2.950   6.987  0.0523  0.4820 -0.0225
   47Eth    Hcc 2428   2.596   2.965   7.028 -0.3787  0.1042  1.1914
   47Eth    Hcc 2429   2.487   2.845   6.960  1.3339  0.8324 -1.9400
   47Eth    Hcc 2430   2.421   2.990   7.055 -0.7443 -0.1327 -0.5377
   48Eth     Ho 2431   1.787   0.692  10.616 -0.9073  1.5271 -0.6924
   48Eth     Oh 2432   1.701   0.654  10.604 -0.2494 -0.2427  0.0987
   48Eth     Co 2433   1.647   0.697  10.478  0.7731 -0.4438  0.0122
   48Eth    Hco 2434   1.709   0.666  10.394 -2.0858 -1.0900 -1.9336
   48Eth    Hco 2435   1.646   0.805  10.462 -0.6336 -0.3340  0.7360
   48Eth     Ch 2436   1.514   0.644  10.451  0.3005  0.3514  0.0801
   48Eth    Hcc 2437   1.525   0.536  10.445  1.7879  0.5412 -0.8394
   48Eth    Hcc 2438   1.490   0.684  10.353  2.3216 -0.8075 -0.9088
   48Eth    Hcc 2439   1.435   0.677  10.519 -0.3457  0.5168 -0.7485
   49Eth     Ho 2440   0.341   0.383   1.475 -0.0664 -3.1905 -0.9906
   49Eth     Oh 2441   0.248   0.392   1.486  0.2901  0.1919 -0.2528
   49Eth     Co 2442   0.198   0.430   1.361  0.1248 -0.1575 -0.4719
   49Eth    Hco 2443   0.190   0.332   1.315  0.2836 -1.3006  1.8625
   49Eth    Hco 2444   0.274   0.497   1.322 -1.2585  0.8913 -1.4486
   49Eth     Ch 2445   0.060   0.489   1.369  0.3395 -0.2939  0.5222
   49Eth    Hcc 2446   0.029   0.549   1.283 -3.4502 -0.0958  1.9453
   49Eth    Hcc 2447   0.059   0.552   1.458 -0.2361  2.0258 -1.0747
   49Eth    Hcc 2448  -0.011   0.410   1.392  0.3564 -0.4023  0.2123
   50Eth     Ho 2449   2.862   2.661   2.656  0.4981  0.1891 -0.2488
   50Eth     Oh 2450   2.807   2.611   2.598  0.2741  0.3171 -0.1465
   50Eth     Co 2451   2.690   2.677   2.562  0.2911 -0.1261 -0.2432
   50Eth    Hco 2452   2.713   2.777   2.526 -1.5782  0.4956  0.2273
   50Eth    Hco 2453   2.633   2.696   2.653 -0.4716  1.3644 -1.0047
   50Eth     Ch 2454   2.601   2.610   2.456  0.3446  0.5197  0.1954
   50Eth    Hcc 2455   2.669   2.571   2.381  0.0961 -0.3078  0.3979
   50Eth    Hcc 2456   2.525   2.681   2.424 -1.9681 -2.0843 -0.3032
   50Eth    Hcc 2457   2.550   2.523   2.499  1.0170  0.8230  1.6445
   51Eth     Ho 2458   2.434   2.288  10.633 -3.5733  0.0276 -1.2578
   51Eth     Oh 2459   2.467   2.244  10.558 -0.3477  0.2109 -0.0226
   51Eth     Co 2460   2.610   2.265  10.549 -0.1311 -0.6113 -0.4027
   51Eth    Hco 2461   2.659   2.171  10.524  0.6550 -0.1867 -0.4980
   51Eth    Hco 2462   2.646   2.293  10.648 -0.7317 -0.9745 -0.0784
   51Eth     Ch 2463   2.644   2.379  10.455 -0.4567 -0.2319  0.1133
   51Eth    Hcc 2464   2.618   2.472  10.505  0.4408  0.6560 -1.0562
   51Eth    Hcc 2465   2.578   2.368  10.369  0.4558 -1.3578 -0.4593
   51Eth    Hcc 2466   2.739   2.384  10.402  0.9302  0.2826  2.5966
   52Eth     Ho 2467   2.500   3.383  10.340  0.7751  1.3354 -0.2455
   52Eth     Oh 2468   2.493   3.428  10.422 -0.1281  0.0590  0.3843
   52Eth     Co 2469   2.604   3.375  10.497 -0.8401 -0.6471  0.0313
   52Eth    Hco 2470   2.621   3.270  10.473 -0.6598 -0.7383  0.5381
   52Eth    Hco 2471   2.554   3.375  10.594 -0.1547  1.9272  0.4018
   52Eth     Ch 2472   2.721   3.470  10.504  0.0028 -0.0521 -0.1309
   52Eth    Hcc 2473   2.696   3.564  10.553  0.4096 -0.7198  1.4016
   52Eth    Hcc 2474   2.770   3.491  10.408 -0.6416  1.9910 -0.0313
   52Eth    Hcc 2475   2.808   3.433  10.559  0.1540  2.6619  1.5303
   53Eth     Ho 2476   1.445   0.051   4.245 -0.6121 -1.3089 -1.8770
   53Eth     Oh 2477   1.510   0.104   4.203 -0.3069  0.3362  0.5497
   53Eth     Co 2478   1.635   0.039   4.249  0.3749  0.0677  0.4337
   53Eth    Hco 2479   1.640  -0.066   4.219  1.2727  0.6542 -1.6004
   53Eth    Hco 2480   1.625   0.038   4.358 -2.6905 -0.4748  0.1899
   53Eth     Ch 2481   1.760   0.121   4.207 -0.7470  0.5099  0.0839
   53Eth    Hcc 2482   1.752   0.217   4.257  1.3614 -0.6463  2.7294
   53Eth    Hcc 2483   1.771   0.139   4.100  1.2603  0.4116  0.2521
   53Eth    Hcc 2484   1.846   0.070   4.250 -0.7572  1.6732  1.5353
   54Eth     Ho 2485   1.574   2.376   1.491  0.3776  0.2202 -3.5490
   54Eth     Oh 2486   1.572   2.469   1.501 -0.1603 -0.0889 -0.0697
   54Eth     Co 2487   1.653   2.534   1.403 -0.2781 -0.0159  0.1805
   54Eth    Hco 2488   1.606   2.527   1.304  2.4874  1.9809 -1.3292
   54Eth    Hco 2489   1.753   2.493   1.409 -0.7707 -1.0817  1.3296
   54Eth     Ch 2490   1.660   2.687   1.438  0.7385  0.1641 -0.4015
   54Eth    Hcc 2491   1.560   2.730   1.429  0.1262 -1.3400 -1.0199
   54Eth    Hcc 2492   1.718   2.747   1.367  2.2288  1.9244  2.2523
   54Eth    Hcc 2493   1.693   2.710   1.539 -3.7837  2.2222  0.7080
   55Eth     Ho 2494   0.311   0.360   9.460 -0.5174  0.8657  1.1166
   55Eth     Oh 2495   0.380   0.356   9.524 -0.3965 -0.4927  0.9193
   55Eth     Co 2496   0.316   0.359   9.646  0.3329  0.4212 -0.0375
   55Eth    Hco 2497   0.250   0.271   9.642  1.3908 -0.4369  1.2117
   55Eth    Hco 2498   0.251   0.446   9.657  1.8806  1.6961 -0.7612
   55Eth     Ch 2499   0.415   0.355   9.763 -0.0074 -0.3660  0.3256
   55Eth    Hcc 2500   0.505   0.410   9.738  0.6794 -2.6007 -2.2091
   55Eth    Hcc 2501   0.436   0.257   9.805  0.2164 -0.1594  0.6991
   55Eth    Hcc 2502   0.364   0.398   9.850 -0.9194 -1.7334  0.4877
   56Eth     Ho 2503   2.822   2.687   9.294  0.0156 -3.4962  1.1711
   56Eth     Oh 2504   2.732   2.687   9.267  0.2100  0.0002  0.3391
   56Eth     Co 2505   2.660   2.609   9.355 -0.0236  0.5721  0.0345
   56Eth    Hco 2506   2.648   2.650   9.455  1.4047 -0.3021  0.5580
   56Eth    Hco 2507   2.714   2.516   9.367 -0.3185  0.5810  1.5667
   56Eth     Ch 2508   2.516   2.600   9.307  0.3973 -1.3971 -0.2798
   56Eth    Hcc 2509   2.468   2.697   9.317  1.6825 -0.6719 -0.9402
   56Eth    Hcc 2510   2.454   2.535   9.369 -2.9420  1.0210 -0.9602
   56Eth    Hcc 2511   2.501   2.570   9.203 -0.5368 -2.4853  0.1621
   57Eth     Ho 2512   2.109   0.342   5.567 -2.2412 -1.4550 -2.2519
   57Eth     Oh 2513   2.177   0.291   5.525  0.1385 -0.3961  0.1669
   57Eth     Co 2514   2.145   0.283   5.394 -0.0689  0.4476 -0.3614
   57Eth    Hco 2515   2.091   0.369   5.356 -1.8931 -1.2742 -1.7674
   57Eth    Hco 2516   2.079   0.197   5.382 -0.0255  0.1766  1.1389
   57Eth     Ch 2517   2.274   0.262   5.314 -0.1001  0.1220 -0.6424
   57Eth    Hcc 2518   2.346   0.327   5.363 -0.8305  2.3178 -2.3927
   57Eth    Hcc 2519   2.248   0.289   5.212  1.7673 -1.2888 -1.5225
   57Eth    Hcc 2520   2.306   0.158   5.307  0.3732  0.2508 -0.3503
   58Eth     Ho 2521   0.235   2.776  10.397 -0.0867 -1.2886 -0.3375
   58Eth     Oh 2522   0.147   2.752  10.421 -0.4333  0.4659  0.2375
   58Eth     Co 2523   0.103   2.862  10.481  0.0672  0.1993 -0.1004
   58Eth    Hco 2524   0.089   2.943  10.409 -2.7105 -1.4663 -1.5140
   58Eth    Hco 2525   0.164   2.907  10.560  0.3100 -0.3715  0.0386
   58Eth     Ch 2526  -0.029   2.828  10.545 -0.6663  0.0278  0.9012
   58Eth    Hcc 2527  -0.028   2.736  10.603  1.6030  0.4178  1.4947
   58Eth    Hcc 2528  -0.108   2.823  10.469 -1.3850  2.8084  1.4212
   58Eth    Hcc 2529  -0.061   2.914  10.604 -0.9740  1.5026 -1.3551
   59Eth     Ho 2530   0.841   2.102  10.369  1.9848 -0.7035  0.6463
   59Eth     Oh 2531   0.811   2.015  10.387 -0.5061  0.0225  0.3099
   59Eth     Co 2532   0.759   2.022  10.517  0.1563 -0.0495 -0.0906
   59Eth    Hco 2533   0.717   2.122  10.526  0.1639 -0.0206 -0.3783
   59Eth    Hco 2534   0.844   2.027  10.585  0.1446  0.8076 -0.1368
   59Eth     Ch 2535   0.669   1.903  10.553 -0.4665  0.0452 -0.1811
   59Eth    Hcc 2536   0.715   1.807  10.529  2.6496  0.3134  4.0751
   59Eth    Hcc 2537   0.568   1.908  10.513 -0.4363 -2.6749 -0.6945
   59Eth    Hcc 2538   0.641   1.894  10.657 -1.1767  1.6866 -0.2154
   60Eth     Ho 2539   2.009   0.892   7.683  1.0881 -0.6852 -1.4774
   60Eth     Oh 2540   2.034   0.982   7.673  0.2698 -0.3263 -0.4007
   60Eth     Co 2541   2.011   1.024   7.537  0.5442 -0.3088 -0.4378
   60Eth    Hco 2542   1.918   0.970   7.517  1.1983 -1.2126 -1.1028
   60Eth    Hco 2543   2.091   0.986   7.474  1.1655 -0.0552  0.1965
   60Eth     Ch 2544   1.980   1.174   7.524 -0.0143 -0.1685 -0.2545
   60Eth    Hcc 2545   1.881   1.201   7.561 -0.1158 -2.9543  1.6713
   60Eth    Hcc 2546   1.980   1.184   7.415 -0.3618 -1.1870 -0.3513
   60Eth    Hcc 2547   2.063   1.233   7.564  0.1591 -0.9924  0.6044
   61Eth     Ho 2548   1.111   2.224   5.738  1.5687  0.1669  0.3665
   61Eth     Oh 2549   1.078   2.231   5.826 -0.0656 -0.2226 -0.1979
   61Eth     Co 2550   1.179   2.280   5.916 -0.4626 -0.7897 -0.0820
   61Eth    Hco 2551   1.213   2.381   5.890  3.4812 -2.0928 -0.3493
   61Eth    Hco 2552   1.266   2.216   5.906  0.4989  0.6682 -1.4055
   61Eth     Ch 2553   1.119   2.274   6.061  0.5337 -0.1277  0.0266
   61Eth    Hcc 2554   1.201   2.299   6.129  0.4540 -0.1481  0.1295
   61Eth    Hcc 2555   1.095   2.175   6.099  0.7534 -0.3404 -0.3868
   61Eth    Hcc 2556   1.034   2.331   6.099 -0.0494 -0.0590 -1.3766
   62Eth     Ho 2557   2.327   1.031   1.432  0.0644 -0.1296 -1.2921
   62Eth     Oh 2558   2.369   0.961   1.479 -0.4271  0.1518 -0.4246
   62Eth     Co 2559   2.444   0.877   1.391 -0.0302  0.1653  0.3908
   62Eth    Hco 2560   2.500   0.948   1.331  0.3638 -0.0494  0.5035
   62Eth    Hco 2561   2.368   0.825   1.332  2.8494 -0.2625 -3.1087
   62Eth     Ch 2562   2.525   0.776   1.471 -0.1532  0.1770  0.5963
   62Eth    Hcc 2563   2.463   0.713   1.534 -1.7071  1.2240  0.1353
   62Eth    Hcc 2564   2.603   0.828   1.527 -0.7782  1.8852 -0.0802
   62Eth    Hcc 2565   2.576   0.713   1.398 -2.1891 -1.8576  0.8959
   63Eth     Ho 2566   1.737   3.206   4.638 -1.0736 -0.9199  0.5173
   63Eth     Oh 2567   1.701   3.270   4.697 -0.4279 -0.1282  0.0610
   63Eth     Co 2568   1.680   3.206   4.826  0.2079 -0.3892  0.2632
   63Eth    Hco 2569   1.771   3.168   4.872  1.3670  0.2330 -1.4497
   63Eth    Hco 2570   1.620   3.116   4.814  1.2592 -0.9421 -1.0250
   63Eth     Ch 2571   1.614   3.300   4.921  0.3174 -0.6572 -0.2830
   63Eth    Hcc 2572   1.513   3.323   4.888  0.0969 -0.5949  0.4341
   63Eth    Hcc 2573   1.674   3.391   4.933 -1.3792  0.6985 -1.7114
   63Eth    Hcc 2574   1.597   3.256   5.019 -1.0177  0.6967  0.1132
   64Eth     Ho 2575   2.591   2.997   6.278  0.9172  1.2561 -0.6596
   64Eth     Oh 2576   2.549   3.064   6.330 -0.1266  0.0185  0.1351
   64Eth     Co 2577   2.463   2.988   6.417 -0.0411 -0.2432 -0.3733
   64Eth    Hco 2578   2.524   2.922   6.478 -0.3206 -1.2458 -1.1621
   64Eth    Hco 2579   2.404   2.930   6.345  0.9449 -1.6787 -0.0398
   64Eth     Ch 2580   2.380   3.080   6.505  0.0602 -0.8807 -0.3258
   64Eth    Hcc 2581   2.446   3.120   6.582  2.1273  0.0991 -2.5343
   64Eth    Hcc 2582   2.286   3.050   6.553 -0.6280 -0.7101 -1.5488
   64Eth    Hcc 2583   2.356   3.165   6.440 -0.8474 -0.8743  0.0109
   65Eth     Ho 2584   0.170   0.398   7.545 -0.8588 -0.9172  0.1965
   65Eth     Oh 2585   0.132   0.481   7.523  0.5427 -0.3350 -0.0680
   65Eth     Co 2586   0.194   0.555   7.622  0.3677 -0.4916  0.0865
   65Eth    Hco 2587   0.294   0.577   7.585  0.7052 -0.6981  0.8627
   65Eth    Hco 2588   0.223   0.492   7.706  0.6718 -1.5137 -0.7649
   65Eth     Ch 2589   0.103   0.672   7.656  0.1104 -0.3410  0.3673
   65Eth    Hcc 2590   0.154   0.755   7.704 -1.1881  1.5781 -1.4651
   65Eth    Hcc 2591   0.023   0.633   7.719 -0.3184  1.7667  1.1558
   65Eth    Hcc 2592   0.072   0.723   7.565 -1.0665 -0.4561  0.6953
   66Eth     Ho 2593   0.376   2.194   1.553 -0.3397  0.7020  0.5509
   66Eth     Oh 2594   0.288   2.221   1.540 -0.3196  0.7007  0.4076
   66Eth     Co 2595   0.299   2.341   1.470  0.0494  0.6244  0.5562
   66Eth    Hco 2596   0.361   2.331   1.381  1.0880 -0.2101  1.3624
   66Eth    Hco 2597   0.356   2.422   1.514  1.5762  0.1491 -0.4891
   66Eth     Ch 2598   0.153   2.386   1.435 -0.0918 -0.3552 -0.0983
   66Eth    Hcc 2599   0.094   2.310   1.385  1.4929 -0.7237 -1.4314
   66Eth    Hcc 2600   0.153   2.468   1.362  2.4720  0.2618  0.5202
   66Eth    Hcc 2601   0.092   2.430   1.514  0.6502 -1.8667  1.3389
   67Eth     Ho 2602   1.905   3.218   8.243  0.5032 -1.7623  1.9269
   67Eth     Oh 2603   1.990   3.206   8.204  0.1348 -0.2800  0.6456
   67Eth     Co 2604   1.990   3.073   8.172 -0.3336  0.1671  0.6177
   67Eth    Hco 2605   1.973   3.046   8.068 -0.2401  2.2623  0.0425
   67Eth    Hco 2606   1.925   3.001   8.222  0.6152 -0.8959  0.3248
   67Eth     Ch 2607   2.132   3.036   8.190 -0.3220  0.4230  0.1853
   67Eth    Hcc 2608   2.153   2.941   8.142 -1.0121  0.4160 -0.1041
   67Eth    Hcc 2609   2.146   3.008   8.295 -1.7122 -2.5385 -0.3569
   67Eth    Hcc 2610   2.186   3.123   8.154 -1.6062  1.0498 -0.2478
   68Eth     Ho 2611   0.712   2.975   2.457 -0.7500 -0.3602  2.5111
   68Eth     Oh 2612   0.624   2.975   2.424  0.1712  0.0174 -0.0179
   68Eth     Co 2613   0.638   3.030   2.299 -0.1824 -0.1028 -0.6202
   68Eth    Hco 2614   0.691   2.952   2.243 -0.3112 -1.1700  0.7101
   68Eth    Hco 2615   0.685   3.128   2.303  1.4732 -0.9567  1.9644
   68Eth     Ch 2616   0.502   3.044   2.229  0.0430 -0.5893  0.0617
   68Eth    Hcc 2617   0.440   2.956   2.208 -1.1781  0.3521 -0.3213
   68Eth    Hcc 2618   0.514   3.078   2.126  1.8026  0.4434  0.5833
   68Eth    Hcc 2619   0.440   3.121   2.275  2.9276  1.6252  0.3531
   69Eth     Ho 2620   2.731   3.347   6.177 -0.4959 -1.8965  1.4316
   69Eth     Oh 2621   2.768   3.394   6.249 -0.2619  0.4205 -0.1480
   69Eth     Co 2622   2.913   3.376   6.261 -0.5484  0.2889  0.3216
   69Eth    Hco 2623   2.945   3.435   6.347  0.7922 -1.0945  0.7868
   69Eth    Hco 2624   2.965   3.417   6.174  0.0374  1.4097  1.1849
   69Eth     Ch 2625   2.936   3.225   6.295 -1.1374 -0.2538  0.1605
   69Eth    Hcc 2626   2.884   3.159   6.226 -0.3517 -1.3766  0.6168
   69Eth    Hcc 2627   2.906   3.200   6.397  0.9887  0.0722  0.8876
   69Eth    Hcc 2628   3.040   3.194   6.286 -2.2191 -3.4940 -2.3290
   70Eth     Ho 2629   0.419   1.436   1.446  1.9558 -2.3018 -0.7992
   70Eth     Oh 2630   0.479   1.507   1.464 -0.4923 -0.4767  0.4192
   70Eth     Co 2631   0.426   1.625   1.422  0.2911 -0.2427  0.3448
   70Eth    Hco 2632   0.356   1.675   1.489  0.1276  3.2387 -2.2800
   70Eth    Hco 2633   0.379   1.597   1.327  0.6011 -1.1502  0.4556
   70Eth     Ch 2634   0.546   1.710   1.389 -0.2242  0.1842  0.4861
   70Eth    Hcc 2635   0.621   1.664   1.324  1.4952  1.9242  1.1669
   70Eth    Hcc 2636   0.613   1.734   1.472  0.5326 -0.8947  0.1938
   70Eth    Hcc 2637   0.511   1.801   1.339 -1.1463 -0.4846 -0.0926
   71Eth     Ho 2638   1.354   2.724   9.145  3.5825 -2.9286 -1.4548
   71Eth     Oh 2639   1.384   2.709   9.232 -0.4409 -0.5634  0.5105
   71Eth     Co 2640   1.287   2.643   9.309 -0.1204  0.5014 -0.0767
   71Eth    Hco 2641   1.280   2.543   9.266 -2.3618 -0.7130  2.9526
   71Eth    Hco 2642   1.192   2.696   9.313 -0.0724  0.4570  2.0355
   71Eth     Ch 2643   1.342   2.636   9.451 -0.3259  0.0103 -0.4439
   71Eth    Hcc 2644   1.366   2.731   9.498  1.7696  0.4282 -2.2523
   71Eth    Hcc 2645   1.435   2.579   9.460 -1.1757 -1.3477 -0.0469
   71Eth    Hcc 2646   1.270   2.593   9.521 -0.3110  1.1117  0.2515
   72Eth     Ho 2647   1.488   0.717   1.724  0.5266  1.5783 -1.9900
   72Eth     Oh 2648   1.403   0.724   1.685 -0.3645  0.3631 -0.3569
   72Eth     Co 2649   1.418   0.682   1.552  0.5615 -0.0305  0.1825
   72Eth    Hco 2650   1.439   0.575   1.549  0.6750 -0.0197  0.6421
   72Eth    Hco 2651   1.506   0.735   1.514  1.4236  0.1787  2.3912
   72Eth     Ch 2652   1.286   0.709   1.477  0.5651  0.2655  0.7307
   72Eth    Hcc 2653   1.307   0.674   1.375  1.2345 -0.6635  1.1786
   72Eth    Hcc 2654   1.244   0.809   1.469 -2.0817 -0.7510  1.5120
   72Eth    Hcc 2655   1.209   0.645   1.520  0.6413  0.9011  1.8104
   73Eth     Ho 2656   1.186   3.065   9.322 -0.7276 -1.2297 -1.6023
   73Eth     Oh 2657   1.109   3.098   9.364  0.3921  0.1590 -0.5567
   73Eth     Co 2658   1.037   2.977   9.395  0.2920 -0.3998 -0.5558
   73Eth    Hco 2659   1.079   2.929   9.483 -0.6871  0.1134  0.2044
   73Eth    Hco 2660   1.049   2.909   9.310  1.8102 -1.9630  0.8639
   73Eth     Ch 2661   0.895   3.011   9.429 -0.1961 -0.0180  0.3268
   73Eth    Hcc 2662   0.899   3.088   9.506  1.9752  3.5023 -3.1237
   73Eth    Hcc 2663   0.831   2.930   9.464 -3.8773  2.5712 -0.0454
   73Eth    Hcc 2664   0.847   3.045   9.337 -0.9290 -1.6478  0.0924
   74Eth     Ho 2665   2.763   0.879   2.501 -0.0894 -0.2011  0.8741
   74Eth     Oh 2666   2.841   0.920   2.468 -0.2941 -0.3729  0.1570
   74Eth     Co 2667   2.951   0.846   2.505 -1.0191  0.1227  0.1226
   74Eth    Hco 2668   2.936   0.747   2.464  2.3462  0.0627 -1.1794
   74Eth    Hco 2669   2.966   0.844   2.612  0.8018  0.3964 -0.1047
   74Eth     Ch 2670   3.078   0.925   2.455 -0.5517 -0.1749  0.1899
   74Eth    Hcc 2671   3.067   1.017   2.512 -0.2827 -1.6911  2.7919
   74Eth    Hcc 2672   3.091   0.933   2.347 -0.6657 -4.3013 -0.2230
   74Eth    Hcc 2673   3.162   0.862   2.486 -0.6094 -0.2458  0.2024
   75Eth     Ho 2674   2.653   2.038   4.175  1.6614 -2.0967  0.6138
   75Eth     Oh 2675   2.684   2.122   4.203 -0.2654 -1.0445 -0.3827
   75Eth     Co 2676   2.772   2.091   4.307 -0.2058  0.4744  0.2724
   75Eth    Hco 2677   2.827   1.998   4.289  1.5900  1.5968 -0.1870
   75Eth    Hco 2678   2.715   2.063   4.396 -0.2006  2.7185  1.0004
   75Eth     Ch 2679   2.868   2.205   4.347 -0.5813  0.3786  0.1942
   75Eth    Hcc 2680   2.946   2.214   4.272  1.5473 -1.0097  2.1753
   75Eth    Hcc 2681   2.917   2.189   4.443 -0.0054  0.6877 -0.0430
   75Eth    Hcc 2682   2.813   2.299   4.355 -0.3687  0.3410  2.5659
   76Eth     Ho 2683   1.433   0.216  10.352  2.5120  0.4955  2.0364
   76Eth     Oh 2684   1.402   0.299  10.384  0.1553  0.5750 -0.3772
   76Eth     Co 2685   1.309   0.271  10.490  0.7270  0.0208 -0.3186
   76Eth    Hco 2686   1.346   0.187  10.548  0.4049  1.4548  2.0051
   76Eth    Hco 2687   1.211   0.240  10.453  0.3327  1.5774 -0.6156
   76Eth     Ch 2688   1.285   0.399  10.576  0.7237 -0.0493  0.1755
   76Eth    Hcc 2689   1.223   0.477  10.533  0.0277 -1.5102 -1.5069
   76Eth    Hcc 2690   1.381   0.440  10.610  1.5795 -3.3544  1.9542
   76Eth    Hcc 2691   1.232   0.364  10.665 -0.4683 -1.9745 -1.2561
   77Eth     Ho 2692   1.098   1.599  10.344  0.7504 -0.8724  2.4509
   77Eth     Oh 2693   1.124   1.686  10.366  0.5725 -0.3679  0.6700
   77Eth     Co 2694   1.033   1.725  10.463  0.0669 -0.0664 -0.2555
   77Eth    Hco 2695   1.013   1.651  10.541 -1.6514  1.5627  0.9229
   77Eth    Hco 2696   0.940   1.754  10.414 -0.1588  0.1228  0.2723
   77Eth     Ch 2697   1.098   1.832  10.553  1.1666 -0.0899 -0.0647
   77Eth    Hcc 2698   1.108   1.912  10.480  0.6902  1.9404  2.0455
   77Eth    Hcc 2699   1.189   1.798  10.603 -0.3138 -0.7104  2.2499
   77Eth    Hcc 2700   1.030   1.874  10.626  0.2260  0.4242 -1.2234
   78Eth     Ho 2701   2.303   2.875   8.007  0.3220  1.9812  0.4726
   78Eth     Oh 2702   2.389   2.858   8.042  0.2030  0.3078  0.0355
   78Eth     Co 2703   2.451   2.982   8.028  0.1956 -0.1669  0.3035
   78Eth    Hco 2704   2.389   3.061   8.071  1.7389  0.3212  1.7054
   78Eth    Hco 2705   2.468   2.998   7.922 -0.5875 -0.1117  0.1836
   78Eth     Ch 2706   2.587   2.983   8.093 -0.8378 -0.4852 -0.2002
   78Eth    Hcc 2707   2.579   2.944   8.195  1.6000  0.2510  0.3066
   78Eth    Hcc 2708   2.628   3.083   8.082 -2.0994 -0.0279 -0.7934
   78Eth    Hcc 2709   2.654   2.904   8.057 -1.6091 -0.7721 -1.0147
   79Eth     Ho 2710   2.918   0.438   7.958 -0.5370 -0.1890 -0.1470
   79Eth     Oh 2711   2.838   0.421   7.911 -0.6618  0.6371 -0.2387
   79Eth     Co 2712   2.869   0.311   7.824 -0.9428  0.0628  0.1744
   79Eth    Hco 2713   2.779   0.271   7.779  0.3214 -0.1476 -2.2110
   79Eth    Hco 2714   2.912   0.223   7.872  1.4611  0.5999 -0.9220
   79Eth     Ch 2715   2.959   0.363   7.719 -0.3239 -0.4431  0.5761
   79Eth    Hcc 2716   3.029   0.426   7.773  0.0111 -0.3106 -0.0116
   79Eth    Hcc 2717   2.896   0.416   7.647  1.1191  1.9655  1.0465
   79Eth    Hcc 2718   3.011   0.280   7.671  2.2804  0.3958  1.9014
   80Eth     Ho 2719   0.580   2.389   5.090  1.0704 -0.5236  1.5387
   80Eth     Oh 2720   0.603   2.478   5.073 -0.0447 -0.4236  0.4807
   80Eth     Co 2721   0.727   2.476   5.001  0.5116  0.1536 -0.6779
   80Eth    Hco 2722   0.742   2.369   4.989  1.2078  0.3852 -1.9615
   80Eth    Hco 2723   0.823   2.501   5.047  1.1293  0.6333 -2.2001
   80Eth     Ch 2724   0.696   2.551   4.871  0.3162  0.6441 -0.8000
   80Eth    Hcc 2725   0.774   2.550   4.794  1.0804 -0.1956 -0.0381
   80Eth    Hcc 2726   0.679   2.653   4.905  1.5273  1.0783 -1.4432
   80Eth    Hcc 2727   0.603   2.518   4.825  0.4664 -0.2925 -0.4386
   81Eth     Ho 2728   1.808   2.999   7.785 -1.1363  0.1706 -0.9562
   81Eth     Oh 2729   1.765   3.056   7.847  0.3557 -0.3299  0.5653
   81Eth     Co 2730   1.841   3.179   7.850  0.3099 -0.0950 -0.0279
   81Eth    Hco 2731   1.870   3.204   7.748 -0.5312 -1.0833 -0.5175
   81Eth    Hco 2732   1.939   3.162   7.895 -1.0948 -2.1744  2.4022
   81Eth     Ch 2733   1.787   3.304   7.907 -0.7477 -0.1330 -0.6112
   81Eth    Hcc 2734   1.853   3.391   7.904  0.0062 -0.6304  1.0483
   81Eth    Hcc 2735   1.746   3.280   8.005  0.4140  0.1117 -0.0590
   81Eth    Hcc 2736   1.705   3.326   7.838 -1.8683  2.2410  1.4182
   82Eth     Ho 2737   1.405   2.497   1.536 -0.3098 -1.0526  0.6295
   82Eth     Oh 2738   1.312   2.504   1.547 -0.2175  0.4093  0.6576
   82Eth     Co 2739   1.274   2.639   1.532  0.8021 -0.5877  0.2357
   82Eth    Hco 2740   1.360   2.691   1.575 -0.0972  0.8500  0.3523
   82Eth    Hco 2741   1.186   2.658   1.594 -0.0691 -0.3641 -1.0396
   82Eth     Ch 2742   1.238   2.685   1.393  0.2010 -0.3406 -0.4776
   82Eth    Hcc 2743   1.320   2.669   1.323  2.1468  0.7250  1.5036
   82Eth    Hcc 2744   1.221   2.792   1.388 -2.6218 -0.7013  0.2483
   82Eth    Hcc 2745   1.145   2.639   1.358  0.6005  1.4745 -4.1517
   83Eth     Ho 2746   1.069   1.306   1.395 -1.2305 -0.7507  0.4258
   83Eth     Oh 2747   1.118   1.231   1.423  0.0500 -0.1007 -0.0477
   83Eth     Co 2748   1.258   1.270   1.448 -0.0568  0.1501 -0.8133
   83Eth    Hco 2749   1.273   1.313   1.547 -1.9167 -0.6209 -0.1665
   83Eth    Hco 2750   1.293   1.325   1.361 -3.1025  0.6030 -1.8042
   83Eth     Ch 2751   1.334   1.132   1.455 -0.3115  0.0171 -0.0608
   83Eth    Hcc 2752   1.323   1.075   1.548 -0.0283 -1.3474 -0.8570
   83Eth    Hcc 2753   1.438   1.164   1.464 -0.9294  1.4464  2.9982
   83Eth    Hcc 2754   1.324   1.071   1.366 -0.9374 -0.3791  0.2862
   84Eth     Ho 2755   2.554   3.007   1.444 -1.1769 -0.5900  0.5790
   84Eth     Oh 2756   2.484   3.069   1.451 -0.9949 -0.2952 -0.1376
   84Eth     Co 2757   2.374   3.012   1.386  0.3355  0.3421  0.1924
   84Eth    Hco 2758   2.349   2.917   1.433  2.2705  1.3030  3.3210
   84Eth    Hco 2759   2.402   2.989   1.283  2.2439  0.9995  0.5342
   84Eth     Ch 2760   2.256   3.108   1.389 -0.4679  0.1579  0.0596
   84Eth    Hcc 2761   2.277   3.210   1.358 -0.0319 -0.0995 -0.4813
   84Eth    Hcc 2762   2.224   3.118   1.493 -0.3809  0.3428  0.0687
   84Eth    Hcc 2763   2.170   3.073   1.332 -0.4974  0.3070  0.0115
   85Eth     Ho 2764   2.142   1.460   1.450  1.0508 -1.2418  1.9165
   85Eth     Oh 2765   2.228   1.429   1.429  0.9105 -0.4277  0.0533
   85Eth     Co 2766   2.322   1.531   1.444  0.6735  0.3025  0.2549
   85Eth    Hco 2767   2.305   1.601   1.527  0.1619  3.0434 -2.0884
   85Eth    Hco 2768   2.306   1.600   1.361  0.1116  1.3257  1.1969
   85Eth     Ch 2769   2.462   1.470   1.426 -0.0850 -0.2109 -0.1284
   85Eth    Hcc 2770   2.477   1.408   1.337 -0.0951  0.4800 -0.6096
   85Eth    Hcc 2771   2.490   1.416   1.517 -1.5077  1.6428  1.4612
   85Eth    Hcc 2772   2.536   1.549   1.422 -1.2826  0.9889  1.0403
   86Eth     Ho 2773   0.571   3.001   1.366  0.0369  1.1760 -1.2515
   86Eth     Oh 2774   0.477   2.995   1.375  0.2334  0.4872  0.6088
   86Eth     Co 2775   0.426   3.124   1.394 -0.0606  0.1884 -0.3089
   86Eth    Hco 2776   0.416   3.176   1.299  0.1127 -1.1207 -1.0449
   86Eth    Hco 2777   0.501   3.176   1.453  0.5936 -1.4722  0.3464
   86Eth     Ch 2778   0.294   3.114   1.460 -0.0231  0.0306 -0.2855
   86Eth    Hcc 2779   0.250   3.200   1.510  1.0102 -0.3245  1.2862
   86Eth    Hcc 2780   0.313   3.054   1.550  2.0948 -0.7338 -1.2099
   86Eth    Hcc 2781   0.226   3.074   1.385 -0.8918  1.0720 -0.0597
   87Eth     Ho 2782   1.006   0.451   5.729 -2.1881 -1.9447  2.4818
   87Eth     Oh 2783   1.080   0.417   5.778  0.3042  0.0784  0.2933
   87Eth     Co 2784   1.121   0.310   5.693 -0.2081  0.4952  0.3742
   87Eth    Hco 2785   1.158   0.351   5.599  0.0152 -1.5455 -0.4713
   87Eth    Hco 2786   1.032   0.254   5.664 -1.5116  2.4010  0.6175
   87Eth     Ch 2787   1.237   0.227   5.745 -0.7107  0.2562 -0.2632
   87Eth    Hcc 2788   1.280   0.167   5.665 -0.9753  1.6021 -1.4321
   87Eth    Hcc 2789   1.224   0.159   5.830 -0.7554  1.2855  0.5688
   87Eth    Hcc 2790   1.310   0.301   5.778 -2.0992  1.2117  0.7276
   88Eth     Ho 2791   1.174   0.477   8.493  1.4733 -0.2772  0.2138
   88Eth     Oh 2792   1.166   0.397   8.542 -0.4731 -0.3820 -0.2365
   88Eth     Co 2793   1.163   0.290   8.455 -0.5277 -0.4464 -0.6678
   88Eth    Hco 2794   1.254   0.270   8.399 -1.2607 -0.0795 -2.0402
   88Eth    Hco 2795   1.100   0.317   8.370  1.1194  0.0599 -1.7444
   88Eth     Ch 2796   1.140   0.159   8.524 -0.5775 -0.0715  0.3948
   88Eth    Hcc 2797   1.067   0.173   8.603 -1.8848 -1.2290 -0.5694
   88Eth    Hcc 2798   1.231   0.133   8.577 -1.1814 -2.0810  0.5053
   88Eth    Hcc 2799   1.109   0.080   8.454  3.0147 -0.0278 -1.3703
   89Eth     Ho 2800   0.212   0.534   8.382  1.9949 -0.2373  1.2828
   89Eth     Oh 2801   0.161   0.462   8.412  0.5127 -0.0767 -0.7501
   89Eth     Co 2802   0.170   0.484   8.555 -0.4811  0.3325  0.1981
   89Eth    Hco 2803   0.121   0.580   8.574  0.7971  1.5985 -2.6487
   89Eth    Hco 2804   0.273   0.513   8.573 -0.2953  0.2390 -0.7131
   89Eth     Ch 2805   0.131   0.369   8.642 -0.0667  0.1222  0.3471
   89Eth    Hcc 2806   0.029   0.335   8.628  0.3183 -0.4731 -1.1090
   89Eth    Hcc 2807   0.124   0.396   8.748 -4.7546 -2.1084  0.7472
   89Eth    Hcc 2808   0.195   0.281   8.636 -2.0652 -1.3865  0.7987
   90Eth     Ho 2809   2.426   0.800   8.141 -2.2760  1.5148  0.7888
   90Eth     Oh 2810   2.375   0.767   8.069  0.0552 -0.0696 -0.2409
   90Eth     Co 2811   2.405   0.625   8.051 -0.6078  0.7761  0.2285
   90Eth    Hco 2812   2.466   0.595   8.136  0.1422 -1.5042 -1.0689
   90Eth    Hco 2813   2.464   0.621   7.960 -0.2687  2.5564  0.3578
   90Eth     Ch 2814   2.279   0.541   8.027 -0.2525  0.5988  0.5614
   90Eth    Hcc 2815   2.212   0.581   7.952  1.0175  0.2170 -0.8022
   90Eth    Hcc 2816   2.218   0.531   8.117 -0.4085  0.7452  0.4710
   90Eth    Hcc 2817   2.299   0.459   7.958  0.8642  0.4043  1.1051
   91Eth     Ho 2818   1.800   0.506   4.800 -2.3766  1.5578 -0.0558
   91Eth     Oh 2819   1.800   0.518   4.893  0.4998  0.0653  0.1736
   91Eth     Co 2820   1.667   0.515   4.935 -0.4479 -0.2373  0.0926
   91Eth    Hco 2821   1.636   0.417   4.899 -3.5835 -0.1320  2.2220
   91Eth    Hco 2822   1.615   0.597   4.885  0.3920  0.2255 -0.0231
   91Eth     Ch 2823   1.655   0.526   5.083 -1.2681  0.4692 -0.2591
   91Eth    Hcc 2824   1.716   0.612   5.114 -1.7001  0.3668  0.9058
   91Eth    Hcc 2825   1.692   0.431   5.121 -1.2350 -1.2386 -4.3628
   91Eth    Hcc 2826   1.554   0.551   5.113 -0.8181  1.0887  0.7794
   92Eth     Ho 2827   1.499   3.150  10.370 -0.9308  1.8748  1.3128
   92Eth     Oh 2828   1.416   3.108  10.375 -0.0469 -0.0930 -0.1015
   92Eth     Co 2829   1.441   3.014  10.482 -0.4723  0.2406 -0.4584
   92Eth    Hco 2830   1.438   3.064  10.579  1.7884 -0.3223 -0.0539
   92Eth    Hco 2831   1.543   2.976  10.479 -0.8909 -0.7257 -4.2481
   92Eth     Ch 2832   1.345   2.894  10.487  0.0665 -0.3097 -0.2338
   92Eth    Hcc 2833   1.385   2.820  10.557  3.0860  0.8795 -0.6062
   92Eth    Hcc 2834   1.356   2.838  10.395 -0.5915 -3.6927  1.6554
   92Eth    Hcc 2835   1.237   2.904  10.497  0.2548  2.4154 -0.5236
   93Eth     Ho 2836   1.722   3.194  10.262 -0.8701  0.4441 -0.7508
   93Eth     Oh 2837   1.686   3.232  10.340  0.4292  0.0336  0.0703
   93Eth     Co 2838   1.773   3.238  10.446 -0.4842  0.1412 -0.3716
   93Eth    Hco 2839   1.866   3.273  10.400 -1.0099  0.3104 -1.3155
   93Eth    Hco 2840   1.794   3.137  10.483  0.1228  1.1682  2.1292
   93Eth     Ch 2841   1.720   3.324  10.557 -0.1282 -0.7640  0.7856
   93Eth    Hcc 2842   1.630   3.277  10.597 -1.2970  1.3606  0.7657
   93Eth    Hcc 2843   1.696   3.429  10.537  0.9326 -0.9864 -1.8068
   93Eth    Hcc 2844   1.785   3.319  10.645  1.9609  0.5726 -0.6439
   94Eth     Ho 2845   0.445   2.875  10.257  3.6047  2.0232  0.7872
   94Eth     Oh 2846   0.399   2.906  10.333 -0.2890  0.4016 -0.7773
   94Eth     Co 2847   0.500   2.885  10.436 -0.1819 -0.2603  0.6039
   94Eth    Hco 2848   0.563   2.973  10.427 -0.3986  0.1744  3.0171
   94Eth    Hco 2849   0.548   2.795  10.398  1.1952  0.7909 -0.2110
   94Eth     Ch 2850   0.431   2.886  10.571  0.3591 -0.0226  0.3078
   94Eth    Hcc 2851   0.518   2.891  10.636 -0.2633 -0.4740  1.1920
   94Eth    Hcc 2852   0.362   2.801  10.572 -1.9925  1.8157 -1.6736
   94Eth    Hcc 2853   0.379   2.978  10.598 -0.9796  0.2596 -3.0231
   95Eth     Ho 2854   1.171   3.186   1.685  0.6183  2.5179 -3.5300
   95Eth     Oh 2855   1.182   3.108   1.633  0.2434  0.1098 -0.1878
   95Eth     Co 2856   1.252   3.155   1.516 -0.9516  0.0315  0.6409
   95Eth    Hco 2857   1.352   3.117   1.495 -0.7140  1.8762 -1.7181
   95Eth    Hco 2858   1.281   3.258   1.534 -1.8328  0.7918 -2.1118
   95Eth     Ch 2859   1.171   3.158   1.391 -0.1546  0.6870 -0.1566
   95Eth    Hcc 2860   1.236   3.184   1.307  0.0154  1.3807  0.1915
   95Eth    Hcc 2861   1.093   3.233   1.392  0.2405  1.0899  0.7799
   95Eth    Hcc 2862   1.132   3.058   1.372 -0.6808  0.6510  1.0733
   96Eth     Ho 2863   1.116   0.096   1.579 -0.2122 -0.5948  0.3100
   96Eth     Oh 2864   1.198   0.113   1.536 -0.3598 -0.2215  0.1660
   96Eth     Co 2865   1.186   0.198   1.420  0.1638  0.3400  1.3850
   96Eth    Hco 2866   1.088   0.211   1.374  1.1028 -0.7500 -1.0157
   96Eth    Hco 2867   1.252   0.170   1.338 -0.4022  0.0895  1.0125
   96Eth     Ch 2868   1.240   0.329   1.452  0.3218 -0.5765 -0.1661
   96Eth    Hcc 2869   1.315   0.330   1.532 -0.5457 -2.8090  0.7483
   96Eth    Hcc 2870   1.159   0.389   1.492  0.6609 -0.8223  0.9148
   96Eth    Hcc 2871   1.289   0.381   1.371  0.5754 -1.2315 -0.4401
   97Eth     Ho 2872   0.042   1.339  10.076  0.3396  1.9509 -2.0783
   97Eth     Oh 2873   0.066   1.402  10.141  0.5671 -0.0289 -0.1837
   97Eth     Co 2874   0.101   1.510  10.061  0.7146 -0.7272  0.2957
   97Eth    Hco 2875   0.025   1.571  10.013  0.0010 -1.8855 -0.0806
   97Eth    Hco 2876   0.147   1.458   9.976 -0.4736 -1.1875 -0.0805
   97Eth     Ch 2877   0.207   1.585  10.128 -0.6945 -0.0013  0.1103
   97Eth    Hcc 2878   0.215   1.680  10.075 -1.2864 -1.6406 -3.0634
   97Eth    Hcc 2879   0.304   1.538  10.107 -0.6624 -0.5423  1.3969
   97Eth    Hcc 2880   0.186   1.612  10.231 -0.7808 -1.9770  0.6315
   98Eth     Ho 2881   0.792   2.833   8.794 -0.9778 -0.2334 -3.3386
   98Eth     Oh 2882   0.792   2.739   8.796  0.3673 -0.2242 -0.0638
   98Eth     Co 2883   0.885   2.683   8.700 -0.2851 -1.1814  0.4598
   98Eth    Hco 2884   0.983   2.684   8.749 -0.6529 -2.2588  1.2337
   98Eth    Hco 2885   0.893   2.759   8.623  2.2447  0.0053  1.8256
   98Eth     Ch 2886   0.845   2.553   8.632  0.6456 -0.2327 -0.8738
   98Eth    Hcc 2887   0.898   2.520   8.542 -0.2000 -0.7472 -1.1856
   98Eth    Hcc 2888   0.741   2.558   8.601  0.5051 -2.3176 -0.8367
   98Eth    Hcc 2889   0.868   2.463   8.690  1.5803  1.1614  0.9497
   99Eth     Ho 2890   2.406   2.183  10.380  0.8038  0.2696 -0.4297
   99Eth     Oh 2891   2.382   2.145  10.298 -0.7400  0.7897 -0.2254
   99Eth     Co 2892   2.496   2.074  10.260 -0.3456  1.0308 -0.3384
   99Eth    Hco 2893   2.520   2.002  10.338  0.5376 -0.7615 -2.2151
   99Eth    Hco 2894   2.587   2.134  10.254  0.9769 -0.8582  0.4872
   99Eth     Ch 2895   2.458   1.992  10.136  0.8302 -0.0524  0.4818
   99Eth    Hcc 2896   2.390   1.913  10.167  1.0753 -0.1447  0.7950
   99Eth    Hcc 2897   2.547   1.937  10.104  0.2786 -2.9853  3.7067
   99Eth    Hcc 2898   2.417   2.055  10.057 -1.5321 -1.6362  0.4226
  100Eth     Ho 2899   1.485   1.881   1.556 -0.1540 -0.2352  2.3156
  100Eth     Oh 2900   1.482   1.975   1.555 -0.0686 -0.2204 -0.4197
  100Eth     Co 2901   1.621   1.998   1.541 -0.2436 -0.1872  0.4247
  100Eth    Hco 2902   1.663   1.924   1.473  1.6028  1.8477 -0.7246
  100Eth    Hco 2903   1.667   1.989   1.639 -1.6501 -1.4910  0.9744
  100Eth     Ch 2904   1.649   2.142   1.493 -0.5064  1.2087  0.2786
  100Eth    Hcc 2905   1.619   2.169   1.392  1.1574  0.5453 -0.4086
  100Eth    Hcc 2906   1.754   2.172   1.499 -0.8426  2.5416 -0.3134
  100Eth    Hcc 2907   1.594   2.204   1.564  0.2324 -2.5464  4.3509
  101Eth     Ho 2908   0.762   2.682   7.751 -0.0484 -1.3808  0.0944
  101Eth     Oh 2909   0.721   2.734   7.818  0.0528 -0.8133 -0.2829
  101Eth     Co 2910   0.671   2.649   7.921  0.2109  0.5841 -0.3444
  101Eth    Hco 2911   0.754   2.591   7.962 -0.4270 -0.2127 -0.1611
  101Eth    Hco 2912   0.597   2.578   7.882  0.0960  0.5838 -0.1280
  101Eth     Ch 2913   0.606   2.734   8.028 -0.2717  0.1225  0.9962
  101Eth    Hcc 2914   0.671   2.818   8.055 -0.8322  1.7915 -2.4423
  101Eth    Hcc 2915   0.590   2.684   8.123 -0.3047 -0.0830  0.8820
  101Eth    Hcc 2916   0.507   2.774   8.005  0.4221  1.1771 -0.2934
  102Eth     Ho 2917   1.016   2.635   8.272  0.6081  0.6537 -0.5093
  102Eth     Oh 2918   1.004   2.727   8.289  0.0366  0.3965  0.5749
  102Eth     Co 2919   0.858   2.739   8.292 -0.3991  0.7333  0.2604
  102Eth    Hco 2920   0.826   2.661   8.361  1.2667 -0.8757 -0.7159
  102Eth    Hco 2921   0.808   2.705   8.201  3.1658 -2.7817 -0.5221
  102Eth     Ch 2922   0.814   2.882   8.322 -0.4460  0.4197  0.0682
  102Eth    Hcc 2923   0.850   2.949   8.244  1.1254 -1.5051 -0.9139
  102Eth    Hcc 2924   0.837   2.915   8.424  0.9053 -0.5984  0.1189
  102Eth    Hcc 2925   0.706   2.893   8.323 -0.4695  0.2473  2.4335
  103Eth     Ho 2926   0.870   2.318  10.380  0.5881  0.3226 -0.9172
  103Eth     Oh 2927   0.845   2.257  10.312 -0.5647 -0.6185  0.3083
  103Eth     Co 2928   0.737   2.318  10.239  0.1097 -0.1662 -0.4528
  103Eth    Hco 2929   0.771   2.405  10.182 -0.0918 -0.2991 -0.7795
  103Eth    Hco 2930   0.659   2.356  10.305 -0.5099 -0.6122 -0.9220
  103Eth     Ch 2931   0.677   2.221  10.131 -0.0570  0.0553 -0.2404
  103Eth    Hcc 2932   0.746   2.211  10.047 -0.2061 -3.2873 -0.0457
  103Eth    Hcc 2933   0.578   2.246  10.094 -0.3592 -2.5578 -1.3324
  103Eth    Hcc 2934   0.675   2.119  10.171 -1.2618 -0.3337 -1.2732
  104Eth     Ho 2935   2.222   2.757   1.613  0.5361 -0.4156 -1.8012
  104Eth     Oh 2936   2.171   2.680   1.596  0.1673 -0.5569 -0.1694
  104Eth     Co 2937   2.163   2.656   1.455  0.2219 -0.2368  0.1792
  104Eth    Hco 2938   2.249   2.616   1.401  0.4902 -0.5866  0.8594
  104Eth    Hco 2939   2.142   2.743   1.394  0.8060 -1.1678 -1.3708
  104Eth     Ch 2940   2.038   2.562   1.444 -0.3132  0.3760 -0.3582
  104Eth    Hcc 2941   1.966   2.601   1.516  2.2836  3.1733  0.8581
  104Eth    Hcc 2942   2.070   2.461   1.467 -2.0297 -0.7766 -2.8895
  104Eth    Hcc 2943   2.004   2.549   1.341  0.8628  2.6160 -1.0668
  105Eth     Ho 2944   0.962   1.521  10.270 -0.8936  2.1312  1.5555
  105Eth     Oh 2945   0.967   1.467  10.347  0.0441 -0.0170  0.0292
  105Eth     Co 2946   0.831   1.432  10.377 -0.0756  0.2692 -0.5589
  105Eth    Hco 2947   0.756   1.426  10.299 -0.3935 -1.1921 -0.1536
  105Eth    Hco 2948   0.794   1.524  10.422  2.7343  1.0226  0.3138
  105Eth     Ch 2949   0.818   1.328  10.488  0.6736  0.7352 -0.4289
  105Eth    Hcc 2950   0.718   1.313  10.530 -0.3886 -0.5196 -3.2542
  105Eth    Hcc 2951   0.883   1.354  10.572  1.3536 -0.7761 -0.4726
  105Eth    Hcc 2952   0.858   1.233  10.452 -0.8130 -0.0874  0.0201
  106Eth     Ho 2953   2.723   1.582  10.471 -0.9211 -0.5588  0.0328
  106Eth     Oh 2954   2.770   1.519  10.419  0.3582  0.1257  0.3484
  106Eth     Co 2955   2.797   1.412  10.508 -0.2288 -0.1755 -0.5920
  106Eth    Hco 2956   2.722   1.338  10.481 -0.1828 -1.1142  1.6999
  106Eth    Hco 2957   2.787   1.437  10.614 -0.0857 -1.4598 -0.2581
  106Eth     Ch 2958   2.932   1.346  10.482 -0.1768  0.6843 -0.4696
  106Eth    Hcc 2959   3.020   1.405  10.508 -1.1966  1.7080  0.7242
  106Eth    Hcc 2960   2.926   1.298  10.384  0.5384 -0.7754  0.1736
  106Eth    Hcc 2961   2.937   1.261  10.551 -1.8112  0.0103 -1.1694
  107Eth     Ho 2962   3.036   2.096   1.267 -0.1738 -1.0605  0.0644
  107Eth     Oh 2963   3.072   2.060   1.346  0.5844  0.1264  0.2652
  107Eth     Co 2964   2.971   2.094   1.438  1.4465  0.4552 -0.2525
  107Eth    Hco 2965   2.954   2.201   1.427 -0.4696  0.2986  1.0081
  107Eth    Hco 2966   3.018   2.084   1.536  1.0039  2.0626  0.1510
  107Eth     Ch 2967   2.840   2.013   1.422 -0.1152  0.2221  0.3154
  107Eth    Hcc 2968   2.868   1.907   1.424  4.1497  1.2610  4.2564
  107Eth    Hcc 2969   2.796   2.044   1.328 -0.4845  2.5068  1.2232
  107Eth    Hcc 2970   2.763   2.037   1.495 -0.4989  0.6180 -0.2152
  108Eth     Ho 2971   0.929   0.899  10.386  1.5993 -0.6126 -1.0633
  108Eth     Oh 2972   0.977   0.860  10.457  0.3363  0.0608  0.1856
  108Eth     Co 2973   1.063   0.958  10.516  0.4979  0.4236  0.2788
  108Eth    Hco 2974   1.020   1.020  10.594  0.7200  0.2067  0.5747
  108Eth    Hco 2975   1.077   1.018  10.425 -2.9719  1.3703  0.3249
  108Eth     Ch 2976   1.209   0.908  10.553  0.3435 -0.0963 -0.1081
  108Eth    Hcc 2977   1.269   0.991  10.590  0.6719 -1.2543  2.0742
  108Eth    Hcc 2978   1.259   0.868  10.465 -1.9303  0.0678 -1.5033
  108Eth    Hcc 2979   1.207   0.837  10.636  1.6655  0.3414  0.3201
  109Eth     Ho 2980   0.830   1.880   9.513  0.6279  2.2169  0.4727
  109Eth     Oh 2981   0.798   1.871   9.602 -0.1889 -0.2663 -0.0074
  109Eth     Co 2982   0.862   1.972   9.688  0.4403  0.1255 -0.1446
  109Eth    Hco 2983   0.841   2.072   9.651 -2.6330 -0.2179  0.4957
  109Eth    Hco 2984   0.968   1.947   9.690  0.4428 -0.4413 -3.9808
  109Eth     Ch 2985   0.804   1.962   9.830  0.2142  0.3949 -0.3111
  109Eth    Hcc 2986   0.855   2.026   9.902 -0.8617 -0.5510  1.3155
  109Eth    Hcc 2987   0.825   1.862   9.866  0.5383  0.8213  0.7076
  109Eth    Hcc 2988   0.697   1.983   9.829  0.7104  3.2801  1.2713
  110Eth     Ho 2989   1.061   1.325  10.456 -0.1620  1.9937  1.3133
  110Eth     Oh 2990   1.139   1.278  10.476 -0.6415  0.3837 -0.4689
  110Eth     Co 2991   1.199   1.360  10.580 -0.9043  0.7402 -0.0367
  110Eth    Hco 2992   1.146   1.337  10.672 -0.8041  0.4450 -0.0491
  110Eth    Hco 2993   1.182   1.463  10.549 -0.1744  0.7194 -0.5164
  110Eth     Ch 2994   1.354   1.335  10.580  0.2699  0.0914 -0.1083
  110Eth    Hcc 2995   1.394   1.385  10.668  2.1107 -1.3479 -0.0786
  110Eth    Hcc 2996   1.398   1.379  10.490  0.2554  2.8445  1.1773
  110Eth    Hcc 2997   1.384   1.232  10.597 -1.9424 -0.5520  0.1093
  111Eth     Ho 2998   2.800   2.420   2.612 -1.8072 -0.7535  0.6885
  111Eth     Oh 2999   2.821   2.328   2.607  0.3929 -0.2672  0.1724
  111Eth     Co 3000   2.904   2.291   2.719  0.8541  0.1134  0.3282
  111Eth    Hco 3001   2.864   2.216   2.787 -1.3125  0.8070 -0.1390
  111Eth    Hco 3002   2.922   2.383   2.774  2.0435  1.8213 -2.7936
  111Eth     Ch 3003   3.032   2.236   2.648 -0.4342 -0.3302  0.1209
  111Eth    Hcc 3004   3.084   2.305   2.582 -0.1775  0.8417  1.5217
  111Eth    Hcc 3005   3.019   2.147   2.587 -0.4961 -0.1618 -0.1147
  111Eth    Hcc 3006   3.095   2.207   2.732  0.8116  1.9022  0.0112
  112Eth     Ho 3007   1.465   2.107   1.773  0.3754 -1.2692 -0.1756
  112Eth     Oh 3008   1.534   2.089   1.834  0.5581 -0.5036 -0.1500
  112Eth     Co 3009   1.469   1.989   1.920 -0.1031 -0.2592  0.8790
  112Eth    Hco 3010   1.436   1.906   1.857  0.0515  1.5507 -1.6766
  112Eth    Hco 3011   1.380   2.038   1.959 -0.4743 -0.6916  0.5752
  112Eth     Ch 3012   1.576   1.936   2.017 -0.5387 -0.2242 -0.4449
  112Eth    Hcc 3013   1.656   1.884   1.965 -0.2484  0.1354 -0.3609
  112Eth    Hcc 3014   1.526   1.876   2.093  0.4198 -0.5514 -0.0763
  112Eth    Hcc 3015   1.623   2.021   2.066 -0.8481  0.6630 -1.6621
  113Eth     Ho 3016   1.994   1.892   1.623  2.0043 -0.4383  0.7989
  113Eth     Oh 3017   2.009   1.852   1.539 -0.0007  0.1462  0.1164
  113Eth     Co 3018   2.095   1.943   1.464  0.5643  0.5151 -0.2912
  113Eth    Hco 3019   2.117   2.025   1.533 -0.1896 -0.8305  1.6136
  113Eth    Hco 3020   2.046   1.988   1.379 -1.8333  0.9786  1.2905
  113Eth     Ch 3021   2.226   1.881   1.418 -0.1386  0.6720  0.1546
  113Eth    Hcc 3022   2.200   1.831   1.325  0.2256  0.0876  0.3712
  113Eth    Hcc 3023   2.282   1.817   1.486  0.6972  1.0458 -0.1796
  113Eth    Hcc 3024   2.305   1.951   1.393 -1.7312  2.1485 -0.9021
  114Eth     Ho 3025   0.219   1.643   9.863  0.0973 -0.2848 -0.1673
  114Eth     Oh 3026   0.181   1.631   9.778 -0.1207 -0.2259 -0.0778
  114Eth     Co 3027   0.265   1.548   9.708 -0.3738 -0.0694  0.2872
  114Eth    Hco 3028   0.264   1.447   9.750  1.4305 -1.7936 -3.6071
  114Eth    Hco 3029   0.367   1.583   9.719  0.3831 -2.0301 -0.3687
  114Eth     Ch 3030   0.234   1.545   9.557  0.4100  0.4697 -0.1361
  114Eth    Hcc 3031   0.160   1.469   9.533 -0.8382  1.9776 -1.1757
  114Eth    Hcc 3032   0.325   1.530   9.500 -0.2247  0.3845 -1.1467
  114Eth    Hcc 3033   0.195   1.639   9.519 -0.4622  1.3604  2.7975
  115Eth     Ho 3034   1.255   1.793   6.203  2.5658 -0.6981  0.4186
  115Eth     Oh 3035   1.257   1.749   6.120 -0.5284 -0.1359 -0.0316
  115Eth     Co 3036   1.215   1.622   6.175  0.2830  0.1085 -0.1029
  115Eth    Hco 3037   1.125   1.645   6.231  1.2300 -0.1698  1.5490
  115Eth    Hco 3038   1.277   1.591   6.259 -2.0122 -3.0684  0.4930
  115Eth     Ch 3039   1.204   1.512   6.065 -0.1755  0.1034 -0.0383
  115Eth    Hcc 3040   1.129   1.542   5.991 -0.7227  0.2264  0.5683
  115Eth    Hcc 3041   1.178   1.415   6.106  0.5785 -0.5087 -0.9545
  115Eth    Hcc 3042   1.294   1.488   6.008 -0.5110 -1.7145  0.1594
  116Eth     Ho 3043   2.204   0.951   8.288 -1.1335 -0.7745  0.0732
  116Eth     Oh 3044   2.161   0.939   8.370 -0.3503 -0.0917  0.5908
  116Eth     Co 3045   2.253   0.911   8.472 -0.1940 -0.0872 -0.2532
  116Eth    Hco 3046   2.312   0.997   8.503 -0.6824 -0.0820  0.6880
  116Eth    Hco 3047   2.325   0.840   8.431  1.0522  1.5525 -0.9312
  116Eth     Ch 3048   2.193   0.857   8.602  0.2696  0.1801 -0.4158
  116Eth    Hcc 3049   2.252   0.883   8.690 -0.5994  0.6460  0.0348
  116Eth    Hcc 3050   2.181   0.749   8.599  0.4735  0.0856  1.6910
  116Eth    Hcc 3051   2.095   0.898   8.625  1.0218  1.8118 -0.0344
  117Eth     Ho 3052   0.059   2.244   4.624  2.3987  0.7902 -1.0835
  117Eth     Oh 3053   0.099   2.160   4.632  0.4281 -0.0801  0.1698
  117Eth     Co 3054   0.230   2.176   4.578 -0.1376 -1.1406 -0.4507
  117Eth    Hco 3055   0.300   2.238   4.634 -1.1782 -0.8680  0.5651
  117Eth    Hco 3056   0.218   2.220   4.479 -2.6778 -2.3286 -0.7107
  117Eth     Ch 3057   0.292   2.034   4.570 -0.2079 -0.6994  0.4047
  117Eth    Hcc 3058   0.262   1.970   4.653  0.5945 -1.7421 -0.0876
  117Eth    Hcc 3059   0.400   2.036   4.561 -0.0558  2.9945  2.4927
  117Eth    Hcc 3060   0.251   1.984   4.481 -0.4189 -0.3409  0.3015
  118Eth     Ho 3061   1.048   2.196   1.449 -1.3375  0.1051 -0.1205
  118Eth     Oh 3062   1.028   2.118   1.497 -0.0883  0.3076  0.7685
  118Eth     Co 3063   1.017   2.024   1.393 -0.3839 -0.2765  0.2103
  118Eth    Hco 3064   1.119   1.999   1.362 -0.6902  0.8311 -1.8048
  118Eth    Hco 3065   0.974   2.080   1.310  2.8290  1.5570 -0.2854
  118Eth     Ch 3066   0.941   1.889   1.423 -0.5393  0.1929 -0.0108
  118Eth    Hcc 3067   0.954   1.828   1.334  1.1258  1.1529 -0.4479
  118Eth    Hcc 3068   0.834   1.905   1.434 -1.0174 -0.9331 -2.5634
  118Eth    Hcc 3069   0.967   1.829   1.510 -2.5179 -0.4922  0.1348
  119Eth     Ho 3070   1.384   2.711   7.191 -1.8037  0.3237  1.9043
  119Eth     Oh 3071   1.318   2.658   7.151 -0.2356 -0.2234 -0.0496
  119Eth     Co 3072   1.242   2.752   7.079 -1.0307 -0.1924  0.2624
  119Eth    Hco 3073   1.300   2.776   6.990 -1.1276  1.9091  0.7540
  119Eth    Hco 3074   1.230   2.843   7.137 -0.4869 -0.0369  0.1326
  119Eth     Ch 3075   1.107   2.688   7.036  0.7235 -0.0729 -0.0199
  119Eth    Hcc 3076   1.128   2.607   6.967  3.5026  2.1677 -1.9190
  119Eth    Hcc 3077   1.047   2.753   6.973  0.7922  0.7568  0.7655
  119Eth    Hcc 3078   1.048   2.662   7.124  2.3860 -0.3987  1.0244
  120Eth     Ho 3079   1.603   0.968   4.716 -0.9113  0.6380 -0.7782
  120Eth     Oh 3080   1.531   0.956   4.775 -0.4443 -0.2679 -0.3923
  120Eth     Co 3081   1.587   0.931   4.905  0.1060  0.0601 -0.3298
  120Eth    Hco 3082   1.647   1.015   4.937 -0.9353  0.9295 -0.6427
  120Eth    Hco 3083   1.655   0.849   4.882  0.7211 -0.4035  2.8784
  120Eth     Ch 3084   1.493   0.895   5.020  0.2111 -0.1747 -0.1598
  120Eth    Hcc 3085   1.561   0.872   5.102  1.9471 -1.2961 -1.8899
  120Eth    Hcc 3086   1.426   0.810   5.008 -0.9929  0.3929  2.1442
  120Eth    Hcc 3087   1.444   0.986   5.055 -1.5835 -0.9855 -0.4742
  121Eth     Ho 3088   2.472   1.827   1.906  0.5220  1.1359 -0.2132
  121Eth     Oh 3089   2.400   1.803   1.962  1.1109 -0.3258 -0.0635
  121Eth     Co 3090   2.309   1.752   1.864  0.5330 -0.1506 -0.4584
  121Eth    Hco 3091   2.368   1.732   1.774 -0.5992  1.0755 -1.4946
  121Eth    Hco 3092   2.229   1.815   1.825 -1.4498 -1.4541  1.4185
  121Eth     Ch 3093   2.253   1.621   1.913  0.3645  1.0704  0.7617
  121Eth    Hcc 3094   2.324   1.544   1.943 -0.0725  0.6601  0.7549
  121Eth    Hcc 3095   2.193   1.571   1.837  0.2359  1.4450  0.6123
  121Eth    Hcc 3096   2.187   1.643   1.997  1.7447 -0.2236  2.1986
  122Eth     Ho 3097   0.960   0.844   2.120  0.3438 -0.1331 -0.5735
  122Eth     Oh 3098   0.878   0.814   2.085  0.2623  0.4402 -0.8767
  122Eth     Co 3099   0.846   0.896   1.984  0.0356 -0.0462 -0.0663
  122Eth    Hco 3100   0.911   0.868   1.902  0.7483 -0.5394  0.6626
  122Eth    Hco 3101   0.866   0.996   2.024 -0.4138 -0.0359  0.1413
  122Eth     Ch 3102   0.699   0.884   1.964  0.2068 -0.1953  0.3183
  122Eth    Hcc 3103   0.653   0.785   1.955 -1.0255  0.0812  3.1343
  122Eth    Hcc 3104   0.672   0.930   1.869  1.1444 -0.2845  0.0058
  122Eth    Hcc 3105   0.650   0.945   2.039  2.3829  0.9835  0.8237
  123Eth     Ho 3106   1.390   1.313   9.642 -0.6587  0.6866  2.3159
  123Eth     Oh 3107   1.410   1.240   9.697 -0.3227 -0.6326  0.4850
  123Eth     Co 3108   1.311   1.142   9.674  0.3691 -0.5239 -0.5015
  123Eth    Hco 3109   1.287   1.123   9.569 -1.3292  0.2948 -0.2779
  123Eth    Hco 3110   1.216   1.163   9.723 -0.1267 -0.2965 -1.5485
  123Eth     Ch 3111   1.355   0.999   9.731  0.0185  0.6361  0.4476
  123Eth    Hcc 3112   1.349   0.988   9.839  0.8474 -1.9653  0.2686
  123Eth    Hcc 3113   1.461   0.980   9.718 -0.2354 -1.2708  0.9284
  123Eth    Hcc 3114   1.290   0.919   9.693  0.3983  1.4606 -2.0164
  124Eth     Ho 3115   2.013   2.239  10.307 -0.7227 -2.0851  0.6306
  124Eth     Oh 3116   1.984   2.299  10.373  0.1283 -0.2333 -0.6437
  124Eth     Co 3117   2.100   2.322  10.450  0.2767 -0.1692 -0.4577
  124Eth    Hco 3118   2.162   2.397  10.400  2.8553 -0.4228  2.2120
  124Eth    Hco 3119   2.149   2.224  10.447  0.6289 -0.0090 -0.0294
  124Eth     Ch 3120   2.066   2.362  10.589  0.1626 -0.2032 -0.4382
  124Eth    Hcc 3121   1.979   2.306  10.625 -0.3009  1.6619  1.4246
  124Eth    Hcc 3122   2.040   2.467  10.604 -3.5210 -0.9704 -0.7911
  124Eth    Hcc 3123   2.143   2.328  10.658  0.5145 -0.0885 -0.7763
  125Eth     Ho 3124   2.368   0.142   8.609 -1.6482  1.8864 -0.8631
  125Eth     Oh 3125   2.429   0.210   8.630  0.1562  0.0488  0.0377
  125Eth     Co 3126   2.442   0.192   8.766  0.0244  0.0546  0.7980
  125Eth    Hco 3127   2.483   0.092   8.778 -1.1256 -0.6411 -0.7613
  125Eth    Hco 3128   2.343   0.185   8.811 -1.2309 -0.6890 -1.9272
  125Eth     Ch 3129   2.540   0.306   8.814 -0.1874  0.1329 -0.3857
  125Eth    Hcc 3130   2.579   0.287   8.914 -0.2933 -1.4102 -0.6116
  125Eth    Hcc 3131   2.501   0.407   8.817  1.7456  0.8455  1.4065
  125Eth    Hcc 3132   2.630   0.298   8.752  0.7992  1.7508  0.8048
  126Eth     Ho 3133   2.505   1.623  10.550  0.7481 -1.4244  0.9888
  126Eth     Oh 3134   2.580   1.673  10.524 -0.1613 -0.6490 -0.1526
  126Eth     Co 3135   2.585   1.798  10.597 -0.5133 -0.0476 -0.1043
  126Eth    Hco 3136   2.568   1.773  10.702  0.1928  1.9286  0.5108
  126Eth    Hco 3137   2.511   1.863  10.549  0.7064  2.5756  1.4581
  126Eth     Ch 3138   2.723   1.848  10.568  0.2661  0.5154 -0.1704
  126Eth    Hcc 3139   2.797   1.769  10.577  1.4391  1.8013  2.0702
  126Eth    Hcc 3140   2.736   1.923  10.646 -0.5566 -0.5070  0.9835
  126Eth    Hcc 3141   2.739   1.899  10.473 -1.8383 -0.2369 -0.9641
  127Eth     Ho 3142   1.403   1.514  10.185 -0.1073  0.0940  1.4348
  127Eth     Oh 3143   1.362   1.430  10.195 -0.4080  0.1403  0.5958
  127Eth     Co 3144   1.271   1.430  10.089  0.0656 -0.2843 -0.2385
  127Eth    Hco 3145   1.256   1.527  10.041  0.9199 -0.2039 -0.3529
  127Eth    Hco 3146   1.175   1.389  10.120  0.2185 -1.1896 -0.9343
  127Eth     Ch 3147   1.327   1.324   9.996 -0.7327  0.1210 -0.1005
  127Eth    Hcc 3148   1.377   1.241  10.046  2.4282  1.1975 -1.3827
  127Eth    Hcc 3149   1.395   1.370   9.925 -1.4051  3.2818  1.1759
  127Eth    Hcc 3150   1.250   1.285   9.929  0.2888 -3.2088  0.5837
  128Eth     Ho 3151   1.567   3.163   2.646  0.7959 -0.2779 -1.8598
  128Eth     Oh 3152   1.580   3.071   2.657 -0.0908 -0.2650 -0.6447
  128Eth     Co 3153   1.472   2.994   2.715 -0.0399  0.3441 -0.5992
  128Eth    Hco 3154   1.482   2.893   2.676 -4.3239  0.1616 -1.5669
  128Eth    Hco 3155   1.383   3.043   2.675 -0.7320 -0.8781 -0.5836
  128Eth     Ch 3156   1.495   2.983   2.869 -0.5092  0.6032 -0.4141
  128Eth    Hcc 3157   1.482   3.080   2.918  3.0095  0.9918 -0.1465
  128Eth    Hcc 3158   1.591   2.946   2.903 -0.7115 -0.1490 -0.6606
  128Eth    Hcc 3159   1.414   2.931   2.920  1.0219 -2.4077 -0.9819
  129Eth     Ho 3160   0.616   0.714   1.392 -0.5039 -0.4076  0.3780
  129Eth     Oh 3161   0.649   0.626   1.393 -0.3793 -0.3613  0.3818
  129Eth     Co 3162   0.787   0.636   1.424 -0.7395 -0.2782 -1.1835
  129Eth    Hco 3163   0.805   0.616   1.530  1.3079 -1.0404 -1.6623
  129Eth    Hco 3164   0.807   0.743   1.431 -1.8474 -0.1827  0.9360
  129Eth     Ch 3165   0.887   0.561   1.333 -0.3367  0.7553  0.9202
  129Eth    Hcc 3166   0.851   0.556   1.230  1.2598  0.2137  0.3787
  129Eth    Hcc 3167   0.910   0.460   1.369 -0.0308 -0.6700 -3.0053
  129Eth    Hcc 3168   0.989   0.598   1.335 -0.3805  0.9438 -0.2800
  130Eth     Ho 3169   1.799   0.453   1.687  0.3107  2.2530 -1.7027
  130Eth     Oh 3170   1.760   0.406   1.616  0.5190 -0.4170 -0.1153
  130Eth     Co 3171   1.809   0.461   1.496  0.0369 -0.2198  0.0890
  130Eth    Hco 3172   1.917   0.454   1.484  0.2364 -1.0224  2.1115
  130Eth    Hco 3173   1.789   0.567   1.512 -0.6580 -0.2892 -0.3030
  130Eth     Ch 3174   1.721   0.407   1.386  0.1002  0.2163  0.0233
  130Eth    Hcc 3175   1.729   0.455   1.288  0.0861  3.8559  1.7273
  130Eth    Hcc 3176   1.615   0.422   1.409  0.3400  0.8551  0.7262
  130Eth    Hcc 3177   1.731   0.300   1.370 -1.1721  0.4960 -3.0538
  131Eth     Ho 3178   0.455   2.475  10.370 -1.3849 -0.2885  0.2319
  131Eth     Oh 3179   0.460   2.523  10.451 -0.2820 -0.1390  0.0851
  131Eth     Co 3180   0.334   2.493  10.503  0.8408 -0.3204 -0.6034
  131Eth    Hco 3181   0.260   2.498  10.422  1.9492 -1.4083 -1.7114
  131Eth    Hco 3182   0.305   2.561  10.583 -0.0697 -0.3862 -0.8659
  131Eth     Ch 3183   0.342   2.349  10.554 -1.1651 -0.6864 -0.0810
  131Eth    Hcc 3184   0.419   2.354  10.631  1.2692  3.7208 -2.6644
  131Eth    Hcc 3185   0.370   2.272  10.482  1.3917  1.4164 -1.4264
  131Eth    Hcc 3186   0.249   2.317  10.602 -0.9467 -1.9133 -0.4597
  132Eth     Ho 3187   0.455   1.204   1.438  2.0561  3.4332 -2.6993
  132Eth     Oh 3188   0.512   1.140   1.401  0.7579  0.2627  0.4419
  132Eth     Co 3189   0.643   1.197   1.404 -0.4638  0.1493 -0.7075
  132Eth    Hco 3190   0.665   1.203   1.511  0.7734 -0.1351 -0.9394
  132Eth    Hco 3191   0.637   1.300   1.370  0.2824 -0.1765 -1.8308
  132Eth     Ch 3192   0.747   1.108   1.340 -0.2257 -0.2213 -0.1589
  132Eth    Hcc 3193   0.744   1.005   1.377 -1.5202  0.6687  2.3252
  132Eth    Hcc 3194   0.848   1.140   1.363 -0.6890  0.4296  1.0484
  132Eth    Hcc 3195   0.747   1.104   1.231  0.1980 -0.0844 -0.1646
  133Eth     Ho 3196   2.611   2.797   1.382 -0.1361  0.8748  0.6738
  133Eth     Oh 3197   2.667   2.873   1.378 -0.0210  0.7634  0.1775
  133Eth     Co 3198   2.797   2.859   1.430  0.4685  0.7487 -0.4948
  133Eth    Hco 3199   2.867   2.799   1.372  0.5091  0.7731 -0.4713
  133Eth    Hco 3200   2.796   2.814   1.530  1.0331 -3.6520 -2.3523
  133Eth     Ch 3201   2.860   2.998   1.422  0.2587  0.2312 -0.7320
  133Eth    Hcc 3202   2.809   3.062   1.494 -0.9475 -0.1493 -1.2475
  133Eth    Hcc 3203   2.857   3.038   1.320  0.7216  1.9125 -0.1000
  133Eth    Hcc 3204   2.965   2.980   1.445  0.1641  1.0883  0.4274
  134Eth     Ho 3205   2.587   1.240   2.191 -1.6266 -0.0883  0.3452
  134Eth     Oh 3206   2.598   1.146   2.188  0.0007  0.0751  0.5836
  134Eth     Co 3207   2.520   1.077   2.281 -1.2214  0.2483 -0.0961
  134Eth    Hco 3208   2.415   1.103   2.262 -1.4187  0.7205  1.6094
  134Eth    Hco 3209   2.558   1.079   2.383  0.3854 -1.0544 -0.6482
  134Eth     Ch 3210   2.527   0.933   2.247 -0.5390 -0.2935  0.2767
  134Eth    Hcc 3211   2.631   0.911   2.268 -0.6351 -0.2933  0.7674
  134Eth    Hcc 3212   2.508   0.917   2.141  1.7208  0.0755 -0.1998
  134Eth    Hcc 3213   2.464   0.874   2.314 -1.4477 -3.1927 -2.9985
  135Eth     Ho 3214   0.140   1.502   1.581  2.0574 -0.3905 -1.8749
  135Eth     Oh 3215   0.122   1.554   1.505 -0.4493  0.3281 -0.8413
  135Eth     Co 3216   0.039   1.491   1.407  1.0448 -0.7572  0.0698
  135Eth    Hco 3217   0.085   1.395   1.381  1.7984  0.0500 -1.7224
  135Eth    Hco 3218   0.034   1.563   1.325  1.1233  1.3723  1.8704
  135Eth     Ch 3219  -0.106   1.470   1.449  0.4409  0.4040 -0.9286
  135Eth    Hcc 3220  -0.110   1.431   1.550  1.1317 -2.6262 -2.0256
  135Eth    Hcc 3221  -0.151   1.392   1.387 -1.1731 -0.2932  1.0755
  135Eth    Hcc 3222  -0.157   1.566   1.444  1.7712  1.1859  0.2258
  136Eth     Ho 3223   0.689   1.581   5.879 -0.7759  1.8006  2.4627
  136Eth     Oh 3224   0.733   1.517   5.932 -0.3323  0.4354  0.5344
  136Eth     Co 3225   0.803   1.576   6.038  0.0034  0.3610  0.5128
  136Eth    Hco 3226   0.735   1.653   6.074 -0.4954 -0.8185  2.1418
  136Eth    Hco 3227   0.891   1.618   5.989  1.6667 -2.0605  1.3353
  136Eth     Ch 3228   0.848   1.489   6.146  0.2279 -0.1675 -0.4376
  136Eth    Hcc 3229   0.928   1.427   6.105  0.9918 -0.9499  2.1292
  136Eth    Hcc 3230   0.768   1.426   6.186 -0.1913  2.3776  2.9601
  136Eth    Hcc 3231   0.900   1.542   6.226  0.7459  0.9340 -1.4972
  137Eth     Ho 3232   1.689   1.192   1.622 -0.6959 -0.3100 -2.7513
  137Eth     Oh 3233   1.766   1.243   1.602  0.2279 -0.1372  0.9077
  137Eth     Co 3234   1.753   1.287   1.466  0.4443  0.0500 -0.4151
  137Eth    Hco 3235   1.711   1.206   1.408  0.1715  0.6700 -1.0844
  137Eth    Hco 3236   1.850   1.319   1.426 -0.0125 -1.9933 -3.2827
  137Eth     Ch 3237   1.654   1.406   1.436 -0.3889  0.0502  0.3342
  137Eth    Hcc 3238   1.648   1.409   1.327  1.5567  1.2648  0.2386
  137Eth    Hcc 3239   1.696   1.498   1.476 -1.3623  1.3193 -1.4678
  137Eth    Hcc 3240   1.551   1.397   1.469 -0.7231  2.0614 -0.1175
  138Eth     Ho 3241   1.281   1.015   4.215 -0.5422 -2.0951 -0.1887
  138Eth     Oh 3242   1.364   0.984   4.247  0.1203  0.0106  0.2202
  138Eth     Co 3243   1.442   1.097   4.252 -0.3052 -0.5601 -0.3001
  138Eth    Hco 3244   1.493   1.118   4.346  0.7906 -0.5085 -0.8922
  138Eth    Hco 3245   1.380   1.186   4.242 -0.1337 -0.5481 -1.2393
  138Eth     Ch 3246   1.534   1.091   4.133  0.5052  0.3136  0.2145
  138Eth    Hcc 3247   1.603   1.174   4.120 -0.3790  0.6002 -3.0674
  138Eth    Hcc 3248   1.483   1.081   4.037  0.9146 -0.6888  0.0932
  138Eth    Hcc 3249   1.590   0.998   4.145 -1.1339 -0.5436  1.4065
  139Eth     Ho 3250   2.672   2.739  10.247  2.1854 -2.6451  0.3896
  139Eth     Oh 3251   2.701   2.801  10.311 -0.3484 -0.4050 -0.5436
  139Eth     Co 3252   2.678   2.743  10.440 -0.5050 -0.5737  0.1752
  139Eth    Hco 3253   2.763   2.682  10.470  1.3041  0.6380 -2.3627
  139Eth    Hco 3254   2.589   2.680  10.437 -0.8295 -0.1257  0.2901
  139Eth     Ch 3255   2.661   2.851  10.548 -0.3251  0.0085 -0.3256
  139Eth    Hcc 3256   2.714   2.824  10.640 -1.1232 -2.3648 -0.5186
  139Eth    Hcc 3257   2.556   2.865  10.571 -0.0618  1.1881  0.1927
  139Eth    Hcc 3258   2.697   2.945  10.508 -0.2129 -0.1223 -0.5331
  140Eth     Ho 3259   1.541   3.312   6.663 -0.0485  1.0581  0.9817
  140Eth     Oh 3260   1.629   3.346   6.658  0.3980 -0.2629 -0.4756
  140Eth     Co 3261   1.709   3.243   6.702 -0.1237 -0.0485  0.0680
  140Eth    Hco 3262   1.676   3.156   6.645  0.6976  1.1165 -2.2718
  140Eth    Hco 3263   1.702   3.217   6.807 -2.3573  1.8859  0.4316
  140Eth     Ch 3264   1.855   3.294   6.674  0.9095  0.1454  0.9104
  140Eth    Hcc 3265   1.931   3.216   6.677  0.4058 -0.5483 -2.5324
  140Eth    Hcc 3266   1.896   3.372   6.738 -1.4860  1.6949  0.5825
  140Eth    Hcc 3267   1.862   3.328   6.571 -3.1458 -1.2039  0.1211
  141Eth     Ho 3268   0.155   1.408   7.973 -0.2528  2.8746 -0.0416
  141Eth     Oh 3269   0.242   1.421   7.939  0.3107  0.3311  0.3738
  141Eth     Co 3270   0.259   1.336   7.825 -0.0920 -0.3835  0.5259
  141Eth    Hco 3271   0.162   1.334   7.777  0.9343 -1.6670 -1.5690
  141Eth    Hco 3272   0.273   1.232   7.852 -0.7034 -1.2327 -2.2749
  141Eth     Ch 3273   0.373   1.382   7.739 -0.2711  0.2247  0.4199
  141Eth    Hcc 3274   0.394   1.319   7.653  0.8780  1.1221  0.0365
  141Eth    Hcc 3275   0.465   1.388   7.798 -0.9189 -0.2333  1.5050
  141Eth    Hcc 3276   0.351   1.479   7.694 -0.0481  0.0821  0.0105
  142Eth     Ho 3277   2.277   1.147  10.439 -1.1385 -0.5207 -0.0212
  142Eth     Oh 3278   2.349   1.088  10.451 -0.6116  0.0920 -0.1614
  142Eth     Co 3279   2.458   1.157  10.496 -0.1273  0.2651  0.5745
  142Eth    Hco 3280   2.430   1.229  10.572 -2.5887 -0.1095  0.0708
  142Eth    Hco 3281   2.502   1.210  10.412 -0.6733 -0.6146 -0.2896
  142Eth     Ch 3282   2.565   1.068  10.541 -0.4956 -1.0069  0.5746
  142Eth    Hcc 3283   2.587   0.996  10.463 -0.6798 -0.1062 -0.3181
  142Eth    Hcc 3284   2.521   1.010  10.622 -1.2885 -1.6652 -0.3108
  142Eth    Hcc 3285   2.653   1.123  10.574 -1.0046  0.0512  0.2131
  143Eth     Ho 3286   2.418   2.901   3.532 -0.3037 -0.8954 -0.3569
  143Eth     Oh 3287   2.489   2.930   3.478 -0.6588  0.1571 -0.2701
  143Eth     Co 3288   2.456   2.883   3.347  0.2043 -0.6727  0.0914
  143Eth    Hco 3289   2.352   2.853   3.347  0.3717 -1.2711 -0.0171
  143Eth    Hco 3290   2.492   2.781   3.330 -0.2011 -0.7194 -0.4862
  143Eth     Ch 3291   2.493   2.983   3.235 -0.1327  0.4871  0.3330
  143Eth    Hcc 3292   2.586   3.031   3.267 -0.2357 -0.0201  1.4310
  143Eth    Hcc 3293   2.410   3.054   3.224 -0.7123 -0.3256 -0.6515
  143Eth    Hcc 3294   2.514   2.937   3.139  1.2204 -0.4262  1.0564
  144Eth     Ho 3295   2.692   2.449   1.577  0.3271 -2.6570 -1.7937
  144Eth     Oh 3296   2.600   2.447   1.559 -0.2746  0.1798  0.6057
  144Eth     Co 3297   2.558   2.334   1.496 -0.6472 -0.1921 -0.2973
  144Eth    Hco 3298   2.584   2.255   1.566  0.2735 -1.3504 -1.9282
  144Eth    Hco 3299   2.619   2.306   1.410 -0.1834  0.1675 -0.0929
  144Eth     Ch 3300   2.413   2.334   1.454  0.2296 -0.0379 -0.5122
  144Eth    Hcc 3301   2.344   2.327   1.537  1.6969 -2.3872  0.5561
  144Eth    Hcc 3302   2.396   2.245   1.394 -1.2732 -1.0738  1.4279
  144Eth    Hcc 3303   2.383   2.414   1.386  1.0006  0.5725 -0.1412
  145Eth     Ho 3304   0.552   1.457   2.280 -2.2804  0.7234  0.1153
  145Eth     Oh 3305   0.547   1.365   2.260  0.3019  0.5233  0.2207
  145Eth     Co 3306   0.613   1.361   2.136  0.0550 -0.1117 -0.4132
  145Eth    Hco 3307   0.699   1.429   2.134 -0.3867  0.4865  0.6844
  145Eth    Hco 3308   0.545   1.378   2.052 -1.7319  0.4934  1.1202
  145Eth     Ch 3309   0.665   1.211   2.126  0.1559 -0.8481  0.0066
  145Eth    Hcc 3310   0.732   1.194   2.042 -1.2478 -1.0854 -1.0900
  145Eth    Hcc 3311   0.570   1.163   2.103 -0.1629 -0.0891 -0.2738
  145Eth    Hcc 3312   0.714   1.182   2.218 -2.6981  1.0317  2.2293
  146Eth     Ho 3313   1.128   2.612   1.855 -0.2113  0.0363 -0.0816
  146Eth     Oh 3314   1.124   2.668   1.930  0.0014 -0.6048  0.4168
  146Eth     Co 3315   1.121   2.602   2.052 -0.3288  0.5332 -0.1772
  146Eth    Hco 3316   1.219   2.556   2.069  0.2664  0.5501 -3.2112
  146Eth    Hco 3317   1.052   2.518   2.044 -0.4954  0.4736  1.5876
  146Eth     Ch 3318   1.087   2.693   2.168  0.0120  0.1611 -0.4688
  146Eth    Hcc 3319   1.171   2.759   2.189 -0.6274  1.1235 -0.8648
  146Eth    Hcc 3320   1.067   2.637   2.259 -0.5252 -0.3336 -0.8896
  146Eth    Hcc 3321   0.994   2.736   2.130 -0.1965  0.0794 -0.0542
  147Eth     Ho 3322   1.210   1.872   7.039 -0.4481 -1.4834  0.5515
  147Eth     Oh 3323   1.248   1.835   6.961  0.2720 -0.3441  0.3444
  147Eth     Co 3324   1.157   1.880   6.863 -0.2488  0.2571  0.5939
  147Eth    Hco 3325   1.054   1.846   6.874 -0.2490 -0.2839 -0.9113
  147Eth    Hco 3326   1.180   1.846   6.762 -0.4451 -1.9737  1.2786
  147Eth     Ch 3327   1.151   2.034   6.875  0.4436 -0.2086  0.0263
  147Eth    Hcc 3328   1.113   2.069   6.971 -0.4147 -0.8277 -0.0791
  147Eth    Hcc 3329   1.080   2.066   6.799 -0.4508 -1.8567  0.1460
  147Eth    Hcc 3330   1.245   2.088   6.863 -0.4395  1.5228  0.7639
  148Eth     Ho 3331   2.856   1.125   8.699  0.0084  0.2644  0.2391
  148Eth     Oh 3332   2.775   1.093   8.666  0.3505 -0.3604  0.0074
  148Eth     Co 3333   2.724   1.007   8.768 -0.6931 -0.2900  0.7559
  148Eth    Hco 3334   2.724   1.063   8.862  1.3688 -4.0286  3.0967
  148Eth    Hco 3335   2.797   0.928   8.783  1.9925  2.2864  1.8176
  148Eth     Ch 3336   2.591   0.958   8.725  0.2395  0.2512 -0.0912
  148Eth    Hcc 3337   2.549   0.880   8.788  0.2378 -1.5965 -2.3136
  148Eth    Hcc 3338   2.605   0.904   8.631  1.2340 -1.2041  0.8786
  148Eth    Hcc 3339   2.517   1.038   8.722 -0.7150 -0.5337  1.6564
  149Eth     Ho 3340   2.943   0.501  10.221 -2.0626  1.2987  2.8904
  149Eth     Oh 3341   3.009   0.476  10.283  0.1632  0.4695  0.2963
  149Eth     Co 3342   2.948   0.401  10.383 -0.6701  0.3671 -0.1994
  149Eth    Hco 3343   3.026   0.339  10.427 -0.4756 -0.4828 -1.6906
  149Eth    Hco 3344   2.868   0.337  10.346  0.6138 -2.6400  2.0248
  149Eth     Ch 3345   2.879   0.489  10.487  0.2340 -0.2029 -0.0836
  149Eth    Hcc 3346   2.817   0.571  10.452 -1.1878 -0.4040  1.8925
  149Eth    Hcc 3347   2.951   0.542  10.550  0.4002  0.0707 -0.5020
  149Eth    Hcc 3348   2.825   0.418  10.550 -1.3257  0.3529 -0.7821
  150Eth     Ho 3349   3.081   2.707   3.372  0.9306  1.9430 -0.3035
  150Eth     Oh 3350   3.035   2.760   3.309 -0.2952  0.6625 -0.5197
  150Eth     Co 3351   2.992   2.683   3.207 -0.1019 -0.3918  0.1680
  150Eth    Hco 3352   2.951   2.595   3.255 -2.1039 -0.6873 -2.0055
  150Eth    Hco 3353   3.074   2.637   3.153 -0.8153  0.9636 -2.1133
  150Eth     Ch 3354   2.895   2.751   3.105  0.2362 -0.2751  0.4132
  150Eth    Hcc 3355   2.818   2.810   3.155 -1.4669 -1.4678 -0.7136
  150Eth    Hcc 3356   2.840   2.675   3.049  2.9430 -3.0675  1.3703
  150Eth    Hcc 3357   2.938   2.823   3.036  0.8454 -0.3965  0.6696
  151Eth     Ho 3358   0.032   2.228  10.391 -0.3078 -0.7756  1.5753
  151Eth     Oh 3359  -0.005   2.308  10.422  0.0047  0.0174 -0.0427
  151Eth     Co 3360  -0.104   2.282  10.517 -0.2442  0.0586  0.5938
  151Eth    Hco 3361  -0.069   2.211  10.592  1.4627  1.8383  1.5349
  151Eth    Hco 3362  -0.189   2.243  10.462 -0.7772 -0.9543  2.1204
  151Eth     Ch 3363  -0.145   2.408  10.577  0.0100  0.1668 -0.5851
  151Eth    Hcc 3364  -0.052   2.446  10.620 -1.6163  1.2429  2.1694
  151Eth    Hcc 3365  -0.214   2.400  10.661  0.1731 -2.1154 -0.6388
  151Eth    Hcc 3366  -0.175   2.485  10.506 -0.9116 -0.3204 -0.7384
  152Sol     OW 3367   1.789   0.666   2.742 -1.0269  0.1285 -0.3463
  152Sol     HW 3368   1.721   0.727   2.769 -0.5065  0.3590  0.4822
  152Sol     HW 3369   1.770   0.646   2.650 -2.7229 -0.5089  0.1353
  152Sol     MW 3370   1.781   0.670   2.736 -0.2463  0.2443 -0.1510
  153Sol     OW 3371   1.865   3.336   5.151  0.3819 -0.2637  0.2231
  153Sol     HW 3372   1.918   3.286   5.214  0.9404  0.6567  0.4910
  153Sol     HW 3373   1.914   3.331   5.069  0.9039  0.6120  0.4782
  153Sol     MW 3374   1.875   3.331   5.149  0.1502 -0.2084  0.2778
  154Sol     OW 3375   1.906   3.361   6.170 -0.8860  0.5818 -0.2632
  154Sol     HW 3376   1.898   3.454   6.147  1.8542  0.5184 -1.6680
  154Sol     HW 3377   1.884   3.314   6.090 -0.6417  0.0644 -0.0300
  154Sol     MW 3378   1.903   3.366   6.161 -0.5817 -0.0817 -0.0732
  155Sol     OW 3379   3.015   1.428   6.085  0.0102 -0.4367 -0.1725
  155Sol     HW 3380   3.092   1.439   6.141  0.6381  1.9106 -1.4115
  155Sol     HW 3381   3.031   1.346   6.038  1.9971  0.2132 -0.7088
  155Sol     MW 3382   3.024   1.422   6.086 -0.4068  0.3559 -0.5361
  156Sol     OW 3383   1.206   2.021   8.029  0.0117 -0.6800 -0.2668
  156Sol     HW 3384   1.131   2.005   7.971 -0.5177 -1.1388  0.5254
  156Sol     HW 3385   1.283   2.007   7.974 -0.4824 -1.5756 -0.7362
  156Sol     MW 3386   1.206   2.018   8.019  0.1286  0.4936 -0.6272
  157Sol     OW 3387   1.883   0.227   6.025  0.0519 -0.0075  0.1330
  157Sol     HW 3388   1.950   0.209   5.960 -0.4125  0.3757 -0.4564
  157Sol     HW 3389   1.806   0.254   5.974 -0.7503 -1.0609  0.7544
  157Sol     MW 3390   1.882   0.227   6.014 -0.0108 -0.6065 -0.0475
  158Sol     OW 3391   1.028   1.883   5.977  0.0306  0.3446  0.5093
  158Sol     HW 3392   1.099   1.944   5.957 -0.0686  0.2592 -0.1312
  158Sol     HW 3393   1.069   1.817   6.033  0.5472  0.1307 -0.1022
  158Sol     MW 3394   1.038   1.882   5.980 -0.3266  0.5276 -0.2767
  159Sol     OW 3395   2.961   2.397   9.019  0.8423 -0.5054 -0.0297
  159Sol     HW 3396   3.005   2.401   8.934 -0.8643  0.5821 -0.8917
  159Sol     HW 3397   2.967   2.486   9.053  1.7615 -1.0001  1.1435
  159Sol     MW 3398   2.966   2.405   9.014  0.1010  0.2366 -0.0375
  160Sol     OW 3399   1.399   2.990   1.709 -0.1100 -0.7987  0.0837
  160Sol     HW 3400   1.382   2.958   1.797  0.3399  0.6143  0.6967
  160Sol     HW 3401   1.313   3.018   1.676  0.1115  1.1185  1.0740
  160Sol     MW 3402   1.390   2.989   1.714 -0.1659 -0.1154  0.2102
  161Sol     OW 3403   0.563   2.498   3.242  0.6174 -0.1023  0.3169
  161Sol     HW 3404   0.500   2.434   3.277  0.8633 -1.0732 -0.9718
  161Sol     HW 3405   0.592   2.547   3.319 -1.2649 -0.0284  1.0191
  161Sol     MW 3406   0.560   2.497   3.252  0.3798  0.4756 -0.0574
  162Sol     OW 3407   1.042   2.764   6.534  0.2515 -0.0299  0.2115
  162Sol     HW 3408   1.015   2.729   6.449 -0.3570  1.0291 -0.0459
  162Sol     HW 3409   1.021   2.857   6.529  1.3861  0.2835  1.0584
  162Sol     MW 3410   1.038   2.769   6.526  0.5471  0.2947  0.0409
  163Sol     OW 3411   1.303   0.211   6.633 -0.3167  0.2307 -0.2802
  163Sol     HW 3412   1.360   0.277   6.593 -0.7769  0.3904 -0.6812
  163Sol     HW 3413   1.357   0.170   6.701  0.6741 -0.4455 -1.4521
  163Sol     MW 3414   1.313   0.213   6.635  0.6588  0.4447 -0.1634
  164Sol     OW 3415   2.068   0.814   8.097  0.2431 -0.0810  0.4417
  164Sol     HW 3416   2.150   0.828   8.049 -0.7875 -2.0139 -2.0107
  164Sol     HW 3417   2.087   0.741   8.156  0.6258  0.3022  0.8014
  164Sol     MW 3418   2.077   0.808   8.098 -0.8733 -0.1581  0.2960
  165Sol     OW 3419   2.109   1.871   4.906  0.6000 -0.2660 -0.4506
  165Sol     HW 3420   2.022   1.897   4.875 -0.0499  0.8180  2.1353
  165Sol     HW 3421   2.094   1.789   4.953  1.4395 -1.4634 -2.2030
  165Sol     MW 3422   2.100   1.866   4.907  0.0057  0.0514  0.2609
  166Sol     OW 3423   1.764   3.079  10.121  0.8088 -0.0552  0.3114
  166Sol     HW 3424   1.856   3.079  10.148  0.2570  1.7979  2.3681
  166Sol     HW 3425   1.742   2.987  10.111  3.3685 -0.4763 -1.9819
  166Sol     MW 3426   1.770   3.071  10.123 -0.5490 -0.3686 -0.0297
  167Sol     OW 3427   1.101   0.239   7.651 -0.1601  0.1852 -0.1961
  167Sol     HW 3428   1.092   0.259   7.744 -1.7257  0.3768 -0.3626
  167Sol     HW 3429   1.011   0.219   7.623  0.2024  0.7599 -1.8011
  167Sol     MW 3430   1.092   0.239   7.657  0.0493  0.4829 -0.3086
  168Sol     OW 3431   0.791   0.193   5.478  0.0859 -0.2737 -0.2550
  168Sol     HW 3432   0.760   0.283   5.481  0.9739 -0.0236  1.3991
  168Sol     HW 3433   0.789   0.170   5.384 -1.1235  1.0945 -0.5781
  168Sol     MW 3434   0.788   0.199   5.470 -0.3367 -0.7108  0.0703
  169Sol     OW 3435   0.552   2.745   2.866 -0.1659 -0.0573  1.0380
  169Sol     HW 3436   0.508   2.719   2.946 -0.0563 -0.9215  0.8247
  169Sol     HW 3437   0.623   2.802   2.894  0.8308 -1.5897  1.7012
  169Sol     MW 3438   0.554   2.748   2.875 -0.3529 -0.2808  0.3470
  170Sol     OW 3439   1.319   0.434   5.244  1.1135  0.4396 -0.1666
  170Sol     HW 3440   1.266   0.425   5.165  0.5272  1.1984  0.1375
  170Sol     HW 3441   1.343   0.526   5.246  2.4249  0.1188 -0.2797
  170Sol     MW 3442   1.316   0.441   5.237  0.1087  0.9509  0.0445
  171Sol     OW 3443   1.380   0.655   8.002  0.0454  0.2740 -0.9145
  171Sol     HW 3444   1.407   0.592   7.935 -0.8358 -1.7124  0.5604
  171Sol     HW 3445   1.425   0.626   8.082  0.2774  1.9968 -0.4025
  171Sol     MW 3446   1.387   0.647   8.003  0.2856  0.4550  0.2634
  172Sol     OW 3447   1.377   1.184  10.325  0.3138  0.3340 -0.2792
  172Sol     HW 3448   1.304   1.197  10.385  0.3030  1.3235 -0.5078
  172Sol     HW 3449   1.380   1.264  10.273  1.5651  0.2939 -0.2688
  172Sol     MW 3450   1.371   1.192  10.326  0.3135 -0.3918 -0.5727
  173Sol     OW 3451   1.988   2.818   9.554  0.3766 -0.8851  0.0800
  173Sol     HW 3452   2.012   2.834   9.463 -0.1113 -0.0503  0.0980
  173Sol     HW 3453   1.893   2.830   9.557  0.6385  1.2242  1.1322
  173Sol     MW 3454   1.982   2.820   9.546  0.6387  0.0908  0.8059
  174Sol     OW 3455   0.460   1.913   3.368 -0.1525  0.1931  0.6549
  174Sol     HW 3456   0.376   1.942   3.403 -0.0797 -0.2487  1.2052
  174Sol     HW 3457   0.497   1.991   3.327 -1.6328 -0.0291 -1.2028
  174Sol     MW 3458   0.456   1.923   3.367  0.6146 -0.3722 -0.5262
  175Sol     OW 3459   0.829   0.857  10.208  0.0756  0.3990 -0.3169
  175Sol     HW 3460   0.897   0.911  10.168  1.2709 -0.8848 -0.0478
  175Sol     HW 3461   0.839   0.771  10.168  0.2499 -0.4816  1.5523
  175Sol     MW 3462   0.836   0.854  10.201  0.1180  0.3509 -0.0686
  176Sol     OW 3463   0.472   2.368   9.345 -0.0328 -0.1795  0.5827
  176Sol     HW 3464   0.405   2.371   9.276  0.4609 -0.2481  0.1002
  176Sol     HW 3465   0.548   2.413   9.307  0.8426 -1.7608  0.4198
  176Sol     MW 3466   0.473   2.372   9.335  0.6367  0.0873  0.1649
  177Sol     OW 3467   0.483   2.867   5.171  0.2549  0.3293 -0.0311
  177Sol     HW 3468   0.527   2.823   5.243  0.7411  1.2509  0.2410
  177Sol     HW 3469   0.502   2.960   5.184 -0.7620  0.6208 -0.5957
  177Sol     MW 3470   0.489   2.872   5.178 -0.1315 -0.3541 -0.0489
  178Sol     OW 3471   0.753   1.798  10.227  1.0852  0.4012  0.4407
  178Sol     HW 3472   0.793   1.868  10.278 -1.6591  2.2435  0.1861
  178Sol     HW 3473   0.695   1.753  10.288  2.7967 -1.6956  0.5942
  178Sol     MW 3474   0.752   1.800  10.237  0.4197 -0.6680  0.1238
  179Sol     OW 3475   0.296   1.570   8.844 -0.0735  0.8231  0.5835
  179Sol     HW 3476   0.225   1.588   8.906  0.5721  0.6677  1.3852
  179Sol     HW 3477   0.341   1.654   8.833  1.1013  0.4006  1.9834
  179Sol     MW 3478   0.294   1.579   8.849 -0.0491  0.2523 -0.0251
  180Sol     OW 3479   3.018   2.016   8.365  0.1843  0.3253 -0.7841
  180Sol     HW 3480   3.110   2.030   8.389 -0.7653  1.5097  2.4832
  180Sol     HW 3481   3.015   1.926   8.334  2.0709 -0.5155  1.3037
  180Sol     MW 3482   3.026   2.009   8.364 -0.3329 -0.0204 -0.7258
  181Sol     OW 3483   1.531   0.181   6.132 -0.0167 -0.9017 -0.2630
  181Sol     HW 3484   1.532   0.085   6.142 -3.0758 -1.1358 -1.6808
  181Sol     HW 3485   1.547   0.195   6.039  0.2342 -0.0266 -0.0879
  181Sol     MW 3486   1.533   0.173   6.124  0.2129 -0.4711  0.3891
  182Sol     OW 3487   0.861   2.508   1.329  0.0412 -1.0258 -0.1290
  182Sol     HW 3488   0.779   2.535   1.290 -0.2694 -1.8068 -0.0270
  182Sol     HW 3489   0.871   2.564   1.406  0.1411 -0.1994 -0.7459
  182Sol     MW 3490   0.855   2.515   1.333 -0.6356 -0.2407  0.0245
  183Sol     OW 3491   0.730   0.329   4.583  0.0023  0.1045  0.1206
  183Sol     HW 3492   0.670   0.296   4.650  0.5716 -1.6402 -0.2039
  183Sol     HW 3493   0.796   0.379   4.631  0.0088 -0.5565  0.7992
  183Sol     MW 3494   0.731   0.330   4.593  0.1955  0.3743  0.1708
  184Sol     OW 3495   1.335   0.121   9.245  0.7648 -0.0650 -0.2138
  184Sol     HW 3496   1.351   0.130   9.339 -2.5428 -1.0027  0.5004
  184Sol     HW 3497   1.279   0.195   9.224  0.7831 -0.3563 -1.2781
  184Sol     MW 3498   1.332   0.128   9.252 -0.4531 -0.2371 -0.7258
  185Sol     OW 3499   0.403   2.028   3.696 -0.1538  0.2839 -0.3319
  185Sol     HW 3500   0.320   2.015   3.650 -0.3148  1.1893 -0.2968
  185Sol     HW 3501   0.439   1.940   3.705 -2.0153 -0.3582  1.3427
  185Sol     MW 3502   0.399   2.019   3.693 -0.2004  0.0214 -0.0028
  186Sol     OW 3503   1.171   3.142   2.808  0.3785 -0.1316 -0.0878
  186Sol     HW 3504   1.209   3.220   2.767  1.8953  1.2468  3.7010
  186Sol     HW 3505   1.079   3.167   2.824  1.0594  1.3048  1.8768
  186Sol     MW 3506   1.166   3.152   2.806  0.3669 -0.1082 -0.3498
  187Sol     OW 3507   0.541   2.547   9.986  0.4608 -0.2909 -0.1737
  187Sol     HW 3508   0.620   2.562   9.935  0.4615  0.7610  0.1350
  187Sol     HW 3509   0.471   2.543   9.920  0.5851  0.1438 -0.3328
  187Sol     MW 3510   0.541   2.548   9.975 -0.3584  0.3638 -0.0264
  188Sol     OW 3511   1.913   2.940   1.458  0.2687 -0.4720  0.5927
  188Sol     HW 3512   1.938   3.029   1.432 -0.6972 -1.0495 -2.4799
  188Sol     HW 3513   1.832   2.952   1.508  0.5775  0.4425  0.8818
  188Sol     MW 3514   1.908   2.949   1.460 -0.1519  0.1831  0.2079
  189Sol     OW 3515   2.751   1.370   9.582 -0.5825  0.2110 -0.5015
  189Sol     HW 3516   2.828   1.419   9.554  0.2515  0.3452  1.9147
  189Sol     HW 3517   2.742   1.390   9.676 -3.6226  0.2931 -0.7465
  189Sol     MW 3518   2.757   1.376   9.588  0.0650  0.5391  0.3717
  190Sol     OW 3519   0.812   2.689   6.842 -0.0234 -0.0780 -0.0888
  190Sol     HW 3520   0.802   2.600   6.876 -2.6290 -0.2355 -1.1461
  190Sol     HW 3521   0.774   2.745   6.909 -2.6235 -0.1639 -1.4515
  190Sol     MW 3522   0.808   2.686   6.851  0.7473 -0.6647  0.0788
  191Sol     OW 3523   0.526   3.324   2.022 -0.4811 -0.1863 -0.5250
  191Sol     HW 3524   0.518   3.410   1.982 -1.5207  0.5832  1.2798
  191Sol     HW 3525   0.619   3.304   2.018 -0.5592 -0.1618 -3.3345
  191Sol     MW 3526   0.533   3.330   2.018  0.7273 -0.0634  0.3215
  192Sol     OW 3527   1.618   1.667   8.741 -0.0861 -0.3943 -0.1072
  192Sol     HW 3528   1.700   1.670   8.691 -0.1329 -0.5637 -0.1963
  192Sol     HW 3529   1.639   1.615   8.818  0.4574  1.3316  0.9398
  192Sol     MW 3530   1.627   1.663   8.743 -0.2560 -0.1824  0.1510
  193Sol     OW 3531   1.973   1.477   3.350  0.0484 -0.2718  0.0228
  193Sol     HW 3532   2.021   1.558   3.367  0.1088  0.2198 -2.3326
  193Sol     HW 3533   2.023   1.435   3.279 -1.0255 -1.4707 -0.0332
  193Sol     MW 3534   1.982   1.480   3.345  0.3731 -0.3362 -0.4329
  194Sol     OW 3535   2.647   0.818   3.296 -0.4782 -0.3434 -0.1902
  194Sol     HW 3536   2.611   0.875   3.229  0.4647  2.0814  1.3070
  194Sol     HW 3537   2.681   0.878   3.363  1.0386 -2.6562  1.1673
  194Sol     MW 3538   2.647   0.828   3.296 -0.2607  0.4811 -0.2695
  195Sol     OW 3539   1.678   0.864   7.172 -0.1965 -0.4026  0.3999
  195Sol     HW 3540   1.746   0.913   7.125 -0.1443  1.1315  2.0290
  195Sol     HW 3541   1.602   0.923   7.170 -0.5562 -0.8436  1.1823
  195Sol     MW 3542   1.677   0.874   7.167 -0.3952  0.1012 -0.2134
  196Sol     OW 3543   0.291   1.392   3.856  0.5422  0.0343 -0.2256
  196Sol     HW 3544   0.217   1.442   3.823  1.1070 -0.6534 -2.5804
  196Sol     HW 3545   0.368   1.447   3.839  0.9859 -0.9102 -1.3238
  196Sol     MW 3546   0.292   1.401   3.852 -0.5337 -0.7191 -0.0623
  197Sol     OW 3547   1.878   2.433   9.910  0.0767 -0.4617 -0.2543
  197Sol     HW 3548   1.840   2.448   9.996  0.0897 -0.8364 -0.1806
  197Sol     HW 3549   1.811   2.465   9.849 -0.0982 -0.5500 -0.1106
  197Sol     MW 3550   1.868   2.437   9.912 -0.4424  0.5504  0.4410
  198Sol     OW 3551   1.289   0.912   7.991  0.2427 -0.4824 -0.2959
  198Sol     HW 3552   1.194   0.916   8.001  0.3727  0.9050  0.4674
  198Sol     HW 3553   1.309   0.819   7.994 -1.2934 -0.9307 -2.4689
  198Sol     MW 3554   1.282   0.904   7.992 -0.0669  0.1152 -0.2285
  199Sol     OW 3555   1.324   1.186   2.211 -0.3097  0.3079 -0.6955
  199Sol     HW 3556   1.355   1.102   2.178  2.0869 -0.1295  2.4261
  199Sol     HW 3557   1.237   1.167   2.248 -0.2131 -0.5587 -0.9128
  199Sol     MW 3558   1.319   1.177   2.212 -0.7032  0.2375 -0.0789
  200Sol     OW 3559   2.104   3.227   6.312  0.5362 -0.3237  0.5444
  200Sol     HW 3560   2.029   3.263   6.264 -0.7345 -0.5472  2.3269
  200Sol     HW 3561   2.081   3.135   6.326  3.0088 -1.5046 -2.4961
  200Sol     MW 3562   2.095   3.222   6.309  0.4395 -0.3271  0.2110
  201Sol     OW 3563   0.208   3.223   6.823 -0.3345  0.3452  0.1266
  201Sol     HW 3564   0.148   3.186   6.887  0.4567 -0.7544  0.2364
  201Sol     HW 3565   0.182   3.315   6.817 -1.1913  0.1810  1.1229
  201Sol     MW 3566   0.200   3.228   6.828  0.3076 -0.7058  0.6216
  202Sol     OW 3567   0.503   1.215   6.794 -0.2336 -0.0751 -0.1334
  202Sol     HW 3568   0.437   1.157   6.834 -0.3470  0.2889  0.2146
  202Sol     HW 3569   0.569   1.227   6.862 -0.8238  1.1852  0.2240
  202Sol     MW 3570   0.503   1.211   6.804  0.1160 -0.1123  0.1222
  203Sol     OW 3571   3.100   1.916   4.565  0.7897  0.0946  0.0347
  203Sol     HW 3572   3.015   1.938   4.603  1.0942  0.8138  0.3042
  203Sol     HW 3573   3.157   1.989   4.590  1.1081  0.3613 -1.4287
  203Sol     MW 3574   3.098   1.924   4.570 -0.6797 -0.7937  0.3585
  204Sol     OW 3575   1.003   0.819   6.477  0.6685 -0.4127 -0.4156
  204Sol     HW 3576   1.097   0.799   6.482  0.6925 -0.3258 -0.5192
  204Sol     HW 3577   0.981   0.809   6.385  0.2740 -1.7623 -0.1857
  204Sol     MW 3578   1.010   0.817   6.469  0.1681  0.0125 -0.5559
  205Sol     OW 3579   1.871   0.518   9.192 -0.5056  0.4671 -0.1436
  205Sol     HW 3580   1.818   0.439   9.202 -0.4498  0.3941 -0.4105
  205Sol     HW 3581   1.959   0.486   9.173 -0.1713  0.5814  1.1783
  205Sol     MW 3582   1.874   0.508   9.191 -1.3709  0.6691 -0.3298
  206Sol     OW 3583   1.503   0.532   8.841 -0.6465 -0.3726  0.3144
  206Sol     HW 3584   1.595   0.506   8.828 -1.3086 -1.8181 -1.7211
  206Sol     HW 3585   1.476   0.485   8.919  0.7695  1.2311  1.8000
  206Sol     MW 3586   1.509   0.525   8.846  0.7180 -0.2218  0.3818
  207Sol     OW 3587   1.665   2.511   8.963  0.1825  0.0031 -0.4239
  207Sol     HW 3588   1.663   2.604   8.983  0.0063 -0.4083  1.5823
  207Sol     HW 3589   1.603   2.472   9.025 -1.5103 -1.1733 -2.7634
  207Sol     MW 3590   1.659   2.516   8.971  0.1395  0.0084 -0.2893
  208Sol     OW 3591   0.600   2.851   5.637 -0.2043  0.5522  0.0755
  208Sol     HW 3592   0.694   2.854   5.621 -0.2793 -0.9253 -0.7345
  208Sol     HW 3593   0.582   2.760   5.660 -1.4513  0.7926  0.1181
  208Sol     MW 3594   0.607   2.843   5.638 -0.6897 -0.5968 -0.2909
  209Sol     OW 3595   3.067   1.941   9.483  0.1485  0.1246  0.1892
  209Sol     HW 3596   3.107   2.027   9.468  1.3715 -0.3017  0.9092
  209Sol     HW 3597   3.092   1.919   9.573 -0.1889 -0.9729  0.0159
  209Sol     MW 3598   3.073   1.947   9.490  0.3423 -0.1792 -0.2373
  210Sol     OW 3599   1.999   0.533   7.641 -0.1771 -0.1128  0.0496
  210Sol     HW 3600   1.947   0.523   7.561 -0.3741 -1.5994  0.3524
  210Sol     HW 3601   1.941   0.578   7.702 -1.0760 -1.6370  0.3380
  210Sol     MW 3602   1.989   0.536   7.639 -0.2254  0.4632 -0.5666
  211Sol     OW 3603   2.498   1.816   5.290 -0.1046  0.4412 -0.2036
  211Sol     HW 3604   2.437   1.888   5.280 -0.4740  0.5673  2.5656
  211Sol     HW 3605   2.568   1.851   5.345 -1.0405 -1.6791  2.4643
  211Sol     MW 3606   2.499   1.825   5.294 -0.0972 -0.4399  0.0712
  212Sol     OW 3607   0.421   1.229   6.189 -0.1262  0.2894  0.2883
  212Sol     HW 3608   0.392   1.213   6.099 -2.8517  0.1524  1.1530
  212Sol     HW 3609   0.375   1.163   6.241  2.3241 -0.3791  1.6690
  212Sol     MW 3610   0.414   1.222   6.185 -0.2767  0.4092  0.0685
  213Sol     OW 3611   1.541   2.357   2.919 -0.2507 -0.4474  0.1247
  213Sol     HW 3612   1.463   2.302   2.910 -0.2491 -0.5227  0.5430
  213Sol     HW 3613   1.537   2.417   2.844 -2.4054  1.6333  1.8214
  213Sol     MW 3614   1.534   2.357   2.911 -0.5021 -0.5863 -0.0813
  214Sol     OW 3615   0.637   2.547   7.240  0.2226  0.0243  0.0044
  214Sol     HW 3616   0.647   2.532   7.146  2.0756  0.4130  0.1310
  214Sol     HW 3617   0.567   2.487   7.266 -1.1452  0.7664 -1.8288
  214Sol     MW 3618   0.631   2.540   7.234 -0.1049  0.0731 -0.3878
  215Sol     OW 3619   1.241   1.579   4.054 -0.4100 -0.0766  0.2910
  215Sol     HW 3620   1.252   1.664   4.097 -0.1681  0.5523 -0.9923
  215Sol     HW 3621   1.329   1.542   4.051 -0.1355  0.6795 -1.2740
  215Sol     MW 3622   1.249   1.584   4.058 -0.5975 -0.4416  0.3214
  216Sol     OW 3623   1.305   0.958  10.173  0.0521  0.2560  0.3500
  216Sol     HW 3624   1.323   1.023  10.241 -1.3011  0.1479  0.8237
  216Sol     HW 3625   1.216   0.977  10.145 -0.3929 -1.4664  0.5701
  216Sol     MW 3626   1.299   0.966  10.177 -0.5620 -0.5407 -0.5159
  217Sol     OW 3627   2.756   1.552   7.266  0.2610  0.6689  0.1357
  217Sol     HW 3628   2.716   1.501   7.195 -2.5167  0.4294  1.7984
  217Sol     HW 3629   2.758   1.642   7.232  1.7160  0.1020 -1.3554
  217Sol     MW 3630   2.752   1.556   7.256  0.0624 -0.0917 -0.4151
  218Sol     OW 3631   2.132   0.249   8.052  0.6814 -0.0947  0.1402
  218Sol     HW 3632   2.048   0.292   8.064  1.0718  1.0915 -1.2182
  218Sol     HW 3633   2.112   0.156   8.049 -0.2712  0.0077  2.3192
  218Sol     MW 3634   2.123   0.245   8.053  0.1430 -0.2080  0.2218
  219Sol     OW 3635   2.120   3.318   8.881  0.1313  0.1249 -0.8845
  219Sol     HW 3636   2.146   3.380   8.948  1.3581  0.5378 -1.7314
  219Sol     HW 3637   2.198   3.265   8.866 -0.5654 -0.8901 -0.9735
  219Sol     MW 3638   2.129   3.319   8.886 -0.1381 -0.1267 -0.4705
  220Sol     OW 3639   2.131   0.086  10.004 -0.4489  0.4587  0.8992
  220Sol     HW 3640   2.102   0.010   9.952 -2.7419  1.4662  0.6457
  220Sol     HW 3641   2.085   0.077  10.087 -0.6475  1.5082  0.9094
  220Sol     MW 3642   2.124   0.078  10.007 -0.4956  0.2279  0.2384
  221Sol     OW 3643   0.862   1.665   4.608 -0.2716 -0.0191 -0.5615
  221Sol     HW 3644   0.861   1.751   4.564  1.4592 -0.0868 -0.7550
  221Sol     HW 3645   0.781   1.623   4.579 -0.5073  1.0376 -1.4892
  221Sol     MW 3646   0.855   1.669   4.601 -0.3572 -0.3593 -0.4099
  222Sol     OW 3647   2.809   1.192   3.124 -0.4262 -0.2737  0.1218
  222Sol     HW 3648   2.851   1.138   3.057  0.4475  2.3108 -1.4540
  222Sol     HW 3649   2.716   1.192   3.101 -0.2903 -0.3101 -0.4207
  222Sol     MW 3650   2.804   1.187   3.116 -0.1236  0.2738  0.0631
  223Sol     OW 3651   2.794   1.130   4.843 -0.6323  0.5056  0.7865
  223Sol     HW 3652   2.769   1.039   4.827  0.0096  0.4842 -0.1484
  223Sol     HW 3653   2.787   1.173   4.758 -1.0636  1.3672  1.2486
  223Sol     MW 3654   2.791   1.126   4.834 -0.5430 -0.2132  0.6169
  224Sol     OW 3655   0.633   0.006   8.735  0.0802  0.1910  0.6490
  224Sol     HW 3656   0.550   0.030   8.692  0.4668  0.8588  0.2731
  224Sol     HW 3657   0.608  -0.063   8.797 -0.2171 -1.9708 -1.8260
  224Sol     MW 3658   0.623   0.002   8.737  0.3212  0.7543  0.3247
  225Sol     OW 3659   2.826   3.082   3.079  0.3435 -0.5049  0.2836
  225Sol     HW 3660   2.784   3.163   3.108  0.0385 -0.7167  0.4356
  225Sol     HW 3661   2.889   3.062   3.148 -0.1059 -0.7965  0.6126
  225Sol     MW 3662   2.828   3.088   3.088  0.2684 -0.9830  0.1881
  226Sol     OW 3663   1.539   0.650   7.039 -0.3080 -0.1235  0.1585
  226Sol     HW 3664   1.485   0.604   7.103  0.9793  0.8883  2.0212
  226Sol     HW 3665   1.596   0.706   7.091 -0.1085  1.7233 -1.9376
  226Sol     MW 3666   1.539   0.651   7.049  0.0723 -0.1916  0.1376
  227Sol     OW 3667   3.016   2.273   8.561 -0.6992  0.4487  0.2070
  227Sol     HW 3668   2.951   2.226   8.613 -1.4842 -0.0015 -1.1482
  227Sol     HW 3669   3.093   2.216   8.561  0.4612  1.9270  3.5375
  227Sol     MW 3670   3.017   2.263   8.565  0.2602  0.1696 -0.0527
  228Sol     OW 3671   2.239   0.516  10.141  0.0841 -0.3539 -0.2700
  228Sol     HW 3672   2.182   0.510  10.064  1.7967 -1.3551 -1.4838
  228Sol     HW 3673   2.178   0.517  10.215 -1.6095  1.1482 -1.6435
  228Sol     MW 3674   2.228   0.515  10.141  0.5530  0.1883 -0.7328
  229Sol     OW 3675   1.360   3.158   4.027  0.5932 -0.1554  0.1728
  229Sol     HW 3676   1.364   3.225   3.959 -0.3182  0.9764  1.1988
  229Sol     HW 3677   1.435   3.176   4.084  1.9126 -1.6958 -1.0497
  229Sol     MW 3678   1.367   3.166   4.026 -1.0628  0.1022 -0.1607
  230Sol     OW 3679   1.931   0.057   9.177 -0.6159  0.6939 -0.1912
  230Sol     HW 3680   1.850   0.007   9.178  0.3976 -0.9852  0.4791
  230Sol     HW 3681   1.946   0.080   9.269 -1.3055  2.6165 -0.5574
  230Sol     MW 3682   1.925   0.054   9.185 -0.0369 -0.0004 -0.2043
  231Sol     OW 3683   1.518   1.525   2.002  0.6140 -0.0080  0.8355
  231Sol     HW 3684   1.574   1.449   2.019  1.4649  0.7173  1.3382
  231Sol     HW 3685   1.532   1.545   1.909  0.6020 -0.3087  0.7699
  231Sol     MW 3686   1.525   1.520   1.995 -0.2124  0.0065 -0.0539
  232Sol     OW 3687   2.295   3.101   2.585  0.2727 -0.7225  0.2728
  232Sol     HW 3688   2.215   3.091   2.637  0.6842  0.6240  1.1986
  232Sol     HW 3689   2.270   3.161   2.514  1.0198  1.5927  1.8927
  232Sol     MW 3690   2.286   3.106   2.584  0.0777  0.0692 -0.1276
  233Sol     OW 3691   2.579   0.674   9.782 -0.3632  0.2411 -0.4593
  233Sol     HW 3692   2.496   0.642   9.817  0.2398  1.5160  2.3161
  233Sol     HW 3693   2.557   0.755   9.737 -0.3904  1.7935  2.2261
  233Sol     MW 3694   2.570   0.678   9.781  0.7051  0.6793  0.5671
  234Sol     OW 3695   2.849   1.731   3.545  0.2711  0.2724  0.0609
  234Sol     HW 3696   2.928   1.688   3.512  0.2990  0.1643  0.2704
  234Sol     HW 3697   2.788   1.728   3.471 -0.5966 -2.3186  0.8120
  234Sol     MW 3698   2.851   1.727   3.535  0.0379  0.3891  0.6543
  235Sol     OW 3699   0.085   1.801   1.641  0.5125  0.8207 -0.0960
  235Sol     HW 3700   0.146   1.857   1.592  3.0300 -1.0463  0.7808
  235Sol     HW 3701   0.095   1.715   1.602  0.4755 -0.1030  1.8793
  235Sol     MW 3702   0.091   1.799   1.633  0.4506  0.0891 -0.3705
  236Sol     OW 3703   0.236   1.615   6.897 -0.1806 -0.0259 -0.0870
  236Sol     HW 3704   0.316   1.645   6.942  0.9013 -1.7131 -0.8443
  236Sol     HW 3705   0.268   1.566   6.821 -1.9191 -1.9974  0.4053
  236Sol     MW 3706   0.246   1.614   6.894 -0.2894 -0.2886  0.5546
  237Sol     OW 3707   0.109   1.842   2.518  0.5216 -0.3872  0.5918
  237Sol     HW 3708   0.043   1.793   2.567  1.9963 -2.1207  0.8933
  237Sol     HW 3709   0.060   1.883   2.446 -1.0089 -0.9394  1.2937
  237Sol     MW 3710   0.099   1.842   2.516  0.0402 -0.4812 -0.0060
  238Sol     OW 3711   1.838   1.609   2.442 -0.4803 -0.0630 -0.7776
  238Sol     HW 3712   1.850   1.514   2.432 -2.0770 -0.1830 -1.6293
  238Sol     HW 3713   1.765   1.631   2.384 -0.9210  1.4959  0.3229
  238Sol     MW 3714   1.833   1.602   2.436  0.1763  0.4855 -0.1752
  239Sol     OW 3715   2.451   0.149   2.575  0.0715  0.4303 -0.2214
  239Sol     HW 3716   2.545   0.165   2.571 -0.0167  0.9320 -0.3751
  239Sol     HW 3717   2.420   0.166   2.486 -0.3013  1.1503  0.0406
  239Sol     MW 3718   2.457   0.152   2.566 -0.5619 -0.3832  0.2474
  240Sol     OW 3719   1.533   3.152   3.370  0.1672 -0.3104 -0.2039
  240Sol     HW 3720   1.530   3.089   3.298  1.5548  0.1094 -0.6304
  240Sol     HW 3721   1.523   3.238   3.328 -2.7816 -0.2632  0.4650
  240Sol     MW 3722   1.531   3.154   3.360 -0.2114  0.3776 -0.1726
  241Sol     OW 3723   2.391   3.028   5.045 -0.7100 -1.0789 -0.1299
  241Sol     HW 3724   2.308   3.076   5.052 -0.6498 -0.9934  0.0043
  241Sol     HW 3725   2.446   3.066   5.114 -0.3808 -0.7924 -0.5518
  241Sol     MW 3726   2.388   3.036   5.052 -0.8724 -0.6775 -0.0863
  242Sol     OW 3727   0.028   3.335   7.664  0.3204  0.0239 -0.3968
  242Sol     HW 3728   0.110   3.310   7.708  1.2059 -1.3106 -2.7060
  242Sol     HW 3729  -0.041   3.311   7.726  1.6392  0.3339  1.2146
  242Sol     MW 3730   0.029   3.330   7.674 -0.0442 -0.0247  1.1381
  243Sol     OW 3731   2.490   0.634   5.546  0.5537 -0.0319 -0.1672
  243Sol     HW 3732   2.530   0.548   5.563  1.1553  0.0013 -1.3996
  243Sol     HW 3733   2.542   0.671   5.475 -0.1186  1.0861 -0.0842
  243Sol     MW 3734   2.498   0.629   5.541  0.1016  0.6360 -0.0382
  244Sol     OW 3735   0.193   2.460   6.945 -0.0015  0.2379 -0.1521
  244Sol     HW 3736   0.099   2.470   6.931 -0.1521  0.8629  1.2823
  244Sol     HW 3737   0.201   2.383   7.001  0.3389  0.2695 -0.1532
  244Sol     MW 3738   0.186   2.454   6.948  0.5155  0.1508 -0.4090
  245Sol     OW 3739   3.066   2.535   5.990  0.5539 -0.1161  0.1289
  245Sol     HW 3740   3.040   2.626   5.977 -2.6994 -1.2238 -1.8327
  245Sol     HW 3741   2.989   2.494   6.031  1.5783 -2.1860  0.0465
  245Sol     MW 3742   3.056   2.540   5.992  0.0655 -0.0951 -0.1218
  246Sol     OW 3743   2.562   3.400   5.360  0.1864  0.8381  0.7028
  246Sol     HW 3744   2.611   3.482   5.350 -0.2960  1.0357 -0.0877
  246Sol     HW 3745   2.494   3.421   5.423 -0.0702  1.1071  0.3364
  246Sol     MW 3746   2.561   3.409   5.365  0.0755  0.0013 -0.0936
  247Sol     OW 3747   0.639   2.734   9.563 -0.1049  0.2703 -0.0633
  247Sol     HW 3748   0.640   2.751   9.469 -0.6445 -0.8697 -0.2792
  247Sol     HW 3749   0.641   2.639   9.571 -0.2437  0.3503  1.0805
  247Sol     MW 3750   0.639   2.727   9.555  0.0608 -0.1176  0.6563
  248Sol     OW 3751   1.386   0.816   3.525 -0.3840 -0.2335  0.5041
  248Sol     HW 3752   1.406   0.743   3.583 -0.3902 -0.2785  0.4496
  248Sol     HW 3753   1.386   0.893   3.582  0.2825 -0.1853  0.4492
  248Sol     MW 3754   1.388   0.817   3.536 -0.7051  0.0707  0.3995
  249Sol     OW 3755   3.021   1.522   3.494  0.1034 -0.8016 -0.2415
  249Sol     HW 3756   3.005   1.438   3.537 -3.7807  0.1592  0.3610
  249Sol     HW 3757   2.979   1.514   3.408  0.6928  0.1468 -0.6315
  249Sol     MW 3758   3.016   1.514   3.490 -0.8765 -0.0962 -0.3506
  250Sol     OW 3759   0.283   3.283   9.013  0.4989 -0.0012 -0.7711
  250Sol     HW 3760   0.231   3.354   9.051 -0.1106 -0.2621 -1.1163
  250Sol     HW 3761   0.316   3.235   9.090  0.2360  0.1677 -0.5500
  250Sol     MW 3762   0.281   3.285   9.024  0.3131  0.2519  0.3842
  251Sol     OW 3763   2.050   1.130   7.905  0.0730  0.2057 -0.0452
  251Sol     HW 3764   2.069   1.072   7.831  2.6898 -0.2803  0.9399
  251Sol     HW 3765   2.025   1.213   7.864 -0.9035 -0.7624 -1.4646
  251Sol     MW 3766   2.050   1.132   7.894  0.8778 -0.5763  0.3017
  252Sol     OW 3767   2.371   1.094   9.240  0.5630 -0.2694 -0.1132
  252Sol     HW 3768   2.343   1.021   9.185  0.2505 -1.5802  1.7128
  252Sol     HW 3769   2.307   1.163   9.223  0.0157 -0.9449 -0.8017
  252Sol     MW 3770   2.362   1.093   9.234 -0.5881 -0.4103  0.0625
  253Sol     OW 3771   0.253   2.433   3.068  0.2624 -0.1952 -0.6313
  253Sol     HW 3772   0.258   2.527   3.087 -1.3248 -0.2039 -0.1312
  253Sol     HW 3773   0.306   2.423   2.988 -2.3384  1.7135 -2.6915
  253Sol     MW 3774   0.258   2.441   3.062 -0.3533  0.3943 -0.0662
  254Sol     OW 3775   0.190   3.147   2.443 -0.4515 -0.3378  0.0459
  254Sol     HW 3776   0.258   3.088   2.476 -0.1298  0.4932  0.8646
  254Sol     HW 3777   0.111   3.120   2.489 -0.5714 -0.9343 -0.4935
  254Sol     MW 3778   0.189   3.139   2.450 -0.0401 -0.3303 -0.2589
  255Sol     OW 3779   0.968   2.638   5.879  0.0107 -0.2340 -0.4463
  255Sol     HW 3780   0.978   2.729   5.851 -0.4949 -0.4157 -1.2377
  255Sol     HW 3781   1.047   2.619   5.929  0.7004  0.2676 -1.3258
  255Sol     MW 3782   0.976   2.644   5.881 -0.5414 -0.1009  0.3494
  256Sol     OW 3783   2.793   2.132   8.272 -0.1519 -0.5714 -0.3472
  256Sol     HW 3784   2.857   2.086   8.326  1.5198  1.6438 -0.4048
  256Sol     HW 3785   2.841   2.157   8.193 -1.6339 -0.6346 -1.3071
  256Sol     MW 3786   2.803   2.130   8.270 -0.2204 -0.2190 -0.1132
  257Sol     OW 3787   0.484   2.053   7.557 -0.3787 -0.4293  0.1308
  257Sol     HW 3788   0.498   2.133   7.607  0.5252 -0.7697  0.4227
  257Sol     HW 3789   0.460   1.987   7.623  1.6446 -1.0849  0.2253
  257Sol     MW 3790   0.483   2.054   7.567  0.4846  0.1097  0.0186
  258Sol     OW 3791   1.900   0.767   5.215 -0.8684  0.5417  0.1928
  258Sol     HW 3792   1.867   0.712   5.286  1.1731 -1.6811 -0.5049
  258Sol     HW 3793   1.988   0.793   5.244  0.9181 -2.2624 -2.3795
  258Sol     MW 3794   1.905   0.765   5.224 -0.8224 -0.0699 -0.1232
  259Sol     OW 3795   2.717   0.715  10.034  0.1337 -0.3361  0.4361
  259Sol     HW 3796   2.723   0.720   9.939 -0.4918  0.8178  0.4398
  259Sol     HW 3797   2.623   0.717  10.052  0.2870  1.1684  1.1477
  259Sol     MW 3798   2.709   0.715  10.027  0.2933 -0.3172  0.0550
  260Sol     OW 3799   2.310   0.709   3.975 -0.6456  0.0847  0.2032
  260Sol     HW 3800   2.283   0.619   3.958 -0.6868 -0.0926  1.1662
  260Sol     HW 3801   2.244   0.763   3.932 -1.5915 -0.3512  1.0800
  260Sol     MW 3802   2.301   0.706   3.970  0.5457  0.1291 -0.1269
  261Sol     OW 3803   1.449   1.447   7.845 -0.1083  0.0033  0.1643
  261Sol     HW 3804   1.413   1.478   7.928 -2.1620 -0.2951 -0.5678
  261Sol     HW 3805   1.375   1.403   7.802  1.1289 -0.5382 -1.4692
  261Sol     MW 3806   1.439   1.446   7.849 -0.0584  0.2848  0.5039
  262Sol     OW 3807   1.767   0.016   5.487 -0.5277  0.1732  0.2931
  262Sol     HW 3808   1.835  -0.015   5.427 -1.7489 -1.1505 -0.4615
  262Sol     HW 3809   1.691   0.034   5.430 -0.8397  1.5553  1.1219
  262Sol     MW 3810   1.766   0.015   5.476 -0.7645 -0.5098 -0.2355
  263Sol     OW 3811   0.249   2.292   9.699  0.2946  0.3343  0.6794
  263Sol     HW 3812   0.279   2.380   9.720  0.0339 -0.0415  2.6950
  263Sol     HW 3813   0.211   2.259   9.780  0.0923 -1.5190 -0.1404
  263Sol     MW 3814   0.248   2.297   9.708  0.2410 -0.1386  0.4658
  264Sol     OW 3815   2.449   1.783   8.602 -0.0297  0.0478  0.0819
  264Sol     HW 3816   2.464   1.876   8.586  0.1270 -0.1360 -0.8752
  264Sol     HW 3817   2.527   1.754   8.649  1.5722 -0.3470 -2.6700
  264Sol     MW 3818   2.458   1.789   8.605  0.0381 -0.5695 -0.1268
  265Sol     OW 3819   2.436   0.700   7.078 -0.0313  0.6298 -0.2049
  265Sol     HW 3820   2.361   0.654   7.041 -0.1744 -0.6669  1.6776
  265Sol     HW 3821   2.407   0.729   7.164  1.2811  1.0578  0.1008
  265Sol     MW 3822   2.427   0.699   7.082  0.0792 -0.2842  0.1864
  266Sol     OW 3823   0.153   3.105   2.158  0.3730  0.1342 -0.1701
  266Sol     HW 3824   0.149   3.085   2.252 -0.1348  0.2461 -0.1644
  266Sol     HW 3825   0.169   3.020   2.116  0.2004  0.0207 -0.0081
  266Sol     MW 3826   0.154   3.095   2.163  0.8053  0.4303 -0.7163
  267Sol     OW 3827   1.912   3.192   3.239 -0.0155 -0.1146 -0.5964
  267Sol     HW 3828   1.861   3.112   3.231 -1.7723  1.0856 -1.8963
  267Sol     HW 3829   1.927   3.220   3.148  1.0811  0.6998 -0.1691
  267Sol     MW 3830   1.909   3.188   3.230  0.2808 -0.1744  0.2555
  268Sol     OW 3831   1.904   0.975   8.483 -0.3646  0.1751  0.0754
  268Sol     HW 3832   1.856   1.035   8.426 -0.9623 -1.2246 -0.9419
  268Sol     HW 3833   1.986   0.958   8.437  1.2386  2.7271  1.9133
  268Sol     MW 3834   1.907   0.979   8.474  0.7278 -0.5205  0.1177
  269Sol     OW 3835   2.950   2.843   5.231  0.7062 -0.1208  0.7828
  269Sol     HW 3836   2.956   2.758   5.275 -0.2141  0.0990  1.3341
  269Sol     HW 3837   2.857   2.854   5.212  1.2112 -0.8625 -2.5212
  269Sol     MW 3838   2.942   2.836   5.233 -0.0084  0.4511  0.0125
  270Sol     OW 3839   0.629   0.572   6.261  0.3138  0.2961  0.1983
  270Sol     HW 3840   0.631   0.486   6.303  1.3234  0.1238 -0.1763
  270Sol     HW 3841   0.654   0.555   6.170 -1.5641  0.7029 -0.4188
  270Sol     MW 3842   0.632   0.563   6.257 -0.0345  0.1814 -0.5652
  271Sol     OW 3843   0.750   0.095  10.304  0.1510 -0.4301 -0.1276
  271Sol     HW 3844   0.697   0.172  10.282  0.8558 -0.1613 -0.9114
  271Sol     HW 3845   0.687   0.032  10.338 -0.4785  0.3843  0.2326
  271Sol     MW 3846   0.739   0.097  10.305  0.7700  0.3766  0.0532
  272Sol     OW 3847   3.026   1.319   5.019  0.1715  0.3453 -0.0325
  272Sol     HW 3848   2.966   1.383   4.981  0.2060  1.1012  1.1596
  272Sol     HW 3849   3.015   1.328   5.114  0.7469 -0.8725  0.1636
  272Sol     MW 3850   3.020   1.326   5.024  0.2165 -0.1133  0.1949
  273Sol     OW 3851   0.024   1.465   8.130  0.0024  0.5655 -0.1378
  273Sol     HW 3852   0.055   1.432   8.215  0.2980  0.5212 -0.2597
  273Sol     HW 3853  -0.062   1.502   8.148 -1.0993 -1.7868 -0.3009
  273Sol     MW 3854   0.019   1.465   8.139 -1.0312 -0.1691  0.4263
  274Sol     OW 3855   1.083   1.590   2.790 -0.0568 -0.1194 -0.0416
  274Sol     HW 3856   1.044   1.502   2.786  0.8780 -0.5400  0.1434
  274Sol     HW 3857   1.026   1.638   2.850 -1.1007 -0.3282 -0.8424
  274Sol     MW 3858   1.074   1.586   2.795  0.2882  0.5068  0.0536
  275Sol     OW 3859   0.879   0.607   8.613 -0.3411  0.3034 -0.7749
  275Sol     HW 3860   0.888   0.625   8.520  2.5873 -2.7265 -1.1447
  275Sol     HW 3861   0.963   0.632   8.651  0.8294 -4.3746 -0.0199
  275Sol     MW 3862   0.887   0.611   8.608  0.0160 -0.0510  0.3963
  276Sol     OW 3863   0.754   0.398   9.166  0.5169 -0.1653 -0.1839
  276Sol     HW 3864   0.676   0.346   9.188  1.1215 -0.6282  0.9378
  276Sol     HW 3865   0.765   0.456   9.242 -0.2671  1.7597 -1.5130
  276Sol     MW 3866   0.748   0.398   9.175  0.0024 -0.0377 -0.6979
  277Sol     OW 3867   2.154   2.378   6.718 -0.0865  0.0051  0.1949
  277Sol     HW 3868   2.067   2.379   6.758  0.6807 -1.7976  2.0407
  277Sol     HW 3869   2.212   2.406   6.788  1.1426 -1.8130 -0.0653
  277Sol     MW 3870   2.151   2.380   6.728 -0.2351 -0.0595 -0.7160
  278Sol     OW 3871   0.418   1.469   6.745  0.3266 -0.2247  0.3185
  278Sol     HW 3872   0.443   1.378   6.758 -0.7222 -1.0336 -3.0509
  278Sol     HW 3873   0.484   1.505   6.687 -0.7532  0.4185 -0.5328
  278Sol     MW 3874   0.426   1.464   6.741 -0.7039  0.3481  0.1933
  279Sol     OW 3875   0.007   2.423   2.177  0.0807 -0.0999  0.1737
  279Sol     HW 3876  -0.003   2.331   2.199 -0.9331  0.0821  0.5189
  279Sol     HW 3877  -0.046   2.469   2.242  1.6645  0.8226  0.8418
  279Sol     MW 3878   0.001   2.419   2.185  0.1151 -0.1318  0.6292
  280Sol     OW 3879   0.269   0.685   5.663 -0.6389 -0.1639  0.1542
  280Sol     HW 3880   0.267   0.602   5.615 -2.0578  0.3645 -0.7240
  280Sol     HW 3881   0.282   0.660   5.754 -1.0583 -1.3537 -0.1058
  280Sol     MW 3882   0.270   0.675   5.667 -0.0474 -0.2658 -0.2142
  281Sol     OW 3883   0.566   0.201   9.147  0.2389 -0.1521  0.0390
  281Sol     HW 3884   0.499   0.182   9.213 -1.5721 -1.7028 -2.1746
  281Sol     HW 3885   0.630   0.130   9.157 -0.5338 -0.9298 -0.5165
  281Sol     MW 3886   0.566   0.193   9.154 -0.5122  0.1982  0.0601
  282Sol     OW 3887   2.059   1.254   3.797 -0.0739 -0.0693 -0.3520
  282Sol     HW 3888   1.995   1.316   3.761 -0.2207  0.7681  1.2962
  282Sol     HW 3889   2.122   1.309   3.842  0.9890 -1.0025 -0.6731
  282Sol     MW 3890   2.059   1.265   3.797  0.2439 -0.0876  0.2284
  283Sol     OW 3891   1.397   3.130   9.021  0.0570 -0.4842  0.4999
  283Sol     HW 3892   1.487   3.103   9.003  0.9257  2.1581  0.6959
  283Sol     HW 3893   1.347   3.099   8.945  1.6233  0.4806 -0.9527
  283Sol     MW 3894   1.401   3.125   9.013  0.0542 -0.0947  0.5964
  284Sol     OW 3895   2.306   1.386   8.949 -0.1571  0.2750 -0.2035
  284Sol     HW 3896   2.290   1.302   8.906  0.8231 -0.4164  0.7691
  284Sol     HW 3897   2.280   1.452   8.884 -0.4016 -0.7689 -1.1674
  284Sol     MW 3898   2.302   1.385   8.939  0.0963  0.0329 -0.3811
  285Sol     OW 3899   1.205   1.478   4.710  0.3463 -0.9935  0.0356
  285Sol     HW 3900   1.279   1.511   4.761  0.1033 -0.3166 -0.0385
  285Sol     HW 3901   1.128   1.508   4.759  0.1194 -0.7992 -0.4429
  285Sol     MW 3902   1.205   1.484   4.719  0.7072 -0.1522  0.6519
  286Sol     OW 3903   2.912   2.143   7.046  0.1494  0.1568 -0.0887
  286Sol     HW 3904   2.968   2.084   7.097  1.0793  0.1515 -1.1038
  286Sol     HW 3905   2.850   2.178   7.110  0.7016 -0.5731  0.8632
  286Sol     MW 3906   2.911   2.141   7.056 -0.3099 -0.0875  0.1001
  287Sol     OW 3907   2.161   2.383   7.817 -0.4105 -0.0688 -0.2219
  287Sol     HW 3908   2.119   2.419   7.739 -1.9929 -1.2521  0.0648
  287Sol     HW 3909   2.123   2.432   7.890  0.7738  0.7596 -0.1383
  287Sol     MW 3910   2.154   2.391   7.816 -0.0236  0.0400  0.2643
  288Sol     OW 3911   2.697   0.571   7.061  0.0263  0.0557  0.4607
  288Sol     HW 3912   2.607   0.605   7.065  0.2962  0.7411  0.8773
  288Sol     HW 3913   2.712   0.535   7.148 -0.6177 -2.0918 -0.2976
  288Sol     MW 3914   2.690   0.571   7.069 -0.1741 -0.2501 -0.3707
  289Sol     OW 3915   0.993   1.391   2.342  0.4841  0.3150  0.3375
  289Sol     HW 3916   0.914   1.434   2.376  0.8034 -0.7768  2.5786
  289Sol     HW 3917   1.054   1.463   2.326 -0.4240  1.0409  0.1044
  289Sol     MW 3918   0.991   1.401   2.344 -0.2087 -0.4171  0.9186
  290Sol     OW 3919   2.967   0.707   4.990 -0.0384 -0.0156  0.8236
  290Sol     HW 3920   3.059   0.682   4.983 -0.1615  0.3112 -2.6172
  290Sol     HW 3921   2.969   0.803   4.987 -0.6454 -0.0556 -2.4235
  290Sol     MW 3922   2.976   0.714   4.989 -0.3895 -0.1969 -0.1125
  291Sol     OW 3923   0.725   3.365   8.180  0.6577  0.4440 -0.3573
  291Sol     HW 3924   0.759   3.300   8.119 -1.2377  1.4371 -2.5152
  291Sol     HW 3925   0.643   3.395   8.141  0.8116  3.1531  1.2763
  291Sol     MW 3926   0.721   3.362   8.171  1.0898  0.0492  0.0586
  292Sol     OW 3927   0.319   0.772   6.107  0.0209  0.1973 -0.2053
  292Sol     HW 3928   0.340   0.797   6.197 -5.1779 -0.5299  1.3912
  292Sol     HW 3929   0.251   0.834   6.080 -0.7064 -1.5073 -2.4602
  292Sol     MW 3930   0.315   0.780   6.112 -0.3517 -0.4487  0.0321
  293Sol     OW 3931   1.435   1.839   6.471  0.7415  0.2429  0.5927
  293Sol     HW 3932   1.458   1.887   6.550 -0.0511  1.1677  0.2573
  293Sol     HW 3933   1.408   1.752   6.503  1.5170  0.2298  1.2387
  293Sol     MW 3934   1.435   1.835   6.481  0.3293 -0.3375  0.0427
  294Sol     OW 3935   2.402   2.182   4.213 -0.1189  0.6821  0.5148
  294Sol     HW 3936   2.484   2.138   4.236  0.0392 -0.3768 -1.8466
  294Sol     HW 3937   2.337   2.112   4.212 -0.1605  0.7135 -1.8492
  294Sol     MW 3938   2.404   2.172   4.215  0.3536 -0.0462 -0.1281
  295Sol     OW 3939   1.340   1.554   8.397 -0.5320 -0.1938  0.4945
  295Sol     HW 3940   1.318   1.558   8.490 -3.1255 -0.1224 -0.0704
  295Sol     HW 3941   1.265   1.593   8.353  1.1264  0.7296 -1.5893
  295Sol     MW 3942   1.331   1.558   8.401 -0.6262 -0.4304  0.3152
  296Sol     OW 3943   1.357   3.094   3.612  0.3107 -0.0284 -0.1803
  296Sol     HW 3944   1.441   3.137   3.629  1.1625 -1.5390 -0.4924
  296Sol     HW 3945   1.361   3.067   3.520 -1.3511  1.6849 -0.7911
  296Sol     MW 3946   1.365   3.095   3.605  0.5487  0.3793  0.1358
  297Sol     OW 3947   0.606   0.522   3.260 -0.2048 -0.4943  0.4661
  297Sol     HW 3948   0.667   0.590   3.288 -0.2343 -0.9068  1.5435
  297Sol     HW 3949   0.657   0.441   3.263 -0.6123 -0.7431  0.6934
  297Sol     MW 3950   0.616   0.521   3.262 -0.3518 -0.5238  0.0526
  298Sol     OW 3951   0.421   0.291  10.119  0.8454 -0.0103 -0.0240
  298Sol     HW 3952   0.504   0.317  10.159  1.1107  1.3449 -1.4116
  298Sol     HW 3953   0.354   0.331  10.174  1.1704  0.6920 -0.1366
  298Sol     MW 3954   0.422   0.297  10.128  0.0641  0.1034 -0.3064
  299Sol     OW 3955   2.418   2.314   8.990  0.5349  0.9815 -0.0665
  299Sol     HW 3956   2.504   2.346   8.963  0.8962  1.2903  1.3760
  299Sol     HW 3957   2.359   2.337   8.919  1.7588  0.2111 -1.3537
  299Sol     MW 3958   2.421   2.319   8.981  0.0658 -0.1438 -0.2179
  300Sol     OW 3959   1.845   3.116   3.769  0.0423 -0.4371  0.4242
  300Sol     HW 3960   1.888   3.063   3.702  1.1660  0.8108  0.1421
  300Sol     HW 3961   1.759   3.137   3.732  0.2205 -0.6850 -0.1341
  300Sol     MW 3962   1.841   3.113   3.760  0.2395 -0.1679  0.4364
  301Sol     OW 3963   0.926   1.468   5.733 -0.0020  0.3225 -0.1304
  301Sol     HW 3964   0.881   1.499   5.655  0.0427 -1.6945 -0.9706
  301Sol     HW 3965   0.874   1.503   5.806 -1.2930  0.3960 -1.0717
  301Sol     MW 3966   0.917   1.474   5.733 -0.6106  0.2958  0.2155
  302Sol     OW 3967   0.285   3.213   3.651 -0.3671 -0.1213  1.1249
  302Sol     HW 3968   0.297   3.305   3.675 -1.2371  0.2455  0.2027
  302Sol     HW 3969   0.231   3.177   3.722  0.3534 -0.0341  1.7171
  302Sol     MW 3970   0.281   3.218   3.660  0.2855  0.4257  0.0550
  303Sol     OW 3971   1.370   3.013   9.271  0.4142 -0.2283  0.0279
  303Sol     HW 3972   1.396   2.921   9.265  3.6449  0.5609  1.0254
  303Sol     HW 3973   1.366   3.042   9.180 -0.2331 -1.2465 -0.2760
  303Sol     MW 3974   1.372   3.007   9.262  0.4258  0.3495  0.7029
  304Sol     OW 3975   0.503   0.328   5.783 -0.0774 -0.2226 -0.1362
  304Sol     HW 3976   0.548   0.295   5.860  1.2273  0.1102 -0.7343
  304Sol     HW 3977   0.457   0.407   5.813  2.3239  1.2625 -0.1674
  304Sol     MW 3978   0.503   0.332   5.792 -0.0117 -0.2793  0.5394
  305Sol     OW 3979   1.720   2.860   8.020  0.3579 -0.5827 -0.0082
  305Sol     HW 3980   1.669   2.804   7.962 -1.7328  1.6774 -0.4375
  305Sol     HW 3981   1.748   2.933   7.964 -2.2218  1.9779  1.8479
  305Sol     MW 3982   1.718   2.862   8.010 -0.8030  0.4936  0.1118
  306Sol     OW 3983   1.961   1.804   8.023 -0.8391 -0.1645  0.5633
  306Sol     HW 3984   1.943   1.788   8.115  0.5426 -1.3244  0.6448
  306Sol     HW 3985   2.026   1.874   8.022 -1.6065  0.5549  0.4274
  306Sol     MW 3986   1.965   1.809   8.031  0.1097  0.8022  0.7385
  307Sol     OW 3987   0.610   1.249   4.813  0.2448 -0.1260 -0.2267
  307Sol     HW 3988   0.602   1.204   4.897  1.6678 -1.8046 -0.9487
  307Sol     HW 3989   0.686   1.305   4.823  1.1290 -1.2053 -0.7477
  307Sol     MW 3990   0.616   1.250   4.821  0.8262 -0.1407 -0.1530
  308Sol     OW 3991   1.081   1.644   9.615  0.2640 -0.1062 -0.2153
  308Sol     HW 3992   1.002   1.592   9.633  1.0285 -1.4377 -0.6504
  308Sol     HW 3993   1.094   1.695   9.695 -1.0515  0.1498 -0.1517
  308Sol     MW 3994   1.075   1.644   9.624 -0.5261  0.5415  0.5861
  309Sol     OW 3995   3.069   1.636   2.690  0.1366  0.4142 -0.3140
  309Sol     HW 3996   3.105   1.558   2.647 -1.0291 -1.0409  1.2910
  309Sol     HW 3997   3.139   1.665   2.749  0.0302 -0.2893  0.1628
  309Sol     MW 3998   3.079   1.631   2.691 -0.1917 -0.6528 -0.2759
  310Sol     OW 3999   2.780   3.257   1.807  0.2901  0.0061 -0.0876
  310Sol     HW 4000   2.742   3.335   1.848  0.2188 -0.0641 -0.0178
  310Sol     HW 4001   2.707   3.218   1.758 -0.1614 -1.0386  1.3978
  310Sol     MW 4002   2.770   3.260   1.806  0.2601 -0.3121 -0.2988
  311Sol     OW 4003   2.402   1.006   3.451 -0.0559 -0.6291  0.2204
  311Sol     HW 4004   2.348   1.054   3.514 -0.0364  0.4402 -0.5565
  311Sol     HW 4005   2.438   0.932   3.501 -0.4206 -0.0651  1.3330
  311Sol     MW 4006   2.401   1.004   3.461 -0.3609  0.2772  0.0361
  312Sol     OW 4007   0.567   2.075   8.219  0.5816 -0.5920  0.0986
  312Sol     HW 4008   0.636   2.131   8.182  0.1523  0.6094  1.0616
  312Sol     HW 4009   0.550   2.009   8.152  0.1395  1.2678 -1.6625
  312Sol     MW 4010   0.571   2.074   8.210 -0.2797  0.8354  0.1202
  313Sol     OW 4011   2.792   0.491   1.860 -0.2024 -0.1148 -0.1182
  313Sol     HW 4012   2.796   0.573   1.909  1.5107 -0.2455 -0.0187
  313Sol     HW 4013   2.839   0.510   1.778 -2.0099 -0.2491 -1.2243
  313Sol     MW 4014   2.796   0.500   1.857  0.2298  0.1106 -1.0435
  314Sol     OW 4015   0.266   1.721   6.366 -0.7534 -0.0659 -1.1116
  314Sol     HW 4016   0.346   1.725   6.314  0.5758  3.1914  1.0530
  314Sol     HW 4017   0.196   1.748   6.306  0.2923  0.5222 -2.0698
  314Sol     MW 4018   0.267   1.724   6.356 -0.2896 -0.8452 -0.6053
  315Sol     OW 4019   0.343   1.841   8.875 -0.8517  0.3396 -0.1164
  315Sol     HW 4020   0.410   1.874   8.814 -0.4909 -2.2353 -1.2168
  315Sol     HW 4021   0.381   1.854   8.962  0.6924 -0.1971 -0.6871
  315Sol     MW 4022   0.353   1.845   8.877 -0.2902  0.2784 -0.3745
  316Sol     OW 4023   2.030   0.879   4.606  0.2008  0.2254  0.0973
  316Sol     HW 4024   2.027   0.828   4.525  1.2110  0.6192 -0.1957
  316Sol     HW 4025   2.075   0.821   4.668 -1.9367 -0.6932  0.8431
  316Sol     MW 4026   2.034   0.869   4.604  0.2292 -0.1555 -0.4439
  317Sol     OW 4027   1.767   2.880   3.228 -0.0333 -0.2196 -0.5784
  317Sol     HW 4028   1.808   2.876   3.141  0.9016  0.9361 -0.2055
  317Sol     HW 4029   1.769   2.790   3.260 -0.6541 -0.7089 -1.8724
  317Sol     MW 4030   1.770   2.872   3.223  0.3748  0.0393 -0.3340
  318Sol     OW 4031   2.271   1.033   6.862 -0.0817  0.3120 -0.0604
  318Sol     HW 4032   2.192   1.081   6.837 -1.2531 -0.6055  1.7737
  318Sol     HW 4033   2.293   0.981   6.784 -3.5149 -2.3189  0.6076
  318Sol     MW 4034   2.266   1.032   6.853  0.2257  0.3044 -0.2348
  319Sol     OW 4035   1.781   2.188   6.296 -0.3874  0.1219  0.1638
  319Sol     HW 4036   1.745   2.262   6.345  0.7232 -0.9042  2.6418
  319Sol     HW 4037   1.706   2.132   6.278 -1.1183  1.4715 -1.0798
  319Sol     MW 4038   1.771   2.190   6.299 -0.7831 -0.5450 -0.0136
  320Sol     OW 4039   2.867   1.590   8.159  0.8804 -0.1789 -0.3039
  320Sol     HW 4040   2.826   1.552   8.082 -0.5167  0.4969  0.0880
  320Sol     HW 4041   2.798   1.593   8.225  1.6553  0.6103  0.5009
  320Sol     MW 4042   2.857   1.587   8.158 -0.0144  0.3093  0.0966
  321Sol     OW 4043   1.948   1.763   7.602  0.3156  0.0429  0.2968
  321Sol     HW 4044   2.027   1.714   7.579  1.2498  1.3379  0.7327
  321Sol     HW 4045   1.920   1.725   7.685  0.3515 -0.5718  0.0306
  321Sol     MW 4046   1.953   1.755   7.607  0.0951  0.2184  0.3286
  322Sol     OW 4047   0.003   2.863   7.422  0.0199  0.2945 -0.2336
  322Sol     HW 4048  -0.028   2.921   7.492 -1.2059  0.5403 -0.9629
  322Sol     HW 4049   0.065   2.804   7.466 -2.9867 -1.5239  1.6914
  322Sol     MW 4050   0.006   2.863   7.432  0.0147 -0.2912  0.5355
  323Sol     OW 4051   2.788   0.536   9.629  0.2440 -0.3950  0.0720
  323Sol     HW 4052   2.713   0.565   9.681 -0.2003 -0.4426 -0.5355
  323Sol     HW 4053   2.778   0.441   9.623  1.5294 -0.6582  1.8015
  323Sol     MW 4054   2.781   0.530   9.633 -0.2728  0.4088  0.2185
  324Sol     OW 4055   0.313   1.160   3.685 -0.4336  0.1413 -0.4319
  324Sol     HW 4056   0.323   1.207   3.602  1.3726 -2.1777 -1.5954
  324Sol     HW 4057   0.298   1.229   3.750 -1.0380  2.0624 -2.5374
  324Sol     MW 4058   0.313   1.171   3.683  0.3865  0.0368  0.1463
  325Sol     OW 4059   2.627   1.716   4.580  0.2757  0.2247 -0.1080
  325Sol     HW 4060   2.570   1.639   4.581 -0.5001  0.7988  1.1728
  325Sol     HW 4061   2.577   1.782   4.531  0.7370  0.0779 -0.7893
  325Sol     MW 4062   2.617   1.715   4.575 -0.1349 -0.8918  0.4102
  326Sol     OW 4063   1.331   3.296   6.986  0.4925 -0.3313  0.2407
  326Sol     HW 4064   1.262   3.239   6.953  1.1375 -1.1092  0.2327
  326Sol     HW 4065   1.401   3.237   7.012  1.0769  0.4412  0.4494
  326Sol     MW 4066   1.331   3.286   6.985 -0.4999  0.5365 -0.2569
  327Sol     OW 4067   2.473   2.616   4.027  0.3983 -0.4509  0.0011
  327Sol     HW 4068   2.408   2.547   4.020 -0.5337  0.5334 -1.4290
  327Sol     HW 4069   2.424   2.692   4.060  1.5784 -0.6756  2.3548
  327Sol     MW 4070   2.463   2.617   4.029  0.4054  0.2691 -0.3853
  328Sol     OW 4071   2.247   0.367   9.031 -0.0395 -0.0911 -0.3237
  328Sol     HW 4072   2.327   0.419   9.031  0.3833 -0.7266 -0.1964
  328Sol     HW 4073   2.187   0.414   8.973  0.3040  0.5711 -0.1460
  328Sol     MW 4074   2.249   0.375   9.026 -0.2191  0.7198 -0.1336
  329Sol     OW 4075   3.086   1.863   4.297 -0.3514  0.3232 -0.3380
  329Sol     HW 4076   3.097   1.885   4.389 -4.3201  1.2939 -0.0255
  329Sol     HW 4077   3.025   1.789   4.297  1.4373 -1.2178 -2.1188
  329Sol     MW 4078   3.082   1.858   4.305 -0.9459 -0.2651  0.1741
  330Sol     OW 4079   0.804   1.894   5.775 -0.1818 -0.2824 -0.0579
  330Sol     HW 4080   0.815   1.989   5.780  0.4294 -0.2848 -1.1901
  330Sol     HW 4081   0.890   1.861   5.751 -0.0878 -1.2416  1.5408
  330Sol     MW 4082   0.812   1.900   5.773 -0.2108 -0.1292 -0.3974
  331Sol     OW 4083   2.175   0.364   2.593  0.5421  0.4282  0.1403
  331Sol     HW 4084   2.205   0.453   2.612 -0.1127  0.0377  3.4613
  331Sol     HW 4085   2.099   0.376   2.535  2.2199  1.8270 -1.8222
  331Sol     MW 4086   2.171   0.373   2.590  0.5212  0.5390  0.3308
  332Sol     OW 4087   2.271   1.354   8.645 -0.1632 -0.4403 -0.0111
  332Sol     HW 4088   2.221   1.426   8.683  0.0710  0.2104 -0.9045
  332Sol     HW 4089   2.349   1.396   8.608  0.3361 -1.2541  0.1197
  332Sol     MW 4090   2.273   1.364   8.645 -0.5338 -0.4350  0.4165
  333Sol     OW 4091   0.722   3.367   9.163  0.1261 -0.5796  0.3218
  333Sol     HW 4092   0.808   3.323   9.162  0.0873 -0.6496  0.0224
  333Sol     HW 4093   0.682   3.342   9.080  0.6201  1.0304 -0.4366
  333Sol     MW 4094   0.726   3.361   9.155 -0.5218 -0.2757 -0.4920
  334Sol     OW 4095   2.498   2.685   1.475 -0.1165  0.3271 -0.0963
  334Sol     HW 4096   2.497   2.730   1.559  0.4735  1.6187 -0.7759
  334Sol     HW 4097   2.544   2.603   1.492 -2.7904 -0.9216  1.5764
  334Sol     MW 4098   2.502   2.682   1.484  0.2771 -0.0891 -0.2169
  335Sol     OW 4099   2.252   1.106   4.676  0.0409  0.5576  0.0662
  335Sol     HW 4100   2.253   1.144   4.588  0.0666  0.1681 -0.1035
  335Sol     HW 4101   2.298   1.023   4.666  2.0249  1.5140  0.9178
  335Sol     MW 4102   2.256   1.102   4.667 -0.3432  0.6142  0.2865
  336Sol     OW 4103   2.051   3.353   5.719 -0.6288 -0.4602 -0.6737
  336Sol     HW 4104   1.987   3.367   5.788  0.6558 -0.2469  0.4894
  336Sol     HW 4105   2.100   3.276   5.745  1.4706  1.0246 -0.0846
  336Sol     MW 4106   2.050   3.348   5.727  0.3285  0.1139  0.1608
  337Sol     OW 4107   0.509   1.183   7.147 -0.2742 -0.2673 -0.1777
  337Sol     HW 4108   0.477   1.189   7.237  0.7318 -0.4306  0.1953
  337Sol     HW 4109   0.437   1.216   7.093 -0.3444  1.1518  0.7866
  337Sol     MW 4110   0.500   1.186   7.150 -0.6269 -0.1697 -0.3768
  338Sol     OW 4111   0.783   3.154   8.022  0.1676 -0.3222  0.2058
  338Sol     HW 4112   0.869   3.133   8.057  0.1443 -1.8273 -0.6100
  338Sol     HW 4113   0.799   3.177   7.931 -0.2494 -0.1732  0.1678
  338Sol     MW 4114   0.792   3.154   8.017  0.3184  0.1875  0.5687
  339Sol     OW 4115   2.100   0.114   2.623 -0.1525 -0.2476  0.1059
  339Sol     HW 4116   2.148   0.195   2.605 -0.1726 -0.2538  0.0260
  339Sol     HW 4117   2.089   0.072   2.537 -3.0622  1.2716 -0.3195
  339Sol     MW 4118   2.103   0.117   2.614  0.2235 -0.5364 -0.3446
  340Sol     OW 4119   2.889   0.535   4.601 -1.0450  0.1388 -0.1602
  340Sol     HW 4120   2.860   0.573   4.518  0.2966  0.3835 -0.5159
  340Sol     HW 4121   2.976   0.571   4.616 -1.2123 -0.0154  1.2873
  340Sol     MW 4122   2.894   0.541   4.595  0.4782 -0.6332  0.0143
  341Sol     OW 4123   3.075   0.562   3.556  0.0420  1.1152  0.0126
  341Sol     HW 4124   3.007   0.519   3.503 -1.7985  0.9171  2.4628
  341Sol     HW 4125   3.146   0.498   3.559 -1.3072 -0.3845  0.7964
  341Sol     MW 4126   3.075   0.552   3.551  0.5514 -0.1651  0.2000
  342Sol     OW 4127   1.625   2.522   5.396  0.0426  0.1755  0.3342
  342Sol     HW 4128   1.541   2.502   5.437  0.0728 -1.3100 -0.2881
  342Sol     HW 4129   1.666   2.585   5.455 -0.5484 -0.8038  1.8178
  342Sol     MW 4130   1.621   2.526   5.405 -0.3922 -0.4716  0.1140
  343Sol     OW 4131   2.999   0.861   9.001  0.3034 -0.0547 -0.2097
  343Sol     HW 4132   2.939   0.788   8.986  0.4072 -0.8578  2.8634
  343Sol     HW 4133   3.074   0.844   8.945 -0.7166 -1.0078 -1.3057
  343Sol     MW 4134   3.000   0.853   8.995  0.3441  0.4694 -0.5226
  344Sol     OW 4135   2.213   2.115   8.606  0.1276  0.8987 -0.0977
  344Sol     HW 4136   2.163   2.075   8.535  1.0321 -0.4638  0.0156
  344Sol     HW 4137   2.158   2.102   8.683 -0.7775  2.2272 -0.4945
  344Sol     MW 4138   2.204   2.110   8.606 -0.0373  0.3257  0.6698
  345Sol     OW 4139   2.048   1.506   7.954 -0.1049 -0.3525  0.5957
  345Sol     HW 4140   2.094   1.587   7.977 -1.2259  1.5109 -3.4348
  345Sol     HW 4141   2.113   1.456   7.904  0.0525 -1.2656  1.6932
  345Sol     MW 4142   2.058   1.509   7.952  0.7934  0.2024  0.1864
  346Sol     OW 4143   1.157   1.631   1.745 -0.6146 -0.0180  0.3079
  346Sol     HW 4144   1.191   1.545   1.769 -2.7086 -0.3838  2.0913
  346Sol     HW 4145   1.065   1.616   1.727 -1.6639  2.2536  3.3187
  346Sol     MW 4146   1.152   1.622   1.746  0.4820 -0.3063  0.6856
  347Sol     OW 4147   0.501   0.096   2.819 -0.7785  0.3870 -0.1616
  347Sol     HW 4148   0.467   0.129   2.736 -0.8765  1.5340  0.3179
  347Sol     HW 4149   0.482   0.002   2.817 -0.8344  0.4159 -1.4025
  347Sol     MW 4150   0.496   0.091   2.812  0.1886 -0.2829 -0.2441
  348Sol     OW 4151   2.225   3.163   9.456  0.4723  0.5811 -0.0896
  348Sol     HW 4152   2.303   3.109   9.449 -0.8541 -1.3756 -0.3316
  348Sol     HW 4153   2.214   3.178   9.550 -0.0138 -0.9436  0.1176
  348Sol     MW 4154   2.231   3.160   9.464  0.6652 -0.2476 -0.5134
  349Sol     OW 4155   1.506   2.105   7.198 -0.6581  0.2190 -0.9309
  349Sol     HW 4156   1.553   2.083   7.279 -1.2643  0.9861 -0.3672
  349Sol     HW 4157   1.573   2.099   7.130 -0.0056  0.1486 -0.2978
  349Sol     MW 4158   1.516   2.102   7.199  0.1030 -0.0330  0.6055
  350Sol     OW 4159   1.972   2.088   5.904  0.2386 -0.6514  0.3238
  350Sol     HW 4160   1.991   2.138   5.984 -0.5021 -2.6858  1.8287
  350Sol     HW 4161   1.896   2.131   5.867  0.7890  0.5233  0.5300
  350Sol     MW 4162   1.967   2.096   5.908 -0.0601  0.1449  0.1329
  351Sol     OW 4163   1.805   3.082   7.301  0.9629 -0.5212  0.0154
  351Sol     HW 4164   1.806   3.138   7.223  0.3362 -1.0696 -0.3832
  351Sol     HW 4165   1.741   3.123   7.359  3.7605  1.7808  1.6514
  351Sol     MW 4166   1.799   3.091   7.299  0.0404 -0.1917  0.4160
  352Sol     OW 4167   0.416   0.015   1.515 -0.2465  0.7721 -0.6740
  352Sol     HW 4168   0.356   0.071   1.564 -1.8673  0.4808 -2.2731
  352Sol     HW 4169   0.441   0.067   1.439 -0.2329  0.0572 -1.1625
  352Sol     MW 4170   0.413   0.025   1.513  0.2180 -0.1191  0.0612
  353Sol     OW 4171   0.141   2.022   5.244  0.0349  0.1881 -0.0154
  353Sol     HW 4172   0.189   2.051   5.167  2.7446 -2.7957  0.4656
  353Sol     HW 4173   0.163   2.086   5.312 -2.0684  2.6129 -1.4995
  353Sol     MW 4174   0.147   2.030   5.243  0.4451  0.0278 -0.6924
  354Sol     OW 4175   0.067   0.181   4.258 -0.1186  0.0830  0.7792
  354Sol     HW 4176   0.092   0.217   4.343 -0.4537  1.5405  0.2856
  354Sol     HW 4177   0.146   0.138   4.225  0.2534  0.2493  1.4514
  354Sol     MW 4178   0.076   0.180   4.263 -0.5535  0.2951 -0.0610
  355Sol     OW 4179   1.644   2.066   9.521  0.8275 -0.5930  0.1137
  355Sol     HW 4180   1.633   2.093   9.612 -0.5667 -3.0563  0.7129
  355Sol     HW 4181   1.726   2.016   9.521  1.1398 -0.0971 -0.1433
  355Sol     MW 4182   1.651   2.064   9.529  0.0285 -0.0660 -0.1795
  356Sol     OW 4183   1.081   1.649   8.329 -0.1389 -0.2984  0.6809
  356Sol     HW 4184   1.073   1.632   8.235  0.4115 -0.3925  0.6479
  356Sol     HW 4185   1.103   1.742   8.336 -0.0844 -0.3137  0.7137
  356Sol     MW 4186   1.082   1.656   8.322  0.1824 -0.1736  0.0251
  357Sol     OW 4187   2.415   2.016   2.807  0.8424 -0.1622 -0.0329
  357Sol     HW 4188   2.362   1.950   2.762  0.4523  0.5043 -0.5492
  357Sol     HW 4189   2.407   1.993   2.900  0.5355 -0.7183 -0.1951
  357Sol     MW 4190   2.410   2.008   2.812 -0.2560  1.0245  0.1605
  358Sol     OW 4191   2.163   0.689   3.132  0.7651 -0.7329 -0.1546
  358Sol     HW 4192   2.109   0.765   3.111  2.5645  0.5417 -0.3458
  358Sol     HW 4193   2.171   0.641   3.050  1.9793  0.4375 -0.7334
  358Sol     MW 4194   2.159   0.691   3.123  0.0904  0.5312  0.2850
  359Sol     OW 4195   0.110   3.139   4.663  0.3384 -0.8428 -0.0705
  359Sol     HW 4196   0.194   3.096   4.643  0.4688 -0.3027 -0.6887
  359Sol     HW 4197   0.113   3.221   4.614  0.0621 -0.1543  1.0602
  359Sol     MW 4198   0.118   3.142   4.657 -0.6072  0.7203  0.4413
  360Sol     OW 4199   0.605   2.146   3.555  0.3761  0.0991  0.4459
  360Sol     HW 4200   0.687   2.109   3.589 -0.3315 -0.7932  1.2192
  360Sol     HW 4201   0.536   2.096   3.599 -0.5886 -0.0963 -1.2424
  360Sol     MW 4202   0.606   2.138   3.562  0.3086  0.5361  0.1005
  361Sol     OW 4203   0.665   2.874   7.332  0.8221  0.1328  0.5074
  361Sol     HW 4204   0.645   2.807   7.397  0.3761  0.5995  0.8541
  361Sol     HW 4205   0.754   2.903   7.355  2.3006 -2.5488 -1.5690
  361Sol     MW 4206   0.672   2.871   7.340 -0.1581  0.2251  0.0600
  362Sol     OW 4207   1.695   2.659   7.378 -0.5204  0.0288 -0.0602
  362Sol     HW 4208   1.746   2.643   7.458  0.6233  2.8848 -0.1516
  362Sol     HW 4209   1.605   2.636   7.402  0.0085 -0.3718  1.6487
  362Sol     MW 4210   1.692   2.656   7.387  0.2020 -0.2380  0.3353
  363Sol     OW 4211   0.901   0.366  10.050  0.5272 -0.7558 -0.0750
  363Sol     HW 4212   0.987   0.323  10.052  0.6883 -0.4538 -0.6465
  363Sol     HW 4213   0.862   0.338   9.967 -0.2702 -1.5663  0.5652
  363Sol     MW 4214   0.905   0.359  10.043 -0.5385 -0.2088 -0.4530
  364Sol     OW 4215   1.131   3.157   6.833  0.2937  0.3201  0.1320
  364Sol     HW 4216   1.072   3.100   6.784 -1.1430  1.3868  0.5914
  364Sol     HW 4217   1.119   3.244   6.795 -0.1072  0.9744  1.7164
  364Sol     MW 4218   1.125   3.160   6.825 -0.2745  0.7987  0.4103
  365Sol     OW 4219   1.392   1.049   3.684  0.0568 -0.2202 -0.4438
  365Sol     HW 4220   1.395   1.144   3.674 -2.8841 -0.1376 -0.8120
  365Sol     HW 4221   1.483   1.024   3.700  0.7070  2.7614  0.7813
  365Sol     MW 4222   1.401   1.055   3.685  0.5950 -0.3175  0.0995
  366Sol     OW 4223   1.704   1.241   2.578 -0.5399  0.2608 -0.1516
  366Sol     HW 4224   1.789   1.280   2.555 -0.2922 -0.3844 -0.3533
  366Sol     HW 4225   1.696   1.165   2.519 -0.1765 -1.0737  1.4702
  366Sol     MW 4226   1.711   1.237   2.570 -0.2327 -0.1959  0.3519
  367Sol     OW 4227   0.665   1.763   8.325 -0.2423  0.0604  0.9954
  367Sol     HW 4228   0.714   1.746   8.244 -2.7481 -1.7183 -0.1953
  367Sol     HW 4229   0.577   1.787   8.295  0.1298  4.4728  3.0434
  367Sol     MW 4230   0.662   1.764   8.315 -0.1096 -0.4683 -0.3780
  368Sol     OW 4231   1.039   0.916   2.948  0.6035 -0.4548  0.3514
  368Sol     HW 4232   1.127   0.954   2.948  0.5786 -0.4007  0.4735
  368Sol     HW 4233   1.030   0.878   2.860  0.5522 -0.0118  0.1635
  368Sol     MW 4234   1.046   0.916   2.940  0.0205  0.2757 -0.0801
  369Sol     OW 4235   1.244   2.070  10.053 -0.1892 -0.6321  0.0030
  369Sol     HW 4236   1.180   2.141  10.061  0.4466 -0.1388  0.8877
  369Sol     HW 4237   1.192   1.990  10.062 -0.9344 -0.2948 -1.1660
  369Sol     MW 4238   1.233   2.069  10.055  0.2371  0.1146 -0.4847
  370Sol     OW 4239   1.488   1.755   8.237 -0.4612 -0.4009  0.2263
  370Sol     HW 4240   1.412   1.813   8.251  1.6929  2.0363  2.3781
  370Sol     HW 4241   1.500   1.711   8.321 -0.6870 -2.2877 -0.7218
  370Sol     MW 4242   1.482   1.757   8.246  0.9909  0.5410  0.0855
  371Sol     OW 4243   2.389   2.246   5.393 -0.0660 -0.4550  0.3881
  371Sol     HW 4244   2.314   2.304   5.403  0.1720 -0.2462  0.9393
  371Sol     HW 4245   2.465   2.300   5.411  0.1799 -0.8373  0.5183
  371Sol     MW 4246   2.389   2.256   5.395  0.5954  0.6523 -0.3894
  372Sol     OW 4247   2.232   1.364   9.215 -0.0867  0.1365 -0.7683
  372Sol     HW 4248   2.157   1.423   9.226 -1.3968 -1.7662  0.9908
  372Sol     HW 4249   2.263   1.380   9.126 -2.1522  1.4811 -1.2772
  372Sol     MW 4250   2.228   1.371   9.208  0.0543 -0.3676 -0.1348
  373Sol     OW 4251   2.521   1.049   3.180  0.0353 -0.5469  0.0509
  373Sol     HW 4252   2.462   1.037   3.253 -0.5433  1.1587 -0.1251
  373Sol     HW 4253   2.464   1.050   3.103  0.3218  0.8190 -0.1423
  373Sol     MW 4254   2.511   1.048   3.179 -0.9137  0.3680  0.1239
  374Sol     OW 4255   2.574   1.250   9.125  0.1306 -0.1839 -0.2899
  374Sol     HW 4256   2.501   1.204   9.167  0.2869 -0.1806 -0.0081
  374Sol     HW 4257   2.645   1.185   9.122  0.3119 -0.0024 -0.0021
  374Sol     MW 4258   2.574   1.240   9.129 -0.5318 -0.2121  0.0146
  375Sol     OW 4259   1.435   1.387   3.716 -0.1883 -0.0923  0.6962
  375Sol     HW 4260   1.346   1.404   3.682 -0.1808  0.9837  1.1994
  375Sol     HW 4261   1.487   1.371   3.637 -0.6168  0.2911  0.3264
  375Sol     MW 4262   1.431   1.388   3.706 -0.1339 -0.2515 -0.1631
  376Sol     OW 4263   0.858   0.768   7.187  0.8367  0.4557  0.0421
  376Sol     HW 4264   0.922   0.788   7.255 -0.3103  0.4005  1.1740
  376Sol     HW 4265   0.784   0.825   7.206 -0.7889 -1.7934  0.8101
  376Sol     MW 4266   0.857   0.775   7.195  1.0480 -0.4860 -0.1685
  377Sol     OW 4267   1.682   2.400   6.432  0.0084  0.1504  0.4687
  377Sol     HW 4268   1.603   2.391   6.484 -1.0401  1.8048 -0.7995
  377Sol     HW 4269   1.666   2.475   6.376  0.8785 -1.8753 -2.6308
  377Sol     MW 4270   1.674   2.406   6.432 -0.2668  0.0281  0.0424
  378Sol     OW 4271   1.258   1.426   9.533  0.3679 -0.1229 -0.3832
  378Sol     HW 4272   1.175   1.394   9.498  1.3512 -0.6055 -2.3826
  378Sol     HW 4273   1.237   1.512   9.570 -0.9149  0.0343 -1.4224
  378Sol     MW 4274   1.249   1.431   9.533  0.9827  0.2841  0.8201
  379Sol     OW 4275   2.718   0.892   1.947 -0.1569  0.2949  0.5080
  379Sol     HW 4276   2.777   0.890   1.871 -1.3407  0.5161 -0.4382
  379Sol     HW 4277   2.682   0.980   1.947 -1.9425 -0.4189 -0.0676
  379Sol     MW 4278   2.720   0.899   1.940 -0.1871 -0.0099  0.1694
  380Sol     OW 4279   1.007   1.662   6.506  0.3300 -0.8560 -0.8634
  380Sol     HW 4280   0.987   1.639   6.596  1.1285  0.8027 -0.2458
  380Sol     HW 4281   1.016   1.578   6.461 -2.2953 -1.6766  0.0828
  380Sol     MW 4282   1.006   1.652   6.510 -0.0315 -0.5871  0.5730
  381Sol     OW 4283   2.845   0.102   9.801  0.0967 -0.0283 -0.0770
  381Sol     HW 4284   2.926   0.068   9.765  1.4232  2.0038  0.8773
  381Sol     HW 4285   2.801   0.026   9.839  2.0044 -0.9912  0.2445
  381Sol     MW 4286   2.848   0.092   9.801 -0.1536 -0.5586  0.4069
  382Sol     OW 4287   2.845   1.194   8.160  0.5599 -0.4279  0.2377
  382Sol     HW 4288   2.886   1.111   8.183  0.5057 -1.0631 -1.8354
  382Sol     HW 4289   2.815   1.231   8.243  2.0826 -1.6816  1.3573
  382Sol     MW 4290   2.846   1.190   8.169 -0.5259  0.0559 -0.4689
  383Sol     OW 4291   3.093   3.375   9.736  0.3665  0.3882  0.0295
  383Sol     HW 4292   3.058   3.381   9.648 -0.6576 -0.1802  0.3995
  383Sol     HW 4293   3.054   3.296   9.773  2.0845 -0.3182  0.4211
  383Sol     MW 4294   3.087   3.368   9.732  0.0221 -0.0988 -0.0413
  384Sol     OW 4295   1.854   1.266   9.944 -0.5585  0.2514 -0.8537
  384Sol     HW 4296   1.903   1.343   9.975  0.2744 -1.4254  2.2347
  384Sol     HW 4297   1.776   1.264  10.000 -0.9987 -0.6760 -1.4942
  384Sol     MW 4298   1.852   1.273   9.952  0.3926  0.0869  0.3802
  385Sol     OW 4299   2.591   0.346   6.318 -0.0696 -0.3707  0.0133
  385Sol     HW 4300   2.618   0.288   6.246  0.0907 -1.0391  0.6043
  385Sol     HW 4301   2.652   0.326   6.389 -0.0783  0.4579  0.2548
  385Sol     MW 4302   2.599   0.339   6.318 -0.4577  0.0548 -0.1873
  386Sol     OW 4303   2.204   2.200   5.701  0.2444 -0.2017  0.2402
  386Sol     HW 4304   2.290   2.207   5.742  0.2461  0.9557  0.0513
  386Sol     HW 4305   2.149   2.162   5.769  0.5817  0.3716  0.8470
  386Sol     MW 4306   2.207   2.197   5.711  0.2904  0.3901 -0.0552
  387Sol     OW 4307   3.021   1.265   5.802  0.1842  0.5678  0.6353
  387Sol     HW 4308   3.043   1.172   5.806 -0.3985  0.3651 -0.5292
  387Sol     HW 4309   3.105   1.309   5.792  0.8059  0.4577  4.6188
  387Sol     MW 4310   3.030   1.261   5.801 -0.1144  0.2180 -0.2083
  388Sol     OW 4311   2.086   3.338   4.152 -0.1737 -0.2885  0.0307
  388Sol     HW 4312   2.076   3.430   4.176  0.4815 -0.1871 -0.0863
  388Sol     HW 4313   2.033   3.328   4.072  2.2462  0.7335 -1.7401
  388Sol     MW 4314   2.080   3.345   4.147  0.7160  0.0142 -0.4600
  389Sol     OW 4315   2.731   2.102   5.086 -0.0934 -0.4460 -0.4744
  389Sol     HW 4316   2.816   2.067   5.060  0.7106  0.4359  0.8952
  389Sol     HW 4317   2.697   2.145   5.008  1.2281  0.1483 -0.7302
  389Sol     MW 4318   2.736   2.103   5.077  0.1416 -0.0567 -0.1418
  390Sol     OW 4319   2.732   0.146   2.590  0.0185 -0.1269  0.0502
  390Sol     HW 4320   2.727   0.140   2.494 -1.2916  0.5761  0.0567
  390Sol     HW 4321   2.760   0.236   2.606 -0.6743  0.0383  0.3411
  390Sol     MW 4322   2.734   0.154   2.583  0.5676  0.3953 -0.1480
  391Sol     OW 4323   1.219   0.937   3.876 -0.4063 -0.1559  0.2401
  391Sol     HW 4324   1.290   0.976   3.825 -0.9640 -1.1514 -1.3364
  391Sol     HW 4325   1.262   0.872   3.931  0.2913  1.4143  1.5654
  391Sol     MW 4326   1.229   0.934   3.876 -0.6705 -0.5614  0.3924
  392Sol     OW 4327   0.923   2.318   2.169 -0.0612  0.2538  0.1957
  392Sol     HW 4328   0.908   2.247   2.107  0.1047  0.9053 -0.5972
  392Sol     HW 4329   1.018   2.319   2.182  0.0611  1.0276 -0.6495
  392Sol     MW 4330   0.930   2.312   2.165  0.8150 -0.4591  0.2129
  393Sol     OW 4331   0.770   0.025  10.018  0.8091 -0.1299 -0.1466
  393Sol     HW 4332   0.784   0.045  10.110 -1.3987 -1.1244  0.4329
  393Sol     HW 4333   0.761   0.111   9.976 -0.2520  0.2948  0.9287
  393Sol     MW 4334   0.770   0.035  10.022 -0.3630 -0.0435  0.2042
  394Sol     OW 4335   1.929   1.376   1.992 -0.4388 -0.7331 -0.3497
  394Sol     HW 4336   1.848   1.335   2.021 -1.0882  0.0459 -1.0327
  394Sol     HW 4337   1.942   1.449   2.053  0.0687 -1.2076  0.1183
  394Sol     MW 4338   1.923   1.378   2.000 -0.1660  0.4569 -0.0541
  395Sol     OW 4339   1.137   2.829   3.442 -0.3554  0.3518 -0.0502
  395Sol     HW 4340   1.174   2.899   3.388  0.2923  1.1235  1.3555
  395Sol     HW 4341   1.211   2.772   3.461 -1.2222 -1.7573 -2.6701
  395Sol     MW 4342   1.147   2.830   3.439  0.5506 -0.9776  0.2472
  396Sol     OW 4343   0.526   0.610   4.416  0.0147  0.3900  0.2053
  396Sol     HW 4344   0.476   0.557   4.354  0.7199  0.2337 -0.2364
  396Sol     HW 4345   0.482   0.695   4.417 -1.4665 -0.3707  1.3440
  396Sol     MW 4346   0.518   0.613   4.411  0.7513  0.1818  0.2275
  397Sol     OW 4347   1.011   0.583   3.819 -0.5210  0.0121 -0.1607
  397Sol     HW 4348   1.034   0.490   3.807  1.4900  0.3681  0.6538
  397Sol     HW 4349   1.074   0.630   3.765 -0.2028  0.9925  1.0539
  397Sol     MW 4350   1.019   0.579   3.813  0.3818  0.3833 -0.5319
  398Sol     OW 4351   1.536   0.296   5.325  0.5787 -0.1199 -0.1422
  398Sol     HW 4352   1.455   0.343   5.308  0.1038 -1.0834 -0.5647
  398Sol     HW 4353   1.527   0.214   5.277  1.2889 -0.7614  0.8003
  398Sol     MW 4354   1.528   0.293   5.319 -0.5040 -0.1952  0.4442
  399Sol     OW 4355   2.963   0.619   2.060 -0.3700 -0.1865 -0.3867
  399Sol     HW 4356   3.012   0.668   1.994  0.7364 -0.5629  0.1260
  399Sol     HW 4357   3.031   0.574   2.111 -1.2899 -1.2597 -0.0739
  399Sol     MW 4358   2.974   0.619   2.059 -0.3771  0.8259  0.2646
  400Sol     OW 4359   1.960   0.297   3.903 -0.3643  0.2837 -0.0091
  400Sol     HW 4360   1.977   0.249   3.822  0.8017  2.1443 -0.8858
  400Sol     HW 4361   1.865   0.311   3.903 -0.3262  0.6311 -1.2693
  400Sol     MW 4362   1.953   0.294   3.896  0.2941  0.1542  0.1544
  401Sol     OW 4363   2.268   1.810   7.244  0.1299 -0.1330 -0.3538
  401Sol     HW 4364   2.229   1.723   7.242  3.4956 -1.7800  2.0811
  401Sol     HW 4365   2.319   1.815   7.163  1.7598 -1.3561  0.5752
  401Sol     MW 4366   2.269   1.803   7.236 -0.2066 -0.2530 -0.1791
  402Sol     OW 4367   0.640   0.185   4.011  0.2804  0.5472 -0.0002
  402Sol     HW 4368   0.672   0.240   4.083 -1.3970  1.1279  0.3292
  402Sol     HW 4369   0.572   0.238   3.970  1.1125  0.1494 -1.9230
  402Sol     MW 4370   0.637   0.195   4.014 -0.3868  0.1467 -0.1174
  403Sol     OW 4371   0.594   2.979   7.778 -0.1259 -0.1615  0.2876
  403Sol     HW 4372   0.573   3.034   7.854  1.5698  0.8066  0.0882
  403Sol     HW 4373   0.629   2.898   7.816 -0.8462 -0.3442  0.5629
  403Sol     MW 4374   0.595   2.977   7.788  0.0117  0.7249 -0.0855
  404Sol     OW 4375   2.680   2.883   5.121  0.0645  0.0530  0.1703
  404Sol     HW 4376   2.593   2.920   5.136 -0.3748 -1.3053  1.0690
  404Sol     HW 4377   2.723   2.946   5.062 -1.8550  0.2590 -1.0542
  404Sol     MW 4378   2.676   2.892   5.117  0.1019 -0.4573 -0.1653
  405Sol     OW 4379   1.540   2.037   9.251 -0.1141  0.2642 -0.0916
  405Sol     HW 4380   1.581   2.050   9.336  0.7256  1.3633 -0.6449
  405Sol     HW 4381   1.606   2.066   9.188  0.4370 -3.2198 -1.2751
  405Sol     MW 4382   1.550   2.040   9.253 -0.0994  0.4172 -0.5579
  406Sol     OW 4383   1.823   0.211   2.738  0.1862  0.1108  0.2029
  406Sol     HW 4384   1.843   0.290   2.787  4.2720 -0.4758 -0.3222
  406Sol     HW 4385   1.907   0.165   2.731 -1.3844 -2.5542 -2.5077
  406Sol     MW 4386   1.833   0.214   2.742  0.3788  0.2748 -0.0809
  407Sol     OW 4387   0.254   3.131  10.311 -0.1358  0.0002 -0.1452
  407Sol     HW 4388   0.307   3.052  10.302  0.1328  0.0498  0.9358
  407Sol     HW 4389   0.304   3.199  10.265  0.7954  0.0707  0.9589
  407Sol     MW 4390   0.263   3.130  10.306  0.0730  0.4341  0.5630
  408Sol     OW 4391   2.712   1.069   7.078  0.6246 -0.0489  0.7280
  408Sol     HW 4392   2.630   1.029   7.050  2.2442 -1.4885 -2.3052
  408Sol     HW 4393   2.747   1.009   7.144 -0.2084 -0.0151  1.2060
  408Sol     MW 4394   2.708   1.060   7.081 -0.0075  0.0254  0.0897
  409Sol     OW 4395   2.376   2.022   2.488  0.1390  0.4769  0.5400
  409Sol     HW 4396   2.456   2.053   2.530  0.2015  1.4623 -0.2966
  409Sol     HW 4397   2.305   2.057   2.542  0.2476  0.4850  0.6765
  409Sol     MW 4398   2.377   2.028   2.497 -0.3107  0.3860  0.0075
  410Sol     OW 4399   1.386   3.202   6.441  0.0652 -0.3016 -0.2651
  410Sol     HW 4400   1.325   3.250   6.386  1.3167  0.9902 -0.5449
  410Sol     HW 4401   1.368   3.234   6.530 -1.3795 -1.7759 -0.0036
  410Sol     MW 4402   1.379   3.209   6.444 -0.2804  0.5489  0.1866
  411Sol     OW 4403   2.185   3.183   9.731  0.4574  0.2781 -0.1204
  411Sol     HW 4404   2.120   3.230   9.784 -0.6835  0.9294 -2.0357
  411Sol     HW 4405   2.150   3.094   9.726  2.1570 -0.6119  2.7523
  411Sol     MW 4406   2.176   3.179   9.735 -0.0132 -0.3523 -0.1410
  412Sol     OW 4407   0.779   3.079   9.800  0.1715  0.4428 -0.0128
  412Sol     HW 4408   0.836   3.112   9.871 -0.1073  0.6854  0.1003
  412Sol     HW 4409   0.748   3.158   9.757  1.0088  0.2748 -0.9413
  412Sol     MW 4410   0.782   3.089   9.803  0.6621  0.3614 -0.2610
  413Sol     OW 4411   2.922   1.857   7.333 -0.7061  0.0514  0.0567
  413Sol     HW 4412   2.975   1.803   7.391  0.1688  0.7239 -0.1017
  413Sol     HW 4413   2.985   1.894   7.271 -1.2726  1.3273  0.2312
  413Sol     MW 4414   2.933   1.856   7.333  0.0615 -0.2919  0.1815
  414Sol     OW 4415   0.110   3.067   4.921 -0.5904  0.2787  0.3854
  414Sol     HW 4416   0.148   2.980   4.935 -1.8050 -0.3040  0.1390
  414Sol     HW 4417   0.087   3.069   4.828  0.0507  1.1177  0.2417
  414Sol     MW 4418   0.111   3.060   4.914  0.1755  0.0750 -0.7920
  415Sol     OW 4419   0.465   1.918   4.919  0.2613  0.1163 -0.1055
  415Sol     HW 4420   0.513   1.868   4.854 -1.1589 -1.3219 -0.0743
  415Sol     HW 4421   0.486   1.876   5.003 -0.3016  0.0674  0.0150
  415Sol     MW 4422   0.471   1.910   4.921  0.2324  0.8399  0.5267
  416Sol     OW 4423   2.213   0.250   2.963  0.2852 -0.3686 -0.0063
  416Sol     HW 4424   2.236   0.265   3.055 -2.5272 -0.0950  0.7079
  416Sol     HW 4425   2.181   0.335   2.932  2.2189 -0.1925 -1.5793
  416Sol     MW 4426   2.212   0.259   2.968  0.0698 -0.3401 -0.3072
  417Sol     OW 4427   1.445   2.293   2.043  0.2499  0.0614  0.3317
  417Sol     HW 4428   1.495   2.374   2.057  2.1009 -0.5952 -2.0688
  417Sol     HW 4429   1.511   2.224   2.049 -0.9693 -1.1015  0.3714
  417Sol     MW 4430   1.456   2.294   2.045 -0.0257 -0.3682 -0.3492
  418Sol     OW 4431   2.460   2.533   1.786 -1.0067 -0.2864  0.4773
  418Sol     HW 4432   2.502   2.479   1.719 -1.3217  1.0092 -0.7872
  418Sol     HW 4433   2.367   2.510   1.781 -0.9820 -0.4512  0.7317
  418Sol     MW 4434   2.456   2.526   1.780 -0.2812 -0.0316 -0.0952
  419Sol     OW 4435   1.268   0.742   7.567  0.8508  0.0360  0.1309
  419Sol     HW 4436   1.359   0.711   7.564  1.3554  1.2004  2.2231
  419Sol     HW 4437   1.239   0.720   7.656 -1.0539 -0.6389 -0.6284
  419Sol     MW 4438   1.274   0.737   7.575  0.3505 -0.1816  0.1257
  420Sol     OW 4439   1.417   2.578   4.430 -0.3810 -0.0576  0.3250
  420Sol     HW 4440   1.501   2.601   4.390  0.1697  0.6529  1.8594
  420Sol     HW 4441   1.429   2.488   4.460 -1.1255 -0.9384 -1.9465
  420Sol     MW 4442   1.426   2.572   4.429  1.2833 -0.5437 -0.3291
  421Sol     OW 4443   0.257   2.782   9.948  0.5342  0.5124  0.0063
  421Sol     HW 4444   0.313   2.781   9.870  0.2254  0.6112 -0.2147
  421Sol     HW 4445   0.317   2.803  10.020  0.5452  1.9370 -0.4163
  421Sol     MW 4446   0.268   2.783   9.947 -0.2111  0.3724 -0.7366
  422Sol     OW 4447   2.635   0.354   3.946 -0.1934 -0.4933 -0.1030
  422Sol     HW 4448   2.629   0.259   3.951 -0.4353 -0.5125 -0.7592
  422Sol     HW 4449   2.716   0.370   3.897 -0.7646 -0.3783 -1.0170
  422Sol     MW 4450   2.642   0.347   3.942  0.1539 -0.1841  0.5506
  423Sol     OW 4451   2.841   1.535   5.195 -0.1645  0.0568  0.5458
  423Sol     HW 4452   2.778   1.477   5.151  0.6648 -0.7372  0.3831
  423Sol     HW 4453   2.907   1.475   5.232  0.6756  0.8913  0.4201
  423Sol     MW 4454   2.841   1.524   5.194  0.1385 -0.3211 -0.1474
  424Sol     OW 4455   2.278   1.374   3.951 -1.0573  0.1283  0.0046
  424Sol     HW 4456   2.368   1.400   3.931 -1.2731  1.5908  0.8440
  424Sol     HW 4457   2.285   1.317   4.028 -0.8279 -0.0265 -0.1319
  424Sol     MW 4458   2.286   1.371   3.956 -0.0412  0.1577 -0.3000
  425Sol     OW 4459   2.056   1.511   8.433  0.4071  0.1190  0.0439
  425Sol     HW 4460   2.092   1.423   8.429 -1.3112 -0.6707  1.1397
  425Sol     HW 4461   2.131   1.569   8.421  1.5471 -1.4867 -0.7192
  425Sol     MW 4462   2.066   1.508   8.432  0.4644  0.2352  0.1460
  426Sol     OW 4463   2.053   2.790   5.194 -0.0071 -0.0035  0.1290
  426Sol     HW 4464   1.982   2.777   5.256  0.4614 -0.4849  0.5764
  426Sol     HW 4465   2.130   2.754   5.238  0.3432 -0.2887 -0.7055
  426Sol     MW 4466   2.054   2.786   5.203  0.0349 -0.1876 -0.1379
  427Sol     OW 4467   0.340   1.795   7.635  0.5729 -0.3547  0.0999
  427Sol     HW 4468   0.290   1.764   7.711  2.3489  1.2458  1.9616
  427Sol     HW 4469   0.275   1.842   7.582 -0.2221  0.4714  1.7707
  427Sol     MW 4470   0.329   1.797   7.637 -0.2274  0.1513 -0.2280
  428Sol     OW 4471   1.486   2.301   8.025  0.1229  0.1135 -0.2843
  428Sol     HW 4472   1.550   2.237   8.056  1.0512  1.4602  0.6048
  428Sol     HW 4473   1.537   2.381   8.010 -1.1304  0.8272 -0.7985
  428Sol     MW 4474   1.496   2.302   8.026 -0.1884 -0.5251  0.3638
  429Sol     OW 4475   1.320   2.708   5.159 -0.2729 -0.8855  0.4351
  429Sol     HW 4476   1.328   2.616   5.135 -0.3455 -0.3848 -1.6539
  429Sol     HW 4477   1.304   2.753   5.076 -3.5366  0.6301  1.7856
  429Sol     MW 4478   1.319   2.704   5.149  0.3319  0.7802  0.3866
  430Sol     OW 4479   0.109   0.696   6.952 -0.3449  0.3016  0.0855
  430Sol     HW 4480   0.022   0.697   6.991  0.7601  1.2263  2.6806
  430Sol     HW 4481   0.121   0.607   6.920 -1.2251 -0.5764  2.1335
  430Sol     MW 4482   0.102   0.688   6.953 -0.3575 -0.2850  0.8434
  431Sol     OW 4483   0.052   2.383   9.940 -0.2849  0.1241 -0.3296
  431Sol     HW 4484   0.123   2.412   9.997 -0.1151  0.6211 -0.7801
  431Sol     HW 4485  -0.021   2.366   9.998 -0.3262  1.2906 -0.0326
  431Sol     MW 4486   0.052   2.384   9.950 -0.2376 -0.8285  0.5149
  432Sol     OW 4487   2.621   3.305   4.949  0.5252 -0.4280  0.3944
  432Sol     HW 4488   2.641   3.248   5.023  2.2784 -1.6296 -0.9767
  432Sol     HW 4489   2.698   3.300   4.893 -1.7745 -1.6209 -2.8134
  432Sol     MW 4490   2.630   3.300   4.951 -0.0860  0.3496  0.3720
  433Sol     OW 4491   3.104   3.114   5.738 -0.7009 -0.4976  1.0355
  433Sol     HW 4492   3.060   3.135   5.820  1.0886 -0.0787  1.9270
  433Sol     HW 4493   3.083   3.187   5.680  0.5258  0.7823  2.1434
  433Sol     MW 4494   3.098   3.122   5.740 -0.1194 -0.5692  0.7579
  434Sol     OW 4495   2.093   1.320   3.172  0.2267  0.3633 -0.2263
  434Sol     HW 4496   2.183   1.353   3.160  0.4928  0.2703  1.4169
  434Sol     HW 4497   2.104   1.228   3.197 -0.0386  1.5443  4.7932
  434Sol     MW 4498   2.102   1.315   3.173 -0.9380  0.3208 -0.5581
  435Sol     OW 4499   2.297   1.334   5.755  0.2630  0.6461  0.1994
  435Sol     HW 4500   2.297   1.254   5.703 -0.9315  0.3585  0.6383
  435Sol     HW 4501   2.351   1.395   5.705  0.6784 -0.2298 -0.4367
  435Sol     MW 4502   2.302   1.332   5.746  0.2175 -0.1099  0.2070
  436Sol     OW 4503   0.080   2.816   2.920  0.4686 -0.1857  0.5415
  436Sol     HW 4504   0.171   2.832   2.894  0.7941 -0.8419  1.2723
  436Sol     HW 4505   0.075   2.721   2.931  0.3700  0.0831  2.9605
  436Sol     MW 4506   0.088   2.809   2.919 -0.0164  0.0815  0.8186
  437Sol     OW 4507   0.048   0.433   2.935  0.4934  0.8832  0.3484
  437Sol     HW 4508   0.077   0.501   2.995  1.7802 -0.6158  1.4648
  437Sol     HW 4509   0.018   0.362   2.991 -2.5605  1.2015 -0.7926
  437Sol     MW 4510   0.048   0.432   2.945  0.7115 -0.2045 -0.3027
  438Sol     OW 4511   1.752   0.271   2.015 -0.0708 -0.0449 -0.3725
  438Sol     HW 4512   1.758   0.240   1.925  2.8766 -2.9186  0.7074
  438Sol     HW 4513   1.825   0.331   2.025  0.2865 -0.5919  0.3941
  438Sol     MW 4514   1.759   0.273   2.008 -0.0788 -0.4038 -0.4119
  439Sol     OW 4515   1.418   1.556   5.136  0.2643  0.6703  0.1289
  439Sol     HW 4516   1.429   1.544   5.042  0.9572  0.1191  0.2730
  439Sol     HW 4517   1.387   1.470   5.167 -1.1250  1.1972  0.2329
  439Sol     MW 4518   1.416   1.547   5.131  0.6846 -0.0423  0.6286
  440Sol     OW 4519   2.384   1.002   3.802  0.1367 -0.4314  0.3846
  440Sol     HW 4520   2.317   0.948   3.845 -2.2381  2.0331 -0.0807
  440Sol     HW 4521   2.425   1.050   3.873 -1.9030  1.5776  0.2806
  440Sol     MW 4522   2.381   1.001   3.812  0.0122 -0.3548 -0.2357
  441Sol     OW 4523   0.709   0.795   2.308 -0.4566 -0.2604  0.1307
  441Sol     HW 4524   0.779   0.793   2.243 -2.2690 -1.0478 -1.8755
  441Sol     HW 4525   0.687   0.703   2.323 -0.2570 -0.0717  1.6586
  441Sol     MW 4526   0.713   0.787   2.303  0.4112  0.0506  0.2874
  442Sol     OW 4527   1.683   2.488   9.514  0.2248 -0.0862 -0.5755
  442Sol     HW 4528   1.751   2.428   9.544 -0.2133 -0.0412  0.5368
  442Sol     HW 4529   1.728   2.545   9.451  1.5663  0.8063  1.1254
  442Sol     MW 4530   1.694   2.488   9.511 -0.0775 -0.0665 -0.1888
  443Sol     OW 4531   1.330   2.856   5.383  0.6826 -0.0228 -0.2305
  443Sol     HW 4532   1.260   2.820   5.438  2.7585 -1.0809  1.8492
  443Sol     HW 4533   1.322   2.809   5.300 -0.0808 -1.2906  0.5453
  443Sol     MW 4534   1.323   2.848   5.381 -0.7236  0.1225  0.0691
  444Sol     OW 4535   0.847   0.385   5.026 -0.2101  0.0532  0.3133
  444Sol     HW 4536   0.811   0.434   4.952  3.3125  2.0258 -0.2426
  444Sol     HW 4537   0.848   0.447   5.098  2.1258  0.1526  0.2526
  444Sol     MW 4538   0.844   0.395   5.025  0.1146  0.2188  0.0638
  445Sol     OW 4539   1.523   3.133   9.455 -0.3319 -0.9814 -0.3715
  445Sol     HW 4540   1.532   3.075   9.531  0.5591 -0.8332 -0.3553
  445Sol     HW 4541   1.447   3.099   9.408 -1.6326 -0.3229  1.2263
  445Sol     MW 4542   1.517   3.125   9.458 -0.6500 -0.9009 -0.4555
  446Sol     OW 4543   0.708   0.192   1.328 -0.0026  0.2763  0.7264
  446Sol     HW 4544   0.774   0.220   1.265 -0.7571  1.3178  0.3865
  446Sol     HW 4545   0.755   0.135   1.389  0.9591  0.1078 -0.1623
  446Sol     MW 4546   0.718   0.189   1.328  0.3625 -0.0673 -0.9625
  447Sol     OW 4547   2.086   0.100   6.865 -0.2802  0.4529 -0.1548
  447Sol     HW 4548   2.082   0.175   6.805 -0.1026  0.6121  0.0302
  447Sol     HW 4549   2.165   0.052   6.838  0.3210  1.0409  0.5549
  447Sol     MW 4550   2.093   0.102   6.857 -0.1149  0.3990 -0.1157
  448Sol     OW 4551   2.987   2.047  10.283 -0.4181 -0.5941  0.1151
  448Sol     HW 4552   3.076   2.012  10.293  0.6169  1.7936 -0.4302
  448Sol     HW 4553   2.934   1.971  10.259  1.2810 -2.2377  1.3931
  448Sol     MW 4554   2.990   2.037  10.282  0.2302 -0.5356  0.3609
  449Sol     OW 4555   0.904   3.173   3.516  0.1494 -0.6240  0.1927
  449Sol     HW 4556   0.917   3.154   3.423 -1.2803 -0.8425  0.0171
  449Sol     HW 4557   0.985   3.216   3.544  0.3168  0.0965 -1.3291
  449Sol     MW 4558   0.912   3.175   3.510  0.4055 -0.2667  0.0698
  450Sol     OW 4559   3.038   2.547   9.696  0.3266 -0.0324  0.2977
  450Sol     HW 4560   2.993   2.481   9.643 -1.4926  1.0273  0.5008
  450Sol     HW 4561   3.044   2.508   9.783  1.1321 -0.7744 -0.0796
  450Sol     MW 4562   3.035   2.538   9.699  0.0276  0.1449  0.1346
  451Sol     OW 4563   0.594   0.598   2.744 -0.2620 -0.4161  0.1499
  451Sol     HW 4564   0.504   0.602   2.777 -0.3937  0.4536 -0.3077
  451Sol     HW 4565   0.614   0.687   2.716  0.3502 -0.8368 -0.8003
  451Sol     MW 4566   0.588   0.606   2.745  0.0265 -0.6343 -0.1258
  452Sol     OW 4567   2.440   2.198   1.813  0.0089 -0.4224 -0.0187
  452Sol     HW 4568   2.528   2.234   1.818  0.6054 -1.6249 -1.4392
  452Sol     HW 4569   2.424   2.160   1.899  1.7321 -2.0740 -0.3925
  452Sol     MW 4570   2.446   2.198   1.821  0.0511 -0.9054 -0.6222
  453Sol     OW 4571   1.767   0.458   8.830 -0.5478 -0.0402  0.4746
  453Sol     HW 4572   1.796   0.417   8.748  0.1401  1.9566 -0.3121
  453Sol     HW 4573   1.785   0.392   8.897  0.5775 -1.0158 -0.7476
  453Sol     MW 4574   1.772   0.449   8.829  0.8040  0.5563  0.4019
  454Sol     OW 4575   3.061   0.402   9.569  0.6694  0.0300 -0.0503
  454Sol     HW 4576   3.097   0.378   9.655  1.5747  1.8077  0.1034
  454Sol     HW 4577   2.992   0.465   9.589  0.2565 -0.2523 -0.5893
  454Sol     MW 4578   3.058   0.406   9.579  0.3303 -0.7446 -0.0399
  455Sol     OW 4579   1.062   0.296   3.812  0.4480  0.0245  0.2891
  455Sol     HW 4580   1.105   0.235   3.871  1.4494 -0.1932 -0.6657
  455Sol     HW 4581   0.985   0.248   3.781  0.4694 -0.2314  0.6237
  455Sol     MW 4582   1.059   0.286   3.815  0.1498  0.0652 -0.1326
  456Sol     OW 4583   0.915   2.497   1.612 -0.3333  0.7494  0.2597
  456Sol     HW 4584   0.909   2.454   1.527  4.1650 -0.5933  0.5040
  456Sol     HW 4585   0.903   2.427   1.676 -1.4731  1.3752  0.7517
  456Sol     MW 4586   0.914   2.487   1.610 -0.2624 -0.0483 -0.4196
  457Sol     OW 4587   2.716   1.969   7.809  0.0667  0.0334  0.1077
  457Sol     HW 4588   2.779   2.040   7.804 -2.7023  2.7076  1.7983
  457Sol     HW 4589   2.688   1.955   7.719  0.6747  1.0210 -0.2367
  457Sol     MW 4590   2.719   1.974   7.801 -0.1779 -0.4972  0.1479
  458Sol     OW 4591   0.246   0.117   7.253  0.6061 -0.2745 -0.6119
  458Sol     HW 4592   0.309   0.174   7.298  0.0339  0.7397 -1.0885
  458Sol     HW 4593   0.299   0.062   7.197  1.1039  0.2986 -0.7053
  458Sol     MW 4594   0.256   0.117   7.252  0.1058  0.5244  0.2373
  459Sol     OW 4595   3.062   2.081   3.452  0.0455  0.2475  0.5015
  459Sol     HW 4596   3.021   2.167   3.466 -1.6595 -0.4144 -0.3375
  459Sol     HW 4597   3.042   2.032   3.532 -2.2995 -0.6438 -0.6008
  459Sol     MW 4598   3.056   2.084   3.461  0.0172  0.8247 -0.3033
  460Sol     OW 4599   2.663   3.285   2.300  0.2632  0.2319 -0.1066
  460Sol     HW 4600   2.756   3.269   2.284  0.5267  2.3282 -0.8463
  460Sol     HW 4601   2.653   3.380   2.289 -1.8737  0.0887  0.4166
  460Sol     MW 4602   2.671   3.292   2.298  0.3392  0.0705 -0.5283
  461Sol     OW 4603   2.744   3.130   7.566  0.0094  0.1891  0.8820
  461Sol     HW 4604   2.704   3.060   7.616 -0.4195  0.8029  1.4097
  461Sol     HW 4605   2.704   3.124   7.479 -3.4446  2.5771  2.2018
  461Sol     MW 4606   2.737   3.123   7.562  0.3769 -0.2896  0.2073
  462Sol     OW 4607   0.653   2.322   5.635  0.4742 -0.0497 -0.3569
  462Sol     HW 4608   0.719   2.295   5.699  0.2528  0.4368  0.0906
  462Sol     HW 4609   0.572   2.281   5.665 -0.3618  2.9014  1.6667
  462Sol     MW 4610   0.652   2.316   5.644  0.2553 -0.3875  0.3277
  463Sol     OW 4611   1.627   2.366   7.045 -0.6935 -0.4449  0.5851
  463Sol     HW 4612   1.634   2.276   7.077 -0.7005 -0.1559  1.4117
  463Sol     HW 4613   1.533   2.382   7.036 -0.6630 -0.9957 -0.9629
  463Sol     MW 4614   1.619   2.359   7.047 -0.8417  0.2083 -0.3111
  464Sol     OW 4615   1.072   0.986   3.633  0.5844  0.0018  0.2587
  464Sol     HW 4616   1.149   1.028   3.594  0.9257 -1.0936 -0.2575
  464Sol     HW 4617   1.101   0.957   3.719  0.6582 -0.1209  0.1930
  464Sol     MW 4618   1.082   0.987   3.637 -0.1524  0.1347 -0.0134
  465Sol     OW 4619   2.519   0.205   6.980 -0.6126  0.0995 -0.4885
  465Sol     HW 4620   2.448   0.229   7.040  0.4230 -0.6664  1.0857
  465Sol     HW 4621   2.588   0.172   7.037  0.1301 -1.3355 -2.1730
  465Sol     MW 4622   2.519   0.204   6.991 -0.8234 -0.2755  0.2524
  466Sol     OW 4623   0.084   0.047   3.905 -0.3739  0.3315  0.4061
  466Sol     HW 4624   0.114   0.138   3.905 -0.5989  0.4056  0.4079
  466Sol     HW 4625   0.065   0.028   3.813  0.2118  0.1097  0.3315
  466Sol     MW 4626   0.085   0.053   3.896  0.0550  0.3562 -0.8830
  467Sol     OW 4627   2.466   0.129   9.818 -0.6844 -0.2248  0.0990
  467Sol     HW 4628   2.542   0.070   9.817 -0.1431  0.4601 -0.4273
  467Sol     HW 4629   2.436   0.128   9.909 -0.4591 -1.0379  0.1660
  467Sol     MW 4630   2.470   0.124   9.826  0.1472 -0.0226 -0.0787
  468Sol     OW 4631   2.254   1.168   3.631 -0.4980  0.2960 -0.2753
  468Sol     HW 4632   2.186   1.213   3.681 -0.0338  0.6738  0.0227
  468Sol     HW 4633   2.301   1.116   3.697 -1.0106 -0.6022 -0.6116
  468Sol     MW 4634   2.252   1.168   3.642  0.1334 -0.3270 -0.2030
  469Sol     OW 4635   1.267   0.029   7.586  0.1749  0.1599  0.6964
  469Sol     HW 4636   1.235   0.115   7.613 -0.3796  0.0404  0.4188
  469Sol     HW 4637   1.194  -0.030   7.602  0.8668 -0.4268  1.7651
  469Sol     MW 4638   1.258   0.032   7.590 -0.3465 -0.5276  0.6170
  470Sol     OW 4639   2.337   0.530   1.800  0.1059  0.2461 -0.6190
  470Sol     HW 4640   2.302   0.541   1.712 -2.4846  0.0252  0.3455
  470Sol     HW 4641   2.360   0.619   1.827  0.2407  0.4061 -1.2486
  470Sol     MW 4642   2.336   0.539   1.795 -0.2930 -0.0662  0.7261
  471Sol     OW 4643   0.248   0.486   2.000  0.4605 -0.4014  0.0853
  471Sol     HW 4644   0.212   0.404   2.035  0.8215 -0.2453  0.8250
  471Sol     HW 4645   0.218   0.488   1.909 -2.0361  0.0801  0.8851
  471Sol     MW 4646   0.242   0.478   1.995  0.4208 -0.2500 -0.2862
  472Sol     OW 4647   1.385   0.929   2.089 -0.4697  0.3198 -0.0643
  472Sol     HW 4648   1.456   0.877   2.124 -1.4002 -1.2349 -0.4301
  472Sol     HW 4649   1.411   0.949   1.999 -1.2156 -1.6358 -0.7262
  472Sol     MW 4650   1.393   0.926   2.084  0.8568 -0.1896  0.1138
  473Sol     OW 4651   2.090   2.790   9.292  0.1559  0.3678  0.0643
  473Sol     HW 4652   2.033   2.798   9.216 -1.6780 -0.8322  1.2846
  473Sol     HW 4653   2.117   2.698   9.292  0.8743  0.5736  0.3717
  473Sol     MW 4654   2.087   2.782   9.285 -0.2582 -0.5863 -0.1115
  474Sol     OW 4655   2.810   0.594   5.806  1.1690  0.0293  0.3130
  474Sol     HW 4656   2.794   0.648   5.728 -1.5863 -1.0226  0.0771
  474Sol     HW 4657   2.827   0.507   5.770 -2.7822 -1.0802  0.8510
  474Sol     MW 4658   2.810   0.591   5.795  0.3315 -0.1424  0.0695
  475Sol     OW 4659   0.319   0.588   3.344 -0.1568  0.1438  0.4140
  475Sol     HW 4660   0.412   0.563   3.347  0.0945  1.1044  0.6213
  475Sol     HW 4661   0.306   0.640   3.423 -1.0383 -0.5265  0.7211
  475Sol     MW 4662   0.326   0.590   3.352  0.6661 -0.6816  0.2268
  476Sol     OW 4663   2.599   1.955   1.700 -0.0522  0.0803  0.8239
  476Sol     HW 4664   2.536   2.023   1.725  0.4796  0.3738  1.3909
  476Sol     HW 4665   2.685   1.999   1.706  0.1439 -0.0452 -0.8344
  476Sol     MW 4666   2.601   1.965   1.703 -0.8385 -0.0271 -0.0581
  477Sol     OW 4667   1.706   2.929   3.927  0.4888  0.4249 -0.4057
  477Sol     HW 4668   1.630   2.938   3.870 -0.3107  0.1333  0.6120
  477Sol     HW 4669   1.766   2.997   3.897  0.2813 -0.0306 -1.9103
  477Sol     MW 4670   1.705   2.936   3.919  0.2424  0.4130 -0.2721
  478Sol     OW 4671   1.251   3.113   4.385 -0.0734  0.6047  0.1045
  478Sol     HW 4672   1.157   3.099   4.396  0.0395 -0.5147 -0.2250
  478Sol     HW 4673   1.287   3.024   4.375  0.9630  1.0463 -0.1427
  478Sol     MW 4674   1.246   3.103   4.385  0.1458 -0.4811  0.1234
  479Sol     OW 4675   2.067   1.452  10.023 -0.1939  0.1722  0.0244
  479Sol     HW 4676   2.154   1.418  10.045 -0.3924 -0.4824 -0.1916
  479Sol     HW 4677   2.027   1.472  10.107 -0.2461 -0.5538  0.1706
  479Sol     MW 4678   2.071   1.451  10.032  0.1389  0.1634 -0.3206
  480Sol     OW 4679   2.974   3.139  10.401  0.4693 -0.1371 -0.2282
  480Sol     HW 4680   3.013   3.164  10.317  0.5784  0.9033  0.1345
  480Sol     HW 4681   3.024   3.187  10.467  2.3903 -3.2705  0.7078
  480Sol     MW 4682   2.982   3.145  10.399 -0.3264  0.7953 -0.5086
  481Sol     OW 4683   0.400   2.672   5.019  0.2154  0.3987 -0.2654
  481Sol     HW 4684   0.465   2.609   5.049 -0.2272  0.6111  1.1856
  481Sol     HW 4685   0.414   2.749   5.075 -0.2756  1.0163 -0.9749
  481Sol     MW 4686   0.407   2.673   5.026 -0.6911  0.3947 -0.1517
  482Sol     OW 4687   1.326   2.571   3.238 -0.0441 -0.1435  0.8642
  482Sol     HW 4688   1.386   2.598   3.168 -1.7688  0.5983 -0.3815
  482Sol     HW 4689   1.244   2.554   3.193 -1.0396 -0.2093  2.6603
  482Sol     MW 4690   1.324   2.572   3.227 -0.1008  0.0671 -0.1326
  483Sol     OW 4691   2.107   0.215   2.191 -0.5192  0.2953  0.0755
  483Sol     HW 4692   2.132   0.261   2.111 -2.5715  0.3723 -0.5451
  483Sol     HW 4693   2.088   0.284   2.254 -0.8524  0.2675  0.0079
  483Sol     MW 4694   2.108   0.225   2.189 -0.7663  0.0460 -0.0498
  484Sol     OW 4695   1.773   0.069   8.761 -0.1660 -0.2835 -0.5092
  484Sol     HW 4696   1.681   0.085   8.740  0.3476  3.1794 -0.3705
  484Sol     HW 4697   1.805   0.016   8.687 -1.8109  0.0076 -1.4699
  484Sol     MW 4698   1.768   0.066   8.752 -0.2241  0.7819 -0.1005
  485Sol     OW 4699   0.547   1.996   4.290 -0.5147  0.1210  0.3126
  485Sol     HW 4700   0.544   2.091   4.304 -1.8496  0.3845 -1.4946
  485Sol     HW 4701   0.609   1.985   4.217 -1.6213 -0.2245 -0.5911
  485Sol     MW 4702   0.553   2.004   4.284  0.8663  0.2132 -0.1761
  486Sol     OW 4703   1.397   2.727   3.472 -0.1215 -0.4889 -0.3289
  486Sol     HW 4704   1.395   2.704   3.379  0.6247  0.2749 -0.5424
  486Sol     HW 4705   1.485   2.763   3.486 -0.7160  0.7429  0.3386
  486Sol     MW 4706   1.405   2.728   3.465  0.0331  0.2057  0.0973
  487Sol     OW 4707   0.152   3.245   1.866 -0.1207  0.5411  0.0521
  487Sol     HW 4708   0.147   3.292   1.783 -1.1362  0.9782  0.3576
  487Sol     HW 4709   0.118   3.306   1.931  1.2126  0.4132  0.8898
  487Sol     MW 4710   0.148   3.255   1.865  0.0135 -0.1890 -0.0310
  488Sol     OW 4711   0.354   0.356   6.544 -0.2975  0.2416 -0.2745
  488Sol     HW 4712   0.332   0.437   6.591 -1.0295 -0.0402 -0.1337
  488Sol     HW 4713   0.437   0.328   6.583 -0.3504  0.5985  0.1006
  488Sol     MW 4714   0.359   0.361   6.552  0.6056  0.0637 -0.4753
  489Sol     OW 4715   2.768   1.523   3.974 -0.3944 -0.4283 -0.2109
  489Sol     HW 4716   2.813   1.545   3.892  0.4511 -1.0240  0.0845
  489Sol     HW 4717   2.778   1.600   4.029 -1.8908  0.3901 -1.0470
  489Sol     MW 4718   2.773   1.532   3.971 -0.0905 -0.0837  0.2075
  490Sol     OW 4719   0.876   2.877   4.644  0.2043 -0.3811  0.2254
  490Sol     HW 4720   0.894   2.903   4.734 -1.3797 -0.9848  0.7339
  490Sol     HW 4721   0.936   2.804   4.628 -1.0588 -1.7657  1.5804
  490Sol     MW 4722   0.883   2.873   4.650 -0.2601 -0.2262 -0.4118
  491Sol     OW 4723   2.377   0.287   7.427 -0.8167 -0.0597  0.6404
  491Sol     HW 4724   2.293   0.298   7.470 -0.7264 -0.0787  0.8226
  491Sol     HW 4725   2.394   0.192   7.431 -0.7318 -0.0419  0.7098
  491Sol     MW 4726   2.371   0.279   7.431 -0.0971  0.2582  0.1035
  492Sol     OW 4727   2.825   0.603   6.090 -0.0613 -0.3099  0.0917
  492Sol     HW 4728   2.798   0.618   5.999 -0.3333 -0.7637  0.0925
  492Sol     HW 4729   2.870   0.683   6.116 -0.2447 -0.0633 -0.3495
  492Sol     MW 4730   2.827   0.612   6.084 -0.4224  0.5971 -0.0086
  493Sol     OW 4731   0.319   0.415   9.043 -0.2690  0.3733  0.3272
  493Sol     HW 4732   0.331   0.337   8.989 -3.2810 -0.4781  0.8005
  493Sol     HW 4733   0.355   0.486   8.991  2.6262 -1.3053 -0.0679
  493Sol     MW 4734   0.323   0.414   9.034 -0.3148 -0.3102 -0.4187
  494Sol     OW 4735   1.937   1.259   9.569  0.2250 -0.1466 -0.2604
  494Sol     HW 4736   1.861   1.220   9.612  0.1799 -1.6441 -1.6310
  494Sol     HW 4737   1.920   1.353   9.571  0.0008 -0.2129  2.5013
  494Sol     MW 4738   1.928   1.264   9.573  0.2222  0.2965 -0.4010
  495Sol     OW 4739   0.278   0.524   2.476  0.9327  0.2020  0.3210
  495Sol     HW 4740   0.328   0.515   2.395  0.8018 -2.1383  0.4659
  495Sol     HW 4741   0.301   0.447   2.527 -1.9460 -0.3609  0.8557
  495Sol     MW 4742   0.284   0.517   2.473  0.0924 -0.3165  0.1553
  496Sol     OW 4743   0.146   1.122   3.183 -0.1599  0.2536  0.0633
  496Sol     HW 4744   0.100   1.181   3.123 -1.6279 -1.7502 -0.8453
  496Sol     HW 4745   0.091   1.119   3.261  0.0773  0.3603  0.2325
  496Sol     MW 4746   0.137   1.127   3.185  0.0236  0.3627  0.0609
  497Sol     OW 4747   1.829   2.535   2.127 -0.3504  0.5390  0.1720
  497Sol     HW 4748   1.847   2.519   2.220 -1.7025  1.8034  0.6687
  497Sol     HW 4749   1.915   2.540   2.087  0.2467 -0.8787  1.1931
  497Sol     MW 4750   1.838   2.534   2.132 -0.6748 -0.1589 -0.2099
  498Sol     OW 4751   2.111   0.804   3.433  0.5845 -0.3843  0.7908
  498Sol     HW 4752   2.162   0.745   3.488  1.1641  1.1591  1.9426
  498Sol     HW 4753   2.096   0.755   3.352  0.5101 -2.3283  1.9553
  498Sol     MW 4754   2.114   0.794   3.430  0.5915 -0.4110  0.8011
  499Sol     OW 4755   1.105   1.235   5.697  0.4889  0.3840  0.2059
  499Sol     HW 4756   1.058   1.319   5.695  1.3631  0.8753 -2.1324
  499Sol     HW 4757   1.067   1.185   5.625  1.8905 -0.1278 -0.1917
  499Sol     MW 4758   1.097   1.238   5.690  0.2457  0.4038 -0.1392
  500Sol     OW 4759   0.857   0.701   6.915  0.0369  0.2796 -0.3675
  500Sol     HW 4760   0.866   0.715   7.009 -2.7447  0.8284 -0.1270
  500Sol     HW 4761   0.946   0.701   6.881  0.9976  1.2678  2.1029
  500Sol     MW 4762   0.866   0.702   6.920  0.6386  0.7547 -0.1781
  501Sol     OW 4763   2.638   0.020   2.899  0.0705 -0.0092  0.6225
  501Sol     HW 4764   2.568   0.085   2.901 -0.8196 -0.9716  1.7027
  501Sol     HW 4765   2.622  -0.029   2.819 -1.2196 -0.9849  1.4610
  501Sol     MW 4766   2.630   0.021   2.892  1.2196 -0.7336  0.0278
  502Sol     OW 4767   1.905   2.671   1.832 -0.0417 -0.0136  0.6888
  502Sol     HW 4768   1.820   2.628   1.829 -0.0553 -0.0331  1.3377
  502Sol     HW 4769   1.968   2.600   1.842 -0.0514  0.1058  1.5854
  502Sol     MW 4770   1.903   2.661   1.832  0.1003 -0.0703 -0.8952
  503Sol     OW 4771   1.550   1.042   9.398  0.0451  0.2557 -0.7446
  503Sol     HW 4772   1.638   1.049   9.360  0.5028 -1.8752 -0.1036
  503Sol     HW 4773   1.539   0.950   9.419 -2.4267  0.4469 -0.9510
  503Sol     MW 4774   1.557   1.035   9.396 -0.3086 -1.0328 -0.8700
  504Sol     OW 4775   3.070   1.281   2.995  0.6081  0.1073  0.4024
  504Sol     HW 4776   3.007   1.343   2.958  0.1771 -0.7774 -0.3693
  504Sol     HW 4777   3.138   1.336   3.033  1.2235  1.0365 -1.9803
  504Sol     MW 4778   3.070   1.292   2.995 -0.4146 -0.3038 -0.6039
  505Sol     OW 4779   0.137   2.666   5.224  0.0501 -0.3686 -0.2603
  505Sol     HW 4780   0.230   2.646   5.227  0.0275 -0.4504 -0.1129
  505Sol     HW 4781   0.104   2.642   5.311  0.1158  0.7248  0.0782
  505Sol     MW 4782   0.142   2.662   5.232 -0.3157 -0.6132  0.0429
  506Sol     OW 4783   0.367   1.525   4.989  0.1763  0.1732 -0.5416
  506Sol     HW 4784   0.388   1.609   4.949  0.2003 -0.2661 -1.4526
  506Sol     HW 4785   0.398   1.460   4.927  2.0104 -0.5499  1.0585
  506Sol     MW 4786   0.371   1.527   4.980  0.0514 -0.5898 -0.0357
  507Sol     OW 4787   2.845   3.401   8.936 -0.2727 -0.4424  0.0425
  507Sol     HW 4788   2.915   3.419   8.873 -0.4690 -0.5847 -0.2204
  507Sol     HW 4789   2.864   3.313   8.969 -0.7724 -0.8092 -0.6307
  507Sol     MW 4790   2.853   3.394   8.933  0.1620 -0.4424 -0.5113
  508Sol     OW 4791   2.443   2.481   5.091  0.1291  0.0952 -0.1296
  508Sol     HW 4792   2.392   2.558   5.066 -0.3342 -0.9358 -2.4624
  508Sol     HW 4793   2.532   2.501   5.063 -0.4962 -1.2976 -3.2984
  508Sol     MW 4794   2.446   2.490   5.086  0.6179  0.5569 -0.1966
  509Sol     OW 4795   2.849   1.490   9.863 -0.1876 -0.2521 -0.0990
  509Sol     HW 4796   2.920   1.428   9.847 -0.4342 -0.4244 -0.5583
  509Sol     HW 4797   2.888   1.576   9.847  0.2151 -0.2739  0.7674
  509Sol     MW 4798   2.859   1.493   9.860 -0.2555  0.1821  0.5692
  510Sol     OW 4799   1.188   2.859   3.726 -0.2663 -0.0372 -0.1199
  510Sol     HW 4800   1.145   2.880   3.643 -1.5180 -0.3528  0.4348
  510Sol     HW 4801   1.237   2.779   3.709 -1.7081 -0.9263 -0.1766
  510Sol     MW 4802   1.188   2.854   3.717  0.4702  0.3890  0.0225
  511Sol     OW 4803   0.467   0.590   1.871  0.7583  0.2547 -0.7101
  511Sol     HW 4804   0.440   0.670   1.826  0.4098 -0.2732 -1.4414
  511Sol     HW 4805   0.390   0.566   1.924  0.4695 -0.2012 -1.3344
  511Sol     MW 4806   0.457   0.595   1.872  0.5325 -0.0394 -0.1598
  512Sol     OW 4807   2.007   1.133   2.525 -0.3909  0.1533 -0.3870
  512Sol     HW 4808   2.025   1.047   2.486 -1.5471  0.7387 -2.2529
  512Sol     HW 4809   2.016   1.118   2.620  0.0067 -1.8780 -0.7218
  512Sol     MW 4810   2.009   1.124   2.530 -0.8158  0.1291  0.7799
  513Sol     OW 4811   0.107   1.083   8.175  0.0184  0.4397  0.2475
  513Sol     HW 4812   0.178   1.058   8.117  0.2619 -0.1394  0.7957
  513Sol     HW 4813   0.150   1.127   8.249 -0.2398  0.6320  0.2865
  513Sol     MW 4814   0.117   1.085   8.177  0.0610 -0.3422 -0.3329
  514Sol     OW 4815   1.490   1.946  10.068  0.0311  0.3684  0.0821
  514Sol     HW 4816   1.405   1.989  10.072  0.1327  0.5543  0.2674
  514Sol     HW 4817   1.503   1.924   9.975  0.0389  0.8541 -0.0294
  514Sol     MW 4818   1.484   1.948  10.060  0.0532  0.1060  0.4606
  515Sol     OW 4819   1.458   3.317   2.654 -0.0880  0.8905 -0.0817
  515Sol     HW 4820   1.368   3.345   2.667  0.0306  1.0019  0.5293
  515Sol     HW 4821   1.510   3.382   2.702  0.3385  1.0335 -0.7320
  515Sol     MW 4822   1.455   3.325   2.660 -0.2554 -0.2548 -0.5275
  516Sol     OW 4823   0.705   1.069   4.366 -0.0900 -0.2264 -0.7475
  516Sol     HW 4824   0.724   1.163   4.374  0.0221 -0.3579  0.6518
  516Sol     HW 4825   0.660   1.047   4.447 -0.6091 -1.2768 -1.3163
  516Sol     MW 4826   0.703   1.076   4.374 -0.8954 -0.4291 -0.3499
  517Sol     OW 4827   1.372   2.444   6.988  0.4763 -0.0946  0.3259
  517Sol     HW 4828   1.409   2.481   6.908 -1.8776  0.0774 -0.7153
  517Sol     HW 4829   1.334   2.519   7.033  0.4132 -0.4422  0.8559
  517Sol     MW 4830   1.372   2.454   6.985 -0.7926 -0.7327  0.3586
  518Sol     OW 4831   2.502   1.270   3.377 -0.7084 -0.6150  0.3374
  518Sol     HW 4832   2.596   1.253   3.385 -0.1648  0.5907 -2.8064
  518Sol     HW 4833   2.462   1.183   3.379  0.7223 -1.3199 -0.8023
  518Sol     MW 4834   2.507   1.260   3.378  0.4105  0.0632  0.3210
  519Sol     OW 4835   2.989   0.979   6.379  0.2626 -0.1202 -0.3566
  519Sol     HW 4836   3.028   0.926   6.448 -0.5750  1.2036  1.1662
  519Sol     HW 4837   2.993   0.923   6.301 -1.4323 -2.8187  1.3917
  519Sol     MW 4838   2.993   0.969   6.378  0.1687  0.5016 -0.3087
  520Sol     OW 4839   0.524   1.790   5.185  0.4264 -0.5013 -0.7799
  520Sol     HW 4840   0.500   1.704   5.220 -0.2707 -0.3731 -0.9382
  520Sol     HW 4841   0.620   1.790   5.187  0.4359 -1.3460 -0.9422
  520Sol     MW 4842   0.531   1.782   5.189 -0.7851 -0.3017  0.7897
  521Sol     OW 4843   0.244   2.441   6.669 -0.2054 -0.3626 -0.1898
  521Sol     HW 4844   0.250   2.517   6.610 -0.8423 -0.6769 -0.6692
  521Sol     HW 4845   0.262   2.477   6.756 -0.2875  0.3003 -0.4397
  521Sol     MW 4846   0.246   2.451   6.671  0.2502 -0.3538  0.4098
  522Sol     OW 4847   1.793   1.863   4.308 -0.2785  0.0368 -0.3109
  522Sol     HW 4848   1.812   1.772   4.283 -1.3186  0.2423 -1.9472
  522Sol     HW 4849   1.699   1.863   4.328 -0.5997  1.0140 -1.7022
  522Sol     MW 4850   1.786   1.855   4.307  0.0854  0.1067 -0.6407
  523Sol     OW 4851   1.615   1.628   6.151  0.0469 -0.3890 -0.0847
  523Sol     HW 4852   1.674   1.676   6.209 -0.1349 -1.0277  0.6480
  523Sol     HW 4853   1.642   1.537   6.160 -0.1222 -0.5132 -0.8484
  523Sol     MW 4854   1.622   1.624   6.157 -0.0787  0.5564 -0.4447
  524Sol     OW 4855   1.328   1.166   6.174 -0.3324 -0.1298 -0.0906
  524Sol     HW 4856   1.394   1.221   6.133 -2.3718  2.1040 -0.4593
  524Sol     HW 4857   1.253   1.170   6.115 -1.4471 -1.1599  1.2102
  524Sol     MW 4858   1.327   1.171   6.165  0.1057 -0.1509  0.3481
  525Sol     OW 4859   3.069   2.359   5.260  0.1188  0.3780 -0.0597
  525Sol     HW 4860   3.112   2.374   5.176 -1.0151  0.5674 -0.6219
  525Sol     HW 4861   3.126   2.299   5.306  0.6235  0.0691 -1.0808
  525Sol     MW 4862   3.078   2.355   5.257  0.2662  0.3609  0.0602
  526Sol     OW 4863   1.974   0.413   2.398  0.2390 -0.1036 -0.2809
  526Sol     HW 4864   1.909   0.343   2.396 -0.9014  0.9628 -1.8021
  526Sol     HW 4865   1.925   0.491   2.424  1.4199  0.2321  1.0275
  526Sol     MW 4866   1.964   0.414   2.400  0.0124 -0.1753  0.4495
  527Sol     OW 4867   0.803   1.964   7.693 -0.4490  0.1356  0.5654
  527Sol     HW 4868   0.843   1.909   7.626 -2.3381 -0.5972 -0.0095
  527Sol     HW 4869   0.804   2.052   7.657 -1.1795 -0.2057 -0.3154
  527Sol     MW 4870   0.806   1.967   7.684 -0.2027  0.1480  0.2321
  528Sol     OW 4871   0.590   2.125   3.275  0.7310  0.6848 -0.1078
  528Sol     HW 4872   0.604   2.121   3.369  0.6413 -0.6390 -0.1341
  528Sol     HW 4873   0.526   2.195   3.262  1.3904  1.4427  0.7321
  528Sol     MW 4874   0.586   2.131   3.282 -0.2713  0.1775  0.0736
  529Sol     OW 4875   0.341   2.781   1.344 -0.0841 -0.1923 -0.0852
  529Sol     HW 4876   0.401   2.712   1.372 -0.0359  0.1630  0.6687
  529Sol     HW 4877   0.389   2.862   1.359 -0.9198  0.1139  0.9283
  529Sol     MW 4878   0.351   2.782   1.348  0.5430 -0.3122 -0.6314
  530Sol     OW 4879   2.679   2.749   6.703  0.1599 -0.2807  0.0044
  530Sol     HW 4880   2.711   2.803   6.630 -0.9228  2.4930  1.5065
  530Sol     HW 4881   2.736   2.771   6.776  0.2633 -1.8852  0.4195
  530Sol     MW 4882   2.687   2.756   6.703  0.5083  0.1819 -0.3053
  531Sol     OW 4883   0.504   2.678   2.518  0.5945 -0.2527 -0.5518
  531Sol     HW 4884   0.466   2.590   2.517 -0.7221  0.2909  0.3186
  531Sol     HW 4885   0.502   2.704   2.610  1.2151  0.5868 -0.7706
  531Sol     MW 4886   0.500   2.672   2.526 -0.4912  0.0718 -0.2920
  532Sol     OW 4887   1.144   1.152   5.965  0.1664  0.1569 -0.0188
  532Sol     HW 4888   1.120   1.200   5.886 -1.0198  1.2083  0.9395
  532Sol     HW 4889   1.061   1.120   6.000  0.5352  0.7406  1.4358
  532Sol     MW 4890   1.134   1.154   5.961  0.1861  0.5341 -0.0614
  533Sol     OW 4891   1.616   2.041   8.373  0.0325  0.2865  0.2808
  533Sol     HW 4892   1.657   2.080   8.451 -0.6562  1.6384 -0.0240
  533Sol     HW 4893   1.560   1.972   8.407 -0.6406  1.1947  1.0291
  533Sol     MW 4894   1.615   2.038   8.383 -0.2909  0.2235  0.3504
  534Sol     OW 4895   0.208   2.846   6.668 -0.0975 -0.4610  0.1064
  534Sol     HW 4896   0.147   2.920   6.674 -0.3023 -0.7207  1.4068
  534Sol     HW 4897   0.228   2.824   6.759  0.2440 -1.7742 -0.2690
  534Sol     MW 4898   0.204   2.851   6.677  0.1175  0.7086  0.8129
  535Sol     OW 4899   0.621   0.840   6.298 -0.0054  0.3629 -0.4107
  535Sol     HW 4900   0.611   0.745   6.286 -1.0925  0.3380  0.5805
  535Sol     HW 4901   0.611   0.853   6.392  1.6684  1.3030 -0.3552
  535Sol     MW 4902   0.619   0.832   6.305 -0.4959  0.5785 -0.1888
  536Sol     OW 4903   0.925   3.021   2.143 -0.4521 -0.7877  0.0042
  536Sol     HW 4904   0.908   2.973   2.062 -2.0035 -0.8533  0.3459
  536Sol     HW 4905   1.009   3.064   2.129 -0.7746 -0.6922 -1.6870
  536Sol     MW 4906   0.931   3.021   2.135  0.1405 -0.6842 -0.2341
  537Sol     OW 4907   1.627   0.471   3.578  0.3955  0.1132  0.2418
  537Sol     HW 4908   1.681   0.550   3.578  1.3922 -0.5467 -0.7120
  537Sol     HW 4909   1.686   0.401   3.550 -0.9866 -0.5973 -1.0269
  537Sol     MW 4910   1.637   0.471   3.575 -0.0514 -0.5249  0.7747
  538Sol     OW 4911   1.493   2.348   9.136 -0.3404  0.4013 -0.3685
  538Sol     HW 4912   1.558   2.278   9.137  0.8847  1.4869 -1.6965
  538Sol     HW 4913   1.470   2.360   9.229 -0.1469 -1.3525 -0.0838
  538Sol     MW 4914   1.497   2.343   9.145 -1.0469 -0.3721 -0.2957
  539Sol     OW 4915   2.150   1.484   3.606  0.0618 -0.3426 -0.2016
  539Sol     HW 4916   2.135   1.577   3.624  0.0755 -0.2010 -0.9116
  539Sol     HW 4917   2.145   1.477   3.510  0.2010 -1.0473 -0.1581
  539Sol     MW 4918   2.148   1.492   3.599  0.1819  0.2199  0.4279
  540Sol     OW 4919   1.391   3.307   7.392 -0.4529  0.6680  0.3512
  540Sol     HW 4920   1.483   3.302   7.417 -0.8444 -1.0063  1.5783
  540Sol     HW 4921   1.349   3.354   7.464 -0.8388 -0.1706  0.6870
  540Sol     MW 4922   1.396   3.311   7.401  0.2550  0.3226  0.5650
  541Sol     OW 4923   2.165   0.527   4.206 -0.0797  0.4545  0.0548
  541Sol     HW 4924   2.075   0.497   4.215 -0.3265  0.3616 -2.5657
  541Sol     HW 4925   2.193   0.497   4.120  2.1519  1.2835  0.4473
  541Sol     MW 4926   2.160   0.522   4.199  0.1183  0.4841 -0.6054
  542Sol     OW 4927   0.824   1.288   8.917  0.1062 -0.0550 -0.8119
  542Sol     HW 4928   0.906   1.325   8.950 -1.1649  0.5343  1.8759
  542Sol     HW 4929   0.806   1.336   8.837  1.6975  0.7674 -0.6918
  542Sol     MW 4930   0.830   1.295   8.913 -0.5456 -0.5751 -0.2919
  543Sol     OW 4931   2.714   1.448   6.217 -0.3454  0.1964  0.4294
  543Sol     HW 4932   2.760   1.470   6.136 -2.5621  1.6779 -0.5000
  543Sol     HW 4933   2.695   1.354   6.209 -0.7755  0.3882 -0.9282
  543Sol     MW 4934   2.716   1.442   6.209  0.0963  0.5695  0.0671
  544Sol     OW 4935   1.277   2.111   1.670  0.1965 -0.3503 -0.4789
  544Sol     HW 4936   1.341   2.071   1.612 -0.2848 -0.0030 -1.2647
  544Sol     HW 4937   1.192   2.089   1.632 -0.1384 -0.2729  0.1970
  544Sol     MW 4938   1.275   2.106   1.662  0.0469  0.3127 -0.1501
  545Sol     OW 4939   1.224   1.939   5.802 -0.0353  0.6303  0.0588
  545Sol     HW 4940   1.298   1.878   5.811 -1.3159 -0.8972  0.4974
  545Sol     HW 4941   1.165   1.897   5.741 -0.7147  1.6891 -0.0287
  545Sol     MW 4942   1.226   1.930   5.798  0.0481  0.5467 -0.8932
  546Sol     OW 4943   1.364   1.578   8.678  0.1793 -0.5745  0.3532
  546Sol     HW 4944   1.315   1.651   8.715 -0.6943 -0.1927 -1.4980
  546Sol     HW 4945   1.454   1.610   8.673 -0.1896  0.3531 -0.3975
  546Sol     MW 4946   1.368   1.588   8.681  0.0105 -0.1025  0.2208
  547Sol     OW 4947   3.057   2.647   1.649  0.1393  0.7723  0.5006
  547Sol     HW 4948   3.113   2.690   1.585 -1.4498 -0.1775 -1.6034
  547Sol     HW 4949   3.047   2.711   1.720  0.9740  2.3168 -0.7508
  547Sol     MW 4950   3.061   2.656   1.650 -0.4248 -0.2404  0.6154
  548Sol     OW 4951   1.391   0.435   7.832 -0.1320 -0.2975  0.0077
  548Sol     HW 4952   1.401   0.412   7.739  2.0200  0.1673  0.0929
  548Sol     HW 4953   1.332   0.369   7.867 -0.4100 -0.8973 -1.5390
  548Sol     MW 4954   1.387   0.427   7.827  0.2974  0.6588  0.1034
  549Sol     OW 4955   2.050   0.793   2.764 -0.1963  0.7649 -0.0520
  549Sol     HW 4956   1.969   0.743   2.762 -0.0259  0.2865  2.3915
  549Sol     HW 4957   2.022   0.882   2.784 -0.2855  1.0706 -1.5247
  549Sol     MW 4958   2.040   0.796   2.766 -0.4421 -0.0239 -0.2700
  550Sol     OW 4959   1.758   1.506   4.441 -0.9477  0.1722 -0.1509
  550Sol     HW 4960   1.822   1.559   4.393 -0.5384  0.5236  0.7760
  550Sol     HW 4961   1.805   1.427   4.465 -0.7989  0.5216  0.7118
  550Sol     MW 4962   1.768   1.504   4.439  0.1822 -0.0023 -0.0684
  551Sol     OW 4963   1.283   1.900   4.809 -0.6104  0.3781  0.1404
  551Sol     HW 4964   1.310   1.991   4.820  1.5388  0.0637 -2.1721
  551Sol     HW 4965   1.292   1.862   4.897  3.3007  1.1685  0.1586
  551Sol     MW 4966   1.286   1.905   4.818  0.2005 -0.5915  0.2845
  552Sol     OW 4967   2.494   0.662   6.027  0.2926 -0.5410  0.2724
  552Sol     HW 4968   2.518   0.582   5.980 -0.6401 -0.7360  0.1128
  552Sol     HW 4969   2.538   0.732   5.979  0.0626 -0.8301 -0.3696
  552Sol     MW 4970   2.500   0.661   6.019 -0.4311  0.2371  0.0675
  553Sol     OW 4971   1.001   0.019  10.470 -0.2631  0.3566  0.3505
  553Sol     HW 4972   1.058  -0.005  10.397 -0.2575  0.5400  0.2934
  553Sol     HW 4973   0.933   0.074  10.430  0.7602  1.9712  0.7667
  553Sol     MW 4974   1.000   0.022  10.460  0.4352 -0.0442 -0.2945
  554Sol     OW 4975   0.338   0.546   7.277  0.4954  0.7305  0.0218
  554Sol     HW 4976   0.288   0.476   7.234  0.5034 -0.2663  1.5763
  554Sol     HW 4977   0.272   0.610   7.304  0.2986  0.5301  0.0213
  554Sol     MW 4978   0.327   0.545   7.276  0.4124 -0.1753 -0.5684
  555Sol     OW 4979   0.896   2.958   6.124 -0.1963  0.7373 -0.8649
  555Sol     HW 4980   0.820   2.902   6.107 -0.9779  1.5244  0.0202
  555Sol     HW 4981   0.859   3.044   6.143  0.7944  0.6518  1.6844
  555Sol     MW 4982   0.886   2.960   6.124  0.3539 -0.4384 -0.3139
  556Sol     OW 4983   2.976   1.319   5.281 -0.9401 -0.2216 -0.2169
  556Sol     HW 4984   2.952   1.227   5.274 -0.0951 -0.4163 -0.5764
  556Sol     HW 4985   3.012   1.328   5.369 -2.2952  0.0709  0.3242
  556Sol     MW 4986   2.977   1.312   5.289  0.1251  0.7401 -0.4006
  557Sol     OW 4987   0.659   2.286   8.762  0.3275  0.5183 -0.7303
  557Sol     HW 4988   0.732   2.253   8.814 -0.6425 -0.5601 -0.0308
  557Sol     HW 4989   0.632   2.366   8.806 -2.3099 -1.8243  2.1712
  557Sol     MW 4990   0.663   2.290   8.770 -0.1888 -0.6269  0.5136
  558Sol     OW 4991   0.295   2.910   8.659 -1.3226  0.2580  0.0809
  558Sol     HW 4992   0.292   2.848   8.732 -4.8163 -0.5198 -0.6380
  558Sol     HW 4993   0.213   2.960   8.667  0.4577  3.4258 -0.5467
  558Sol     MW 4994   0.287   2.909   8.667  0.6729 -0.2528 -0.0058
  559Sol     OW 4995   1.962   0.433   5.102  0.4524  0.5169 -0.0407
  559Sol     HW 4996   2.021   0.502   5.132  1.1782  0.5372 -1.4728
  559Sol     HW 4997   1.911   0.474   5.032 -1.1548  0.4458  1.0522
  559Sol     MW 4998   1.963   0.443   5.098 -0.8648  0.0201  0.8527
  560Sol     OW 4999   2.933   2.736   3.654 -0.6145  0.2433  0.0881
  560Sol     HW 5000   2.900   2.680   3.724 -2.6888 -0.7926 -1.6572
  560Sol     HW 5001   2.877   2.715   3.579  2.1976  0.5689 -2.1693
  560Sol     MW 5002   2.925   2.729   3.653 -0.6088 -0.5857 -0.3524
  561Sol     OW 5003   2.279   2.278   9.244 -0.1754  0.4522  0.2801
  561Sol     HW 5004   2.349   2.232   9.291 -0.4815  0.8596  1.1376
  561Sol     HW 5005   2.319   2.303   9.161 -0.3272 -2.4006 -0.7388
  561Sol     MW 5006   2.289   2.276   9.241 -0.3211  0.2508  0.5408
  562Sol     OW 5007   1.338   2.338   9.646 -0.6856 -0.0836 -0.2203
  562Sol     HW 5008   1.352   2.419   9.696 -0.4483  0.5322 -1.2657
  562Sol     HW 5009   1.399   2.345   9.573 -1.2721 -0.8240 -0.7807
  562Sol     MW 5010   1.345   2.346   9.644  0.4830  0.1004 -0.1683
  563Sol     OW 5011   2.747   1.725   2.167 -0.7056  0.0526  0.3131
  563Sol     HW 5012   2.768   1.675   2.246 -0.5002 -1.7731 -0.8651
  563Sol     HW 5013   2.832   1.751   2.131 -0.5248 -2.8739 -1.6224
  563Sol     MW 5014   2.756   1.722   2.171  0.2632  0.1205 -0.4596
  564Sol     OW 5015   2.014   3.083   8.621 -0.3762  0.0763 -0.6086
  564Sol     HW 5016   2.100   3.082   8.579 -0.8617 -2.1951 -1.6108
  564Sol     HW 5017   2.031   3.055   8.711 -0.1106 -0.7051 -0.9004
  564Sol     MW 5018   2.023   3.080   8.626  0.2169  0.2830 -0.0489
  565Sol     OW 5019   0.696   0.451   4.187 -0.5995  0.2471 -0.1217
  565Sol     HW 5020   0.606   0.480   4.171 -0.2975  0.7120 -1.0400
  565Sol     HW 5021   0.750   0.519   4.147  0.1438 -0.7878 -0.9151
  565Sol     MW 5022   0.693   0.460   4.182 -0.3016  0.3800  0.2131
  566Sol     OW 5023   2.243   0.765   9.766 -0.2031 -0.1903  0.1604
  566Sol     HW 5024   2.299   0.823   9.716 -0.4776 -0.6218 -0.6610
  566Sol     HW 5025   2.191   0.718   9.700 -1.2728 -0.0521  0.8844
  566Sol     MW 5026   2.243   0.766   9.756  0.4672  0.5636 -0.0372
  567Sol     OW 5027   2.545   2.670   8.103  0.2781 -0.4402 -0.0288
  567Sol     HW 5028   2.631   2.709   8.119  0.3706 -1.7332  2.9981
  567Sol     HW 5029   2.486   2.744   8.093  1.5008  0.4532 -0.7254
  567Sol     MW 5030   2.548   2.680   8.104  0.0882 -0.6169 -0.1875
  568Sol     OW 5031   3.101   0.206   1.750  0.2666  0.7810 -0.0089
  568Sol     HW 5032   3.039   0.219   1.822 -0.3991 -0.6482 -0.3145
  568Sol     HW 5033   3.063   0.136   1.698  1.7881  0.3964 -0.6205
  568Sol     MW 5034   3.092   0.201   1.752  0.9170  0.3528 -0.2557
  569Sol     OW 5035   3.094   2.788   8.544 -0.3238  0.8597  0.0203
  569Sol     HW 5036   3.006   2.764   8.515 -0.1775  0.4238 -0.0692
  569Sol     HW 5037   3.152   2.732   8.492 -0.0308  0.5252  0.6959
  569Sol     MW 5038   3.092   2.781   8.537  0.5356 -0.6914  0.5170
  570Sol     OW 5039   2.519   1.432   8.527 -0.3870  0.4311  0.3669
  570Sol     HW 5040   2.600   1.387   8.502 -0.2021 -0.4910  2.4622
  570Sol     HW 5041   2.542   1.524   8.529  0.4213  0.2373  0.2389
  570Sol     MW 5042   2.529   1.436   8.525 -0.0268  0.0609  0.1032
  571Sol     OW 5043   0.722   1.103   8.290  0.1807 -0.0255 -0.1931
  571Sol     HW 5044   0.682   1.187   8.313 -1.5189 -1.3987  1.9772
  571Sol     HW 5045   0.652   1.055   8.245  0.5009 -1.0400  0.3751
  571Sol     MW 5046   0.712   1.107   8.288  0.1923  0.3585 -0.0594
  572Sol     OW 5047   2.270   0.652   3.587  0.1723 -0.1091  0.3181
  572Sol     HW 5048   2.288   0.570   3.541  1.3006 -0.7180  1.8085
  572Sol     HW 5049   2.352   0.701   3.582  0.5076 -0.4372  2.1525
  572Sol     MW 5050   2.279   0.649   3.582  0.1971  0.2673 -0.0542
  573Sol     OW 5051   1.911   0.403   4.314 -0.0093  0.1690  0.3108
  573Sol     HW 5052   1.822   0.438   4.316  1.1890  3.4944 -1.0811
  573Sol     HW 5053   1.950   0.431   4.397  0.4877  0.7972 -0.1343
  573Sol     MW 5054   1.906   0.408   4.322 -0.4821 -0.5426 -0.6945
  574Sol     OW 5055   0.152   2.856   7.703 -0.3161 -0.3444  0.1228
  574Sol     HW 5056   0.242   2.846   7.671 -1.2726  0.5302 -2.9572
  574Sol     HW 5057   0.157   2.927   7.766  0.4923  2.4825 -3.0157
  574Sol     MW 5058   0.161   2.861   7.706  0.2417  0.3326 -0.0238
  575Sol     OW 5059   0.083   1.734   5.627 -0.0265  0.0495  0.2693
  575Sol     HW 5060  -0.008   1.705   5.631  0.1867 -0.5677  0.8553
  575Sol     HW 5061   0.120   1.708   5.712  0.2747  1.7037  0.6545
  575Sol     MW 5062   0.078   1.729   5.635  0.0879  0.4195  0.0563
  576Sol     OW 5063   3.100   2.754   3.957  0.0893 -0.2509 -0.2765
  576Sol     HW 5064   3.148   2.747   3.875  0.8788  2.1591 -0.0697
  576Sol     HW 5065   3.113   2.845   3.984 -1.3385 -0.6337  1.7916
  576Sol     MW 5066   3.105   2.762   3.952 -0.5622  0.4470 -0.1476
  577Sol     OW 5067   2.836   1.310   1.935  0.3405 -0.1489 -0.6003
  577Sol     HW 5068   2.790   1.393   1.933 -0.4926 -0.5273  1.6144
  577Sol     HW 5069   2.768   1.244   1.948  1.3538 -0.7984  1.6641
  577Sol     MW 5070   2.826   1.312   1.936 -0.1108 -0.4995 -0.3664
  578Sol     OW 5071   2.045   1.178   4.949  0.0216  0.2161 -0.3492
  578Sol     HW 5072   2.099   1.255   4.933  1.0651 -0.6293 -0.9948
  578Sol     HW 5073   2.096   1.105   4.913 -1.5184 -0.6151 -0.9228
  578Sol     MW 5074   2.054   1.178   4.944 -0.1853  0.1677 -0.1299
  579Sol     OW 5075   2.376   1.314   6.928  0.0937 -0.0562 -0.2087
  579Sol     HW 5076   2.346   1.223   6.919 -0.8527  0.2496 -0.1802
  579Sol     HW 5077   2.438   1.326   6.856 -0.3220 -0.5058 -0.6407
  579Sol     MW 5078   2.379   1.307   6.921  0.3746  0.0141 -0.0749
  580Sol     OW 5079   0.158   0.666   3.112  0.7304  0.3353  0.4262
  580Sol     HW 5080   0.073   0.701   3.140  0.1119  0.1482 -1.1832
  580Sol     HW 5081   0.203   0.646   3.194 -0.4051  1.3183  1.3122
  580Sol     MW 5082   0.154   0.667   3.122  0.2315 -0.8300 -0.7820
  581Sol     OW 5083   2.485   0.410  10.084  0.0763  0.1363 -0.1140
  581Sol     HW 5084   2.468   0.320  10.056 -0.8881 -0.0936  1.1499
  581Sol     HW 5085   2.409   0.433  10.137  0.9390  1.2299  0.6665
  581Sol     MW 5086   2.476   0.404  10.086  0.3645 -0.1214 -0.7478
  582Sol     OW 5087   2.686   2.075   6.899 -0.0768 -0.3485  0.6740
  582Sol     HW 5088   2.771   2.102   6.933 -0.3105  0.6621  0.4884
  582Sol     HW 5089   2.624   2.135   6.941 -0.4965  0.1176 -0.5829
  582Sol     MW 5090   2.688   2.083   6.906  0.1075 -0.1189 -0.4586
  583Sol     OW 5091   2.365   1.526  10.583 -0.0742 -0.1543 -0.2627
  583Sol     HW 5092   2.302   1.590  10.551 -2.3754 -1.9270  0.5470
  583Sol     HW 5093   2.333   1.442  10.548  0.4795 -1.3859  2.1276
  583Sol     MW 5094   2.357   1.524  10.577  0.2361  0.3860 -0.6473
  584Sol     OW 5095   2.680   2.355   8.900  0.1260 -0.0092 -0.4298
  584Sol     HW 5096   2.761   2.360   8.951 -0.1265  1.7403 -0.1827
  584Sol     HW 5097   2.681   2.434   8.846 -2.0635  0.7176  0.5562
  584Sol     MW 5098   2.687   2.362   8.900  0.3836  0.0746 -0.2354
  585Sol     OW 5099   2.779   3.188   5.391  0.1855  0.0393 -0.2093
  585Sol     HW 5100   2.850   3.235   5.348  0.3597 -0.3206 -0.3117
  585Sol     HW 5101   2.708   3.252   5.396  0.3662  0.2628 -0.4958
  585Sol     MW 5102   2.779   3.198   5.388 -0.4791 -0.2478 -0.3362
  586Sol     OW 5103   2.990   0.289   4.690 -0.1660  0.3179 -0.1739
  586Sol     HW 5104   3.056   0.282   4.621  1.5290  1.5698  1.2631
  586Sol     HW 5105   2.949   0.374   4.677 -1.2483 -0.2843 -0.8146
  586Sol     MW 5106   2.992   0.296   4.683  0.6033  0.2142  0.3162
  587Sol     OW 5107   2.872   3.129   9.033 -0.2310  0.4267 -0.3773
  587Sol     HW 5108   2.852   3.059   8.971  0.6368 -0.1934  0.0407
  587Sol     HW 5109   2.959   3.161   9.006 -0.0694  0.4865  0.2088
  587Sol     MW 5110   2.878   3.126   9.025  0.9578 -0.6593  0.4407
  588Sol     OW 5111   2.079   1.865   5.784  0.3344 -0.7537 -0.1574
  588Sol     HW 5112   2.169   1.885   5.811 -0.3980  0.9068  1.1312
  588Sol     HW 5113   2.024   1.922   5.838 -1.4762 -1.3399 -1.3246
  588Sol     MW 5114   2.082   1.872   5.791 -0.4162 -0.5097  0.4646
  589Sol     OW 5115   1.508   0.106   9.048 -0.8591 -0.1702 -0.3541
  589Sol     HW 5116   1.442   0.101   9.116 -0.2140 -1.6584  0.1950
  589Sol     HW 5117   1.466   0.067   8.971 -1.7313  1.8923 -0.9554
  589Sol     MW 5118   1.499   0.102   9.047 -0.4567  0.3243  0.9219
  590Sol     OW 5119   2.964   2.467   2.394  0.2527 -0.0777 -0.3661
  590Sol     HW 5120   2.909   2.389   2.389  0.8098 -0.4536 -0.7621
  590Sol     HW 5121   2.903   2.539   2.411 -0.1874 -0.6950  0.6812
  590Sol     MW 5122   2.954   2.466   2.395 -0.1063  0.5476 -0.3100
  591Sol     OW 5123   0.584   2.583   1.408  0.1183  0.3005 -0.4405
  591Sol     HW 5124   0.551   2.570   1.497  0.1632  0.9777 -0.3185
  591Sol     HW 5125   0.636   2.664   1.414 -0.1104  0.4983 -1.1414
  591Sol     MW 5126   0.586   2.589   1.417 -0.2304  0.0689 -0.6474
  592Sol     OW 5127   1.312   0.558   4.180 -0.5140 -0.1122  0.2503
  592Sol     HW 5128   1.296   0.468   4.206  0.2588 -0.1064  0.7680
  592Sol     HW 5129   1.337   0.603   4.261 -0.6101  0.4993 -0.0522
  592Sol     MW 5130   1.313   0.554   4.189 -0.5296 -0.2127  0.5267
  593Sol     OW 5131   1.282   1.564   7.515 -0.0556 -0.0565  0.1687
  593Sol     HW 5132   1.342   1.600   7.581 -0.7437 -1.2650  1.4751
  593Sol     HW 5133   1.294   1.469   7.520 -1.3104 -0.2535 -0.3028
  593Sol     MW 5134   1.289   1.559   7.521 -0.1239  0.0623 -0.1356
  594Sol     OW 5135   1.374   0.447   8.243 -0.1337 -0.5296 -0.7222
  594Sol     HW 5136   1.446   0.418   8.298  2.3311  1.2621 -2.8581
  594Sol     HW 5137   1.340   0.525   8.286 -1.2089 -1.7005  0.5874
  594Sol     MW 5138   1.377   0.451   8.252 -0.3492  0.0997  0.1285
  595Sol     OW 5139   2.844   3.044   7.192 -0.3452  0.4706 -0.7761
  595Sol     HW 5140   2.929   3.062   7.232 -0.6776 -0.6842  0.4772
  595Sol     HW 5141   2.780   3.062   7.261 -0.8768 -2.4424 -0.4401
  595Sol     MW 5142   2.846   3.047   7.202  0.2682 -0.5772 -0.0170
  596Sol     OW 5143   2.162   0.864   2.276  0.3476  0.0511  0.0827
  596Sol     HW 5144   2.183   0.818   2.357 -0.7998  0.6427  0.7379
  596Sol     HW 5145   2.215   0.822   2.209 -0.4017 -1.9627  0.7256
  596Sol     MW 5146   2.168   0.856   2.277 -0.0057 -0.2774  0.5571
  597Sol     OW 5147   2.149   3.223   4.710  0.3214 -0.3802  0.0773
  597Sol     HW 5148   2.142   3.296   4.650 -0.2079 -0.5602 -0.0795
  597Sol     HW 5149   2.238   3.229   4.745  0.0438  0.7690  0.6211
  597Sol     MW 5150   2.157   3.230   4.708  0.2247  0.2530 -0.3119
  598Sol     OW 5151   2.020   1.633   5.048  0.2195  0.4954  0.3136
  598Sol     HW 5152   1.974   1.652   5.130 -0.8587 -0.6841 -0.0064
  598Sol     HW 5153   2.049   1.543   5.056  0.3415  0.4532 -0.4919
  598Sol     MW 5154   2.019   1.627   5.056  0.5553 -0.4795 -0.0554
  599Sol     OW 5155   0.062   3.324   5.989 -0.4502 -0.7195  0.0155
  599Sol     HW 5156   0.080   3.392   5.925  0.5040 -0.3885  0.6311
  599Sol     HW 5157  -0.034   3.319   5.992 -0.5391  0.6667  0.0376
  599Sol     MW 5158   0.055   3.330   5.984 -0.0505  0.3334  0.1796
  600Sol     OW 5159   1.668   2.492   1.765 -0.2069 -0.0385 -0.5483
  600Sol     HW 5160   1.664   2.506   1.671 -1.0208  1.0072 -0.3624
  600Sol     HW 5161   1.692   2.399   1.774  0.6626  0.0527 -1.7680
  600Sol     MW 5162   1.670   2.485   1.758  0.1002  0.5922 -0.0288
  601Sol     OW 5163   1.419   2.685   5.789 -0.1683  0.1746  0.2378
  601Sol     HW 5164   1.428   2.770   5.745 -0.7886  0.3022  0.3480
  601Sol     HW 5165   1.454   2.622   5.726  2.6659  0.7504  1.1515
  601Sol     MW 5166   1.423   2.687   5.779  0.0153 -0.1887  0.2760
  602Sol     OW 5167   0.814   1.251   3.394  0.6802  0.4011  0.1937
  602Sol     HW 5168   0.850   1.203   3.468  1.5997 -0.5518 -0.8392
  602Sol     HW 5169   0.825   1.343   3.417 -0.3570  0.1268  1.8429
  602Sol     MW 5170   0.818   1.255   3.403  0.1462  0.1438  0.1603
  603Sol     OW 5171   0.346   3.316   5.517  0.0955 -0.0141  0.0463
  603Sol     HW 5172   0.293   3.305   5.438 -0.4957 -1.2358  0.6041
  603Sol     HW 5173   0.359   3.410   5.524  2.0231  0.0166 -2.7484
  603Sol     MW 5174   0.343   3.323   5.510  0.8695 -0.0134  0.2914
  604Sol     OW 5175   3.040   2.775   8.793  0.3372  0.0423  0.5389
  604Sol     HW 5176   3.111   2.730   8.839 -0.2601 -1.6999 -0.2340
  604Sol     HW 5177   3.064   2.771   8.701 -0.2106  0.4366  0.3761
  604Sol     MW 5178   3.049   2.771   8.789  0.3242  0.2515  0.2741
  605Sol     OW 5179   2.883   1.033   9.841  0.4601  0.2709  0.4993
  605Sol     HW 5180   2.870   1.011   9.933  0.2442  0.6620  0.5627
  605Sol     HW 5181   2.802   1.077   9.815  0.2602 -0.3908 -0.0442
  605Sol     MW 5182   2.874   1.035   9.847 -0.3141 -0.5778  0.1812
  606Sol     OW 5183   2.468   2.391   7.468  0.1463  0.2863 -0.0607
  606Sol     HW 5184   2.498   2.304   7.441 -1.0402  0.3729 -1.7518
  606Sol     HW 5185   2.422   2.425   7.391 -0.6893  1.8120  1.0889
  606Sol     MW 5186   2.467   2.386   7.459  0.0385  0.2303 -0.1309
  607Sol     OW 5187   2.380   0.993   5.941  0.0105 -0.4090 -0.5296
  607Sol     HW 5188   2.394   0.942   5.861 -0.2940  1.0240 -1.5156
  607Sol     HW 5189   2.288   1.020   5.937  0.7953  2.3819 -1.3692
  607Sol     MW 5190   2.373   0.991   5.933  0.0997 -0.1095 -0.1049
  608Sol     OW 5191   0.611   2.880   4.760  0.0072 -0.3393  0.8327
  608Sol     HW 5192   0.594   2.935   4.836  0.7318 -0.0216  0.7679
  608Sol     HW 5193   0.705   2.886   4.747 -0.0645 -0.6983  0.1382
  608Sol     MW 5194   0.618   2.885   4.766 -0.0485  0.1965 -0.1044
  609Sol     OW 5195   2.765   2.290   4.003  0.2335 -0.5349 -0.3292
  609Sol     HW 5196   2.734   2.226   4.067  0.8468 -0.2585  0.2488
  609Sol     HW 5197   2.860   2.276   3.998  0.3792  0.3730 -0.1498
  609Sol     MW 5198   2.771   2.283   4.008 -0.2326  0.9162 -0.0990
  610Sol     OW 5199   2.524   2.074   8.182 -0.3711 -0.3594 -0.6282
  610Sol     HW 5200   2.615   2.087   8.209 -0.7756  0.1349  0.5479
  610Sol     HW 5201   2.528   2.005   8.116  0.7712 -0.9024 -0.0056
  610Sol     MW 5202   2.533   2.069   8.179  0.5334 -0.2104 -0.4579
  611Sol     OW 5203   0.673   2.464  10.593  0.0776 -0.2769  0.2085
  611Sol     HW 5204   0.590   2.487  10.550 -0.2100 -1.8042 -0.0665
  611Sol     HW 5205   0.656   2.478  10.686 -0.7618 -1.3599  0.2311
  611Sol     MW 5206   0.664   2.468  10.598  0.0151 -0.2523 -0.3497
  612Sol     OW 5207   1.270   1.790   5.083  0.2254  0.0324  0.2542
  612Sol     HW 5208   1.304   1.866   5.131  0.3510  0.3533 -0.3463
  612Sol     HW 5209   1.323   1.717   5.114 -0.0658  0.1407  1.0283
  612Sol     MW 5210   1.278   1.791   5.090  0.0867  0.5980 -0.5127
  613Sol     OW 5211   1.261   0.279   4.158  0.3795  0.4761 -0.0510
  613Sol     HW 5212   1.255   0.208   4.094 -0.5829  0.6530 -0.1717
  613Sol     HW 5213   1.225   0.241   4.239  0.4129  0.6430  0.0429
  613Sol     MW 5214   1.257   0.269   4.160  0.4154 -0.3531 -0.3509
  614Sol     OW 5215   0.903   1.948   7.145 -0.3184 -0.1931 -0.0540
  614Sol     HW 5216   0.920   2.014   7.212  0.1657  0.6687 -1.0119
  614Sol     HW 5217   0.970   1.881   7.158 -0.3752 -0.1501  0.4663
  614Sol     MW 5218   0.910   1.948   7.152 -0.0490  0.2133 -0.4036
  615Sol     OW 5219   1.231   3.039   9.819  0.5030 -0.4972  0.1955
  615Sol     HW 5220   1.238   3.091   9.899  0.1969  0.2665 -0.2700
  615Sol     HW 5221   1.169   2.970   9.840 -1.2519  0.9814 -0.0577
  615Sol     MW 5222   1.226   3.037   9.828  0.3459 -0.0245  0.0078
  616Sol     OW 5223   1.669   2.180   2.310 -0.5981 -0.4457  0.4471
  616Sol     HW 5224   1.713   2.160   2.227 -0.2643  1.7525  0.0768
  616Sol     HW 5225   1.582   2.139   2.301 -0.0633 -1.4148 -0.4052
  616Sol     MW 5226   1.665   2.174   2.302  0.1303  0.4591 -0.4406
  617Sol     OW 5227   0.481   3.242   2.744  0.2744  0.5003  0.7498
  617Sol     HW 5228   0.412   3.195   2.790 -0.2640 -0.5490 -1.0806
  617Sol     HW 5229   0.471   3.217   2.652  2.3673  1.2271  0.2739
  617Sol     MW 5230   0.474   3.236   2.740 -0.0584 -0.0775  0.5633
  618Sol     OW 5231   1.681   1.128   7.739  0.1028  0.6267 -0.4750
  618Sol     HW 5232   1.737   1.051   7.733 -1.0527 -0.2957  0.6083
  618Sol     HW 5233   1.743   1.201   7.744  1.2343 -0.4205  1.3657
  618Sol     MW 5234   1.692   1.128   7.739  0.3006 -0.1004 -0.4883
  619Sol     OW 5235   2.483   0.867   5.705  0.0761 -0.8276  0.9472
  619Sol     HW 5236   2.576   0.890   5.714  0.2372 -0.7319 -0.9019
  619Sol     HW 5237   2.484   0.772   5.693 -0.0106 -0.7258  0.1359
  619Sol     MW 5238   2.491   0.860   5.705  0.0390 -0.4576 -0.7744
  620Sol     OW 5239   2.148   3.067   3.308 -0.6873  0.5501  0.0740
  620Sol     HW 5240   2.085   3.138   3.301 -0.3102  0.8420 -0.3186
  620Sol     HW 5241   2.156   3.032   3.219 -2.3057 -1.2261  0.5741
  620Sol     MW 5242   2.143   3.070   3.299 -0.1945  0.6809  0.3696
  621Sol     OW 5243   0.704   0.533   6.010 -0.0707  0.6312  0.5461
  621Sol     HW 5244   0.667   0.615   5.977 -0.1280 -0.4776 -2.2654
  621Sol     HW 5245   0.798   0.546   6.006 -0.0595  0.2822 -0.7628
  621Sol     MW 5246   0.709   0.542   6.007  0.0917  0.3931  0.1131
  622Sol     OW 5247   1.562   1.913   4.415 -0.0268  0.7541 -0.2196
  622Sol     HW 5248   1.491   1.859   4.448 -0.4747 -0.5599 -3.2044
  622Sol     HW 5249   1.601   1.952   4.494 -3.4890  0.8662  1.5091
  622Sol     MW 5250   1.559   1.911   4.425 -0.1455  0.0171  0.3698
  623Sol     OW 5251   2.897   1.808  10.184  0.1585 -0.3260 -0.2062
  623Sol     HW 5252   2.917   1.820  10.092 -1.6507 -0.7536 -0.6733
  623Sol     HW 5253   2.920   1.717  10.202 -0.3456 -0.5084 -0.4725
  623Sol     MW 5254   2.901   1.801  10.178 -0.3416  0.5382  0.0509
  624Sol     OW 5255   0.198   3.200  10.563 -0.2710  0.3479 -0.5428
  624Sol     HW 5256   0.129   3.265  10.547 -1.3735 -0.5633  0.4001
  624Sol     HW 5257   0.219   3.166  10.476 -0.5912  1.0338 -0.8985
  624Sol     MW 5258   0.194   3.203  10.554 -0.0534 -0.6108 -0.3926
  625Sol     OW 5259   0.114   0.133   6.478  0.1102  0.1536 -0.2026
  625Sol     HW 5260   0.134   0.212   6.427  1.4259 -0.4595 -0.6514
  625Sol     HW 5261   0.142   0.155   6.567 -1.3634  0.9005  0.0953
  625Sol     MW 5262   0.118   0.142   6.482  0.2416  0.0332  0.2427
  626Sol     OW 5263   1.218   2.036   8.523  0.3781 -0.2422  0.3898
  626Sol     HW 5264   1.259   2.109   8.569 -1.0284  0.2773  0.8441
  626Sol     HW 5265   1.186   1.978   8.592 -1.3100  0.2981  0.0918
  626Sol     MW 5266   1.219   2.037   8.533  0.2711 -0.5035 -0.3302
  627Sol     OW 5267   1.711   2.275   4.069  0.2819  0.6195 -0.2304
  627Sol     HW 5268   1.666   2.223   4.136 -0.2877  1.7061  0.2428
  627Sol     HW 5269   1.695   2.228   3.987 -1.8988  1.0787 -0.1095
  627Sol     MW 5270   1.706   2.266   4.068  0.1335  0.0189  0.6027
  628Sol     OW 5271   1.069   1.073   5.491 -0.2622  0.2037 -0.2570
  628Sol     HW 5272   0.990   1.063   5.438 -0.1838  0.3675 -0.4048
  628Sol     HW 5273   1.141   1.068   5.428 -0.2178  1.5639 -0.3087
  628Sol     MW 5274   1.069   1.071   5.481 -0.0253  0.0824 -0.4273
  629Sol     OW 5275   1.088   2.364   1.382  0.0787  0.4185  0.3662
  629Sol     HW 5276   1.031   2.434   1.349  1.8625  0.8962 -1.8100
  629Sol     HW 5277   1.149   2.408   1.441 -0.6624  0.1763  1.3419
  629Sol     MW 5278   1.088   2.374   1.384 -0.1893  0.6722  0.5828
  630Sol     OW 5279   2.168   1.730  10.069  0.6056 -0.1745  0.0848
  630Sol     HW 5280   2.204   1.769   9.989  2.3604 -1.3582  0.2497
  630Sol     HW 5281   2.164   1.636  10.050  0.0213 -0.3459  1.0111
  630Sol     MW 5282   2.171   1.725  10.060  0.6833  0.3895 -0.0087
  631Sol     OW 5283   0.936   2.747   2.805 -0.1849 -0.0960  0.2454
  631Sol     HW 5284   0.973   2.791   2.729  2.1878 -0.5783  1.0558
  631Sol     HW 5285   0.875   2.810   2.843 -1.1141  0.2824 -1.8312
  631Sol     MW 5286   0.934   2.756   2.802  0.2223 -0.4097 -0.1583
  632Sol     OW 5287   1.697   1.981   7.876  0.2377  0.0188  0.0476
  632Sol     HW 5288   1.720   2.028   7.956 -0.1169  0.4651 -0.1106
  632Sol     HW 5289   1.669   1.895   7.906  1.8390 -0.4425  0.2701
  632Sol     MW 5290   1.697   1.978   7.886 -0.3774 -0.3887 -0.1640
  633Sol     OW 5291   0.286   1.449   6.467  0.3681 -0.2022  0.0353
  633Sol     HW 5292   0.312   1.538   6.489  1.8507 -0.5740 -0.1155
  633Sol     HW 5293   0.364   1.412   6.424 -0.1336 -1.6510  0.3552
  633Sol     MW 5294   0.296   1.453   6.465  0.0607  0.0310 -0.5180
  634Sol     OW 5295   0.873   0.627   8.315  0.2355  0.5218 -0.1483
  634Sol     HW 5296   0.943   0.571   8.281 -1.7264 -1.0906 -1.6703
  634Sol     HW 5297   0.888   0.711   8.272 -1.4424 -1.1250 -4.3210
  634Sol     MW 5298   0.881   0.629   8.308 -0.0352 -0.2316  0.3683
  635Sol     OW 5299   2.222   0.730   7.366 -0.0217 -0.8263  0.1232
  635Sol     HW 5300   2.294   0.669   7.356  1.3407  0.7827 -0.0524
  635Sol     HW 5301   2.202   0.729   7.460  1.6623  0.3217  0.5044
  635Sol     MW 5302   2.226   0.725   7.373 -0.0037 -0.4771 -0.3054
  636Sol     OW 5303   1.724   1.084   9.649  0.0248  0.4604  0.0463
  636Sol     HW 5304   1.636   1.071   9.614 -0.6611  2.0221  1.1568
  636Sol     HW 5305   1.732   1.017   9.717  1.1063 -2.1211 -2.4988
  636Sol     MW 5306   1.717   1.077   9.652 -0.5421 -0.3839 -0.3115
  637Sol     OW 5307   0.267   0.115   1.727  0.5712  0.5445 -0.3073
  637Sol     HW 5308   0.307   0.144   1.809  0.4317  1.1113 -0.4344
  637Sol     HW 5309   0.177   0.147   1.731  1.0488  2.1049 -1.4243
  637Sol     MW 5310   0.263   0.121   1.735 -0.0416  0.6356 -0.0519
  638Sol     OW 5311   0.071   1.350   7.493 -0.6672 -0.2740  0.9578
  638Sol     HW 5312   0.057   1.263   7.528  2.4117 -2.3782 -2.5901
  638Sol     HW 5313   0.004   1.360   7.425 -0.2582 -0.3754  0.5381
  638Sol     MW 5314   0.064   1.343   7.490 -0.2842  0.2596  0.3435
  639Sol     OW 5315   2.421   2.518   7.212 -0.4634 -0.2782  0.0293
  639Sol     HW 5316   2.412   2.481   7.124  1.8578  1.6531 -1.0616
  639Sol     HW 5317   2.512   2.548   7.216 -0.6158 -0.1355  3.0173
  639Sol     MW 5318   2.428   2.517   7.204 -0.5644 -0.0975  0.5670
  640Sol     OW 5319   1.839   2.225   7.231 -0.2462  0.2721 -0.2270
  640Sol     HW 5320   1.907   2.259   7.289 -0.6935 -1.5117  1.3732
  640Sol     HW 5321   1.865   2.256   7.144  1.4746  1.3613  0.6372
  640Sol     MW 5322   1.847   2.231   7.228 -0.2660 -0.0941 -0.3488
  641Sol     OW 5323   2.939   0.604   3.783 -0.1183  0.3775  0.1331
  641Sol     HW 5324   2.958   0.586   3.691 -0.2154 -1.0350  0.3735
  641Sol     HW 5325   3.006   0.667   3.810 -0.0347  0.7202 -0.8815
  641Sol     MW 5326   2.947   0.608   3.777 -0.2281 -0.5699 -0.2306
  642Sol     OW 5327   0.230   3.024   7.937  0.0351  0.1153 -0.3015
  642Sol     HW 5328   0.227   3.117   7.915  0.8966  0.1830 -0.1785
  642Sol     HW 5329   0.323   3.007   7.953  0.0300 -1.0116 -1.4097
  642Sol     MW 5330   0.238   3.031   7.937  0.2322  0.1780 -0.3998
  643Sol     OW 5331   2.043   3.406   4.525  0.2330 -0.0162 -0.1392
  643Sol     HW 5332   2.010   3.489   4.560  0.9033 -0.5327  1.7859
  643Sol     HW 5333   2.110   3.431   4.462 -0.7204  0.9379 -0.7795
  643Sol     MW 5334   2.046   3.416   4.523 -0.1878 -0.3867  0.3340
  644Sol     OW 5335   2.968   2.214   9.228 -0.4504  0.2932  0.3529
  644Sol     HW 5336   3.039   2.159   9.193 -1.0469 -1.5611  1.9737
  644Sol     HW 5337   2.963   2.287   9.166  1.2771 -0.7615 -1.1177
  644Sol     MW 5338   2.974   2.215   9.219 -0.1067 -0.2646  0.5533
  645Sol     OW 5339   2.904   0.210   7.069 -0.8227  0.1450 -0.4201
  645Sol     HW 5340   2.830   0.154   7.093 -1.4979  0.9221 -0.6628
  645Sol     HW 5341   2.868   0.271   7.006  0.8222 -1.6234 -3.1894
  645Sol     MW 5342   2.894   0.210   7.066 -0.4723 -0.1626  0.0119
  646Sol     OW 5343   1.438   1.734   3.824  0.3300  0.0332 -0.3534
  646Sol     HW 5344   1.501   1.781   3.879  1.0791 -0.4699 -0.7653
  646Sol     HW 5345   1.483   1.725   3.739 -0.3206 -0.2777 -0.6661
  646Sol     MW 5346   1.448   1.738   3.821 -0.0695  0.8173  0.0856
  647Sol     OW 5347   0.223   0.225   2.057 -0.0406  0.1302  0.3323
  647Sol     HW 5348   0.306   0.236   2.009 -0.0946  0.2014  0.2559
  647Sol     HW 5349   0.223   0.133   2.084 -1.4731 -0.7778 -2.5271
  647Sol     MW 5350   0.231   0.217   2.055 -0.3838  0.3621  0.3406
  648Sol     OW 5351   2.313   1.826   8.815 -0.3138  0.1378 -0.7174
  648Sol     HW 5352   2.354   1.831   8.729  0.7707  0.1715 -0.2005
  648Sol     HW 5353   2.375   1.778   8.869  0.0788  2.0922  0.6399
  648Sol     MW 5354   2.322   1.822   8.812  0.4988 -1.0473  0.0809
  649Sol     OW 5355   1.382   2.655   7.687 -0.1247  0.0928 -0.0191
  649Sol     HW 5356   1.422   2.623   7.606 -2.4928  1.4357 -1.7775
  649Sol     HW 5357   1.349   2.576   7.730  1.1366 -0.6256 -0.3531
  649Sol     MW 5358   1.382   2.645   7.684 -0.1020 -0.5202 -0.7255
  650Sol     OW 5359   0.332   2.141  10.153  0.0607  0.0772  0.2452
  650Sol     HW 5360   0.402   2.078  10.141 -0.0422  0.0953 -0.4753
  650Sol     HW 5361   0.376   2.223  10.173  0.1894 -0.2580  1.3797
  650Sol     MW 5362   0.342   2.143  10.154 -0.2495  0.2762 -0.4822
  651Sol     OW 5363   1.228   2.454   5.098 -0.0118  0.1182  0.2012
  651Sol     HW 5364   1.202   2.436   5.008 -0.0205  1.9527 -0.1770
  651Sol     HW 5365   1.147   2.481   5.141  0.2242  0.3899  0.4671
  651Sol     MW 5366   1.219   2.454   5.094 -0.1178  0.1992  0.1457
  652Sol     OW 5367   1.408   2.300   4.511 -0.2700 -0.0662  0.1575
  652Sol     HW 5368   1.445   2.274   4.595 -0.6949 -1.1554  0.0148
  652Sol     HW 5369   1.320   2.262   4.511 -0.0537 -0.5740 -1.0224
  652Sol     MW 5370   1.403   2.294   4.519  0.1833 -0.4340 -0.2802
  653Sol     OW 5371   1.808   1.779   8.296  0.2859 -0.1614 -0.2162
  653Sol     HW 5372   1.798   1.872   8.312 -0.1269  0.0321 -1.5055
  653Sol     HW 5373   1.722   1.750   8.266  0.4360 -0.9290  0.0856
  653Sol     MW 5374   1.800   1.784   8.294  0.4307  0.5133  0.4251
  654Sol     OW 5375   0.932   2.430  10.517 -0.2954 -0.5474  0.4296
  654Sol     HW 5376   0.840   2.435  10.541 -0.1465 -0.9971  1.1271
  654Sol     HW 5377   0.956   2.520  10.495 -0.6833 -0.2757  1.0928
  654Sol     MW 5378   0.926   2.438  10.517 -0.4447  0.2742  0.1989
  655Sol     OW 5379   2.392   2.190   4.814  0.8794 -0.1619 -0.7922
  655Sol     HW 5380   2.453   2.117   4.803  2.6809  1.3673 -1.3105
  655Sol     HW 5381   2.406   2.219   4.904 -0.1349 -0.7223 -0.4542
  655Sol     MW 5382   2.399   2.186   4.821 -0.0087 -0.1439 -0.0188
  656Sol     OW 5383   0.506   0.937   8.817  0.0050  0.2690 -0.3223
  656Sol     HW 5384   0.551   0.907   8.738 -2.4554 -0.5896 -1.4353
  656Sol     HW 5385   0.438   0.996   8.785 -1.7661 -0.9629  1.0318
  656Sol     MW 5386   0.504   0.940   8.807 -0.4085  0.2485  0.0102
  657Sol     OW 5387   2.104   2.511   9.268  0.2286  0.2989 -0.1492
  657Sol     HW 5388   2.048   2.519   9.191  0.1369  2.1168  0.0891
  657Sol     HW 5389   2.160   2.435   9.249 -0.8466 -0.2279 -1.3086
  657Sol     MW 5390   2.104   2.505   9.259  0.0462 -0.2864 -0.3608
  658Sol     OW 5391   2.674   3.274   7.932 -0.0991  0.4270 -0.0800
  658Sol     HW 5392   2.607   3.248   7.868  0.5149 -1.2668 -0.0501
  658Sol     HW 5393   2.634   3.347   7.979 -1.8172 -0.3761 -0.2573
  658Sol     MW 5394   2.664   3.278   7.930  0.0888  0.3780  0.3340
  659Sol     OW 5395   2.909   3.135   2.279  0.3611  0.6152  0.0625
  659Sol     HW 5396   2.975   3.143   2.210  0.8888  1.4500  0.6514
  659Sol     HW 5397   2.865   3.052   2.261  1.5445  0.0728 -0.3657
  659Sol     MW 5398   2.911   3.128   2.271 -0.3051 -0.3649 -0.2170
  660Sol     OW 5399   0.938   2.259   5.260 -0.6404  0.2472 -0.2630
  660Sol     HW 5400   0.868   2.221   5.313  0.9618 -2.7542 -0.2352
  660Sol     HW 5401   0.920   2.228   5.172  1.1458 -1.2838 -0.1015
  660Sol     MW 5402   0.930   2.253   5.257 -0.2911 -0.1058 -0.4616
  661Sol     OW 5403   2.700   1.166   6.302 -0.0489 -0.2037  0.3538
  661Sol     HW 5404   2.613   1.127   6.297  1.1845 -3.0161 -0.0253
  661Sol     HW 5405   2.744   1.118   6.372  2.5969 -1.7576 -2.2624
  661Sol     MW 5406   2.696   1.158   6.308 -0.2614  0.2194 -0.0578
  662Sol     OW 5407   2.986   2.438   8.351  0.3983  0.9405  0.0368
  662Sol     HW 5408   2.897   2.471   8.338  1.2286  2.3307 -2.4634
  662Sol     HW 5409   2.979   2.378   8.425 -2.6343  0.9687 -0.1695
  662Sol     MW 5410   2.978   2.435   8.356  0.0523 -0.5060  0.0933
  663Sol     OW 5411   2.513   2.571   2.050  0.7383 -0.7200  0.0060
  663Sol     HW 5412   2.601   2.536   2.067  0.0948 -1.8091  1.2199
  663Sol     HW 5413   2.509   2.582   1.955  2.7684  0.9188  0.0706
  663Sol     MW 5414   2.521   2.569   2.043 -0.1854 -0.3106 -0.1861
  664Sol     OW 5415   1.044   1.649   8.032 -0.1025  0.2689  0.0378
  664Sol     HW 5416   1.069   1.619   7.945 -1.0297 -1.7572  0.4478
  664Sol     HW 5417   0.950   1.665   8.026 -0.1559  0.1957  0.6642
  664Sol     MW 5418   1.038   1.648   8.024  0.2424 -0.1846  0.3459
  665Sol     OW 5419   1.878   1.939   9.458  0.2193 -0.0301 -0.4083
  665Sol     HW 5420   1.911   1.990   9.384  0.1977  0.9092  0.2174
  665Sol     HW 5421   1.957   1.913   9.506  0.2432 -0.7805 -0.8479
  665Sol     MW 5422   1.888   1.941   9.456 -0.0449  0.1785  0.4916
  666Sol     OW 5423   2.395   0.865   4.688 -0.3366  0.4325  0.3450
  666Sol     HW 5424   2.407   0.900   4.776  1.1767 -2.5228  1.3933
  666Sol     HW 5425   2.314   0.814   4.694 -0.3387  0.3960 -0.0013
  666Sol     MW 5426   2.389   0.863   4.696 -0.8088  0.2882  0.4904
  667Sol     OW 5427   1.573   2.054   2.677 -0.3632 -0.1753  0.7146
  667Sol     HW 5428   1.548   1.965   2.702 -3.1117  0.4459  0.4238
  667Sol     HW 5429   1.497   2.087   2.628  2.2152  0.9365 -2.7432
  667Sol     MW 5430   1.564   2.049   2.675 -0.2768  0.5919  0.5386
  668Sol     OW 5431   1.715   0.094   7.292  0.3106  0.2996  0.2967
  668Sol     HW 5432   1.710   0.187   7.270  0.8317  0.0907 -0.7430
  668Sol     HW 5433   1.702   0.048   7.209 -0.6990 -0.5789  0.9241
  668Sol     MW 5434   1.713   0.098   7.282  0.2117  0.4556 -0.1486
  669Sol     OW 5435   0.523   1.227   2.510  0.2092  0.0311  0.4569
  669Sol     HW 5436   0.472   1.152   2.481 -0.3665 -0.3697  2.4486
  669Sol     HW 5437   0.562   1.262   2.430  0.6911 -2.5305 -0.4771
  669Sol     MW 5438   0.522   1.223   2.501 -0.2804  0.3371 -0.4688
  670Sol     OW 5439   0.700   1.991   2.090 -0.1725  0.1188 -0.4791
  670Sol     HW 5440   0.646   2.049   2.144 -0.0161  1.1159 -1.3703
  670Sol     HW 5441   0.648   1.977   2.011  1.4404  2.2715 -1.9892
  670Sol     MW 5442   0.691   1.995   2.088 -0.2582  0.0969  0.1681
  671Sol     OW 5443   2.433   0.270   6.709  0.1072 -0.3543 -0.2486
  671Sol     HW 5444   2.464   0.248   6.796  0.2095  0.1231 -0.1627
  671Sol     HW 5445   2.338   0.282   6.719  0.1602 -0.0109 -0.1413
  671Sol     MW 5446   2.427   0.269   6.717 -0.5441  0.4172  0.2993
  672Sol     OW 5447   0.463   0.561   6.972 -0.3222 -0.2344 -0.2017
  672Sol     HW 5448   0.470   0.652   6.943  1.2857 -0.5863 -0.9619
  672Sol     HW 5449   0.422   0.567   7.058 -1.9944  1.0595 -1.0687
  672Sol     MW 5450   0.460   0.570   6.977 -0.0414 -0.0462 -0.0074
  673Sol     OW 5451   2.580   0.550   4.327 -0.5679  0.1498  0.0860
  673Sol     HW 5452   2.519   0.617   4.357 -2.5346 -1.9634  0.9968
  673Sol     HW 5453   2.566   0.545   4.232 -0.3490  1.0553  0.0010
  673Sol     MW 5454   2.573   0.555   4.321  0.5156 -0.4604 -0.3412
  674Sol     OW 5455   2.024   3.351   4.942 -0.1197 -0.5389 -0.1631
  674Sol     HW 5456   2.028   3.324   4.850 -0.3456 -1.3643  0.0611
  674Sol     HW 5457   2.051   3.442   4.942  0.5290 -0.7267 -0.9699
  674Sol     MW 5458   2.027   3.356   4.934 -0.5196  0.0107 -0.2374
  675Sol     OW 5459   0.154   1.943   7.503 -0.0681  0.7629 -0.1823
  675Sol     HW 5460   0.195   1.978   7.424 -2.8914  0.5694 -1.7954
  675Sol     HW 5461   0.069   1.987   7.507 -1.0597 -1.2051  1.2699
  675Sol     MW 5462   0.150   1.950   7.496 -0.0480 -0.1273  0.0852
  676Sol     OW 5463   0.135   1.882   6.932  0.6546 -0.0290  0.1939
  676Sol     HW 5464   0.171   1.797   6.905  1.7420  0.8722 -1.2599
  676Sol     HW 5465   0.094   1.917   6.853  2.0444  1.7212  0.2176
  676Sol     MW 5466   0.134   1.877   6.922  0.6526 -0.0881  0.5067
  677Sol     OW 5467   1.694   0.857   7.448 -0.0863 -0.2549 -0.2189
  677Sol     HW 5468   1.634   0.927   7.472 -0.0513  0.2761 -1.6649
  677Sol     HW 5469   1.689   0.852   7.353  0.5975 -1.6090 -0.1940
  677Sol     MW 5470   1.688   0.863   7.442 -0.2929  0.4091  0.2173
  678Sol     OW 5471   1.202   0.340   8.833  0.0646 -0.0641  0.7524
  678Sol     HW 5472   1.169   0.251   8.826  1.0272 -0.4498  1.1368
  678Sol     HW 5473   1.145   0.391   8.775  0.7485 -1.2600 -1.0107
  678Sol     MW 5474   1.194   0.337   8.827 -0.5896 -0.0741 -0.0627
  679Sol     OW 5475   1.577   0.058   8.279  0.0107  0.2320  0.8451
  679Sol     HW 5476   1.643   0.095   8.338  0.2971  1.2360 -0.0979
  679Sol     HW 5477   1.522   0.133   8.256 -0.8867 -0.4160  0.8642
  679Sol     MW 5478   1.578   0.068   8.282 -0.0181 -0.2166 -0.2570
  680Sol     OW 5479   2.467   1.516   5.577 -0.3323 -0.0783  0.0377
  680Sol     HW 5480   2.403   1.555   5.516 -0.3349  0.8523  0.6267
  680Sol     HW 5481   2.549   1.562   5.558 -0.6293  1.1336  1.6128
  680Sol     MW 5482   2.468   1.524   5.569 -0.1101 -0.3848  0.0423
  681Sol     OW 5483   1.743   2.205   5.803 -0.3750 -0.0723  0.7452
  681Sol     HW 5484   1.666   2.255   5.831 -0.7124  0.0249 -0.3478
  681Sol     HW 5485   1.761   2.235   5.714  0.1722 -0.9914  0.5368
  681Sol     MW 5486   1.737   2.212   5.798 -0.6970  0.2023 -0.1154
  682Sol     OW 5487   2.793   1.793   6.851  0.2602 -0.3481  0.2260
  682Sol     HW 5488   2.715   1.772   6.800  1.1772 -1.4874 -0.7233
  682Sol     HW 5489   2.808   1.716   6.906 -0.7210  0.8662  2.2695
  682Sol     MW 5490   2.787   1.784   6.851  0.4372 -0.0938  0.3498
  683Sol     OW 5491   2.355   0.206   7.764  0.0642 -0.2290  0.1899
  683Sol     HW 5492   2.388   0.286   7.724  0.0086 -0.5475 -0.5089
  683Sol     HW 5493   2.263   0.203   7.740 -0.2943  0.2567  1.4808
  683Sol     MW 5494   2.350   0.213   7.758  0.0711 -0.5489  0.1801
  684Sol     OW 5495   0.615   0.909   7.236 -0.2619 -0.1384 -0.9916
  684Sol     HW 5496   0.620   1.004   7.229 -0.6076 -0.0405  0.0709
  684Sol     HW 5497   0.531   0.886   7.195 -0.1276 -0.0058 -1.3477
  684Sol     MW 5498   0.608   0.915   7.231  0.4390  0.0475  0.0731
  685Sol     OW 5499   1.946   0.154   9.449 -0.1533  0.4350 -0.1451
  685Sol     HW 5500   1.887   0.148   9.524  0.0410 -0.4803 -0.0507
  685Sol     HW 5501   2.011   0.219   9.474  0.2137 -0.2471  0.7105
  685Sol     MW 5502   1.947   0.159   9.458  0.3184  0.4989 -0.1174
  686Sol     OW 5503   0.956   1.297   6.639 -0.0986 -0.5965  0.0327
  686Sol     HW 5504   0.889   1.343   6.689  0.5009 -0.5800  0.8435
  686Sol     HW 5505   0.947   1.330   6.550 -1.8913 -1.4146 -0.1084
  686Sol     MW 5506   0.950   1.304   6.636 -0.1040 -0.6250 -0.2771
  687Sol     OW 5507   3.105   1.655   5.149 -0.3654 -0.4914 -0.0499
  687Sol     HW 5508   3.015   1.623   5.154 -0.3491 -0.5415 -0.0776
  687Sol     HW 5509   3.102   1.740   5.194 -0.5343 -0.2611 -0.4885
  687Sol     MW 5510   3.096   1.660   5.153  0.7686 -0.0084 -0.4376
  688Sol     OW 5511   2.372   2.054   3.094  0.2936  0.2423 -0.2082
  688Sol     HW 5512   2.446   2.109   3.117 -0.2426  0.3633  1.2546
  688Sol     HW 5513   2.300   2.086   3.147 -0.3002 -1.1707 -0.1228
  688Sol     MW 5514   2.372   2.061   3.100 -0.0087 -0.5524 -0.6918
  689Sol     OW 5515   0.563   3.281   1.696 -0.0960  0.2257 -0.0238
  689Sol     HW 5516   0.512   3.325   1.627 -0.4245 -2.6153 -1.6676
  689Sol     HW 5517   0.502   3.218   1.734  1.1372 -0.7195  0.4109
  689Sol     MW 5518   0.553   3.279   1.693  0.4550 -0.1241 -0.3841
  690Sol     OW 5519   1.596   2.615   3.797  0.1118 -0.0526  0.1022
  690Sol     HW 5520   1.523   2.641   3.853  0.9717  1.3936  0.5684
  690Sol     HW 5521   1.666   2.591   3.858  1.0909  1.6352 -0.3180
  690Sol     MW 5522   1.596   2.615   3.807 -0.2853 -0.2396 -0.3741
  691Sol     OW 5523   2.313   1.821   9.851 -0.9831  0.2099 -0.4107
  691Sol     HW 5524   2.405   1.798   9.844 -0.8512  0.1937  1.3187
  691Sol     HW 5525   2.305   1.904   9.803  0.5326  1.7885  2.0220
  691Sol     MW 5526   2.320   1.827   9.846  0.0893  0.2465 -0.5482
  692Sol     OW 5527   1.930   1.421   6.829 -0.2180 -0.1545  0.2143
  692Sol     HW 5528   1.992   1.471   6.776  0.2142 -1.7886 -0.8630
  692Sol     HW 5529   1.893   1.486   6.889 -0.2583  1.6043 -1.6455
  692Sol     MW 5530   1.933   1.431   6.830 -0.3173 -0.7319 -0.6624
  693Sol     OW 5531   1.667   0.178   4.697 -0.3902  0.1373 -0.5946
  693Sol     HW 5532   1.593   0.198   4.753 -1.3801 -0.8091 -1.5362
  693Sol     HW 5533   1.665   0.083   4.687  0.9888  0.0892 -0.5911
  693Sol     MW 5534   1.660   0.171   4.701 -0.4874 -0.0242  0.1498
  694Sol     OW 5535   0.874   1.126   7.996 -0.0364 -0.5597  0.0362
  694Sol     HW 5536   0.819   1.139   8.073  1.1882  1.4282  0.5990
  694Sol     HW 5537   0.951   1.079   8.030 -0.7479 -2.1750 -0.5142
  694Sol     MW 5538   0.876   1.123   8.006 -0.8139 -0.6897 -0.1032
  695Sol     OW 5539   1.109   0.508   5.428 -0.3178  0.0494  0.1773
  695Sol     HW 5540   1.132   0.597   5.454 -1.5642  0.1642  0.9444
  695Sol     HW 5541   1.190   0.470   5.396  0.5766  0.9401  1.3464
  695Sol     MW 5542   1.118   0.513   5.428  0.4200  0.0213  0.4071
  696Sol     OW 5543   0.151   3.281   6.418  0.2833  0.2485  0.4288
  696Sol     HW 5544   0.113   3.367   6.435  0.1834  0.2324  0.2897
  696Sol     HW 5545   0.162   3.279   6.322 -1.0677 -0.4657  0.2900
  696Sol     MW 5546   0.149   3.289   6.411  0.2639 -0.4415  0.1481
  697Sol     OW 5547   1.589   1.580   4.629 -0.0078  0.0570  0.0647
  697Sol     HW 5548   1.635   1.546   4.552  2.4556  2.1468  0.5631
  697Sol     HW 5549   1.516   1.631   4.593  0.2824 -0.1570 -0.8355
  697Sol     MW 5550   1.586   1.581   4.619  0.2674 -0.6668 -0.0268
  698Sol     OW 5551   1.934   1.492  10.257  0.2334  0.2789  0.8147
  698Sol     HW 5552   1.866   1.554  10.230  0.4616  0.7300  1.2506
  698Sol     HW 5553   1.921   1.482  10.352 -0.4178 -1.1066  0.5941
  698Sol     MW 5554   1.927   1.497  10.263  0.1981 -0.0710  0.3615
  699Sol     OW 5555   2.552   0.457   2.786 -0.0176  0.0852  0.3078
  699Sol     HW 5556   2.598   0.478   2.867  0.8755  0.8581 -0.3796
  699Sol     HW 5557   2.514   0.370   2.801  0.9747 -0.2024  1.1901
  699Sol     MW 5558   2.553   0.451   2.794  0.3831 -0.1706  0.2036
  700Sol     OW 5559   1.673   1.389  10.400 -0.2235  0.6580 -0.8139
  700Sol     HW 5560   1.707   1.356  10.317 -0.0591  2.7042 -1.5962
  700Sol     HW 5561   1.584   1.356  10.404 -0.3925  0.9102 -2.0495
  700Sol     MW 5562   1.668   1.383  10.393 -0.3981 -0.4218 -0.0785
  701Sol     OW 5563   0.899   2.215   7.562 -0.4272 -0.1402  0.3010
  701Sol     HW 5564   0.954   2.219   7.640 -0.6122  0.9316  0.3939
  701Sol     HW 5565   0.956   2.179   7.494 -0.3843 -1.4658  1.0219
  701Sol     MW 5566   0.909   2.212   7.563 -0.1218  0.5120  0.9253
  702Sol     OW 5567   0.030   0.046   2.767  0.2822  0.2772  0.2746
  702Sol     HW 5568   0.048  -0.004   2.847 -0.8832  1.0694  1.0314
  702Sol     HW 5569  -0.031  -0.009   2.718  0.0950  0.3108  0.4666
  702Sol     MW 5570   0.026   0.036   2.770  0.1554 -0.4570  0.1099
  703Sol     OW 5571   1.185   1.368   8.712 -0.1103 -0.1313  0.6004
  703Sol     HW 5572   1.241   1.444   8.695 -1.2797  0.2079 -1.8648
  703Sol     HW 5573   1.246   1.296   8.724  0.9723  0.9373  1.7925
  703Sol     MW 5574   1.196   1.369   8.712 -0.1206  0.2993  0.1520
  704Sol     OW 5575   1.354   1.806   3.392  0.4472 -0.6989 -0.3958
  704Sol     HW 5576   1.286   1.802   3.325 -0.9297  0.4263  0.8870
  704Sol     HW 5577   1.314   1.764   3.469 -0.4747  3.7413  1.7033
  704Sol     MW 5578   1.344   1.802   3.393 -0.5780 -0.1225  0.0977
  705Sol     OW 5579   1.693   3.358   9.156  0.1878  0.1305 -0.0291
  705Sol     HW 5580   1.723   3.317   9.074 -2.0540 -1.4198 -0.1090
  705Sol     HW 5581   1.621   3.415   9.129 -1.3860 -1.3293  0.9839
  705Sol     MW 5582   1.689   3.359   9.146  0.0555 -0.5670  0.0101
  706Sol     OW 5583   0.471   3.051   5.960 -0.3264 -0.4752 -0.7855
  706Sol     HW 5584   0.536   3.087   5.900 -0.3515  2.6073  0.9555
  706Sol     HW 5585   0.386   3.076   5.922 -0.4373 -1.6254 -1.3159
  706Sol     MW 5586   0.469   3.056   5.951  0.0259 -0.0122  0.0458
  707Sol     OW 5587   2.335   3.231   6.187 -0.2108  0.0097  0.3321
  707Sol     HW 5588   2.259   3.264   6.236  1.3711  3.3749  0.6110
  707Sol     HW 5589   2.404   3.224   6.253  0.6499  0.1248 -0.5576
  707Sol     MW 5590   2.334   3.233   6.198  0.3003 -0.2071 -0.3006
  708Sol     OW 5591   1.494   1.761   9.512  0.2591 -0.4980 -0.2974
  708Sol     HW 5592   1.573   1.815   9.511 -1.2533  1.7665 -0.3676
  708Sol     HW 5593   1.527   1.671   9.524  2.9247  0.1940 -2.0000
  708Sol     MW 5594   1.504   1.758   9.513 -1.3979  0.0031  0.1514
  709Sol     OW 5595   0.210   2.481   5.598  0.1581  0.0941 -0.6696
  709Sol     HW 5596   0.298   2.515   5.580  0.3324 -0.7600 -1.4865
  709Sol     HW 5597   0.152   2.555   5.579  0.7713  1.0729  1.1274
  709Sol     MW 5598   0.213   2.491   5.594 -0.2302  0.4234 -0.3147
  710Sol     OW 5599   3.084   0.223   9.352  0.1094  0.7292 -0.2875
  710Sol     HW 5600   3.103   0.285   9.422 -1.3646  0.5320  0.3170
  710Sol     HW 5601   3.046   0.277   9.282  0.4801  0.7540 -0.4725
  710Sol     MW 5602   3.082   0.234   9.352  0.7402 -0.4347 -0.0672
  711Sol     OW 5603   2.228   2.964   7.395 -0.0761  0.0481 -0.1313
  711Sol     HW 5604   2.245   2.906   7.321 -1.3120 -0.2562 -0.1926
  711Sol     HW 5605   2.141   2.939   7.425  0.3269  0.3129  1.2961
  711Sol     MW 5606   2.222   2.957   7.391  0.1418 -0.2825 -0.1322
  712Sol     OW 5607   2.101   2.431   4.276  0.5704 -0.4136 -0.1074
  712Sol     HW 5608   2.167   2.379   4.323  0.6629  0.5035  0.7860
  712Sol     HW 5609   2.051   2.475   4.344  0.3506  0.5108 -0.8479
  712Sol     MW 5610   2.103   2.430   4.286  0.0182 -0.3232  0.0793
  713Sol     OW 5611   0.561   0.199   7.091  0.1774 -0.0613 -0.2402
  713Sol     HW 5612   0.591   0.249   7.015 -0.2401 -2.6619 -2.1754
  713Sol     HW 5613   0.614   0.120   7.091 -0.7676 -0.7252  1.3933
  713Sol     MW 5614   0.568   0.196   7.084  0.2746  0.0970 -0.0398
  714Sol     OW 5615   1.427   2.790   2.104 -0.0014 -0.0379 -0.0787
  714Sol     HW 5616   1.374   2.842   2.043  0.8241 -0.2909 -1.0147
  714Sol     HW 5617   1.444   2.708   2.058  2.1838  0.4970 -0.2575
  714Sol     MW 5618   1.424   2.787   2.095  0.2846  0.2155  0.1972
  715Sol     OW 5619   0.437   0.296   3.888  0.7528 -0.1380 -0.6796
  715Sol     HW 5620   0.342   0.295   3.893  0.8103 -0.8728  0.6031
  715Sol     HW 5621   0.458   0.229   3.823  0.4827 -2.7256  1.7678
  715Sol     MW 5622   0.431   0.290   3.883  0.0458 -0.1246 -0.1050
  716Sol     OW 5623   3.031   1.064   4.534 -0.4741 -0.1605  0.2511
  716Sol     HW 5624   3.095   1.116   4.485  0.0847 -0.1874  0.9386
  716Sol     HW 5625   2.962   1.126   4.557 -0.9733 -0.2580 -0.9864
  716Sol     MW 5626   3.031   1.074   4.532  0.0330  0.6190  0.7375
  717Sol     OW 5627   2.792   1.780   4.810  0.0086 -0.3390  0.3309
  717Sol     HW 5628   2.719   1.769   4.749  0.8511  0.3690 -0.8215
  717Sol     HW 5629   2.750   1.800   4.894 -1.1111  1.2886 -0.5816
  717Sol     MW 5630   2.782   1.781   4.812 -0.0343  0.5053  0.4184
  718Sol     OW 5631   0.050   0.820   4.605  0.3813  0.3098  0.3067
  718Sol     HW 5632  -0.009   0.889   4.573  0.2577  0.2602  0.4277
  718Sol     HW 5633   0.093   0.787   4.526  0.0837  0.1961  0.1890
  718Sol     MW 5634   0.048   0.823   4.595 -0.9233 -0.2884  0.3179
  719Sol     OW 5635   0.141   1.672   3.504  0.1195 -0.6054 -0.8774
  719Sol     HW 5636   0.210   1.641   3.563  0.0614  2.4228  0.8911
  719Sol     HW 5637   0.069   1.610   3.516  0.4532 -0.5649  1.5781
  719Sol     MW 5638   0.141   1.664   3.510 -0.0694  0.7357 -0.2392
  720Sol     OW 5639   1.389   0.741   4.391 -0.0138 -0.1022 -0.5591
  720Sol     HW 5640   1.347   0.760   4.475 -2.4182  1.7765 -2.0848
  720Sol     HW 5641   1.370   0.818   4.337  5.6408  0.9535 -1.3707
  720Sol     MW 5642   1.383   0.750   4.394 -0.2358  0.4275  0.4369
  721Sol     OW 5643   2.615   1.743   9.435 -0.5052 -0.1732 -0.3309
  721Sol     HW 5644   2.587   1.658   9.399  1.1576 -0.9309  0.1266
  721Sol     HW 5645   2.553   1.806   9.398  0.1448 -1.1512 -3.2221
  721Sol     MW 5646   2.607   1.741   9.429 -0.1847 -0.1444 -0.1100
  722Sol     OW 5647   1.876   1.383   8.772  0.1891 -0.1692  0.2044
  722Sol     HW 5648   1.929   1.316   8.814  0.9548 -1.1978 -2.3073
  722Sol     HW 5649   1.833   1.338   8.699  0.5359  1.9745 -1.3807
  722Sol     MW 5650   1.877   1.373   8.769  0.0856 -0.0339 -0.3887
  723Sol     OW 5651   1.717   3.316   9.415 -0.2113  0.4914  0.3802
  723Sol     HW 5652   1.717   3.340   9.322 -0.4629  0.8980  0.4863
  723Sol     HW 5653   1.655   3.243   9.420  0.5429 -0.1896  0.0635
  723Sol     MW 5654   1.711   3.311   9.407 -0.1752 -0.2266  0.4607
  724Sol     OW 5655   1.716   1.243   7.321  0.1747  0.1393 -0.2199
  724Sol     HW 5656   1.745   1.190   7.247  0.2618  0.4589 -0.4151
  724Sol     HW 5657   1.623   1.260   7.304  0.0973 -0.1148 -0.0580
  724Sol     MW 5658   1.710   1.240   7.313 -0.7160  0.5785  0.3278
  725Sol     OW 5659   1.552   1.725   7.955  0.1391  0.0275  0.1847
  725Sol     HW 5660   1.461   1.699   7.964  0.1582 -0.1990 -0.2462
  725Sol     HW 5661   1.597   1.681   8.027  0.3058 -1.8088 -1.0060
  725Sol     MW 5662   1.548   1.719   7.962  0.8420 -0.1399  0.1037
  726Sol     OW 5663   2.253   1.931   4.695 -0.1357  0.3701  0.4984
  726Sol     HW 5664   2.217   1.891   4.774 -0.2400  0.5394  0.5371
  726Sol     HW 5665   2.208   2.016   4.688 -0.2456  0.2867  0.1668
  726Sol     MW 5666   2.246   1.935   4.701 -0.1217  0.5490  0.0609
  727Sol     OW 5667   1.215   0.554   6.743 -0.2042 -0.3143 -0.1209
  727Sol     HW 5668   1.253   0.576   6.658 -0.3654 -2.1531 -0.6890
  727Sol     HW 5669   1.222   0.635   6.794  0.0440  0.7608 -1.8174
  727Sol     MW 5670   1.219   0.563   6.740  0.8061  0.6453  0.2467
  728Sol     OW 5671   2.058   2.147   9.352 -0.0715 -0.0903  0.0229
  728Sol     HW 5672   2.104   2.076   9.395  0.4566 -0.1324 -0.6000
  728Sol     HW 5673   2.127   2.196   9.306 -0.8020 -0.9802 -2.0881
  728Sol     MW 5674   2.068   2.145   9.352 -0.1534 -0.5167 -0.2363
  729Sol     OW 5675   1.477   3.115   8.053 -0.1674 -0.5975  0.0269
  729Sol     HW 5676   1.452   3.023   8.048  0.4808 -0.8317  1.0333
  729Sol     HW 5677   1.548   3.118   8.116 -0.4005  0.6395  0.2560
  729Sol     MW 5678   1.481   3.107   8.058  0.0058  0.3084  0.2946
  730Sol     OW 5679   0.129   2.326   5.049 -0.2221 -0.0745 -0.0788
  730Sol     HW 5680   0.158   2.393   4.987 -0.6018  0.2285  0.0690
  730Sol     HW 5681   0.167   2.245   5.016 -0.0613  0.1561 -0.4637
  730Sol     MW 5682   0.135   2.325   5.040 -0.4554 -0.2242  0.2842
  731Sol     OW 5683   2.565   1.750   6.677 -0.4030 -0.1516 -0.2558
  731Sol     HW 5684   2.553   1.845   6.666 -0.7912 -0.2062 -0.3091
  731Sol     HW 5685   2.487   1.712   6.638 -0.8672 -0.4396  0.9479
  731Sol     MW 5686   2.557   1.755   6.672  0.2085 -0.7736 -0.3101
  732Sol     OW 5687   1.696   2.181   9.062 -0.3927  0.1355 -0.2980
  732Sol     HW 5688   1.784   2.145   9.072 -0.4627  0.0164 -0.1051
  732Sol     HW 5689   1.666   2.148   8.977 -0.7959 -0.9935  0.2691
  732Sol     MW 5690   1.701   2.174   9.056 -0.0067  0.5250 -0.3522
  733Sol     OW 5691   1.226   0.482  10.198 -0.1210 -0.1689  0.0716
  733Sol     HW 5692   1.197   0.563  10.239  0.2245 -0.2265  0.4296
  733Sol     HW 5693   1.296   0.450  10.254  1.2031  0.3962 -1.2112
  733Sol     MW 5694   1.230   0.486  10.206  0.2691  0.0116  0.0701
  734Sol     OW 5695   1.520   1.502   3.952 -0.0989 -0.7103  0.1616
  734Sol     HW 5696   1.491   1.589   3.925 -1.7521 -1.6144 -1.1108
  734Sol     HW 5697   1.497   1.445   3.878  0.2783 -2.3459  1.2732
  734Sol     MW 5698   1.515   1.504   3.943  0.8728 -0.0373 -0.3032
  735Sol     OW 5699   1.559   1.579   3.215 -0.7091 -0.2724 -0.3808
  735Sol     HW 5700   1.571   1.546   3.305 -1.3700 -0.4022 -0.3414
  735Sol     HW 5701   1.571   1.674   3.223  0.2606 -0.3859 -0.3363
  735Sol     MW 5702   1.561   1.584   3.224  0.8642  0.0744 -0.4129
  736Sol     OW 5703   0.974   0.966   9.544  0.5044  0.1711 -0.0265
  736Sol     HW 5704   1.007   0.936   9.459  0.0365 -0.2333 -0.0662
  736Sol     HW 5705   0.902   0.907   9.564  2.0822 -1.2434  1.7507
  736Sol     MW 5706   0.971   0.958   9.539 -0.1251  0.0945  0.0696
  737Sol     OW 5707   2.509   0.271   9.222  0.2893 -0.1797  0.3982
  737Sol     HW 5708   2.587   0.287   9.275  0.7435  0.4380 -0.4417
  737Sol     HW 5709   2.436   0.285   9.282  0.8139 -0.2858  1.0653
  737Sol     MW 5710   2.510   0.274   9.232  0.3445 -0.8487  0.2051
  738Sol     OW 5711   2.687   0.463   1.452 -0.0645 -0.0838 -0.2673
  738Sol     HW 5712   2.658   0.442   1.540 -0.3884 -1.0674 -0.6007
  738Sol     HW 5713   2.771   0.418   1.443  0.8020  1.4003  0.1181
  738Sol     MW 5714   2.692   0.457   1.459 -0.0423 -0.3574 -0.6251
  739Sol     OW 5715   2.758   1.525   2.375 -0.3169  0.6812  0.0674
  739Sol     HW 5716   2.683   1.483   2.334 -1.1565  0.7813  1.4680
  739Sol     HW 5717   2.834   1.491   2.328 -0.9644 -2.4362  1.1708
  739Sol     MW 5718   2.758   1.519   2.367 -0.1290  0.4538 -0.4290
  740Sol     OW 5719   1.630   0.651   4.283  0.0713  0.0097  0.3061
  740Sol     HW 5720   1.546   0.687   4.311  0.0496 -0.1542  0.4494
  740Sol     HW 5721   1.619   0.556   4.290  0.0058 -0.0408 -0.4201
  740Sol     MW 5722   1.621   0.646   4.286 -0.0594  0.3892 -0.6065
  741Sol     OW 5723   2.628   2.597   8.804 -0.3881  0.3916 -0.3114
  741Sol     HW 5724   2.544   2.573   8.767 -0.2577 -1.0992  0.3412
  741Sol     HW 5725   2.607   2.653   8.879 -0.8052 -0.0073 -0.1298
  741Sol     MW 5726   2.619   2.600   8.807  0.1787  0.0946 -0.1292
  742Sol     OW 5727   0.934   2.730   2.468 -0.2525  0.9127  0.3249
  742Sol     HW 5728   1.026   2.716   2.445 -0.5048 -0.8574  0.3056
  742Sol     HW 5729   0.921   2.824   2.458  1.0801  0.9395 -1.4882
  742Sol     MW 5730   0.941   2.737   2.465 -0.0044  0.4721  0.2953
  743Sol     OW 5731   1.120   1.092   4.133  0.1713 -0.0876 -0.0720
  743Sol     HW 5732   1.132   1.062   4.043  0.6329 -0.5369  0.1341
  743Sol     HW 5733   1.131   1.187   4.128 -2.8428  0.2497 -0.9808
  743Sol     MW 5734   1.122   1.098   4.124 -0.5157 -1.0794  0.3898
  744Sol     OW 5735   2.234   0.565   6.736  0.3357 -0.5422 -0.9244
  744Sol     HW 5736   2.312   0.621   6.741 -0.6361  0.7572  0.2560
  744Sol     HW 5737   2.161   0.625   6.750 -0.6304 -2.4102  2.5482
  744Sol     MW 5738   2.234   0.576   6.738  0.1158  0.2215  0.2609
  745Sol     OW 5739   2.482   2.799   1.727 -0.1398  0.1942 -0.1390
  745Sol     HW 5740   2.460   2.708   1.750  0.8497 -0.3911 -1.4529
  745Sol     HW 5741   2.406   2.849   1.756 -0.9753 -1.1400  0.0471
  745Sol     MW 5742   2.473   2.795   1.732 -0.6781  0.7325  0.3713
  746Sol     OW 5743   1.013   0.925   4.328  0.1063  0.1114 -0.4209
  746Sol     HW 5744   1.034   0.956   4.416 -1.5457 -0.8261  0.3165
  746Sol     HW 5745   1.059   0.986   4.270  1.4306  0.5877  1.0731
  746Sol     MW 5746   1.019   0.933   4.331  0.5379  0.3141  0.3396
  747Sol     OW 5747   2.051   3.356   3.601  0.5317  0.2256 -0.2005
  747Sol     HW 5748   2.120   3.291   3.589 -0.2029 -0.2295 -1.9813
  747Sol     HW 5749   2.019   3.341   3.690  2.0729 -0.1783  0.2953
  747Sol     MW 5750   2.054   3.349   3.608 -0.4304 -0.0217 -0.1302
  748Sol     OW 5751   3.105   2.386   8.792  0.1203 -0.2518 -0.2800
  748Sol     HW 5752   3.191   2.345   8.789 -0.4724 -1.5069 -0.4875
  748Sol     HW 5753   3.063   2.362   8.709 -0.2975  0.6402 -0.3357
  748Sol     MW 5754   3.109   2.380   8.784 -0.0356 -0.1294  0.8666
  749Sol     OW 5755   0.330   0.523   5.924 -0.1910 -0.5121  0.1176
  749Sol     HW 5756   0.235   0.508   5.915 -0.2726  0.8994 -1.5611
  749Sol     HW 5757   0.337   0.605   5.972  0.1458  0.4609 -1.5566
  749Sol     MW 5758   0.322   0.529   5.928  0.1319  0.2906 -0.4795
  750Sol     OW 5759   0.801   1.756   3.923  0.4261  0.3071  1.2411
  750Sol     HW 5760   0.766   1.668   3.935 -1.1120  0.9187  1.3730
  750Sol     HW 5761   0.896   1.744   3.921  0.2024 -1.4941  0.0199
  750Sol     MW 5762   0.807   1.747   3.924 -0.5392 -0.1136  0.0791
  751Sol     OW 5763   1.170   1.289   2.988  0.3615 -0.4897  0.0011
  751Sol     HW 5764   1.221   1.359   3.028  1.4492 -0.7633 -0.8927
  751Sol     HW 5765   1.118   1.253   3.060  1.4466 -0.2295  0.9211
  751Sol     MW 5766   1.170   1.292   2.998 -0.1493 -0.2841  0.1331
  752Sol     OW 5767   0.066   0.706   8.798  0.4201  0.3338 -0.1368
  752Sol     HW 5768   0.159   0.699   8.819  0.2075  1.5974  1.3635
  752Sol     HW 5769   0.024   0.641   8.854  0.0586  2.3077  1.9753
  752Sol     MW 5770   0.070   0.700   8.805 -0.0006  0.2275  0.4504
  753Sol     OW 5771   0.032   0.646   4.176 -0.4027 -0.2027 -0.3675
  753Sol     HW 5772  -0.023   0.713   4.135 -0.7602 -0.4324 -0.2731
  753Sol     HW 5773  -0.022   0.567   4.173 -0.7642 -0.0245  1.2999
  753Sol     MW 5774   0.022   0.645   4.172  1.4922  0.8444 -0.0660
  754Sol     OW 5775   0.210   0.432  10.238  0.0672 -0.1428 -0.0280
  754Sol     HW 5776   0.126   0.472  10.216 -0.6409 -0.8734  1.3053
  754Sol     HW 5777   0.187   0.347  10.275  1.3977 -0.3484  0.3644
  754Sol     MW 5778   0.201   0.428  10.239  0.5736 -0.2561 -0.0408
  755Sol     OW 5779   2.028   2.980   6.381  0.2232  0.6396 -0.1983
  755Sol     HW 5780   2.059   2.989   6.471 -1.3661  1.8243  0.2549
  755Sol     HW 5781   1.936   2.953   6.390 -0.0283  1.0191 -1.4561
  755Sol     MW 5782   2.022   2.978   6.390  0.7117  0.0222  0.3778
  756Sol     OW 5783   0.988   3.024   4.425  0.2700  0.4564  0.5021
  756Sol     HW 5784   0.930   3.010   4.350  1.3418 -0.5783 -0.1403
  756Sol     HW 5785   0.941   2.986   4.499 -0.8433  1.5770  0.3956
  756Sol     MW 5786   0.979   3.020   4.425 -0.8618  0.3856  0.3154
  757Sol     OW 5787   0.526   0.858   1.394 -0.4298 -0.5907  0.1110
  757Sol     HW 5788   0.522   0.953   1.410  0.9479 -0.1498 -1.9443
  757Sol     HW 5789   0.466   0.844   1.321 -0.2585 -1.2265  0.0953
  757Sol     MW 5790   0.521   0.866   1.389 -0.2346  0.1147  0.1154
  758Sol     OW 5791   2.749   2.308   4.844 -0.1882 -0.2573 -0.1492
  758Sol     HW 5792   2.842   2.326   4.833 -0.4648  0.7469 -1.0448
  758Sol     HW 5793   2.707   2.394   4.837 -1.0259 -0.4573  2.1455
  758Sol     MW 5794   2.753   2.317   4.842  0.1661  0.0730 -0.6644
  759Sol     OW 5795   1.516   3.167   7.727  0.7264  0.4994 -0.1190
  759Sol     HW 5796   1.596   3.127   7.762  0.0845  1.2250  2.3107
  759Sol     HW 5797   1.448   3.100   7.739  0.5192  0.7216 -0.0372
  759Sol     MW 5798   1.517   3.157   7.731 -0.5753 -0.6734  0.3926
  760Sol     OW 5799   0.500   1.950   9.477 -0.8933  0.2445 -0.5122
  760Sol     HW 5800   0.546   1.990   9.404 -1.2481 -2.5511 -2.3254
  760Sol     HW 5801   0.569   1.918   9.534 -0.6223  1.9780  0.1891
  760Sol     MW 5802   0.510   1.951   9.476 -0.2340  0.5207  0.0266
  761Sol     OW 5803   1.957   2.738   8.113  0.4049  0.2468  0.7179
  761Sol     HW 5804   1.886   2.792   8.077 -0.1204 -1.2724 -0.5969
  761Sol     HW 5805   1.926   2.711   8.199 -1.0654 -1.2014 -0.2367
  761Sol     MW 5806   1.948   2.741   8.117 -0.5850 -0.3612  0.0967
  762Sol     OW 5807   1.915   1.985   3.202 -0.2926  0.0225  0.1395
  762Sol     HW 5808   1.837   2.029   3.235 -1.2892 -0.2818 -1.7846
  762Sol     HW 5809   1.936   2.029   3.120  1.2055 -0.3113  0.3250
  762Sol     MW 5810   1.910   1.992   3.198  0.2497 -0.0765  0.0775
  763Sol     OW 5811   2.649   1.317   5.528 -0.3626  0.1146 -0.5290
  763Sol     HW 5812   2.719   1.353   5.582 -0.4522  0.9969 -1.0068
  763Sol     HW 5813   2.594   1.391   5.506 -1.3513 -0.5438 -0.3244
  763Sol     MW 5814   2.651   1.327   5.531 -0.3394  0.1260  0.6767
  764Sol     OW 5815   2.535   0.500   9.070  0.5984 -0.5495  0.3418
  764Sol     HW 5816   2.508   0.538   9.154 -0.8642 -0.0573 -0.3571
  764Sol     HW 5817   2.536   0.405   9.086 -1.2587 -0.5526  0.4419
  764Sol     MW 5818   2.533   0.494   9.079 -0.0343  0.9494  0.3035
  765Sol     OW 5819   2.251   0.512   1.526  0.3166  0.3559 -0.6997
  765Sol     HW 5820   2.216   0.424   1.538 -2.4387  1.1237 -2.4502
  765Sol     HW 5821   2.319   0.502   1.460  0.6624 -0.6141 -0.1940
  765Sol     MW 5822   2.254   0.503   1.521 -0.4862 -0.2006 -0.4889
  766Sol     OW 5823   1.699   2.629   6.300 -0.4598 -0.0379  0.0687
  766Sol     HW 5824   1.695   2.700   6.364  0.4729 -1.7124  2.0088
  766Sol     HW 5825   1.785   2.641   6.258  0.6167 -1.2432  1.8712
  766Sol     MW 5826   1.707   2.637   6.302 -0.5135 -0.0874 -0.2292
  767Sol     OW 5827   2.872   1.392   7.942  0.4979  0.0250 -0.5402
  767Sol     HW 5828   2.968   1.397   7.947  0.3483  1.9104  1.3786
  767Sol     HW 5829   2.849   1.314   7.992  0.9085  0.9307  1.0839
  767Sol     MW 5830   2.879   1.386   7.947 -0.4287  0.0064 -0.0743
  768Sol     OW 5831   1.784   2.750   5.823  0.3915 -0.1377 -0.3063
  768Sol     HW 5832   1.731   2.741   5.902  1.2940 -2.1446  0.1105
  768Sol     HW 5833   1.832   2.667   5.817  1.9333  0.8273 -1.7880
  768Sol     MW 5834   1.784   2.741   5.829 -0.0244 -0.4138  0.5542
  769Sol     OW 5835   1.091   1.349   4.141 -0.2650 -0.2585 -0.2018
  769Sol     HW 5836   1.140   1.426   4.111  0.2112 -0.4147  0.1609
  769Sol     HW 5837   1.003   1.362   4.107 -0.1239  0.3255 -0.3590
  769Sol     MW 5838   1.088   1.358   4.135 -0.4118 -0.5014  0.1667
  770Sol     OW 5839   0.356   1.268   3.401  0.0673 -0.9077 -0.3761
  770Sol     HW 5840   0.425   1.208   3.374  0.0015 -1.8899  1.6029
  770Sol     HW 5841   0.283   1.249   3.342  0.3757 -2.0860 -0.3744
  770Sol     MW 5842   0.355   1.261   3.393 -0.3462  0.1508 -0.1645
  771Sol     OW 5843   2.063   0.934   5.364  0.4782 -0.6181  0.5330
  771Sol     HW 5844   2.145   0.957   5.320 -0.9911  1.5089 -1.2359
  771Sol     HW 5845   2.054   0.999   5.434 -1.9995  2.2882 -2.3224
  771Sol     MW 5846   2.069   0.942   5.366 -0.0438 -0.0091 -0.0313
  772Sol     OW 5847   1.364   2.783   8.971 -0.1247  0.0654 -0.1136
  772Sol     HW 5848   1.302   2.713   8.952  0.3100 -1.2733  3.1992
  772Sol     HW 5849   1.319   2.863   8.942 -2.1690 -1.1782 -0.4606
  772Sol     MW 5850   1.354   2.784   8.966  0.0728  0.2544  0.3146
  773Sol     OW 5851   1.511   0.366   6.533 -0.0052 -0.6461 -0.1360
  773Sol     HW 5852   1.544   0.438   6.587 -0.3389 -0.8917  0.4050
  773Sol     HW 5853   1.525   0.395   6.443  0.0977 -0.0157  0.0786
  773Sol     MW 5854   1.515   0.375   6.530  0.6857 -0.4812  0.4826
  774Sol     OW 5855   2.447   0.370   8.427 -0.3836 -0.1064 -0.2369
  774Sol     HW 5856   2.358   0.363   8.391  0.6054 -1.1079 -2.6595
  774Sol     HW 5857   2.445   0.316   8.506 -2.4938  1.6570  0.9418
  774Sol     MW 5858   2.439   0.364   8.430  0.3136  0.0413 -0.4835
  775Sol     OW 5859   0.489   0.088   5.298  0.2790 -0.0656  0.6056
  775Sol     HW 5860   0.580   0.080   5.267  0.5508  0.1897  1.3193
  775Sol     HW 5861   0.497   0.134   5.382 -0.5874  0.7833  0.2314
  775Sol     MW 5862   0.498   0.092   5.303  0.6276 -0.4321 -0.0196
  776Sol     OW 5863   2.765   3.052   5.635  0.0738 -0.0054 -0.0609
  776Sol     HW 5864   2.810   3.111   5.695  0.4657 -0.0947 -0.2610
  776Sol     HW 5865   2.757   3.102   5.554 -2.7290  1.0624  0.7889
  776Sol     MW 5866   2.768   3.062   5.633 -0.2196  0.1354 -0.8982
  777Sol     OW 5867   1.382   1.975   5.268 -0.2114  0.2727 -0.3562
  777Sol     HW 5868   1.462   2.023   5.248 -0.0819  0.3391  0.3178
  777Sol     HW 5869   1.315   2.042   5.275 -0.2707  0.2431 -0.6063
  777Sol     MW 5870   1.383   1.985   5.266 -0.4451  0.4621  0.6226
  778Sol     OW 5871   1.452   0.382   9.061 -0.4231 -0.1457  0.0631
  778Sol     HW 5872   1.442   0.422   9.147  2.2135  2.3752 -0.7112
  778Sol     HW 5873   1.513   0.310   9.074 -1.2758 -0.7736  0.5825
  778Sol     MW 5874   1.456   0.379   9.070  0.4706 -0.2061  0.3393
  779Sol     OW 5875   1.971   3.210   1.734  0.2049  0.0597  0.1370
  779Sol     HW 5876   1.959   3.115   1.739  0.5498  0.0602  1.1159
  779Sol     HW 5877   2.046   3.222   1.677 -0.1462 -0.2374 -0.3881
  779Sol     MW 5878   1.977   3.202   1.730  0.5863  0.3622 -0.2444
  780Sol     OW 5879   2.720   1.127   5.861 -0.0104  0.4483 -0.9957
  780Sol     HW 5880   2.626   1.140   5.849 -0.4159  1.1855  2.4656
  780Sol     HW 5881   2.758   1.212   5.839 -0.1402  0.1872 -2.2804
  780Sol     MW 5882   2.715   1.136   5.858 -0.0581  0.6794 -0.7649
  781Sol     OW 5883   1.613   0.657   3.983 -0.1241 -0.0188 -0.0989
  781Sol     HW 5884   1.625   0.638   4.076 -1.5790 -0.2592  0.0531
  781Sol     HW 5885   1.537   0.715   3.980  0.0836  0.2239 -1.1264
  781Sol     MW 5886   1.607   0.661   3.991  0.0535 -0.0175  0.0007
  782Sol     OW 5887   0.950   0.444   6.736  0.4319  0.0054  0.1622
  782Sol     HW 5888   0.870   0.493   6.717  0.4037 -0.5690 -1.2947
  782Sol     HW 5889   1.021   0.505   6.717  0.3850 -0.3248 -1.1326
  782Sol     MW 5890   0.949   0.454   6.732 -0.0465 -0.2150  0.1051
  783Sol     OW 5891   2.542   1.392   2.284  0.2224  0.5459 -0.1549
  783Sol     HW 5892   2.473   1.349   2.335 -0.9179 -0.3940 -2.3901
  783Sol     HW 5893   2.499   1.470   2.249  0.2057 -0.1382 -1.7020
  783Sol     MW 5894   2.532   1.395   2.285 -0.4048  0.7342 -0.3502
  784Sol     OW 5895   2.396   0.162   8.045  0.2447  0.6109 -0.1535
  784Sol     HW 5896   2.314   0.201   8.074 -0.0608  1.3096 -1.8915
  784Sol     HW 5897   2.389   0.158   7.949  1.0431 -1.9525 -0.1714
  784Sol     MW 5898   2.388   0.165   8.039 -0.0391  0.4624 -0.2204
  785Sol     OW 5899   2.719   2.602   5.077  0.2866 -0.6177 -0.0011
  785Sol     HW 5900   2.775   2.586   5.153  0.4828 -0.5734 -0.1348
  785Sol     HW 5901   2.689   2.692   5.087  0.1501 -0.6780  0.1286
  785Sol     MW 5902   2.722   2.609   5.084  0.6938 -0.1028 -0.1761
  786Sol     OW 5903   3.099   2.566   3.530 -0.3341 -0.3674  0.9937
  786Sol     HW 5904   3.190   2.557   3.560  0.4967  0.5725 -1.1019
  786Sol     HW 5905   3.064   2.638   3.581  1.0981  1.3036 -0.3251
  786Sol     MW 5906   3.104   2.571   3.537  0.0345  0.1968  0.4090
  787Sol     OW 5907   2.224   1.143   8.867  0.1566 -0.0823 -0.2858
  787Sol     HW 5908   2.133   1.166   8.888  0.1115 -0.4840 -0.0246
  787Sol     HW 5909   2.234   1.165   8.775  0.1452  1.0579 -0.0261
  787Sol     MW 5910   2.217   1.147   8.861  0.2310  0.5018 -0.4589
  788Sol     OW 5911   0.340   0.945   2.090 -0.2899 -0.0757 -0.3492
  788Sol     HW 5912   0.262   0.897   2.119 -0.4108 -0.4529 -1.2789
  788Sol     HW 5913   0.323   1.036   2.114 -1.9062  0.1812 -2.3296
  788Sol     MW 5914   0.331   0.948   2.095  0.0580 -0.1454 -0.1865
  789Sol     OW 5915   1.112   0.723   7.811  0.0519 -0.0667 -0.3095
  789Sol     HW 5916   1.048   0.786   7.779 -1.4905 -1.1662  0.4930
  789Sol     HW 5917   1.096   0.719   7.906  3.4544  1.9680  0.4377
  789Sol     MW 5918   1.105   0.728   7.817 -0.0740 -0.5205 -0.2111
  790Sol     OW 5919   1.150   0.427   6.052 -0.6876  0.3620  0.4234
  790Sol     HW 5920   1.173   0.348   6.101  0.8030 -0.0103 -0.8391
  790Sol     HW 5921   1.157   0.401   5.960  0.2729  2.0871 -0.0148
  790Sol     MW 5922   1.152   0.418   6.048  0.3139  0.1746  0.1809
  791Sol     OW 5923   2.589   0.567   3.467 -0.5944  0.5998 -0.3309
  791Sol     HW 5924   2.603   0.642   3.409  2.4425 -0.7357 -1.4032
  791Sol     HW 5925   2.610   0.600   3.554  0.9028  0.9883 -0.8191
  791Sol     MW 5926   2.592   0.577   3.470 -0.1732  0.0353  0.7486
  792Sol     OW 5927   1.038   1.669   5.115  0.0669  0.2055  0.4843
  792Sol     HW 5928   1.001   1.638   5.033 -0.5560  1.3989  0.2910
  792Sol     HW 5929   1.119   1.714   5.089 -1.4003  2.7983  0.1855
  792Sol     MW 5930   1.042   1.671   5.105 -0.0609 -0.7402  0.2949
  793Sol     OW 5931   0.368   1.416   3.006 -0.5141 -0.0278  0.3724
  793Sol     HW 5932   0.285   1.460   3.025 -0.7286  0.0065 -0.6067
  793Sol     HW 5933   0.367   1.403   2.911  0.9228  0.6135  0.2579
  793Sol     MW 5934   0.361   1.418   2.999 -0.0186 -0.0196  0.8134
  794Sol     OW 5935   1.901   2.478   6.859  0.0718 -0.7651 -0.3957
  794Sol     HW 5936   1.810   2.492   6.881  0.5300  0.0688  0.9746
  794Sol     HW 5937   1.929   2.405   6.915  0.7438  0.1846  0.5188
  794Sol     MW 5938   1.896   2.473   6.866  0.0693 -0.1412  0.0836
  795Sol     OW 5939   2.900   2.969   1.771  0.3694 -0.1203  0.2452
  795Sol     HW 5940   2.894   3.062   1.797  1.0927 -0.0340  0.0938
  795Sol     HW 5941   2.993   2.950   1.772  0.2179 -0.8559  0.2789
  795Sol     MW 5942   2.908   2.976   1.774 -0.1906 -0.0063 -0.4823
  796Sol     OW 5943   2.471   0.550   7.408  0.1633  0.1529  0.0735
  796Sol     HW 5944   2.558   0.534   7.371 -0.5850 -1.8237 -0.9331
  796Sol     HW 5945   2.423   0.468   7.391 -1.2895  0.5085  2.3290
  796Sol     MW 5946   2.474   0.541   7.403 -0.3994  0.3983 -0.4468
  797Sol     OW 5947   0.402   3.316   9.581 -0.2201  0.0079  0.2749
  797Sol     HW 5948   0.332   3.267   9.538 -0.9449  0.3219  1.0799
  797Sol     HW 5949   0.357   3.367   9.648  0.5486  1.5400 -0.3383
  797Sol     MW 5950   0.392   3.316   9.583  0.6105 -0.0878 -0.3877
  798Sol     OW 5951   2.856   0.305   5.692  0.2717 -0.8177  0.3994
  798Sol     HW 5952   2.884   0.286   5.781  0.9297  2.0642  0.8397
  798Sol     HW 5953   2.935   0.294   5.639  0.7685  0.9884  0.7230
  798Sol     MW 5954   2.866   0.302   5.695 -0.3395 -0.1080  0.0815
  799Sol     OW 5955   1.087   1.148   2.349  0.0092 -0.2080 -0.3427
  799Sol     HW 5956   1.050   1.234   2.366 -0.6986 -0.7555  1.0007
  799Sol     HW 5957   1.015   1.087   2.367  0.0697 -1.0243 -2.6161
  799Sol     MW 5958   1.077   1.150   2.352  0.3234  0.1209 -0.2869
  800Sol     OW 5959   0.468   1.219   9.041  0.1384 -0.0676 -0.2659
  800Sol     HW 5960   0.529   1.175   8.981  0.6847  2.2255 -1.4477
  800Sol     HW 5961   0.402   1.258   8.984 -0.8521 -0.1603  0.8194
  800Sol     MW 5962   0.468   1.219   9.030 -0.3266 -0.0937 -0.1965
  801Sol     OW 5963   1.334   2.135   2.567 -0.1208 -0.4020  0.2460
  801Sol     HW 5964   1.267   2.067   2.568 -2.0631  1.4681 -0.3323
  801Sol     HW 5965   1.286   2.217   2.577  1.9815  1.0626 -1.2742
  801Sol     MW 5966   1.324   2.136   2.568 -0.3019 -0.0417  0.2257
  802Sol     OW 5967   1.880   1.023   8.093 -0.4054 -0.3552  0.1856
  802Sol     HW 5968   1.950   0.959   8.108 -0.6040 -0.3700  1.1271
  802Sol     HW 5969   1.922   1.094   8.044  0.2084 -0.4899  0.5031
  802Sol     MW 5970   1.890   1.024   8.090  0.4681  0.2921 -0.5433
  803Sol     OW 5971   2.031   1.735   3.595  0.1119 -0.0900 -0.0245
  803Sol     HW 5972   2.031   1.773   3.683 -0.7425 -1.6233  0.6656
  803Sol     HW 5973   1.951   1.769   3.554  0.2706  0.2692 -0.0282
  803Sol     MW 5974   2.024   1.741   3.599 -0.1560  0.3164 -0.8906
  804Sol     OW 5975   1.649   1.262  10.143  0.4596 -0.3777  0.0365
  804Sol     HW 5976   1.569   1.286  10.096  0.5062  3.2617  1.6257
  804Sol     HW 5977   1.632   1.175  10.179 -2.2991 -0.1364 -0.6312
  804Sol     MW 5978   1.641   1.256  10.142  0.6458 -0.1099 -0.2837
  805Sol     OW 5979   3.102   2.549   2.877 -0.2704  0.3270 -0.3838
  805Sol     HW 5980   3.115   2.458   2.905 -1.1162  0.6956  1.2912
  805Sol     HW 5981   3.128   2.550   2.785 -0.2007 -1.6083 -0.4064
  805Sol     MW 5982   3.105   2.541   2.871  0.6207 -0.6691  0.0626
  806Sol     OW 5983   1.109   2.550   9.772  1.1137  0.2271 -0.1811
  806Sol     HW 5984   1.066   2.472   9.808 -0.7392  1.2390 -0.1260
  806Sol     HW 5985   1.073   2.559   9.684  1.2058  1.1154 -0.1290
  806Sol     MW 5986   1.102   2.544   9.768 -0.4899 -0.4080  0.7277
  807Sol     OW 5987   0.585   1.523   3.193  0.8508  0.3224 -0.0644
  807Sol     HW 5988   0.674   1.511   3.162  0.5562 -0.5009 -0.5957
  807Sol     HW 5989   0.531   1.476   3.130  0.1454 -0.2769  0.9855
  807Sol     MW 5990   0.588   1.518   3.185  0.3479  0.1721  0.3943
  808Sol     OW 5991   1.130   0.304   2.392  0.4756  1.0390  0.0206
  808Sol     HW 5992   1.136   0.210   2.404 -0.6300  0.8450 -0.8926
  808Sol     HW 5993   1.146   0.340   2.479  2.3720  0.0831  0.0812
  808Sol     MW 5994   1.132   0.299   2.401 -0.2058  0.1552  0.6267
  809Sol     OW 5995   0.224   2.501   3.640 -0.2793  0.1014 -0.7942
  809Sol     HW 5996   0.240   2.572   3.702  0.3442  0.2944 -1.1696
  809Sol     HW 5997   0.179   2.434   3.692 -1.1985  0.9148 -0.5278
  809Sol     MW 5998   0.222   2.502   3.651 -0.6246 -0.0278 -0.4049
  810Sol     OW 5999   0.113   0.965   8.717 -0.0842  0.3633  0.1787
  810Sol     HW 6000   0.071   0.879   8.720  0.9537 -0.1667 -0.0500
  810Sol     HW 6001   0.162   0.971   8.799 -0.2312  0.7799  0.2367
  810Sol     MW 6002   0.113   0.957   8.724  0.3182 -0.2261 -0.0641
  811Sol     OW 6003   1.525   1.811   9.054  0.0023 -0.0730 -0.2865
  811Sol     HW 6004   1.432   1.824   9.036 -0.2525 -2.0342 -0.4626
  811Sol     HW 6005   1.541   1.862   9.134 -1.4198 -0.4566  0.2461
  811Sol     MW 6006   1.518   1.817   9.060  0.0753 -0.0208  0.5081
  812Sol     OW 6007   2.778   2.263   2.311  0.0791 -0.3829 -0.0385
  812Sol     HW 6008   2.683   2.273   2.314  0.0837 -0.1881 -0.4518
  812Sol     HW 6009   2.794   2.174   2.342 -0.4114 -1.2350 -2.1351
  812Sol     MW 6010   2.771   2.256   2.314 -0.1113  0.2475 -0.1859
  813Sol     OW 6011   1.404   2.423   6.203 -0.2449  0.2156  0.0787
  813Sol     HW 6012   1.336   2.470   6.155 -0.4094  0.2037  0.2991
  813Sol     HW 6013   1.420   2.476   6.281 -0.7772 -0.3423  0.5692
  813Sol     MW 6014   1.399   2.432   6.206  0.4273  0.5323  0.3889
  814Sol     OW 6015   2.438   0.795   4.401 -0.2381 -0.6113 -0.5260
  814Sol     HW 6016   2.428   0.822   4.492 -2.2956 -0.9282 -0.6299
  814Sol     HW 6017   2.369   0.843   4.354  2.1595  1.2082 -2.2913
  814Sol     MW 6018   2.431   0.801   4.405 -0.5039 -0.1083  0.7880
  815Sol     OW 6019   0.636   0.311   6.369 -0.3777  0.3221 -0.7457
  815Sol     HW 6020   0.566   0.262   6.325 -0.4527  0.3161 -0.6191
  815Sol     HW 6021   0.626   0.290   6.461 -1.0558  1.3995 -0.5737
  815Sol     MW 6022   0.629   0.304   6.373  0.4124  0.6098  0.3090
  816Sol     OW 6023   1.263   0.198   3.145 -0.1006  0.3695 -0.5648
  816Sol     HW 6024   1.332   0.155   3.196 -0.6029  0.4176  0.1656
  816Sol     HW 6025   1.296   0.285   3.128  0.4766  0.0377 -1.1417
  816Sol     MW 6026   1.272   0.202   3.148  0.4502  0.3504 -0.4839
  817Sol     OW 6027   1.799   1.214   4.820 -0.0308 -0.1794 -0.7599
  817Sol     HW 6028   1.889   1.184   4.837  0.4950  0.3941 -2.4555
  817Sol     HW 6029   1.810   1.297   4.774 -1.4169 -0.8285 -2.2871
  817Sol     MW 6030   1.808   1.219   4.818  0.2407  0.2266 -0.4086
  818Sol     OW 6031   0.238   1.288  10.348  0.3994  0.2635 -0.2071
  818Sol     HW 6032   0.202   1.332  10.271 -0.8626 -0.7177 -0.1915
  818Sol     HW 6033   0.216   1.196  10.336  0.5858  0.0353  1.1095
  818Sol     MW 6034   0.233   1.284  10.340 -0.0051  0.3494 -0.4705
  819Sol     OW 6035   2.994   2.717   9.368  0.2562  0.0542  0.1124
  819Sol     HW 6036   3.058   2.714   9.439  0.4480 -0.7189 -0.0892
  819Sol     HW 6037   3.044   2.744   9.291  0.4109 -0.8670 -0.1162
  819Sol     MW 6038   3.004   2.719   9.367  0.7296  0.5306 -0.1288
  820Sol     OW 6039   2.449   0.494   4.645  0.6237  0.2095 -0.0908
  820Sol     HW 6040   2.538   0.498   4.681  0.4691  2.6174  0.1159
  820Sol     HW 6041   2.418   0.585   4.648 -1.2822 -0.3605 -1.5797
  820Sol     MW 6042   2.455   0.503   4.649 -0.4454 -0.5030 -1.2912
  821Sol     OW 6043   3.093   1.529   7.682  0.0356 -0.1026  0.7566
  821Sol     HW 6044   2.997   1.529   7.684  0.0456  0.4840  2.7656
  821Sol     HW 6045   3.116   1.450   7.634 -1.4672 -1.5216  2.2758
  821Sol     MW 6046   3.086   1.522   7.678  0.2879 -0.5778 -1.2207
  822Sol     OW 6047   1.227   1.706   3.608 -0.1125  0.0797 -0.6963
  822Sol     HW 6048   1.250   1.726   3.698  1.2565  0.2641 -1.0825
  822Sol     HW 6049   1.214   1.611   3.607  1.0011 -0.0838 -0.5443
  822Sol     MW 6050   1.228   1.699   3.616  0.0570 -0.8313 -0.0555
  823Sol     OW 6051   0.986   2.644   4.561  0.0934 -0.0184 -0.2719
  823Sol     HW 6052   1.071   2.633   4.603 -0.5103  0.8586  1.2005
  823Sol     HW 6053   1.007   2.661   4.469  1.4454 -1.2008 -0.1971
  823Sol     MW 6054   0.996   2.644   4.556  0.6257 -0.6755  0.3307
  824Sol     OW 6055   2.165   2.849   3.122 -0.1465 -0.1972  0.2633
  824Sol     HW 6056   2.075   2.865   3.091  0.4996  0.5831 -1.2314
  824Sol     HW 6057   2.219   2.907   3.069  1.4306 -1.9025 -0.0366
  824Sol     MW 6058   2.161   2.856   3.114 -0.5488  0.2595 -0.8199
  825Sol     OW 6059   1.218   2.096   9.753  0.8832  0.2410  0.4766
  825Sol     HW 6060   1.255   2.184   9.747  3.5603 -0.7589  1.5783
  825Sol     HW 6061   1.232   2.069   9.843 -1.4400 -0.7193  0.6019
  825Sol     MW 6062   1.222   2.101   9.760 -0.3284 -0.4482  0.0986
  826Sol     OW 6063   0.405   0.896   7.739  0.1632 -0.1463  0.4142
  826Sol     HW 6064   0.493   0.903   7.702 -0.4487 -3.0118 -1.7026
  826Sol     HW 6065   0.346   0.902   7.664 -1.3915 -0.1899  1.5919
  826Sol     MW 6066   0.407   0.898   7.729  0.6145 -0.0633  0.7494
  827Sol     OW 6067   1.642   2.057   3.874  0.5077 -0.4020 -0.1906
  827Sol     HW 6068   1.558   2.077   3.833  1.3164  2.9313 -0.3816
  827Sol     HW 6069   1.706   2.070   3.804  1.2065 -2.9023 -0.0427
  827Sol     MW 6070   1.640   2.060   3.864 -0.3801 -0.4084 -1.1142
  828Sol     OW 6071   1.643   2.676   6.040  0.2468  0.1033  0.1425
  828Sol     HW 6072   1.566   2.629   6.006 -0.0404 -0.6753  1.7974
  828Sol     HW 6073   1.653   2.643   6.129  2.3932  0.3486  0.0238
  828Sol     MW 6074   1.637   2.669   6.045 -0.1049 -0.6849 -0.3974
  829Sol     OW 6075   0.090   3.090   6.610  0.5897  0.2967  0.3735
  829Sol     HW 6076   0.113   3.133   6.528  1.4060  0.2005  0.5422
  829Sol     HW 6077   0.128   3.146   6.678 -0.7178  0.7703  0.7311
  829Sol     MW 6078   0.096   3.099   6.609  0.5009 -0.1853 -0.4502
  830Sol     OW 6079   0.168   0.362   3.574 -0.1439  0.3640  0.6147
  830Sol     HW 6080   0.174   0.337   3.666  0.5702  1.9275  0.9934
  830Sol     HW 6081   0.258   0.377   3.547 -0.5391  2.3722  0.3416
  830Sol     MW 6082   0.176   0.361   3.580 -0.2128  0.4303 -0.1467
  831Sol     OW 6083   2.207   1.165   1.395  0.0822 -0.0713  0.3673
  831Sol     HW 6084   2.147   1.144   1.466  0.8262  0.8828  1.2882
  831Sol     HW 6085   2.223   1.259   1.403  1.1761 -0.1878 -0.2699
  831Sol     MW 6086   2.203   1.172   1.402  0.0052 -0.1113 -0.1747
  832Sol     OW 6087   0.006   1.948   1.880 -0.2154  0.2357 -0.0830
  832Sol     HW 6088   0.077   1.969   1.940 -0.3815  0.3296  0.0830
  832Sol     HW 6089   0.045   1.889   1.816 -0.3537 -0.9274  0.8724
  832Sol     MW 6090   0.016   1.944   1.880  0.1446  0.5078  0.3926
  833Sol     OW 6091   1.515   0.851   9.121  0.5272 -0.1043 -0.1972
  833Sol     HW 6092   1.463   0.772   9.137  0.5412  0.1222  0.9980
  833Sol     HW 6093   1.605   0.820   9.112  0.5792 -0.1842  0.6210
  833Sol     MW 6094   1.518   0.842   9.121  0.2082  0.1275 -0.2089
  834Sol     OW 6095   0.081   1.793   6.186  0.6421  0.7675  0.0308
  834Sol     HW 6096   0.012   1.768   6.248  0.0166  1.3300 -0.4309
  834Sol     HW 6097   0.075   1.888   6.181 -1.1614  0.5674 -2.9790
  834Sol     MW 6098   0.074   1.799   6.192 -0.3019 -0.3586 -0.0075
  835Sol     OW 6099   2.893   1.666   9.439  0.3923 -0.1315  0.3884
  835Sol     HW 6100   2.797   1.664   9.435  0.3516  0.3413  1.0687
  835Sol     HW 6101   2.919   1.725   9.368  0.1255  0.6286  0.9175
  835Sol     MW 6102   2.886   1.671   9.433 -0.3110 -0.1540  0.4474
  836Sol     OW 6103   2.346   3.231   4.224  0.0248  0.0534 -0.7885
  836Sol     HW 6104   2.264   3.267   4.193  0.4364  0.9870 -0.8015
  836Sol     HW 6105   2.404   3.233   4.148 -1.0622 -4.2383 -1.9084
  836Sol     MW 6106   2.344   3.234   4.215  0.1950 -0.7173  0.5399
  837Sol     OW 6107   2.098   2.572   7.090  0.3612 -0.3986  0.2454
  837Sol     HW 6108   2.097   2.623   7.009 -1.1821  0.9510  1.0912
  837Sol     HW 6109   2.009   2.578   7.124  0.7514 -1.7436  1.5670
  837Sol     MW 6110   2.090   2.577   7.086 -0.2633  0.0602 -0.0853
  838Sol     OW 6111   1.230   0.379   9.334  0.2338  0.0248 -0.8418
  838Sol     HW 6112   1.191   0.436   9.267  0.5247  0.9838 -0.1858
  838Sol     HW 6113   1.319   0.410   9.344  0.1641 -0.0578  0.0732
  838Sol     MW 6114   1.234   0.387   9.329  0.3551 -0.5541 -0.6509
  839Sol     OW 6115   2.566   3.091   2.500 -0.4739  0.1137 -0.3802
  839Sol     HW 6116   2.581   3.175   2.457  0.2994  0.7405  1.0766
  839Sol     HW 6117   2.477   3.098   2.534 -1.1200 -0.4202 -1.9478
  839Sol     MW 6118   2.559   3.099   2.499 -0.4347  0.1113 -0.1441
  840Sol     OW 6119   2.934   2.021   5.968  0.4635 -0.5243 -0.1147
  840Sol     HW 6120   2.988   2.065   5.902 -1.6511  1.0593 -0.8540
  840Sol     HW 6121   2.974   2.045   6.051  1.0443  0.4411 -0.6612
  840Sol     MW 6122   2.942   2.027   5.969  0.7389  0.0546  0.0454
  841Sol     OW 6123   2.661   0.865   7.796 -0.1236  0.2650 -0.3468
  841Sol     HW 6124   2.748   0.894   7.824 -0.7777 -1.2358  3.5095
  841Sol     HW 6125   2.603   0.938   7.816 -0.1512  0.3122 -0.5908
  841Sol     MW 6126   2.664   0.874   7.800  0.2114  0.0802 -0.0471
  842Sol     OW 6127   1.929   1.732   9.785 -0.1208  0.2780 -0.0612
  842Sol     HW 6128   1.841   1.702   9.807 -0.3647 -0.5901 -2.0414
  842Sol     HW 6129   1.917   1.822   9.754 -0.5894 -0.3775 -1.8824
  842Sol     MW 6130   1.920   1.737   9.784 -0.2782 -0.3471  0.7121
  843Sol     OW 6131   2.080   0.773   1.861  0.6956 -0.2784  0.2607
  843Sol     HW 6132   2.043   0.862   1.866 -1.1497 -0.9969  0.0217
  843Sol     HW 6133   2.131   0.773   1.780 -0.3560  0.1909 -0.4141
  843Sol     MW 6134   2.081   0.781   1.854 -0.0742  0.1449  0.1573
  844Sol     OW 6135   2.563   0.403   1.704  0.0725 -0.0124  0.0377
  844Sol     HW 6136   2.630   0.404   1.772  0.1077 -0.3113  0.0100
  844Sol     HW 6137   2.489   0.451   1.742  0.5757  0.9794 -0.2145
  844Sol     MW 6138   2.563   0.407   1.713  0.3229  0.4137  0.1392
  845Sol     OW 6139   2.579   2.553   6.950  0.1337 -0.1098 -0.5082
  845Sol     HW 6140   2.503   2.586   6.902  0.1192 -0.9466 -1.0691
  845Sol     HW 6141   2.650   2.552   6.886  0.7149  1.0263  0.1172
  845Sol     MW 6142   2.579   2.556   6.940  1.0205 -0.5216 -0.4307
  846Sol     OW 6143   0.160   0.431   1.731  0.0779 -0.0882 -0.2938
  846Sol     HW 6144   0.215   0.416   1.654  0.5947  1.0080 -0.1579
  846Sol     HW 6145   0.086   0.372   1.720 -1.7358  2.6175 -3.5109
  846Sol     MW 6146   0.159   0.425   1.724 -0.7206  0.5511  0.4201
  847Sol     OW 6147   2.974   0.917   3.402 -0.6381  0.1129  0.5283
  847Sol     HW 6148   3.051   0.898   3.456 -1.4660 -3.4087  0.6425
  847Sol     HW 6149   2.900   0.907   3.462 -1.4103 -1.2406 -0.6254
  847Sol     MW 6150   2.974   0.914   3.412  0.2929  0.1377  0.1445
  848Sol     OW 6151   0.696   1.488   7.166  0.2947  0.3492  0.2974
  848Sol     HW 6152   0.673   1.538   7.245  0.3684  0.8019  0.0352
  848Sol     HW 6153   0.638   1.412   7.169 -0.2433  0.7592  0.3895
  848Sol     MW 6154   0.688   1.486   7.173 -0.1359 -0.1887 -0.7369
  849Sol     OW 6155   2.367   2.210   6.630 -0.2653 -0.0581  0.5321
  849Sol     HW 6156   2.286   2.242   6.670 -1.9339 -0.5648 -2.2635
  849Sol     HW 6157   2.401   2.286   6.583  0.3691 -0.1044  0.9215
  849Sol     MW 6158   2.363   2.219   6.629  0.5242 -0.1277 -0.5413
  850Sol     OW 6159   2.777   1.096   9.176  0.3210  0.3236 -0.4885
  850Sol     HW 6160   2.754   1.004   9.162  0.8797  0.0640  0.2880
  850Sol     HW 6161   2.775   1.106   9.271 -2.8222  1.8973 -0.6556
  850Sol     MW 6162   2.775   1.088   9.183  1.1569 -0.1713  0.4272
  851Sol     OW 6163   2.862   0.231   3.642  0.1143 -1.0014  0.3272
  851Sol     HW 6164   2.897   0.164   3.582  0.4709  1.4283 -2.2680
  851Sol     HW 6165   2.864   0.312   3.592 -0.5958  0.9548  3.3157
  851Sol     MW 6166   2.865   0.232   3.632 -0.0743 -0.0015 -0.5094
  852Sol     OW 6167   2.116   2.109  10.209 -0.1599  0.0965  0.2252
  852Sol     HW 6168   2.202   2.133  10.241 -0.4146 -0.2290  1.1663
  852Sol     HW 6169   2.131   2.030  10.157  0.2579  0.6429 -0.4875
  852Sol     MW 6170   2.125   2.104  10.207 -0.2632  0.1853 -0.0166
  853Sol     OW 6171   2.155   2.407   5.403  0.0112  0.1175  0.2503
  853Sol     HW 6172   2.122   2.462   5.473 -2.2515  0.7066 -1.2356
  853Sol     HW 6173   2.106   2.325   5.411 -0.1940  0.1527 -0.5674
  853Sol     MW 6174   2.148   2.404   5.410 -0.5945  0.7327 -0.1834
  854Sol     OW 6175   2.182   0.089   9.085  0.1583  0.0163  0.3226
  854Sol     HW 6176   2.108   0.074   9.144 -0.1292  0.2437  0.0237
  854Sol     HW 6177   2.187   0.184   9.077  0.5881  0.0038  0.4735
  854Sol     MW 6178   2.175   0.096   9.089 -0.0909  0.0203  0.6193
  855Sol     OW 6179   3.100   3.146   3.493 -0.0009 -0.4484  0.2358
  855Sol     HW 6180   3.049   3.127   3.572 -1.0805 -0.5821 -0.4867
  855Sol     HW 6181   3.055   3.099   3.423  0.9689 -0.3574 -0.4603
  855Sol     MW 6182   3.091   3.140   3.494  0.3147  0.1608  0.1997
  856Sol     OW 6183   1.807   2.450   2.620 -0.2453  0.1000  0.0671
  856Sol     HW 6184   1.843   2.518   2.677  0.7742  0.0258 -0.4729
  856Sol     HW 6185   1.804   2.372   2.676  1.1724 -0.0849 -0.1010
  856Sol     MW 6186   1.810   2.449   2.630 -0.2787  0.4290 -0.2499
  857Sol     OW 6187   2.324   1.204   2.568  0.1450 -0.0333  0.5090
  857Sol     HW 6188   2.273   1.215   2.648 -1.6352 -1.6150 -0.3864
  857Sol     HW 6189   2.369   1.120   2.580  0.7479  0.2561  0.2996
  857Sol     MW 6190   2.324   1.198   2.576  0.0939  0.3574  0.3106
  858Sol     OW 6191   0.225   0.902   2.981  0.3067 -0.5030 -0.0518
  858Sol     HW 6192   0.214   0.965   3.052 -0.8748  0.6950 -1.2613
  858Sol     HW 6193   0.233   0.818   3.025  1.2799  0.4068  1.5630
  858Sol     MW 6194   0.225   0.900   2.991  0.4602 -0.6421  0.2949
  859Sol     OW 6195   2.120   2.549   6.486  0.1497 -0.1019 -0.2045
  859Sol     HW 6196   2.105   2.528   6.578 -0.0526  0.6731 -0.0543
  859Sol     HW 6197   2.191   2.491   6.459 -0.3619 -0.9194  0.2083
  859Sol     MW 6198   2.125   2.542   6.492  0.2706  0.4391  0.1861
  860Sol     OW 6199   2.479   2.733   9.947 -0.0690 -0.0515  0.2445
  860Sol     HW 6200   2.519   2.811   9.908 -0.2827  0.2476  0.6153
  860Sol     HW 6201   2.469   2.672   9.875 -0.7071  0.5977 -0.2249
  860Sol     MW 6202   2.482   2.735   9.937 -0.2422  0.6063 -0.5867
  861Sol     OW 6203   1.387   3.366   3.858  0.2936  0.2444 -0.4922
  861Sol     HW 6204   1.458   3.431   3.860  0.2163  0.3419 -0.7721
  861Sol     HW 6205   1.359   3.365   3.766  0.0419  0.0888 -0.4143
  861Sol     MW 6206   1.391   3.372   3.850 -0.2321  0.4094  0.7365
  862Sol     OW 6207   0.270   2.420   7.719 -0.2385 -0.3046  0.0863
  862Sol     HW 6208   0.222   2.389   7.796 -0.2402 -1.2322 -0.2840
  862Sol     HW 6209   0.211   2.401   7.645  0.2378 -0.4454 -0.2584
  862Sol     MW 6210   0.260   2.416   7.719  0.2306 -0.0219  0.4139
  863Sol     OW 6211   2.656   2.785   5.650  0.0301  0.7223 -0.3300
  863Sol     HW 6212   2.681   2.877   5.660 -0.5831  0.7223  1.3162
  863Sol     HW 6213   2.652   2.751   5.739  0.9891 -1.1193 -0.9619
  863Sol     MW 6214   2.658   2.790   5.659  0.0976 -0.0787 -0.4746
  864Sol     OW 6215   0.602   2.969   4.486  0.2168  0.1052 -0.2814
  864Sol     HW 6216   0.666   2.917   4.437  0.3173  0.6510 -0.7498
  864Sol     HW 6217   0.586   2.919   4.566 -0.6695 -1.2664 -1.3018
  864Sol     MW 6218   0.607   2.960   4.489  0.0705  0.1558  0.7233
  865Sol     OW 6219   2.551   3.076   4.516  0.2405  0.1021  0.2006
  865Sol     HW 6220   2.567   3.156   4.467  0.0830 -0.2690 -0.4650
  865Sol     HW 6221   2.518   3.106   4.601 -0.6798  0.7249 -0.3657
  865Sol     MW 6222   2.549   3.085   4.519 -0.0478 -0.5812 -0.3999
  866Sol     OW 6223   0.325   2.827   5.739  0.7472  0.3801  0.0680
  866Sol     HW 6224   0.397   2.888   5.725 -0.4481  1.4401 -1.6676
  866Sol     HW 6225   0.248   2.883   5.747 -0.1728 -0.8417 -0.1721
  866Sol     MW 6226   0.324   2.838   5.739  0.5710  0.3863  0.6460
  867Sol     OW 6227   1.731   2.825  10.017  0.3162  0.2328 -0.2390
  867Sol     HW 6228   1.722   2.769   9.940  1.5138 -0.5232  0.1546
  867Sol     HW 6229   1.826   2.839  10.026  0.0859  1.7017  0.1110
  867Sol     MW 6230   1.739   2.821  10.011 -0.3136  0.2425  0.0454
  868Sol     OW 6231   0.938   0.086   3.498  0.2701 -0.2756  0.3636
  868Sol     HW 6232   0.922   0.172   3.460 -0.9337 -0.5335  0.2724
  868Sol     HW 6233   0.909   0.093   3.589  1.1136 -0.2986  0.6455
  868Sol     MW 6234   0.934   0.094   3.503  0.1724 -0.2129  0.2168
  869Sol     OW 6235   0.471   0.030   3.720  0.0107  0.1309  0.1871
  869Sol     HW 6236   0.474   0.016   3.814  0.7673 -0.7350  0.0521
  869Sol     HW 6237   0.560   0.007   3.690 -0.1935  0.4963 -0.7124
  869Sol     MW 6238   0.480   0.026   3.725 -0.1429 -0.3100 -0.2763
  870Sol     OW 6239   0.321   0.658   8.873 -0.0618  0.0035  0.1254
  870Sol     HW 6240   0.352   0.738   8.915  0.0883 -0.0395  0.0991
  870Sol     HW 6241   0.391   0.634   8.813  0.3177 -0.6687  0.8199
  870Sol     MW 6242   0.330   0.663   8.872 -0.4339 -0.0915 -0.3521
  871Sol     OW 6243   1.798   2.686   8.322  0.0162  0.0503 -0.0407
  871Sol     HW 6244   1.822   2.746   8.393  0.6470  0.7716 -0.8550
  871Sol     HW 6245   1.703   2.697   8.312  0.1228  0.8698 -0.1534
  871Sol     MW 6246   1.792   2.692   8.328  0.0453 -0.2256 -0.1409
  872Sol     OW 6247   1.605   0.042   5.238  0.3318  0.0217 -0.1951
  872Sol     HW 6248   1.542   0.046   5.166  0.1561 -1.2283 -0.1227
  872Sol     HW 6249   1.690   0.033   5.194  0.3495  0.5366 -0.2689
  872Sol     MW 6250   1.607   0.041   5.228  0.6701 -0.9460  0.9777
  873Sol     OW 6251   2.810   0.385   6.888  0.0741  0.3156  0.6326
  873Sol     HW 6252   2.769   0.454   6.941 -1.0118  0.9386 -0.9623
  873Sol     HW 6253   2.761   0.387   6.805  0.4074 -1.9920  0.3530
  873Sol     MW 6254   2.802   0.392   6.885 -0.2504 -0.4055 -0.1266
  874Sol     OW 6255   0.193   0.358   7.143 -0.6833  0.0110  1.0438
  874Sol     HW 6256   0.226   0.269   7.152 -2.3620 -0.7971 -0.3578
  874Sol     HW 6257   0.112   0.359   7.194 -1.3965  0.3101 -0.0785
  874Sol     MW 6258   0.189   0.350   7.148 -0.0867  0.6230  0.0269
  875Sol     OW 6259   2.064   0.658   5.453  0.2899  0.3986 -0.5845
  875Sol     HW 6260   2.073   0.753   5.457  1.1150  0.4438 -2.9898
  875Sol     HW 6261   1.977   0.640   5.490  0.6880  1.9365  1.1983
  875Sol     MW 6262   2.057   0.665   5.457  0.7909 -0.1871 -0.8201
  876Sol     OW 6263   2.645   1.536   1.962 -0.5451 -0.1279 -0.2746
  876Sol     HW 6264   2.675   1.609   1.907  0.8004 -1.8202 -1.8718
  876Sol     HW 6265   2.653   1.569   2.051 -4.0765  3.1778 -1.0562
  876Sol     MW 6266   2.649   1.546   1.965  0.1657  0.8037  0.1734
  877Sol     OW 6267   1.703   1.835   4.036  0.0614  0.0927 -0.0643
  877Sol     HW 6268   1.678   1.916   3.990 -1.8776 -0.6966 -0.4236
  877Sol     HW 6269   1.739   1.866   4.120  0.6210  1.3927 -0.7665
  877Sol     MW 6270   1.704   1.845   4.040  0.2516  0.1232  0.0838
  878Sol     OW 6271   2.212   0.043   8.643 -0.3552 -0.1589 -0.0166
  878Sol     HW 6272   2.192   0.008   8.556 -0.1957 -0.6011  0.1210
  878Sol     HW 6273   2.159  -0.010   8.702 -2.1785  1.5962 -0.0154
  878Sol     MW 6274   2.206   0.035   8.640  0.0756 -0.6361 -0.0208
  879Sol     OW 6275   2.853   2.657   3.900  0.1154  0.6305  0.3150
  879Sol     HW 6276   2.936   2.696   3.929  0.2335  0.3399  0.3735
  879Sol     HW 6277   2.835   2.590   3.966  0.3599 -0.0039 -0.2608
  879Sol     MW 6278   2.859   2.654   3.909 -1.0141  0.1104 -0.1678
  880Sol     OW 6279   2.587   1.520   4.310 -0.4844  0.1644  0.0412
  880Sol     HW 6280   2.585   1.509   4.405 -0.0010 -1.3393 -0.1142
  880Sol     HW 6281   2.502   1.558   4.288 -0.1372  1.6778  1.2008
  880Sol     MW 6282   2.579   1.522   4.317 -0.8096  0.3286 -0.3660
  881Sol     OW 6283   3.015   2.910   5.573  0.2305  0.3844 -0.0966
  881Sol     HW 6284   2.924   2.939   5.564  1.0898  2.4824 -2.5135
  881Sol     HW 6285   3.055   2.973   5.632  0.8470  1.2685 -1.4308
  881Sol     MW 6286   3.010   2.918   5.577  0.0278  0.0899  0.4056
  882Sol     OW 6287   1.188   1.852   1.902  0.3793  0.4880  0.1379
  882Sol     HW 6288   1.207   1.782   1.839  1.2187 -0.2272  1.1755
  882Sol     HW 6289   1.156   1.925   1.848 -1.9243 -1.1663 -0.8296
  882Sol     MW 6290   1.186   1.852   1.891 -0.1685 -0.2505 -0.6386
  883Sol     OW 6291   0.513   2.262   4.370  0.0848  0.5668 -0.6107
  883Sol     HW 6292   0.419   2.273   4.357 -0.8115 -3.6151  1.5092
  883Sol     HW 6293   0.526   2.275   4.464  1.3073 -0.7206 -0.5858
  883Sol     MW 6294   0.506   2.264   4.378 -0.0261  0.0725 -0.0083
  884Sol     OW 6295   1.366   1.458   4.471 -0.1373 -0.1615  0.1032
  884Sol     HW 6296   1.292   1.516   4.452 -0.5229 -0.6600  0.0661
  884Sol     HW 6297   1.358   1.439   4.564  0.2853  0.2517  0.2250
  884Sol     MW 6298   1.358   1.461   4.478 -0.2542  0.4573 -0.5040
  885Sol     OW 6299   1.360   0.099   5.098 -0.3921 -0.3954 -0.2260
  885Sol     HW 6300   1.296   0.156   5.142  1.3481  0.9838  0.5960
  885Sol     HW 6301   1.313   0.018   5.081 -1.9542  0.0839  1.6494
  885Sol     MW 6302   1.350   0.097   5.101 -0.4331 -0.1514 -0.2861
  886Sol     OW 6303   2.022   2.962   4.679 -0.0717  0.0972 -0.4699
  886Sol     HW 6304   2.020   2.921   4.765 -0.0350  0.6450 -0.2071
  886Sol     HW 6305   2.057   3.050   4.695  0.2379  0.0904 -1.0883
  886Sol     MW 6306   2.025   2.966   4.688  0.2850 -0.2391 -0.5793
  887Sol     OW 6307   2.551   0.581   4.051  0.5208 -0.9377  0.8412
  887Sol     HW 6308   2.550   0.494   4.010  0.7863 -1.5195  2.0361
  887Sol     HW 6309   2.461   0.612   4.041  0.8745 -0.4984 -1.3235
  887Sol     MW 6310   2.543   0.576   4.046 -0.2487 -0.0355  0.1508
  888Sol     OW 6311   2.322   2.665   5.660  0.2159  0.6743 -0.1073
  888Sol     HW 6312   2.369   2.650   5.578  2.1184 -2.6142  1.4861
  888Sol     HW 6313   2.232   2.643   5.640  1.0177 -2.0837 -0.8413
  888Sol     MW 6314   2.318   2.662   5.650 -0.2059  0.0411  0.0745
  889Sol     OW 6315   2.322   1.639   5.383  0.0975  0.0376  0.3805
  889Sol     HW 6316   2.387   1.708   5.373  0.6045 -0.6783 -1.4576
  889Sol     HW 6317   2.239   1.680   5.356  0.3299  0.0539 -0.3185
  889Sol     MW 6318   2.320   1.649   5.380 -0.2889 -0.6345 -0.2399
  890Sol     OW 6319   0.515   1.500   3.754 -0.0413 -0.2336 -0.0234
  890Sol     HW 6320   0.467   1.475   3.675  1.4947 -1.1016 -0.7057
  890Sol     HW 6321   0.600   1.457   3.746  0.6922  0.8667  1.3956
  890Sol     MW 6322   0.518   1.494   3.746 -0.3704 -0.2087 -0.4426
  891Sol     OW 6323   0.831   3.267   7.778  0.1940 -0.3671  0.0657
  891Sol     HW 6324   0.760   3.303   7.725 -0.7985 -1.0876  0.8925
  891Sol     HW 6325   0.868   3.343   7.824  0.2927  0.0779 -0.7523
  891Sol     MW 6326   0.828   3.277   7.778  0.1183  0.0362  0.0422
  892Sol     OW 6327   1.964   2.909   7.466 -0.7480 -0.1027 -0.0039
  892Sol     HW 6328   1.930   2.894   7.555 -1.4027  1.3980  0.0039
  892Sol     HW 6329   1.895   2.957   7.422 -0.8768 -1.7674 -1.6863
  892Sol     MW 6330   1.955   2.912   7.470  0.1685 -0.1123  0.4409
  893Sol     OW 6331   2.740   1.288   8.458  0.0496 -0.4882 -0.1569
  893Sol     HW 6332   2.822   1.334   8.476  0.0990 -0.4748 -0.4208
  893Sol     HW 6333   2.733   1.223   8.528  1.5608 -2.2068 -1.5760
  893Sol     MW 6334   2.747   1.286   8.466 -0.0665  0.2261 -0.2333
  894Sol     OW 6335   0.711   2.159   5.417 -0.1942  0.0532  0.2283
  894Sol     HW 6336   0.690   2.205   5.498  0.5123  0.9877 -0.1137
  894Sol     HW 6337   0.740   2.072   5.446  2.8363  1.3149  1.2160
  894Sol     MW 6338   0.712   2.155   5.427  0.4685  0.2963 -0.2531
  895Sol     OW 6339   1.224   0.317   3.551  0.6398 -0.3732  0.0836
  895Sol     HW 6340   1.233   0.230   3.511 -1.8736 -0.0622 -1.2601
  895Sol     HW 6341   1.160   0.304   3.621 -0.7131  0.5879 -0.9285
  895Sol     MW 6342   1.219   0.308   3.553  0.0674 -0.4832  0.5997
  896Sol     OW 6343   2.119   1.372   6.185 -0.4402 -0.7689  0.4323
  896Sol     HW 6344   2.069   1.303   6.228 -1.0194  0.7072  2.1876
  896Sol     HW 6345   2.196   1.384   6.241 -1.0736  0.9854  0.9691
  896Sol     MW 6346   2.121   1.367   6.194 -0.6095  0.2482 -0.1166
  897Sol     OW 6347   1.336   2.397   7.780 -0.0680  0.7304  0.3552
  897Sol     HW 6348   1.403   2.354   7.727 -1.1830 -0.1555 -0.3359
  897Sol     HW 6349   1.363   2.381   7.871  0.5060  0.1527  0.0859
  897Sol     MW 6350   1.345   2.392   7.784  0.3506 -0.5772 -0.5531
  898Sol     OW 6351   1.328   1.495   3.106 -0.2875  0.3786  0.5243
  898Sol     HW 6352   1.388   1.532   3.171 -0.0783 -0.8722  1.0633
  898Sol     HW 6353   1.308   1.568   3.048  3.0008  0.4633 -0.5969
  898Sol     MW 6354   1.332   1.505   3.107 -0.1078  0.1780 -0.0913
  899Sol     OW 6355   0.768   0.259   9.856 -0.4620  0.6484 -0.4621
  899Sol     HW 6356   0.715   0.337   9.845 -0.8914  0.3435 -0.5775
  899Sol     HW 6357   0.801   0.239   9.769 -1.6968 -0.2409 -0.7391
  899Sol     MW 6358   0.766   0.264   9.848  0.7504  0.3409 -0.2329
  900Sol     OW 6359   1.098   0.361   1.781 -0.2283 -0.3410  0.2658
  900Sol     HW 6360   1.035   0.304   1.825  0.0591 -0.7227  0.1853
  900Sol     HW 6361   1.181   0.343   1.826  0.0636 -0.7224 -0.4222
  900Sol     MW 6362   1.100   0.354   1.789  0.2592 -0.0700 -0.4607
  901Sol     OW 6363   1.781   0.199  10.268 -0.2347  0.1793 -0.4380
  901Sol     HW 6364   1.779   0.213  10.363 -2.8287  0.8777 -0.5723
  901Sol     HW 6365   1.805   0.285  10.232 -1.6483  0.5431 -0.5256
  901Sol     MW 6366   1.783   0.208  10.273 -0.2295 -0.7018  0.1964
  902Sol     OW 6367   0.459   2.242   6.694  0.2089  0.5396 -0.8007
  902Sol     HW 6368   0.390   2.307   6.680  1.2976  1.6341 -1.1172
  902Sol     HW 6369   0.494   2.262   6.781  1.2859  1.0880 -1.3444
  902Sol     MW 6370   0.456   2.249   6.701  0.3195 -0.8481  0.2479
  903Sol     OW 6371   3.019   2.001   6.504  0.4910  0.0768 -0.4351
  903Sol     HW 6372   3.062   2.085   6.519  3.3818 -1.4583  0.3640
  903Sol     HW 6373   3.008   1.964   6.592  0.4554 -0.9360 -0.8590
  903Sol     MW 6374   3.022   2.005   6.514  0.4875  0.0763 -0.2766
  904Sol     OW 6375   0.655   3.135   3.800 -0.2811 -0.0606  0.0122
  904Sol     HW 6376   0.701   3.068   3.750 -0.3638  0.6009 -0.9699
  904Sol     HW 6377   0.719   3.206   3.811  0.4619 -1.1074  2.7968
  904Sol     MW 6378   0.665   3.136   3.797 -0.2048  0.7866 -0.5950
  905Sol     OW 6379   0.865   0.087   8.857 -0.2967 -0.3911  0.3875
  905Sol     HW 6380   0.837   0.176   8.838  1.1077 -0.1009 -0.3718
  905Sol     HW 6381   0.793   0.032   8.826  0.0517  0.3217 -1.7791
  905Sol     MW 6382   0.856   0.090   8.853 -0.3992 -0.2502 -0.8421
  906Sol     OW 6383   3.049   1.050   2.075 -0.3485  0.4813 -0.1566
  906Sol     HW 6384   3.079   0.981   2.135  0.3693  1.1716  0.2903
  906Sol     HW 6385   2.960   1.069   2.104  0.5777  1.9870  1.7909
  906Sol     MW 6386   3.043   1.045   2.083  0.1371  0.2945  0.7004
  907Sol     OW 6387   0.171   2.112   9.916  0.5903 -0.5474  0.3613
  907Sol     HW 6388   0.105   2.181   9.914 -0.4472 -1.5189  0.6003
  907Sol     HW 6389   0.231   2.138   9.987 -1.5059 -1.4126  2.5231
  907Sol     MW 6390   0.171   2.120   9.922  0.5924 -0.1020 -0.3964
  908Sol     OW 6391   0.580   0.720   4.981  0.0839  0.4279 -0.3058
  908Sol     HW 6392   0.658   0.774   4.966  0.3292  0.3741  0.7723
  908Sol     HW 6393   0.535   0.761   5.054 -0.7432  0.2760 -0.7240
  908Sol     MW 6394   0.583   0.728   4.986  0.2726 -0.1633 -0.3274
  909Sol     OW 6395   0.468   2.980   6.619 -0.1003  0.2294  0.5367
  909Sol     HW 6396   0.376   2.952   6.624 -0.4052  1.2945  1.2296
  909Sol     HW 6397   0.518   2.899   6.626 -1.0100 -0.5735 -1.9425
  909Sol     MW 6398   0.464   2.970   6.620 -0.5683  0.2850 -0.0905
  910Sol     OW 6399   2.052   0.036  10.488 -0.2120 -0.5611 -0.2215
  910Sol     HW 6400   1.984   0.065  10.549  1.7530 -1.4675  2.5018
  910Sol     HW 6401   2.106   0.114  10.473 -0.2407 -0.5292 -0.1591
  910Sol     MW 6402   2.051   0.046  10.492  0.1130  0.0171 -0.0876
  911Sol     OW 6403   2.751   2.935   2.861  0.2137  0.3123  0.4204
  911Sol     HW 6404   2.822   2.873   2.851 -0.6271 -0.7957  1.2048
  911Sol     HW 6405   2.772   2.984   2.940 -0.1700 -0.4066  0.9759
  911Sol     MW 6406   2.759   2.934   2.867 -0.2196 -0.2724  0.3395
  912Sol     OW 6407   1.783   0.729   6.061 -0.0040 -0.0596  0.1376
  912Sol     HW 6408   1.812   0.728   6.152 -1.4434 -1.4575  0.6071
  912Sol     HW 6409   1.863   0.738   6.010  0.8650  0.1344  1.5223
  912Sol     MW 6410   1.792   0.730   6.065 -0.1505 -0.7606  0.1416
  913Sol     OW 6411   0.219   0.683   7.978  0.2247 -0.0446 -0.2747
  913Sol     HW 6412   0.254   0.628   8.048 -1.5752 -0.3860  0.3718
  913Sol     HW 6413   0.291   0.691   7.916  1.7755  0.0657  1.4829
  913Sol     MW 6414   0.229   0.679   7.979  0.7634 -0.3150 -0.4732
  914Sol     OW 6415   1.159   2.748   2.979 -0.1364 -0.1921 -0.3395
  914Sol     HW 6416   1.122   2.677   3.031 -0.5992  1.2434  1.3704
  914Sol     HW 6417   1.097   2.760   2.907 -1.5679  0.3409  0.9488
  914Sol     MW 6418   1.150   2.743   2.977  0.2701  0.0007  0.6017
  915Sol     OW 6419   0.663   1.430   8.032  0.0828 -0.4112  0.1100
  915Sol     HW 6420   0.744   1.411   8.080  1.0975  0.1328 -1.3496
  915Sol     HW 6421   0.623   1.344   8.019  2.2994 -1.1625 -2.3541
  915Sol     MW 6422   0.667   1.420   8.035  0.3622  0.2180 -0.3761
  916Sol     OW 6423   1.133   0.141   5.228  0.2251  0.1273 -0.2806
  916Sol     HW 6424   1.119   0.047   5.214 -0.8560  0.0083  1.4777
  916Sol     HW 6425   1.082   0.183   5.159  1.0652 -0.5519 -1.3584
  916Sol     MW 6426   1.127   0.136   5.220 -0.6591  0.2439  0.4980
  917Sol     OW 6427   0.736   1.038   8.940 -0.4815 -0.2558  0.0670
  917Sol     HW 6428   0.651   1.023   8.898  1.2039 -2.2517 -2.7721
  917Sol     HW 6429   0.766   1.121   8.904 -0.5720 -0.2754 -0.0529
  917Sol     MW 6430   0.731   1.044   8.933 -0.0805  1.6713 -0.3195
  918Sol     OW 6431   1.825   3.049   6.069 -0.2738 -0.5546 -0.2212
  918Sol     HW 6432   1.739   3.026   6.105  0.2758 -1.5191  0.5179
  918Sol     HW 6433   1.886   3.034   6.142  0.4628  0.5822 -0.5915
  918Sol     MW 6434   1.823   3.045   6.079  0.2582  0.2557  0.1458
  919Sol     OW 6435   1.821   2.336   8.777 -0.4728 -0.0784  0.3612
  919Sol     HW 6436   1.795   2.360   8.866  0.8738 -1.0045  1.0168
  919Sol     HW 6437   1.901   2.385   8.761 -0.6147 -0.0532 -0.2887
  919Sol     MW 6438   1.826   2.342   8.783  0.1827 -0.4549  0.9402
  920Sol     OW 6439   0.135   2.137   2.203  0.4594  0.4327  0.4292
  920Sol     HW 6440   0.076   2.085   2.257  1.8936 -2.1796 -0.3946
  920Sol     HW 6441   0.183   2.192   2.265 -1.7255  1.4790  1.2306
  920Sol     MW 6442   0.134   2.137   2.213  0.0684 -0.3703 -0.0844
  921Sol     OW 6443   0.975   2.513   9.507 -0.7188  0.0210  0.8532
  921Sol     HW 6444   0.937   2.547   9.426 -0.5972 -0.9460  0.3726
  921Sol     HW 6445   1.034   2.443   9.477 -1.2439 -0.8561  1.8287
  921Sol     MW 6446   0.977   2.509   9.497  0.3951 -0.1172  0.5402
  922Sol     OW 6447   2.283   0.935   9.039 -0.0941  0.7368 -0.1224
  922Sol     HW 6448   2.329   0.863   8.995 -0.7903 -0.5144  1.1871
  922Sol     HW 6449   2.294   1.009   8.979  0.8921 -0.3643 -1.3496
  922Sol     MW 6450   2.288   0.935   9.029 -0.4255  0.2305  0.6993
  923Sol     OW 6451   2.706   0.034   7.171 -0.0737  0.1525  0.4487
  923Sol     HW 6452   2.617   0.006   7.194  0.5959 -0.6533  2.1218
  923Sol     HW 6453   2.741  -0.037   7.118 -0.3537  0.3878 -0.0573
  923Sol     MW 6454   2.701   0.025   7.169 -0.2945  0.0014 -0.2795
  924Sol     OW 6455   0.580   0.256   6.655  0.0675 -0.8499  0.5892
  924Sol     HW 6456   0.616   0.311   6.724 -0.9367 -0.1373  0.5640
  924Sol     HW 6457   0.534   0.186   6.701 -1.6061  0.2746  0.6936
  924Sol     MW 6458   0.579   0.255   6.665 -0.2070  0.3154 -0.4477
  925Sol     OW 6459   0.845   0.916   7.504 -0.3130 -0.2837  0.3275
  925Sol     HW 6460   0.851   0.981   7.434  1.3394 -0.3889  0.3601
  925Sol     HW 6461   0.909   0.945   7.569 -0.0301 -1.5791  0.6366
  925Sol     MW 6462   0.851   0.924   7.503  0.3441 -0.3316 -0.4219
  926Sol     OW 6463   1.472   0.210   4.888 -0.0704 -0.1180 -0.2764
  926Sol     HW 6464   1.447   0.187   4.978  0.5071 -0.4408 -0.1950
  926Sol     HW 6465   1.409   0.276   4.862 -0.2317 -0.0066  0.3813
  926Sol     MW 6466   1.464   0.214   4.894  0.0313  0.2033 -0.3446
  927Sol     OW 6467   1.786   0.631   6.346 -0.6491  0.0916  0.7113
  927Sol     HW 6468   1.814   0.542   6.322  0.5924  1.0733 -1.5816
  927Sol     HW 6469   1.851   0.659   6.411  0.3465  0.1992 -0.3167
  927Sol     MW 6470   1.795   0.625   6.350  0.3005  0.4293  0.7041
  928Sol     OW 6471   1.296   3.288   8.697  0.3116 -0.0369 -0.2086
  928Sol     HW 6472   1.250   3.333   8.768 -1.1183 -0.2211 -1.0094
  928Sol     HW 6473   1.242   3.304   8.620  1.2090 -0.8906 -1.0195
  928Sol     MW 6474   1.287   3.294   8.697  0.4097  0.3689 -0.0131
  929Sol     OW 6475   1.135   2.969   8.314  0.4098 -0.2190  0.0681
  929Sol     HW 6476   1.102   2.979   8.224  0.6667  0.7725  0.0768
  929Sol     HW 6477   1.099   2.885   8.344  0.5497 -0.6936 -1.0568
  929Sol     MW 6478   1.129   2.962   8.308  0.5347 -0.2399 -0.8590
  930Sol     OW 6479   1.655   0.083   3.515 -0.2085  0.3033  0.1600
  930Sol     HW 6480   1.742   0.077   3.474 -0.8294  1.1212 -1.3176
  930Sol     HW 6481   1.595   0.097   3.442 -1.4034  1.3656  1.3200
  930Sol     MW 6482   1.658   0.083   3.505 -0.5007 -0.4677 -0.0254
  931Sol     OW 6483   2.056   1.179   6.796 -0.3301 -0.2534  0.7181
  931Sol     HW 6484   2.076   1.179   6.702 -2.2199 -1.4931  0.2783
  931Sol     HW 6485   2.017   1.264   6.813 -0.2173 -0.1239  0.3184
  931Sol     MW 6486   2.054   1.186   6.789  1.0392  0.8400  0.5133
  932Sol     OW 6487   0.876   0.964   2.441  0.3245 -0.4622  0.6212
  932Sol     HW 6488   0.830   1.017   2.506 -0.4241  2.4706 -2.1714
  932Sol     HW 6489   0.810   0.903   2.408 -0.7616  1.4732 -0.9487
  932Sol     MW 6490   0.866   0.963   2.444  0.1146  0.4118  0.1734
  933Sol     OW 6491   2.217   1.033   9.887  0.0103  0.8202 -0.0657
  933Sol     HW 6492   2.168   1.032   9.804  1.7609  2.1550 -1.1406
  933Sol     HW 6493   2.248   0.943   9.897 -0.2386  0.6448 -0.8402
  933Sol     MW 6494   2.216   1.025   9.880  0.0465  0.9685  0.1596
  934Sol     OW 6495   1.417   2.365   3.389  0.2132 -0.1515 -0.0354
  934Sol     HW 6496   1.372   2.426   3.331  0.2699 -0.1444 -0.0719
  934Sol     HW 6497   1.501   2.349   3.347 -0.3296 -1.2829 -0.6906
  934Sol     MW 6498   1.420   2.369   3.380 -0.0279 -0.4351  0.4891
  935Sol     OW 6499   1.638   2.881   7.201 -0.0960 -0.1725 -0.8129
  935Sol     HW 6500   1.699   2.951   7.223  0.6509 -0.7719 -0.9529
  935Sol     HW 6501   1.650   2.816   7.270 -1.3699  0.1861 -0.2335
  935Sol     MW 6502   1.645   2.882   7.209 -0.3456 -0.4920  0.6173
  936Sol     OW 6503   2.308   2.330   2.575 -0.3744  0.2742 -0.3875
  936Sol     HW 6504   2.395   2.313   2.539  0.8235  3.5924  0.7289
  936Sol     HW 6505   2.265   2.385   2.509 -2.3829 -2.7430 -1.7512
  936Sol     MW 6506   2.312   2.333   2.565 -0.0645 -0.2523  0.1267
  937Sol     OW 6507   2.598   2.361   2.929 -0.3906 -0.3270  0.3735
  937Sol     HW 6508   2.587   2.455   2.945 -1.0436 -0.4428  0.6272
  937Sol     HW 6509   2.510   2.330   2.906 -0.3353 -1.0200  1.0730
  937Sol     MW 6510   2.589   2.367   2.929  0.5979  0.1877  0.1224
  938Sol     OW 6511   0.573   1.126   3.291  0.1731  0.0170 -0.1113
  938Sol     HW 6512   0.653   1.144   3.342 -0.8159 -0.5850  1.7042
  938Sol     HW 6513   0.592   1.162   3.204  1.7927  1.3792  0.7543
  938Sol     MW 6514   0.582   1.131   3.288 -0.8555  0.3458  0.4918
  939Sol     OW 6515   1.039   3.069   8.082  0.2279 -0.0657 -0.4598
  939Sol     HW 6516   1.018   3.006   8.013 -0.4844 -0.7140  0.3363
  939Sol     HW 6517   1.109   3.123   8.045  0.6351 -1.1309 -1.2583
  939Sol     MW 6518   1.043   3.068   8.072  0.1381 -0.4332  0.3301
  940Sol     OW 6519   0.417   1.497   8.150  0.1144 -0.4318  0.0530
  940Sol     HW 6520   0.343   1.471   8.095 -1.3069 -0.0331  1.7212
  940Sol     HW 6521   0.494   1.481   8.096 -1.2258 -0.2182 -1.9784
  940Sol     MW 6522   0.417   1.493   8.140  0.1590  0.2158 -0.4580
  941Sol     OW 6523   2.713   2.926   2.301  0.7680  0.1337  0.0915
  941Sol     HW 6524   2.637   2.898   2.250  2.0524 -2.2448 -0.6063
  941Sol     HW 6525   2.677   2.978   2.372 -1.5014 -0.8595 -0.2994
  941Sol     MW 6526   2.703   2.928   2.303 -0.3382  0.7866  0.1134
  942Sol     OW 6527   0.961   3.218   9.161 -0.0595  0.5730 -0.0297
  942Sol     HW 6528   0.988   3.166   9.237  0.8284 -0.9082 -1.3275
  942Sol     HW 6529   1.040   3.266   9.135  0.4874 -1.1512 -1.7446
  942Sol     MW 6530   0.971   3.217   9.165  0.1161 -0.0229  0.5535
  943Sol     OW 6531   2.812   2.284   5.285  0.0010  0.3132 -0.0727
  943Sol     HW 6532   2.779   2.239   5.208 -0.9859  1.6516 -0.4496
  943Sol     HW 6533   2.907   2.287   5.273 -0.1179  0.1802 -1.0466
  943Sol     MW 6534   2.817   2.280   5.277 -0.3202  0.0561 -0.1911
  944Sol     OW 6535   0.120   0.637   4.977 -0.3896  0.1162  0.1402
  944Sol     HW 6536   0.177   0.652   4.902 -0.2438  0.3309  0.2967
  944Sol     HW 6537   0.095   0.544   4.970 -0.6434  0.2227 -0.3583
  944Sol     MW 6538   0.123   0.630   4.970 -1.0241  0.2665 -0.4570
  945Sol     OW 6539   2.163   0.602   5.213  0.5232  0.3530  0.1946
  945Sol     HW 6540   2.134   0.624   5.302  0.0352  0.4541  0.0096
  945Sol     HW 6541   2.258   0.603   5.219  0.5131  1.9951  0.3263
  945Sol     MW 6542   2.169   0.605   5.222 -0.9741  0.2523  0.1116
  946Sol     OW 6543   1.120   1.480   3.282 -0.6341 -0.1099 -0.2996
  946Sol     HW 6544   1.043   1.484   3.225 -0.0305 -0.5298 -1.1529
  946Sol     HW 6545   1.194   1.488   3.222  0.0369 -1.7524  0.2885
  946Sol     MW 6546   1.120   1.481   3.271  0.0719  0.4191 -0.1743
  947Sol     OW 6547   2.252   0.592   5.646 -0.2449 -0.1251 -0.0569
  947Sol     HW 6548   2.331   0.609   5.595 -0.1119 -1.7349 -0.4008
  947Sol     HW 6549   2.180   0.616   5.587 -0.0643 -1.0552 -0.6721
  947Sol     MW 6550   2.253   0.596   5.636 -0.0501  1.1564 -0.1050
  948Sol     OW 6551   1.229   3.284   3.300  0.4616 -0.0151  0.2231
  948Sol     HW 6552   1.247   3.191   3.310  0.3669  0.0205  0.7484
  948Sol     HW 6553   1.178   3.291   3.219 -0.2770 -0.5190  0.6384
  948Sol     MW 6554   1.226   3.276   3.294 -0.0911  0.1413 -0.0643
  949Sol     OW 6555   2.147   3.136   5.056 -0.0361 -0.2689  0.2938
  949Sol     HW 6556   2.096   3.066   5.015  0.8268  0.0953 -1.4214
  949Sol     HW 6557   2.117   3.216   5.012 -0.6808  0.3964  1.9140
  949Sol     MW 6558   2.139   3.137   5.048 -0.2124  0.0581 -0.7731
  950Sol     OW 6559   2.182   1.058   3.254 -0.4946  0.1326  0.0358
  950Sol     HW 6560   2.236   1.027   3.327 -2.1412  2.2348  2.2449
  950Sol     HW 6561   2.097   1.018   3.268 -0.6867  0.1611 -1.0131
  950Sol     MW 6562   2.179   1.052   3.262 -0.1929 -0.1434 -0.0965
  951Sol     OW 6563   2.530   1.571   3.028 -0.2575 -0.3925  0.3871
  951Sol     HW 6564   2.605   1.605   3.077  1.7375 -0.5452 -2.4506
  951Sol     HW 6565   2.468   1.644   3.027  1.4002  1.0713 -0.3393
  951Sol     MW 6566   2.532   1.581   3.032  0.9839 -0.3452 -0.2122
  952Sol     OW 6567   1.807   0.734   7.727 -0.1464  0.3900  0.2496
  952Sol     HW 6568   1.751   0.656   7.722  2.8970 -1.9216  0.6918
  952Sol     HW 6569   1.804   0.759   7.819  1.8948 -1.5721  0.8776
  952Sol     MW 6570   1.802   0.729   7.735  0.6569  0.4573  0.3849
  953Sol     OW 6571   1.022   3.279   2.352 -0.3211 -0.7632  0.0460
  953Sol     HW 6572   0.980   3.317   2.275 -0.6458 -0.7178  0.2447
  953Sol     HW 6573   0.970   3.310   2.426  0.9565  0.5365  0.4264
  953Sol     MW 6574   1.014   3.285   2.351 -0.3297 -0.3322 -0.1388
  954Sol     OW 6575   0.137   0.238   8.066  0.0011  0.3716 -0.0245
  954Sol     HW 6576   0.074   0.169   8.085 -0.9603  1.2165 -0.0765
  954Sol     HW 6577   0.150   0.235   7.972  0.4472 -0.1534  0.0551
  954Sol     MW 6578   0.133   0.232   8.060 -0.0705  0.4011 -0.2820
  955Sol     OW 6579   2.725   3.199   7.022  0.1038 -0.4157  0.5416
  955Sol     HW 6580   2.767   3.161   6.945  2.0592  3.3369 -0.3970
  955Sol     HW 6581   2.771   3.161   7.096  1.2888 -0.6728 -0.3060
  955Sol     MW 6582   2.732   3.192   7.021  0.0171  0.8513  0.1024
  956Sol     OW 6583   2.450   0.495   1.325  0.2292 -0.3333 -0.2517
  956Sol     HW 6584   2.525   0.476   1.382 -0.1611 -0.6854  0.1515
  956Sol     HW 6585   2.478   0.569   1.271 -0.7087  2.5239  2.9792
  956Sol     MW 6586   2.459   0.500   1.326 -0.3262 -0.4175 -0.4303
  957Sol     OW 6587   2.000   3.306   7.086  0.3519  0.9108  0.1859
  957Sol     HW 6588   1.991   3.395   7.053 -1.7033  0.4588 -0.5598
  957Sol     HW 6589   1.910   3.276   7.097  1.0027 -1.6055 -1.0343
  957Sol     MW 6590   1.991   3.311   7.084  0.0321  0.2625  0.2867
  958Sol     OW 6591   3.089   3.127   7.266  0.1627 -0.3685 -0.5066
  958Sol     HW 6592   3.164   3.100   7.319  0.5507 -0.7943 -1.2508
  958Sol     HW 6593   3.065   3.213   7.299 -0.0725 -0.9315  0.8491
  958Sol     MW 6594   3.093   3.132   7.274  0.0066 -0.1538 -0.2937
  959Sol     OW 6595   0.754   1.465   8.705 -0.1254  0.5745  0.6535
  959Sol     HW 6596   0.738   1.554   8.735 -0.8415  1.1417 -1.3242
  959Sol     HW 6597   0.781   1.475   8.614  1.7040 -1.1098  0.9632
  959Sol     MW 6598   0.755   1.474   8.700 -0.3102  0.1684 -0.3774
  960Sol     OW 6599   2.479   0.811   3.614 -0.1179  0.1285 -0.1617
  960Sol     HW 6600   2.559   0.766   3.644 -1.4167 -0.9978  1.7218
  960Sol     HW 6601   2.458   0.872   3.684 -0.5431  0.9078 -0.9600
  960Sol     MW 6602   2.485   0.812   3.623  0.2722  0.7335  0.1005
  961Sol     OW 6603   0.761   2.543   2.791  0.4501  0.6842 -0.2658
  961Sol     HW 6604   0.697   2.613   2.784  0.2041  0.6529  1.4337
  961Sol     HW 6605   0.831   2.579   2.845  0.6747 -0.1207 -0.0029
  961Sol     MW 6606   0.762   2.552   2.795  0.1780  0.3862  0.1954
  962Sol     OW 6607   0.764   2.841   3.196  0.1984 -0.0533  0.5317
  962Sol     HW 6608   0.832   2.886   3.246 -0.1750 -0.8854  1.8200
  962Sol     HW 6609   0.682   2.872   3.235 -0.1746  1.2289 -1.2556
  962Sol     MW 6610   0.763   2.848   3.204  0.8928  0.0381 -0.3843
  963Sol     OW 6611   1.328   1.824   4.201 -0.4741  0.3798 -0.1703
  963Sol     HW 6612   1.387   1.759   4.241 -1.3262  0.4167  1.1638
  963Sol     HW 6613   1.287   1.868   4.275 -2.5861 -0.0014 -1.0720
  963Sol     MW 6614   1.330   1.822   4.211 -0.6922  0.5479 -0.6696
  964Sol     OW 6615   1.132   0.108   6.914 -0.8194 -0.3485 -0.0408
  964Sol     HW 6616   1.038   0.091   6.914 -1.0621  0.9596 -0.3729
  964Sol     HW 6617   1.140   0.200   6.889  0.5519 -0.4644 -0.0630
  964Sol     MW 6618   1.124   0.115   6.912 -0.2551  0.0319  0.2609
  965Sol     OW 6619   0.400   3.333   7.543  0.5675  0.2605 -0.2116
  965Sol     HW 6620   0.329   3.280   7.505  0.8602 -1.1177  1.0877
  965Sol     HW 6621   0.477   3.277   7.535  1.1100  0.9643  0.1663
  965Sol     MW 6622   0.400   3.323   7.539 -0.7439 -0.7177  0.4445
  966Sol     OW 6623   0.179   0.067   9.208 -0.3820 -0.2962  0.3190
  966Sol     HW 6624   0.127   0.139   9.244  0.5165  1.0360 -0.9655
  966Sol     HW 6625   0.265   0.076   9.250 -0.3070 -0.6849  0.2509
  966Sol     MW 6626   0.182   0.075   9.215  0.3482 -0.2544  0.0148
  967Sol     OW 6627   2.823   1.268   4.603  0.1827  0.4281  0.5179
  967Sol     HW 6628   2.766   1.337   4.637  0.1806  0.2791  0.8154
  967Sol     HW 6629   2.783   1.243   4.520  0.4606  1.1362  0.1673
  967Sol     MW 6630   2.815   1.272   4.599  0.6518  0.7471  0.0158
  968Sol     OW 6631   2.220   0.450   3.934 -0.5758  0.1090 -0.2841
  968Sol     HW 6632   2.138   0.401   3.929 -0.0741 -0.7938  0.1870
  968Sol     HW 6633   2.287   0.383   3.950 -0.0701  1.0876  1.9143
  968Sol     MW 6634   2.219   0.440   3.935 -0.1572 -0.0561  0.4126
  969Sol     OW 6635   1.043   0.704   4.926  0.1363 -0.3780  0.1927
  969Sol     HW 6636   0.961   0.754   4.929  1.6497  2.2271 -0.7781
  969Sol     HW 6637   1.029   0.633   4.988 -3.1402 -0.4212 -0.4916
  969Sol     MW 6638   1.034   0.702   4.932  0.3003 -0.0206  0.9136
  970Sol     OW 6639   1.421   0.347   8.631  0.2664 -0.1801 -0.1151
  970Sol     HW 6640   1.326   0.359   8.621  0.1241 -0.6034  0.7004
  970Sol     HW 6641   1.445   0.406   8.702  0.5559 -0.3559 -0.0660
  970Sol     MW 6642   1.414   0.354   8.636  0.4104 -0.2158  0.2037
  971Sol     OW 6643   0.291   2.650   8.130  0.3954 -0.7265  0.2842
  971Sol     HW 6644   0.249   2.656   8.045 -1.4998 -1.4298  1.1214
  971Sol     HW 6645   0.306   2.740   8.157  1.5873 -0.5186 -1.0620
  971Sol     MW 6646   0.289   2.658   8.125 -0.4971 -0.0302 -0.1564
  972Sol     OW 6647   0.955   0.976   9.830  0.0665  0.4052  0.0369
  972Sol     HW 6648   0.865   1.010   9.834  0.9274  2.5754  1.4160
  972Sol     HW 6649   0.988   1.008   9.746 -0.0715  0.5819  0.0485
  972Sol     MW 6650   0.950   0.982   9.823  0.2279 -0.3278  0.0092
  973Sol     OW 6651   0.593   1.073   6.538 -0.4445  0.1839  0.4394
  973Sol     HW 6652   0.626   0.987   6.562  1.3602  0.3647 -1.3050
  973Sol     HW 6653   0.597   1.124   6.619  1.2980 -0.5068  0.7939
  973Sol     MW 6654   0.596   1.070   6.547  0.2735 -0.3296  0.5131
  974Sol     OW 6655   0.633   2.452   8.244 -0.4949  0.0220 -0.1457
  974Sol     HW 6656   0.552   2.467   8.195 -1.4169  0.6298  1.4854
  974Sol     HW 6657   0.602   2.419   8.329  0.9428  0.7882  0.6884
  974Sol     MW 6658   0.623   2.450   8.248 -0.1501  0.0551 -0.0887
  975Sol     OW 6659   0.826   1.351   9.983 -0.6215  0.5694  0.4911
  975Sol     HW 6660   0.791   1.265   9.961 -1.5812  0.3868  2.6162
  975Sol     HW 6661   0.838   1.395   9.899  0.2707 -1.7863 -0.6304
  975Sol     MW 6662   0.824   1.347   9.974  0.4024  0.0472  0.4061
  976Sol     OW 6663   0.603   3.308  10.410 -0.4119 -0.3473 -0.9392
  976Sol     HW 6664   0.552   3.298  10.491 -0.9327 -0.3045 -1.2598
  976Sol     HW 6665   0.687   3.268  10.430 -0.0517  0.8759  0.0881
  976Sol     MW 6666   0.606   3.304  10.419 -0.1382 -0.2708 -0.4052
  977Sol     OW 6667   1.751   0.733   3.629  0.4267  0.1879 -0.5556
  977Sol     HW 6668   1.841   0.709   3.652 -0.1912 -1.3631  0.3762
  977Sol     HW 6669   1.718   0.779   3.706 -0.2611 -1.1751 -0.0197
  977Sol     MW 6670   1.756   0.735   3.638 -0.0483  0.4884 -0.2212
  978Sol     OW 6671   1.723   2.167   8.596 -0.0148  0.2697 -0.3401
  978Sol     HW 6672   1.743   2.082   8.634  2.0978  0.6691 -0.5156
  978Sol     HW 6673   1.745   2.231   8.664 -0.0872  0.7761 -0.7811
  978Sol     MW 6674   1.726   2.165   8.605 -0.1852 -0.7235  0.0227
  979Sol     OW 6675   0.634   2.778   6.628 -0.2956  0.5109 -0.8128
  979Sol     HW 6676   0.675   2.794   6.543  0.9125 -2.5960 -0.8943
  979Sol     HW 6677   0.702   2.735   6.680 -1.7522  0.2488  0.9352
  979Sol     MW 6678   0.643   2.775   6.625 -0.7375 -0.2343 -0.3131
  980Sol     OW 6679   1.066   1.256   7.075 -0.3906 -0.4016 -0.3113
  980Sol     HW 6680   1.101   1.284   7.160 -0.7508 -2.2571  0.4834
  980Sol     HW 6681   1.019   1.332   7.042  1.2480  0.9290  0.3228
  980Sol     MW 6682   1.065   1.265   7.080  0.5597 -0.5805 -0.8204
  981Sol     OW 6683   2.774   0.565   8.182 -0.2751  0.3234  0.6901
  981Sol     HW 6684   2.825   0.544   8.103 -1.5191  0.0520 -0.0543
  981Sol     HW 6685   2.721   0.487   8.197 -2.2596  1.5219  0.0430
  981Sol     MW 6686   2.774   0.556   8.176 -0.2493 -0.4411 -0.2008
  982Sol     OW 6687   2.872   1.725   5.713  0.5338 -0.0390  0.2418
  982Sol     HW 6688   2.889   1.814   5.743 -0.5453 -0.0481  0.9109
  982Sol     HW 6689   2.863   1.674   5.794 -0.4251 -0.4430 -0.1163
  982Sol     MW 6690   2.873   1.728   5.723  0.1797  0.0192  0.0612
  983Sol     OW 6691   0.913   0.193   6.353 -0.1609  0.2919 -0.7370
  983Sol     HW 6692   0.961   0.225   6.430  0.0221  0.9372 -1.1131
  983Sol     HW 6693   0.825   0.229   6.363 -0.3970 -0.3731 -0.3705
  983Sol     MW 6694   0.910   0.199   6.361  0.6950  0.2998 -0.6658
  984Sol     OW 6695   2.739   0.163   6.483  0.2759  0.4072  0.1413
  984Sol     HW 6696   2.821   0.149   6.531  0.6459 -0.8924 -0.8379
  984Sol     HW 6697   2.746   0.106   6.407 -0.9258  1.3693 -0.7091
  984Sol     MW 6698   2.747   0.157   6.481 -0.0708  0.2437 -0.2364
  985Sol     OW 6699   0.954   2.909   5.865 -0.1729  0.5202  0.2714
  985Sol     HW 6700   0.872   2.934   5.822 -0.1659  1.5181  0.8387
  985Sol     HW 6701   0.942   2.932   5.957  0.6436  0.4230  0.4075
  985Sol     MW 6702   0.946   2.913   5.869 -0.1558 -0.1134  0.0848
  986Sol     OW 6703   0.653   2.226   4.698 -0.0065  0.1095 -0.8424
  986Sol     HW 6704   0.597   2.299   4.673  2.0302  1.8234 -0.4705
  986Sol     HW 6705   0.630   2.209   4.790 -0.8238 -0.0789 -1.0713
  986Sol     MW 6706   0.646   2.231   4.704  0.0859  0.1124 -0.4775
  987Sol     OW 6707   1.321   0.116   9.537 -0.5398  0.0963  0.4035
  987Sol     HW 6708   1.297   0.113   9.629  0.3819 -0.2255  0.6436
  987Sol     HW 6709   1.415   0.133   9.537 -0.5114 -0.0090 -0.4747
  987Sol     MW 6710   1.327   0.117   9.545  0.1920 -0.1057 -0.2312
  988Sol     OW 6711   2.801   2.161   8.720 -0.3233  0.0523 -0.1243
  988Sol     HW 6712   2.740   2.180   8.649 -0.4260  0.4228  0.0626
  988Sol     HW 6713   2.762   2.202   8.797 -0.2092 -0.3413  0.1477
  988Sol     MW 6714   2.792   2.166   8.721 -0.0438 -0.0545 -0.2241
  989Sol     OW 6715   2.343   2.231   5.131  0.0631 -0.1765  0.3789
  989Sol     HW 6716   2.379   2.211   5.218 -1.6650  2.1428  1.6891
  989Sol     HW 6717   2.345   2.326   5.126  0.9312 -0.3187 -2.5236
  989Sol     MW 6718   2.346   2.237   5.138 -0.4118 -0.2665  0.4605
  990Sol     OW 6719   1.355   2.790   8.638 -0.8021 -0.2514  0.1540
  990Sol     HW 6720   1.350   2.815   8.546 -0.0914 -0.9821 -0.0866
  990Sol     HW 6721   1.315   2.703   8.641  2.0085 -1.6108 -0.0190
  990Sol     MW 6722   1.351   2.784   8.630 -0.4332 -0.2203 -0.1296
  991Sol     OW 6723   1.057   1.736   8.629 -0.1654  0.5607 -0.0933
  991Sol     HW 6724   1.057   1.677   8.553 -1.0110  0.1265  0.2337
  991Sol     HW 6725   0.974   1.784   8.621 -0.6115 -0.0255  0.9655
  991Sol     MW 6726   1.049   1.735   8.621  0.5410  0.1903 -0.4243
  992Sol     OW 6727   1.703   0.608   5.696 -0.0620  0.0007  0.2322
  992Sol     HW 6728   1.767   0.581   5.762 -1.1698 -0.5833  1.0755
  992Sol     HW 6729   1.652   0.529   5.678 -1.2471  0.7289  0.3682
  992Sol     MW 6730   1.704   0.599   5.700 -0.3965  0.4113  0.2381
  993Sol     OW 6731   1.174   1.162   7.452  0.1544 -0.6541 -0.5298
  993Sol     HW 6732   1.163   1.089   7.391 -1.0230  0.6215 -1.8786
  993Sol     HW 6733   1.123   1.234   7.414  1.1092  0.8192  0.8721
  993Sol     MW 6734   1.168   1.162   7.443  0.2995 -0.8856  0.1421
  994Sol     OW 6735   3.052   0.444   8.133 -0.1844 -0.8717 -0.0472
  994Sol     HW 6736   3.124   0.391   8.099  0.0033 -0.8286  0.2678
  994Sol     HW 6737   3.091   0.531   8.145  0.4067 -1.4355  2.4310
  994Sol     MW 6738   3.062   0.447   8.131  0.3927  0.1107 -0.5480
  995Sol     OW 6739   2.994   0.829   6.129  0.3271 -0.6178 -0.4315
  995Sol     HW 6740   3.067   0.814   6.068  3.8481  3.6038  2.4221
  995Sol     HW 6741   2.950   0.907   6.095 -0.8954 -1.2474 -0.3282
  995Sol     MW 6742   2.997   0.834   6.121 -0.3003  0.6855 -0.7537
  996Sol     OW 6743   2.191   2.099   7.085  0.4806  0.1824  0.6963
  996Sol     HW 6744   2.240   2.054   7.016 -0.9782  0.3275 -0.4642
  996Sol     HW 6745   2.127   2.034   7.115 -0.0970  0.7147  0.6311
  996Sol     MW 6746   2.190   2.089   7.081  0.5826  0.6852  1.0763
  997Sol     OW 6747   2.263   3.379   3.841  0.1434  0.4161  0.4611
  997Sol     HW 6748   2.177   3.337   3.843  0.3667 -0.1342 -1.2143
  997Sol     HW 6749   2.319   3.317   3.795  0.1325  3.1836 -3.5025
  997Sol     MW 6750   2.261   3.370   3.837 -0.1866 -0.2755  0.0743
  998Sol     OW 6751   1.677   0.586   6.606 -0.0088 -0.4600 -0.3879
  998Sol     HW 6752   1.627   0.667   6.611  0.1074 -0.3955 -0.2253
  998Sol     HW 6753   1.735   0.597   6.531  0.7824  0.0609  0.2900
  998Sol     MW 6754   1.678   0.594   6.600 -0.0596 -0.1154  0.1561
  999Sol     OW 6755   0.001   2.518   4.130 -0.8743  0.2111 -0.4069
  999Sol     HW 6756   0.010   2.612   4.109  0.0060  0.3619  0.6517
  999Sol     HW 6757  -0.073   2.514   4.190 -0.3534  0.3208  0.2363
  999Sol     MW 6758  -0.005   2.526   4.133  0.1766  0.3355 -0.3803
 1000Sol     OW 6759   1.430   1.188   6.937  0.0534 -0.3819 -0.2902
 1000Sol     HW 6760   1.348   1.234   6.920  0.3364 -0.4310 -1.8399
 1000Sol     HW 6761   1.468   1.173   6.851  1.0461 -1.5549  0.3269
 1000Sol     MW 6762   1.426   1.191   6.928  0.0347 -0.8273  0.6128
 1001Sol     OW 6763   1.577   1.497   1.738  0.0031 -0.1327  0.2513
 1001Sol     HW 6764   1.670   1.499   1.717  0.1236 -1.2638  0.6546
 1001Sol     HW 6765   1.554   1.404   1.737 -1.2215  0.1636 -0.2853
 1001Sol     MW 6766   1.583   1.488   1.736  0.4397  0.0492  0.4713
 1002Sol     OW 6767   1.175   2.229   2.020  0.1683  0.0805  0.0977
 1002Sol     HW 6768   1.268   2.251   2.021  0.4410 -0.9539 -0.6759
 1002Sol     HW 6769   1.139   2.279   1.947  0.8556 -2.2012 -1.8822
 1002Sol     MW 6770   1.180   2.235   2.013 -0.0107  0.7060 -0.0708
 1003Sol     OW 6771   0.296   1.307   7.016 -0.4128  0.0915  0.1940
 1003Sol     HW 6772   0.221   1.318   7.074 -0.7366  1.5699 -0.4943
 1003Sol     HW 6773   0.282   1.371   6.945  1.3280  0.1722 -0.0994
 1003Sol     MW 6774   0.288   1.314   7.015 -0.5050 -0.7060  0.3371
 1004Sol     OW 6775   0.727   2.200   6.116 -0.7149  0.2883  0.2505
 1004Sol     HW 6776   0.778   2.281   6.118  1.8125 -1.2876  1.6055
 1004Sol     HW 6777   0.655   2.216   6.178 -0.5477  1.6964  0.0994
 1004Sol     MW 6778   0.725   2.209   6.122 -0.4734 -0.5606 -0.0761
 1005Sol     OW 6779   0.713   0.985   8.524  0.0967  0.2667  0.2222
 1005Sol     HW 6780   0.797   0.943   8.539 -1.3074 -3.2244 -1.0254
 1005Sol     HW 6781   0.720   1.022   8.436  0.2570 -0.2245  0.0278
 1005Sol     MW 6782   0.721   0.984   8.517 -0.3370  0.6772  0.2695
 1006Sol     OW 6783   0.877   2.858   1.914 -0.0710 -0.0803  0.5714
 1006Sol     HW 6784   0.943   2.789   1.915  1.3429  1.2518  1.6588
 1006Sol     HW 6785   0.798   2.817   1.950  1.0305 -0.8668  2.1402
 1006Sol     MW 6786   0.876   2.848   1.917  0.0061  0.0987  0.1498
 1007Sol     OW 6787   2.962   1.101   3.836 -0.9853  0.1756  0.5434
 1007Sol     HW 6788   2.944   1.130   3.925 -0.3184  0.3629  0.6188
 1007Sol     HW 6789   2.879   1.066   3.805 -0.9614 -0.8353  1.6000
 1007Sol     MW 6790   2.953   1.101   3.841  0.1481  0.1939  0.4321
 1008Sol     OW 6791   0.863   0.273   9.600  0.6212 -0.2732 -0.4182
 1008Sol     HW 6792   0.922   0.338   9.561  2.0630 -0.1897  1.8532
 1008Sol     HW 6793   0.860   0.203   9.535  2.5079  0.1208 -0.9763
 1008Sol     MW 6794   0.868   0.273   9.591  0.4213 -0.5642 -0.4561
 1009Sol     OW 6795   1.476   3.191   2.340  0.4594 -0.5558  0.7114
 1009Sol     HW 6796   1.457   3.185   2.246  0.7905 -0.5021  0.6408
 1009Sol     HW 6797   1.493   3.101   2.367  2.9564 -0.2758  0.1740
 1009Sol     MW 6798   1.476   3.182   2.334  0.0508 -0.1170  0.0046
 1010Sol     OW 6799   0.185   2.272   1.806 -0.2182 -0.1667 -0.4342
 1010Sol     HW 6800   0.211   2.268   1.714  0.4677  0.1834 -0.2612
 1010Sol     HW 6801   0.184   2.365   1.826 -0.7034 -0.2246 -0.1751
 1010Sol     MW 6802   0.187   2.280   1.799  0.0131  0.1276 -0.2142
 1011Sol     OW 6803   1.019   0.886   8.043  0.1823 -0.2987 -0.1211
 1011Sol     HW 6804   0.947   0.832   8.009  0.1909 -0.0443 -0.5509
 1011Sol     HW 6805   1.024   0.864   8.136 -1.3567  0.7125  0.2096
 1011Sol     MW 6806   1.013   0.879   8.048 -0.0154  0.2337  0.4430
 1012Sol     OW 6807   0.636   0.852   2.677 -0.2684 -0.1627 -0.2853
 1012Sol     HW 6808   0.667   0.942   2.672  2.3957 -1.0921 -1.4748
 1012Sol     HW 6809   0.544   0.857   2.652 -0.4415  2.3393  0.6786
 1012Sol     MW 6810   0.630   0.860   2.674  0.5335 -0.0497 -0.0935
 1013Sol     OW 6811   2.285   2.751   4.609  0.4734  0.0622  0.5911
 1013Sol     HW 6812   2.371   2.763   4.650  1.2921 -0.5567 -0.8930
 1013Sol     HW 6813   2.252   2.840   4.595  1.1527  0.3184  0.6052
 1013Sol     MW 6814   2.290   2.760   4.611  0.4086 -0.2216  0.7894
 1014Sol     OW 6815   2.763   1.215   3.389  0.7478 -0.2471  0.2953
 1014Sol     HW 6816   2.795   1.188   3.303  1.5832  0.1993  0.4629
 1014Sol     HW 6817   2.789   1.307   3.397 -1.8071  0.5475 -0.1456
 1014Sol     MW 6818   2.768   1.221   3.382 -0.0441  0.1971  0.7412
 1015Sol     OW 6819   2.267   2.372   6.988 -0.1001 -0.3156  0.0200
 1015Sol     HW 6820   2.208   2.435   7.030  0.3981 -1.1805  2.0500
 1015Sol     HW 6821   2.238   2.287   7.020 -0.9422 -1.1872 -2.9344
 1015Sol     MW 6822   2.259   2.370   6.995  0.1223 -0.5874 -0.4454
 1016Sol     OW 6823   1.180   2.135   5.585  0.0884  0.0638 -0.2689
 1016Sol     HW 6824   1.200   2.079   5.660 -1.0860  0.0595  0.0602
 1016Sol     HW 6825   1.265   2.158   5.548  0.5618 -2.6401 -0.9539
 1016Sol     MW 6826   1.189   2.132   5.589  0.4819 -0.1220 -0.2103
 1017Sol     OW 6827   0.596   2.866   9.015 -0.2491  0.1206  0.1036
 1017Sol     HW 6828   0.516   2.822   8.985 -0.3248  0.0083  0.4660
 1017Sol     HW 6829   0.656   2.860   8.941 -1.5228  2.6363 -1.1962
 1017Sol     MW 6830   0.594   2.862   9.005  0.2399  0.1644 -0.2333
 1018Sol     OW 6831   2.527   0.932   9.686  0.3935  0.2461  0.1069
 1018Sol     HW 6832   2.520   0.974   9.600 -0.4598  0.1483  0.1258
 1018Sol     HW 6833   2.545   1.004   9.747 -2.0683  0.7404  0.2870
 1018Sol     MW 6834   2.528   0.942   9.684 -0.7056  0.1458  0.6557
 1019Sol     OW 6835   1.520   1.278   5.984  0.1222 -0.3694 -0.0106
 1019Sol     HW 6836   1.471   1.312   5.909 -2.0209 -1.3647  0.9102
 1019Sol     HW 6837   1.549   1.191   5.956 -1.9802 -1.3645  0.8430
 1019Sol     MW 6838   1.518   1.274   5.974  0.9959 -0.2597 -0.0697
 1020Sol     OW 6839   0.921   1.896   4.498 -0.4290  0.0407 -0.5579
 1020Sol     HW 6840   0.889   1.983   4.475  0.2948  0.0830 -1.4671
 1020Sol     HW 6841   1.004   1.888   4.451  2.1721  0.8962  3.7292
 1020Sol     MW 6842   0.926   1.903   4.491  1.1501  0.0739 -0.3757
 1021Sol     OW 6843   2.162   0.153   6.179  0.0223 -0.4974 -0.4230
 1021Sol     HW 6844   2.134   0.119   6.264  0.6488 -1.1764 -0.4858
 1021Sol     HW 6845   2.226   0.221   6.201 -0.5260 -0.0051 -0.3285
 1021Sol     MW 6846   2.165   0.156   6.188 -0.2670 -0.2994  0.4223
 1022Sol     OW 6847   2.041   2.637   7.398  0.3866 -0.7729 -0.4372
 1022Sol     HW 6848   1.984   2.714   7.405  0.4495 -0.8525  1.0768
 1022Sol     HW 6849   2.105   2.661   7.331  0.6430  0.6606  0.3010
 1022Sol     MW 6850   2.041   2.646   7.393  0.2297  0.0907 -0.2218
 1023Sol     OW 6851   2.614   2.428   4.496  0.2833 -0.0486  0.3493
 1023Sol     HW 6852   2.565   2.493   4.547  2.1614  0.6363  1.3463
 1023Sol     HW 6853   2.549   2.389   4.438 -0.9998  2.3969  0.0662
 1023Sol     MW 6854   2.604   2.430   4.495 -0.0508  0.1063  0.4709
 1024Sol     OW 6855   0.005   2.309   3.042 -0.0014  0.1432  0.0189
 1024Sol     HW 6856   0.017   2.229   3.093  1.9971  0.2405 -0.2763
 1024Sol     HW 6857   0.077   2.366   3.069 -0.8899  1.5042 -0.4266
 1024Sol     MW 6858   0.012   2.307   3.049  0.3286 -0.0620  0.0138
 1025Sol     OW 6859   1.392   3.331   9.900  0.2749  0.4825  0.2223
 1025Sol     HW 6860   1.358   3.371   9.980  0.0239 -0.9249  0.8360
 1025Sol     HW 6861   1.323   3.344   9.835 -1.4973 -2.3368  1.4586
 1025Sol     MW 6862   1.383   3.336   9.901  0.1321  0.2225 -0.6368
 1026Sol     OW 6863   0.127   3.327   5.351 -0.3366  0.1943 -0.5420
 1026Sol     HW 6864   0.055   3.374   5.392  0.1794  0.3630  0.1640
 1026Sol     HW 6865   0.111   3.337   5.257 -1.2835  0.1557 -0.3941
 1026Sol     MW 6866   0.119   3.332   5.346 -0.1084  0.6587  0.2106
 1027Sol     OW 6867   0.895   1.322   4.866  0.4132  0.0702  0.1505
 1027Sol     HW 6868   0.981   1.324   4.908  0.6190 -0.5043 -0.2355
 1027Sol     HW 6869   0.913   1.297   4.775 -0.2133 -0.5895  0.2052
 1027Sol     MW 6870   0.904   1.320   4.861 -0.0521  0.4504  0.5059
 1028Sol     OW 6871   1.504   2.868   3.200  0.6689 -0.1788 -0.2579
 1028Sol     HW 6872   1.490   2.823   3.116 -0.4255  0.6452 -0.5214
 1028Sol     HW 6873   1.599   2.875   3.207  0.7457  0.7086 -1.9611
 1028Sol     MW 6874   1.511   2.864   3.193 -0.3861  0.0134 -0.2453
 1029Sol     OW 6875   2.757   0.860   4.806 -0.4090  0.3440  0.0794
 1029Sol     HW 6876   2.841   0.828   4.838 -0.4199 -0.0963 -0.3270
 1029Sol     HW 6877   2.772   0.875   4.712 -0.7430  0.4033  0.0363
 1029Sol     MW 6878   2.766   0.859   4.800 -0.1880  0.5330  0.9868
 1030Sol     OW 6879   0.812   2.484   6.151  0.2751 -0.2542  0.0184
 1030Sol     HW 6880   0.771   2.550   6.096 -0.4943  0.2785  1.2327
 1030Sol     HW 6881   0.885   2.529   6.193  0.0153 -0.2901  0.5114
 1030Sol     MW 6882   0.815   2.494   6.149  0.5510 -0.0370  0.0687
 1031Sol     OW 6883   1.895   0.445   2.877 -0.1888 -0.1598 -0.5053
 1031Sol     HW 6884   1.864   0.518   2.824  0.9839  0.8654  0.1956
 1031Sol     HW 6885   1.824   0.428   2.938 -0.2553  0.7561 -0.3177
 1031Sol     MW 6886   1.886   0.450   2.877  0.6577  0.2219 -0.1872
 1032Sol     OW 6887   1.714   1.701   5.611 -0.5208  0.0801  0.3566
 1032Sol     HW 6888   1.689   1.676   5.699 -0.4463 -2.0342 -0.1848
 1032Sol     HW 6889   1.631   1.719   5.566 -0.5363  1.4836  0.9467
 1032Sol     MW 6890   1.704   1.700   5.615 -0.3756 -0.9488  0.3472
 1033Sol     OW 6891   2.169   0.759   9.236 -0.1623 -0.3231  0.5532
 1033Sol     HW 6892   2.206   0.798   9.157 -0.1933 -0.8626  0.2701
 1033Sol     HW 6893   2.238   0.700   9.268  0.0259  0.2257  1.1779
 1033Sol     MW 6894   2.179   0.757   9.232 -0.1054  0.0513  0.7053
 1034Sol     OW 6895   3.040   1.169   8.715  0.1517  0.2957  0.0873
 1034Sol     HW 6896   3.056   1.216   8.797  1.3557  0.1889 -0.0779
 1034Sol     HW 6897   3.098   1.094   8.719 -0.0671  0.0861 -0.7027
 1034Sol     MW 6898   3.046   1.167   8.723 -0.2339  0.0579 -0.4578
 1035Sol     OW 6899   1.970   1.168   6.337  0.1235 -0.1342 -0.2666
 1035Sol     HW 6900   2.004   1.108   6.403  2.1109 -0.5478 -1.6171
 1035Sol     HW 6901   1.909   1.225   6.384  0.3089 -1.4467  1.5751
 1035Sol     MW 6902   1.967   1.168   6.347 -0.1747 -0.4137 -0.0440
 1036Sol     OW 6903   0.803   1.959   3.655 -0.3650 -0.1623 -0.4269
 1036Sol     HW 6904   0.781   1.991   3.742 -3.4609  1.0563 -1.5931
 1036Sol     HW 6905   0.745   1.883   3.642 -0.6381  0.2616 -1.7779
 1036Sol     MW 6906   0.796   1.955   3.661  0.1585 -0.4895  0.2216
 1037Sol     OW 6907   2.311   2.406   6.380 -0.3841 -0.4002  0.1789
 1037Sol     HW 6908   2.308   2.311   6.365 -1.2907 -0.2842 -0.4491
 1037Sol     HW 6909   2.347   2.441   6.299  0.7880 -0.2740  0.7516
 1037Sol     MW 6910   2.314   2.400   6.372 -0.3588 -0.3106  0.1330
 1038Sol     OW 6911   1.565   0.382   8.412  0.3815 -0.0566  0.6017
 1038Sol     HW 6912   1.650   0.340   8.425 -0.7530 -2.8359 -0.6622
 1038Sol     HW 6913   1.518   0.365   8.494 -0.0740 -1.2216  0.0935
 1038Sol     MW 6914   1.568   0.377   8.421  0.2932  0.8560  0.4508
 1039Sol     OW 6915   2.905   0.280   9.988  0.2770  0.3830 -0.4943
 1039Sol     HW 6916   2.861   0.221   9.926  0.6131  0.4266 -0.7740
 1039Sol     HW 6917   2.834   0.318  10.039 -0.1107  1.3632 -1.7423
 1039Sol     MW 6918   2.895   0.278   9.987 -0.6806 -0.5389  0.3944
 1040Sol     OW 6919   0.464   2.388   7.407 -0.1008  0.3719  0.0705
 1040Sol     HW 6920   0.447   2.417   7.497 -2.0332 -1.6849  0.3986
 1040Sol     HW 6921   0.384   2.409   7.359  1.2361  2.2642 -1.4307
 1040Sol     MW 6922   0.455   2.392   7.411 -0.2509  0.1725 -0.1678
 1041Sol     OW 6923   1.761   0.788   2.280 -0.3117 -0.4861  0.1556
 1041Sol     HW 6924   1.699   0.749   2.220 -1.4227  1.9199 -0.3305
 1041Sol     HW 6925   1.832   0.820   2.224  0.2853 -1.2177  0.4817
 1041Sol     MW 6926   1.762   0.788   2.269  0.1488 -0.2058 -0.1265
 1042Sol     OW 6927   1.580   1.842   3.265 -0.5244 -0.3846  0.5068
 1042Sol     HW 6928   1.617   1.924   3.298  0.1561 -0.9884  1.2477
 1042Sol     HW 6929   1.501   1.829   3.316 -1.5254  0.6534 -0.7412
 1042Sol     MW 6930   1.576   1.849   3.272  0.3531 -0.4234  0.3136
 1043Sol     OW 6931   1.310   2.183   2.920 -0.5505 -0.4695  0.3552
 1043Sol     HW 6932   1.315   2.153   3.011  0.2273  0.1466  0.5183
 1043Sol     HW 6933   1.350   2.112   2.869 -1.5566 -1.0965  0.4244
 1043Sol     MW 6934   1.314   2.174   2.923  0.1362  0.3306  0.2409
 1044Sol     OW 6935   2.733   3.044   8.391  0.2980  0.0030 -0.0868
 1044Sol     HW 6936   2.812   3.028   8.338  1.6862 -1.3701  2.2834
 1044Sol     HW 6937   2.699   2.956   8.408 -1.2685  0.5543 -0.3631
 1044Sol     MW 6938   2.737   3.034   8.388  0.1673 -0.5047  0.3775
 1045Sol     OW 6939   2.245   2.720   8.653 -0.0393 -0.3627  0.3979
 1045Sol     HW 6940   2.290   2.788   8.704 -0.9620  0.1833  0.4891
 1045Sol     HW 6941   2.254   2.749   8.562  0.9101 -0.9269  0.2977
 1045Sol     MW 6942   2.250   2.729   8.649  0.1946  0.6611 -0.2289
 1046Sol     OW 6943   1.684   1.093   5.846 -0.4155  0.1432  0.3419
 1046Sol     HW 6944   1.674   1.023   5.782  0.4360  2.4259 -2.4196
 1046Sol     HW 6945   1.770   1.077   5.885 -0.5430 -0.7484  0.2657
 1046Sol     MW 6946   1.691   1.086   5.844 -0.4439 -0.0894  0.0221
 1047Sol     OW 6947   2.360   2.675   4.352  0.4972  0.2436  0.0034
 1047Sol     HW 6948   2.339   2.683   4.445 -1.1814  0.7847 -0.4060
 1047Sol     HW 6949   2.363   2.581   4.335 -0.5457  0.1444  0.3211
 1047Sol     MW 6950   2.358   2.668   4.359 -0.0342 -0.2928 -0.3739
 1048Sol     OW 6951   2.968   1.572   4.834  0.0520 -0.4698 -0.1682
 1048Sol     HW 6952   3.061   1.593   4.847  0.1669 -1.2132  0.2460
 1048Sol     HW 6953   2.924   1.657   4.837  0.5879 -0.2077  0.7317
 1048Sol     MW 6954   2.973   1.582   4.835  0.0364  0.2432 -0.5007
 1049Sol     OW 6955   1.700   1.807   3.009 -0.0347 -0.7884  0.5630
 1049Sol     HW 6956   1.659   1.817   3.095 -1.3155  0.7689 -0.1849
 1049Sol     HW 6957   1.781   1.857   3.014 -0.3988 -0.2067  0.6912
 1049Sol     MW 6958   1.703   1.812   3.017  0.8580  0.0619 -0.0930
 1050Sol     OW 6959   0.056   1.202   4.338  0.1434  0.1974  0.0432
 1050Sol     HW 6960   0.109   1.214   4.259 -0.9552 -2.1741 -1.0864
 1050Sol     HW 6961   0.013   1.287   4.350  2.6363  1.5596 -0.1065
 1050Sol     MW 6962   0.057   1.211   4.332 -0.1177 -0.3208 -0.0023
 1051Sol     OW 6963   0.907   0.994   6.666  0.1662  0.1052 -0.0978
 1051Sol     HW 6964   0.943   1.075   6.630 -2.0642  0.4497 -1.6384
 1051Sol     HW 6965   0.938   0.926   6.607 -0.1499  0.1769 -0.3504
 1051Sol     MW 6966   0.913   0.995   6.657 -0.7710 -0.0902  0.5723
 1052Sol     OW 6967   0.928   2.347   7.057  0.3621  0.3039  0.2909
 1052Sol     HW 6968   0.842   2.386   7.076  0.8293  1.2448  0.4922
 1052Sol     HW 6969   0.913   2.292   6.980 -0.3963  0.5635  0.2470
 1052Sol     MW 6970   0.919   2.346   7.052 -0.5865  0.1982 -0.5628
 1053Sol     OW 6971   0.242   0.817   6.741  0.4790  0.2155  0.2849
 1053Sol     HW 6972   0.267   0.900   6.781  1.9815  0.1938 -0.5632
 1053Sol     HW 6973   0.192   0.772   6.809 -0.0076  1.6308  0.8949
 1053Sol     MW 6974   0.239   0.820   6.751 -0.3610 -0.0131 -0.0530
 1054Sol     OW 6975   2.066   2.505   8.053 -0.6379  0.1953  0.5221
 1054Sol     HW 6976   2.134   2.500   8.120 -0.7898 -1.1184  0.5816
 1054Sol     HW 6977   2.047   2.599   8.045 -0.2784  0.3946  1.9543
 1054Sol     MW 6978   2.071   2.513   8.058 -0.3468  0.1191 -0.0339
 1055Sol     OW 6979   2.750   0.462  10.137 -0.3844 -0.6729 -0.1070
 1055Sol     HW 6980   2.664   0.429  10.112  0.2697 -1.8826 -0.8349
 1055Sol     HW 6981   2.747   0.555  10.117 -1.7026 -0.5949  0.3837
 1055Sol     MW 6982   2.742   0.467  10.133  0.0313 -0.4992  0.5684
 1056Sol     OW 6983   0.030   3.024   8.697 -0.1331  0.1621 -0.2775
 1056Sol     HW 6984   0.015   2.985   8.611 -1.7118 -0.9175  0.4653
 1056Sol     HW 6985  -0.009   2.962   8.759 -0.1544  1.5383  1.1280
 1056Sol     MW 6986   0.025   3.015   8.695  0.2836 -0.1870  0.6404
 1057Sol     OW 6987   1.077   2.813   9.857  0.6897 -0.0395  0.1363
 1057Sol     HW 6988   0.993   2.829   9.814  1.3293  0.6259 -0.8720
 1057Sol     HW 6989   1.092   2.719   9.844 -0.5030 -0.4412  1.4511
 1057Sol     MW 6990   1.071   2.806   9.852  0.2155  0.0068 -0.0418
 1058Sol     OW 6991   3.007   0.352   8.384 -0.0852 -0.1077  0.0278
 1058Sol     HW 6992   3.102   0.362   8.393 -0.1832 -0.5061  1.7497
 1058Sol     HW 6993   2.985   0.405   8.308  1.4086  0.6703  0.1036
 1058Sol     MW 6994   3.014   0.358   8.378  0.4716 -0.0940 -0.4006
 1059Sol     OW 6995   1.033   3.290   6.008  0.9421  0.0878  0.0085
 1059Sol     HW 6996   1.057   3.238   5.932  1.7980 -2.7882  2.1408
 1059Sol     HW 6997   0.950   3.252   6.037  1.4661 -0.0021  1.4616
 1059Sol     MW 6998   1.028   3.282   6.004  0.1108 -0.3322  0.4502
 1060Sol     OW 6999   1.934   1.712  10.544 -0.0016  0.0082 -0.0859
 1060Sol     HW 7000   2.029   1.696  10.548 -0.4005 -3.0137 -1.0545
 1060Sol     HW 7001   1.924   1.785  10.484  1.6822 -0.4524 -0.9686
 1060Sol     MW 7002   1.942   1.717  10.539 -0.5031  0.0142  0.2429
 1061Sol     OW 7003   2.531   1.953   4.779  0.0815  0.4602  0.4030
 1061Sol     HW 7004   2.570   2.018   4.721 -1.0832  1.5624  0.8411
 1061Sol     HW 7005   2.442   1.940   4.745  0.3323 -1.0000  0.2514
 1061Sol     MW 7006   2.527   1.957   4.771 -0.4474  0.1278  0.0574
 1062Sol     OW 7007   0.007   1.710   7.464  0.8893 -0.4443 -0.3766
 1062Sol     HW 7008  -0.014   1.646   7.531 -1.0960  1.1537  0.5918
 1062Sol     HW 7009   0.060   1.776   7.510 -0.8427  0.8772 -0.2287
 1062Sol     MW 7010   0.010   1.710   7.474 -0.0577  0.0635 -0.1095
 1063Sol     OW 7011   0.531   2.201   6.311  0.4789  0.0106 -0.1251
 1063Sol     HW 7012   0.463   2.134   6.324  0.1156  0.7750  2.0049
 1063Sol     HW 7013   0.485   2.284   6.317  1.0365  0.4930 -2.1698
 1063Sol     MW 7014   0.521   2.202   6.313 -0.2693 -0.6443 -0.0505
 1064Sol     OW 7015   1.087   2.354   6.432  0.0982 -0.1201 -0.2834
 1064Sol     HW 7016   1.011   2.310   6.469 -0.4864 -1.1778 -2.6843
 1064Sol     HW 7017   1.137   2.285   6.390  0.2887  1.1692 -2.2355
 1064Sol     MW 7018   1.085   2.344   6.432  0.2014  0.0724 -0.1734
 1065Sol     OW 7019   2.294   1.294   4.896 -0.1396 -0.3082  0.0017
 1065Sol     HW 7020   2.355   1.294   4.970  0.0253 -0.4774 -0.1344
 1065Sol     HW 7021   2.293   1.203   4.865 -0.5245 -0.3248  0.0577
 1065Sol     MW 7022   2.299   1.286   4.900  0.1935 -0.0590 -0.1465
 1066Sol     OW 7023   1.305   2.202   4.883  0.9340 -0.3225 -0.1405
 1066Sol     HW 7024   1.316   2.214   4.977 -0.0157 -0.4707 -0.0033
 1066Sol     HW 7025   1.256   2.279   4.854  0.4738 -0.6942 -0.3606
 1066Sol     MW 7026   1.302   2.210   4.889 -0.1118  0.0254 -0.3931
 1067Sol     OW 7027   2.354   0.366   4.319 -0.0835 -0.2610  0.3252
 1067Sol     HW 7028   2.301   0.428   4.269 -0.5814 -0.9031  0.0509
 1067Sol     HW 7029   2.426   0.419   4.354 -1.7588  0.9374  2.0467
 1067Sol     MW 7030   2.356   0.376   4.317 -0.2295 -0.2201  0.0299
 1068Sol     OW 7031   0.031   1.222   4.765  0.0727 -0.0285  0.0534
 1068Sol     HW 7032  -0.005   1.228   4.853 -1.0738 -0.8157 -0.3474
 1068Sol     HW 7033  -0.028   1.163   4.719  1.6206 -0.9897 -0.7635
 1068Sol     MW 7034   0.023   1.217   4.769  0.1275 -0.3176  0.8515
 1069Sol     OW 7035   0.035   2.049   7.815 -0.0735 -0.5558  0.3499
 1069Sol     HW 7036   0.018   2.099   7.735 -2.0890 -0.2633  0.9371
 1069Sol     HW 7037   0.093   1.979   7.788 -1.4321 -0.9789 -1.5633
 1069Sol     MW 7038   0.039   2.047   7.806  0.7385  0.0648 -0.8752
 1070Sol     OW 7039   2.606   2.684   7.834  0.0600 -0.2643  0.2139
 1070Sol     HW 7040   2.646   2.598   7.822  1.7303  0.2962  1.5270
 1070Sol     HW 7041   2.564   2.679   7.919 -0.8752 -0.1609 -0.2393
 1070Sol     MW 7042   2.606   2.676   7.840 -0.0270 -0.1637  0.1994
 1071Sol     OW 7043   0.091   0.539   4.582  0.1569  0.0751 -0.0628
 1071Sol     HW 7044   0.100   0.449   4.552  0.6250 -0.4788  1.6640
 1071Sol     HW 7045   0.121   0.592   4.509 -0.3266 -1.1596 -1.1739
 1071Sol     MW 7046   0.094   0.536   4.573  0.1888 -0.8017 -0.3244
 1072Sol     OW 7047   2.345   1.763   3.064 -0.1907  0.0763 -0.5072
 1072Sol     HW 7048   2.316   1.758   2.973  1.2572 -1.1986 -0.9111
 1072Sol     HW 7049   2.355   1.857   3.081 -0.7777  0.3339 -1.5563
 1072Sol     MW 7050   2.343   1.771   3.058  0.3178  0.0299 -0.0390
 1073Sol     OW 7051   1.969   2.597   6.249 -0.5483 -0.2654 -0.1504
 1073Sol     HW 7052   2.029   2.665   6.216 -0.9868 -0.2547 -0.9431
 1073Sol     HW 7053   1.997   2.582   6.339 -0.6524  1.2083  0.1433
 1073Sol     MW 7054   1.977   2.602   6.254  0.4215 -0.0953  0.2546
 1074Sol     OW 7055   1.547   1.349   5.375  0.4439 -0.2111 -0.8614
 1074Sol     HW 7056   1.453   1.339   5.363  0.8291 -0.9026 -3.4169
 1074Sol     HW 7057   1.563   1.443   5.361  0.3580 -0.3712 -2.0530
 1074Sol     MW 7058   1.540   1.357   5.373 -0.0010  0.3517 -0.1018
 1075Sol     OW 7059   0.843   3.306   4.374 -0.5587  0.1993 -0.0177
 1075Sol     HW 7060   0.752   3.311   4.405 -0.3610  2.2846  0.3537
 1075Sol     HW 7061   0.874   3.221   4.403 -2.0195 -0.0064  0.9936
 1075Sol     MW 7062   0.838   3.299   4.379  0.2079  0.2248  0.3839
 1076Sol     OW 7063   1.694   2.149  10.077 -0.3519 -0.3944 -0.1294
 1076Sol     HW 7064   1.772   2.095  10.091  0.5031  1.2122  1.5946
 1076Sol     HW 7065   1.620   2.089  10.091  0.5623 -0.9940  2.4349
 1076Sol     MW 7066   1.694   2.139  10.079  0.4160 -0.1194  0.3202
 1077Sol     OW 7067   0.741   1.690   8.070  0.0026  0.5369  0.4769
 1077Sol     HW 7068   0.713   1.600   8.054  0.0523  0.7753 -1.0392
 1077Sol     HW 7069   0.681   1.744   8.019 -1.0683  1.4884  2.7007
 1077Sol     MW 7070   0.733   1.686   8.064  0.2673  0.0471 -0.0469
 1078Sol     OW 7071   1.847   0.303   8.613  0.0002 -0.1670 -0.5187
 1078Sol     HW 7072   1.941   0.316   8.625  0.0569 -1.0791  0.1195
 1078Sol     HW 7073   1.829   0.220   8.657 -0.9778 -0.3501 -1.2536
 1078Sol     MW 7074   1.854   0.297   8.618 -0.2387 -0.0800 -0.2820
 1079Sol     OW 7075   2.059   0.587   9.930 -0.2685 -0.6331  0.7989
 1079Sol     HW 7076   1.987   0.650   9.938 -1.2207 -1.5931  0.0337
 1079Sol     HW 7077   2.125   0.633   9.878  0.2014  0.6943  2.5443
 1079Sol     MW 7078   2.058   0.597   9.926  0.7091  0.1414  0.3533
 1080Sol     OW 7079   0.806   3.171   1.518 -0.1520  0.0646  0.3932
 1080Sol     HW 7080   0.727   3.180   1.572 -0.2107 -0.7272  0.4417
 1080Sol     HW 7081   0.859   3.105   1.563  0.9302  1.1981  0.8152
 1080Sol     MW 7082   0.804   3.166   1.527 -0.4436 -1.0443 -0.0378
 1081Sol     OW 7083   1.111   1.004   1.850 -0.0646 -0.3112 -0.0498
 1081Sol     HW 7084   1.131   1.050   1.931 -0.6894  2.2774 -1.3161
 1081Sol     HW 7085   1.119   0.911   1.872  0.9303  0.3840  2.6427
 1081Sol     MW 7086   1.113   1.000   1.859  0.4127  0.5837 -0.1334
 1082Sol     OW 7087   2.220   2.320   4.618  0.2220 -0.1051 -0.4857
 1082Sol     HW 7088   2.250   2.291   4.704 -0.7736  0.1584 -0.0397
 1082Sol     HW 7089   2.139   2.271   4.603  0.4709 -0.2637 -1.3427
 1082Sol     MW 7090   2.215   2.313   4.624  0.3128 -0.0516 -0.1120
 1083Sol     OW 7091   0.393   1.027   1.818  0.1738 -0.5158  0.2860
 1083Sol     HW 7092   0.309   1.072   1.826  0.0246 -0.4737 -1.2692
 1083Sol     HW 7093   0.408   0.988   1.904 -1.3677 -0.3811  0.6315
 1083Sol     MW 7094   0.387   1.027   1.826  0.3823 -0.4990 -0.1035
 1084Sol     OW 7095   2.539   3.220   4.010  0.0584  0.4900 -0.5319
 1084Sol     HW 7096   2.611   3.168   4.047  1.1698  1.2147 -1.6088
 1084Sol     HW 7097   2.541   3.199   3.917 -2.7723 -1.4048 -0.2113
 1084Sol     MW 7098   2.546   3.213   4.005  0.4225 -0.1139  0.3511
 1085Sol     OW 7099   2.486   1.295   4.190  1.0773 -0.2689 -0.5484
 1085Sol     HW 7100   2.537   1.373   4.214  0.0195  0.2316  0.1259
 1085Sol     HW 7101   2.461   1.257   4.274 -1.3023  0.5969 -0.8439
 1085Sol     MW 7102   2.489   1.299   4.200  0.4907  0.0541  0.2960
 1086Sol     OW 7103   0.867   3.290   3.847  0.2155  0.4553  0.2831
 1086Sol     HW 7104   0.943   3.241   3.815  0.0812  0.4049  0.0458
 1086Sol     HW 7105   0.888   3.308   3.939  0.5521  0.5101  0.1982
 1086Sol     MW 7106   0.876   3.288   3.852 -0.0467 -0.4492 -0.0126
 1087Sol     OW 7107   2.373   1.332   6.301 -0.0873  0.4469  0.2393
 1087Sol     HW 7108   2.403   1.252   6.258  0.2212 -0.1216  1.5018
 1087Sol     HW 7109   2.444   1.395   6.287 -0.4562  0.5984 -1.0053
 1087Sol     MW 7110   2.382   1.330   6.296  0.0202 -0.2006  0.4470
 1088Sol     OW 7111   1.576   2.182   4.296  0.4081  0.4989  0.2560
 1088Sol     HW 7112   1.541   2.101   4.333  0.1761  0.2727 -0.4532
 1088Sol     HW 7113   1.510   2.248   4.319 -0.4617  0.0856 -1.0147
 1088Sol     MW 7114   1.567   2.181   4.301  0.1724  0.8792 -0.0766
 1089Sol     OW 7115   1.128   2.704   7.552  0.2155  0.6553  0.5844
 1089Sol     HW 7116   1.194   2.663   7.607  1.1843  2.7715  1.0283
 1089Sol     HW 7117   1.138   2.661   7.467  2.5675  1.3225  0.4895
 1089Sol     MW 7118   1.135   2.696   7.549  0.2221 -0.4211 -0.0339
 1090Sol     OW 7119   2.438   2.385   8.454 -0.0363  1.0281  0.0301
 1090Sol     HW 7120   2.498   2.455   8.428  1.8401 -0.7938 -0.6242
 1090Sol     HW 7121   2.493   2.308   8.464 -2.0531 -0.3476  0.8857
 1090Sol     MW 7122   2.448   2.385   8.452  0.0944 -0.2742  0.2278
 1091Sol     OW 7123   1.040   0.094   4.346  0.2874  0.2179  0.0541
 1091Sol     HW 7124   0.981   0.023   4.371 -1.3695  1.8042  0.8151
 1091Sol     HW 7125   0.987   0.173   4.354  2.3124  1.6310  0.0211
 1091Sol     MW 7126   1.030   0.095   4.349 -0.0301  0.4117 -0.1137
 1092Sol     OW 7127   0.188   2.799   2.097 -0.2815  0.5058  0.1436
 1092Sol     HW 7128   0.209   2.793   2.190 -0.3167  2.9963  0.3203
 1092Sol     HW 7129   0.272   2.815   2.055 -0.6113  1.8492 -0.0083
 1092Sol     MW 7130   0.198   2.800   2.101 -0.0905 -0.5264  0.4776
 1093Sol     OW 7131   2.257   3.102   8.518 -0.2641  0.3813  0.1060
 1093Sol     HW 7132   2.249   3.189   8.480  0.5861  0.1738 -0.5592
 1093Sol     HW 7133   2.348   3.096   8.546 -0.3939 -0.1841  0.4176
 1093Sol     MW 7134   2.264   3.109   8.517  0.2294  0.0635 -0.2099
 1094Sol     OW 7135   0.733   1.552   2.452  0.2942 -0.0443  0.2085
 1094Sol     HW 7136   0.702   1.637   2.418  1.6456  0.0525 -0.8474
 1094Sol     HW 7137   0.665   1.524   2.513 -0.0438  1.9362  0.7754
 1094Sol     MW 7138   0.725   1.557   2.454 -0.0822  0.0807 -0.6244
 1095Sol     OW 7139   1.649   3.057   9.053  0.8775  0.0784 -0.5187
 1095Sol     HW 7140   1.709   3.109   8.999  0.1977  1.3310 -0.0603
 1095Sol     HW 7141   1.693   3.050   9.138  0.5903  0.6118 -0.3243
 1095Sol     MW 7142   1.658   3.061   9.056  0.1026  0.2919 -0.4638
 1096Sol     OW 7143   2.993   3.255   4.906  0.5426  0.6252  0.1903
 1096Sol     HW 7144   3.080   3.234   4.871  0.7442  0.0119  1.0378
 1096Sol     HW 7145   2.947   3.294   4.832  1.3933  0.5583 -0.3936
 1096Sol     MW 7146   2.997   3.256   4.896 -0.3400 -0.0916  0.7479
 1097Sol     OW 7147   1.760   0.600   8.158 -0.6680 -0.2545  0.1856
 1097Sol     HW 7148   1.694   0.628   8.222 -0.3198 -1.1134  0.9292
 1097Sol     HW 7149   1.765   0.672   8.096 -1.1315  0.5242  1.0377
 1097Sol     MW 7150   1.754   0.609   8.158  0.7269 -0.2420 -0.2695
 1098Sol     OW 7151   0.336   2.020   2.593 -0.0495  0.0648  0.4399
 1098Sol     HW 7152   0.261   1.961   2.590  0.7486 -0.9749  0.6371
 1098Sol     HW 7153   0.343   2.045   2.685 -1.2452  1.6070  0.1329
 1098Sol     MW 7154   0.330   2.017   2.601  0.2886  0.2806 -0.1425
 1099Sol     OW 7155   0.955   0.641   4.339  0.4623 -0.0898 -0.0815
 1099Sol     HW 7156   0.922   0.637   4.249  0.8788 -2.2180 -0.1723
 1099Sol     HW 7157   0.986   0.731   4.349  0.9758  0.0144 -2.2895
 1099Sol     MW 7158   0.955   0.648   4.332  0.0136  0.4597  0.6092
 1100Sol     OW 7159   1.104   2.913   2.643 -0.2223  0.2298 -0.1355
 1100Sol     HW 7160   1.131   2.976   2.710  1.6367 -0.3448 -0.3088
 1100Sol     HW 7161   1.045   2.963   2.586  0.5071  1.5611  0.2433
 1100Sol     MW 7162   1.101   2.924   2.644 -0.1325  0.8461 -0.5198
 1101Sol     OW 7163   1.481   0.763   6.777 -0.3388 -0.1492 -0.8892
 1101Sol     HW 7164   1.494   0.719   6.861 -1.4824 -1.3673 -1.3282
 1101Sol     HW 7165   1.396   0.806   6.785  0.3565  1.2129 -0.8004
 1101Sol     MW 7166   1.475   0.763   6.785 -0.0446  0.4606  0.4745
 1102Sol     OW 7167   1.177   2.855   4.164 -0.0615  0.4373 -0.1315
 1102Sol     HW 7168   1.255   2.805   4.139 -0.9623 -0.9186 -0.2660
 1102Sol     HW 7169   1.212   2.930   4.212  1.4340  0.8023 -1.7251
 1102Sol     MW 7170   1.187   2.857   4.166  0.1379 -0.5906 -0.2316
 1103Sol     OW 7171   0.103   1.176   9.971  0.2113 -0.4721  0.4801
 1103Sol     HW 7172   0.197   1.188   9.955 -0.1078  2.5393  0.6557
 1103Sol     HW 7173   0.093   1.081   9.982  3.0316 -0.9602 -0.7023
 1103Sol     MW 7174   0.111   1.169   9.971 -0.1197  0.6914 -1.1887
 1104Sol     OW 7175   0.880   0.034   1.511  0.7262 -0.2845  0.4421
 1104Sol     HW 7176   0.859  -0.056   1.485 -1.9780  0.8274 -1.4810
 1104Sol     HW 7177   0.849   0.041   1.601 -2.9709 -0.1193 -0.7762
 1104Sol     MW 7178   0.875   0.026   1.516  0.1380  0.8549  0.1499
 1105Sol     OW 7179   2.797   3.105   2.662  0.1567  0.6708  0.0116
 1105Sol     HW 7180   2.793   3.033   2.726  0.6605  1.4264  0.9068
 1105Sol     HW 7181   2.712   3.103   2.618 -0.0819 -0.0523  0.4980
 1105Sol     MW 7182   2.789   3.098   2.664 -0.1203 -0.1373 -0.5225
 1106Sol     OW 7183   2.677   2.638   7.201  0.6317  0.8009  0.0251
 1106Sol     HW 7184   2.633   2.724   7.201 -0.5605  0.2265 -2.1780
 1106Sol     HW 7185   2.677   2.611   7.110  0.0185 -2.0367  0.8088
 1106Sol     MW 7186   2.673   2.643   7.193 -0.1026 -0.0611 -0.0721
 1107Sol     OW 7187   2.456   1.928   9.330 -0.2605  0.4439  0.1245
 1107Sol     HW 7188   2.390   1.928   9.262  1.1288 -1.0390 -1.2809
 1107Sol     HW 7189   2.481   2.020   9.340 -1.2406  0.7926 -0.6233
 1107Sol     MW 7190   2.453   1.936   9.325 -0.2673 -0.2226  0.1142
 1108Sol     OW 7191   1.634   0.862   6.384 -0.0512  0.0318  0.5463
 1108Sol     HW 7192   1.655   0.770   6.365 -1.7064 -0.3577  0.5177
 1108Sol     HW 7193   1.700   0.912   6.335  0.0814 -1.1079 -0.4778
 1108Sol     MW 7194   1.642   0.858   6.378  0.2244  0.1783  0.1514
 1109Sol     OW 7195   1.580   0.041   2.098 -0.1388 -0.4376  0.3446
 1109Sol     HW 7196   1.631   0.121   2.085 -0.3582 -0.5991 -1.8094
 1109Sol     HW 7197   1.639  -0.018   2.144  1.1811 -0.1442 -0.9221
 1109Sol     MW 7198   1.590   0.043   2.101  0.1137  0.6630 -0.1432
 1110Sol     OW 7199   0.559   1.453   9.304 -0.6547 -0.0003 -0.4954
 1110Sol     HW 7200   0.615   1.463   9.226 -1.4458 -0.2068 -1.0956
 1110Sol     HW 7201   0.471   1.471   9.272 -0.8073  1.4574  0.7016
 1110Sol     MW 7202   0.556   1.455   9.294 -0.0003 -0.0674  0.4950
 1111Sol     OW 7203   0.500   0.314   8.551  0.1135 -0.0257  0.2868
 1111Sol     HW 7204   0.425   0.293   8.496 -0.1114 -1.1368  1.0101
 1111Sol     HW 7205   0.570   0.256   8.521  0.3559  0.2266  0.3543
 1111Sol     MW 7206   0.500   0.307   8.543 -1.1080  0.3136  0.2055
 1112Sol     OW 7207   0.395   2.073   7.867  0.2792  0.4716  0.3359
 1112Sol     HW 7208   0.321   2.108   7.916 -0.6776 -0.1830 -0.6182
 1112Sol     HW 7209   0.442   2.151   7.837 -0.7843  0.9223 -0.2019
 1112Sol     MW 7210   0.392   2.083   7.869 -0.0223 -0.8604  0.4829
 1113Sol     OW 7211   0.936   2.968   1.643 -0.5628 -0.2992  0.4337
 1113Sol     HW 7212   0.907   2.963   1.734  0.3878 -0.3088  0.7462
 1113Sol     HW 7213   1.026   3.000   1.648 -1.0342  1.3014 -0.5993
 1113Sol     MW 7214   0.942   2.971   1.651 -0.9197  0.1766  0.1822
 1114Sol     OW 7215   2.548   0.081   3.961 -0.0298  0.2629 -0.7588
 1114Sol     HW 7216   2.459   0.117   3.962  0.0068  0.3439 -0.2869
 1114Sol     HW 7217   2.538  -0.008   3.995  0.5693  1.4628  2.7804
 1114Sol     MW 7218   2.539   0.076   3.964  0.2143 -0.1267  0.2320
 1115Sol     OW 7219   2.839   0.236   9.087  0.1060 -0.0357  0.5470
 1115Sol     HW 7220   2.847   0.148   9.048  1.3146  0.2147  0.1969
 1115Sol     HW 7221   2.839   0.295   9.012 -2.4563  0.1760  0.6941
 1115Sol     MW 7222   2.840   0.233   9.077 -0.0459  0.6491 -0.5590
 1116Sol     OW 7223   1.029   3.353   6.690 -0.8214  0.1664 -0.0493
 1116Sol     HW 7224   0.940   3.364   6.725 -1.2888  0.6418 -1.3613
 1116Sol     HW 7225   1.062   3.443   6.681 -0.5573  0.0322 -0.4311
 1116Sol     MW 7226   1.024   3.362   6.692  0.1063  0.2954  0.1411
 1117Sol     OW 7227   2.720   2.433   9.772  0.1451  0.5232  0.5194
 1117Sol     HW 7228   2.769   2.446   9.854  1.2398 -3.0273  0.5382
 1117Sol     HW 7229   2.783   2.392   9.713 -1.4338  0.4697 -1.1701
 1117Sol     MW 7230   2.730   2.430   9.774 -0.6024  0.0522  0.0434
 1118Sol     OW 7231   0.630   3.190   7.573 -0.4788 -0.0883  0.0065
 1118Sol     HW 7232   0.633   3.107   7.621 -1.4541 -0.0391  0.1572
 1118Sol     HW 7233   0.709   3.189   7.518 -1.1500 -1.6960 -0.9686
 1118Sol     MW 7234   0.638   3.183   7.572  0.5528  0.1249 -0.1039
 1119Sol     OW 7235   1.985   1.556   4.674  0.1339 -0.4460  0.1339
 1119Sol     HW 7236   1.940   1.490   4.621 -1.5917  0.5272  0.3215
 1119Sol     HW 7237   1.915   1.597   4.725  1.5969 -0.5162  2.2499
 1119Sol     MW 7238   1.974   1.554   4.674  0.9155 -0.1149 -0.1989
 1120Sol     OW 7239   1.082   3.342   9.513  0.4311 -0.1124 -0.2295
 1120Sol     HW 7240   1.106   3.410   9.450  0.1503  0.6729  0.4969
 1120Sol     HW 7241   1.075   3.262   9.461  0.1884  0.5291 -1.1930
 1120Sol     MW 7242   1.083   3.341   9.502 -0.3394 -0.1224 -0.3616
 1121Sol     OW 7243   1.671   0.989   3.755  0.1893  0.4253  0.1906
 1121Sol     HW 7244   1.753   1.000   3.803  0.0951 -0.3339  0.5207
 1121Sol     HW 7245   1.684   1.039   3.674  0.0855  2.3122  1.3032
 1121Sol     MW 7246   1.679   0.995   3.752  0.1930 -0.7208  0.0634
 1122Sol     OW 7247   0.519   2.218   9.631  0.1817  0.4873  0.1169
 1122Sol     HW 7248   0.507   2.138   9.580  0.7906 -1.0134  2.2576
 1122Sol     HW 7249   0.430   2.251   9.644 -0.1030 -0.0033 -0.5403
 1122Sol     MW 7250   0.510   2.213   9.627  0.4072  0.1686 -0.1178
 1123Sol     OW 7251   2.142   3.332   7.976  0.3144  0.2209 -0.1687
 1123Sol     HW 7252   2.215   3.323   8.037  0.3746  0.1229 -0.2566
 1123Sol     HW 7253   2.065   3.308   8.029  0.3296  0.4528 -0.0416
 1123Sol     MW 7254   2.141   3.329   7.987  0.2839  0.3098  0.4563
 1124Sol     OW 7255   1.095   0.735   9.854 -0.0113  0.7110 -0.5455
 1124Sol     HW 7256   1.044   0.814   9.836 -0.6405  0.3189 -0.5025
 1124Sol     HW 7257   1.080   0.679   9.777  0.0565  0.4445 -0.3646
 1124Sol     MW 7258   1.089   0.737   9.845 -0.3405 -0.4413  0.0914
 1125Sol     OW 7259   0.731   1.984   9.084 -0.0265  0.0127  0.3317
 1125Sol     HW 7260   0.662   1.919   9.074  0.7019 -0.7088 -0.0441
 1125Sol     HW 7261   0.712   2.027   9.168 -0.9329 -0.1667  0.2196
 1125Sol     MW 7262   0.723   1.982   9.091 -0.1249  0.2774  0.4533
 1126Sol     OW 7263   0.478   0.090   6.274  0.1153 -0.4796 -0.3583
 1126Sol     HW 7264   0.427   0.131   6.205 -0.5087  0.3802  0.6020
 1126Sol     HW 7265   0.483  -0.003   6.249 -1.3536 -0.4505 -0.7885
 1126Sol     MW 7266   0.474   0.085   6.266  0.0665 -0.3452  0.1112
 1127Sol     OW 7267   2.203   1.432   7.767  0.3805  0.7906 -0.6296
 1127Sol     HW 7268   2.161   1.450   7.683 -2.0413 -0.2320  0.3216
 1127Sol     HW 7269   2.272   1.369   7.746 -2.6704 -2.4878 -1.4049
 1127Sol     MW 7270   2.205   1.428   7.758  0.3903  0.4283 -0.9608
 1128Sol     OW 7271   1.755   3.293   2.238  0.6374  0.2748  0.0640
 1128Sol     HW 7272   1.750   3.198   2.225 -0.2932  0.6556 -2.6553
 1128Sol     HW 7273   1.831   3.320   2.187 -0.0943  1.2008 -0.5562
 1128Sol     MW 7274   1.761   3.287   2.232  0.3023  0.0218  0.5146
 1129Sol     OW 7275   1.686   2.151   8.101  0.0415  0.1782 -0.0204
 1129Sol     HW 7276   1.667   2.102   8.181 -2.1475 -0.3822 -0.8653
 1129Sol     HW 7277   1.748   2.219   8.128 -1.9664  1.0499  2.4736
 1129Sol     MW 7278   1.690   2.152   8.110  0.7819 -0.2987 -0.0385
 1130Sol     OW 7279   0.533   2.907   6.207  0.4464 -0.1766 -0.3009
 1130Sol     HW 7280   0.536   2.969   6.134 -0.4840  0.1817 -0.0306
 1130Sol     HW 7281   0.466   2.844   6.183  1.5062 -1.1985 -0.6544
 1130Sol     MW 7282   0.528   2.907   6.198  0.7030 -0.0561 -0.2148
 1131Sol     OW 7283   1.894   1.339   2.400 -0.0806 -0.5276  0.0151
 1131Sol     HW 7284   1.925   1.336   2.310  0.6196 -1.4861  0.2812
 1131Sol     HW 7285   1.927   1.259   2.440  1.3365  0.8477  1.6977
 1131Sol     MW 7286   1.899   1.332   2.395  0.8293  0.2584 -0.7576
 1132Sol     OW 7287   0.419   0.793   1.691 -0.4284 -0.2564 -0.0785
 1132Sol     HW 7288   0.411   0.881   1.728  3.3374 -0.2533  0.9325
 1132Sol     HW 7289   0.478   0.804   1.617  1.0755 -2.0882  0.8024
 1132Sol     MW 7290   0.423   0.802   1.688 -0.1946 -0.4871  0.1003
 1133Sol     OW 7291   0.511   0.787   3.729  0.3302 -0.3230  0.2375
 1133Sol     HW 7292   0.581   0.723   3.718  1.0372  0.4902 -0.1181
 1133Sol     HW 7293   0.467   0.789   3.645  1.8440  1.4070 -0.5495
 1133Sol     MW 7294   0.513   0.782   3.721  0.4559 -0.4152 -0.0391
 1134Sol     OW 7295   1.146   2.311   9.409 -0.6556 -0.4563 -0.4985
 1134Sol     HW 7296   1.180   2.239   9.355 -0.4119 -0.3903 -0.4350
 1134Sol     HW 7297   1.215   2.327   9.473  0.3271  1.3826 -1.9501
 1134Sol     MW 7298   1.155   2.306   9.410 -0.0193  0.3094 -0.0080
 1135Sol     OW 7299   2.623   2.661   5.908 -0.1081 -0.0869 -0.0931
 1135Sol     HW 7300   2.690   2.622   5.964  0.8790  0.3611 -0.9500
 1135Sol     HW 7301   2.562   2.589   5.890  0.3664 -0.6019  0.3317
 1135Sol     MW 7302   2.623   2.651   5.912 -0.0489  0.0575  0.0795
 1136Sol     OW 7303   1.840   2.135   4.367 -0.1716 -0.0939 -0.5497
 1136Sol     HW 7304   1.764   2.184   4.335 -1.0311 -1.3677 -0.5027
 1136Sol     HW 7305   1.843   2.056   4.312  1.3373  0.1056 -0.7884
 1136Sol     MW 7306   1.833   2.132   4.359  0.0802 -0.0487  0.0121
 1137Sol     OW 7307   0.225   2.545   4.634 -0.5292  0.5875 -0.1825
 1137Sol     HW 7308   0.153   2.488   4.604 -0.3861  0.5505 -0.4552
 1137Sol     HW 7309   0.189   2.633   4.630 -0.2144  0.6698 -1.3462
 1137Sol     MW 7310   0.215   2.548   4.631 -0.1655 -0.4721  0.7003
 1138Sol     OW 7311   0.393   2.458   6.329  0.0848  0.1362  0.5041
 1138Sol     HW 7312   0.341   2.508   6.392  1.1536  1.8077  0.0797
 1138Sol     HW 7313   0.479   2.498   6.331  0.1027  0.3288 -2.1405
 1138Sol     MW 7314   0.396   2.466   6.334  0.2781  0.7307 -0.5392
 1139Sol     OW 7315   1.447   1.757   5.480  0.0546  0.7436  0.3099
 1139Sol     HW 7316   1.422   1.837   5.434 -0.5299  0.2153 -0.2966
 1139Sol     HW 7317   1.380   1.693   5.457  1.7114 -0.5848 -0.9874
 1139Sol     MW 7318   1.439   1.758   5.474  0.1929  0.3681  0.0920
 1140Sol     OW 7319   2.554   1.380   3.846  0.0354 -0.8243  0.3735
 1140Sol     HW 7320   2.613   1.449   3.877  0.5188 -1.7112  1.4502
 1140Sol     HW 7321   2.542   1.399   3.753 -1.4297  1.8925  1.0535
 1140Sol     MW 7322   2.558   1.388   3.840 -0.6714 -0.8163 -0.2122
 1141Sol     OW 7323   0.685   0.591   9.839  0.1915  0.4133 -0.5732
 1141Sol     HW 7324   0.748   0.643   9.889  0.1926  0.7181 -0.8926
 1141Sol     HW 7325   0.602   0.636   9.851 -0.3844 -1.1498  1.5674
 1141Sol     MW 7326   0.684   0.600   9.845 -0.2243  0.9339  0.5268
 1142Sol     OW 7327   1.895   2.500   3.723  0.0359 -0.2216  0.9324
 1142Sol     HW 7328   1.833   2.498   3.650 -0.0584 -0.8221  1.0288
 1142Sol     HW 7329   1.839   2.509   3.801  0.1787  1.3384  0.8773
 1142Sol     MW 7330   1.884   2.501   3.724  0.6839 -0.6727  0.1882
 1143Sol     OW 7331   0.373   0.471   4.255  0.1304 -0.1809  0.1760
 1143Sol     HW 7332   0.384   0.377   4.270 -0.2477 -0.2163  0.2455
 1143Sol     HW 7333   0.321   0.476   4.174  0.5283 -0.0258 -0.0690
 1143Sol     MW 7334   0.369   0.463   4.249 -0.0506  0.0125  0.1946
 1144Sol     OW 7335   0.852   1.127   5.978  0.5310 -0.9253 -0.3350
 1144Sol     HW 7336   0.768   1.093   6.009  0.0146  0.9600  0.3993
 1144Sol     HW 7337   0.853   1.108   5.885 -1.1921 -0.0003 -0.5554
 1144Sol     MW 7338   0.844   1.122   5.973 -0.0833 -0.2431  0.0698
 1145Sol     OW 7339   2.775   0.006   7.583  0.1301 -0.1474  0.0463
 1145Sol     HW 7340   2.782  -0.079   7.540  1.2461 -0.0523  0.0186
 1145Sol     HW 7341   2.713  -0.007   7.655 -1.4788 -0.4044 -1.3464
 1145Sol     MW 7342   2.770  -0.002   7.585  0.5074 -0.3440 -0.1088
 1146Sol     OW 7343   0.005   2.649   9.049 -0.4662  0.0011 -0.0096
 1146Sol     HW 7344   0.082   2.630   8.995 -0.3765 -0.8833  0.4225
 1146Sol     HW 7345   0.003   2.745   9.054 -0.1351  0.0766 -1.0824
 1146Sol     MW 7346   0.012   2.656   9.044  0.0555 -0.2524 -0.6329
 1147Sol     OW 7347   1.095   2.874  10.119 -0.5210 -0.2406  0.4729
 1147Sol     HW 7348   1.186   2.900  10.131 -0.8496  0.9957  0.4337
 1147Sol     HW 7349   1.088   2.851  10.027 -0.1158 -0.9079  0.6070
 1147Sol     MW 7350   1.102   2.875  10.112  0.4747 -0.8233 -0.4724
 1148Sol     OW 7351   2.229   1.286   2.309  0.2209  0.0781 -0.1024
 1148Sol     HW 7352   2.216   1.380   2.324  0.5783 -0.0974  1.4039
 1148Sol     HW 7353   2.259   1.252   2.394 -0.5302 -1.5129 -0.4537
 1148Sol     MW 7354   2.230   1.292   2.318  1.1160 -0.8108 -0.1180
 1149Sol     OW 7355   0.423   0.775   2.285  0.3152  0.3502 -0.3065
 1149Sol     HW 7356   0.516   0.794   2.294  0.6737 -1.0637 -0.9947
 1149Sol     HW 7357   0.391   0.843   2.225  1.1347  0.1749 -0.9531
 1149Sol     MW 7358   0.428   0.783   2.280 -0.2358 -0.4913  0.2900
 1150Sol     OW 7359   2.513   2.086   8.911  0.3969 -0.2599  0.0450
 1150Sol     HW 7360   2.460   2.152   8.956  2.2409  1.8193 -0.8318
 1150Sol     HW 7361   2.567   2.048   8.981 -2.8949 -3.2016  1.1874
 1150Sol     MW 7362   2.513   2.088   8.922  0.2362  0.4030 -0.0852
 1151Sol     OW 7363   2.688   2.094   5.841 -0.4241  0.6779 -0.1774
 1151Sol     HW 7364   2.695   2.031   5.769  0.1604 -1.3087  1.5541
 1151Sol     HW 7365   2.759   2.070   5.900 -0.7364  2.4470  0.9481
 1151Sol     MW 7366   2.695   2.086   5.840 -0.2853 -0.2890 -0.2717
 1152Sol     OW 7367   1.406   2.557   6.740  0.1420 -0.2636 -0.0230
 1152Sol     HW 7368   1.431   2.637   6.694  0.5016 -1.1806 -1.4472
 1152Sol     HW 7369   1.311   2.558   6.739  0.1422  0.1587  0.0148
 1152Sol     MW 7370   1.400   2.565   6.736  0.5993 -0.4310  0.1214
 1153Sol     OW 7371   1.877   1.602   5.284  0.2648  0.6349  0.1024
 1153Sol     HW 7372   1.883   1.509   5.306 -0.2715  0.3126 -1.0539
 1153Sol     HW 7373   1.786   1.614   5.256  0.1027  1.6936  1.0489
 1153Sol     MW 7374   1.869   1.594   5.284  0.2922 -0.1121 -0.1157
 1154Sol     OW 7375   0.270   2.763   6.914 -0.2743  0.1258 -0.1184
 1154Sol     HW 7376   0.330   2.822   6.961 -0.2098 -1.9580  2.5087
 1154Sol     HW 7377   0.206   2.736   6.980 -1.8215 -0.7468 -1.9307
 1154Sol     MW 7378   0.270   2.766   6.924 -0.9044  0.4468 -0.4520
 1155Sol     OW 7379   2.480   1.500   9.681 -0.0554 -0.6903  0.0978
 1155Sol     HW 7380   2.426   1.477   9.757 -0.8896  0.8497 -0.0180
 1155Sol     HW 7381   2.433   1.460   9.607 -0.5161 -0.1869  0.1152
 1155Sol     MW 7382   2.471   1.494   9.681 -0.1580  0.2864  0.0445
 1156Sol     OW 7383   0.007   0.374   9.823 -0.3867  0.3705  0.8653
 1156Sol     HW 7384   0.083   0.337   9.867 -0.0824 -1.1145 -0.8284
 1156Sol     HW 7385  -0.068   0.334   9.866 -0.1153 -0.3251  0.7017
 1156Sol     MW 7386   0.007   0.367   9.831  0.1072 -0.4760 -0.3400
 1157Sol     OW 7387   1.136   3.292   9.774 -0.3133  0.1212 -0.3102
 1157Sol     HW 7388   1.190   3.213   9.767  0.3870  0.6976 -1.4944
 1157Sol     HW 7389   1.121   3.319   9.684  1.3019  2.5767  0.1080
 1157Sol     MW 7390   1.140   3.287   9.765  0.2661 -0.4607  0.1887
 1158Sol     OW 7391   0.055   2.414   7.538 -0.6100 -0.2289 -0.1534
 1158Sol     HW 7392   0.045   2.446   7.449 -0.8474  0.0685 -0.0207
 1158Sol     HW 7393  -0.029   2.434   7.580 -0.2772  0.1987  0.3125
 1158Sol     MW 7394   0.046   2.419   7.534 -0.1671 -0.0004  0.1020
 1159Sol     OW 7395   1.153   0.118   4.636  0.4013  0.0945  0.1794
 1159Sol     HW 7396   1.241   0.079   4.637  0.8874  1.2007  1.1327
 1159Sol     HW 7397   1.124   0.108   4.545  0.8748 -1.6690  0.2038
 1159Sol     MW 7398   1.158   0.113   4.628 -0.6435 -0.2819 -0.4142
 1160Sol     OW 7399   1.950   1.034   2.162 -0.0697 -0.0455  0.2005
 1160Sol     HW 7400   2.017   0.995   2.219  0.1204  0.5270  0.3690
 1160Sol     HW 7401   1.988   1.030   2.075  0.1161  0.1180  0.2719
 1160Sol     MW 7402   1.960   1.030   2.160  0.0853 -0.1980 -0.1802
 1161Sol     OW 7403   2.701   1.660   5.495  0.3890 -0.0118 -0.3586
 1161Sol     HW 7404   2.767   1.674   5.563 -0.5740  1.4116  0.3181
 1161Sol     HW 7405   2.751   1.632   5.419  1.7827  1.0791  0.1333
 1161Sol     MW 7406   2.712   1.659   5.495 -0.1260 -0.1896  0.1482
 1162Sol     OW 7407   0.645   0.381   6.899 -0.1056 -0.3116  0.3899
 1162Sol     HW 7408   0.715   0.418   6.953 -0.8459 -2.2655  2.7805
 1162Sol     HW 7409   0.566   0.425   6.929 -0.4177 -0.8400  0.3407
 1162Sol     MW 7410   0.644   0.388   6.906 -0.5887  0.1607 -0.2980
 1163Sol     OW 7411   2.646   1.934   5.623 -0.5046  0.0443 -0.1010
 1163Sol     HW 7412   2.614   1.850   5.590  0.9348 -0.1941 -0.9665
 1163Sol     HW 7413   2.703   1.967   5.553 -3.0534  2.9999 -0.8779
 1163Sol     MW 7414   2.649   1.929   5.614  0.2720 -0.5437 -0.3950
 1164Sol     OW 7415   1.013   3.135   4.819  0.2079  0.1292 -0.0020
 1164Sol     HW 7416   0.991   3.224   4.847 -0.0243 -0.2743  1.1215
 1164Sol     HW 7417   1.097   3.144   4.775  0.2974  0.8721  0.3139
 1164Sol     MW 7418   1.018   3.144   4.818 -0.1169  0.5422  0.1138
 1165Sol     OW 7419   2.499   1.478   4.570 -0.3130  0.7550 -0.6799
 1165Sol     HW 7420   2.411   1.470   4.607  0.1153 -0.6527  0.0579
 1165Sol     HW 7421   2.558   1.453   4.641  0.6841  1.4764 -1.2386
 1165Sol     MW 7422   2.496   1.475   4.579 -0.0116  0.2057 -0.3181
 1166Sol     OW 7423   1.828   2.273   2.042  0.0754  0.2183  0.2792
 1166Sol     HW 7424   1.923   2.262   2.037  0.1472  0.5608  1.0004
 1166Sol     HW 7425   1.815   2.355   2.088 -0.5884 -0.4321  1.2554
 1166Sol     MW 7426   1.836   2.279   2.045 -0.2259 -0.5237 -0.4611
 1167Sol     OW 7427   3.068   1.861   3.958 -0.5484  0.1783  1.1643
 1167Sol     HW 7428   3.009   1.823   4.024 -1.8530  2.1029  1.1509
 1167Sol     HW 7429   3.115   1.929   4.006 -0.9243  1.0472  0.2980
 1167Sol     MW 7430   3.067   1.863   3.968 -0.4746 -0.5853 -0.0949
 1168Sol     OW 7431   0.430   2.065   5.671  0.2737  0.1191 -0.1211
 1168Sol     HW 7432   0.478   2.002   5.617 -0.3955  0.4365 -1.1054
 1168Sol     HW 7433   0.338   2.054   5.644 -0.3653 -1.1866  2.4382
 1168Sol     MW 7434   0.426   2.058   5.664  0.2191 -0.7767  0.3872
 1169Sol     OW 7435   1.475   0.176   2.332  0.2597 -0.1148 -0.0651
 1169Sol     HW 7436   1.538   0.105   2.316 -0.7981 -1.4317  1.4775
 1169Sol     HW 7437   1.390   0.137   2.313 -0.3977  0.5077  1.5773
 1169Sol     MW 7438   1.473   0.166   2.328  0.2132 -0.0078 -0.6112
 1170Sol     OW 7439   0.822   0.384   8.747  0.3477 -0.2520 -0.2050
 1170Sol     HW 7440   0.847   0.466   8.707  0.9745 -0.2890  0.1065
 1170Sol     HW 7441   0.751   0.407   8.807 -0.4754 -0.1740 -1.1981
 1170Sol     MW 7442   0.818   0.393   8.749  0.0893  0.6006  0.3519
 1171Sol     OW 7443   0.114   2.684   6.233  0.2405 -0.8366  0.1403
 1171Sol     HW 7444   0.045   2.630   6.194  0.3990  0.1214 -1.4926
 1171Sol     HW 7445   0.186   2.680   6.170  0.9807 -0.2833  0.9345
 1171Sol     MW 7446   0.115   2.678   6.224 -0.7549 -0.3124 -0.0183
 1172Sol     OW 7447   1.929   2.012   7.714 -0.0180 -0.3574  0.1197
 1172Sol     HW 7448   1.954   1.934   7.664  2.1713 -0.0998  0.7845
 1172Sol     HW 7449   1.862   1.980   7.775  0.9140 -1.7511  0.4332
 1172Sol     MW 7450   1.925   2.002   7.715 -0.9787  0.3746 -0.3048
 1173Sol     OW 7451   1.012   1.071   7.651 -0.0924  0.3357  0.0343
 1173Sol     HW 7452   1.063   1.118   7.585 -1.1748  0.4061 -0.7734
 1173Sol     HW 7453   1.000   1.135   7.722  2.0178 -0.1034  0.8113
 1173Sol     MW 7454   1.015   1.081   7.652  0.4074  0.5662  0.1932
 1174Sol     OW 7455   1.972   1.838   2.362 -0.1880  0.1348  0.1204
 1174Sol     HW 7456   1.914   1.775   2.404  0.0163 -0.1351  0.0019
 1174Sol     HW 7457   1.940   1.923   2.391  0.6963 -0.0825  1.7949
 1174Sol     MW 7458   1.964   1.840   2.368  0.0997  0.2719  0.1504
 1175Sol     OW 7459   1.637   2.176   5.337 -0.3082 -0.0651 -0.5051
 1175Sol     HW 7460   1.691   2.221   5.272 -0.2902  0.5791 -0.0451
 1175Sol     HW 7461   1.693   2.105   5.370  0.9346  1.7256  1.2974
 1175Sol     MW 7462   1.647   2.173   5.334  0.1361 -0.0276  0.0717
 1176Sol     OW 7463   0.428   0.614   9.479 -0.3443 -0.6737 -0.1241
 1176Sol     HW 7464   0.434   0.523   9.508 -0.5664 -1.0295 -1.1523
 1176Sol     HW 7465   0.368   0.611   9.405  0.5220  0.1401 -0.8739
 1176Sol     MW 7466   0.423   0.605   9.475 -0.0621  0.4506 -0.6026
 1177Sol     OW 7467   0.339   0.257   2.577  0.0337  0.2327 -0.2942
 1177Sol     HW 7468   0.322   0.180   2.522 -0.1690  0.2021 -0.1898
 1177Sol     HW 7469   0.255   0.273   2.621  1.2628 -2.2666  3.1702
 1177Sol     MW 7470   0.330   0.251   2.576 -0.4420  0.1567 -0.4425
 1178Sol     OW 7471   3.093   3.398   7.050 -0.4334  0.3624 -0.4494
 1178Sol     HW 7472   3.111   3.402   7.144  0.5231 -0.3932 -0.5945
 1178Sol     HW 7473   3.048   3.480   7.031 -1.0031  0.3321  0.7489
 1178Sol     MW 7474   3.091   3.406   7.056 -0.4981  0.0477 -0.4397
 1179Sol     OW 7475   1.250   2.545   8.690  0.5908  0.1752  0.2737
 1179Sol     HW 7476   1.329   2.494   8.706 -0.8517 -1.8628  1.1792
 1179Sol     HW 7477   1.202   2.541   8.773 -1.6820 -0.8589 -1.0364
 1179Sol     MW 7478   1.253   2.540   8.699  0.0753  1.0637 -0.4181
 1180Sol     OW 7479   1.572   2.936   6.143  0.3449 -0.9040  0.5849
 1180Sol     HW 7480   1.485   2.948   6.104  0.3130 -0.0727  0.8855
 1180Sol     HW 7481   1.602   2.852   6.111 -0.0664 -0.6402 -0.4968
 1180Sol     MW 7482   1.567   2.930   6.137  0.3102 -0.3637 -0.4663
 1181Sol     OW 7483   1.411   0.560   2.509  0.0972 -0.4663  0.0524
 1181Sol     HW 7484   1.331   0.576   2.558 -0.0682 -0.4485 -0.2214
 1181Sol     HW 7485   1.438   0.472   2.534 -0.2920 -0.6697 -0.2553
 1181Sol     MW 7486   1.407   0.554   2.516 -0.0100  0.1592 -0.7360
 1182Sol     OW 7487   0.068   2.066   4.126  0.4499  0.4013  0.0344
 1182Sol     HW 7488   0.160   2.084   4.147  0.0162  0.2409  2.2060
 1182Sol     HW 7489   0.032   2.029   4.207 -1.2548 -0.5875 -1.1496
 1182Sol     MW 7490   0.073   2.064   4.135  0.2538  0.2063 -0.2790
 1183Sol     OW 7491   1.019   2.004   4.751 -0.7242  0.6516  0.4973
 1183Sol     HW 7492   0.983   1.942   4.688 -1.3981  1.2823  0.2470
 1183Sol     HW 7493   1.103   1.967   4.777 -1.3986 -0.6906  0.8313
 1183Sol     MW 7494   1.023   1.995   4.748  0.4671 -0.3204  0.3898
 1184Sol     OW 7495   1.447   1.724   1.648  0.5572  0.2246 -0.3220
 1184Sol     HW 7496   1.353   1.713   1.661  0.3305 -0.3121 -2.3042
 1184Sol     HW 7497   1.485   1.639   1.671  0.4911  0.2473 -0.1307
 1184Sol     MW 7498   1.442   1.715   1.651 -0.1134  0.9150 -0.4038
 1185Sol     OW 7499   2.264   2.676  10.533  0.6642 -0.5828  0.4776
 1185Sol     HW 7500   2.284   2.668  10.439 -0.3072 -1.6233  0.3518
 1185Sol     HW 7501   2.169   2.666  10.539  0.7565 -0.8670  1.6148
 1185Sol     MW 7502   2.258   2.674  10.525 -0.1664 -0.0756 -0.0690
 1186Sol     OW 7503   2.594   1.460   9.304  0.1643  0.2289  0.5793
 1186Sol     HW 7504   2.587   1.383   9.248  1.6649 -0.7640  1.7347
 1186Sol     HW 7505   2.625   1.427   9.388  0.8387  2.0900  1.0916
 1186Sol     MW 7506   2.596   1.451   9.307  0.1912  0.2972 -0.0039
 1187Sol     OW 7507   0.280   1.307   8.858  0.2383  0.4884 -0.1292
 1187Sol     HW 7508   0.313   1.397   8.867 -1.9687  1.2421  0.9004
 1187Sol     HW 7509   0.187   1.314   8.881 -0.3347 -1.7784 -1.6206
 1187Sol     MW 7510   0.275   1.316   8.861  0.1478  0.3172 -0.6914
 1188Sol     OW 7511   1.792   2.284   3.542  0.2509  0.4321 -0.4587
 1188Sol     HW 7512   1.735   2.226   3.491  0.1394  0.1160  0.0177
 1188Sol     HW 7513   1.752   2.370   3.535 -0.0111  0.3034 -0.5281
 1188Sol     MW 7514   1.784   2.286   3.537  0.8326 -0.5701  0.5951
 1189Sol     OW 7515   3.084   0.039   2.385 -0.1534 -0.5567  0.0060
 1189Sol     HW 7516   3.168   0.018   2.426 -0.4100 -1.5892  0.0133
 1189Sol     HW 7517   3.023  -0.023   2.424 -0.6946 -0.5665 -0.8544
 1189Sol     MW 7518   3.086   0.032   2.392 -0.0690 -0.5585  0.5258
 1190Sol     OW 7519   3.009   0.019   4.106  0.9566 -0.2753 -0.0660
 1190Sol     HW 7520   3.061   0.065   4.172  1.5203 -0.3668 -0.4368
 1190Sol     HW 7521   3.070   0.007   4.033  0.8089 -1.5320 -0.0049
 1190Sol     MW 7522   3.019   0.022   4.106 -0.1989 -0.3126 -0.0291
 1191Sol     OW 7523   0.720   1.437   4.474 -0.1768  0.3031  0.5971
 1191Sol     HW 7524   0.631   1.406   4.459  0.5734 -2.2714  1.0830
 1191Sol     HW 7525   0.751   1.463   4.387 -0.4628 -1.4967 -0.0676
 1191Sol     MW 7526   0.715   1.436   4.465 -0.1747 -0.4887 -0.1978
 1192Sol     OW 7527   2.112   0.161   5.892 -0.0901 -0.0299 -0.4408
 1192Sol     HW 7528   2.135   0.133   5.981  1.2688 -0.1660 -0.8314
 1192Sol     HW 7529   2.123   0.082   5.839 -1.3757 -0.0795 -0.6715
 1192Sol     MW 7530   2.115   0.151   5.895  0.1737  0.0000  0.0300
 1193Sol     OW 7531   1.414   1.794  10.472 -0.2216  0.3616 -0.1939
 1193Sol     HW 7532   1.338   1.746  10.504 -0.2420  0.5578  0.0571
 1193Sol     HW 7533   1.489   1.739  10.495 -0.3717 -0.4524 -1.5921
 1193Sol     MW 7534   1.414   1.785  10.477 -0.0808  0.0283  0.2494
 1194Sol     OW 7535   0.276   2.037   6.063 -0.1410 -0.0898  0.3059
 1194Sol     HW 7536   0.342   2.106   6.050 -0.2493  0.1832  1.1661
 1194Sol     HW 7537   0.261   2.036   6.158 -0.8834 -0.6097  0.1862
 1194Sol     MW 7538   0.280   2.043   6.070 -0.2525  0.0421 -0.2313
 1195Sol     OW 7539   2.600   3.099   7.356  0.0148 -0.0400  0.6838
 1195Sol     HW 7540   2.560   3.013   7.339 -1.5017  1.1120 -1.8944
 1195Sol     HW 7541   2.530   3.162   7.340  1.9047  1.8482 -0.4860
 1195Sol     MW 7542   2.590   3.097   7.353  0.3762  0.3779 -0.3540
 1196Sol     OW 7543   2.548   1.291   6.695  0.2617 -0.0744  0.4439
 1196Sol     HW 7544   2.611   1.229   6.658 -1.3955 -1.3404 -0.3002
 1196Sol     HW 7545   2.596   1.374   6.699  2.6817 -1.4778  1.9069
 1196Sol     MW 7546   2.558   1.293   6.692  0.0630 -0.1377 -0.1743
 1197Sol     OW 7547   1.038   0.986   4.590  0.3398  0.2647 -0.2405
 1197Sol     HW 7548   1.037   1.064   4.646  1.1545  0.4173 -0.4266
 1197Sol     HW 7549   0.958   0.939   4.612 -0.3216  1.3227 -0.3556
 1197Sol     MW 7550   1.031   0.989   4.597 -0.8272  0.4586 -0.2840
 1198Sol     OW 7551   1.888   0.651   3.981  0.2447  0.0558  0.3688
 1198Sol     HW 7552   1.795   0.656   3.960  0.2420 -0.9160  0.1531
 1198Sol     HW 7553   1.929   0.617   3.901  0.6363 -0.6040  0.8484
 1198Sol     MW 7554   1.883   0.649   3.972 -0.7388  0.0139 -0.2900
 1199Sol     OW 7555   1.051   0.615   9.601 -0.2781 -0.2838 -0.0715
 1199Sol     HW 7556   1.095   0.531   9.613  1.3486  0.4161 -0.9498
 1199Sol     HW 7557   0.961   0.592   9.578 -0.4782 -1.7342  2.0388
 1199Sol     MW 7558   1.047   0.606   9.600  0.0059  0.4164 -0.2230
 1200Sol     OW 7559   2.974   1.388   7.299  0.2968 -0.1121 -0.0701
 1200Sol     HW 7560   2.934   1.315   7.347  1.6442 -0.0055  1.2606
 1200Sol     HW 7561   2.905   1.454   7.294  0.0445 -0.2295  1.5096
 1200Sol     MW 7562   2.964   1.387   7.303  0.1610  0.2702  0.5257
 1201Sol     OW 7563   0.964   1.177   1.663  0.2954  0.2169  0.6697
 1201Sol     HW 7564   1.030   1.169   1.595 -0.9483 -1.3124 -0.4079
 1201Sol     HW 7565   0.982   1.105   1.723 -0.1054  0.0765  0.6258
 1201Sol     MW 7566   0.971   1.170   1.662 -0.7922 -0.0730  0.5221
 1202Sol     OW 7567   1.910   2.896   3.591 -0.1195  0.4724 -0.4878
 1202Sol     HW 7568   1.971   2.879   3.663  0.3685 -1.5314 -1.3277
 1202Sol     HW 7569   1.954   2.861   3.514 -1.9414 -0.1683 -1.2648
 1202Sol     MW 7570   1.920   2.891   3.591  0.0684 -0.4618  0.0450
 1203Sol     OW 7571   1.397   2.944   5.726  0.0355  0.0047 -0.0594
 1203Sol     HW 7572   1.341   3.009   5.768  0.5672 -0.5980  1.6165
 1203Sol     HW 7573   1.447   2.995   5.661 -1.0185  0.8870 -0.1956
 1203Sol     MW 7574   1.397   2.955   5.724  0.2376 -0.5490 -0.0288
 1204Sol     OW 7575   0.404   2.410   8.038 -0.5386 -0.0592 -0.1676
 1204Sol     HW 7576   0.364   2.487   8.077 -2.0434 -1.0338  0.2917
 1204Sol     HW 7577   0.335   2.373   7.982 -0.0418 -1.3860  0.0842
 1204Sol     MW 7578   0.394   2.413   8.036 -0.4317  0.1913 -0.3210
 1205Sol     OW 7579   0.760   0.795   9.269  0.2683 -0.0943 -0.1333
 1205Sol     HW 7580   0.802   0.876   9.298 -1.1695  0.8070 -0.5330
 1205Sol     HW 7581   0.810   0.768   9.192 -0.5487  1.5713 -1.2769
 1205Sol     MW 7582   0.769   0.800   9.265 -1.0743  0.1168  0.5087
 1206Sol     OW 7583   1.118   0.615   4.672  0.3268  0.4250 -0.4965
 1206Sol     HW 7584   1.177   0.690   4.657 -0.8558  1.2035 -1.2698
 1206Sol     HW 7585   1.076   0.635   4.756  0.3472  0.4092 -0.4827
 1206Sol     MW 7586   1.120   0.624   4.678  0.2803  0.0074  0.4023
 1207Sol     OW 7587   1.783   1.868   6.604 -0.9733 -0.4702  0.6046
 1207Sol     HW 7588   1.843   1.879   6.678  0.1481 -0.3821 -0.3077
 1207Sol     HW 7589   1.700   1.904   6.635 -0.7476 -1.2213  2.1232
 1207Sol     MW 7590   1.781   1.872   6.613 -0.3322  0.4958  0.3600
 1208Sol     OW 7591   1.722   2.837   9.541 -0.6476  0.0075 -0.5288
 1208Sol     HW 7592   1.651   2.872   9.595 -0.2700 -0.4418  0.2746
 1208Sol     HW 7593   1.678   2.784   9.475 -1.0356 -0.8649  0.4104
 1208Sol     MW 7594   1.712   2.835   9.540 -0.2092  0.4054  0.3350
 1209Sol     OW 7595   1.302   1.692   7.190  0.4543  0.1719  0.1130
 1209Sol     HW 7596   1.366   1.712   7.257  1.1348 -1.4875 -0.0196
 1209Sol     HW 7597   1.324   1.750   7.117  1.4978 -0.0436  0.2560
 1209Sol     MW 7598   1.309   1.699   7.189 -0.7023  0.3782 -0.3028
 1210Sol     OW 7599   0.766   0.890   5.571 -0.5802 -0.5675 -0.1429
 1210Sol     HW 7600   0.779   0.983   5.591  0.1538 -0.8471  0.7214
 1210Sol     HW 7601   0.832   0.845   5.624 -0.9884 -1.5888 -0.4951
 1210Sol     MW 7602   0.773   0.894   5.578  0.0435  0.6397  0.2321
 1211Sol     OW 7603   0.637   2.496   4.287  0.0438  0.0846  0.2583
 1211Sol     HW 7604   0.623   2.537   4.372  2.0557 -0.5489  0.9267
 1211Sol     HW 7605   0.592   2.412   4.293  1.0482 -0.4044  1.0822
 1211Sol     MW 7606   0.632   2.492   4.295  0.1995  0.0596  0.8739
 1212Sol     OW 7607   2.943   2.757  10.085 -0.5627  0.0052 -0.4550
 1212Sol     HW 7608   2.984   2.727  10.166 -0.5021  0.5475 -0.2864
 1212Sol     HW 7609   2.908   2.677  10.046 -0.3477 -0.2989 -0.0339
 1212Sol     MW 7610   2.943   2.747  10.089  0.8232  0.1882 -0.1298
 1213Sol     OW 7611   2.055   2.155   6.168  0.4883  0.1846  1.2021
 1213Sol     HW 7612   2.118   2.159   6.241 -0.4184  0.7878  1.9622
 1213Sol     HW 7613   1.971   2.174   6.209 -0.2987 -1.3628  0.3152
 1213Sol     MW 7614   2.053   2.157   6.178  0.1057  0.7006 -1.0829
 1214Sol     OW 7615   0.796   3.238   2.029  0.2170  0.0938  0.6524
 1214Sol     HW 7616   0.860   3.308   2.040 -0.0214  0.7283 -1.7026
 1214Sol     HW 7617   0.831   3.164   2.080  0.7748  1.6906  2.6598
 1214Sol     MW 7618   0.805   3.237   2.035  0.2526  0.2684 -0.2135
 1215Sol     OW 7619   0.973   3.101  10.232  0.0300 -0.0275 -0.2673
 1215Sol     HW 7620   0.956   3.139  10.146 -0.5927 -3.1523 -1.6161
 1215Sol     HW 7621   0.968   3.006  10.217  0.4677 -0.6392  3.1117
 1215Sol     MW 7622   0.971   3.096  10.223  0.7558  0.0378  0.5005
 1216Sol     OW 7623   1.146   0.435   7.145  0.2812 -0.9830 -0.6727
 1216Sol     HW 7624   1.061   0.423   7.103  0.7034  0.9731 -2.1920
 1216Sol     HW 7625   1.131   0.414   7.237 -2.3698  1.2687 -0.5136
 1216Sol     MW 7626   1.137   0.432   7.150 -0.4394  0.1073  0.3491
 1217Sol     OW 7627   0.376   2.634   4.080  0.3236  0.1070 -0.0578
 1217Sol     HW 7628   0.336   2.567   4.135  1.3234  0.5878  1.2769
 1217Sol     HW 7629   0.462   2.599   4.057  0.7620  0.8334  0.4571
 1217Sol     MW 7630   0.380   2.625   4.083  0.5976  0.0282 -0.0252
 1218Sol     OW 7631   0.904   0.343   7.016  0.0469  0.5809 -0.1447
 1218Sol     HW 7632   0.907   0.252   7.045  1.3404  0.6942  0.1192
 1218Sol     HW 7633   0.913   0.338   6.921  0.1227  0.4324 -0.1304
 1218Sol     MW 7634   0.905   0.335   7.010 -0.1230  0.1050 -0.1771
 1219Sol     OW 7635   2.881   2.575   5.298 -0.6581  0.5966 -0.2057
 1219Sol     HW 7636   2.933   2.494   5.296 -1.2858  0.1891 -0.0821
 1219Sol     HW 7637   2.820   2.563   5.370 -0.8343  1.1384 -0.2619
 1219Sol     MW 7638   2.881   2.567   5.304 -0.4735 -0.6331  0.1672
 1220Sol     OW 7639   0.636   0.259   6.011 -0.1050  0.3598 -0.1046
 1220Sol     HW 7640   0.709   0.198   6.005 -0.9652 -0.5523 -1.6911
 1220Sol     HW 7641   0.677   0.345   6.015  1.0762 -0.1992  0.0793
 1220Sol     MW 7642   0.646   0.261   6.011 -0.2835  0.2911  0.2170
 1221Sol     OW 7643   1.820   1.643   3.850 -0.0443  0.5723  0.3467
 1221Sol     HW 7644   1.769   1.655   3.770 -1.4364  0.6739  1.2152
 1221Sol     HW 7645   1.791   1.714   3.908  0.0544 -0.1905  1.3568
 1221Sol     MW 7646   1.813   1.650   3.848  0.0484 -0.2986  0.1925
 1222Sol     OW 7647   2.191   1.998   4.225 -0.4134 -0.0821 -0.1961
 1222Sol     HW 7648   2.119   1.966   4.171 -0.8455  0.1054  0.2708
 1222Sol     HW 7649   2.186   1.945   4.305 -0.7928  0.7757  0.3514
 1222Sol     MW 7650   2.184   1.990   4.228  0.0372 -0.4338 -0.5486
 1223Sol     OW 7651   2.091   0.497   6.100 -0.4222 -0.2241  0.1895
 1223Sol     HW 7652   2.132   0.413   6.084 -2.1666 -1.0417 -0.1464
 1223Sol     HW 7653   2.052   0.489   6.186 -0.7860  0.1648  0.0653
 1223Sol     MW 7654   2.091   0.489   6.106 -0.0325 -0.0490 -0.5269
 1224Sol     OW 7655   3.046   2.902   9.126 -0.0577 -0.2998  0.0512
 1224Sol     HW 7656   3.084   2.989   9.120  1.7707 -1.1592 -1.6759
 1224Sol     HW 7657   2.953   2.914   9.108 -0.1397  1.4923  1.5752
 1224Sol     MW 7658   3.041   2.911   9.124  0.7469  0.1919  0.6287
 1225Sol     OW 7659   1.662   1.492   8.097 -0.4423 -0.1937 -0.5166
 1225Sol     HW 7660   1.663   1.408   8.051 -0.9382 -0.5328  0.0846
 1225Sol     HW 7661   1.749   1.499   8.137 -0.9772 -1.2583  0.9085
 1225Sol     MW 7662   1.670   1.485   8.097 -0.3296 -0.2250  0.4270
 1226Sol     OW 7663   1.022   0.538   3.290  0.2632  0.4240 -0.4927
 1226Sol     HW 7664   1.001   0.564   3.200  1.6307  0.2159 -0.8952
 1226Sol     HW 7665   1.098   0.591   3.313  0.9912 -0.7620 -0.0897
 1226Sol     MW 7666   1.027   0.545   3.284 -0.1103 -0.1860 -0.0626
 1227Sol     OW 7667   1.429   1.338   2.662  0.3233 -0.1983 -0.7036
 1227Sol     HW 7668   1.350   1.289   2.640  0.2099 -0.7722  0.8718
 1227Sol     HW 7669   1.499   1.293   2.615 -0.2401  0.1269 -1.8610
 1227Sol     MW 7670   1.428   1.329   2.656  0.0438  0.4028 -0.4475
 1228Sol     OW 7671   0.537   2.225   6.976 -0.2723  0.1987 -0.2308
 1228Sol     HW 7672   0.524   2.210   7.070 -0.6398 -1.4844 -0.5312
 1228Sol     HW 7673   0.624   2.189   6.958 -0.2438  0.4285 -0.5582
 1228Sol     MW 7674   0.544   2.220   6.983 -0.0598 -0.4665 -0.2056
 1229Sol     OW 7675   2.946   1.012   2.899 -0.5384 -0.0803  0.6734
 1229Sol     HW 7676   3.017   1.038   2.841 -0.7596  1.0848  0.9232
 1229Sol     HW 7677   2.885   0.964   2.842  0.8798 -1.9087  0.6490
 1229Sol     MW 7678   2.947   1.010   2.889 -0.6713 -0.4341  0.5128
 1230Sol     OW 7679   1.813   2.585   6.622 -0.5938  0.2172 -0.1976
 1230Sol     HW 7680   1.868   2.534   6.681 -2.0572 -0.6758  0.4131
 1230Sol     HW 7681   1.777   2.521   6.561 -1.1929  0.7588 -0.4206
 1230Sol     MW 7682   1.815   2.575   6.622 -0.7568  0.6240 -0.2900
 1231Sol     OW 7683   1.298   2.550   8.083 -0.0443  0.3023 -0.0077
 1231Sol     HW 7684   1.304   2.459   8.110 -1.8342  1.1931  3.7221
 1231Sol     HW 7685   1.379   2.590   8.113  0.6900 -0.0148 -1.5399
 1231Sol     MW 7686   1.306   2.546   8.088 -0.0362 -0.0364  0.1851
 1232Sol     OW 7687   1.789   2.528   3.979 -0.7110 -0.3266  0.1852
 1232Sol     HW 7688   1.798   2.597   4.044  0.3889  0.6233 -0.9459
 1232Sol     HW 7689   1.737   2.460   4.023  0.0602  0.2563  2.0518
 1232Sol     MW 7690   1.785   2.528   3.989 -0.1101 -0.7238 -0.2031
 1233Sol     OW 7691   2.519   1.653   3.723 -0.2404 -0.1351 -0.1033
 1233Sol     HW 7692   2.539   1.700   3.642 -0.6447 -0.1519 -0.2134
 1233Sol     HW 7693   2.477   1.572   3.694  1.0474 -0.8688  0.0540
 1233Sol     MW 7694   2.517   1.650   3.713 -0.0384  0.1741  0.0577
 1234Sol     OW 7695   2.042   1.001   9.663 -0.0705  0.1368  0.0977
 1234Sol     HW 7696   2.029   0.942   9.589 -0.9739 -0.3444  0.6367
 1234Sol     HW 7697   1.998   1.082   9.638 -0.6715 -0.1436  0.2629
 1234Sol     MW 7698   2.037   1.003   9.654 -0.4965  0.3557 -0.5634
 1235Sol     OW 7699   0.935   2.288   3.868 -0.3183 -0.3787  0.4685
 1235Sol     HW 7700   1.011   2.250   3.823 -1.6846 -0.8008 -1.5616
 1235Sol     HW 7701   0.953   2.276   3.961  1.2500 -2.1333 -0.0411
 1235Sol     MW 7702   0.944   2.284   3.872 -0.5442 -0.0106  0.6431
 1236Sol     OW 7703   2.311   2.368   2.153 -0.7800 -0.2603  0.6196
 1236Sol     HW 7704   2.372   2.420   2.102  0.4968 -0.5887  1.7898
 1236Sol     HW 7705   2.269   2.310   2.088  1.4518 -1.2852  0.0379
 1236Sol     MW 7706   2.313   2.367   2.143  0.0039 -0.3100  0.5497
 1237Sol     OW 7707   0.171   1.635   7.239  0.0572  0.2592  0.6471
 1237Sol     HW 7708   0.113   1.634   7.162 -0.5836  2.1711  1.0975
 1237Sol     HW 7709   0.119   1.676   7.308  1.9001  1.9521  1.0790
 1237Sol     MW 7710   0.161   1.638   7.238  1.6999  0.1612  0.2653
 1238Sol     OW 7711   0.154   3.210   4.337 -0.4977 -0.1850 -0.2746
 1238Sol     HW 7712   0.214   3.160   4.393  0.3783  0.0873 -0.9561
 1238Sol     HW 7713   0.180   3.187   4.248  0.0021  1.5927 -0.5949
 1238Sol     MW 7714   0.162   3.203   4.334 -0.3586  0.1900  0.8400
 1239Sol     OW 7715   1.987   2.253   6.954  0.8998  0.2582 -0.5435
 1239Sol     HW 7716   2.052   2.202   7.003  0.4707 -1.0594 -1.3057
 1239Sol     HW 7717   1.970   2.200   6.876 -1.8994  0.0399  0.1874
 1239Sol     MW 7718   1.992   2.243   6.951  0.4254 -0.2734 -0.0273
 1240Sol     OW 7719   2.360   1.341   9.460 -0.9994  0.0733 -0.5168
 1240Sol     HW 7720   2.311   1.354   9.379 -0.0481  0.6677 -1.0074
 1240Sol     HW 7721   2.297   1.300   9.520 -1.9398  0.3533 -1.2973
 1240Sol     MW 7722   2.350   1.339   9.458 -0.3962 -0.3427  0.4137
 1241Sol     OW 7723   2.046   2.576   4.632  0.0464 -0.0096 -1.1595
 1241Sol     HW 7724   2.122   2.634   4.629 -0.5976  0.9180  0.2657
 1241Sol     HW 7725   2.083   2.490   4.650  0.7103  0.5703  0.3499
 1241Sol     MW 7726   2.056   2.574   4.633  0.3685 -0.2954 -0.2076
 1242Sol     OW 7727   1.158   0.894   5.690  0.1547  0.4623  0.6251
 1242Sol     HW 7728   1.132   0.957   5.623  0.4203 -0.2673 -0.1808
 1242Sol     HW 7729   1.084   0.833   5.694  1.3343 -1.1243 -1.0552
 1242Sol     MW 7730   1.149   0.894   5.685 -0.3444  0.4799  0.0487
 1243Sol     OW 7731   1.745   2.352   5.152  0.0265  0.6503  0.9753
 1243Sol     HW 7732   1.829   2.364   5.109  0.3050 -0.5228  1.1792
 1243Sol     HW 7733   1.744   2.417   5.222 -0.0804  2.0044 -0.2749
 1243Sol     MW 7734   1.752   2.359   5.155 -0.0438  0.0148 -0.4091
 1244Sol     OW 7735   1.002   0.469   7.757  0.1518 -0.4797 -0.7779
 1244Sol     HW 7736   1.053   0.427   7.687  0.8853  1.3767 -1.3928
 1244Sol     HW 7737   1.053   0.547   7.780 -0.6916 -0.4312  1.0125
 1244Sol     MW 7738   1.011   0.472   7.753 -0.2861 -0.1334 -0.4913
 1245Sol     OW 7739   1.116   2.534   5.523  0.2640  0.0159 -0.0037
 1245Sol     HW 7740   1.081   2.534   5.434  0.3727  1.3942 -0.0495
 1245Sol     HW 7741   1.041   2.511   5.578  0.4581 -1.9945 -0.5279
 1245Sol     MW 7742   1.106   2.532   5.520 -0.3938 -0.3104  0.4892
 1246Sol     OW 7743   2.977   1.037   4.211  0.0558 -0.2464 -0.2361
 1246Sol     HW 7744   3.033   1.083   4.274 -1.7760 -0.3620  1.4937
 1246Sol     HW 7745   2.915   1.103   4.180 -0.6591 -0.8067 -0.0150
 1246Sol     MW 7746   2.977   1.047   4.214 -0.0468 -0.6183 -0.7857
 1247Sol     OW 7747   1.867   1.391   3.680 -0.0889  0.0901 -0.2130
 1247Sol     HW 7748   1.840   1.468   3.731 -0.5309  0.2302 -0.6467
 1247Sol     HW 7749   1.935   1.424   3.622  2.6526 -0.7386  2.3985
 1247Sol     MW 7750   1.871   1.401   3.679  0.6102 -0.1298 -0.4493
 1248Sol     OW 7751   1.207   2.395   2.279 -0.3020 -0.2297  0.2870
 1248Sol     HW 7752   1.274   2.328   2.270 -0.0562 -0.1011  1.0928
 1248Sol     HW 7753   1.256   2.475   2.298 -0.5497  0.3142 -1.2639
 1248Sol     MW 7754   1.218   2.396   2.280  0.2898  0.6600  0.3376
 1249Sol     OW 7755   0.197   1.653   7.822  0.3815  0.0294  0.0502
 1249Sol     HW 7756   0.244   1.574   7.849 -0.0508  0.0482  0.8719
 1249Sol     HW 7757   0.124   1.621   7.769 -0.0755 -0.1639  0.7845
 1249Sol     MW 7758   0.195   1.643   7.819  0.4297 -0.7204 -0.4056
 1250Sol     OW 7759   0.230   0.934   9.614  0.0184  0.0425  0.8109
 1250Sol     HW 7760   0.138   0.929   9.641  0.4604 -0.9374  2.1635
 1250Sol     HW 7761   0.249   1.028   9.614 -1.6632  0.4462 -1.9007
 1250Sol     MW 7762   0.223   0.942   9.616 -0.2093  0.3917  0.2539
 1251Sol     OW 7763   2.343   0.582   2.682 -0.4486 -0.4921 -0.2858
 1251Sol     HW 7764   2.353   0.630   2.599  1.2720  1.8966  1.2416
 1251Sol     HW 7765   2.424   0.533   2.691 -0.2401 -0.0142  0.4331
 1251Sol     MW 7766   2.351   0.582   2.675  0.0824  0.2259 -0.5319
 1252Sol     OW 7767   2.448   0.598   5.201  0.0679  0.0916 -0.7800
 1252Sol     HW 7768   2.505   0.542   5.149  0.2167  0.9928 -1.6062
 1252Sol     HW 7769   2.508   0.651   5.254  0.0024  1.1173 -1.7306
 1252Sol     MW 7770   2.459   0.598   5.201  0.1364  0.0016 -0.5753
 1253Sol     OW 7771   2.271   3.125   2.148 -0.5750  0.2581  0.2629
 1253Sol     HW 7772   2.227   3.164   2.073  0.9159  1.9979  0.2669
 1253Sol     HW 7773   2.364   3.133   2.129 -0.1588  0.9726  2.3890
 1253Sol     MW 7774   2.276   3.129   2.140  0.4955 -0.1443  0.1791
 1254Sol     OW 7775   2.316   2.068   7.335 -0.1469  0.3788  0.6574
 1254Sol     HW 7776   2.286   1.978   7.327 -1.0689  0.6891  0.5384
 1254Sol     HW 7777   2.312   2.103   7.246  1.6615  0.0997  0.4369
 1254Sol     MW 7778   2.313   2.063   7.327 -0.7482 -0.1306  0.1026
 1255Sol     OW 7779   3.061   1.152   7.867 -0.6638 -0.3997  0.2640
 1255Sol     HW 7780   2.992   1.086   7.866 -0.4075 -0.6791  1.4240
 1255Sol     HW 7781   3.080   1.167   7.959  0.8459 -0.3361 -0.0444
 1255Sol     MW 7782   3.056   1.148   7.875  0.3547  0.0814  0.9882
 1256Sol     OW 7783   0.688   1.929   6.238  0.5311 -0.1172  0.2285
 1256Sol     HW 7784   0.685   2.013   6.194  1.4997  1.1718  2.5425
 1256Sol     HW 7785   0.780   1.916   6.261  0.1765 -1.1301  1.1627
 1256Sol     MW 7786   0.696   1.935   6.236 -1.1034 -0.2626  0.2850
 1257Sol     OW 7787   2.793   0.674   3.101  0.5944  0.2364  0.3924
 1257Sol     HW 7788   2.736   0.713   3.166  0.3755 -0.4549  0.6138
 1257Sol     HW 7789   2.877   0.719   3.112  1.0715 -1.0552  2.3204
 1257Sol     MW 7790   2.796   0.681   3.108  0.4740  0.3118  0.0139
 1258Sol     OW 7791   0.791   1.912   5.484  0.6768 -0.0743 -0.4218
 1258Sol     HW 7792   0.706   1.870   5.469  1.3631 -1.1868 -1.2581
 1258Sol     HW 7793   0.810   1.895   5.576  1.7023 -3.0581 -1.1331
 1258Sol     MW 7794   0.785   1.907   5.491 -0.3338 -0.2189 -0.1022
 1259Sol     OW 7795   1.076   2.506   3.116 -0.2481  0.2105  0.3009
 1259Sol     HW 7796   0.982   2.513   3.129 -0.3820 -0.5566 -0.2210
 1259Sol     HW 7797   1.086   2.455   3.035  0.6019  1.6921 -0.5480
 1259Sol     MW 7798   1.069   2.502   3.110 -0.4576 -0.3606 -0.8085
 1260Sol     OW 7799   0.316   3.023   3.206 -0.1903 -0.4613  0.1322
 1260Sol     HW 7800   0.286   3.091   3.265 -0.0343  1.6746 -2.1599
 1260Sol     HW 7801   0.236   2.986   3.169 -0.2872 -1.8019  1.6611
 1260Sol     MW 7802   0.306   3.026   3.208 -0.1857 -0.4377  0.3756
 1261Sol     OW 7803   0.016   2.641   5.456  0.4274  0.3206 -0.3007
 1261Sol     HW 7804   0.012   2.726   5.501  0.6566  0.1940 -0.0401
 1261Sol     HW 7805  -0.076   2.617   5.443  0.3607  0.5450 -0.2601
 1261Sol     MW 7806   0.007   2.647   5.459 -0.3983  0.0684  0.5815
 1262Sol     OW 7807   3.054   0.564   9.250 -0.5122 -0.0154  0.1318
 1262Sol     HW 7808   2.967   0.548   9.285 -0.3549 -0.3043  0.3853
 1262Sol     HW 7809   3.064   0.660   9.253 -1.3363  0.1176 -1.1295
 1262Sol     MW 7810   3.047   0.571   9.253 -0.1376 -0.1705  0.2008
 1263Sol     OW 7811   2.545   2.787   4.681  0.1106 -0.2921 -0.5476
 1263Sol     HW 7812   2.624   2.797   4.628 -0.0359  1.3236 -0.4945
 1263Sol     HW 7813   2.535   2.872   4.725 -0.5122 -1.1645  1.0247
 1263Sol     MW 7814   2.551   2.796   4.680  0.6289 -0.1142 -0.5377
 1264Sol     OW 7815   0.087   1.822   8.002 -0.4845 -0.1996  0.6532
 1264Sol     HW 7816   0.126   1.753   7.948 -0.5874  0.6123 -0.4712
 1264Sol     HW 7817  -0.007   1.811   7.989 -0.5207 -0.2211  0.9381
 1264Sol     MW 7818   0.082   1.815   7.996  0.1675 -0.4319 -0.1130
 1265Sol     OW 7819   3.090   0.364   2.173  0.3660 -0.1965 -0.0876
 1265Sol     HW 7820   3.150   0.308   2.123  1.3943  1.1776 -0.4138
 1265Sol     HW 7821   3.128   0.368   2.261  0.6829  0.5517 -0.2535
 1265Sol     MW 7822   3.098   0.359   2.176 -0.6084 -1.0380 -0.0084
 1266Sol     OW 7823   3.014   1.238   9.162  0.1474  0.4607  0.5127
 1266Sol     HW 7824   3.011   1.299   9.235 -0.4023  0.0905  0.8041
 1266Sol     HW 7825   2.922   1.224   9.138  0.1183 -1.6860  1.6767
 1266Sol     MW 7826   3.005   1.242   9.166 -0.2851  0.0320  0.0508
 1267Sol     OW 7827   0.947   1.460   1.373  0.2969  0.2061 -0.0432
 1267Sol     HW 7828   0.878   1.489   1.432  1.7841  1.2085  1.2372
 1267Sol     HW 7829   0.938   1.516   1.295 -0.7678 -0.1526 -0.1812
 1267Sol     MW 7830   0.940   1.468   1.371 -0.0293  0.1660 -0.3563
 1268Sol     OW 7831   2.297   2.633  10.254  0.2633 -0.0778  0.5785
 1268Sol     HW 7832   2.251   2.607  10.175 -0.1031  0.6587  0.5503
 1268Sol     HW 7833   2.390   2.629  10.231  0.2137 -1.2740  0.5508
 1268Sol     MW 7834   2.302   2.630  10.245 -0.1470  0.2884 -0.0479
 1269Sol     OW 7835   1.658   3.389   2.471  0.3687 -0.3595  0.2509
 1269Sol     HW 7836   1.681   3.323   2.405 -1.6767 -0.9977  0.1428
 1269Sol     HW 7837   1.580   3.353   2.514 -0.0625  1.4499  1.0085
 1269Sol     MW 7838   1.653   3.380   2.469 -0.0658  0.0514  0.6303
 1270Sol     OW 7839   2.864   0.967   8.431 -0.2499 -0.3443 -0.2311
 1270Sol     HW 7840   2.791   0.906   8.418  0.6615 -1.7245  0.8725
 1270Sol     HW 7841   2.837   1.020   8.506  0.2862 -1.5549  0.8506
 1270Sol     MW 7842   2.855   0.966   8.437  0.2585 -0.0216 -0.3604
 1271Sol     OW 7843   0.884   0.327   2.684  0.0508 -0.0179 -0.3621
 1271Sol     HW 7844   0.855   0.254   2.739  0.4853  0.0693 -0.0132
 1271Sol     HW 7845   0.810   0.344   2.626  0.8237 -2.2829 -2.0474
 1271Sol     MW 7846   0.875   0.322   2.684 -0.3446  0.4330 -0.7846
 1272Sol     OW 7847   0.624   0.919   2.957 -0.2380  0.2076  0.2020
 1272Sol     HW 7848   0.582   0.853   3.011 -2.7073  0.9240 -0.7668
 1272Sol     HW 7849   0.650   0.872   2.878 -1.3032  0.2055 -0.1594
 1272Sol     MW 7850   0.623   0.909   2.954  0.1655 -0.6425 -0.6067
 1273Sol     OW 7851   3.017   2.006   3.733 -0.2946 -0.1349 -0.1833
 1273Sol     HW 7852   3.072   2.081   3.757 -1.2352  0.3388  0.5014
 1273Sol     HW 7853   3.014   1.953   3.812 -2.1017  0.6295  0.2704
 1273Sol     MW 7854   3.022   2.008   3.742  0.7785  0.2502 -0.0409
 1274Sol     OW 7855   2.201   0.861   5.732 -0.1517  0.2550 -0.5420
 1274Sol     HW 7856   2.261   0.789   5.713 -1.4767 -1.0458  0.1897
 1274Sol     HW 7857   2.131   0.822   5.784 -0.9944  2.0217 -0.3123
 1274Sol     MW 7858   2.200   0.851   5.735 -0.0319 -0.2242 -0.1283
 1275Sol     OW 7859   2.584   1.872   4.146 -0.0224  0.6464  0.0828
 1275Sol     HW 7860   2.535   1.824   4.213  1.5227 -0.1481  0.6507
 1275Sol     HW 7861   2.527   1.868   4.069  0.1761 -2.3935  0.0123
 1275Sol     MW 7862   2.574   1.867   4.145 -0.1637 -0.2778 -0.3403
 1276Sol     OW 7863   1.012   1.185   3.189  0.4804  0.2759 -0.7981
 1276Sol     HW 7864   0.952   1.119   3.156  0.5180 -0.1965  0.0438
 1276Sol     HW 7865   0.957   1.246   3.238  0.7190 -0.3926  0.3363
 1276Sol     MW 7866   1.002   1.185   3.191 -0.7322  0.0698  0.0848
 1277Sol     OW 7867   0.780   3.207   6.090  0.2049  0.3591  0.4820
 1277Sol     HW 7868   0.731   3.203   6.007 -1.6207  0.7014  1.5150
 1277Sol     HW 7869   0.784   3.300   6.110 -1.2119  0.1509  1.8297
 1277Sol     MW 7870   0.776   3.215   6.084 -0.1696 -0.1869 -0.1060
 1278Sol     OW 7871   2.378   1.572   6.608  0.1845 -0.3387  0.1452
 1278Sol     HW 7872   2.336   1.486   6.601 -1.6713  0.5968 -0.7507
 1278Sol     HW 7873   2.445   1.571   6.540 -0.5265 -0.7169 -0.5720
 1278Sol     MW 7874   2.380   1.564   6.601 -0.2120  0.6251 -0.5244
 1279Sol     OW 7875   2.713   0.965   7.339 -0.2768  0.6300  0.3921
 1279Sol     HW 7876   2.786   0.903   7.331 -0.6868  0.3432 -1.3407
 1279Sol     HW 7877   2.651   0.921   7.396 -0.3966 -0.4211 -0.5242
 1279Sol     MW 7878   2.714   0.955   7.343  0.1782 -0.4801  0.4558
 1280Sol     OW 7879   2.534   1.883   7.979 -0.0378 -0.0522 -0.1151
 1280Sol     HW 7880   2.473   1.822   7.937 -0.2786  0.6742 -0.8334
 1280Sol     HW 7881   2.604   1.895   7.915  0.1002  0.2867  0.0968
 1280Sol     MW 7882   2.534   1.879   7.970 -0.8754 -0.1730 -0.2229
 1281Sol     OW 7883   0.555   2.181   2.219 -0.0012  0.0233 -0.1586
 1281Sol     HW 7884   0.614   2.225   2.280 -0.6547 -0.2180  0.6618
 1281Sol     HW 7885   0.539   2.245   2.150  1.0255  0.1752 -0.2597
 1281Sol     MW 7886   0.559   2.190   2.218  0.4584  0.4951  0.2518
 1282Sol     OW 7887   1.599   0.169   9.456  0.1450 -0.1437 -0.4486
 1282Sol     HW 7888   1.607   0.074   9.446 -1.1566 -0.3872  0.5497
 1282Sol     HW 7889   1.676   0.194   9.507  0.1945 -0.7530 -0.2138
 1282Sol     MW 7890   1.606   0.162   9.460 -0.0533  0.1104 -0.2302
 1283Sol     OW 7891   1.496   1.601   4.265  0.1740 -0.0683  0.1587
 1283Sol     HW 7892   1.587   1.580   4.244  0.2337 -0.7571  1.1198
 1283Sol     HW 7893   1.479   1.557   4.348 -0.1328  2.4483  1.4916
 1283Sol     MW 7894   1.502   1.595   4.271  0.4742  0.1771  0.2230
 1284Sol     OW 7895   0.461   1.970   6.786 -0.5160 -0.0576  0.3143
 1284Sol     HW 7896   0.396   1.929   6.729 -0.3682  0.2489 -0.0770
 1284Sol     HW 7897   0.477   2.056   6.747  0.6010 -0.3819  0.0367
 1284Sol     MW 7898   0.457   1.974   6.778 -0.3002  0.5350  0.2264
 1285Sol     OW 7899   0.964   2.737   9.037 -0.5699 -0.0471  0.4053
 1285Sol     HW 7900   0.880   2.721   8.995  0.9454 -0.2016 -2.7119
 1285Sol     HW 7901   0.983   2.829   9.018  1.2220 -0.7391 -1.3633
 1285Sol     MW 7902   0.958   2.744   9.031  0.1515 -0.1201  0.4150
 1286Sol     OW 7903   1.931   0.477   2.053 -0.7990  0.2369  0.6943
 1286Sol     HW 7904   2.020   0.457   2.027 -0.9661  0.1572  0.1738
 1286Sol     HW 7905   1.937   0.562   2.096 -0.3660 -0.1045  1.2947
 1286Sol     MW 7906   1.939   0.483   2.054 -0.0279  0.4904 -0.5233
 1287Sol     OW 7907   1.844   0.816   4.215 -0.0963  0.0396  0.2025
 1287Sol     HW 7908   1.884   0.791   4.132  2.4569  1.0002  1.0778
 1287Sol     HW 7909   1.769   0.757   4.225  0.7713 -1.4574 -1.7894
 1287Sol     MW 7910   1.841   0.808   4.208 -0.0196  0.0908  0.0603
 1288Sol     OW 7911   1.185   0.107   3.960 -0.2891  0.5477 -0.4040
 1288Sol     HW 7912   1.119   0.042   3.987 -0.5468  0.0472 -2.2107
 1288Sol     HW 7913   1.248   0.057   3.909  0.7990  1.2828  0.2051
 1288Sol     MW 7914   1.184   0.096   3.958 -0.1999  0.0587  1.0323
 1289Sol     OW 7915   1.528   0.687   2.121 -0.4523 -0.0270  0.2922
 1289Sol     HW 7916   1.541   0.593   2.103  0.7954  0.1166  0.4007
 1289Sol     HW 7917   1.459   0.689   2.187  1.4765 -1.0177  2.3742
 1289Sol     MW 7918   1.523   0.678   2.125  0.2193  0.1700  0.4782
 1290Sol     OW 7919   0.590   1.519   7.437 -0.0521 -0.6261 -0.1414
 1290Sol     HW 7920   0.606   1.607   7.472  0.0661 -1.2090  1.2938
 1290Sol     HW 7921   0.494   1.511   7.438 -0.0338 -0.8110  0.4954
 1290Sol     MW 7922   0.583   1.527   7.441 -0.1057 -0.3297 -0.7775
 1291Sol     OW 7923   0.795   1.771   5.209  0.0922 -0.4159 -0.5939
 1291Sol     HW 7924   0.880   1.750   5.171  0.6743  1.6924 -0.5301
 1291Sol     HW 7925   0.816   1.808   5.294 -0.7384  2.0667 -1.4280
 1291Sol     MW 7926   0.804   1.772   5.213  0.1644  0.2874  0.1339
 1292Sol     OW 7927   2.643   1.740  10.228  0.1957  0.0456  0.0659
 1292Sol     HW 7928   2.729   1.775  10.206 -0.5008  1.8239  0.1069
 1292Sol     HW 7929   2.649   1.717  10.321  1.4664 -2.4681 -0.5881
 1292Sol     MW 7930   2.651   1.741  10.234  0.4313  0.4882  0.4171
 1293Sol     OW 7931   1.247   0.368   4.763 -0.4300  0.8598 -0.4786
 1293Sol     HW 7932   1.198   0.302   4.713  0.1105  0.0456  0.0662
 1293Sol     HW 7933   1.212   0.452   4.731 -0.0233  0.3621 -2.3154
 1293Sol     MW 7934   1.239   0.370   4.755 -0.2981  0.3088 -0.1024
 1294Sol     OW 7935   1.013   1.329   2.743 -0.1022  0.8593 -0.2564
 1294Sol     HW 7936   1.046   1.292   2.826 -0.1169 -2.2888 -1.5609
 1294Sol     HW 7937   0.920   1.344   2.760 -0.0869  0.3344  0.3667
 1294Sol     MW 7938   1.008   1.327   2.752  0.0759 -0.6354 -0.1416
 1295Sol     OW 7939   0.823   1.554   8.430  0.0168 -0.2570  0.1893
 1295Sol     HW 7940   0.773   1.620   8.382 -2.0003 -2.3804 -0.7207
 1295Sol     HW 7941   0.914   1.569   8.404 -0.2631  2.7532  0.7551
 1295Sol     MW 7942   0.826   1.561   8.423 -0.1739  0.3592  0.3478
 1296Sol     OW 7943   0.843   1.892   8.653  0.6668  0.1550  0.2835
 1296Sol     HW 7944   0.776   1.934   8.600  1.9471  0.9126 -0.7646
 1296Sol     HW 7945   0.900   1.964   8.681  1.3967 -0.5493  0.6314
 1296Sol     MW 7946   0.842   1.902   8.651  0.0285  0.0086  0.2591
 1297Sol     OW 7947   1.520   2.609  10.496 -0.2968 -0.0121 -0.6682
 1297Sol     HW 7948   1.456   2.538  10.504  0.8591 -0.9933 -0.1069
 1297Sol     HW 7949   1.605   2.566  10.496  0.3782  1.2664 -1.7646
 1297Sol     MW 7950   1.522   2.599  10.497  0.7292  0.1686 -0.4914
 1298Sol     OW 7951   0.300   2.496   2.160  0.1224  0.2981 -0.5170
 1298Sol     HW 7952   0.215   2.468   2.192 -0.2820  1.7831 -0.2815
 1298Sol     HW 7953   0.297   2.592   2.163  1.5890  0.3717 -1.0329
 1298Sol     MW 7954   0.292   2.502   2.163  0.3613  0.0548 -0.3098
 1299Sol     OW 7955   1.830   2.911   8.466 -0.2066  0.7327  0.7589
 1299Sol     HW 7956   1.779   2.894   8.545 -0.2956  2.1745  1.0242
 1299Sol     HW 7957   1.895   2.976   8.493 -0.3154  1.3343 -0.3848
 1299Sol     MW 7958   1.832   2.916   8.475 -0.0147 -0.2111 -0.1196
 1300Sol     OW 7959   0.372   1.193   5.921  0.7461 -0.3352 -0.2641
 1300Sol     HW 7960   0.346   1.125   5.859 -0.3045 -0.6455  0.5060
 1300Sol     HW 7961   0.459   1.219   5.892  0.7391 -1.2878 -1.1835
 1300Sol     MW 7962   0.378   1.189   5.913  0.2443  0.6196 -0.2141
 1301Sol     OW 7963   0.889   2.574   7.616  0.3496  0.0560 -0.4341
 1301Sol     HW 7964   0.894   2.520   7.536  0.6551 -0.9086  0.2266
 1301Sol     HW 7965   0.961   2.637   7.607 -0.8595  1.2716 -1.8636
 1301Sol     MW 7966   0.896   2.574   7.608  0.0436  0.0851 -0.2063
 1302Sol     OW 7967   0.830   2.810   9.740  0.1496 -0.7059  0.1915
 1302Sol     HW 7968   0.775   2.774   9.670  0.9010 -2.2656  0.3803
 1302Sol     HW 7969   0.801   2.901   9.749  0.7535 -0.1947 -2.8217
 1302Sol     MW 7970   0.822   2.815   9.735  0.1394  0.8214  0.2140
 1303Sol     OW 7971   1.296   2.276   8.968  0.5558  0.0656  0.1540
 1303Sol     HW 7972   1.345   2.283   8.886 -0.8769  1.1057 -0.6407
 1303Sol     HW 7973   1.363   2.285   9.036  1.7265 -0.5484 -0.8903
 1303Sol     MW 7974   1.306   2.278   8.967  0.6900  0.3081 -0.0991
 1304Sol     OW 7975   0.464   0.178   1.931  0.1108  0.1154 -0.3138
 1304Sol     HW 7976   0.500   0.198   1.844 -1.5143  2.5050 -0.5045
 1304Sol     HW 7977   0.518   0.230   1.991  1.5677 -1.9361  0.2108
 1304Sol     MW 7978   0.472   0.185   1.929 -0.0336  1.2243 -0.4571
 1305Sol     OW 7979   0.640   2.492   6.966 -0.7830 -0.0447  0.2358
 1305Sol     HW 7980   0.599   2.554   6.906  1.0172 -0.8646 -1.8922
 1305Sol     HW 7981   0.593   2.410   6.953 -1.7679  0.3005  1.5088
 1305Sol     MW 7982   0.632   2.491   6.960 -0.1616  0.4814  0.0836
 1306Sol     OW 7983   0.595   1.197   3.013  0.8728  0.1835 -0.0688
 1306Sol     HW 7984   0.509   1.235   2.999  0.0911 -1.6433 -0.3973
 1306Sol     HW 7985   0.587   1.106   2.983  2.7496 -0.1761  0.4054
 1306Sol     MW 7986   0.587   1.192   3.009  0.5102  0.8718  0.0862
 1307Sol     OW 7987   1.417   2.022   7.857 -0.0738  0.0409  0.6396
 1307Sol     HW 7988   1.511   2.005   7.868  0.2986  1.7247  0.1540
 1307Sol     HW 7989   1.407   2.043   7.764 -0.9371 -0.1239  0.6921
 1307Sol     MW 7990   1.425   2.022   7.850 -0.0067 -0.6361  0.1605
 1308Sol     OW 7991   2.308   0.378   6.254 -0.0099  0.2940  0.4421
 1308Sol     HW 7992   2.398   0.372   6.288  0.0183  0.9174  0.4805
 1308Sol     HW 7993   2.283   0.469   6.268 -1.0689 -0.1332  1.5001
 1308Sol     MW 7994   2.314   0.385   6.259 -0.0055  0.6287  0.2052
 1309Sol     OW 7995   1.291   3.033   8.788  0.1830 -0.2237 -0.2124
 1309Sol     HW 7996   1.316   2.962   8.729  1.7714 -0.0491  0.2155
 1309Sol     HW 7997   1.320   3.113   8.744 -1.2859  0.1448 -0.5336
 1309Sol     MW 7998   1.296   3.034   8.779 -0.2529 -0.6710 -0.4462
 1310Sol     OW 7999   0.997   0.609   1.692 -0.4175  0.0506  0.2220
 1310Sol     HW 8000   0.902   0.607   1.704 -0.7220 -0.4004 -2.0126
 1310Sol     HW 8001   1.022   0.516   1.691 -0.6614 -0.0495 -4.0058
 1310Sol     MW 8002   0.991   0.600   1.693  0.0830  0.2708  0.5196
 1311Sol     OW 8003   2.857   1.138   9.448  0.5943 -0.7402  0.0086
 1311Sol     HW 8004   2.855   1.043   9.456  1.2346 -0.5037  3.9364
 1311Sol     HW 8005   2.779   1.168   9.494  0.9412  0.6464 -0.2906
 1311Sol     MW 8006   2.850   1.132   9.453  0.1319  0.3074 -0.4315
 1312Sol     OW 8007   0.202   0.791   7.317  0.4241 -0.3351 -0.6495
 1312Sol     HW 8008   0.108   0.803   7.306  0.1935 -1.5267  0.0407
 1312Sol     HW 8009   0.227   0.857   7.382 -0.1035 -0.6517 -0.1192
 1312Sol     MW 8010   0.196   0.798   7.322 -0.5299 -0.2847  0.2750
 1313Sol     OW 8011   2.797   2.482   6.790 -0.0345  0.0102  0.0161
 1313Sol     HW 8012   2.850   2.547   6.744  0.8068 -0.1368  0.7754
 1313Sol     HW 8013   2.763   2.425   6.720 -2.1238  2.2144 -0.8193
 1313Sol     MW 8014   2.799   2.482   6.780 -0.4015  0.2145  0.7003
 1314Sol     OW 8015   0.010   3.357   2.078 -0.8198 -0.1780 -0.0700
 1314Sol     HW 8016   0.045   3.385   2.163  0.9892 -2.1514 -0.1261
 1314Sol     HW 8017  -0.084   3.373   2.085 -0.6384  0.1294  2.1415
 1314Sol     MW 8018   0.005   3.361   2.086  0.3409 -0.4311 -0.0645
 1315Sol     OW 8019   0.679   2.337   1.826  0.1237 -0.0938 -0.3146
 1315Sol     HW 8020   0.607   2.331   1.889  0.6256  0.5088  0.3125
 1315Sol     HW 8021   0.752   2.292   1.868  1.2064  2.4208  0.6095
 1315Sol     MW 8022   0.679   2.332   1.835  0.5696  0.7322 -0.5735
 1316Sol     OW 8023   0.241   0.760   8.327  0.0203  0.3765 -0.6299
 1316Sol     HW 8024   0.159   0.804   8.350 -0.9043 -2.9572  2.8088
 1316Sol     HW 8025   0.307   0.801   8.383  0.2036  1.0626 -1.3323
 1316Sol     MW 8026   0.239   0.768   8.334  0.0416  0.2569  0.0561
 1317Sol     OW 8027   2.490   1.454   2.767  0.0739 -0.2837  0.1336
 1317Sol     HW 8028   2.569   1.422   2.723  0.0241 -0.0213 -0.1461
 1317Sol     HW 8029   2.521   1.488   2.851  0.0354 -1.7647  0.7797
 1317Sol     MW 8030   2.500   1.454   2.771  0.5042 -0.0515 -0.0874
 1318Sol     OW 8031   2.657   1.680   8.755 -0.0340 -0.1309 -0.0901
 1318Sol     HW 8032   2.611   1.708   8.834  0.3330  1.0426 -0.2867
 1318Sol     HW 8033   2.657   1.584   8.760 -2.2172 -0.1581  0.0705
 1318Sol     MW 8034   2.653   1.674   8.763  0.2780  0.2133 -0.7006
 1319Sol     OW 8035   2.345   0.989   1.777 -0.0669  0.5388 -0.3686
 1319Sol     HW 8036   2.249   0.993   1.784  0.0095  1.6917  0.0605
 1319Sol     HW 8037   2.362   0.991   1.683 -0.4865 -0.3023 -0.4699
 1319Sol     MW 8038   2.338   0.990   1.770  0.2896  0.4896 -0.2140
 1320Sol     OW 8039   0.054   3.245   2.977  0.2849 -0.2052  0.4201
 1320Sol     HW 8040   0.088   3.290   3.054 -0.8007  0.4930  0.5045
 1320Sol     HW 8041  -0.028   3.205   3.007 -0.3915  0.4771 -0.4972
 1320Sol     MW 8042   0.049   3.245   2.987  0.3309  0.3389  0.0765
 1321Sol     OW 8043   0.156   1.663   5.917  0.2067 -0.3244 -0.5236
 1321Sol     HW 8044   0.154   1.568   5.923  2.1116 -0.3669 -0.1105
 1321Sol     HW 8045   0.101   1.694   5.989  0.0699 -1.1006 -0.2967
 1321Sol     MW 8046   0.151   1.657   5.924 -0.1741  0.7257  0.1475
 1322Sol     OW 8047   1.310   0.022  10.136 -0.1198 -0.2279  0.2345
 1322Sol     HW 8048   1.264  -0.040  10.193  0.8820 -0.3362  0.9357
 1322Sol     HW 8049   1.392   0.039  10.181  0.6329 -0.2153 -1.1183
 1322Sol     MW 8050   1.313   0.018  10.145 -0.4651 -0.0436  0.5274
 1323Sol     OW 8051   2.246   1.607  10.299 -0.5012 -0.6544 -0.2853
 1323Sol     HW 8052   2.308   1.553  10.252  0.4784 -0.0004  0.2463
 1323Sol     HW 8053   2.213   1.668  10.234 -0.2274 -0.6913 -0.4571
 1323Sol     MW 8054   2.248   1.608  10.289 -0.1399 -0.2823  0.6341
 1324Sol     OW 8055   1.640   1.295   6.242 -0.2636  0.0854  0.3971
 1324Sol     HW 8056   1.690   1.214   6.251  0.0933  0.4095  1.4356
 1324Sol     HW 8057   1.604   1.292   6.154  1.7427 -0.0865 -0.4502
 1324Sol     MW 8058   1.642   1.288   6.235 -0.1333 -0.3859  0.5002
 1325Sol     OW 8059   0.889   3.077   7.413  0.0425 -0.2925  0.2292
 1325Sol     HW 8060   0.948   3.117   7.350  0.1893  0.8903  1.1080
 1325Sol     HW 8061   0.946   3.036   7.478 -0.0871  0.2571  0.7006
 1325Sol     MW 8062   0.899   3.077   7.413  0.0078 -0.9353  0.2828
 1326Sol     OW 8063   1.942   1.124   8.869 -0.1716  0.1702  0.3720
 1326Sol     HW 8064   1.934   1.033   8.842  2.5253  0.3031 -1.0300
 1326Sol     HW 8065   1.912   1.126   8.960 -0.8504 -1.9768  0.2070
 1326Sol     MW 8066   1.939   1.116   8.874 -0.2714 -0.3201  0.0053
 1327Sol     OW 8067   2.530   2.085   3.814  0.3652 -0.5328 -0.4726
 1327Sol     HW 8068   2.542   2.179   3.820 -1.3102 -0.1549 -2.2011
 1327Sol     HW 8069   2.617   2.050   3.794  0.9670  0.6580  0.0644
 1327Sol     MW 8070   2.539   2.090   3.812 -0.3151 -0.0858 -0.0692
 1328Sol     OW 8071   3.085   2.544  10.283  0.2528  0.0437  0.3413
 1328Sol     HW 8072   3.077   2.462  10.331  1.5058 -0.1269  0.2784
 1328Sol     HW 8073   3.128   2.604  10.343  0.6399  0.2268 -0.1119
 1328Sol     MW 8074   3.088   2.542  10.292 -0.4859 -0.1310 -0.0232
 1329Sol     OW 8075   1.269   3.040   7.713 -0.1542 -0.7455  0.3725
 1329Sol     HW 8076   1.265   3.088   7.795 -2.0784  0.0129 -0.1458
 1329Sol     HW 8077   1.202   2.972   7.721 -1.5088  0.3740 -1.2010
 1329Sol     MW 8078   1.263   3.038   7.721 -0.2990  0.4377 -0.5486
 1330Sol     OW 8079   2.401   2.929   4.035 -0.1486  0.2424  0.2428
 1330Sol     HW 8080   2.315   2.959   4.065  0.6464  1.8032  1.0087
 1330Sol     HW 8081   2.445   2.901   4.115  0.2486 -0.0579 -0.0844
 1330Sol     MW 8082   2.397   2.929   4.045 -0.1682  0.2283  0.5629
 1331Sol     OW 8083   1.355   0.955   6.338 -0.1000  0.2315  0.0953
 1331Sol     HW 8084   1.336   1.020   6.271 -2.2094 -2.0944 -1.6687
 1331Sol     HW 8085   1.448   0.935   6.327 -0.4693 -0.2868 -2.3308
 1331Sol     MW 8086   1.362   0.959   6.331 -0.3495  0.4413 -0.0263
 1332Sol     OW 8087   1.539   1.818   2.786 -0.3525 -0.0506 -0.4277
 1332Sol     HW 8088   1.538   1.741   2.729 -0.4451 -1.2891  1.2223
 1332Sol     HW 8089   1.602   1.796   2.854 -0.6673  1.1922  0.2737
 1332Sol     MW 8090   1.545   1.809   2.787  0.2699  0.4253  0.4001
 1333Sol     OW 8091   1.760   1.476   4.071 -0.1667 -0.2319  0.2135
 1333Sol     HW 8092   1.669   1.503   4.054 -0.3873 -1.5156 -0.7066
 1333Sol     HW 8093   1.809   1.510   3.997 -0.3908 -2.0058 -0.7796
 1333Sol     MW 8094   1.756   1.481   4.063  0.1247 -0.0757  0.0789
 1334Sol     OW 8095   1.274   1.788   7.720  0.2551  0.4269  0.2600
 1334Sol     HW 8096   1.298   1.880   7.734 -1.0491  0.9246 -0.5842
 1334Sol     HW 8097   1.206   1.771   7.785  0.8778 -0.0971  0.7666
 1334Sol     MW 8098   1.270   1.795   7.727 -0.0124 -0.1686  0.1046
 1335Sol     OW 8099   0.619   0.511   8.358 -0.2780 -0.2858  0.3001
 1335Sol     HW 8100   0.699   0.558   8.334 -0.3167 -0.1844  0.3695
 1335Sol     HW 8101   0.639   0.471   8.442 -0.7209  0.7679  0.9204
 1335Sol     MW 8102   0.628   0.512   8.363  0.1386  0.3250 -0.2278
 1336Sol     OW 8103   3.022   0.613   2.773 -0.2827 -0.1678  0.1419
 1336Sol     HW 8104   3.102   0.661   2.752  0.2293 -0.8223  0.5649
 1336Sol     HW 8105   3.050   0.548   2.837 -1.6120  1.2131  2.1968
 1336Sol     MW 8106   3.032   0.612   2.777 -0.3284 -0.2694  0.3043
 1337Sol     OW 8107   1.797   3.323   9.691  0.7285 -0.3203 -0.1815
 1337Sol     HW 8108   1.773   3.290   9.605  1.2022  0.3035 -0.5572
 1337Sol     HW 8109   1.730   3.288   9.750  1.2554 -1.9935 -0.5616
 1337Sol     MW 8110   1.789   3.317   9.689  0.0877  0.4619  0.3429
 1338Sol     OW 8111   1.150   3.232   8.411 -0.2756 -0.3873  0.3306
 1338Sol     HW 8112   1.102   3.156   8.377 -0.3636  0.0037 -0.4273
 1338Sol     HW 8113   1.238   3.222   8.375 -0.2001 -0.3059  0.4955
 1338Sol     MW 8114   1.153   3.224   8.404  0.2068  0.0094 -0.7180
 1339Sol     OW 8115   0.293   2.374   9.128  0.3512  0.0489 -0.1220
 1339Sol     HW 8116   0.314   2.289   9.088 -0.4515  0.5001 -1.5322
 1339Sol     HW 8117   0.199   2.367   9.149 -0.0483  1.0746 -1.5048
 1339Sol     MW 8118   0.286   2.366   9.126  0.0935 -0.1446  0.6437
 1340Sol     OW 8119   1.900   1.698   2.687  0.0443 -0.6586 -0.2741
 1340Sol     HW 8120   1.889   1.627   2.751  3.2786 -0.6168  0.4685
 1340Sol     HW 8121   1.884   1.657   2.602 -1.7720 -1.3508  0.3755
 1340Sol     MW 8122   1.898   1.688   2.685 -0.2679  0.2042 -0.6428
 1341Sol     OW 8123   1.423   0.147   6.884 -0.1214  0.8293 -0.0552
 1341Sol     HW 8124   1.406   0.232   6.924  1.5333 -0.0197  2.5559
 1341Sol     HW 8125   1.350   0.091   6.911  0.5679  0.4872  1.1333
 1341Sol     MW 8126   1.415   0.149   6.890  0.0232 -1.0046  0.0589
 1342Sol     OW 8127   2.363   1.415  10.132 -0.2027 -0.1289  0.6082
 1342Sol     HW 8128   2.438   1.470  10.111 -2.3312  2.6401 -0.0426
 1342Sol     HW 8129   2.356   1.354  10.058  0.0857  1.0547 -0.4098
 1342Sol     MW 8130   2.369   1.415  10.123  0.7735  0.2499  0.4245
 1343Sol     OW 8131   0.177   2.638   7.885  0.1809 -0.1168 -0.1963
 1343Sol     HW 8132   0.184   2.717   7.832  2.0754 -0.5676 -0.6427
 1343Sol     HW 8133   0.203   2.567   7.826 -0.5407 -0.9706  0.4905
 1343Sol     MW 8134   0.180   2.639   7.875 -0.1749 -0.3297 -0.1682
 1344Sol     OW 8135   2.523   0.913   6.943  0.4335 -0.0294  0.2158
 1344Sol     HW 8136   2.450   0.965   6.909 -0.1632 -0.6658  0.5039
 1344Sol     HW 8137   2.484   0.859   7.011  0.7704 -1.7504 -0.9136
 1344Sol     MW 8138   2.513   0.913   6.946 -0.1931 -0.0368 -0.6599
 1345Sol     OW 8139   1.348   2.869   7.992  0.2619 -0.0118  0.3478
 1345Sol     HW 8140   1.430   2.825   7.971  1.1713  0.4708  2.7424
 1345Sol     HW 8141   1.283   2.799   7.994  0.8110 -0.5531 -0.5304
 1345Sol     MW 8142   1.350   2.859   7.990  0.5165  0.4456 -0.6261
 1346Sol     OW 8143   2.169   0.066   6.435 -0.6401 -0.4976  0.1038
 1346Sol     HW 8144   2.247   0.057   6.490 -0.7225  0.7554  0.4266
 1346Sol     HW 8145   2.141  -0.024   6.420  1.8832 -1.0861 -1.4951
 1346Sol     MW 8146   2.174   0.057   6.438 -0.6089  0.3386 -0.0500
 1347Sol     OW 8147   0.751   0.168   8.565 -0.0933 -0.0542  0.6628
 1347Sol     HW 8148   0.708   0.103   8.621  0.6652 -0.4501  0.7867
 1347Sol     HW 8149   0.784   0.234   8.626  0.1673 -0.1538  0.6285
 1347Sol     MW 8150   0.750   0.168   8.576 -0.3164  0.3920  0.4613
 1348Sol     OW 8151   0.884   3.127   5.115  0.3392  0.5092 -0.4492
 1348Sol     HW 8152   0.895   3.032   5.107  4.7189  0.5924  2.5689
 1348Sol     HW 8153   0.846   3.139   5.202 -0.1103  1.5092 -0.7783
 1348Sol     MW 8154   0.882   3.119   5.122  0.4268  0.3128  0.3595
 1349Sol     OW 8155   1.341   1.584   8.065  0.3082  0.4290  0.0150
 1349Sol     HW 8156   1.263   1.635   8.087 -0.3915 -1.0518  1.0525
 1349Sol     HW 8157   1.407   1.614   8.127  0.1874  0.7381 -0.0019
 1349Sol     MW 8158   1.340   1.591   8.072 -0.4167 -0.3872  0.2597
 1350Sol     OW 8159   2.540   1.137   3.984  0.3140  0.2122  0.0534
 1350Sol     HW 8160   2.509   1.173   4.067  0.9774 -0.5321  0.6289
 1350Sol     HW 8161   2.519   1.205   3.920 -1.9577 -0.0333  0.4967
 1350Sol     MW 8162   2.536   1.147   3.986 -0.0468  0.1999 -0.2991
 1351Sol     OW 8163   0.300   1.270   2.111  0.1339  0.2218  0.5548
 1351Sol     HW 8164   0.389   1.282   2.145  0.3471 -2.4801  1.1021
 1351Sol     HW 8165   0.243   1.289   2.185  0.4638 -2.3156  1.5118
 1351Sol     MW 8166   0.303   1.273   2.121 -0.6658 -0.9321 -0.4189
 1352Sol     OW 8167   2.545   0.108   4.674  0.5787  0.2040  0.3093
 1352Sol     HW 8168   2.617   0.139   4.620  1.2232 -1.4515  0.1792
 1352Sol     HW 8169   2.469   0.160   4.647  1.6196  1.6329  0.1235
 1352Sol     MW 8170   2.544   0.115   4.667 -0.2347 -0.0333  0.1952
 1353Sol     OW 8171   0.940   2.911   4.900  0.3363  0.3589  1.1156
 1353Sol     HW 8172   0.967   3.001   4.882 -1.0184  0.4572 -0.5369
 1353Sol     HW 8173   1.022   2.862   4.907  1.0276  1.3119 -0.1661
 1353Sol     MW 8174   0.950   2.914   4.899 -0.1912  0.3617 -0.5196
 1354Sol     OW 8175   2.362   0.423   3.465  0.4450 -0.3448  0.3264
 1354Sol     HW 8176   2.450   0.453   3.443 -0.0543  0.7068 -0.2456
 1354Sol     HW 8177   2.375   0.367   3.542  1.7042 -0.8689 -0.2517
 1354Sol     MW 8178   2.371   0.420   3.470  0.2864 -0.3694  0.1902
 1355Sol     OW 8179   1.829   1.084   9.348 -0.2375  0.0984 -0.2889
 1355Sol     HW 8180   1.894   1.014   9.357  1.0093  0.9037 -2.4551
 1355Sol     HW 8181   1.859   1.152   9.408  0.4874  0.1206 -0.6613
 1355Sol     MW 8182   1.838   1.084   9.354  0.0573 -0.2314  0.1651
 1356Sol     OW 8183   0.253   2.794   2.358 -0.2013 -0.1240  0.2573
 1356Sol     HW 8184   0.320   2.758   2.416  0.7947  0.5036 -0.4798
 1356Sol     HW 8185   0.179   2.815   2.415  1.2858  1.8055  1.5380
 1356Sol     MW 8186   0.252   2.793   2.368  0.6516 -0.0504  0.2726
 1357Sol     OW 8187   2.208   1.666   9.456 -0.8181  0.1016 -0.8563
 1357Sol     HW 8188   2.189   1.644   9.547 -1.8557  1.8849 -0.6225
 1357Sol     HW 8189   2.147   1.612   9.405 -0.7548 -0.3364 -0.4713
 1357Sol     MW 8190   2.201   1.659   9.459  0.4941 -0.2576 -0.3406
 1358Sol     OW 8191   0.676   0.848   9.592  0.0247 -0.0241 -0.5949
 1358Sol     HW 8192   0.656   0.940   9.578 -1.2883 -0.0589  0.8314
 1358Sol     HW 8193   0.604   0.816   9.647  1.0674 -1.6036 -0.1002
 1358Sol     MW 8194   0.668   0.853   9.596  0.2996  0.2888  0.7687
 1359Sol     OW 8195   0.191   1.789   8.402 -0.3287  0.1279  0.4808
 1359Sol     HW 8196   0.109   1.759   8.363  0.0191 -0.0998 -0.0765
 1359Sol     HW 8197   0.217   1.718   8.461 -0.1552 -0.1120  0.1124
 1359Sol     MW 8198   0.186   1.780   8.404  0.7201  0.2241  0.1207
 1360Sol     OW 8199   0.702   1.462   4.199 -0.0765 -0.0525 -0.3201
 1360Sol     HW 8200   0.613   1.426   4.200  0.4313 -1.4041  2.3411
 1360Sol     HW 8201   0.741   1.428   4.118 -1.9973  0.5975 -1.5249
 1360Sol     MW 8202   0.698   1.455   4.192  0.2167  1.2343  0.1363
 1361Sol     OW 8203   1.499   3.056   7.021 -0.3685 -0.1074 -0.2017
 1361Sol     HW 8204   1.509   2.982   7.081 -0.4401 -0.3051 -0.4367
 1361Sol     HW 8205   1.491   3.017   6.934  1.2997  0.2413 -0.5258
 1361Sol     MW 8206   1.499   3.046   7.019 -0.6218 -0.8245 -0.0449
 1362Sol     OW 8207   1.777   2.496  10.425 -0.1176 -0.1456 -0.5825
 1362Sol     HW 8208   1.752   2.480  10.334  2.8847 -1.0128 -1.3231
 1362Sol     HW 8209   1.853   2.439  10.439 -1.3012 -0.9838  2.8697
 1362Sol     MW 8210   1.782   2.489  10.418 -0.0341 -0.8230 -0.0847
 1363Sol     OW 8211   0.656   1.488   9.575  0.3616  0.1204  0.4672
 1363Sol     HW 8212   0.638   1.480   9.482 -1.1651  1.5293  0.6073
 1363Sol     HW 8213   0.595   1.428   9.617  1.8259 -1.3643  0.5255
 1363Sol     MW 8214   0.649   1.482   9.571 -0.1009 -0.2224 -0.3103
 1364Sol     OW 8215   2.367   3.290   2.956 -0.1029  0.0615  0.2329
 1364Sol     HW 8216   2.432   3.313   2.889 -0.4284  0.6501  0.1119
 1364Sol     HW 8217   2.286   3.330   2.925 -0.4216 -0.2818  0.6168
 1364Sol     MW 8218   2.366   3.296   2.947  0.7729  0.3591  0.4117
 1365Sol     OW 8219   2.631   2.960   9.767 -0.0900  0.0966  0.1200
 1365Sol     HW 8220   2.677   2.995   9.690 -1.7136  0.6817 -0.6236
 1365Sol     HW 8221   2.700   2.924   9.823  1.2763  1.1371 -0.8596
 1365Sol     MW 8222   2.641   2.960   9.765 -0.0828  0.3333 -0.4915
 1366Sol     OW 8223   1.902   1.406   7.171  0.0947  0.1073 -0.0943
 1366Sol     HW 8224   1.858   1.362   7.243  0.4974 -0.7289 -0.3569
 1366Sol     HW 8225   1.864   1.367   7.092  0.8636 -0.1894 -0.3221
 1366Sol     MW 8226   1.895   1.399   7.170 -0.1553  0.0267  0.0306
 1367Sol     OW 8227   1.595   1.601   2.612 -0.5220 -0.3260 -0.2351
 1367Sol     HW 8228   1.688   1.598   2.594  0.0008  0.3228  2.2174
 1367Sol     HW 8229   1.575   1.517   2.653 -0.5121  0.4571  1.4224
 1367Sol     MW 8230   1.601   1.594   2.614  0.6634 -0.2941 -0.7112
 1368Sol     OW 8231   1.645   2.819   3.582  0.3028 -0.1952  0.2336
 1368Sol     HW 8232   1.640   2.779   3.669  1.1683 -0.8723 -0.0243
 1368Sol     HW 8233   1.732   2.858   3.578 -0.3323  1.2586  0.2749
 1368Sol     MW 8234   1.653   2.819   3.590  0.6489  0.2109 -0.6449
 1369Sol     OW 8235   0.359   2.895   8.222  0.1957  0.3119  0.0741
 1369Sol     HW 8236   0.407   2.943   8.289  0.7876  0.4682 -0.4651
 1369Sol     HW 8237   0.270   2.930   8.226  0.4253  0.8664  0.2469
 1369Sol     MW 8238   0.355   2.902   8.228 -0.1395 -0.9871  0.8223
 1370Sol     OW 8239   1.887   0.308   5.640 -0.2785  0.2059 -0.0441
 1370Sol     HW 8240   1.896   0.214   5.620  1.3155  0.5856 -1.1821
 1370Sol     HW 8241   1.853   0.346   5.559  0.4001  0.8259 -0.0380
 1370Sol     MW 8242   1.885   0.303   5.631  0.5161 -0.1580  0.6559
 1371Sol     OW 8243   1.288   3.003   3.289 -0.2501  0.2740  0.0473
 1371Sol     HW 8244   1.258   3.019   3.200  0.7526  3.2925  0.2001
 1371Sol     HW 8245   1.353   2.933   3.280  1.3770  1.9609 -1.9101
 1371Sol     MW 8246   1.291   2.998   3.280  0.3609  0.5768  0.4892
 1372Sol     OW 8247   3.018   0.621   5.540 -0.0857  0.0843  0.3514
 1372Sol     HW 8248   3.034   0.587   5.452 -1.3260  0.2510  0.0635
 1372Sol     HW 8249   3.063   0.706   5.541  0.5077 -0.2259  0.1039
 1372Sol     MW 8250   3.024   0.626   5.532  0.3123  0.0371 -0.2644
 1373Sol     OW 8251   0.492   0.718   3.105  0.0225 -0.4560  1.0171
 1373Sol     HW 8252   0.474   0.767   3.185 -1.4419 -2.8505  2.2079
 1373Sol     HW 8253   0.544   0.643   3.134  3.2210  0.9061 -0.9380
 1373Sol     MW 8254   0.495   0.716   3.114 -0.1054 -0.5913  0.2160
 1374Sol     OW 8255   0.080   2.927   1.740 -0.0739  0.0919 -0.4197
 1374Sol     HW 8256   0.164   2.928   1.786 -0.1131  0.8148 -0.3574
 1374Sol     HW 8257   0.103   2.913   1.648  0.0196 -1.1232 -0.2147
 1374Sol     MW 8258   0.090   2.926   1.736 -0.0099  0.0521  0.1994
 1375Sol     OW 8259   3.008   2.532   1.957 -0.3246  0.6509  0.0383
 1375Sol     HW 8260   3.001   2.624   1.980  0.1871  0.7496 -0.2027
 1375Sol     HW 8261   3.043   2.490   2.035 -1.4821  0.5000  0.4902
 1375Sol     MW 8262   3.010   2.536   1.966 -0.1484 -0.4769 -0.5237
 1376Sol     OW 8263   1.934   1.032   5.956  0.7923  0.5334 -0.0422
 1376Sol     HW 8264   2.009   1.092   5.950  2.6713 -1.6908  0.4421
 1376Sol     HW 8265   1.973   0.945   5.954 -1.6859 -0.6713  1.6206
 1376Sol     MW 8266   1.945   1.030   5.955 -0.1197  0.1319 -0.0838
 1377Sol     OW 8267   2.147   0.365   9.567  0.3729 -0.1195 -0.2495
 1377Sol     HW 8268   2.156   0.345   9.660 -1.4917 -2.5607 -0.5257
 1377Sol     HW 8269   2.237   0.368   9.534  0.9824 -1.0297  1.2715
 1377Sol     MW 8270   2.156   0.363   9.572  0.0374 -0.6393  0.1015
 1378Sol     OW 8271   3.082   0.033  10.380  0.5312 -0.1376 -0.0936
 1378Sol     HW 8272   3.173   0.062  10.384  0.8524 -1.2397  0.6952
 1378Sol     HW 8273   3.061   0.033  10.287  1.3736  0.0122 -0.2919
 1378Sol     MW 8274   3.088   0.036  10.372 -0.3697  0.0131  0.6086
 1379Sol     OW 8275   1.090   0.683   8.841 -0.5637  0.4878  0.2983
 1379Sol     HW 8276   1.136   0.631   8.906 -0.1945  0.4607  0.0135
 1379Sol     HW 8277   1.152   0.752   8.816 -0.7607  0.5927  0.0897
 1379Sol     MW 8278   1.100   0.685   8.845 -0.1239 -0.4351  0.5165
 1380Sol     OW 8279   0.261   0.026   2.442 -0.9518  0.0711  0.0133
 1380Sol     HW 8280   0.272  -0.068   2.457 -2.2510  0.1017  1.2086
 1380Sol     HW 8281   0.260   0.035   2.347  1.4368 -0.8472 -0.1448
 1380Sol     MW 8282   0.262   0.018   2.435  0.0918 -0.3790  0.1995
 1381Sol     OW 8283   1.467   1.396   8.960  0.5834 -0.3667  0.1099
 1381Sol     HW 8284   1.451   1.417   8.868  2.4481 -0.5538 -0.2716
 1381Sol     HW 8285   1.457   1.301   8.964  0.0615 -0.3127  0.2100
 1381Sol     MW 8286   1.464   1.389   8.952 -0.0341 -0.0280  0.3804
 1382Sol     OW 8287   0.102   3.024   8.171  0.3153 -0.0346 -0.1725
 1382Sol     HW 8288   0.150   3.035   8.088  1.4447  1.5246  0.6434
 1382Sol     HW 8289   0.115   3.108   8.216 -2.4230  0.0687  0.4907
 1382Sol     MW 8290   0.108   3.033   8.167  1.3372  0.3012  0.5942
 1383Sol     OW 8291   0.347   2.862   9.458 -0.5470  0.1363 -0.5835
 1383Sol     HW 8292   0.410   2.925   9.423  0.9138 -1.8845 -1.6630
 1383Sol     HW 8293   0.358   2.867   9.553  0.5691  0.4779 -0.7268
 1383Sol     MW 8294   0.353   2.868   9.463  0.2217  0.9652 -0.0395
 1384Sol     OW 8295   0.147   1.392   8.364 -0.1898  0.3492  0.3138
 1384Sol     HW 8296   0.178   1.447   8.436  1.0492 -0.2185  0.2190
 1384Sol     HW 8297   0.190   1.308   8.378 -0.8468 -0.1137 -0.4430
 1384Sol     MW 8298   0.153   1.390   8.372  0.1226  0.1987  0.1413
 1385Sol     OW 8299   0.886   2.446   7.372  0.8874  0.2880  0.7365
 1385Sol     HW 8300   0.808   2.444   7.317  1.2652 -0.7938  0.2130
 1385Sol     HW 8301   0.871   2.378   7.438  1.2200  0.3383  0.8671
 1385Sol     MW 8302   0.878   2.439   7.373  0.3914 -0.2431 -0.2430
 1386Sol     OW 8303   1.712   2.979   1.644 -0.0522  0.1019 -0.1207
 1386Sol     HW 8304   1.712   3.063   1.690 -1.1313  0.0834 -0.0729
 1386Sol     HW 8305   1.636   2.933   1.678 -0.1286 -0.4335 -0.9850
 1386Sol     MW 8306   1.706   2.983   1.651  0.5519  0.6962 -0.4064
 1387Sol     OW 8307   1.743   2.845   4.803  0.7307 -0.0605  0.5455
 1387Sol     HW 8308   1.764   2.884   4.718 -0.3922 -0.0092  0.2779
 1387Sol     HW 8309   1.802   2.770   4.811  0.5805 -0.2826 -0.4450
 1387Sol     MW 8310   1.750   2.842   4.796 -0.3292  0.1644 -0.2275
 1388Sol     OW 8311   2.717   2.464   8.383  0.3781  0.4664  0.0766
 1388Sol     HW 8312   2.676   2.447   8.298 -0.8761 -0.2359  0.8174
 1388Sol     HW 8313   2.716   2.380   8.427  2.3279  0.5073  0.2494
 1388Sol     MW 8314   2.714   2.455   8.379  0.2106  0.3468 -1.0905
 1389Sol     OW 8315   2.901   3.301   5.909 -0.3280  0.1648  0.0886
 1389Sol     HW 8316   2.820   3.272   5.952 -0.7635 -0.6914 -1.2666
 1389Sol     HW 8317   2.875   3.382   5.863  0.4360  1.7530  2.3892
 1389Sol     MW 8318   2.891   3.306   5.909  0.9316  0.1820  0.3541
 1390Sol     OW 8319   1.438   1.029   7.164  0.3841  0.2920  0.5461
 1390Sol     HW 8320   1.426   1.110   7.213 -1.6714  0.2615  0.1452
 1390Sol     HW 8321   1.450   1.058   7.073  0.8018  0.1956  0.5694
 1390Sol     MW 8322   1.438   1.039   7.160  0.5818 -0.2637  0.6779
 1391Sol     OW 8323   1.242   0.732   7.147  0.4527  0.5140 -0.4456
 1391Sol     HW 8324   1.211   0.641   7.153 -0.5383  0.8497 -0.3421
 1391Sol     HW 8325   1.251   0.747   7.053 -1.3542  0.9468 -0.5645
 1391Sol     MW 8326   1.240   0.725   7.139 -0.2982  0.1386 -0.3175
 1392Sol     OW 8327   0.981   0.929   8.610 -0.3195  0.1060  0.6186
 1392Sol     HW 8328   0.989   1.024   8.611  0.4482  0.0411  1.0116
 1392Sol     HW 8329   1.064   0.898   8.645 -0.5714 -0.7099  0.4953
 1392Sol     MW 8330   0.989   0.935   8.614 -0.5524 -0.1293  0.3774
 1393Sol     OW 8331   1.828   1.743   7.208 -0.1347 -0.6889 -0.4113
 1393Sol     HW 8332   1.760   1.748   7.275 -0.0377 -1.5966 -0.2355
 1393Sol     HW 8333   1.906   1.712   7.255  1.3530  3.5150  0.0756
 1393Sol     MW 8334   1.829   1.741   7.218  0.3683  0.4767  0.0796
 1394Sol     OW 8335   0.631   3.253   5.595 -0.0246 -0.4641  0.2115
 1394Sol     HW 8336   0.549   3.278   5.552 -0.5995  0.1647  1.6582
 1394Sol     HW 8337   0.664   3.334   5.633  0.6317 -0.9632  0.7123
 1394Sol     MW 8338   0.627   3.262   5.595 -0.0651  0.3231  0.1437
 1395Sol     OW 8339   2.233   0.563   8.763 -0.3469  0.2704  0.8923
 1395Sol     HW 8340   2.212   0.489   8.706  1.2553  1.5223 -1.3996
 1395Sol     HW 8341   2.148   0.599   8.789 -1.1013 -0.8304 -0.0401
 1395Sol     MW 8342   2.224   0.560   8.760  0.2745  0.6943 -0.4080
 1396Sol     OW 8343   0.427   2.794   7.636 -0.0374  0.2723  0.4066
 1396Sol     HW 8344   0.496   2.741   7.595 -0.5127  0.1506 -0.2471
 1396Sol     HW 8345   0.466   2.881   7.643  0.5394 -0.0244  0.9542
 1396Sol     MW 8346   0.437   2.797   7.633 -0.2769 -0.1430  0.0752
 1397Sol     OW 8347   1.697   2.026   7.007 -0.0313 -0.2995 -0.0833
 1397Sol     HW 8348   1.671   1.934   7.003 -0.7345 -0.1559  1.2724
 1397Sol     HW 8349   1.791   2.023   7.025 -0.0280 -0.7488 -0.1598
 1397Sol     MW 8350   1.703   2.017   7.008 -0.4976  0.7854 -0.0969
 1398Sol     OW 8351   2.210   2.768   6.632  0.0274 -0.1331  0.7254
 1398Sol     HW 8352   2.149   2.842   6.631 -1.2412 -1.1791 -0.3396
 1398Sol     HW 8353   2.176   2.708   6.566  1.9087 -0.9884  0.5066
 1398Sol     MW 8354   2.202   2.770   6.626  1.1172  0.1575  0.0868
 1399Sol     OW 8355   2.417   3.367   3.280  0.0714  0.1378 -0.0773
 1399Sol     HW 8356   2.363   3.353   3.202 -0.6740  0.2798  0.4060
 1399Sol     HW 8357   2.462   3.450   3.264 -0.4274  0.3929 -0.1615
 1399Sol     MW 8358   2.416   3.373   3.272 -0.3124 -0.5936  0.3809
 1400Sol     OW 8359   2.452   2.208   5.770  0.5455 -0.6334  0.2080
 1400Sol     HW 8360   2.542   2.177   5.779  0.1616 -1.5546  0.9601
 1400Sol     HW 8361   2.457   2.301   5.791  1.3563 -0.6319  0.0389
 1400Sol     MW 8362   2.461   2.213   5.773  0.6027 -0.4677  0.1723
 1401Sol     OW 8363   1.268   2.920   1.931  0.2042  0.1326 -0.2830
 1401Sol     HW 8364   1.220   2.990   1.976 -1.2220  0.6571 -2.5575
 1401Sol     HW 8365   1.207   2.847   1.928  1.7275 -1.3358  2.1853
 1401Sol     MW 8366   1.259   2.920   1.935 -1.0948  0.2333 -0.1523
 1402Sol     OW 8367   1.992   0.882   9.421 -0.2592 -0.0036 -0.3490
 1402Sol     HW 8368   2.058   0.860   9.356  0.0603  0.5393 -0.2079
 1402Sol     HW 8369   1.944   0.800   9.435  0.6938 -0.5169 -0.0827
 1402Sol     MW 8370   1.993   0.873   9.416 -0.1120 -0.2115  0.2996
 1403Sol     OW 8371   1.296   0.945   6.635 -0.5500  0.0060  0.5886
 1403Sol     HW 8372   1.350   0.977   6.563  1.3423 -1.1570  1.4549
 1403Sol     HW 8373   1.273   1.025   6.684  0.2355  0.5394  0.1034
 1403Sol     MW 8374   1.299   0.955   6.633  0.3066  0.2294  0.0817
 1404Sol     OW 8375   1.656   1.635   9.859  0.4569 -0.0502  0.0164
 1404Sol     HW 8376   1.667   1.615   9.952  1.7241  0.3687 -0.0268
 1404Sol     HW 8377   1.635   1.551   9.818 -0.0773 -0.2412  0.6755
 1404Sol     MW 8378   1.655   1.626   9.864 -0.2728 -0.2423 -0.1193
 1405Sol     OW 8379   0.014   3.371   8.680  0.5740 -0.2291  0.0024
 1405Sol     HW 8380   0.109   3.377   8.692  0.6550 -0.6590 -0.4185
 1405Sol     HW 8381  -0.017   3.461   8.688  0.7190 -0.3448  2.5189
 1405Sol     MW 8382   0.020   3.380   8.682 -0.4466 -0.6824  0.3345
 1406Sol     OW 8383   1.512   0.815   8.848 -0.9848 -0.4874 -0.3688
 1406Sol     HW 8384   1.492   0.722   8.840  0.9062 -0.8967 -0.6059
 1406Sol     HW 8385   1.518   0.831   8.942 -2.2150 -0.3996 -0.3041
 1406Sol     MW 8386   1.511   0.808   8.855  0.1069 -0.1154  0.0298
 1407Sol     OW 8387   2.126   3.250   7.338  0.2581  0.0706 -0.1925
 1407Sol     HW 8388   2.153   3.159   7.350  2.7452  0.7448 -0.4483
 1407Sol     HW 8389   2.090   3.253   7.249  0.3851 -0.6068 -0.2685
 1407Sol     MW 8390   2.125   3.242   7.331 -0.4019  0.6882  0.2138
 1408Sol     OW 8391   1.436   2.977   4.627  0.2625 -0.0247  0.0247
 1408Sol     HW 8392   1.361   3.027   4.661  0.4441 -0.2797  0.8198
 1408Sol     HW 8393   1.492   3.042   4.585 -0.4029  0.1693 -0.5631
 1408Sol     MW 8394   1.434   2.987   4.627  0.9609 -0.7037 -0.5334
 1409Sol     OW 8395   1.707   0.392   3.870  0.2081  0.0511  0.4631
 1409Sol     HW 8396   1.663   0.429   3.793  1.5614  0.5637 -0.0826
 1409Sol     HW 8397   1.653   0.421   3.944 -0.1133  1.0737 -0.1549
 1409Sol     MW 8398   1.698   0.398   3.870  0.2637  0.2655  0.5495
 1410Sol     OW 8399   2.419   0.669   3.080  0.8519  0.5080 -0.4570
 1410Sol     HW 8400   2.404   0.718   2.999 -0.6896 -0.4399 -0.7532
 1410Sol     HW 8401   2.348   0.695   3.138 -0.6324 -2.1963 -1.0111
 1410Sol     MW 8402   2.411   0.676   3.078  0.1092  0.4514  0.0734
 1411Sol     OW 8403   2.009   1.819   5.395 -0.7606 -0.2014  0.3022
 1411Sol     HW 8404   1.964   1.736   5.382  1.9463 -1.7271  0.2332
 1411Sol     HW 8405   2.051   1.810   5.480  1.3872  0.1756 -0.6810
 1411Sol     MW 8406   2.009   1.811   5.401  0.0635 -0.7189 -0.4240
 1412Sol     OW 8407   0.455   3.283   9.941 -0.3876  0.5338  0.8269
 1412Sol     HW 8408   0.537   3.331   9.937 -0.0862 -0.1309 -1.8173
 1412Sol     HW 8409   0.394   3.336   9.890 -0.7710 -0.5244  0.1850
 1412Sol     MW 8410   0.457   3.292   9.936  0.0507  0.1011  0.0625
 1413Sol     OW 8411   2.640   0.083   8.109  0.1444 -0.3688 -0.0204
 1413Sol     HW 8412   2.560   0.125   8.077  0.2109 -0.9670 -1.0092
 1413Sol     HW 8413   2.679   0.147   8.168  0.0024  0.7614 -1.1382
 1413Sol     MW 8414   2.636   0.092   8.111 -0.5852  0.3498  0.1736
 1414Sol     OW 8415   0.087   2.235   9.494 -0.1447  0.5028 -0.0267
 1414Sol     HW 8416   0.092   2.298   9.422 -0.1279  1.2943  0.6631
 1414Sol     HW 8417   0.160   2.259   9.552 -0.8354  0.5719  0.8184
 1414Sol     MW 8418   0.094   2.243   9.493  0.1205  0.2287  0.3938
 1415Sol     OW 8419   2.172   1.567   8.791 -0.2792 -0.0562 -0.0947
 1415Sol     HW 8420   2.207   1.656   8.786 -1.5530  0.5065  0.7558
 1415Sol     HW 8421   2.116   1.567   8.869  0.2809 -1.8109  0.3345
 1415Sol     MW 8422   2.170   1.575   8.797  0.2370  0.2310  0.8119
 1416Sol     OW 8423   0.357   0.831   7.101 -0.0988 -0.3566 -0.0248
 1416Sol     HW 8424   0.348   0.817   7.196 -1.2093 -1.2582 -0.2419
 1416Sol     HW 8425   0.284   0.781   7.063 -1.0452  1.8512 -1.1994
 1416Sol     MW 8426   0.349   0.825   7.106  0.0182 -0.7383  0.2737
 1417Sol     OW 8427   1.309   2.533   6.451 -0.1453 -0.2188  0.6782
 1417Sol     HW 8428   1.232   2.476   6.454  0.8275 -1.5274  1.6411
 1417Sol     HW 8429   1.313   2.573   6.538 -1.1832  1.8290 -0.1993
 1417Sol     MW 8430   1.303   2.531   6.459  0.4566  0.8387  0.4465
 1418Sol     OW 8431   1.191   3.397   2.696 -0.1905  0.2432 -0.1446
 1418Sol     HW 8432   1.106   3.417   2.658 -0.0764 -0.8214 -0.9821
 1418Sol     HW 8433   1.212   3.473   2.750 -1.2838  0.8722 -0.5986
 1418Sol     MW 8434   1.186   3.406   2.698 -0.9050  0.1826  0.7969
 1419Sol     OW 8435   2.418   1.228   5.149  0.4076  0.3546 -0.9338
 1419Sol     HW 8436   2.427   1.321   5.171 -0.7355 -0.0661  1.4747
 1419Sol     HW 8437   2.445   1.182   5.229 -1.0415 -1.3286 -1.3915
 1419Sol     MW 8438   2.421   1.233   5.158 -0.1887 -0.6524 -0.3556
 1420Sol     OW 8439   1.967   0.890   3.188  0.1144 -0.5155  0.0145
 1420Sol     HW 8440   1.916   0.829   3.241 -0.4571 -0.6626 -0.7003
 1420Sol     HW 8441   1.902   0.950   3.152  0.3532 -1.1126 -1.4579
 1420Sol     MW 8442   1.956   0.890   3.189 -0.0923 -0.0495  0.4427
 1421Sol     OW 8443   1.379   0.310   4.493 -0.2951 -0.0552  0.5194
 1421Sol     HW 8444   1.298   0.344   4.457 -0.9049 -0.1338  1.7736
 1421Sol     HW 8445   1.378   0.338   4.585  0.6154 -0.9130  0.8068
 1421Sol     MW 8446   1.372   0.316   4.498  0.0687 -0.5545 -0.0837
 1422Sol     OW 8447   1.508   1.319   8.327  0.1750  0.3977 -0.3981
 1422Sol     HW 8448   1.590   1.313   8.278  1.2195 -0.8659  1.4217
 1422Sol     HW 8449   1.495   1.413   8.341  1.0043  0.6417 -1.1891
 1422Sol     MW 8450   1.514   1.327   8.324  0.0786 -0.1344 -0.2349
 1423Sol     OW 8451   2.558   0.457   4.985  0.1685 -0.0114 -0.1125
 1423Sol     HW 8452   2.579   0.366   4.962 -0.6218 -0.1399 -0.3370
 1423Sol     HW 8453   2.601   0.509   4.917 -0.6772 -0.3006 -0.8707
 1423Sol     MW 8454   2.564   0.454   4.977 -0.0673  0.4727  0.2148
 1424Sol     OW 8455   1.821   0.321   5.340 -0.0876  0.3808 -0.4037
 1424Sol     HW 8456   1.726   0.313   5.336 -0.1547  1.3550 -0.8639
 1424Sol     HW 8457   1.846   0.359   5.256  0.8863 -1.4675 -0.9732
 1424Sol     MW 8458   1.815   0.324   5.332 -0.5419 -0.0877 -0.1044
 1425Sol     OW 8459   2.575   2.449   5.342 -0.5034 -0.3661 -0.0228
 1425Sol     HW 8460   2.538   2.457   5.254  0.6357 -0.4648 -0.5244
 1425Sol     HW 8461   2.650   2.390   5.331  0.2331  0.3967  0.8316
 1425Sol     MW 8462   2.578   2.444   5.333  0.1818 -0.1716  0.6940
 1426Sol     OW 8463   1.637   0.850   9.813  0.3198 -0.1325 -0.0194
 1426Sol     HW 8464   1.587   0.847   9.895  0.8322  0.0067  0.3026
 1426Sol     HW 8465   1.645   0.758   9.787  0.2830 -0.1880  0.1653
 1426Sol     MW 8466   1.633   0.841   9.818  0.2363  0.2066 -0.1792
 1427Sol     OW 8467   2.365   2.354  10.110  0.0828  0.4926  0.1043
 1427Sol     HW 8468   2.382   2.273  10.159  1.5464  0.7378  0.0407
 1427Sol     HW 8469   2.302   2.329  10.043 -1.2886 -0.0534  1.5468
 1427Sol     MW 8470   2.361   2.344  10.109 -0.4916 -0.5922 -0.4748
 1428Sol     OW 8471   2.070   2.314   3.400 -0.7995 -0.4182 -1.2234
 1428Sol     HW 8472   2.104   2.236   3.355  1.0983 -0.6219  0.4665
 1428Sol     HW 8473   1.994   2.282   3.449  0.0810 -1.2657 -0.3903
 1428Sol     MW 8474   2.066   2.304   3.400 -0.1484 -0.8368 -0.3527
 1429Sol     OW 8475   0.812   0.983   6.930 -0.3260  0.3212  0.4447
 1429Sol     HW 8476   0.832   0.982   6.837 -1.3244  1.0887  0.2242
 1429Sol     HW 8477   0.897   0.967   6.973 -0.0590 -1.1950 -0.6043
 1429Sol     MW 8478   0.821   0.981   6.926  0.3960  0.1129 -0.2150
 1430Sol     OW 8479   2.364   2.753   4.952  0.0881 -0.2224  0.0980
 1430Sol     HW 8480   2.389   2.840   4.984  0.9147 -0.4774  0.1344
 1430Sol     HW 8481   2.414   2.741   4.872  1.3816 -1.4307  1.0675
 1430Sol     MW 8482   2.370   2.760   4.948 -0.0765 -0.3814  0.2673
 1431Sol     OW 8483   0.626   1.833   6.522 -0.2684  0.2522 -0.8812
 1431Sol     HW 8484   0.658   1.852   6.433  0.8352 -0.0944 -0.5729
 1431Sol     HW 8485   0.606   1.920   6.558  0.4054  0.4907 -1.0636
 1431Sol     MW 8486   0.627   1.843   6.517  0.0700 -0.0284 -0.2713
 1432Sol     OW 8487   1.992   1.736   6.219 -0.5267 -0.0485 -0.4380
 1432Sol     HW 8488   2.049   1.799   6.176 -1.0146 -0.4319 -1.6751
 1432Sol     HW 8489   1.976   1.669   6.152 -1.9408 -0.2463  0.0826
 1432Sol     MW 8490   1.996   1.735   6.209  0.4835 -0.4854 -0.3775
 1433Sol     OW 8491   1.653   3.123   5.244 -0.3122  0.2643 -0.0141
 1433Sol     HW 8492   1.695   3.201   5.208 -0.3709  0.0665 -0.5133
 1433Sol     HW 8493   1.649   3.062   5.170  2.1298 -1.2119  1.0100
 1433Sol     MW 8494   1.656   3.125   5.234  0.2467  1.2013 -0.5551
 1434Sol     OW 8495   0.350   2.459   2.577 -0.0168  0.3701  0.0752
 1434Sol     HW 8496   0.260   2.489   2.574 -0.2311 -0.2079  0.5862
 1434Sol     HW 8497   0.352   2.383   2.519  0.4830  1.2502 -1.0795
 1434Sol     MW 8498   0.342   2.455   2.571 -0.6606  0.1725 -0.1554
 1435Sol     OW 8499   3.042   3.049   2.544 -0.2979 -0.4337 -0.0034
 1435Sol     HW 8500   2.976   3.065   2.611  0.9606  0.6119  1.0145
 1435Sol     HW 8501   3.010   3.095   2.467 -0.9865 -0.3421  0.3338
 1435Sol     MW 8502   3.034   3.054   2.543  1.2159 -0.4670 -0.5964
 1436Sol     OW 8503   2.797   1.374   5.767 -0.2378 -0.5119  0.5393
 1436Sol     HW 8504   2.885   1.337   5.762 -0.3620 -0.7604  0.1198
 1436Sol     HW 8505   2.807   1.454   5.818  0.2416 -0.5147  0.4493
 1436Sol     MW 8506   2.806   1.378   5.771 -0.2315 -0.0620 -0.2853
 1437Sol     OW 8507   2.031   3.152  10.188  0.1335 -0.3533 -0.4700
 1437Sol     HW 8508   2.010   3.244  10.173 -1.5743 -0.2854  2.0621
 1437Sol     HW 8509   2.088   3.154  10.265  0.5537 -1.3782 -0.7575
 1437Sol     MW 8510   2.034   3.161  10.193 -0.1338  0.1297  0.2284
 1438Sol     OW 8511   0.933   2.246   4.139  0.3885  0.3563  0.1494
 1438Sol     HW 8512   1.022   2.211   4.138 -0.3018 -1.4314 -0.3738
 1438Sol     HW 8513   0.879   2.173   4.168 -0.8637  1.5711  0.9698
 1438Sol     MW 8514   0.936   2.237   4.142 -0.4548  0.0016  0.1351
 1439Sol     OW 8515   2.865   2.688   7.529 -0.1388  0.9289  0.7792
 1439Sol     HW 8516   2.910   2.734   7.459 -1.2616  1.2493  0.2526
 1439Sol     HW 8517   2.776   2.723   7.528 -1.0675 -1.3324  0.2571
 1439Sol     MW 8518   2.861   2.695   7.523 -0.0313  0.0640 -0.1145
 1440Sol     OW 8519   0.021   0.383   4.915  0.2667  0.7332 -0.4861
 1440Sol     HW 8520  -0.025   0.363   4.833  0.8859  1.9024 -1.1361
 1440Sol     HW 8521   0.045   0.298   4.951 -1.4079  0.1428 -0.7089
 1440Sol     MW 8522   0.019   0.374   4.911  0.2855  0.0018  0.1900
 1441Sol     OW 8523   1.324   1.345   6.438 -0.5112  0.2179  0.3477
 1441Sol     HW 8524   1.357   1.316   6.353 -0.0293  0.5365  0.4259
 1441Sol     HW 8525   1.358   1.279   6.500 -0.3822  0.3041  0.3695
 1441Sol     MW 8526   1.330   1.336   6.436  1.0141 -0.1769  0.1918
 1442Sol     OW 8527   2.172   2.041   2.247 -0.6518  0.2086 -0.0127
 1442Sol     HW 8528   2.226   2.061   2.324  1.0472 -0.5988 -0.9840
 1442Sol     HW 8529   2.119   1.966   2.274  1.7599 -1.7064 -0.4364
 1442Sol     MW 8530   2.172   2.036   2.256  0.4585 -0.4458  0.0771
 1443Sol     OW 8531   2.348   2.951   7.663  0.1771  0.1922  0.5176
 1443Sol     HW 8532   2.319   2.963   7.573  0.0284 -1.1663  0.3719
 1443Sol     HW 8533   2.284   3.000   7.715 -1.7291 -1.7952  0.1027
 1443Sol     MW 8534   2.339   2.956   7.660 -0.6519  0.2962  0.5678
 1444Sol     OW 8535   0.526   2.212   5.191  0.3516  0.0615 -0.3955
 1444Sol     HW 8536   0.581   2.214   5.270 -1.8356 -0.6271  1.1863
 1444Sol     HW 8537   0.445   2.256   5.216 -0.9354 -1.4286 -1.8090
 1444Sol     MW 8538   0.524   2.216   5.200  0.6444 -0.3175  0.5991
 1445Sol     OW 8539   2.575   1.725   9.786 -0.3649 -0.3518  0.6677
 1445Sol     HW 8540   2.571   1.676   9.867  1.7968 -0.5302  0.6942
 1445Sol     HW 8541   2.573   1.659   9.717  0.2059 -0.3432  0.6416
 1445Sol     MW 8542   2.574   1.715   9.787  0.4452  0.2831  0.5956
 1446Sol     OW 8543   2.102   2.357   3.847  0.2446  0.2801  0.0159
 1446Sol     HW 8544   2.047   2.341   3.924  1.7462 -2.0182  0.6749
 1446Sol     HW 8545   2.042   2.391   3.781 -0.9832  2.8485  2.3562
 1446Sol     MW 8546   2.092   2.359   3.848 -0.1812 -0.0767 -0.1408
 1447Sol     OW 8547   0.406   0.493   2.239 -0.1242  0.2370 -0.1671
 1447Sol     HW 8548   0.352   0.485   2.160 -1.2279 -0.3730  0.6372
 1447Sol     HW 8549   0.428   0.586   2.243  1.6019 -0.0233 -2.2650
 1447Sol     MW 8550   0.403   0.500   2.232 -0.6280 -0.1541 -0.3391
 1448Sol     OW 8551   2.029   2.871   7.843  0.3252  0.0809 -0.4854
 1448Sol     HW 8552   2.030   2.827   7.928 -0.9645 -0.1873 -0.6016
 1448Sol     HW 8553   2.066   2.807   7.782  0.8672  0.1210 -0.1984
 1448Sol     MW 8554   2.032   2.861   7.845 -0.2574  0.4866 -0.0902
 1449Sol     OW 8555   0.975   2.369   7.954  0.0827  0.0049  0.4456
 1449Sol     HW 8556   0.902   2.326   8.000 -0.4814 -2.5375 -2.6746
 1449Sol     HW 8557   1.053   2.338   8.001 -0.7108  2.1771  3.3609
 1449Sol     MW 8558   0.976   2.362   7.963 -0.9249  0.2984 -0.0822
 1450Sol     OW 8559   1.642   2.758   5.575  0.2315 -0.5980 -0.0337
 1450Sol     HW 8560   1.612   2.846   5.552 -0.6994 -1.0238 -0.4988
 1450Sol     HW 8561   1.677   2.766   5.663  2.2988  0.7281 -0.9420
 1450Sol     MW 8562   1.643   2.767   5.581 -0.2768  0.4293 -0.5632
 1451Sol     OW 8563   0.914   3.007   2.436 -0.5513 -0.4208  0.5005
 1451Sol     HW 8564   0.982   3.071   2.458 -0.0231 -1.0954  0.8524
 1451Sol     HW 8565   0.909   3.011   2.340 -0.4503  0.0763  0.5144
 1451Sol     MW 8566   0.920   3.013   2.429 -0.0102 -0.2624 -0.5484
 1452Sol     OW 8567   0.615   0.351   2.618 -0.1270  0.0281  0.3328
 1452Sol     HW 8568   0.526   0.328   2.593  0.0213 -0.4813  0.2540
 1452Sol     HW 8569   0.606   0.425   2.678 -0.4749  1.3466 -1.3180
 1452Sol     MW 8570   0.607   0.355   2.621  0.0825 -0.3417 -0.0167
 1453Sol     OW 8571   0.374   0.840   2.578 -0.4774  0.0854  0.5005
 1453Sol     HW 8572   0.376   0.817   2.485 -0.3658  0.6006  0.3777
 1453Sol     HW 8573   0.330   0.765   2.619  0.0880 -0.4552  0.1286
 1453Sol     MW 8574   0.370   0.831   2.573 -0.2164  0.3100 -0.7304
 1454Sol     OW 8575   1.539   2.681   8.261 -0.2016 -0.7200 -0.4208
 1454Sol     HW 8576   1.527   2.623   8.336 -0.7927  1.4553  1.2237
 1454Sol     HW 8577   1.485   2.757   8.281  2.2583  1.3756 -1.4517
 1454Sol     MW 8578   1.533   2.683   8.269 -0.7308  0.0089 -0.0777
 1455Sol     OW 8579   1.161   0.883   5.150 -0.3450  0.3695  0.0080
 1455Sol     HW 8580   1.140   0.825   5.077 -2.2297  0.5229  0.3816
 1455Sol     HW 8581   1.231   0.839   5.197  0.2123 -0.2110 -1.3251
 1455Sol     MW 8582   1.165   0.874   5.147 -0.7843  0.2230  0.6008
 1456Sol     OW 8583   2.812   1.513   7.633  0.8009 -0.2363 -0.1149
 1456Sol     HW 8584   2.723   1.548   7.639  0.8227 -0.2210  0.1577
 1456Sol     HW 8585   2.800   1.419   7.618  0.7157 -0.5539  1.7547
 1456Sol     MW 8586   2.803   1.507   7.633  0.3869 -0.6367  0.0918
 1457Sol     OW 8587   0.755   0.535   1.797 -0.2314  0.1470 -0.1190
 1457Sol     HW 8588   0.666   0.558   1.825  0.8248  3.5682  0.6855
 1457Sol     HW 8589   0.803   0.524   1.879  0.3415 -0.7378 -0.5633
 1457Sol     MW 8590   0.751   0.536   1.807 -0.2853  0.4637 -0.2204
 1458Sol     OW 8591   1.003   2.226   8.373  0.4014 -0.3524 -0.0109
 1458Sol     HW 8592   1.031   2.317   8.385  0.3723 -0.2673 -0.5351
 1458Sol     HW 8593   0.993   2.191   8.461 -3.2125  1.2676  0.3114
 1458Sol     MW 8594   1.004   2.231   8.382  0.5271  0.6220  0.5336
 1459Sol     OW 8595   2.928   3.346   2.633 -0.0405 -0.3916 -0.2081
 1459Sol     HW 8596   2.871   3.269   2.639 -1.2429  0.5907  1.7492
 1459Sol     HW 8597   2.870   3.416   2.605 -0.5140  1.2085  4.2827
 1459Sol     MW 8598   2.918   3.345   2.631 -0.1858 -0.3923 -0.1015
 1460Sol     OW 8599   0.379   2.518   9.749  0.4791  0.0674  0.3192
 1460Sol     HW 8600   0.456   2.500   9.694  1.8224  0.0297  2.1573
 1460Sol     HW 8601   0.342   2.599   9.712  0.3646 -0.8493 -1.6567
 1460Sol     MW 8602   0.383   2.524   9.741  0.3653  0.1016  0.2309
 1461Sol     OW 8603   0.870   0.812   9.010 -0.1936  0.2503  0.5816
 1461Sol     HW 8604   0.924   0.797   8.932  0.6966  0.1557  1.2135
 1461Sol     HW 8605   0.829   0.897   8.995  0.0347  0.2679  0.0443
 1461Sol     MW 8606   0.871   0.818   9.002  0.6284  0.2584  0.0062
 1462Sol     OW 8607   0.733   2.099   3.881  0.6362  0.3488 -0.3530
 1462Sol     HW 8608   0.649   2.141   3.901 -0.4684 -0.6899 -2.5932
 1462Sol     HW 8609   0.794   2.172   3.873 -0.2865  1.2051  0.2631
 1462Sol     MW 8610   0.731   2.110   3.882 -1.0070 -0.2655  0.6047
 1463Sol     OW 8611   0.467   0.988   9.900  0.0716  0.5351  0.4472
 1463Sol     HW 8612   0.442   0.919   9.839 -0.0818  0.6902  0.3329
 1463Sol     HW 8613   0.432   0.960   9.985 -0.7298  0.8781  0.2393
 1463Sol     MW 8614   0.462   0.980   9.902 -0.3119  0.0691 -0.5120
 1464Sol     OW 8615   1.710   0.748   3.341 -0.4080 -0.2462  0.2988
 1464Sol     HW 8616   1.767   0.749   3.418 -0.2834  2.0653  0.1968
 1464Sol     HW 8617   1.667   0.833   3.342 -3.5038 -1.7395  0.0764
 1464Sol     MW 8618   1.711   0.755   3.348 -0.4504 -0.3997  0.5124
 1465Sol     OW 8619   1.812   2.357   8.406  0.5799  0.0242 -0.4434
 1465Sol     HW 8620   1.877   2.407   8.456  0.2156 -0.9886  1.1086
 1465Sol     HW 8621   1.791   2.283   8.464 -1.7518  0.2040 -1.0490
 1465Sol     MW 8622   1.816   2.355   8.416  0.1455 -0.1465 -1.1056
 1466Sol     OW 8623   1.834   3.197   2.649  0.4046  0.7890  0.7202
 1466Sol     HW 8624   1.770   3.128   2.662  1.0104  0.3877  1.6173
 1466Sol     HW 8625   1.917   3.160   2.680  1.0796  1.2947 -0.4261
 1466Sol     MW 8626   1.836   3.188   2.653  0.3807 -0.5674  0.3471
 1467Sol     OW 8627   2.573   3.315   8.948  0.1393  0.7410 -0.6279
 1467Sol     HW 8628   2.664   3.345   8.952 -0.3356  2.1564 -0.2539
 1467Sol     HW 8629   2.536   3.338   9.034 -1.4312  3.0263 -1.8508
 1467Sol     MW 8630   2.578   3.320   8.956  0.0935  0.2374 -0.9635
 1468Sol     OW 8631   2.952   2.272  10.089 -0.2122 -0.5969 -0.7533
 1468Sol     HW 8632   2.870   2.240  10.051 -0.8447  0.5986 -0.3965
 1468Sol     HW 8633   2.993   2.193  10.125 -2.0152 -0.9601  0.5991
 1468Sol     MW 8634   2.948   2.262  10.089  0.0245  0.4659  0.1506
 1469Sol     OW 8635   2.587   0.798   9.337 -0.0009  0.1583 -0.0245
 1469Sol     HW 8636   2.664   0.808   9.393  0.7662  1.2766 -1.2452
 1469Sol     HW 8637   2.620   0.812   9.248 -1.3765 -0.6481 -0.6703
 1469Sol     MW 8638   2.597   0.800   9.334 -0.3926 -0.8912  0.5147
 1470Sol     OW 8639   3.026   0.792   3.168 -0.8494 -0.5185  0.2278
 1470Sol     HW 8640   3.070   0.875   3.147 -2.3336  0.5135  1.1009
 1470Sol     HW 8641   2.984   0.808   3.252 -0.4355 -2.4664  0.8278
 1470Sol     MW 8642   3.026   0.801   3.173 -0.3864  0.7505  0.3846
 1471Sol     OW 8643   1.676   0.986   1.612 -0.5052  0.3615 -0.2149
 1471Sol     HW 8644   1.663   0.903   1.659  0.1338 -0.2340 -1.0952
 1471Sol     HW 8645   1.763   0.980   1.575 -0.2851  1.6156  0.0596
 1471Sol     MW 8646   1.682   0.978   1.613 -1.0900 -0.6262 -0.6075
 1472Sol     OW 8647   0.887   1.453   6.979  0.0553  0.1414 -0.7934
 1472Sol     HW 8648   0.817   1.476   7.040  1.0076 -0.9896  0.7692
 1472Sol     HW 8649   0.858   1.372   6.938  0.5308 -0.4178 -0.0209
 1472Sol     MW 8650   0.878   1.448   6.981 -0.2721 -0.2328  0.7751
 1473Sol     OW 8651   1.819   2.566   7.133  0.3877  0.4850  0.0744
 1473Sol     HW 8652   1.755   2.500   7.104  1.2160 -0.5627  0.5983
 1473Sol     HW 8653   1.778   2.606   7.210  0.5887 -0.5664  0.7410
 1473Sol     MW 8654   1.810   2.564   7.137 -0.5353 -0.5792  0.1605
 1474Sol     OW 8655   1.690   2.604   9.786  0.0693  0.6829  0.1572
 1474Sol     HW 8656   1.595   2.603   9.773 -0.1549 -1.5853  1.6976
 1474Sol     HW 8657   1.725   2.632   9.701 -2.0076  3.6012  0.1845
 1474Sol     MW 8658   1.685   2.606   9.777 -0.0714 -0.1782  0.2140
 1475Sol     OW 8659   1.634   2.025   7.430 -0.1396 -0.2922  0.5910
 1475Sol     HW 8660   1.655   1.936   7.460  0.6383  0.4243  2.2203
 1475Sol     HW 8661   1.691   2.082   7.483 -0.1365  1.1322 -0.9248
 1475Sol     MW 8662   1.641   2.022   7.438  0.5602  0.5905 -0.1407
 1476Sol     OW 8663   1.999   2.091   8.161 -0.0174 -0.0424  0.5234
 1476Sol     HW 8664   2.014   2.106   8.067 -2.7499 -1.2197 -0.1485
 1476Sol     HW 8665   1.956   2.171   8.191 -0.9079 -0.4391  0.3203
 1476Sol     MW 8666   1.997   2.100   8.155 -0.5091  0.4313  0.1192
 1477Sol     OW 8667   0.534   1.277   9.717  0.3448 -0.6942 -0.2954
 1477Sol     HW 8668   0.451   1.263   9.762  0.6867 -1.4657  0.0977
 1477Sol     HW 8669   0.529   1.221   9.639  1.3971 -2.4783  0.8803
 1477Sol     MW 8670   0.526   1.271   9.714  0.0100  0.5027  0.3847
 1478Sol     OW 8671   0.152   1.411   1.740  0.7794 -0.3608  0.0104
 1478Sol     HW 8672   0.087   1.341   1.739  2.2114 -1.6973 -0.8081
 1478Sol     HW 8673   0.172   1.425   1.832 -0.0865 -0.4714  0.2196
 1478Sol     MW 8674   0.148   1.406   1.748 -0.0794 -0.9289 -0.2745
 1479Sol     OW 8675   0.727   2.314   2.365  0.7078 -0.1890 -0.1541
 1479Sol     HW 8676   0.746   2.387   2.424  1.4504 -0.1211 -0.4660
 1479Sol     HW 8677   0.807   2.305   2.312  0.4440 -0.9233 -0.4318
 1479Sol     MW 8678   0.736   2.320   2.365  0.0426 -0.1288 -0.0995
 1480Sol     OW 8679   0.597   0.806   6.596  0.0913 -0.5038 -0.3201
 1480Sol     HW 8680   0.607   0.815   6.690 -0.1190 -1.2021 -0.2276
 1480Sol     HW 8681   0.669   0.749   6.569  1.9771  2.1081 -1.0347
 1480Sol     MW 8682   0.604   0.801   6.602 -0.2048  0.1125  0.4884
 1481Sol     OW 8683   1.066   3.008   9.006  0.3460 -0.7829 -0.0224
 1481Sol     HW 8684   1.116   3.032   8.928  1.3941  1.3736  1.2790
 1481Sol     HW 8685   1.022   3.089   9.033 -1.9701 -2.0675  0.2683
 1481Sol     MW 8686   1.066   3.017   9.002  0.0697 -0.4120  0.2446
 1482Sol     OW 8687   2.838   1.759   4.131  0.2696 -0.0803  0.1056
 1482Sol     HW 8688   2.844   1.738   4.224 -0.5571 -3.6300 -0.5880
 1482Sol     HW 8689   2.748   1.790   4.120  0.0041 -0.7792  0.2854
 1482Sol     MW 8690   2.830   1.760   4.139  0.0201 -0.2530  0.1937
 1483Sol     OW 8691   3.041   0.779   5.831  0.2139  0.2188  0.5541
 1483Sol     HW 8692   2.961   0.730   5.813  0.7821 -0.3019 -0.6394
 1483Sol     HW 8693   3.071   0.808   5.745  1.1548  0.6547  1.0184
 1483Sol     MW 8694   3.037   0.777   5.822  0.3914  0.2058 -0.7219
 1484Sol     OW 8695   1.932   2.031   1.742  0.0547  0.5523 -0.0610
 1484Sol     HW 8696   2.015   2.077   1.739 -0.5901  1.7100 -0.2699
 1484Sol     HW 8697   1.866   2.100   1.747 -0.9366 -0.3301 -0.6986
 1484Sol     MW 8698   1.934   2.041   1.742 -0.1858  0.0805 -0.0627
 1485Sol     OW 8699   0.272   0.787   6.392 -0.1847  0.7265  0.7621
 1485Sol     HW 8700   0.308   0.729   6.459  0.6137  2.1198  1.5759
 1485Sol     HW 8701   0.181   0.759   6.383  0.7080 -1.9360 -0.3246
 1485Sol     MW 8702   0.267   0.780   6.397  0.0469  0.3366 -0.1332
 1486Sol     OW 8703   0.441   0.307   7.339  0.2587 -0.3400 -0.0475
 1486Sol     HW 8704   0.514   0.288   7.279  0.4448 -1.8675  0.6369
 1486Sol     HW 8705   0.436   0.403   7.340  1.2102 -0.2518 -1.3535
 1486Sol     MW 8706   0.447   0.314   7.333 -0.1478  0.4698  0.2677
 1487Sol     OW 8707   1.930   2.844   9.074 -0.0354 -0.6844  0.6083
 1487Sol     HW 8708   1.984   2.900   9.017  0.6766 -3.0644 -1.1837
 1487Sol     HW 8709   1.882   2.905   9.130 -0.0447  1.7407 -1.9209
 1487Sol     MW 8710   1.931   2.854   9.074  0.7134 -0.4859 -0.2426
 1488Sol     OW 8711   1.035   0.052   5.469 -0.3222 -0.5426 -0.3473
 1488Sol     HW 8712   0.959   0.109   5.484 -1.0179 -1.9391  1.8879
 1488Sol     HW 8713   1.082   0.092   5.396 -1.9098  1.6980 -0.2030
 1488Sol     MW 8714   1.032   0.060   5.464  0.1403  0.0761 -0.1383
 1489Sol     OW 8715   0.434   0.780   9.701 -0.2479  0.1043 -0.1308
 1489Sol     HW 8716   0.367   0.838   9.666 -1.3561 -2.0557 -1.6982
 1489Sol     HW 8717   0.443   0.710   9.636  1.4230 -1.2196  1.4350
 1489Sol     MW 8718   0.429   0.779   9.692 -0.5057 -0.4497  0.3630
 1490Sol     OW 8719   1.977   0.626   8.761  0.6025  0.3223  0.5636
 1490Sol     HW 8720   1.912   0.565   8.797  1.9383 -1.1257  0.5756
 1490Sol     HW 8721   1.939   0.655   8.678 -0.3690  0.0143  0.8924
 1490Sol     MW 8722   1.968   0.623   8.757 -0.7841 -0.0754 -0.3260
 1491Sol     OW 8723   2.188   1.572   2.349 -0.0675 -0.2734  0.3191
 1491Sol     HW 8724   2.175   1.621   2.431  1.9322 -1.1145  1.1685
 1491Sol     HW 8725   2.270   1.606   2.314 -1.0286  0.2354 -1.4772
 1491Sol     MW 8726   2.194   1.580   2.353  0.2853 -0.0737 -0.0119
 1492Sol     OW 8727   1.828   2.765   4.137 -0.3947 -0.1717  0.9041
 1492Sol     HW 8728   1.819   2.838   4.198  0.7853 -0.2386  1.1826
 1492Sol     HW 8729   1.803   2.802   4.052  1.4109  0.9520  0.8091
 1492Sol     MW 8730   1.825   2.775   4.135 -0.4846 -0.1875  0.4630
 1493Sol     OW 8731   1.071   3.164   4.156 -0.0680  0.3721  0.3829
 1493Sol     HW 8732   1.089   3.100   4.087  1.1680 -2.1729  2.9832
 1493Sol     HW 8733   1.155   3.206   4.172 -0.3600  0.9788  0.3384
 1493Sol     MW 8734   1.080   3.162   4.151 -0.2277 -0.6320 -0.6252
 1494Sol     OW 8735   2.288   2.773   7.178 -0.0186  0.2069 -0.2172
 1494Sol     HW 8736   2.304   2.678   7.175  2.8820  0.6806 -1.4735
 1494Sol     HW 8737   2.256   2.794   7.090 -2.6210  0.1164  0.6745
 1494Sol     MW 8738   2.287   2.766   7.169 -0.1973 -1.2662 -0.1717
 1495Sol     OW 8739   1.667   0.498   7.741 -0.5189  0.2765  0.1655
 1495Sol     HW 8740   1.591   0.455   7.780 -2.4524  3.6678  0.4008
 1495Sol     HW 8741   1.743   0.452   7.777 -2.4165 -1.5412  1.9404
 1495Sol     MW 8742   1.667   0.490   7.748  0.2632  0.0677  0.0444
 1496Sol     OW 8743   1.343   0.566   5.736  0.0505  0.7347  0.8490
 1496Sol     HW 8744   1.255   0.543   5.765  0.8536 -1.6395  1.6058
 1496Sol     HW 8745   1.393   0.579   5.817  0.4244  1.9879  0.4305
 1496Sol     MW 8746   1.340   0.565   5.746  0.0116 -0.6350  0.0151
 1497Sol     OW 8747   2.447   1.209   2.933  0.0587 -0.1997  0.1910
 1497Sol     HW 8748   2.433   1.276   3.000 -1.6137 -1.2876  0.9667
 1497Sol     HW 8749   2.436   1.256   2.850 -1.7939  0.3526  0.7314
 1497Sol     MW 8750   2.445   1.220   2.932  0.3695  0.1406 -0.6736
 1498Sol     OW 8751   0.160   2.883   4.417  0.4827 -0.2107  0.2505
 1498Sol     HW 8752   0.086   2.835   4.453  0.1358  0.5116  0.5052
 1498Sol     HW 8753   0.167   2.851   4.327 -1.1236  0.8523 -0.2635
 1498Sol     MW 8754   0.154   2.875   4.412  0.2435 -0.5358 -0.1813
 1499Sol     OW 8755   1.200   0.802   6.841 -0.4457 -0.0489  0.1231
 1499Sol     HW 8756   1.150   0.870   6.886  1.0563  0.9629  0.3135
 1499Sol     HW 8757   1.226   0.842   6.758 -0.3781 -0.7352 -0.1864
 1499Sol     MW 8758   1.198   0.812   6.838 -0.4612 -0.2244  0.1560
 1500Sol     OW 8759   0.835   0.159   3.101 -0.1381  0.4441 -0.5238
 1500Sol     HW 8760   0.919   0.192   3.135 -0.5215  0.1985  0.6817
 1500Sol     HW 8761   0.770   0.193   3.162 -0.6315 -1.7851  0.2233
 1500Sol     MW 8762   0.837   0.165   3.109  0.5568 -0.6029  0.4332
 1501Sol     OW 8763   1.439   1.220   7.343  0.5990 -0.2135 -0.5656
 1501Sol     HW 8764   1.351   1.249   7.366  1.5433  2.0199  0.3172
 1501Sol     HW 8765   1.465   1.163   7.415  0.0818 -0.4474 -0.5645
 1501Sol     MW 8766   1.434   1.217   7.352  0.9956 -0.0610  0.1743
 1502Sol     OW 8767   0.136   1.903   9.711 -0.6486 -0.2703  0.5156
 1502Sol     HW 8768   0.166   1.961   9.780  3.5527 -0.2990 -1.1853
 1502Sol     HW 8769   0.158   1.815   9.742 -0.2107 -0.3944 -0.1267
 1502Sol     MW 8770   0.140   1.900   9.720 -0.3464 -0.8442  0.6378
 1503Sol     OW 8771   1.535   2.965   9.711 -0.5755 -0.3630  0.0196
 1503Sol     HW 8772   1.440   2.968   9.725 -0.7212  0.9433 -1.1439
 1503Sol     HW 8773   1.571   3.027   9.775 -0.4571 -1.1971  0.7711
 1503Sol     MW 8774   1.530   2.971   9.718 -0.6833 -0.3236  0.5560
 1504Sol     OW 8775   2.428   3.274   4.718 -0.0912 -0.4470  0.0003
 1504Sol     HW 8776   2.472   3.353   4.687 -2.3704  0.5194 -0.9477
 1504Sol     HW 8777   2.472   3.252   4.800  0.5676  1.8466  0.3096
 1504Sol     MW 8778   2.436   3.279   4.723  0.3208 -0.1038 -0.7216
 1505Sol     OW 8779   2.792   1.750   2.542  0.0567  0.0923  0.5053
 1505Sol     HW 8780   2.872   1.700   2.563  0.7779  0.6262 -0.9323
 1505Sol     HW 8781   2.733   1.685   2.504  0.5041  0.0643 -0.1472
 1505Sol     MW 8782   2.794   1.739   2.541 -0.6628  0.3301  0.0080
 1506Sol     OW 8783   0.682   2.141   6.544 -0.1078 -0.2148 -0.3171
 1506Sol     HW 8784   0.657   2.173   6.458  0.5331 -1.0453 -0.8255
 1506Sol     HW 8785   0.621   2.182   6.605 -0.2367  0.7689 -1.1140
 1506Sol     MW 8786   0.674   2.147   6.542  0.7866 -0.1943 -0.5412
 1507Sol     OW 8787   0.392   0.207   7.594  0.0915  0.3815 -0.7592
 1507Sol     HW 8788   0.408   0.116   7.567  0.2817  0.6564 -1.5929
 1507Sol     HW 8789   0.418   0.259   7.518  0.2236  1.1512 -0.1885
 1507Sol     MW 8790   0.396   0.203   7.585  0.7836 -0.1064  0.0241
 1508Sol     OW 8791   0.600   1.317   5.813 -0.3475  0.0943  0.5384
 1508Sol     HW 8792   0.649   1.376   5.870  0.8566  0.4073 -0.7854
 1508Sol     HW 8793   0.570   1.373   5.741  0.7826 -0.8612 -0.7159
 1508Sol     MW 8794   0.602   1.327   5.812 -0.0653  0.3185  0.2724
 1509Sol     OW 8795   0.192   0.830   5.157 -0.1230  0.4288 -0.4416
 1509Sol     HW 8796   0.193   0.910   5.106  1.7583  1.4606  1.1167
 1509Sol     HW 8797   0.165   0.762   5.096 -3.2946  2.4694 -1.4018
 1509Sol     MW 8798   0.190   0.831   5.147 -0.2960 -0.5263 -0.0797
 1510Sol     OW 8799   2.597   1.126   7.905 -0.5875  0.5206  0.0625
 1510Sol     HW 8800   2.626   1.073   7.979  0.5104 -0.1237 -0.8123
 1510Sol     HW 8801   2.510   1.158   7.930 -1.2016 -1.5708  0.6576
 1510Sol     MW 8802   2.592   1.124   7.914 -0.6674  0.1831 -0.1972
 1511Sol     OW 8803   0.347   2.734   6.055  0.2708 -0.0678  0.4556
 1511Sol     HW 8804   0.364   2.800   5.988 -0.9452  0.9513  1.1325
 1511Sol     HW 8805   0.391   2.655   6.023  2.0748  1.1801 -0.1557
 1511Sol     MW 8806   0.352   2.733   6.046  0.2916  0.1321 -0.5771
 1512Sol     OW 8807   0.020   3.400   7.353  0.3557 -0.3507 -0.1785
 1512Sol     HW 8808   0.095   3.453   7.327  0.2160 -0.3398 -0.5572
 1512Sol     HW 8809   0.022   3.401   7.449 -0.4727  1.5238 -0.1597
 1512Sol     MW 8810   0.027   3.405   7.359 -0.0823 -0.0263  0.0053
 1513Sol     OW 8811   1.692   1.478   2.914 -0.2584  0.5012 -0.1773
 1513Sol     HW 8812   1.692   1.532   2.993 -0.0152  0.0027  0.1674
 1513Sol     HW 8813   1.626   1.411   2.931  1.3833 -0.9795  0.5609
 1513Sol     MW 8814   1.686   1.477   2.922  0.3134 -0.3003  0.7217
 1514Sol     OW 8815   0.541   0.623   8.626  0.3650 -0.6206  0.1426
 1514Sol     HW 8816   0.535   0.535   8.590 -0.3873 -0.7462  0.5680
 1514Sol     HW 8817   0.634   0.644   8.623  0.4016 -0.9175 -1.1854
 1514Sol     MW 8818   0.548   0.617   8.622  0.7811  0.0665  0.3255
 1515Sol     OW 8819   1.703   2.428  10.155 -0.0008 -0.0265 -0.6718
 1515Sol     HW 8820   1.693   2.334  10.138  1.3484  0.0095 -1.7290
 1515Sol     HW 8821   1.636   2.469  10.100 -0.2982 -0.3454 -0.5516
 1515Sol     MW 8822   1.696   2.423  10.148 -0.3239  0.4774 -0.2580
 1516Sol     OW 8823   1.602   1.241   7.983 -0.6286 -0.6331  0.3777
 1516Sol     HW 8824   1.636   1.198   7.905  0.7709 -1.1360  1.2408
 1516Sol     HW 8825   1.524   1.288   7.953  0.6851  0.3417 -1.6051
 1516Sol     MW 8826   1.598   1.241   7.974  0.6405  0.3667  0.0529
 1517Sol     OW 8827   1.996   2.200   5.372  0.3003 -0.4491  0.1886
 1517Sol     HW 8828   1.994   2.234   5.282 -3.6477 -1.2962 -0.1207
 1517Sol     HW 8829   2.021   2.108   5.362  2.7783  0.1811  0.2770
 1517Sol     MW 8830   1.998   2.195   5.363 -0.5278 -0.7434  0.0617
 1518Sol     OW 8831   0.340   1.275   1.555 -0.5897 -0.1577  0.2930
 1518Sol     HW 8832   0.409   1.270   1.621  0.2898 -1.5039 -0.7170
 1518Sol     HW 8833   0.259   1.284   1.606  0.0954 -0.9886  1.5450
 1518Sol     MW 8834   0.339   1.276   1.565 -0.0910 -0.0733 -0.2130
 1519Sol     OW 8835   0.396   3.137   1.868 -0.6479  0.4790 -0.3448
 1519Sol     HW 8836   0.303   3.157   1.875 -0.8274 -0.8421  1.5946
 1519Sol     HW 8837   0.439   3.198   1.928 -0.3578  0.6019 -0.6788
 1519Sol     MW 8838   0.392   3.144   1.874  0.0679  0.1020 -0.2508
 1520Sol     OW 8839   0.407   2.851   1.939  0.2182  0.0397 -0.1588
 1520Sol     HW 8840   0.427   2.940   1.909 -2.6675  0.4017 -1.1223
 1520Sol     HW 8841   0.490   2.804   1.932  1.7551  2.6188  0.2618
 1520Sol     MW 8842   0.416   2.855   1.935 -0.3657 -0.2190  0.0512
 1521Sol     OW 8843   2.858   2.226   7.712 -0.2501 -0.5618  0.3362
 1521Sol     HW 8844   2.848   2.276   7.794 -1.6784  0.1189 -0.2257
 1521Sol     HW 8845   2.819   2.283   7.645  1.5551 -0.8100 -0.9381
 1521Sol     MW 8846   2.853   2.236   7.714  0.5591  0.1425 -1.2437
 1522Sol     OW 8847   0.515   1.863   5.461 -0.3150  0.2568  0.1604
 1522Sol     HW 8848   0.512   1.857   5.366  0.5374 -0.7446  0.1794
 1522Sol     HW 8849   0.446   1.804   5.491  0.4533 -0.6421  0.1791
 1522Sol     MW 8850   0.508   1.857   5.455 -0.2576  0.0034  0.6073
 1523Sol     OW 8851   0.775   2.593   5.454  0.2304  0.7989  0.4560
 1523Sol     HW 8852   0.780   2.509   5.499  1.4742  0.2690 -0.6219
 1523Sol     HW 8853   0.683   2.600   5.427  0.0095  0.0178  0.9875
 1523Sol     MW 8854   0.767   2.586   5.455 -0.1172 -0.0563 -0.3964
 1524Sol     OW 8855   2.557   0.816   7.525  0.0145  0.1111  0.0923
 1524Sol     HW 8856   2.525   0.727   7.540 -2.0972  0.7596 -0.4213
 1524Sol     HW 8857   2.587   0.846   7.611  0.1609 -0.8479  0.3862
 1524Sol     MW 8858   2.557   0.810   7.534  0.3232  0.5178 -0.2211
 1525Sol     OW 8859   1.537   0.376   2.157 -0.4724  0.3732 -0.4695
 1525Sol     HW 8860   1.616   0.329   2.129 -1.7168 -0.1816 -3.1827
 1525Sol     HW 8861   1.508   0.328   2.235  0.9586 -0.4278 -0.4064
 1525Sol     MW 8862   1.542   0.367   2.161  0.0234 -0.0685  0.0860
 1526Sol     OW 8863   0.775   0.108   2.841  0.1031  0.2110 -0.0806
 1526Sol     HW 8864   0.679   0.113   2.840  0.1298  1.3534  1.7405
 1526Sol     HW 8865   0.800   0.145   2.925  2.1815  0.3299 -0.7297
 1526Sol     MW 8866   0.768   0.112   2.848  0.1993  0.1930 -0.3124
 1527Sol     OW 8867   0.136   2.007   8.781  0.3161  0.1524 -0.0845
 1527Sol     HW 8868   0.108   1.996   8.690  0.9474  0.9245 -0.3817
 1527Sol     HW 8869   0.206   1.943   8.793  0.6849  0.5057 -0.3445
 1527Sol     MW 8870   0.140   2.001   8.774 -0.1907  0.4965  0.9125
 1528Sol     OW 8871   1.732   3.265   8.345  0.2731  0.3727 -0.4330
 1528Sol     HW 8872   1.670   3.330   8.311  1.2069  0.1650 -2.6651
 1528Sol     HW 8873   1.686   3.182   8.336 -0.7704  0.6408  2.0528
 1528Sol     MW 8874   1.722   3.264   8.341 -0.3318  0.3369  0.5871
 1529Sol     OW 8875   2.941   1.053   5.231  0.2116  0.1935  0.1383
 1529Sol     HW 8876   2.974   0.967   5.257  1.1346  1.1256  2.1863
 1529Sol     HW 8877   2.950   1.054   5.136 -1.4690 -2.6197 -0.1195
 1529Sol     MW 8878   2.945   1.045   5.225  0.2008 -0.1560  0.4411
 1530Sol     OW 8879   2.401   0.195   1.791  0.4064  0.1130 -0.2816
 1530Sol     HW 8880   2.415   0.221   1.882 -0.8533 -0.2541  0.0226
 1530Sol     HW 8881   2.454   0.256   1.740  0.0318  1.2077  0.6199
 1530Sol     MW 8882   2.407   0.203   1.794 -0.0231 -0.3969 -0.5653
 1531Sol     OW 8883   0.152   2.813   5.001  0.2374  0.5063  0.2829
 1531Sol     HW 8884   0.132   2.777   5.088 -1.3053 -1.2553 -0.7707
 1531Sol     HW 8885   0.233   2.769   4.975 -0.1548 -0.1344  0.1528
 1531Sol     MW 8886   0.158   2.806   5.007 -0.5788  0.7240 -0.3282
 1532Sol     OW 8887   0.873   0.382   3.564  0.3018  0.1675 -0.2238
 1532Sol     HW 8888   0.931   0.409   3.492 -0.8519  0.3257 -1.1071
 1532Sol     HW 8889   0.822   0.460   3.584  0.5424  0.0907  0.7140
 1532Sol     MW 8890   0.874   0.391   3.559 -0.3902  0.3985  0.1116
 1533Sol     OW 8891   0.705   3.167   2.890 -0.2538 -0.0099  0.1475
 1533Sol     HW 8892   0.695   3.198   2.980 -0.4910 -0.1762  0.1765
 1533Sol     HW 8893   0.628   3.200   2.844 -0.4853 -0.5206  0.1679
 1533Sol     MW 8894   0.698   3.173   2.894 -0.5585 -0.6664 -0.1077
 1534Sol     OW 8895   1.845   0.215   3.215 -0.6299 -0.2700  0.4120
 1534Sol     HW 8896   1.864   0.137   3.267  1.3664 -1.0056 -1.3572
 1534Sol     HW 8897   1.892   0.285   3.260  2.6071 -1.2319 -1.2898
 1534Sol     MW 8898   1.851   0.214   3.224  0.3092  0.2354  0.0146
 1535Sol     OW 8899   2.282   2.595   3.124  0.0199 -0.0049 -0.3713
 1535Sol     HW 8900   2.303   2.575   3.215  0.0612  0.3979 -0.2939
 1535Sol     HW 8901   2.234   2.678   3.127  0.0342  0.0181 -0.7163
 1535Sol     MW 8902   2.280   2.601   3.132  0.3235  0.0581 -0.0749
 1536Sol     OW 8903   2.616   0.234   6.071  0.0653  0.2592  0.4783
 1536Sol     HW 8904   2.536   0.181   6.074  0.3066 -0.4681 -3.1632
 1536Sol     HW 8905   2.593   0.308   6.014  1.4422  1.0396  0.9183
 1536Sol     MW 8906   2.607   0.236   6.066 -0.3927  1.1442  0.1247
 1537Sol     OW 8907   3.033   0.530   5.266  0.4497 -0.3569 -0.0098
 1537Sol     HW 8908   2.946   0.532   5.226 -0.0966  2.1983  1.2135
 1537Sol     HW 8909   3.074   0.451   5.230 -1.7166 -0.6519 -1.9570
 1537Sol     MW 8910   3.029   0.523   5.259  0.0859  0.3628 -0.3165
 1538Sol     OW 8911   2.894   0.557   1.615 -0.0502 -0.4177  0.1040
 1538Sol     HW 8912   2.949   0.632   1.593  1.1368 -0.2678  3.3491
 1538Sol     HW 8913   2.809   0.578   1.575  1.4966  0.4610 -2.9181
 1538Sol     MW 8914   2.891   0.566   1.609 -0.2710  0.2856 -0.1903
 1539Sol     OW 8915   0.666   3.344   7.050  0.0418  0.0266  0.1898
 1539Sol     HW 8916   0.639   3.267   7.000  1.4411  0.1089 -0.7114
 1539Sol     HW 8917   0.677   3.312   7.139 -0.8948 -0.4722  0.1397
 1539Sol     MW 8918   0.664   3.335   7.053 -0.5142  0.5982 -0.0954
 1540Sol     OW 8919   0.767   0.907   4.654 -0.0338 -0.1802  0.1971
 1540Sol     HW 8920   0.753   0.829   4.600 -0.0000  0.5126 -0.8348
 1540Sol     HW 8921   0.693   0.964   4.634  0.7285  0.6889 -0.2134
 1540Sol     MW 8922   0.759   0.905   4.647 -0.3010 -0.1799 -0.3078
 1541Sol     OW 8923   0.330   2.250   2.399  0.3905 -0.2423 -0.4153
 1541Sol     HW 8924   0.396   2.245   2.330  1.1131  0.3156  0.2338
 1541Sol     HW 8925   0.337   2.166   2.445 -0.2679 -0.7197 -1.1688
 1541Sol     MW 8926   0.336   2.242   2.397 -0.1354 -0.4576  0.1079
 1542Sol     OW 8927   2.638   1.355   7.102  0.2076 -0.4177 -0.2097
 1542Sol     HW 8928   2.553   1.362   7.146  1.0228  1.1909  1.1805
 1542Sol     HW 8929   2.649   1.261   7.087 -1.1981 -0.7815  0.8452
 1542Sol     MW 8930   2.631   1.347   7.105  0.1716 -0.1626 -0.2892
 1543Sol     OW 8931   0.614   0.800   6.859 -0.0899  0.3489  0.0733
 1543Sol     HW 8932   0.629   0.886   6.899  1.5606  1.1244 -2.1375
 1543Sol     HW 8933   0.692   0.749   6.883  0.0508  0.2375 -0.6128
 1543Sol     MW 8934   0.623   0.803   6.865 -1.6372 -0.3591 -0.0189
 1544Sol     OW 8935   2.531   0.415   5.875  0.0950 -0.8649 -0.1496
 1544Sol     HW 8936   2.557   0.413   5.783  0.5779  1.8982 -0.1313
 1544Sol     HW 8937   2.435   0.407   5.873 -0.1100  1.3062 -1.0914
 1544Sol     MW 8938   2.525   0.414   5.867 -0.1349  0.1342  0.8225
 1545Sol     OW 8939   0.203   3.137   9.441  0.0360 -0.2953  0.3181
 1545Sol     HW 8940   0.122   3.158   9.396  1.4536  0.8061 -1.7578
 1545Sol     HW 8941   0.174   3.100   9.525 -2.5638  1.9792  0.4835
 1545Sol     MW 8942   0.193   3.135   9.445 -0.8323  0.0756 -0.1443
 1546Sol     OW 8943   0.413   0.199   5.556  0.2113  0.2847  0.0758
 1546Sol     HW 8944   0.359   0.270   5.520  0.9322  0.6944 -0.1945
 1546Sol     HW 8945   0.448   0.234   5.637 -0.7501 -0.3535  0.7812
 1546Sol     MW 8946   0.411   0.208   5.560  0.0937  0.2668 -0.0613
 1547Sol     OW 8947   1.142   2.515   6.744  0.3808  0.3953  0.3123
 1547Sol     HW 8948   1.073   2.449   6.743  0.4475  0.3251  0.3227
 1547Sol     HW 8949   1.099   2.595   6.713  0.1947  0.4562  0.7322
 1547Sol     MW 8950   1.132   2.517   6.741 -0.0589 -0.1553 -0.1463
 1548Sol     OW 8951   0.832   0.490   7.243 -0.1001 -0.0457  0.6280
 1548Sol     HW 8952   0.871   0.575   7.227  1.4968 -0.7106  0.8945
 1548Sol     HW 8953   0.848   0.440   7.163  1.2760 -0.9276  1.4377
 1548Sol     MW 8954   0.837   0.493   7.235 -0.7396 -0.4942  1.1393
 1549Sol     OW 8955   3.004   1.643   6.606  0.5140  0.0623 -0.0818
 1549Sol     HW 8956   2.916   1.625   6.640  0.4835  0.2477 -0.0583
 1549Sol     HW 8957   3.045   1.557   6.597  0.1294 -0.0633 -0.6307
 1549Sol     MW 8958   3.000   1.634   6.608  0.1952  0.6975  0.7312
 1550Sol     OW 8959   3.033   0.763   1.541  0.1556  0.0825 -0.0476
 1550Sol     HW 8960   3.120   0.726   1.558  0.0282 -0.8428 -1.3153
 1550Sol     HW 8961   3.047   0.826   1.470 -0.2610 -0.3366 -0.5074
 1550Sol     MW 8962   3.042   0.765   1.536  0.1356 -0.5958 -0.2618
 1551Sol     OW 8963   2.853   0.438   3.467  0.4155  0.4561  0.4957
 1551Sol     HW 8964   2.861   0.407   3.377  0.7384  0.4401  0.5290
 1551Sol     HW 8965   2.760   0.456   3.478  0.2509 -0.3188  0.4148
 1551Sol     MW 8966   2.846   0.436   3.460  0.3259 -0.2845  0.1099
 1552Sol     OW 8967   2.730   2.245   7.222 -0.2028 -0.4196  0.0768
 1552Sol     HW 8968   2.688   2.196   7.292  0.7602 -0.4234  0.6645
 1552Sol     HW 8969   2.658   2.277   7.168 -0.8778 -1.7918  0.1429
 1552Sol     MW 8970   2.720   2.244   7.223 -0.2241  0.3668 -0.0161
 1553Sol     OW 8971   2.752   2.921  10.013  0.2792 -0.4523  0.3723
 1553Sol     HW 8972   2.823   2.857  10.022  1.3677  0.8720  1.4755
 1553Sol     HW 8973   2.745   2.962  10.099 -0.7726  0.5325 -0.1616
 1553Sol     MW 8974   2.758   2.919  10.021  0.2198  0.0021 -0.0239
 1554Sol     OW 8975   1.382   0.715   5.274 -0.0906  0.1396  0.4362
 1554Sol     HW 8976   1.346   0.740   5.359  1.3032 -0.5532  1.2468
 1554Sol     HW 8977   1.475   0.737   5.279 -0.1724  0.9360 -1.2485
 1554Sol     MW 8978   1.387   0.719   5.282  0.2127  0.6395  0.8462
 1555Sol     OW 8979   2.345   0.108   2.319 -0.2165 -0.6819 -0.0138
 1555Sol     HW 8980   2.329   0.020   2.352 -0.1943 -1.6890 -2.5546
 1555Sol     HW 8981   2.266   0.130   2.270  0.0273  0.4878  0.0896
 1555Sol     MW 8982   2.336   0.102   2.318 -0.4053 -0.5549  0.2041
 1556Sol     OW 8983   2.510   1.506   7.416  0.1032 -0.3017 -1.1395
 1556Sol     HW 8984   2.602   1.523   7.397 -0.0013 -0.2208 -1.5670
 1556Sol     HW 8985   2.474   1.474   7.333  0.5321 -3.5561 -0.1671
 1556Sol     MW 8986   2.515   1.504   7.407 -0.4509 -0.3710  0.2308
 1557Sol     OW 8987   2.983   0.821   4.046 -0.6620  0.0392 -0.1136
 1557Sol     HW 8988   2.989   0.905   4.091  1.8138  0.5212 -1.2758
 1557Sol     HW 8989   2.889   0.802   4.043 -1.2152  2.5350  0.5628
 1557Sol     MW 8990   2.975   0.827   4.050  0.3913  0.4191 -0.0596
 1558Sol     OW 8991   2.439   0.745  10.108 -0.0853 -0.0221 -0.7519
 1558Sol     HW 8992   2.388   0.669  10.136  1.1751 -0.6231 -0.0442
 1558Sol     HW 8993   2.395   0.776  10.029 -0.7725 -1.3195 -0.8924
 1558Sol     MW 8994   2.430   0.741  10.104 -0.1049 -0.3727  0.1445
 1559Sol     OW 8995   2.687   2.315   1.826 -0.3884 -0.0751 -0.3176
 1559Sol     HW 8996   2.706   2.325   1.919 -3.4222  1.5619  0.1818
 1559Sol     HW 8997   2.729   2.390   1.785  0.3955 -0.4468 -0.2146
 1559Sol     MW 8998   2.692   2.322   1.831  0.7285  0.2789 -0.3193
 1560Sol     OW 8999   1.405   2.726   4.003  0.2172  0.2619  0.2416
 1560Sol     HW 9000   1.335   2.678   3.959  0.4844 -1.2435  1.4435
 1560Sol     HW 9001   1.406   2.812   3.959 -3.0248  0.6835  0.8460
 1560Sol     MW 9002   1.399   2.730   3.995 -0.4972 -0.0749  0.2732
 1561Sol     OW 9003   1.278   3.183   4.745 -0.2630 -0.6178  0.5300
 1561Sol     HW 9004   1.319   3.269   4.733  0.1741 -0.7226  1.2929
 1561Sol     HW 9005   1.283   3.167   4.839  0.5862 -1.9431  0.2663
 1561Sol     MW 9006   1.282   3.190   4.752 -0.6562 -0.1624  0.3051
 1562Sol     OW 9007   1.107   1.663   4.445 -0.1083 -0.4669 -0.3815
 1562Sol     HW 9008   1.046   1.645   4.517  0.1514  1.2070  0.2758
 1562Sol     HW 9009   1.051   1.666   4.367 -0.4045 -2.2184 -0.2703
 1562Sol     MW 9010   1.096   1.661   4.444 -0.3355  0.3901 -0.3009
 1563Sol     OW 9011   0.678   2.451   6.642  0.6905  0.2513  0.4724
 1563Sol     HW 9012   0.673   2.495   6.557 -0.6067 -0.2941  0.2545
 1563Sol     HW 9013   0.590   2.457   6.678  1.3687  0.9764  2.0551
 1563Sol     MW 9014   0.670   2.455   6.638 -0.1412  0.5389  0.4681
 1564Sol     OW 9015   1.992   2.344   5.009 -0.1853  0.0735  0.0483
 1564Sol     HW 9016   2.049   2.267   5.015  0.6209  0.8044  1.9378
 1564Sol     HW 9017   2.050   2.419   5.024 -1.1444  1.0038 -0.8095
 1564Sol     MW 9018   2.002   2.344   5.011 -0.2973  0.1171  0.5931
 1565Sol     OW 9019   1.798   2.855   6.695 -0.7597  0.2183 -0.1968
 1565Sol     HW 9020   1.794   2.844   6.790 -1.8714  1.4538 -0.0873
 1565Sol     HW 9021   1.793   2.767   6.660  1.5723 -0.4105  0.9445
 1565Sol     MW 9022   1.798   2.846   6.701  0.1606  0.1925 -0.0226
 1566Sol     OW 9023   1.667   2.230   6.758 -0.2278  0.6489  0.0006
 1566Sol     HW 9024   1.756   2.199   6.738 -0.8137 -0.4564 -0.9737
 1566Sol     HW 9025   1.667   2.239   6.853  1.3153  1.8932 -0.0911
 1566Sol     MW 9026   1.675   2.228   6.765 -0.2002 -0.6984  0.5254
 1567Sol     OW 9027   2.355   0.932   5.261  0.1024  0.0318  0.1733
 1567Sol     HW 9028   2.417   0.998   5.293  1.3182 -1.2099  0.3706
 1567Sol     HW 9029   2.400   0.849   5.273 -1.2559 -0.8046 -0.5223
 1567Sol     MW 9030   2.364   0.931   5.265  0.2570 -0.0776 -0.4727
 1568Sol     OW 9031   0.042   0.770   1.904 -0.4276 -0.0798 -0.1159
 1568Sol     HW 9032   0.110   0.727   1.851  0.6124  0.6681  0.5871
 1568Sol     HW 9033  -0.007   0.824   1.842  0.1809  0.0581 -0.4793
 1568Sol     MW 9034   0.044   0.771   1.894  0.4361 -0.1490 -0.3205
 1569Sol     OW 9035   2.502   3.150   1.975 -0.1466 -0.6993  0.0009
 1569Sol     HW 9036   2.487   3.167   1.882  0.1354  0.6250  0.1887
 1569Sol     HW 9037   2.576   3.090   1.977  3.2203  3.2933 -0.4914
 1569Sol     MW 9038   2.507   3.146   1.967 -0.3471  0.3359  0.3495
 1570Sol     OW 9039   2.087   2.923   8.832 -0.1807  0.0290 -0.0917
 1570Sol     HW 9040   2.173   2.949   8.866  0.4896  0.2233 -1.8736
 1570Sol     HW 9041   2.089   2.827   8.833  0.0943  0.0350 -0.2574
 1570Sol     MW 9042   2.095   2.916   8.836  0.0951  0.2789  0.0040
 1571Sol     OW 9043   0.220   2.019   8.123 -0.6376  0.2109 -0.9507
 1571Sol     HW 9044   0.151   1.962   8.091 -0.8377 -1.3311  2.0781
 1571Sol     HW 9045   0.292   1.960   8.144 -0.4538  1.1740  1.2153
 1571Sol     MW 9046   0.221   2.009   8.122 -0.4550 -0.3565 -0.1156
 1572Sol     OW 9047   2.773   0.240   9.352  0.5112  0.3847  0.3421
 1572Sol     HW 9048   2.807   0.250   9.264  0.4964 -1.6332  0.0781
 1572Sol     HW 9049   2.739   0.150   9.355 -2.4022  1.4619  1.4108
 1572Sol     MW 9050   2.773   0.233   9.345 -0.5615  0.4392 -0.4333
 1573Sol     OW 9051   2.649   3.317   3.432 -0.4092 -0.1072  0.2490
 1573Sol     HW 9052   2.562   3.292   3.402 -0.0888 -0.5719 -0.3271
 1573Sol     HW 9053   2.634   3.374   3.507 -1.2460  1.6880 -1.2606
 1573Sol     MW 9054   2.640   3.320   3.436 -0.5096 -0.1495 -0.2511
 1574Sol     OW 9055   1.444   1.255   4.876  0.0116 -0.7607 -0.2305
 1574Sol     HW 9056   1.476   1.233   4.963  0.7794  0.5262 -0.1731
 1574Sol     HW 9057   1.476   1.184   4.820  1.0647 -0.6457  0.2198
 1574Sol     MW 9058   1.450   1.247   4.879 -0.6629  0.4809 -0.2169
 1575Sol     OW 9059   2.410   1.855   3.914  0.2989 -0.4968 -0.3782
 1575Sol     HW 9060   2.457   1.928   3.873  0.7116 -0.4714  0.1434
 1575Sol     HW 9061   2.440   1.778   3.867  1.2717 -0.5444  0.3082
 1575Sol     MW 9062   2.417   1.855   3.906  0.0221  0.4688  0.0369
 1576Sol     OW 9063   0.948   0.056   7.899  0.2458  0.3279 -0.2000
 1576Sol     HW 9064   0.986   0.073   7.985 -1.6935 -0.2251  0.8132
 1576Sol     HW 9065   0.905   0.139   7.876  0.3227  0.3162 -0.3818
 1576Sol     MW 9066   0.947   0.065   7.905  0.5752  0.1499 -0.5959
 1577Sol     OW 9067   1.128   3.234   3.703 -0.1315 -0.2335  0.7054
 1577Sol     HW 9068   1.189   3.165   3.681  0.9543  0.6331  0.9597
 1577Sol     HW 9069   1.143   3.302   3.637 -0.7853  0.0085  0.7950
 1577Sol     MW 9070   1.134   3.234   3.695 -0.4367 -0.3351  0.1121
 1578Sol     OW 9071   1.670   0.127   6.965 -0.2373  0.5414 -0.1126
 1578Sol     HW 9072   1.586   0.140   6.921 -0.5374 -0.1288  0.2625
 1578Sol     HW 9073   1.725   0.083   6.900 -0.3107  0.6046 -0.2173
 1578Sol     MW 9074   1.667   0.124   6.955  0.4490  0.4019 -0.1666
 1579Sol     OW 9075   1.549   0.385   5.673 -0.0785 -0.3059  0.1998
 1579Sol     HW 9076   1.564   0.356   5.583 -0.3623 -1.0505  0.3838
 1579Sol     HW 9077   1.462   0.426   5.671 -0.0810 -0.3154  0.1306
 1579Sol     MW 9078   1.542   0.386   5.665 -0.5754 -0.4585  0.6761
 1580Sol     OW 9079   1.375   3.109   5.273  0.0359  0.2896 -0.0125
 1580Sol     HW 9080   1.358   3.031   5.325  0.0745  1.0375  1.1283
 1580Sol     HW 9081   1.471   3.115   5.271  0.0279  0.4281  0.0669
 1580Sol     MW 9082   1.382   3.102   5.277 -0.3101  0.4650 -0.4377
 1581Sol     OW 9083   2.267   2.631   5.280  0.3829  0.4376 -0.6399
 1581Sol     HW 9084   2.227   2.551   5.313 -0.1802  0.8143 -0.4156
 1581Sol     HW 9085   2.352   2.635   5.325 -0.4638  1.0643  0.9404
 1581Sol     MW 9086   2.271   2.624   5.287  0.2740 -0.5567 -0.5768
 1582Sol     OW 9087   0.542   2.385   3.670  0.1815 -0.1553 -0.7689
 1582Sol     HW 9088   0.574   2.310   3.619  0.7354 -2.3688  2.6657
 1582Sol     HW 9089   0.448   2.388   3.652 -0.1508 -2.7642  0.3017
 1582Sol     MW 9090   0.537   2.378   3.663 -0.3819 -0.0293 -0.2852
 1583Sol     OW 9091   2.719   2.251   6.226  0.3105  0.4338 -0.3910
 1583Sol     HW 9092   2.646   2.246   6.164  2.2239 -3.3385 -2.5400
 1583Sol     HW 9093   2.704   2.179   6.287  0.8227  1.3010  0.7680
 1583Sol     MW 9094   2.711   2.244   6.226 -0.1788 -0.2575  0.3930
 1584Sol     OW 9095   1.754   1.168   3.566  0.6263  0.1022 -0.0628
 1584Sol     HW 9096   1.842   1.138   3.542  0.3319  0.3869 -1.5765
 1584Sol     HW 9097   1.770   1.238   3.629  1.4600 -0.3843  0.2780
 1584Sol     MW 9098   1.764   1.172   3.570  0.5918 -0.3174  0.4321
 1585Sol     OW 9099   1.602   1.979   6.273 -0.5116 -0.1114  0.0244
 1585Sol     HW 9100   1.566   1.960   6.186 -0.2988 -0.7599  0.0705
 1585Sol     HW 9101   1.539   1.942   6.334 -0.9416  0.8414  0.1647
 1585Sol     MW 9102   1.593   1.974   6.271 -0.2288 -0.0229  0.0620
 1586Sol     OW 9103   0.605   3.136   4.078  0.2540  0.2337 -0.7133
 1586Sol     HW 9104   0.683   3.106   4.124  1.0418  1.5914 -1.1267
 1586Sol     HW 9105   0.629   3.132   3.985 -0.9437 -1.4596 -0.9665
 1586Sol     MW 9106   0.614   3.133   4.073  0.8873  0.6431  0.1325
 1587Sol     OW 9107   0.064   0.527   5.943  0.4403 -0.3928 -0.1595
 1587Sol     HW 9108  -0.009   0.583   5.916 -0.0218 -1.0106 -0.2060
 1587Sol     HW 9109   0.026   0.470   6.010  1.6111  1.2294  1.9305
 1587Sol     MW 9110   0.054   0.527   5.947  0.0191  0.0778  0.3563
 1588Sol     OW 9111   0.811   2.566   9.906 -0.2426  0.0697  0.0629
 1588Sol     HW 9112   0.813   2.494   9.844 -3.2004 -0.0618  0.0613
 1588Sol     HW 9113   0.814   2.645   9.852  2.7217  0.0054  0.0531
 1588Sol     MW 9114   0.811   2.567   9.896 -0.3218 -0.6336 -0.6650
 1589Sol     OW 9115   0.748   2.353   9.729  0.2769  0.0726  0.0380
 1589Sol     HW 9116   0.837   2.319   9.731  0.6939  1.1828  0.0263
 1589Sol     HW 9117   0.694   2.276   9.709  1.5423  0.0391 -3.4962
 1589Sol     MW 9118   0.751   2.343   9.727  0.7659  0.2980 -0.2149
 1590Sol     OW 9119   0.245   1.937   9.392  0.0342 -0.0250 -0.2624
 1590Sol     HW 9120   0.328   1.934   9.440  0.2111 -1.4915 -0.6238
 1590Sol     HW 9121   0.179   1.949   9.460  0.3916 -0.8690  0.2499
 1590Sol     MW 9122   0.246   1.937   9.403  0.1522  0.3392 -0.0697
 1591Sol     OW 9123   1.925   0.840   9.871  0.2666  0.2109 -0.3434
 1591Sol     HW 9124   1.951   0.882   9.789 -2.0429  0.0286 -1.2186
 1591Sol     HW 9125   1.833   0.815   9.857 -0.4633  0.9648  2.6022
 1591Sol     MW 9126   1.919   0.842   9.863  0.5743 -0.6440 -0.3999
 1592Sol     OW 9127   1.759   1.951   5.445  0.4387 -0.4546  0.4951
 1592Sol     HW 9128   1.738   1.919   5.533  2.2461  1.3733  1.6359
 1592Sol     HW 9129   1.842   1.910   5.424  0.8520  0.4456  0.3620
 1592Sol     MW 9130   1.764   1.944   5.451 -0.5627 -0.3372 -0.5450
 1593Sol     OW 9131   1.399   2.242   5.135 -0.3279 -0.5453  0.5673
 1593Sol     HW 9132   1.468   2.251   5.200 -1.7661  0.6993  1.9592
 1593Sol     HW 9133   1.355   2.327   5.135 -1.6214 -1.1971 -0.5707
 1593Sol     MW 9134   1.401   2.250   5.140 -0.4221 -0.2418 -0.4323
 1594Sol     OW 9135   1.768   1.219   8.598 -0.1464 -0.3908 -0.1351
 1594Sol     HW 9136   1.797   1.142   8.648  0.6987 -0.4600 -0.7296
 1594Sol     HW 9137   1.808   1.208   8.512 -2.1562 -0.6298 -1.0749
 1594Sol     MW 9138   1.774   1.211   8.595 -0.3506 -0.6168  0.1381
 1595Sol     OW 9139   2.928   0.805   7.305  0.2160 -0.9924  0.8739
 1595Sol     HW 9140   2.929   0.793   7.210  1.6746  0.4906  0.6903
 1595Sol     HW 9141   2.959   0.722   7.340  1.4514 -0.9122 -0.0151
 1595Sol     MW 9142   2.931   0.796   7.299 -0.4787  0.6214  0.2825
 1596Sol     OW 9143   2.718   1.830   7.151  0.1560  0.7264 -0.4522
 1596Sol     HW 9144   2.744   1.879   7.072 -0.1173  1.8795  0.1616
 1596Sol     HW 9145   2.797   1.827   7.204  0.1260  0.6587 -0.4118
 1596Sol     MW 9146   2.727   1.835   7.149  0.2088 -0.5200 -0.1401
 1597Sol     OW 9147   1.001   1.190   8.612 -0.2297 -0.1961  0.0473
 1597Sol     HW 9148   0.920   1.238   8.627  0.0316 -0.0832  1.1747
 1597Sol     HW 9149   1.070   1.250   8.642  0.4532  0.5517 -2.7949
 1597Sol     MW 9150   1.000   1.200   8.616  0.3879  0.0977 -0.6079
 1598Sol     OW 9151   2.557   0.374   5.608  0.0871  0.2474  0.1661
 1598Sol     HW 9152   2.509   0.295   5.581  0.5314 -0.6331  1.8663
 1598Sol     HW 9153   2.645   0.362   5.572 -0.0681  0.3407 -0.2449
 1598Sol     MW 9154   2.560   0.365   5.602  0.4758  0.6334  0.5755
 1599Sol     OW 9155   1.884   1.233   4.139 -0.3694 -0.1305  0.3629
 1599Sol     HW 9156   1.848   1.181   4.211 -0.8782 -0.1339  0.1078
 1599Sol     HW 9157   1.817   1.300   4.123  0.4439  0.8520  0.9510
 1599Sol     MW 9158   1.875   1.234   4.144  0.2842  0.2071  0.4610
 1600Sol     OW 9159   2.249   0.653   7.683 -0.1909 -0.1957 -0.2078
 1600Sol     HW 9160   2.305   0.575   7.689 -0.1731 -0.1092  0.9242
 1600Sol     HW 9161   2.160   0.618   7.683 -0.2064 -0.1979  1.0863
 1600Sol     MW 9162   2.246   0.643   7.684 -0.7075 -0.1662  0.3865
 1601Sol     OW 9163   2.163   2.084   3.292  0.7284 -0.0622 -0.3468
 1601Sol     HW 9164   2.082   2.038   3.269  1.4003 -0.5332 -1.8259
 1601Sol     HW 9165   2.207   2.026   3.354  0.9657 -0.8090 -1.2202
 1601Sol     MW 9166   2.160   2.075   3.296 -0.3353  0.3254 -0.6834
 1602Sol     OW 9167   2.916   2.302   9.639 -0.0049 -0.1972  0.5330
 1602Sol     HW 9168   2.870   2.303   9.555 -0.9087  0.1388  1.0291
 1602Sol     HW 9169   3.004   2.270   9.618 -0.5922 -1.2439 -0.3468
 1602Sol     MW 9170   2.920   2.299   9.630 -0.9803  0.0362  0.1795
 1603Sol     OW 9171   0.902   3.007   7.037  0.6650 -0.2767 -0.3247
 1603Sol     HW 9172   0.836   2.941   7.059  1.4922 -0.9969  0.0244
 1603Sol     HW 9173   0.888   3.025   6.944  0.8825 -1.4529 -0.5900
 1603Sol     MW 9174   0.895   3.003   7.031 -0.2319 -0.1863  0.0739
 1604Sol     OW 9175   2.858   1.887   8.787 -0.0488 -0.1044 -0.3965
 1604Sol     HW 9176   2.837   1.976   8.760  1.8083  0.3581 -0.3387
 1604Sol     HW 9177   2.785   1.834   8.755 -2.9186  1.8924  2.4718
 1604Sol     MW 9178   2.849   1.890   8.782  0.0721 -0.0042 -0.1382
 1605Sol     OW 9179   0.935   0.019   2.627 -0.2304 -0.2145 -0.5451
 1605Sol     HW 9180   0.872   0.047   2.694  0.0526 -1.4420  0.2583
 1605Sol     HW 9181   0.906   0.063   2.547 -1.5753 -0.0453  0.0175
 1605Sol     MW 9182   0.927   0.025   2.626 -0.1415 -0.0149  0.6359
 1606Sol     OW 9183   1.615   1.651   5.281 -0.1240  0.3013  0.5095
 1606Sol     HW 9184   1.579   1.697   5.356 -0.5337  0.6061  0.1295
 1606Sol     HW 9185   1.539   1.611   5.239  0.1556 -0.2168  0.4986
 1606Sol     MW 9186   1.605   1.652   5.284 -0.0374 -0.7521 -0.1424
 1607Sol     OW 9187   2.364   2.274   2.852  0.0164  0.0010  0.1136
 1607Sol     HW 9188   2.340   2.315   2.768 -4.0096 -0.3863  0.9509
 1607Sol     HW 9189   2.387   2.184   2.829  1.5031  0.6121 -0.8603
 1607Sol     MW 9190   2.364   2.270   2.842 -0.1906  0.2548  0.7575
 1608Sol     OW 9191   3.090   0.083  10.098  0.3991  0.2122  0.4375
 1608Sol     HW 9192   3.026   0.147  10.068 -0.1820 -0.1380  0.9205
 1608Sol     HW 9193   3.066   0.002  10.053  1.0655  0.3001 -0.0876
 1608Sol     MW 9194   3.082   0.081  10.091 -0.5544  0.5316 -0.8962
 1609Sol     OW 9195   2.712   2.379   3.547  0.2505 -0.0661  0.3804
 1609Sol     HW 9196   2.711   2.469   3.517  0.9434 -0.3802 -0.6139
 1609Sol     HW 9197   2.670   2.381   3.633 -0.6333  1.0392 -0.0693
 1609Sol     MW 9198   2.708   2.387   3.552 -0.2060 -0.1763 -0.6979
 1610Sol     OW 9199   2.893   0.405   8.840  0.2322 -0.2997  0.0128
 1610Sol     HW 9200   2.873   0.441   8.753 -1.1859  0.0794  0.4834
 1610Sol     HW 9201   2.965   0.460   8.872  1.2364 -0.8812 -1.1912
 1610Sol     MW 9202   2.898   0.413   8.835 -0.1423  0.0762  0.7129
 1611Sol     OW 9203   0.896   1.439   9.689 -0.2591  0.3630 -0.0479
 1611Sol     HW 9204   0.826   1.496   9.658 -1.8512 -1.4546  0.1232
 1611Sol     HW 9205   0.900   1.368   9.624  1.5202  0.5194 -0.1334
 1611Sol     MW 9206   0.890   1.438   9.680 -0.1153 -0.3030  0.7448
 1612Sol     OW 9207   2.083   1.387   2.696  0.1660  0.3299  0.0519
 1612Sol     HW 9208   2.051   1.324   2.632  1.0024  0.3833 -0.4187
 1612Sol     HW 9209   2.037   1.364   2.777  0.0882 -0.5653 -0.2444
 1612Sol     MW 9210   2.076   1.379   2.698  0.2450 -0.1008  0.2688
 1613Sol     OW 9211   1.494   0.822  10.051 -0.1113 -0.2172 -0.1445
 1613Sol     HW 9212   1.431   0.887  10.084 -0.1596 -0.7206  0.7808
 1613Sol     HW 9213   1.440   0.747  10.027  0.0947 -0.5195  0.3242
 1613Sol     MW 9214   1.483   0.822  10.052  0.5363 -0.3088  0.2496
 1614Sol     OW 9215   2.559   3.331   6.397  0.2877 -1.0818 -0.1695
 1614Sol     HW 9216   2.558   3.239   6.370  2.3700 -1.1733  0.0134
 1614Sol     HW 9217   2.645   3.363   6.369 -0.2684  0.7025  0.1299
 1614Sol     MW 9218   2.567   3.325   6.392 -0.4098 -0.3366 -0.4806
 1615Sol     OW 9219   0.266   2.072   1.965  0.1110  0.5152 -0.8621
 1615Sol     HW 9220   0.227   2.136   1.906  2.9364  2.1513 -1.0483
 1615Sol     HW 9221   0.238   2.100   2.052 -0.6454  0.5672 -1.1177
 1615Sol     MW 9222   0.260   2.080   1.968  0.2368  0.6242 -0.5101
 1616Sol     OW 9223   1.962   2.080   6.473 -0.1273 -0.2272 -0.3335
 1616Sol     HW 9224   1.923   1.993   6.482  1.0024 -0.3265  4.6220
 1616Sol     HW 9225   1.892   2.133   6.434 -1.8380 -2.6179 -0.6308
 1616Sol     MW 9226   1.952   2.077   6.470 -0.2168 -0.3309 -0.0645
 1617Sol     OW 9227   3.089   0.828   5.328  0.7284 -0.4391  0.1114
 1617Sol     HW 9228   3.032   0.762   5.289  1.4226 -0.3752 -1.0593
 1617Sol     HW 9229   3.166   0.829   5.271  0.6121  1.5756 -0.0371
 1617Sol     MW 9230   3.091   0.822   5.319  0.1746  0.3792  0.3313
 1618Sol     OW 9231   1.604   2.328   7.721  0.2056  0.1947  0.0842
 1618Sol     HW 9232   1.669   2.270   7.681 -0.3044  0.7570 -1.5943
 1618Sol     HW 9233   1.600   2.300   7.813  1.4114 -1.1067 -0.2474
 1618Sol     MW 9234   1.609   2.320   7.726 -0.5068 -0.7881  0.3166
 1619Sol     OW 9235   2.766   1.572   9.092 -0.4811 -0.3986 -0.5945
 1619Sol     HW 9236   2.712   1.550   9.168  3.0440  0.1096  2.1774
 1619Sol     HW 9237   2.708   1.559   9.017 -3.0518 -4.4274  1.8883
 1619Sol     MW 9238   2.756   1.568   9.092 -0.1002  0.1266 -1.1836
 1620Sol     OW 9239   0.164   1.700   2.860  0.2413 -0.6457  0.1679
 1620Sol     HW 9240   0.258   1.694   2.840  0.6195 -0.2104  1.7510
 1620Sol     HW 9241   0.154   1.787   2.898 -1.1089 -0.0468 -1.5445
 1620Sol     MW 9242   0.172   1.707   2.862 -0.2542 -0.1856 -0.1406
 1621Sol     OW 9243   0.612   2.482   9.556  0.0146 -0.2337  0.5271
 1621Sol     HW 9244   0.571   2.415   9.501 -1.2950 -0.2932  1.5612
 1621Sol     HW 9245   0.667   2.432   9.617 -0.2745 -0.3092  0.7246
 1621Sol     MW 9246   0.613   2.471   9.557  0.1490 -0.3063 -0.0296
 1622Sol     OW 9247   0.264   0.408   5.431 -0.4723 -0.8190  0.3614
 1622Sol     HW 9248   0.195   0.391   5.367 -0.8241  1.6850  0.0188
 1622Sol     HW 9249   0.334   0.448   5.380 -1.1451  2.1131  1.6650
 1622Sol     MW 9250   0.264   0.410   5.421 -0.5107  0.3821 -0.1078
 1623Sol     OW 9251   0.185   1.933   3.051 -0.0701 -0.2806  0.2278
 1623Sol     HW 9252   0.255   1.876   3.083  1.3488  1.1278 -0.3300
 1623Sol     HW 9253   0.230   2.013   3.023 -1.6917 -0.0410 -1.8022
 1623Sol     MW 9254   0.196   1.935   3.051 -0.7244  0.7868 -0.0402
 1624Sol     OW 9255   1.189   2.298   7.093  0.4133 -0.4435  0.2512
 1624Sol     HW 9256   1.103   2.334   7.072  0.2524 -0.7694  0.3469
 1624Sol     HW 9257   1.251   2.353   7.044  0.2282  0.4434  0.9900
 1624Sol     MW 9258   1.187   2.306   7.087  0.0552 -0.4447 -0.1469
 1625Sol     OW 9259   0.163   2.303   7.933  0.4762 -0.1805 -0.0106
 1625Sol     HW 9260   0.123   2.227   7.891  2.4113 -1.9941  1.3816
 1625Sol     HW 9261   0.116   2.312   8.016  0.9733 -0.5116  0.3073
 1625Sol     MW 9262   0.155   2.297   7.936  0.5157  0.8491 -0.0574
 1626Sol     OW 9263   2.367   2.385   4.387 -0.3933  0.2138  0.8604
 1626Sol     HW 9264   2.350   2.301   4.344  1.0875 -1.0023  2.5589
 1626Sol     HW 9265   2.325   2.376   4.473 -2.0536  2.0434  0.2773
 1626Sol     MW 9266   2.362   2.376   4.391  0.1694 -0.2446 -0.5496
 1627Sol     OW 9267   1.277   1.617   5.696 -0.1442  0.4590 -0.0273
 1627Sol     HW 9268   1.337   1.682   5.734 -0.0328 -0.8167  2.0379
 1627Sol     HW 9269   1.316   1.532   5.720 -2.7498 -0.3937  1.3494
 1627Sol     MW 9270   1.286   1.615   5.702  0.1002 -0.1856  0.3633
 1628Sol     OW 9271   1.437   2.684   3.009 -0.2192  0.7105  0.1581
 1628Sol     HW 9272   1.347   2.712   2.994  0.1662  0.9636 -1.8607
 1628Sol     HW 9273   1.475   2.679   2.921  1.7054  0.5356  0.9807
 1628Sol     MW 9274   1.432   2.686   3.000 -0.0440  0.2707  0.0643
 1629Sol     OW 9275   0.910   0.522   5.594  1.1880  0.0483  0.8156
 1629Sol     HW 9276   0.969   0.498   5.523  1.5589 -1.7080  1.6979
 1629Sol     HW 9277   0.825   0.488   5.566  1.1521  0.1478  0.8038
 1629Sol     MW 9278   0.907   0.517   5.585  0.3135  0.4114  0.1782
 1630Sol     OW 9279   0.053   2.273   3.730 -0.2502 -0.0180  0.8595
 1630Sol     HW 9280  -0.010   2.290   3.660  0.0126  0.4504  0.7301
 1630Sol     HW 9281   0.002   2.280   3.811 -0.4071  0.1623  0.7448
 1630Sol     MW 9282   0.043   2.275   3.731 -0.4338 -0.0388  0.1283
 1631Sol     OW 9283   2.539   3.016   4.814  0.0511 -0.1656 -0.6051
 1631Sol     HW 9284   2.498   3.038   4.897 -1.9292  0.6211 -1.7620
 1631Sol     HW 9285   2.633   3.025   4.830 -0.4381  3.9784  0.4336
 1631Sol     MW 9286   2.544   3.019   4.823  0.4563 -0.2601  0.3204
 1632Sol     OW 9287   2.909   2.734   2.282 -0.4339  0.2123  0.3797
 1632Sol     HW 9288   2.965   2.754   2.208 -0.2970 -0.0092  0.4239
 1632Sol     HW 9289   2.845   2.806   2.284 -1.6695 -0.7964 -1.1619
 1632Sol     MW 9290   2.908   2.742   2.276 -0.2827  0.1822 -0.2508
 1633Sol     OW 9291   2.689   3.373   9.346 -0.0186  0.1672 -0.1455
 1633Sol     HW 9292   2.634   3.389   9.269 -0.2398 -0.0206 -0.0256
 1633Sol     HW 9293   2.700   3.278   9.348  0.6987  0.2379 -0.4388
 1633Sol     MW 9294   2.685   3.366   9.339 -0.1386  0.2462  0.4856
 1634Sol     OW 9295   0.309   1.314   4.759  0.1599 -0.1087  0.4288
 1634Sol     HW 9296   0.315   1.343   4.668 -1.6168  0.2530  0.4215
 1634Sol     HW 9297   0.217   1.291   4.771  0.5417 -0.8982  1.9131
 1634Sol     MW 9298   0.302   1.314   4.752 -0.3375  0.6378  0.2590
 1635Sol     OW 9299   0.330   3.089   4.488 -0.3489 -0.1991  0.5355
 1635Sol     HW 9300   0.422   3.064   4.502 -0.7962 -1.0141  2.1065
 1635Sol     HW 9301   0.287   3.008   4.461 -0.9818 -0.2512  1.6683
 1635Sol     MW 9302   0.335   3.080   4.487  0.8406 -0.6001  0.3463
 1636Sol     OW 9303   0.628   2.596   3.487  0.1712  0.1402 -0.0076
 1636Sol     HW 9304   0.718   2.629   3.493  0.8308 -1.5358 -0.4209
 1636Sol     HW 9305   0.612   2.555   3.572 -0.2892  0.6191  0.1426
 1636Sol     MW 9306   0.634   2.596   3.496  0.2325 -0.6691  0.0139
 1637Sol     OW 9307   2.574   2.656   7.541 -0.3332  0.0042  0.4053
 1637Sol     HW 9308   2.559   2.665   7.635 -0.8062 -0.5843  0.3842
 1637Sol     HW 9309   2.540   2.570   7.519 -0.5794  0.2988 -0.3795
 1637Sol     MW 9310   2.570   2.649   7.548  0.1650 -0.7407 -0.1734
 1638Sol     OW 9311   1.656   1.597   5.864  0.0367  0.4790  0.3045
 1638Sol     HW 9312   1.694   1.518   5.827 -0.7272  0.2411  0.0189
 1638Sol     HW 9313   1.644   1.576   5.957 -0.2198  0.2320  0.2180
 1638Sol     MW 9314   1.658   1.588   5.869  0.8317  0.9018 -0.8496
 1639Sol     OW 9315   3.015   1.665   9.670  0.2168 -0.2867 -0.3930
 1639Sol     HW 9316   3.104   1.649   9.638  0.4067  0.5791 -0.3184
 1639Sol     HW 9317   2.963   1.679   9.591  0.1978 -0.5213 -0.4245
 1639Sol     MW 9318   3.019   1.665   9.660 -0.1610  0.1354  0.2693
 1640Sol     OW 9319   0.212   0.913   9.351  0.2631  0.5164 -0.1893
 1640Sol     HW 9320   0.212   0.922   9.446 -0.2441 -1.2052 -0.0097
 1640Sol     HW 9321   0.292   0.863   9.332  1.0961  2.0399 -0.8082
 1640Sol     MW 9322   0.219   0.909   9.358  0.3426  0.2509 -0.6121
 1641Sol     OW 9323   2.455   0.213   2.834 -0.3227  0.0961 -0.3575
 1641Sol     HW 9324   2.431   0.204   2.742 -2.1938 -2.5406  0.3291
 1641Sol     HW 9325   2.377   0.248   2.876  0.3509  0.8127  0.3094
 1641Sol     MW 9326   2.446   0.215   2.829  0.2118 -0.2160 -0.2832
 1642Sol     OW 9327   2.420   0.454   7.683  0.0174  0.0461 -0.3824
 1642Sol     HW 9328   2.490   0.501   7.728  0.2181 -0.0763 -0.5650
 1642Sol     HW 9329   2.446   0.456   7.590  0.7691 -1.7028 -0.2325
 1642Sol     MW 9330   2.428   0.459   7.678  0.0811  0.2305 -0.1110
 1643Sol     OW 9331   2.475   2.025   6.229  0.2629  0.0388  0.3235
 1643Sol     HW 9332   2.566   2.016   6.259  0.4312 -0.8197 -0.4050
 1643Sol     HW 9333   2.446   1.935   6.215 -0.6749  0.3164  0.4654
 1643Sol     MW 9334   2.481   2.016   6.231  0.0986 -0.6832  0.4098
 1644Sol     OW 9335   1.030   2.059   3.254  0.3789  0.0970  0.0441
 1644Sol     HW 9336   1.035   2.125   3.324  1.6874  0.0260  0.0216
 1644Sol     HW 9337   0.969   2.097   3.191  0.5150  0.9338  0.4078
 1644Sol     MW 9338   1.025   2.069   3.255 -0.0279  0.2970  0.1408
 1645Sol     OW 9339   0.276   0.019   4.177 -0.8045 -0.3903  0.2668
 1645Sol     HW 9340   0.221  -0.047   4.218 -0.3880 -0.9848 -0.1165
 1645Sol     HW 9341   0.300  -0.019   4.092 -0.4367  0.1895  0.1026
 1645Sol     MW 9342   0.273   0.010   4.173 -0.3290  0.2461 -0.8675
 1646Sol     OW 9343   1.121   1.633   2.307 -0.0704 -0.0231 -0.0893
 1646Sol     HW 9344   1.183   1.635   2.380  0.1520 -0.3854 -0.2642
 1646Sol     HW 9345   1.171   1.663   2.232  0.6390 -2.7122 -0.7632
 1646Sol     MW 9346   1.131   1.636   2.307 -0.5886 -0.0580 -0.2311
 1647Sol     OW 9347   2.398   0.026   7.482  0.6025  0.1773  0.0417
 1647Sol     HW 9348   2.311   0.024   7.520  0.1142  0.9012 -0.9992
 1647Sol     HW 9349   2.457   0.004   7.554 -0.5417 -1.8407  0.3958
 1647Sol     MW 9350   2.396   0.024   7.491  0.1742 -0.0057 -0.4233
 1648Sol     OW 9351   1.838   3.275   5.906 -0.3832  0.0242 -0.1805
 1648Sol     HW 9352   1.840   3.183   5.931 -0.7048  0.2502  0.6778
 1648Sol     HW 9353   1.772   3.280   5.836  1.4973 -0.8426 -2.0850
 1648Sol     MW 9354   1.832   3.268   5.902 -0.8448  0.1729 -0.2449
 1649Sol     OW 9355   0.298   0.184   8.380  0.0440  0.2219  0.1244
 1649Sol     HW 9356   0.224   0.243   8.397 -1.0248 -1.1747  0.4091
 1649Sol     HW 9357   0.322   0.199   8.289 -1.0248  0.2095 -0.1576
 1649Sol     MW 9358   0.294   0.191   8.374 -0.1778 -0.6238 -0.1842
 1650Sol     OW 9359   1.819   1.152   9.090  0.2200 -0.3072 -0.0899
 1650Sol     HW 9360   1.807   1.240   9.125 -2.1094 -0.5438 -0.1871
 1650Sol     HW 9361   1.819   1.095   9.167 -1.4864 -0.5001 -0.2078
 1650Sol     MW 9362   1.818   1.154   9.100 -0.0942  0.5707 -0.3591
 1651Sol     OW 9363   2.589   2.363   3.796 -0.3963 -0.2694 -0.3787
 1651Sol     HW 9364   2.659   2.340   3.858 -0.0404 -0.3594 -0.8125
 1651Sol     HW 9365   2.510   2.364   3.849  0.1842  1.5913  0.5152
 1651Sol     MW 9366   2.588   2.361   3.807  0.1485  0.0833 -0.5017
 1652Sol     OW 9367   2.340   2.004   5.533 -0.2736 -0.4709 -0.1605
 1652Sol     HW 9368   2.284   2.062   5.583  1.0461  0.1124  0.6399
 1652Sol     HW 9369   2.420   2.053   5.519 -0.1659 -1.0781 -1.8157
 1652Sol     MW 9370   2.342   2.013   5.536  0.2524  0.0339 -0.1534
 1653Sol     OW 9371   1.687   1.135   2.830  0.8552 -0.2096  1.0309
 1653Sol     HW 9372   1.683   1.163   2.738  0.5845 -2.0287  0.4642
 1653Sol     HW 9373   1.618   1.186   2.873 -0.0727 -0.4767 -0.0958
 1653Sol     MW 9374   1.681   1.142   2.825  0.4200  0.6335  0.2577
 1654Sol     OW 9375   2.496   3.046   8.632  0.0581  0.0872  0.5701
 1654Sol     HW 9376   2.526   2.956   8.649  0.1948  0.1089  0.4537
 1654Sol     HW 9377   2.572   3.100   8.653  1.6967 -0.1875 -4.0250
 1654Sol     MW 9378   2.506   3.043   8.635  0.8626  0.1586  0.7401
 1655Sol     OW 9379   3.000   2.290   1.822 -0.4779  0.2966  0.0583
 1655Sol     HW 9380   3.001   2.367   1.879 -1.2150  0.4664 -0.1472
 1655Sol     HW 9381   3.092   2.272   1.804 -0.2343  0.2083  1.3361
 1655Sol     MW 9382   3.008   2.295   1.826 -0.2560  0.2488 -0.4533
 1656Sol     OW 9383   2.967   3.004   4.706 -0.3530 -0.3471 -0.3127
 1656Sol     HW 9384   2.904   2.983   4.637 -0.7444 -2.4305  0.6450
 1656Sol     HW 9385   3.026   3.069   4.667 -0.6299 -1.4356 -2.5611
 1656Sol     MW 9386   2.967   3.008   4.697 -0.4557  0.6440  0.2038
 1657Sol     OW 9387   2.722   3.068   3.509  0.2497  0.9379  0.0683
 1657Sol     HW 9388   2.636   3.025   3.506  0.1645  1.0579  0.7065
 1657Sol     HW 9389   2.705   3.159   3.485  0.2018  0.9461  0.1317
 1657Sol     MW 9390   2.713   3.072   3.507  0.1459 -0.2464 -0.3352
 1658Sol     OW 9391   2.835   2.908   9.518  0.4571  0.3322  0.0187
 1658Sol     HW 9392   2.898   2.854   9.470 -1.7365 -0.5833 -1.9443
 1658Sol     HW 9393   2.783   2.845   9.568 -0.1554  0.8877  0.0940
 1658Sol     MW 9394   2.836   2.897   9.519 -0.3099 -0.3879 -0.0368
 1659Sol     OW 9395   0.059   2.554   2.606 -0.1310  0.4697  0.4315
 1659Sol     HW 9396  -0.012   2.504   2.565 -0.3520  0.8196  0.3771
 1659Sol     HW 9397   0.061   2.637   2.558  1.2313 -0.0748 -0.4664
 1659Sol     MW 9398   0.053   2.557   2.598 -0.0725 -0.4416  0.0929
 1660Sol     OW 9399   0.911   0.850   6.208  0.1812  0.6667 -0.5257
 1660Sol     HW 9400   0.927   0.944   6.221  1.6830  0.7836 -2.9738
 1660Sol     HW 9401   0.819   0.845   6.182  0.9043  1.8401 -3.5350
 1660Sol     MW 9402   0.905   0.858   6.207  0.2003  0.6481 -0.1522
 1661Sol     OW 9403   1.001   0.312   7.365 -0.5781 -0.5390  0.1597
 1661Sol     HW 9404   0.982   0.234   7.312 -0.6251  0.8957 -1.9716
 1661Sol     HW 9405   0.937   0.377   7.335  0.0872  0.6346  1.2599
 1661Sol     MW 9406   0.993   0.311   7.357 -0.6151 -1.0473  0.0667
 1662Sol     OW 9407   0.886   1.223   9.500  0.1659 -0.2079  0.0411
 1662Sol     HW 9408   0.921   1.134   9.504 -0.7375 -0.6126 -0.6966
 1662Sol     HW 9409   0.930   1.263   9.425  1.3764  0.3357  1.0282
 1662Sol     MW 9410   0.893   1.219   9.494  0.5642  0.0702 -0.1597
 1663Sol     OW 9411   2.835   0.705   8.612 -0.5703 -0.4490  0.4650
 1663Sol     HW 9412   2.787   0.745   8.540 -0.6928 -2.3211 -0.5095
 1663Sol     HW 9413   2.846   0.614   8.587  1.4901 -0.5898  1.7311
 1663Sol     MW 9414   2.832   0.701   8.604  0.3721 -0.5107  0.5586
 1664Sol     OW 9415   1.836   1.884   3.492 -0.0246 -0.1719 -0.9632
 1664Sol     HW 9416   1.823   1.955   3.556  2.3815 -0.6059  0.0551
 1664Sol     HW 9417   1.840   1.929   3.408  1.5745  0.9540 -0.3148
 1664Sol     MW 9418   1.835   1.895   3.491 -0.2602  0.2872 -0.2941
 1665Sol     OW 9419   2.108   1.255   8.461 -0.9381  0.3307  0.0303
 1665Sol     HW 9420   2.081   1.164   8.471 -0.9244  0.3694  0.4019
 1665Sol     HW 9421   2.148   1.278   8.544  0.1901  0.2976 -0.4988
 1665Sol     MW 9422   2.109   1.249   8.469  0.4847 -0.6409 -0.2582
 1666Sol     OW 9423   2.418   3.141   9.926 -0.4072 -0.0401 -0.7398
 1666Sol     HW 9424   2.473   3.067   9.897 -1.1541 -1.9428  2.4196
 1666Sol     HW 9425   2.344   3.142   9.865 -0.0371 -1.4653 -1.2290
 1666Sol     MW 9426   2.417   3.134   9.918 -0.2238 -0.3065 -0.2047
 1667Sol     OW 9427   2.673   2.408   7.873  0.3926 -0.3634 -0.1667
 1667Sol     HW 9428   2.584   2.414   7.839  0.3094  1.7360  0.3157
 1667Sol     HW 9429   2.661   2.393   7.967  0.5534 -0.4550 -0.1616
 1667Sol     MW 9430   2.664   2.407   7.879  0.0949 -0.5151  0.2154
 1668Sol     OW 9431   2.055   2.550   9.534  0.4365 -0.3851  0.5323
 1668Sol     HW 9432   2.015   2.637   9.529 -0.8859 -0.9908  0.4856
 1668Sol     HW 9433   2.086   2.533   9.445 -1.0376 -0.7741  0.0864
 1668Sol     MW 9434   2.055   2.556   9.526 -0.2075 -0.2225 -0.2737
 1669Sol     OW 9435   0.654   1.834   4.742  0.6272 -0.6300  0.9320
 1669Sol     HW 9436   0.738   1.789   4.749  1.1912  0.3176  0.2925
 1669Sol     HW 9437   0.637   1.837   4.648  0.2030 -0.2127  1.0226
 1669Sol     MW 9438   0.660   1.830   4.734 -0.7729 -0.3638 -0.0877
 1670Sol     OW 9439   2.462   2.314   9.712  0.5606 -0.2132 -0.2550
 1670Sol     HW 9440   2.405   2.390   9.703 -0.2248 -0.8316 -0.5328
 1670Sol     HW 9441   2.543   2.349   9.749  0.2100  0.7585 -0.3985
 1670Sol     MW 9442   2.465   2.324   9.714 -0.2145  0.4645  0.2650
 1671Sol     OW 9443   2.814   0.873   9.492  0.2740  0.1504  0.6413
 1671Sol     HW 9444   2.835   0.840   9.579  0.3744 -0.2280  0.4759
 1671Sol     HW 9445   2.885   0.840   9.436  0.4279  0.7282  0.4877
 1671Sol     MW 9446   2.822   0.867   9.495  0.0894 -0.6078 -0.0293
 1672Sol     OW 9447   0.414   0.106   9.374 -0.2542 -0.1959 -0.2837
 1672Sol     HW 9448   0.412   0.191   9.418  0.3979  0.0744 -0.7750
 1672Sol     HW 9449   0.436   0.043   9.444 -3.0475 -0.2916  0.5811
 1672Sol     MW 9450   0.416   0.108   9.385 -0.5098 -0.1068 -0.1496
 1673Sol     OW 9451   0.505   0.557   5.345 -0.1992 -0.6540 -0.3917
 1673Sol     HW 9452   0.521   0.532   5.254  0.1171  1.0929 -0.8402
 1673Sol     HW 9453   0.473   0.647   5.340 -0.2522 -0.5660  1.2162
 1673Sol     MW 9454   0.504   0.563   5.336  0.6183  0.4443  0.7001
 1674Sol     OW 9455   1.806   1.701   7.828 -0.7327 -0.2809 -0.1594
 1674Sol     HW 9456   1.712   1.688   7.845 -1.0152  0.7293 -0.8590
 1674Sol     HW 9457   1.843   1.725   7.913 -1.4587  1.1514 -0.2204
 1674Sol     MW 9458   1.801   1.702   7.837 -0.4512 -0.2171  0.1442
 1675Sol     OW 9459   0.439   0.421   3.571 -0.1578  0.1685  0.3778
 1675Sol     HW 9460   0.510   0.363   3.542 -1.4239 -0.5366 -1.3714
 1675Sol     HW 9461   0.476   0.468   3.646  1.5691 -1.4579  0.5894
 1675Sol     MW 9462   0.449   0.420   3.576 -0.1379 -0.5802 -0.4922
 1676Sol     OW 9463   0.615   0.711   8.922 -0.4634 -0.1229  0.2123
 1676Sol     HW 9464   0.570   0.794   8.908 -0.2869 -0.0181  0.2574
 1676Sol     HW 9465   0.699   0.736   8.960  0.4503 -0.1661 -1.7081
 1676Sol     MW 9466   0.619   0.721   8.924  0.5411  0.2569 -0.6610
 1677Sol     OW 9467   2.407   2.168   3.601  0.3599 -0.7822 -0.2358
 1677Sol     HW 9468   2.461   2.129   3.670  1.8456  0.6185 -0.5778
 1677Sol     HW 9469   2.453   2.148   3.520 -0.5867 -1.1181 -0.6879
 1677Sol     MW 9470   2.416   2.163   3.600  0.2663  0.4852  0.3801
 1678Sol     OW 9471   1.349   1.058   9.211  0.0802 -0.2563  0.1227
 1678Sol     HW 9472   1.388   0.976   9.181 -2.5284 -1.8019  0.7927
 1678Sol     HW 9473   1.391   1.076   9.295  1.9675  0.1098 -0.8644
 1678Sol     MW 9474   1.356   1.053   9.216 -0.5472 -0.1008  0.0700
 1679Sol     OW 9475   1.589   3.299   6.106  0.7283 -0.2201 -0.1805
 1679Sol     HW 9476   1.640   3.251   6.171 -0.5723 -2.4103 -0.7197
 1679Sol     HW 9477   1.641   3.295   6.026  0.3464 -1.3057 -0.3847
 1679Sol     MW 9478   1.598   3.295   6.105  0.7304  0.0157  0.5054
 1680Sol     OW 9479   2.488   0.654   8.537  0.2278 -0.1081  0.6515
 1680Sol     HW 9480   2.483   0.568   8.496  0.2656  0.3089 -0.2394
 1680Sol     HW 9481   2.438   0.645   8.618 -0.7590 -0.6350 -0.0064
 1680Sol     MW 9482   2.483   0.645   8.541 -0.0383 -0.0097  0.3265
 1681Sol     OW 9483   2.547   3.277   8.352 -0.5841  0.2740  0.2065
 1681Sol     HW 9484   2.605   3.201   8.355 -0.6255  0.1036 -2.1373
 1681Sol     HW 9485   2.606   3.352   8.345 -0.5871  0.2962  0.4234
 1681Sol     MW 9486   2.557   3.277   8.352  0.3472 -0.0216 -0.2558
 1682Sol     OW 9487   1.371   2.872   4.389 -0.2762 -1.3292  0.2408
 1682Sol     HW 9488   1.348   2.780   4.395  1.4411 -1.7685  0.5139
 1682Sol     HW 9489   1.405   2.894   4.476  0.8843 -0.9053 -0.2992
 1682Sol     MW 9490   1.372   2.866   4.397 -0.1736 -0.3630 -0.1325
 1683Sol     OW 9491   2.949   2.806   5.985 -0.4870 -0.3611 -0.0657
 1683Sol     HW 9492   3.009   2.870   6.023  1.4424 -1.3249 -1.3745
 1683Sol     HW 9493   2.865   2.824   6.026  0.2171  2.3969  0.2668
 1683Sol     MW 9494   2.947   2.813   5.992 -0.3514  0.2614 -0.0431
 1684Sol     OW 9495   3.023   1.883   6.745  0.6495 -0.5125 -0.2789
 1684Sol     HW 9496   2.933   1.875   6.777  0.2875  0.6904 -1.0004
 1684Sol     HW 9497   3.050   1.792   6.729 -0.0577 -0.9565  0.9489
 1684Sol     MW 9498   3.018   1.874   6.747  0.2313  0.2274  1.2310
 1685Sol     OW 9499   1.886   2.864   2.988 -0.1419  0.7296  0.2441
 1685Sol     HW 9500   1.898   2.785   2.935 -1.0310  0.4999  0.3754
 1685Sol     HW 9501   1.900   2.937   2.927  1.1295  0.4821  0.2245
 1685Sol     MW 9502   1.888   2.864   2.978 -0.1453  0.3890  0.4778
 1686Sol     OW 9503   0.830   1.334   3.985  0.6620 -0.6226 -0.1073
 1686Sol     HW 9504   0.769   1.260   3.991 -0.1810  0.0795  0.1476
 1686Sol     HW 9505   0.802   1.381   3.906  0.5977 -0.0538  0.2548
 1686Sol     MW 9506   0.822   1.331   3.978 -0.1433 -0.3776  0.1815
 1687Sol     OW 9507   0.229   2.656   6.485  0.3273  0.0003 -0.1013
 1687Sol     HW 9508   0.227   2.742   6.527 -1.0719 -0.0058 -0.1251
 1687Sol     HW 9509   0.184   2.669   6.401 -0.5413 -0.9025  0.2095
 1687Sol     MW 9510   0.225   2.665   6.481  0.4100  0.2240 -0.1300
 1688Sol     OW 9511   1.571   0.338   2.551 -0.0305  0.3169  0.0018
 1688Sol     HW 9512   1.665   0.321   2.551  0.3726  2.1801 -2.7718
 1688Sol     HW 9513   1.534   0.265   2.501  0.0334  0.0641  0.3197
 1688Sol     MW 9514   1.576   0.330   2.547  0.2792  0.0911  0.3549
 1689Sol     OW 9515   2.923   3.020   3.697 -0.1595 -0.2149  0.8510
 1689Sol     HW 9516   2.931   2.925   3.697 -0.7410 -0.3041 -1.6943
 1689Sol     HW 9517   2.861   3.039   3.626 -0.0202  2.0705  1.2922
 1689Sol     MW 9518   2.918   3.014   3.691 -0.1740  0.0661  0.5205
 1690Sol     OW 9519   0.348   0.085   6.960 -0.3098  0.5621 -0.1035
 1690Sol     HW 9520   0.408   0.039   6.901  0.6935  0.4509  0.9775
 1690Sol     HW 9521   0.405   0.117   7.031 -1.6309 -0.2007  1.3251
 1690Sol     MW 9522   0.359   0.084   6.961 -0.0242 -0.1700 -0.3783
 1691Sol     OW 9523   0.792   1.741   7.352 -0.1282 -0.2206  0.2114
 1691Sol     HW 9524   0.745   1.824   7.359  5.0182  2.8761  1.2858
 1691Sol     HW 9525   0.852   1.754   7.278  1.4359 -2.6092  0.9881
 1691Sol     MW 9526   0.793   1.750   7.346  0.2509 -0.2793 -0.0269
 1692Sol     OW 9527   1.057   2.959   3.948  0.1917 -0.5653  0.2415
 1692Sol     HW 9528   1.097   2.911   4.020  2.3321  1.1027  0.2503
 1692Sol     HW 9529   1.100   2.925   3.870  0.1119 -0.2429  0.0549
 1692Sol     MW 9530   1.065   2.952   3.948  0.2208 -0.9613  0.2369
 1693Sol     OW 9531   3.101   0.308   2.479  0.3935  0.1889 -0.4495
 1693Sol     HW 9532   3.162   0.308   2.553  0.5231  1.0958 -0.5546
 1693Sol     HW 9533   3.091   0.215   2.456  2.7382  0.1164 -1.2571
 1693Sol     MW 9534   3.105   0.299   2.483 -0.1205 -0.0511 -0.8410
 1694Sol     OW 9535   0.782   1.398   3.722  0.6470  0.0121 -0.2073
 1694Sol     HW 9536   0.814   1.443   3.644 -0.5523  1.8775  0.3595
 1694Sol     HW 9537   0.810   1.307   3.710  0.4084  0.2544 -2.8306
 1694Sol     MW 9538   0.788   1.394   3.714  0.0145  0.4247  0.0475
 1695Sol     OW 9539   2.725   2.539   4.114  0.0059  0.5126 -0.3472
 1695Sol     HW 9540   2.734   2.447   4.090 -0.0301  0.1339  1.0335
 1695Sol     HW 9541   2.631   2.556   4.107 -0.0171  0.3793 -0.3585
 1695Sol     MW 9542   2.717   2.533   4.111 -0.1025  0.7488  0.2496
 1696Sol     OW 9543   1.440   2.204   5.519 -0.5598 -0.0746 -0.1097
 1696Sol     HW 9544   1.473   2.148   5.589 -1.1301  0.7848  0.8544
 1696Sol     HW 9545   1.508   2.202   5.452  0.3136 -0.3313  0.7809
 1696Sol     MW 9546   1.449   2.199   5.519 -0.0808 -0.3092 -0.6572
 1697Sol     OW 9547   1.139   0.726  10.277 -0.0353  0.0919 -0.0434
 1697Sol     HW 9548   1.190   0.800  10.244  0.9597 -0.4605  0.2338
 1697Sol     HW 9549   1.093   0.760  10.354 -0.5730  0.7585 -0.6497
 1697Sol     MW 9550   1.139   0.735  10.281  0.0690 -0.2520  0.0582
 1698Sol     OW 9551   3.103   1.165   3.418  0.7019  0.4141  0.2213
 1698Sol     HW 9552   3.053   1.085   3.398  1.6020 -0.1308  0.1422
 1698Sol     HW 9553   3.072   1.191   3.505  0.7938 -0.3232  0.4783
 1698Sol     MW 9554   3.096   1.160   3.424 -0.2474  0.0107  0.5769
 1699Sol     OW 9555   1.882   0.498   7.398  0.5017 -0.0647 -0.2373
 1699Sol     HW 9556   1.924   0.564   7.343 -0.5687  0.2234 -0.7329
 1699Sol     HW 9557   1.808   0.467   7.346  2.0094 -2.9761 -0.7862
 1699Sol     MW 9558   1.879   0.501   7.388 -0.2638 -0.5518 -0.1903
 1700Sol     OW 9559   2.583   0.190   3.229 -0.4020  0.7856 -0.5004
 1700Sol     HW 9560   2.674   0.213   3.248 -0.7250  1.4548  0.2819
 1700Sol     HW 9561   2.545   0.271   3.195 -0.9400  0.7742  0.0570
 1700Sol     MW 9562   2.587   0.200   3.228 -0.5259  0.1686  0.1920
 1701Sol     OW 9563   0.551   1.895   2.827  0.0409 -0.2437  0.4219
 1701Sol     HW 9564   0.622   1.936   2.876  0.2702 -0.7651  0.5287
 1701Sol     HW 9565   0.592   1.864   2.746  0.3846 -2.3899  1.3948
 1701Sol     MW 9566   0.561   1.896   2.824  0.7760  0.2721  0.6183
 1702Sol     OW 9567   0.570   0.458   5.110 -0.0746 -0.0973 -0.0984
 1702Sol     HW 9568   0.648   0.412   5.080  0.3482 -0.0503  0.9185
 1702Sol     HW 9569   0.575   0.544   5.069  1.0638  0.3550  0.9881
 1702Sol     MW 9570   0.577   0.461   5.103  0.0257  0.7256  0.5639
 1703Sol     OW 9571   3.060   1.135   6.070 -0.3415  0.4141 -0.0140
 1703Sol     HW 9572   3.067   1.150   6.164 -0.4897  1.7457 -0.2114
 1703Sol     HW 9573   2.969   1.110   6.056 -0.5000  0.9341  0.0972
 1703Sol     MW 9574   3.052   1.134   6.077  0.3790 -0.2244  0.0699
 1704Sol     OW 9575   1.432   2.149   8.677  0.4273 -0.4106 -0.2155
 1704Sol     HW 9576   1.501   2.099   8.720  1.3923 -0.0435 -1.3125
 1704Sol     HW 9577   1.465   2.239   8.675 -0.0253 -0.2549 -0.8507
 1704Sol     MW 9578   1.441   2.153   8.680 -0.3939 -0.0295  0.5847
 1705Sol     OW 9579   0.735   1.487   9.100  0.4135  0.4748  0.1333
 1705Sol     HW 9580   0.741   1.417   9.034  0.5037 -0.3810  1.0506
 1705Sol     HW 9581   0.808   1.545   9.080 -0.7765  1.3558 -1.8381
 1705Sol     MW 9582   0.742   1.486   9.092 -0.0253  0.1570  0.1920
 1706Sol     OW 9583   0.334   2.210   8.354 -0.1622 -0.2613  0.3057
 1706Sol     HW 9584   0.281   2.234   8.279 -0.4727  1.1669  0.9636
 1706Sol     HW 9585   0.415   2.174   8.317 -0.2380  0.5994 -0.7039
 1706Sol     MW 9586   0.337   2.209   8.344 -0.4796  0.4806 -0.1782
 1707Sol     OW 9587   0.431   3.357   6.527  0.0134  0.6268 -0.1106
 1707Sol     HW 9588   0.431   3.434   6.470  0.3621  0.4118 -0.3974
 1707Sol     HW 9589   0.343   3.319   6.516  0.5052 -0.1359 -1.4768
 1707Sol     MW 9590   0.423   3.360   6.521  0.4564 -0.8789  0.9733
 1708Sol     OW 9591   0.871   0.535   2.074  0.4142  0.1759 -0.6475
 1708Sol     HW 9592   0.962   0.508   2.059  0.2062  0.1797 -2.0487
 1708Sol     HW 9593   0.874   0.631   2.074  0.7016  0.1877  1.3394
 1708Sol     MW 9594   0.879   0.541   2.072  0.0101 -0.1579 -0.1547
 1709Sol     OW 9595   3.012   1.419   9.367 -0.1595 -0.0694 -0.2331
 1709Sol     HW 9596   3.038   1.357   9.435  0.0318  1.1138  0.8069
 1709Sol     HW 9597   2.985   1.497   9.415 -1.5689  0.2243 -1.4668
 1709Sol     MW 9598   3.012   1.421   9.377 -0.2800  0.4397 -0.7026
 1710Sol     OW 9599   2.140   1.636   4.044 -0.6285  0.6058  0.5383
 1710Sol     HW 9600   2.120   1.667   3.956 -1.2830  0.4532  0.6278
 1710Sol     HW 9601   2.168   1.545   4.032 -1.7627  0.2455  0.5949
 1710Sol     MW 9602   2.141   1.631   4.035  0.2894 -0.3959 -0.1806
 1711Sol     OW 9603   0.659   2.657   7.485  0.1740  0.2817  0.2694
 1711Sol     HW 9604   0.661   2.618   7.398  1.8693 -1.6326  1.1434
 1711Sol     HW 9605   0.728   2.613   7.533 -0.7765  1.2821  2.6242
 1711Sol     MW 9606   0.665   2.650   7.481 -1.0079 -1.1220  0.4010
 1712Sol     OW 9607   2.213   3.127   3.562  0.1455  0.2800 -0.2000
 1712Sol     HW 9608   2.246   3.052   3.611  0.7837  0.9210  0.3676
 1712Sol     HW 9609   2.209   3.097   3.472  1.0911 -0.2137 -0.0824
 1712Sol     MW 9610   2.215   3.118   3.558 -0.1320 -0.1133  0.2788
 1713Sol     OW 9611   1.641   2.927   5.045  0.6682  0.5208 -0.0117
 1713Sol     HW 9612   1.669   2.891   4.961 -1.1240  0.9850 -0.8128
 1713Sol     HW 9613   1.618   2.850   5.097 -1.8449  0.4087 -1.2521
 1713Sol     MW 9614   1.642   2.917   5.042 -0.1119  0.0315  0.6570
 1714Sol     OW 9615   1.235   1.941   6.325  0.1672  0.2026 -0.1832
 1714Sol     HW 9616   1.269   2.030   6.332  1.6240 -0.3571  0.1394
 1714Sol     HW 9617   1.298   1.888   6.375  0.0487 -1.1811 -1.4757
 1714Sol     MW 9618   1.244   1.944   6.330  0.2434  0.3043 -0.0268
 1715Sol     OW 9619   2.327   0.795   2.855 -0.1940 -0.2976  0.1505
 1715Sol     HW 9620   2.349   0.710   2.816 -0.0129 -0.7764  1.2873
 1715Sol     HW 9621   2.234   0.808   2.835 -0.0715 -0.4788 -0.5415
 1715Sol     MW 9622   2.321   0.789   2.850  0.2786  0.1989  0.5021
 1716Sol     OW 9623   2.034   2.814   2.648  0.1070  0.8316  0.0315
 1716Sol     HW 9624   2.073   2.764   2.576 -1.1480  0.1736 -0.2108
 1716Sol     HW 9625   1.950   2.844   2.614 -1.2870 -0.9612  1.7791
 1716Sol     MW 9626   2.030   2.812   2.639 -0.1325  0.0460 -0.5581
 1717Sol     OW 9627   3.019   3.079   7.596 -0.0710  0.1253 -0.2054
 1717Sol     HW 9628   2.932   3.116   7.612  0.7696  2.4793 -0.8499
 1717Sol     HW 9629   3.076   3.155   7.587  1.9872 -1.3834 -0.2255
 1717Sol     MW 9630   3.016   3.089   7.596  0.7106 -0.3208  0.8626
 1718Sol     OW 9631   1.668   1.086   2.157 -0.6752 -0.4511  0.3468
 1718Sol     HW 9632   1.643   1.067   2.248 -1.7041 -1.9062 -0.2308
 1718Sol     HW 9633   1.761   1.064   2.152 -0.5729 -0.2093  1.0749
 1718Sol     MW 9634   1.674   1.083   2.165  0.4294  0.5966  0.0400
 1719Sol     OW 9635   0.497   0.876   3.320 -0.3638 -0.5815 -0.3459
 1719Sol     HW 9636   0.576   0.828   3.344 -0.2858  0.1914  1.0122
 1719Sol     HW 9637   0.529   0.959   3.286 -0.5613 -0.7260 -0.8885
 1719Sol     MW 9638   0.507   0.879   3.319  0.6470 -0.3788 -0.3707
 1720Sol     OW 9639   2.677   0.586   4.782 -0.1754  0.0164 -0.4842
 1720Sol     HW 9640   2.756   0.560   4.733 -0.5719  1.2221 -1.8197
 1720Sol     HW 9641   2.692   0.678   4.804 -0.6209 -0.1334  0.4674
 1720Sol     MW 9642   2.686   0.592   4.779  0.1343 -0.5182 -0.1806
 1721Sol     OW 9643   1.801   3.011   9.274  0.6897 -0.2285  0.4468
 1721Sol     HW 9644   1.804   2.963   9.357  0.8783 -1.4861 -0.2663
 1721Sol     HW 9645   1.857   3.087   9.288  0.5325 -0.3156  1.5468
 1721Sol     MW 9646   1.807   3.013   9.283 -0.2998 -0.0557 -0.2506
 1722Sol     OW 9647   2.736   0.474   7.331 -0.0122  0.2207 -0.2251
 1722Sol     HW 9648   2.818   0.508   7.368 -0.5319  0.9079  0.3141
 1722Sol     HW 9649   2.748   0.380   7.328  2.0363  0.5104 -3.0988
 1722Sol     MW 9650   2.744   0.469   7.334  0.0696 -0.4089  0.1729
 1723Sol     OW 9651   2.781   1.984   9.534 -0.0992  0.0953  0.3402
 1723Sol     HW 9652   2.875   1.973   9.516 -0.4203  0.7343 -1.8451
 1723Sol     HW 9653   2.740   1.906   9.498 -0.2627 -0.9285  2.6926
 1723Sol     MW 9654   2.786   1.976   9.529  0.2917  0.1910  0.1561
 1724Sol     OW 9655   2.976   0.972   4.967  0.8628 -0.2893 -0.2291
 1724Sol     HW 9656   3.060   0.989   4.923  2.0020  1.0516  2.3434
 1724Sol     HW 9657   2.915   1.033   4.926  1.4067 -0.4239 -1.2807
 1724Sol     MW 9658   2.978   0.979   4.959  0.0185  0.1015  0.2802
 1725Sol     OW 9659   2.157   2.393   9.885  0.1013  0.1286  0.1511
 1725Sol     HW 9660   2.195   2.471   9.843 -0.9117  0.6605  0.2206
 1725Sol     HW 9661   2.067   2.418   9.906  0.0877 -0.7061  1.1291
 1725Sol     MW 9662   2.153   2.402   9.883  0.5567 -0.0289  0.1122
 1726Sol     OW 9663   0.351   0.235   6.080  0.0107  0.3466 -0.1662
 1726Sol     HW 9664   0.326   0.320   6.118  0.1608 -0.1150  0.9946
 1726Sol     HW 9665   0.435   0.252   6.037  0.2304  0.6990  0.3905
 1726Sol     MW 9666   0.356   0.245   6.080  0.1492 -0.6548  0.0376
 1727Sol     OW 9667   2.420   3.159   5.931  0.7191 -0.9128  0.3501
 1727Sol     HW 9668   2.394   3.163   6.023 -0.2808 -0.1064  0.0472
 1727Sol     HW 9669   2.346   3.118   5.886  1.0287 -0.9266 -0.1603
 1727Sol     MW 9670   2.411   3.156   5.935  0.6563 -0.4092 -0.8464
 1728Sol     OW 9671   2.723   1.950   9.828 -0.3732 -0.1790 -0.0090
 1728Sol     HW 9672   2.741   1.960   9.735 -0.0994 -4.0089 -0.4658
 1728Sol     HW 9673   2.657   1.881   9.833 -0.7713  0.3314  2.5940
 1728Sol     MW 9674   2.719   1.945   9.820 -0.3871  0.0270  0.1585
 1729Sol     OW 9675   3.021   2.389   4.851  0.1316  0.5760 -0.2164
 1729Sol     HW 9676   3.057   2.337   4.923  2.5914  0.8371 -1.2096
 1729Sol     HW 9677   3.028   2.480   4.881 -0.1859  0.5922 -0.1954
 1729Sol     MW 9678   3.025   2.392   4.860  0.5689 -0.0103 -0.0395
 1730Sol     OW 9679   1.018   0.669   3.024  0.0721 -0.1772 -0.4018
 1730Sol     HW 9680   1.017   0.763   3.008 -0.6436 -0.2621 -0.8787
 1730Sol     HW 9681   0.954   0.633   2.962  0.4198 -0.9865 -0.3017
 1730Sol     MW 9682   1.012   0.674   3.017  0.1470  0.4881  0.7233
 1731Sol     OW 9683   0.907   2.388   9.141 -0.0767  0.0370 -0.0739
 1731Sol     HW 9684   0.935   2.463   9.194  2.7557 -1.3117  0.4496
 1731Sol     HW 9685   0.907   2.314   9.202 -1.8160 -0.6185 -0.8345
 1731Sol     MW 9686   0.910   2.388   9.151  1.1205 -0.1326  0.1917
 1732Sol     OW 9687   2.155   2.444   2.368  0.0403  0.2575  0.3741
 1732Sol     HW 9688   2.066   2.418   2.345 -0.0073  2.2951 -1.9556
 1732Sol     HW 9689   2.211   2.389   2.313  0.1713  0.4017  0.3640
 1732Sol     MW 9690   2.152   2.437   2.361 -0.0619  0.4171 -0.4621
 1733Sol     OW 9691   0.653   2.112   4.950 -0.4677  0.7774  0.4620
 1733Sol     HW 9692   0.598   2.037   4.928 -2.0309  1.6543  1.3248
 1733Sol     HW 9693   0.635   2.129   5.043  1.2921  1.0616  0.7763
 1733Sol     MW 9694   0.647   2.106   4.957 -0.0457 -0.5348 -0.4930
 1734Sol     OW 9695   0.872   1.383   8.197  0.2929 -0.0442 -0.7042
 1734Sol     HW 9696   0.919   1.306   8.231  1.0692  1.2445  1.2299
 1734Sol     HW 9697   0.819   1.413   8.271  0.0206  1.2969 -1.4263
 1734Sol     MW 9698   0.871   1.379   8.207 -0.0220  0.0735 -0.2245
 1735Sol     OW 9699   1.389   0.065   1.756 -0.0490 -0.3918 -0.0591
 1735Sol     HW 9700   1.383   0.142   1.813  2.0501 -0.2823  0.0416
 1735Sol     HW 9701   1.315   0.075   1.696 -0.0106  1.5457  0.1566
 1735Sol     MW 9702   1.382   0.073   1.756  0.2310 -0.4046  1.0343
 1736Sol     OW 9703   1.483   2.938   6.762 -0.8788  0.6931 -0.1427
 1736Sol     HW 9704   1.551   2.877   6.788 -2.3202 -0.8187  0.1174
 1736Sol     HW 9705   1.431   2.891   6.698 -1.6350  1.8736 -0.4216
 1736Sol     MW 9706   1.485   2.929   6.759 -0.2719  0.5527 -0.0446
 1737Sol     OW 9707   1.104   2.043   5.341  0.4468 -0.2008  0.0284
 1737Sol     HW 9708   1.054   2.109   5.291  0.7105  0.6540  0.8803
 1737Sol     HW 9709   1.106   2.078   5.430  1.0647 -1.1059  0.3667
 1737Sol     MW 9710   1.099   2.052   5.344 -0.3371  0.0329 -0.1827
 1738Sol     OW 9711   0.035   3.047   6.986 -0.6368 -0.3191  0.0045
 1738Sol     HW 9712   0.012   3.088   7.070 -3.6392 -1.0113 -0.4256
 1738Sol     HW 9713   0.051   2.955   7.008 -0.3359 -0.2779 -0.0349
 1738Sol     MW 9714   0.035   3.043   6.996  0.4507  0.0494  0.6943
 1739Sol     OW 9715   2.355   1.004   7.582 -0.0227 -0.1959  0.1856
 1739Sol     HW 9716   2.336   0.959   7.665  2.5093 -2.1399 -0.2275
 1739Sol     HW 9717   2.412   0.943   7.535  4.3581  3.8258 -0.0573
 1739Sol     MW 9718   2.358   0.994   7.585 -0.2697 -0.2253 -0.3797
 1740Sol     OW 9719   0.750   1.346   2.828  0.0103 -0.4153 -0.1960
 1740Sol     HW 9720   0.697   1.389   2.761  1.3595 -0.0413 -1.0608
 1740Sol     HW 9721   0.687   1.316   2.893 -1.4384 -1.6923 -2.1328
 1740Sol     MW 9722   0.740   1.347   2.828 -0.5852  0.4443  0.2151
 1741Sol     OW 9723   0.119   2.217   6.477  0.3128  0.2384 -0.7247
 1741Sol     HW 9724   0.149   2.282   6.540 -0.5140 -0.7043  0.6784
 1741Sol     HW 9725   0.038   2.253   6.442 -0.6079 -0.3807  0.6895
 1741Sol     MW 9726   0.115   2.226   6.480  0.1894 -0.4453 -0.1370
 1742Sol     OW 9727   2.004   1.055   3.524 -0.4216 -0.3492  0.2399
 1742Sol     HW 9728   2.036   0.966   3.506  0.4396  0.4051 -2.0984
 1742Sol     HW 9729   2.077   1.099   3.566  0.4482  0.3232 -1.9225
 1742Sol     MW 9730   2.013   1.051   3.526 -0.1639 -0.3967 -0.0639
 1743Sol     OW 9731   1.173   0.723   1.852  0.0507  0.4356 -0.4788
 1743Sol     HW 9732   1.100   0.694   1.797 -0.3223 -0.0033  0.2267
 1743Sol     HW 9733   1.249   0.724   1.794 -0.0653 -1.3474 -0.6844
 1743Sol     MW 9734   1.173   0.720   1.842  0.4140  0.2586 -0.6160
 1744Sol     OW 9735   0.343   2.117   4.135 -0.0796  0.1417 -0.4194
 1744Sol     HW 9736   0.404   2.064   4.185 -0.9034 -1.8088 -1.4236
 1744Sol     HW 9737   0.395   2.154   4.064  0.4682  0.5641  0.2015
 1744Sol     MW 9738   0.353   2.116   4.133  0.1957  0.2013 -0.0723
 1745Sol     OW 9739   0.960   1.955   9.400 -0.0994 -0.3071 -0.0216
 1745Sol     HW 9740   1.043   1.966   9.445  0.7279  0.6852 -1.7385
 1745Sol     HW 9741   0.983   1.947   9.307 -1.8786 -0.4167 -0.4847
 1745Sol     MW 9742   0.969   1.955   9.396 -0.3246  0.0303  0.0014
 1746Sol     OW 9743   1.924   1.617   4.250  0.1115  0.2008  0.2661
 1746Sol     HW 9744   1.862   1.569   4.194 -1.4470  1.9740  0.4195
 1746Sol     HW 9745   1.986   1.657   4.188  0.1473 -0.2722 -0.0024
 1746Sol     MW 9746   1.924   1.616   4.239  0.2615  0.6437 -0.2490
 1747Sol     OW 9747   0.765   3.020   8.785 -0.1848 -0.0331 -0.2713
 1747Sol     HW 9748   0.857   3.037   8.766 -0.3723  2.0391  0.5864
 1747Sol     HW 9749   0.717   3.065   8.715 -0.6503  2.2696  1.4650
 1747Sol     MW 9750   0.769   3.026   8.777  0.0451 -0.0736 -0.1465
 1748Sol     OW 9751   2.347   0.724   2.118  0.4595  0.4006  0.3986
 1748Sol     HW 9752   2.390   0.757   2.039 -1.0210  1.0886 -0.1272
 1748Sol     HW 9753   2.415   0.673   2.162  1.9728  1.8654 -0.1645
 1748Sol     MW 9754   2.357   0.722   2.115 -0.8221 -0.0173 -0.2873
 1749Sol     OW 9755   0.619   1.566   6.598  0.0770 -0.6158 -0.1214
 1749Sol     HW 9756   0.601   1.659   6.583  1.0558 -0.4843 -0.5324
 1749Sol     HW 9757   0.657   1.535   6.516 -0.7068 -1.5031 -0.1567
 1749Sol     MW 9758   0.621   1.571   6.589  0.3416  0.6567 -0.8058
 1750Sol     OW 9759   0.183   1.271   5.702 -0.2650 -0.1219 -0.4862
 1750Sol     HW 9760   0.220   1.183   5.702 -1.9260 -0.8455  0.7658
 1750Sol     HW 9761   0.236   1.319   5.766 -1.3620 -1.1047  1.1819
 1750Sol     MW 9762   0.191   1.267   5.707  0.2558 -0.1248  0.6505
 1751Sol     OW 9763   2.074   2.122   7.900  0.4945  0.1912 -1.0713
 1751Sol     HW 9764   2.108   2.207   7.873 -1.3488  0.8719 -1.3271
 1751Sol     HW 9765   2.036   2.085   7.820 -0.7765  0.1502 -0.4626
 1751Sol     MW 9766   2.074   2.126   7.890 -0.0134  0.0040  0.3430
 1752Sol     OW 9767   2.253   2.525   3.415 -0.4484  0.2304 -0.4323
 1752Sol     HW 9768   2.211   2.443   3.390 -0.6492  0.7007 -1.6658
 1752Sol     HW 9769   2.277   2.513   3.507  0.4707 -1.5955 -0.8963
 1752Sol     MW 9770   2.252   2.517   3.421  0.2362 -0.8126 -0.2738
 1753Sol     OW 9771   1.650   1.521   9.555 -0.3617 -0.0816  0.0805
 1753Sol     HW 9772   1.650   1.468   9.634 -1.4775  0.9959  0.8362
 1753Sol     HW 9773   1.630   1.460   9.484  0.2230 -0.9743  0.6910
 1753Sol     MW 9774   1.648   1.511   9.556  0.3935 -0.4211 -0.4171
 1754Sol     OW 9775   0.201   1.490   1.998  0.2253 -0.1392  0.3067
 1754Sol     HW 9776   0.156   1.553   2.054  1.2649 -0.0383  1.0334
 1754Sol     HW 9777   0.247   1.432   2.059  0.7233 -0.5168 -0.4174
 1754Sol     MW 9778   0.201   1.490   2.008 -0.3665  0.7100  0.8024
 1755Sol     OW 9779   2.636   2.945   7.714  0.3783 -0.5511  0.3633
 1755Sol     HW 9780   2.648   2.866   7.768  2.8143 -0.2242  0.3263
 1755Sol     HW 9781   2.550   2.933   7.674  0.0575 -2.4771  1.5579
 1755Sol     MW 9782   2.629   2.937   7.715 -0.4074  0.4129 -0.1733
 1756Sol     OW 9783   2.363   3.205   8.807  0.7768  0.6273  0.1460
 1756Sol     HW 9784   2.416   3.144   8.754 -0.6897  0.9906 -1.8215
 1756Sol     HW 9785   2.426   3.262   8.850  2.1173 -1.3172  0.8161
 1756Sol     MW 9786   2.373   3.204   8.806  0.6266  0.2173  0.3789
 1757Sol     OW 9787   0.828   0.843   4.937  0.7722 -0.1536  1.1999
 1757Sol     HW 9788   0.811   0.876   4.849 -0.1378 -2.0084  0.6513
 1757Sol     HW 9789   0.858   0.919   4.986  0.5950  1.0518 -0.5242
 1757Sol     MW 9790   0.829   0.852   4.933 -0.2548 -0.6022  0.1696
 1758Sol     OW 9791   2.048   1.781   9.092 -0.3133  0.0532 -0.7782
 1758Sol     HW 9792   2.004   1.725   9.028  1.1761 -1.0559 -0.8691
 1758Sol     HW 9793   2.041   1.733   9.175 -0.8947  0.7494 -0.4220
 1758Sol     MW 9794   2.044   1.771   9.094 -0.0713  1.0270 -0.1322
 1759Sol     OW 9795   1.187   2.031   8.939  0.0299 -0.0810  0.0866
 1759Sol     HW 9796   1.210   2.122   8.960  1.3963 -0.5157  0.5257
 1759Sol     HW 9797   1.145   1.998   9.018  0.2086 -0.0546  0.1935
 1759Sol     MW 9798   1.186   2.037   8.948 -0.1095  0.1413 -0.0512
 1760Sol     OW 9799   2.894   3.041   6.842 -0.2697 -0.3943 -0.1817
 1760Sol     HW 9800   2.921   3.067   6.754 -1.6615  2.7270  0.2376
 1760Sol     HW 9801   2.965   3.071   6.898  0.6800 -2.5044 -0.2078
 1760Sol     MW 9802   2.902   3.046   6.839  0.1165 -0.0784  0.7155
 1761Sol     OW 9803   0.762   0.658   4.528 -0.0000 -0.6434 -0.5190
 1761Sol     HW 9804   0.680   0.645   4.481 -0.2762 -0.9510  0.0322
 1761Sol     HW 9805   0.829   0.628   4.467 -0.1554  1.1636 -1.6045
 1761Sol     MW 9806   0.760   0.654   4.519 -0.6736  0.9273 -0.1713
 1762Sol     OW 9807   2.559   1.100   1.922 -0.4736 -0.8773  0.4280
 1762Sol     HW 9808   2.472   1.066   1.901 -1.8380  2.2038  0.8378
 1762Sol     HW 9809   2.560   1.107   2.018 -0.6131  1.1003  0.3108
 1762Sol     MW 9810   2.551   1.098   1.929 -0.4520 -0.1513 -0.5645
 1763Sol     OW 9811   0.181   1.708   4.647 -0.4876  0.1609  0.1502
 1763Sol     HW 9812   0.177   1.686   4.740  0.6461  0.0206  0.1631
 1763Sol     HW 9813   0.123   1.784   4.638 -0.6468  0.1366  0.9572
 1763Sol     MW 9814   0.175   1.713   4.655  0.3110 -0.2205  0.4004
 1764Sol     OW 9815   0.519   1.013   5.100  0.0363  0.3896 -0.5973
 1764Sol     HW 9816   0.580   1.086   5.113 -0.2301  0.4223  0.5050
 1764Sol     HW 9817   0.436   1.054   5.077 -0.0236  0.4135 -0.3334
 1764Sol     MW 9818   0.517   1.023   5.099 -0.0837  0.2016  0.3053
 1765Sol     OW 9819   2.455   0.729   6.742 -0.5115 -0.1271 -0.2398
 1765Sol     HW 9820   2.539   0.714   6.700  0.5935 -0.3967  1.9999
 1765Sol     HW 9821   2.475   0.787   6.816 -2.2105 -0.6061  0.6263
 1765Sol     MW 9822   2.464   0.733   6.745 -0.3495 -0.6786  0.0024
 1766Sol     OW 9823   2.150   1.496   4.373 -0.3946 -0.1439  0.0473
 1766Sol     HW 9824   2.156   1.553   4.450 -0.7274  0.3735 -0.3155
 1766Sol     HW 9825   2.067   1.519   4.332 -0.1736 -0.3598 -0.5253
 1766Sol     MW 9826   2.143   1.503   4.377  0.5715  0.4563 -0.0808
 1767Sol     OW 9827   1.119   1.786   3.242 -0.3391 -0.7620 -0.0026
 1767Sol     HW 9828   1.052   1.745   3.298 -2.0444  1.1827 -0.5714
 1767Sol     HW 9829   1.109   1.880   3.257  1.4490 -0.3814 -1.0478
 1767Sol     MW 9830   1.112   1.791   3.249  0.2323  0.1602 -0.4014
 1768Sol     OW 9831   0.401   2.357   2.849 -0.1244  0.2500 -0.3400
 1768Sol     HW 9832   0.395   2.385   2.758  0.6921 -1.7948 -1.0545
 1768Sol     HW 9833   0.494   2.338   2.863 -0.6078 -1.8863  0.1393
 1768Sol     MW 9834   0.409   2.358   2.842 -1.1287 -0.6690 -0.0125
 1769Sol     OW 9835   2.939   1.552  10.232  0.8178  0.8011  0.1428
 1769Sol     HW 9836   3.006   1.484  10.224 -1.2254 -0.9769 -3.0167
 1769Sol     HW 9837   2.895   1.533  10.314 -0.5802 -2.5913 -1.3132
 1769Sol     MW 9838   2.941   1.545  10.239  0.6286 -0.0748 -0.2032
 1770Sol     OW 9839   1.900   2.089   3.730 -0.2927  0.0458 -0.8503
 1770Sol     HW 9840   1.992   2.066   3.715 -0.4141 -1.4964  0.7127
 1770Sol     HW 9841   1.889   2.172   3.682  2.3903  1.2188  0.4313
 1770Sol     MW 9842   1.907   2.095   3.724 -0.2973  0.0055  0.1021
 1771Sol     OW 9843   1.268   0.731   5.527  0.8987 -0.1996  0.1720
 1771Sol     HW 9844   1.311   0.665   5.581 -0.7035 -1.7377 -0.3761
 1771Sol     HW 9845   1.236   0.796   5.589  0.0620 -1.3761  0.9932
 1771Sol     MW 9846   1.269   0.731   5.537 -0.3204  0.2038  0.0946
 1772Sol     OW 9847   1.653   2.688   9.322  0.0818 -0.0484 -0.2674
 1772Sol     HW 9848   1.562   2.681   9.293  0.1249 -3.0307  0.2005
 1772Sol     HW 9849   1.705   2.672   9.244  0.2335  0.7369 -0.3368
 1772Sol     MW 9850   1.650   2.686   9.313  0.0903  0.2123 -0.5463
 1773Sol     OW 9851   2.780   0.164   4.560  0.2094 -0.2003  0.6270
 1773Sol     HW 9852   2.797   0.186   4.469  1.1225 -2.1249  0.3208
 1773Sol     HW 9853   2.852   0.205   4.609 -0.8666  1.7556  0.6409
 1773Sol     MW 9854   2.788   0.170   4.556  0.2511  0.0490 -0.1525
 1774Sol     OW 9855   0.013   0.834   3.612  0.0669  0.0472  0.6109
 1774Sol     HW 9856  -0.010   0.741   3.608  0.6971 -0.1640  1.5535
 1774Sol     HW 9857   0.058   0.843   3.696 -0.8195  1.3974  0.9462
 1774Sol     MW 9858   0.015   0.826   3.620 -0.1087 -0.6885  0.0462
 1775Sol     OW 9859   0.936   1.287   4.595  0.3507  0.7039  0.5655
 1775Sol     HW 9860   0.998   1.303   4.524 -0.4899 -0.8079 -0.5304
 1775Sol     HW 9861   0.859   1.338   4.573  0.6405  1.4042  1.1612
 1775Sol     MW 9862   0.935   1.293   4.587  0.1892 -0.0314 -0.0638
 1776Sol     OW 9863   0.428   1.346   4.449 -0.1725 -0.4406 -0.1753
 1776Sol     HW 9864   0.457   1.262   4.485  1.0609  0.0580  0.0096
 1776Sol     HW 9865   0.416   1.329   4.356  3.0049 -0.0872 -0.7016
 1776Sol     MW 9866   0.429   1.337   4.444  0.2676 -0.0685  0.4150
 1777Sol     OW 9867   0.598   2.333   8.506  0.7060 -0.1874  0.3908
 1777Sol     HW 9868   0.514   2.380   8.514  1.8212  1.9219  0.1544
 1777Sol     HW 9869   0.625   2.316   8.596 -0.5704 -2.0358  0.4579
 1777Sol     MW 9870   0.593   2.336   8.515  0.2617 -0.2854  0.0501
 1778Sol     OW 9871   1.321   3.062   6.051 -0.2186  0.5759 -0.7733
 1778Sol     HW 9872   1.262   3.085   5.979  0.6253  0.8286 -1.3937
 1778Sol     HW 9873   1.332   3.143   6.100 -0.2796  0.5573 -0.7271
 1778Sol     MW 9874   1.317   3.071   6.049 -0.4134  0.0301 -0.0526
 1779Sol     OW 9875   0.315   1.178   8.400  0.2640 -0.3501  0.1506
 1779Sol     HW 9876   0.397   1.218   8.372  0.0187 -0.3405 -0.5602
 1779Sol     HW 9877   0.336   1.137   8.484  1.1835 -0.9818 -0.3827
 1779Sol     MW 9878   0.324   1.178   8.405 -0.1665 -0.2051 -0.6291
 1780Sol     OW 9879   0.029   2.759   4.634  0.0077 -0.2042  0.4238
 1780Sol     HW 9880  -0.026   2.721   4.703  0.0343 -0.3855  0.3447
 1780Sol     HW 9881   0.030   2.853   4.654 -1.0988 -0.0682 -0.1127
 1780Sol     MW 9882   0.024   2.764   4.642  0.3100  0.1312  0.1052
 1781Sol     OW 9883   1.619   0.642   8.399  0.0487  0.3913  0.2462
 1781Sol     HW 9884   1.578   0.557   8.411  1.5479 -0.0753  2.2601
 1781Sol     HW 9885   1.557   0.705   8.436  0.3866 -0.1491  1.7520
 1781Sol     MW 9886   1.610   0.640   8.403  0.1841 -0.2657 -0.3743
 1782Sol     OW 9887   1.083   1.391   8.959  0.0278 -0.1778  0.6534
 1782Sol     HW 9888   1.123   1.387   8.872  0.7862  0.7529  0.9585
 1782Sol     HW 9889   1.138   1.335   9.013  1.3138  1.5830  1.2164
 1782Sol     MW 9890   1.092   1.385   8.956 -0.0155 -0.2786 -0.0815
 1783Sol     OW 9891   2.143   0.008   2.879  0.3609  0.3514  0.2167
 1783Sol     HW 9892   2.155   0.087   2.931 -2.1272 -0.1357  1.6077
 1783Sol     HW 9893   2.141   0.040   2.788  2.4507  1.4750  0.5307
 1783Sol     MW 9894   2.144   0.018   2.875  0.2955  0.4902  0.5984
 1784Sol     OW 9895   1.980   2.257   4.083  0.2623  0.2325  0.2509
 1784Sol     HW 9896   1.885   2.267   4.089  0.0688  1.6308 -3.8440
 1784Sol     HW 9897   2.014   2.317   4.150 -1.7236  1.4924  0.1965
 1784Sol     MW 9898   1.974   2.264   4.090 -0.5807  0.4443 -0.0218
 1785Sol     OW 9899   2.271   2.086   9.735  0.5114  0.1090 -0.0799
 1785Sol     HW 9900   2.316   2.171   9.729 -2.4746  1.6670 -1.4314
 1785Sol     HW 9901   2.208   2.097   9.806  0.1100 -1.0017 -0.2564
 1785Sol     MW 9902   2.269   2.095   9.741 -0.6755 -0.4320 -0.1913
 1786Sol     OW 9903   3.051   1.647   8.621  0.4920 -1.0372  0.1081
 1786Sol     HW 9904   2.999   1.567   8.608  0.6896 -0.5975 -3.9452
 1786Sol     HW 9905   2.989   1.710   8.656 -0.1954 -2.3096  1.2494
 1786Sol     MW 9906   3.041   1.645   8.623 -0.1741  0.9242 -0.5475
 1787Sol     OW 9907   1.041   0.235   6.602  0.0091  0.0263 -0.4700
 1787Sol     HW 9908   1.137   0.228   6.602  0.2080  2.1781 -0.6928
 1787Sol     HW 9909   1.022   0.308   6.661 -1.4747 -0.1893 -0.6527
 1787Sol     MW 9910   1.048   0.241   6.607 -0.3099 -0.0771 -0.2723
 1788Sol     OW 9911   0.864   1.689   4.278  0.2533  0.1034 -0.6153
 1788Sol     HW 9912   0.803   1.738   4.333  1.8214  1.2069  0.1949
 1788Sol     HW 9913   0.816   1.610   4.253 -2.1361  1.7574 -1.4920
 1788Sol     MW 9914   0.854   1.686   4.281 -0.3838  0.5277 -0.3723
 1789Sol     OW 9915   0.623   3.226   8.955  0.1697  0.5095  0.0310
 1789Sol     HW 9916   0.669   3.143   8.947  1.8307  1.3076  1.0353
 1789Sol     HW 9917   0.532   3.202   8.970  0.3165 -1.1068 -1.4816
 1789Sol     MW 9918   0.619   3.217   8.955  0.0919  0.1582 -0.0582
 1790Sol     OW 9919   0.860   3.173  10.496  0.3442 -0.1477  0.1305
 1790Sol     HW 9920   0.899   3.260  10.492 -0.4076  0.2230  0.7369
 1790Sol     HW 9921   0.897   3.126  10.421  1.5439  0.3596  0.4031
 1790Sol     MW 9922   0.867   3.176  10.489  0.1956  0.0813 -0.2650
 1791Sol     OW 9923   1.212   0.093   1.995  0.4420  0.2487 -0.6819
 1791Sol     HW 9924   1.259   0.034   2.054 -0.9223  0.3419  0.5267
 1791Sol     HW 9925   1.248   0.180   2.014 -0.5282  0.3905  0.5957
 1791Sol     MW 9926   1.220   0.096   2.002  0.6459 -0.6307 -0.1852
 1792Sol     OW 9927   1.744   0.816   7.980  0.3906 -0.1039  0.6229
 1792Sol     HW 9928   1.807   0.883   8.007 -0.3107  0.4076  1.0061
 1792Sol     HW 9929   1.658   0.857   7.992  0.0075 -0.5449 -0.5736
 1792Sol     MW 9930   1.742   0.826   7.984 -0.0587  0.2570  0.1047
 1793Sol     OW 9931   1.561   1.106   8.975 -0.2572 -0.2138 -0.2575
 1793Sol     HW 9932   1.645   1.143   9.003 -1.6543  1.5075  1.7879
 1793Sol     HW 9933   1.540   1.041   9.042 -0.3369 -0.9806 -1.0195
 1793Sol     MW 9934   1.567   1.103   8.983 -0.4012 -0.1106  0.1100
 1794Sol     OW 9935   2.447   1.636   2.183  0.0895  0.0499  0.3877
 1794Sol     HW 9936   2.469   1.704   2.247  0.3580  0.1967  0.1403
 1794Sol     HW 9937   2.420   1.685   2.105 -0.0721 -0.1293  0.3310
 1794Sol     MW 9938   2.446   1.646   2.182  0.0793 -0.8825 -0.4038
 1795Sol     OW 9939   1.044   1.788   5.661 -0.0973 -0.1937 -0.3108
 1795Sol     HW 9940   1.043   1.783   5.565 -1.1183  0.1298 -0.3288
 1795Sol     HW 9941   1.077   1.703   5.689  0.7497 -0.0849 -0.9569
 1795Sol     MW 9942   1.047   1.780   5.655 -0.1036 -0.1185 -0.3090
 1796Sol     OW 9943   1.205   0.139   9.810 -0.2671 -0.0409  0.1152
 1796Sol     HW 9944   1.150   0.061   9.810 -0.1170 -0.1718  2.2820
 1796Sol     HW 9945   1.190   0.179   9.896 -0.2025  2.2205 -0.9133
 1796Sol     MW 9946   1.199   0.136   9.818  0.7890  0.1326  0.0085
 1797Sol     OW 9947   3.037   1.764   8.271  0.4184 -0.1470 -0.3681
 1797Sol     HW 9948   2.974   1.699   8.238 -0.0823  0.2641 -0.2288
 1797Sol     HW 9949   3.091   1.786   8.195  0.9817 -1.1749 -0.2733
 1797Sol     MW 9950   3.036   1.760   8.261  0.1441 -0.4246 -0.7186
 1798Sol     OW 9951   2.369   3.320   8.176 -0.7502 -0.4777 -0.4698
 1798Sol     HW 9952   2.406   3.379   8.111 -1.6171  2.6124  1.7064
 1798Sol     HW 9953   2.439   3.307   8.240 -1.3492  0.2969  0.3672
 1798Sol     MW 9954   2.378   3.324   8.176  0.0540  0.1615  0.0803
 1799Sol     OW 9955   0.271   0.019   9.762 -0.1957 -0.0411 -0.1307
 1799Sol     HW 9956   0.179  -0.002   9.745 -0.1024  0.2207 -0.9815
 1799Sol     HW 9957   0.268   0.101   9.813 -0.5111 -1.3718  2.0595
 1799Sol     MW 9958   0.262   0.025   9.765  0.0535  0.9020 -0.2546
 1800Sol     OW 9959   0.351   0.445   6.288 -0.4796  0.1056  0.0411
 1800Sol     HW 9960   0.372   0.411   6.375 -0.4110 -0.5806 -0.2463
 1800Sol     HW 9961   0.412   0.517   6.275 -0.2566 -0.0156  0.4165
 1800Sol     MW 9962   0.358   0.449   6.295  0.2260 -0.3480 -0.0331
 1801Sol     OW 9963   2.756   2.416   2.066 -0.4863 -0.4964 -0.2638
 1801Sol     HW 9964   2.792   2.380   2.147  0.1942 -1.0729 -0.8187
 1801Sol     HW 9965   2.831   2.454   2.021 -0.9133  0.0856 -0.4895
 1801Sol     MW 9966   2.766   2.416   2.069  0.6901 -0.2919 -0.0776
 1802Sol     OW 9967   2.178   0.388   1.959  0.3440 -0.3754 -0.2521
 1802Sol     HW 9968   2.199   0.317   1.898 -0.8919 -0.5519 -0.4802
 1802Sol     HW 9969   2.224   0.464   1.924 -0.6979 -0.3781 -1.6426
 1802Sol     MW 9970   2.184   0.389   1.951  0.3066  0.1031  0.2589
 1803Sol     OW 9971   1.931   0.422   3.569 -0.3107  0.4280  0.7361
 1803Sol     HW 9972   1.930   0.442   3.476  0.5323  0.3693  0.7067
 1803Sol     HW 9973   1.982   0.341   3.575  0.8901  1.2213  1.3922
 1803Sol     MW 9974   1.936   0.416   3.561  0.0699 -0.4730  0.2921
 1804Sol     OW 9975   0.793   1.166   5.669  0.5892 -0.0284 -0.6062
 1804Sol     HW 9976   0.833   1.252   5.657  1.4779 -0.4313 -0.5845
 1804Sol     HW 9977   0.709   1.184   5.712  0.4106  0.8860 -1.3254
 1804Sol     MW 9978   0.789   1.175   5.672 -0.4870 -0.3923  0.9499
 1805Sol     OW 9979   3.037   1.203   1.779  0.1980  0.0082  0.3494
 1805Sol     HW 9980   2.962   1.232   1.831  0.8492  2.5342 -0.0183
 1805Sol     HW 9981   3.101   1.174   1.844  0.2587  1.2969  0.8897
 1805Sol     MW 9982   3.036   1.203   1.790 -0.1174 -0.4923 -0.6259
 1806Sol     OW 9983   1.893   1.989   9.788  0.0653  0.1763  0.0397
 1806Sol     HW 9984   1.816   2.043   9.768 -0.5610  0.1934  2.3587
 1806Sol     HW 9985   1.962   2.052   9.809 -0.1018  0.1230  0.7664
 1806Sol     MW 9986   1.892   1.999   9.788 -0.9240  0.1810  0.1601
 1807Sol     OW 9987   1.667   1.696   3.625  0.4188  0.0880 -0.9269
 1807Sol     HW 9988   1.652   1.631   3.557  3.2829 -0.3694 -1.2089
 1807Sol     HW 9989   1.714   1.767   3.580  2.8286 -0.4582  0.6152
 1807Sol     MW 9990   1.670   1.697   3.615  0.3966  0.3196  0.2338
 1808Sol     OW 9991   0.303   3.404   8.776 -0.2010  0.1623  0.0119
 1808Sol     HW 9992   0.344   3.487   8.802  1.3707 -0.4768 -0.3591
 1808Sol     HW 9993   0.301   3.352   8.856  0.3203 -0.0588 -0.1214
 1808Sol     MW 9994   0.306   3.407   8.786  0.0478  0.1422  0.2082
 1809Sol     OW 9995   1.424   1.778   5.868 -0.2598 -0.3041  0.6705
 1809Sol     HW 9996   1.370   1.754   5.943 -2.6593  0.1008 -0.8570
 1809Sol     HW 9997   1.507   1.733   5.883 -2.7486 -5.3554  0.5528
 1809Sol     MW 9998   1.427   1.771   5.876 -0.1778  0.0448  0.3518
 1810Sol     OW 9999   0.865   1.757   1.719  0.0677 -0.0871 -0.2534
 1810Sol     HW10000   0.842   1.717   1.803 -0.1044 -0.4034 -0.4504
 1810Sol     HW10001   0.808   1.713   1.656 -1.7182  2.0296 -0.1614
 1810Sol     MW10002   0.858   1.749   1.721 -0.1872  0.4157  0.5506
 1811Sol     OW10003   0.019   0.111   5.763 -0.0694  0.1853  0.7337
 1811Sol     HW10004  -0.026   0.143   5.841  1.3210  0.2097  1.5290
 1811Sol     HW10005   0.011   0.183   5.700  1.2945  1.3189  1.8297
 1811Sol     MW10006   0.014   0.120   5.764 -0.7352  0.3567 -0.1475
 1812Sol     OW10007   0.247   2.704   8.874  0.3889  0.4909 -0.0853
 1812Sol     HW10008   0.286   2.715   8.961 -0.6651  0.2732  0.4211
 1812Sol     HW10009   0.296   2.631   8.834  1.1464  0.8617  0.1590
 1812Sol     MW10010   0.255   2.698   8.878 -0.3883  0.6488 -0.1866
 1813Sol     OW10011   2.831   0.689   8.899 -0.5234 -0.5059  0.5194
 1813Sol     HW10012   2.804   0.599   8.916 -0.1281 -0.5238  1.0815
 1813Sol     HW10013   2.825   0.698   8.804  0.3936 -1.4469  0.3537
 1813Sol     MW10014   2.828   0.681   8.892 -0.2196  0.5481 -0.4319
 1814Sol     OW10015   1.909   0.075   1.803  0.2143  0.3611 -0.0242
 1814Sol     HW10016   1.910  -0.015   1.771  0.2652 -0.4537  2.1428
 1814Sol     HW10017   1.820   0.106   1.783  0.1782 -0.1864 -0.7342
 1814Sol     MW10018   1.901   0.069   1.798  0.0074  0.1691 -0.1912
 1815Sol     OW10019   1.651   1.280   1.983 -0.0465  0.0422 -0.1286
 1815Sol     HW10020   1.598   1.265   1.905 -3.3801  1.5403  1.7078
 1815Sol     HW10021   1.634   1.204   2.039  0.6714 -0.0303 -0.0070
 1815Sol     MW10022   1.645   1.272   1.981 -0.1066 -0.4582  0.3091
 1816Sol     OW10023   2.084   1.578   6.649  0.7314 -0.0366 -0.1245
 1816Sol     HW10024   2.167   1.532   6.633  0.4224 -0.7606  0.3558
 1816Sol     HW10025   2.071   1.630   6.570 -1.2719 -4.3172 -2.8123
 1816Sol     MW10026   2.091   1.579   6.640  0.1932 -0.2782 -0.3433
 1817Sol     OW10027   2.966   1.400   2.227 -0.3741  0.6354 -0.4600
 1817Sol     HW10028   2.937   1.314   2.257  1.2942  0.0261 -0.5185
 1817Sol     HW10029   2.955   1.398   2.132  2.8720 -0.8234 -0.8684
 1817Sol     MW10030   2.963   1.393   2.221  0.4127 -0.2291  0.7256
 1818Sol     OW10031   1.630   3.170   9.885 -0.1496 -0.2733  0.2743
 1818Sol     HW10032   1.678   3.153   9.966 -0.9503  1.4722  1.1602
 1818Sol     HW10033   1.550   3.215   9.914 -1.6626 -1.8696 -1.2782
 1818Sol     MW10034   1.627   3.173   9.895  0.2636  0.2627  0.1196
 1819Sol     OW10035   0.606   1.191   8.656  0.0711  0.0784  0.2194
 1819Sol     HW10036   0.511   1.179   8.669 -0.0646  0.2273 -0.6081
 1819Sol     HW10037   0.635   1.107   8.621 -0.0957  0.6648 -1.3527
 1819Sol     MW10038   0.600   1.182   8.654 -0.3247  0.7221  0.2159
 1820Sol     OW10039   2.717   0.052   5.701  0.1493 -0.4081 -0.3523
 1820Sol     HW10040   2.621   0.043   5.699  0.0881 -0.2544  1.3892
 1820Sol     HW10041   2.733   0.144   5.680 -0.1743 -0.0432  0.9697
 1820Sol     MW10042   2.710   0.060   5.699 -0.2757 -0.1184  0.5647
 1821Sol     OW10043   0.951   0.754   5.731  0.5046 -0.4072  0.3343
 1821Sol     HW10044   0.945   0.727   5.823 -0.0375  0.1746  0.4757
 1821Sol     HW10045   0.958   0.672   5.682  0.0575 -0.7544  0.8444
 1821Sol     MW10046   0.951   0.744   5.735  0.5394  0.5999  0.2784
 1822Sol     OW10047   2.144   1.827   3.843  0.4205  0.7531  0.4025
 1822Sol     HW10048   2.088   1.879   3.901 -0.3007  2.2061 -1.5705
 1822Sol     HW10049   2.232   1.840   3.877 -0.0705  0.9995  1.6117
 1822Sol     MW10050   2.147   1.833   3.851  0.3148  0.2582 -0.5185
 1823Sol     OW10051   0.713   1.112   9.852  0.3222 -0.4985  0.3654
 1823Sol     HW10052   0.676   1.180   9.796  1.3136 -0.5469 -0.3624
 1823Sol     HW10053   0.638   1.056   9.874 -0.1368 -0.3218 -0.6839
 1823Sol     MW10054   0.703   1.113   9.849 -0.3243 -0.0932 -0.0105
 1824Sol     OW10055   2.577   2.135   7.409 -0.3559  0.3260 -0.4678
 1824Sol     HW10056   2.626   2.074   7.464  0.0831  1.2414  0.1556
 1824Sol     HW10057   2.493   2.091   7.393 -0.5041  0.0767  0.9697
 1824Sol     MW10058   2.573   2.125   7.412  0.1487 -0.1959 -0.2935
 1825Sol     OW10059   1.804   1.090   7.057  0.4658  0.5593  0.0410
 1825Sol     HW10060   1.785   1.177   7.021  0.9887  0.5912 -0.1576
 1825Sol     HW10061   1.897   1.076   7.039  0.1929 -0.4127 -0.7267
 1825Sol     MW10062   1.811   1.096   7.052 -0.7387  0.1409  0.2549
 1826Sol     OW10063   0.546   1.314   8.345 -0.4349 -0.7174 -0.0928
 1826Sol     HW10064   0.504   1.379   8.288 -0.1788  1.0425  1.6935
 1826Sol     HW10065   0.554   1.358   8.429  0.5961 -2.7642  0.8938
 1826Sol     MW10066   0.543   1.324   8.347  0.0371  0.2801 -0.2890
 1827Sol     OW10067   2.929   0.726   7.031 -0.3441  0.0761  0.3052
 1827Sol     HW10068   2.932   0.755   6.940  0.3341 -0.3642  0.1825
 1827Sol     HW10069   2.870   0.650   7.030 -2.3303  1.5943  0.6730
 1827Sol     MW10070   2.924   0.721   7.023  0.7031 -0.3707 -0.2452
 1828Sol     OW10071   2.811   1.024   6.093 -0.1129  0.2947 -0.2608
 1828Sol     HW10072   2.772   1.058   6.174  0.0365 -0.9834  0.3663
 1828Sol     HW10073   2.763   1.068   6.023 -0.6060  1.0177  0.5185
 1828Sol     MW10074   2.803   1.031   6.094 -0.2078  0.0257  0.0936
 1829Sol     OW10075   2.925   0.012   3.444 -0.0217 -0.0017 -0.4300
 1829Sol     HW10076   2.842  -0.016   3.405  0.1449  0.0212 -0.7955
 1829Sol     HW10077   2.960  -0.068   3.484 -0.9844  0.3146  1.1136
 1829Sol     MW10078   2.920   0.002   3.444 -0.0080 -0.3696  0.4057
 1830Sol     OW10079   0.303   3.120   2.922 -0.5224 -0.3016  0.2644
 1830Sol     HW10080   0.331   3.113   3.014 -1.0570 -0.9428  0.3779
 1830Sol     HW10081   0.222   3.170   2.925 -0.3028  0.0643  0.0978
 1830Sol     MW10082   0.298   3.124   2.931 -0.2192 -0.6429 -0.0785
 1831Sol     OW10083   1.845   0.865   8.811  0.1525  0.3360  0.2989
 1831Sol     HW10084   1.750   0.853   8.812  0.0250  1.1508 -1.0647
 1831Sol     HW10085   1.879   0.787   8.767  0.0555  0.3920  0.1228
 1831Sol     MW10086   1.839   0.857   8.807 -0.6444 -0.1116  0.3744
 1832Sol     OW10087   0.048   0.612   2.346  0.5208 -0.2530  0.0817
 1832Sol     HW10088   0.128   0.616   2.399 -0.5950  0.7139  1.7237
 1832Sol     HW10089  -0.002   0.540   2.384  0.0429 -0.0421 -0.1426
 1832Sol     MW10090   0.051   0.606   2.354 -0.3694  0.4102 -0.2239
 1833Sol     OW10091   1.128   0.900   2.193  0.1695  0.1549  0.2883
 1833Sol     HW10092   1.149   0.936   2.279 -0.8204  1.1769  0.1237
 1833Sol     HW10093   1.212   0.878   2.154  0.6338 -0.1624  1.4518
 1833Sol     MW10094   1.137   0.901   2.197 -0.0564  0.2410  0.5821
 1834Sol     OW10095   2.892   1.159   7.447  0.4408 -0.4594 -0.1327
 1834Sol     HW10096   2.827   1.099   7.410  1.1518  0.2691 -2.6533
 1834Sol     HW10097   2.850   1.194   7.525 -1.2545 -1.7702 -0.4189
 1834Sol     MW10098   2.883   1.156   7.450 -0.4149 -0.3450 -0.1484
 1835Sol     OW10099   1.884   2.411   6.068 -0.5424 -0.2425 -0.1481
 1835Sol     HW10100   1.904   2.464   6.145 -1.0519  0.5825 -0.5726
 1835Sol     HW10101   1.864   2.324   6.103 -2.3639  0.5233  0.8029
 1835Sol     MW10102   1.884   2.408   6.078 -0.1756 -0.5303 -0.3119
 1836Sol     OW10103   0.111   0.303   2.717 -0.3184  0.0341  0.2147
 1836Sol     HW10104   0.068   0.221   2.742  2.8053 -1.4653  0.9575
 1836Sol     HW10105   0.090   0.364   2.787 -2.0483 -0.3541  0.0457
 1836Sol     MW10106   0.105   0.301   2.726  0.4399 -0.3914 -0.6778
 1837Sol     OW10107   0.762   1.258   6.405  0.0206  0.2286 -0.2603
 1837Sol     HW10108   0.690   1.290   6.351 -0.7054  0.6761  0.9591
 1837Sol     HW10109   0.724   1.188   6.458  0.0425  1.6014  1.6049
 1837Sol     MW10110   0.752   1.255   6.405  0.1842 -0.0898 -0.1785
 1838Sol     OW10111   2.678   0.298   8.300  0.8822 -0.5491 -0.3224
 1838Sol     HW10112   2.594   0.327   8.335  0.4961  0.9315 -2.3748
 1838Sol     HW10113   2.707   0.229   8.360 -0.9496  0.1363  1.4007
 1838Sol     MW10114   2.673   0.295   8.309  0.0009 -0.1634 -0.6282
 1839Sol     OW10115   1.250   2.587   6.029  0.2781 -0.6921 -0.2239
 1839Sol     HW10116   1.293   2.623   5.951 -1.6517 -0.6400 -1.2834
 1839Sol     HW10117   1.218   2.664   6.077 -0.0870 -0.7997 -0.2909
 1839Sol     MW10118   1.251   2.597   6.027 -0.1143  0.4004  0.0707
 1840Sol     OW10119   1.940   0.945   6.754 -0.3426  0.1427  0.4809
 1840Sol     HW10120   1.944   1.037   6.777 -1.4197  0.0596  1.0239
 1840Sol     HW10121   1.847   0.928   6.738 -0.1555 -0.8467  0.3934
 1840Sol     MW10122   1.932   0.952   6.755  0.3395  0.3612  0.5609
 1841Sol     OW10123   0.796   0.937   4.118  0.1572 -0.2540 -0.3888
 1841Sol     HW10124   0.890   0.946   4.132  0.1164 -0.0189 -0.2541
 1841Sol     HW10125   0.758   0.952   4.205 -0.1097  1.3369 -0.7606
 1841Sol     MW10126   0.801   0.939   4.127 -0.1405 -0.7659 -0.2423
 1842Sol     OW10127   1.438   0.616   3.701  0.2237 -0.4224  0.1889
 1842Sol     HW10128   1.497   0.548   3.669  1.1609  0.1460  0.6759
 1842Sol     HW10129   1.417   0.589   3.791  0.5352 -0.1080  0.3560
 1842Sol     MW10130   1.441   0.608   3.706  0.1841 -0.7501  0.2009
 1843Sol     OW10131   2.794   3.160   9.652 -0.5996 -0.8872  0.5188
 1843Sol     HW10132   2.827   3.094   9.591 -0.4050 -0.5876  0.2999
 1843Sol     HW10133   2.866   3.172   9.715 -0.3880 -0.4187  0.1887
 1843Sol     MW10134   2.804   3.155   9.653  0.4178 -0.0218 -0.6125
 1844Sol     OW10135   2.498   1.120   5.401 -0.3315  0.1085  0.1808
 1844Sol     HW10136   2.540   1.194   5.443  1.6025 -1.3497  0.9217
 1844Sol     HW10137   2.435   1.087   5.465  2.3582 -1.8901  1.9039
 1844Sol     MW10138   2.496   1.123   5.410 -0.5579 -0.1837 -0.2285
 1845Sol     OW10139   0.872   1.467   3.070 -0.2536  0.8942  0.4104
 1845Sol     HW10140   0.827   1.438   2.991  0.3950 -1.5665  0.9031
 1845Sol     HW10141   0.910   1.552   3.046 -0.4571  0.4037 -1.7519
 1845Sol     MW10142   0.871   1.472   3.061  0.0836  0.1623 -0.2707
 1846Sol     OW10143   0.608   1.119   4.033  0.6973  0.0572 -0.0757
 1846Sol     HW10144   0.596   1.096   3.941  0.5625 -2.5466  0.5597
 1846Sol     HW10145   0.675   1.058   4.065  0.6912  0.8798  1.5744
 1846Sol     MW10146   0.613   1.111   4.028 -0.1741  0.1907  0.5756
 1847Sol     OW10147   0.621   1.064   6.104  0.5546 -0.4909 -0.2585
 1847Sol     HW10148   0.614   1.004   6.178  3.3337  0.0774  0.5060
 1847Sol     HW10149   0.571   1.141   6.131  1.5997 -0.2634  1.0375
 1847Sol     MW10150   0.616   1.065   6.113 -0.2553  0.1149  0.4255
 1848Sol     OW10151   0.622   0.240   3.252  0.5158  0.0485  0.0999
 1848Sol     HW10152   0.529   0.260   3.252  0.7318  1.1133  2.0508
 1848Sol     HW10153   0.647   0.237   3.344  2.2846 -0.8885 -0.3685
 1848Sol     MW10154   0.616   0.241   3.260 -0.1903 -0.5373  0.5361
 1849Sol     OW10155   3.101   0.812   6.546  0.1305  0.2698 -0.0822
 1849Sol     HW10156   3.183   0.805   6.595 -0.3481  0.5462  0.7792
 1849Sol     HW10157   3.034   0.785   6.608 -0.4871  0.6259 -0.5881
 1849Sol     MW10158   3.102   0.809   6.556 -0.3722 -0.2676  0.0874
 1850Sol     OW10159   2.663   2.899   1.893 -0.5809  0.4246  0.0579
 1850Sol     HW10160   2.748   2.918   1.852 -0.9934 -1.8046 -1.9271
 1850Sol     HW10161   2.601   2.900   1.820 -2.2167  1.5354  1.4252
 1850Sol     MW10162   2.665   2.901   1.882  0.0038  0.0569  0.0345
 1851Sol     OW10163   2.148   2.852   4.194 -0.0607 -0.2060 -0.1336
 1851Sol     HW10164   2.172   2.873   4.285  0.3160 -0.7337 -0.1085
 1851Sol     HW10165   2.078   2.913   4.173  0.3012  0.3695  0.2979
 1851Sol     MW10166   2.144   2.860   4.200 -0.0808 -0.3310  0.0036
 1852Sol     OW10167   2.100   0.206   3.624 -0.0708 -0.7061  0.0372
 1852Sol     HW10168   2.194   0.216   3.639  0.5251 -1.1600 -2.9906
 1852Sol     HW10169   2.087   0.111   3.619 -1.0065 -0.7071  2.0594
 1852Sol     MW10170   2.107   0.198   3.625 -0.9230  0.2485  0.0134
 1853Sol     OW10171   1.423   2.077   3.440  0.2556 -0.2008  0.3733
 1853Sol     HW10172   1.391   1.989   3.418 -0.3779  0.2501 -0.5532
 1853Sol     HW10173   1.420   2.081   3.535  0.4663 -1.2502  0.4281
 1853Sol     MW10174   1.420   2.070   3.447 -0.9048 -0.2856  0.3708
 1854Sol     OW10175   0.075   2.064   9.155  0.0248  0.3118  0.1104
 1854Sol     HW10176   0.034   1.987   9.115  0.8288 -0.1739  0.2236
 1854Sol     HW10177   0.106   2.034   9.240 -1.1757  1.2039  0.8751
 1854Sol     MW10178   0.074   2.055   9.159 -0.4432  0.0371  0.5909
 1855Sol     OW10179   2.611   0.620   6.327 -0.1034 -0.3192  0.1110
 1855Sol     HW10180   2.620   0.631   6.233 -3.3790 -0.6725 -0.3073
 1855Sol     HW10181   2.611   0.525   6.340  0.3077 -0.2729  0.4551
 1855Sol     MW10182   2.611   0.612   6.320 -0.0745  0.1674  0.0436
 1856Sol     OW10183   0.995   2.369   4.449  0.4659  0.4058 -0.2244
 1856Sol     HW10184   1.012   2.429   4.376 -2.3242  1.0349 -0.4120
 1856Sol     HW10185   0.987   2.426   4.525 -0.6919  0.1186 -0.1340
 1856Sol     MW10186   0.996   2.380   4.449 -0.1132 -0.2096  0.5753
 1857Sol     OW10187   2.241   1.629   3.289 -0.2302 -0.6261  0.0547
 1857Sol     HW10188   2.300   1.557   3.267 -0.0996 -0.2171 -0.9255
 1857Sol     HW10189   2.260   1.697   3.224 -1.4193 -0.2919  0.0491
 1857Sol     MW10190   2.248   1.629   3.282  0.4387  1.0874  0.1427
 1858Sol     OW10191   2.017   1.539   9.280  0.1788 -0.3444 -0.2212
 1858Sol     HW10192   1.961   1.491   9.219 -0.9642 -0.1519  0.6601
 1858Sol     HW10193   1.971   1.534   9.364  0.9616  0.7202  0.2838
 1858Sol     MW10194   2.008   1.534   9.282 -0.1155  0.4742 -0.0122
 1859Sol     OW10195   0.135   0.259   4.511 -0.0914  0.1663  0.4536
 1859Sol     HW10196   0.227   0.286   4.502 -0.1376 -0.0654 -0.8278
 1859Sol     HW10197   0.139   0.164   4.520 -0.2650  0.0590 -0.5902
 1859Sol     MW10198   0.144   0.253   4.511 -0.3124  0.0112  0.5064
 1860Sol     OW10199   2.641   1.992   2.158 -0.4540  0.1745  0.1866
 1860Sol     HW10200   2.669   1.903   2.137 -1.6193 -0.2153  0.2483
 1860Sol     HW10201   2.722   2.041   2.168  0.1918 -0.2058 -2.7106
 1860Sol     MW10202   2.650   1.988   2.157  0.0318  0.4047 -0.0911
 1861Sol     OW10203   0.300   2.046   6.343 -0.4324  0.2034 -0.3145
 1861Sol     HW10204   0.248   2.110   6.392  1.6628  1.1274  0.7877
 1861Sol     HW10205   0.298   1.967   6.397 -1.4910 -0.0758 -0.7579
 1861Sol     MW10206   0.295   2.045   6.352  0.3618  0.0274 -0.4054
 1862Sol     OW10207   1.229   1.570   5.422 -0.2298  0.2328  0.0798
 1862Sol     HW10208   1.237   1.586   5.516  0.4458  0.5971 -0.0417
 1862Sol     HW10209   1.164   1.633   5.392 -0.3411  0.2109  0.2753
 1862Sol     MW10210   1.224   1.577   5.428  0.4921  0.1445  0.0358
 1863Sol     OW10211   0.835   1.492   7.668 -0.3114  0.1955 -0.2049
 1863Sol     HW10212   0.909   1.550   7.687 -0.0740  0.2381 -1.2379
 1863Sol     HW10213   0.759   1.540   7.700 -0.0456  0.7954 -0.4517
 1863Sol     MW10214   0.835   1.502   7.673  0.0504  0.3710 -0.3098
 1864Sol     OW10215   0.839   2.802   3.867  0.1415  0.0035 -0.5323
 1864Sol     HW10216   0.826   2.852   3.787  1.2180  0.2486 -0.5636
 1864Sol     HW10217   0.923   2.833   3.901  0.8415 -1.8227 -0.5661
 1864Sol     MW10218   0.845   2.809   3.863 -0.9863  0.0994  0.1011
 1865Sol     OW10219   2.471   1.796   7.445  0.6660 -0.3656 -0.6693
 1865Sol     HW10220   2.397   1.819   7.389  2.0758 -0.0750 -2.4674
 1865Sol     HW10221   2.480   1.701   7.435  0.3791 -0.4377 -0.2488
 1865Sol     MW10222   2.466   1.790   7.439 -0.8625 -0.3244 -0.3711
 1866Sol     OW10223   0.346   0.069   3.466  0.2384  0.2369  0.6288
 1866Sol     HW10224   0.328   0.163   3.453  0.7746  0.5407  2.1056
 1866Sol     HW10225   0.403   0.065   3.542  0.7701 -1.2592  0.1675
 1866Sol     MW10226   0.349   0.077   3.471 -0.2079  0.1831 -0.2830
 1867Sol     OW10227   0.466   2.221   3.906  0.4594 -0.1133  0.6816
 1867Sol     HW10228   0.466   2.308   3.864 -0.5642 -0.8172 -0.8373
 1867Sol     HW10229   0.440   2.161   3.836  0.1209 -1.5244  1.9894
 1867Sol     MW10230   0.464   2.224   3.896 -0.0703 -0.3467 -0.3587
 1868Sol     OW10231   0.352   0.272   2.990 -0.4139 -0.3668 -0.3650
 1868Sol     HW10232   0.400   0.207   2.938 -1.0161 -1.6569  0.6606
 1868Sol     HW10233   0.261   0.243   2.986 -0.3624 -0.9469  2.0775
 1868Sol     MW10234   0.348   0.264   2.985 -0.1444  0.3914  0.0486
 1869Sol     OW10235   2.854   2.463   1.672 -0.5244 -0.2486  0.3306
 1869Sol     HW10236   2.913   2.539   1.670  0.9906 -1.4315 -1.2185
 1869Sol     HW10237   2.911   2.390   1.695 -1.9891 -0.9431  1.8786
 1869Sol     MW10238   2.865   2.464   1.674  0.6170  0.0374 -0.0743
 1870Sol     OW10239   1.635   3.227   7.490 -0.1234  0.4191 -0.4890
 1870Sol     HW10240   1.592   3.184   7.564  1.1676 -1.0288 -0.5511
 1870Sol     HW10241   1.681   3.301   7.528 -1.2943  0.9835 -0.1755
 1870Sol     MW10242   1.636   3.229   7.500  0.5416 -0.8005  0.1184
 1871Sol     OW10243   1.242   1.338   7.711 -0.8137  0.4480 -0.1922
 1871Sol     HW10244   1.278   1.252   7.690 -0.6596  0.1749  1.1409
 1871Sol     HW10245   1.151   1.321   7.736 -0.4371  0.5134  1.2504
 1871Sol     MW10246   1.237   1.329   7.711 -0.5973 -0.3285  0.2009
 1872Sol     OW10247   1.315   3.049   7.348  0.3057 -0.1662  0.2288
 1872Sol     HW10248   1.230   3.065   7.307 -1.0099 -1.0364  2.5295
 1872Sol     HW10249   1.346   3.136   7.373 -1.2014 -0.0545  1.8180
 1872Sol     MW10250   1.310   3.058   7.347 -0.2976  1.3560  0.0737
 1873Sol     OW10251   0.139   2.070   8.475  0.6446  0.4803  0.6100
 1873Sol     HW10252   0.154   1.977   8.459 -1.5585 -0.0012  1.0902
 1873Sol     HW10253   0.206   2.115   8.424  0.0911 -1.2870 -1.7697
 1873Sol     MW10254   0.146   2.065   8.469 -0.3457 -0.1759  0.5830
 1874Sol     OW10255   1.785   3.020   4.567 -0.1357  0.4618 -0.2562
 1874Sol     HW10256   1.872   3.001   4.602 -0.7063 -0.8999  0.4775
 1874Sol     HW10257   1.789   2.991   4.476  0.1898  0.4022 -0.2209
 1874Sol     MW10258   1.793   3.015   4.562  0.2383 -0.0511  0.3102
 1875Sol     OW10259   1.654   0.405   4.497 -0.4852  1.1328  0.1648
 1875Sol     HW10260   1.566   0.379   4.467 -1.6867  1.5006  3.2097
 1875Sol     HW10261   1.672   0.347   4.571  1.7493  1.2736 -0.2457
 1875Sol     MW10262   1.647   0.397   4.501 -0.2773 -0.0167 -0.1347
 1876Sol     OW10263   1.771   0.163   6.585  0.3294 -0.3589  0.4511
 1876Sol     HW10264   1.713   0.233   6.617 -0.1241 -1.1134  1.3247
 1876Sol     HW10265   1.719   0.084   6.595  0.6463 -0.7634 -1.0398
 1876Sol     MW10266   1.761   0.163   6.589 -0.2842  0.2424 -0.1964
 1877Sol     OW10267   0.206   3.309   5.030  0.3018 -0.0773  0.1332
 1877Sol     HW10268   0.293   3.298   5.069  1.0763  1.9329 -0.9055
 1877Sol     HW10269   0.190   3.228   4.982  1.4016 -0.6644  0.7417
 1877Sol     MW10270   0.212   3.301   5.029 -0.4086  0.4702  0.1947
 1878Sol     OW10271   0.506   2.449   4.603 -0.1632  0.2222 -0.0623
 1878Sol     HW10272   0.580   2.510   4.604  0.8525 -0.9010 -2.1903
 1878Sol     HW10273   0.428   2.506   4.606  0.7710  1.6366 -1.6213
 1878Sol     MW10274   0.505   2.460   4.603 -0.0872  0.1274 -1.1052
 1879Sol     OW10275   1.883   0.798   4.951  0.2718 -0.1436  0.2908
 1879Sol     HW10276   1.850   0.725   4.898 -1.5138  1.3089 -0.6921
 1879Sol     HW10277   1.867   0.771   5.041 -3.7877  0.4513 -0.1206
 1879Sol     MW10278   1.878   0.789   4.954  0.6221  0.2523 -0.3495
 1880Sol     OW10279   2.902   1.428   3.251 -0.2934 -0.2935  0.0447
 1880Sol     HW10280   2.929   1.354   3.198 -0.9866  0.5182 -1.4595
 1880Sol     HW10281   2.837   1.474   3.198 -1.5783  0.1089  1.8940
 1880Sol     MW10282   2.899   1.426   3.242  0.6978 -0.0463 -0.5674
 1881Sol     OW10283   0.441   1.915   9.127  0.3116 -0.1320  1.0296
 1881Sol     HW10284   0.358   1.919   9.175 -0.6707 -2.4630 -0.3683
 1881Sol     HW10285   0.460   1.821   9.122  2.4915  0.3343  0.3949
 1881Sol     MW10286   0.435   1.907   9.131  0.5742 -0.0618 -0.7245
 1882Sol     OW10287   2.441   3.364   7.225 -0.2111  0.2288 -0.3321
 1882Sol     HW10288   2.357   3.348   7.182 -0.3536 -2.0344  0.7451
 1882Sol     HW10289   2.418   3.408   7.307 -0.3217 -0.2099 -0.1292
 1882Sol     MW10290   2.431   3.367   7.228  0.2797  0.5369  0.3618
 1883Sol     OW10291   2.385   2.475   6.123  0.0573  0.3151 -0.5369
 1883Sol     HW10292   2.300   2.479   6.079 -1.0325 -1.3381  1.3547
 1883Sol     HW10293   2.422   2.391   6.098 -0.1682 -0.2427  0.9211
 1883Sol     MW10294   2.380   2.468   6.117 -0.3612 -0.3933 -0.8767
 1884Sol     OW10295   1.401   2.094   3.730  0.0439  0.2014 -0.2805
 1884Sol     HW10296   1.385   2.188   3.734 -0.0720  0.1164  2.1224
 1884Sol     HW10297   1.331   2.056   3.784  0.8528 -1.1403 -0.1640
 1884Sol     MW10298   1.393   2.099   3.735 -0.4653  0.0183 -0.1336
 1885Sol     OW10299   1.947   1.284   5.262  0.0596  0.0153 -0.3826
 1885Sol     HW10300   1.917   1.325   5.181 -0.3477  2.0671  0.7841
 1885Sol     HW10301   1.949   1.190   5.241 -2.4266  0.2613 -1.9914
 1885Sol     MW10302   1.945   1.279   5.253 -0.2955  0.1291  0.0382
 1886Sol     OW10303   0.767   2.076   6.932  0.4267  0.1382  0.1537
 1886Sol     HW10304   0.722   2.003   6.888  1.0972 -0.7403  0.9154
 1886Sol     HW10305   0.808   2.037   7.008  2.6446  0.8897 -0.6081
 1886Sol     MW10306   0.766   2.066   6.935  0.7002  1.1694  0.4098
 1887Sol     OW10307   1.083   2.396   2.521  0.9423 -0.5231 -0.2083
 1887Sol     HW10308   1.114   2.400   2.430  0.7129  2.1781 -0.2039
 1887Sol     HW10309   0.989   2.414   2.515  1.0113  0.1244  0.6156
 1887Sol     MW10310   1.077   2.398   2.512  0.3505  0.1047 -0.0334
 1888Sol     OW10311   2.178   1.341   9.702  0.2638  0.6632  0.1781
 1888Sol     HW10312   2.108   1.307   9.646 -0.6185  0.7247  1.2179
 1888Sol     HW10313   2.145   1.425   9.735  1.1104  1.0184  0.1429
 1888Sol     MW10314   2.169   1.345   9.700  0.4084  0.2245  0.0289
 1889Sol     OW10315   0.235   2.731   7.380  0.4118  0.0517 -0.1017
 1889Sol     HW10316   0.325   2.760   7.366  0.3195  0.7308  0.6262
 1889Sol     HW10317   0.237   2.636   7.368  1.2024  0.0791 -0.1812
 1889Sol     MW10318   0.243   2.725   7.378  0.1408 -0.3695  0.3454
 1890Sol     OW10319   0.729   2.151   2.605  0.2466  0.1974 -0.4942
 1890Sol     HW10320   0.729   2.210   2.529 -1.5927  2.2128  0.9841
 1890Sol     HW10321   0.678   2.076   2.577  0.0342  0.6751 -1.4266
 1890Sol     MW10322   0.725   2.150   2.596 -0.7893 -0.7661  0.3793
 1891Sol     OW10323   0.031   0.888   8.464 -0.3959 -0.3536  0.2073
 1891Sol     HW10324  -0.062   0.911   8.467  0.1704  2.1924 -0.0056
 1891Sol     HW10325   0.070   0.933   8.539  0.8859 -0.2024 -0.5197
 1891Sol     MW10326   0.026   0.895   8.471 -0.1501  0.1880 -0.0656
 1892Sol     OW10327   0.655   0.429   5.536  0.0039 -0.2269  0.4370
 1892Sol     HW10328   0.599   0.469   5.469  0.5587  1.8600  1.1577
 1892Sol     HW10329   0.598   0.419   5.612 -0.1423 -0.8221  0.2464
 1892Sol     MW10330   0.645   0.432   5.536 -0.6196 -0.0831  0.6537
 1893Sol     OW10331   1.218   2.819   4.927  0.6839 -0.1500  0.3832
 1893Sol     HW10332   1.252   2.904   4.955 -0.0322  0.1149  0.4511
 1893Sol     HW10333   1.289   2.781   4.876  1.5216 -0.0867  1.4813
 1893Sol     MW10334   1.227   2.823   4.925  0.4864 -0.2632  0.0856
 1894Sol     OW10335   1.125   3.263   5.180 -0.1171 -0.0992  0.4685
 1894Sol     HW10336   1.039   3.221   5.179 -0.0857 -0.2112  1.8298
 1894Sol     HW10337   1.182   3.200   5.225  0.0915  1.0790  1.8976
 1894Sol     MW10338   1.122   3.253   5.184  0.3852  0.2552 -0.3009
 1895Sol     OW10339   1.968   0.708   6.519  0.8417  0.2233 -0.0134
 1895Sol     HW10340   1.961   0.725   6.613  0.3545 -0.4360  0.0742
 1895Sol     HW10341   2.062   0.701   6.502  0.8952 -0.5356  0.5894
 1895Sol     MW10342   1.975   0.708   6.526  0.6217 -0.1856 -0.0307
 1896Sol     OW10343   2.813   3.037   4.906  0.7484  0.1510 -0.3714
 1896Sol     HW10344   2.867   3.101   4.953  1.3102 -0.7751  0.2526
 1896Sol     HW10345   2.861   3.022   4.825  0.3995  0.8288 -0.7139
 1896Sol     MW10346   2.822   3.042   4.903  0.7685  0.5273 -0.1515
 1897Sol     OW10347   1.428   1.525   4.856  0.4527 -0.0406  0.4515
 1897Sol     HW10348   1.430   1.430   4.858 -2.2897 -0.1497  0.7477
 1897Sol     HW10349   1.502   1.550   4.801  0.6639 -2.3954 -0.3812
 1897Sol     MW10350   1.435   1.519   4.851  0.2168 -0.3076 -0.1059
 1898Sol     OW10351   0.793   0.700   7.963  0.1437 -0.0084 -0.1054
 1898Sol     HW10352   0.778   0.606   7.952  1.1017 -0.4102  1.8115
 1898Sol     HW10353   0.705   0.738   7.964 -0.3937 -1.2058  1.5624
 1898Sol     MW10354   0.783   0.695   7.962  0.1793 -0.1970  0.0720
 1899Sol     OW10355   1.216   1.338   1.808  0.5358 -0.2309 -0.0194
 1899Sol     HW10356   1.211   1.349   1.903 -0.8416  0.8454 -0.2037
 1899Sol     HW10357   1.140   1.284   1.787  0.1319  0.5952 -0.6656
 1899Sol     MW10358   1.209   1.334   1.815 -0.6053 -0.3400  0.0076
 1900Sol     OW10359   2.179   0.391   8.333  0.3979  1.1047 -0.1092
 1900Sol     HW10360   2.174   0.373   8.239  1.3393  1.7256 -0.2833
 1900Sol     HW10361   2.124   0.468   8.345 -0.7768  0.2528  0.0679
 1900Sol     MW10362   2.173   0.396   8.326 -0.3236 -0.2126 -0.7658
 1901Sol     OW10363   2.780   2.745   8.426 -0.2294 -0.3373  0.0035
 1901Sol     HW10364   2.794   2.733   8.333 -1.0076 -1.0136 -0.0285
 1901Sol     HW10365   2.774   2.657   8.462 -1.9579 -0.0914  0.3659
 1901Sol     MW10366   2.781   2.736   8.421  0.0404 -0.5555 -0.5359
 1902Sol     OW10367   1.962   1.060   2.794  0.0566 -1.1323  0.3122
 1902Sol     HW10368   1.877   1.104   2.803  0.2879 -0.0231 -2.4416
 1902Sol     HW10369   2.018   1.104   2.858 -1.3589 -1.7209  1.9888
 1902Sol     MW10370   1.960   1.068   2.800  0.0302 -0.0061 -0.0488
 1903Sol     OW10371   2.822   2.591   6.349  0.3321  0.1898  0.5764
 1903Sol     HW10372   2.869   2.554   6.423  1.7823  0.9559  0.0674
 1903Sol     HW10373   2.846   2.683   6.349  0.6825  0.1251 -1.0661
 1903Sol     MW10374   2.828   2.596   6.356  0.5565 -0.0541  0.1877
 1904Sol     OW10375   0.086   0.654   9.819 -0.0840 -0.1237 -0.0025
 1904Sol     HW10376   0.040   0.571   9.811  0.2841 -0.2948 -0.3450
 1904Sol     HW10377   0.172   0.639   9.778 -0.7345  0.9928 -1.8481
 1904Sol     MW10378   0.090   0.646   9.815 -0.2006 -0.5009  0.0186
 1905Sol     OW10379   1.771   2.878   2.566  0.1851 -0.0547 -0.1881
 1905Sol     HW10380   1.714   2.937   2.614  0.5562  1.9588 -2.1604
 1905Sol     HW10381   1.711   2.820   2.519 -0.2122  0.6426 -0.5431
 1905Sol     MW10382   1.760   2.878   2.566 -0.1294  0.3141  0.2102
 1906Sol     OW10383   3.024   1.280   9.816  0.0717  0.1089  0.4037
 1906Sol     HW10384   3.099   1.237   9.855  1.4137  1.6705 -0.4008
 1906Sol     HW10385   2.954   1.214   9.819  1.0452 -0.8645  2.4478
 1906Sol     MW10386   3.024   1.270   9.819  0.0210  0.0111 -0.2021
 1907Sol     OW10387   2.261   2.937   1.813  0.4394 -0.2421 -0.3545
 1907Sol     HW10388   2.172   2.929   1.778 -0.4929  4.1967  0.6800
 1907Sol     HW10389   2.252   2.921   1.907  0.4750  1.3226 -0.0651
 1907Sol     MW10390   2.252   2.935   1.818 -0.0855 -0.1690  0.2000
 1908Sol     OW10391   0.639   0.333   2.075  0.2771 -0.0996 -0.7924
 1908Sol     HW10392   0.599   0.420   2.070 -1.0191 -0.7261 -1.2405
 1908Sol     HW10393   0.723   0.349   2.120  1.4780  1.8565 -3.5937
 1908Sol     MW10394   0.643   0.342   2.079  0.2764  0.7250 -0.4758
 1909Sol     OW10395   0.550   2.961   3.314  0.2777 -0.1178  0.4277
 1909Sol     HW10396   0.556   2.994   3.403  0.0177  0.8899  0.0712
 1909Sol     HW10397   0.471   3.001   3.278  1.0430  0.4515 -0.6540
 1909Sol     MW10398   0.544   2.967   3.319 -0.1923  0.8487 -0.8181
 1910Sol     OW10399   0.647   2.130   9.298  0.1326 -0.1502 -0.4786
 1910Sol     HW10400   0.731   2.163   9.332  0.8695 -1.6574 -0.7973
 1910Sol     HW10401   0.589   2.205   9.302  0.7114  0.2152  2.3861
 1910Sol     MW10402   0.650   2.140   9.302  0.3921 -0.3162  0.0803
 1911Sol     OW10403   1.943   3.333   3.903 -0.7819 -0.9546  0.0419
 1911Sol     HW10404   1.900   3.257   3.865 -2.6892  0.1000  0.0471
 1911Sol     HW10405   1.893   3.408   3.870  1.9519  0.4194 -1.1800
 1911Sol     MW10406   1.935   3.333   3.896 -0.0334  0.0326  0.1986
 1912Sol     OW10407   0.663   1.275   7.613 -0.1442 -0.0552 -0.2629
 1912Sol     HW10408   0.754   1.299   7.625 -0.7909  2.4382  0.0033
 1912Sol     HW10409   0.619   1.357   7.589 -2.5376 -0.9297  0.9041
 1912Sol     MW10410   0.667   1.284   7.612  0.4673  0.2378  0.0968
 1913Sol     OW10411   2.230   3.279   5.274  0.6980  0.1514 -0.1859
 1913Sol     HW10412   2.194   3.217   5.211 -0.6052  1.5408 -0.8406
 1913Sol     HW10413   2.286   3.337   5.222  0.7618  0.4073  0.1666
 1913Sol     MW10414   2.231   3.279   5.264 -0.2549  0.3547  0.0932
 1914Sol     OW10415   0.913   3.179   2.713 -0.6224  0.3771 -0.0137
 1914Sol     HW10416   0.915   3.267   2.674 -0.7659  0.7275  0.7512
 1914Sol     HW10417   0.833   3.179   2.765 -0.0214  0.1932  0.9115
 1914Sol     MW10418   0.906   3.187   2.714  0.2697 -0.0520  0.2559
 1915Sol     OW10419   1.770   0.116   3.761  0.7722 -0.1266 -0.3702
 1915Sol     HW10420   1.696   0.124   3.821  1.0357 -1.3398  0.1260
 1915Sol     HW10421   1.730   0.104   3.675  0.3973 -1.1336 -0.0531
 1915Sol     MW10422   1.760   0.116   3.758 -0.1059  0.6776  0.3245
 1916Sol     OW10423   2.450   1.803   7.046 -0.3244  0.0450 -0.7854
 1916Sol     HW10424   2.451   1.722   6.996 -0.2525  0.5286 -1.5791
 1916Sol     HW10425   2.536   1.808   7.088 -1.0899 -1.3666  1.0504
 1916Sol     MW10426   2.458   1.796   7.046  0.5718  0.5684  0.0060
 1917Sol     OW10427   0.038   1.405   6.588  0.2466 -0.1310  0.7305
 1917Sol     HW10428   0.116   1.434   6.540 -0.2796 -0.1990 -0.1914
 1917Sol     HW10429  -0.010   1.352   6.525 -1.0507  0.7489  0.9476
 1917Sol     MW10430   0.041   1.403   6.578 -0.6968  0.0327  0.7855
 1918Sol     OW10431   2.060   0.300   1.614  0.0586 -0.0089 -0.2930
 1918Sol     HW10432   2.055   0.205   1.616  0.3391 -0.0521 -1.0849
 1918Sol     HW10433   1.970   0.330   1.603 -0.2685 -0.0953  2.0524
 1918Sol     MW10434   2.052   0.294   1.613 -0.4626  0.0533 -0.1154
 1919Sol     OW10435   1.711   2.898   7.631 -0.0369 -0.0955 -0.2474
 1919Sol     HW10436   1.682   2.832   7.694  1.9219 -1.0964 -0.3460
 1919Sol     HW10437   1.643   2.898   7.564  1.0153 -3.7563 -1.4649
 1919Sol     MW10438   1.703   2.892   7.631  0.1159  0.7809  0.0745
 1920Sol     OW10439   2.137   2.799   6.148  0.1920 -0.3932  0.4360
 1920Sol     HW10440   2.219   2.783   6.102  1.1609 -2.3617  2.7105
 1920Sol     HW10441   2.160   2.864   6.215 -0.6450  0.7035 -0.3313
 1920Sol     MW10442   2.147   2.803   6.150 -0.3407 -0.1781  0.2771
 1921Sol     OW10443   2.808   1.816   6.118  0.6909 -0.5512 -0.2065
 1921Sol     HW10444   2.860   1.808   6.198  0.3495  2.1491  0.3265
 1921Sol     HW10445   2.817   1.907   6.092 -2.3609 -0.4262 -1.0604
 1921Sol     MW10446   2.813   1.823   6.123  0.1236 -0.4708 -0.0691
 1922Sol     OW10447   2.888   1.473   2.837  0.2827 -0.9499 -0.2048
 1922Sol     HW10448   2.835   1.449   2.760  0.8800 -1.0684 -0.5838
 1922Sol     HW10449   2.949   1.539   2.804  0.3196 -0.7588  0.2488
 1922Sol     MW10450   2.889   1.477   2.827  0.1454  0.4277 -0.4116
 1923Sol     OW10451   1.733   0.609   2.494  0.4085 -0.2280 -0.1479
 1923Sol     HW10452   1.747   0.663   2.416 -1.4875  0.5506  0.0259
 1923Sol     HW10453   1.642   0.581   2.489 -0.5288  1.8838  2.9837
 1923Sol     MW10454   1.727   0.612   2.487  0.5622 -0.1843 -0.5395
 1924Sol     OW10455   0.557   1.801   3.728 -0.1719 -0.2152 -0.0347
 1924Sol     HW10456   0.522   1.713   3.738  1.1065 -0.6862  0.4466
 1924Sol     HW10457   0.621   1.809   3.799 -0.1321  1.0279 -0.1999
 1924Sol     MW10458   0.560   1.794   3.735 -0.3863 -0.6413 -0.1268
 1925Sol     OW10459   0.122   1.630   4.906 -0.3332 -0.8794 -0.1667
 1925Sol     HW10460   0.210   1.599   4.928 -0.6349 -0.6962  1.3967
 1925Sol     HW10461   0.079   1.638   4.991 -1.8007 -0.7962 -0.9130
 1925Sol     MW10462   0.126   1.628   4.916 -0.0438  0.0581 -0.7282
 1926Sol     OW10463   1.113   0.598   8.068  0.3414  0.8065  0.4445
 1926Sol     HW10464   1.207   0.609   8.053  0.2079  2.0173  0.4332
 1926Sol     HW10465   1.098   0.504   8.057  1.2851  0.8171 -1.0487
 1926Sol     MW10466   1.120   0.590   8.066  0.0150  0.1586  0.1091
 1927Sol     OW10467   1.502   1.260   8.621  0.8648  0.6132 -0.4380
 1927Sol     HW10468   1.592   1.236   8.602  0.0762  0.4200 -4.4615
 1927Sol     HW10469   1.467   1.290   8.537 -2.3409  2.2453  1.3785
 1927Sol     MW10470   1.507   1.260   8.611  0.3510 -0.3282 -0.0171
 1928Sol     OW10471   0.981   1.580   4.840 -0.2518  0.2215 -0.1368
 1928Sol     HW10472   0.928   1.616   4.769  1.3783  1.5446 -0.7263
 1928Sol     HW10473   0.936   1.500   4.866 -0.4467 -0.7087 -3.1980
 1928Sol     MW10474   0.973   1.576   4.836  0.0767 -1.1413  0.1668
 1929Sol     OW10475   0.538   2.163   7.243 -0.3499 -0.5162 -0.1356
 1929Sol     HW10476   0.601   2.116   7.297 -0.0572 -1.2120 -1.0621
 1929Sol     HW10477   0.480   2.207   7.305  0.5487 -0.5400  0.7284
 1929Sol     MW10478   0.538   2.163   7.253  0.2628  0.1114 -0.3350
 1930Sol     OW10479   2.125   2.119   2.570 -0.5810 -0.2320  0.4349
 1930Sol     HW10480   2.031   2.129   2.560 -0.4225 -0.5424 -1.4295
 1930Sol     HW10481   2.158   2.209   2.581 -1.1178 -0.1567  1.5249
 1930Sol     MW10482   2.120   2.128   2.570  0.0197 -0.2451  0.2386
 1931Sol     OW10483   1.306   1.071   7.758  0.0823  0.3421  0.3002
 1931Sol     HW10484   1.295   1.035   7.846 -0.9353  0.3236  0.1663
 1931Sol     HW10485   1.235   1.033   7.708  1.5050 -0.7996 -0.9026
 1931Sol     MW10486   1.299   1.064   7.762  0.1067  0.2648 -0.3180
 1932Sol     OW10487   2.987   2.575   7.773 -0.2462 -0.0699  0.1534
 1932Sol     HW10488   3.060   2.635   7.786  0.3219 -0.4063 -1.3766
 1932Sol     HW10489   2.929   2.620   7.711  0.3175 -1.1914 -1.2172
 1932Sol     MW10490   2.988   2.584   7.768 -0.1225 -0.2808  0.2273
 1933Sol     OW10491   2.909   0.940  10.130 -1.2175 -0.6395 -0.2767
 1933Sol     HW10492   2.841   1.005  10.148  0.5312  0.5913  2.2233
 1933Sol     HW10493   2.861   0.858  10.118 -3.2281  0.4509  0.0549
 1933Sol     MW10494   2.898   0.938  10.131 -0.2528 -0.2342  0.1587
 1934Sol     OW10495   2.591   0.876   5.046  0.1696 -0.0358 -0.6670
 1934Sol     HW10496   2.526   0.935   5.007  0.6718  0.1123 -1.2897
 1934Sol     HW10497   2.653   0.858   4.976  1.0162  0.1209  0.0285
 1934Sol     MW10498   2.591   0.880   5.037 -0.1972  0.6299  0.0475
 1935Sol     OW10499   0.159   2.223   5.447  0.1686 -0.0656 -0.1840
 1935Sol     HW10500   0.159   2.146   5.504 -0.6622 -0.1817 -0.3371
 1935Sol     HW10501   0.141   2.297   5.505  1.0339  0.0233 -0.0263
 1935Sol     MW10502   0.157   2.223   5.457 -0.0904  0.4232 -0.2845
 1936Sol     OW10503   1.168   2.429   4.842 -0.2788 -0.0184  0.4035
 1936Sol     HW10504   1.210   2.487   4.779  0.5630 -0.6700  0.3700
 1936Sol     HW10505   1.074   2.443   4.828 -0.0871  0.4121 -0.4522
 1936Sol     MW10506   1.163   2.435   4.835  0.4028  0.9848  0.0432
 1937Sol     OW10507   1.388   2.060   7.578 -0.1776 -0.0662 -0.4185
 1937Sol     HW10508   1.361   2.139   7.531 -0.0802 -0.7435 -1.6320
 1937Sol     HW10509   1.475   2.041   7.543  0.1481 -0.2224  0.4900
 1937Sol     MW10510   1.393   2.065   7.570  0.1443 -0.6095  0.8126
 1938Sol     OW10511   1.694   1.759   7.467  0.2386 -0.3222 -0.0987
 1938Sol     HW10512   1.772   1.730   7.514  1.0625  1.4589 -0.3474
 1938Sol     HW10513   1.621   1.722   7.517  1.1881 -0.6857  1.0333
 1938Sol     MW10514   1.694   1.753   7.476 -0.0688 -0.5140  0.4373
 1939Sol     OW10515   2.830   2.515  10.019 -0.1902  0.3842 -0.1721
 1939Sol     HW10516   2.873   2.444  10.066  1.4770  1.1140 -0.5370
 1939Sol     HW10517   2.750   2.533  10.069 -0.3529 -1.3622  0.2202
 1939Sol     MW10518   2.827   2.511  10.028 -0.4639  0.4463  0.3904
 1940Sol     OW10519   2.618   2.047   6.639 -0.1477  0.8026  0.6081
 1940Sol     HW10520   2.533   2.090   6.638  0.0955  1.2704 -0.0644
 1940Sol     HW10521   2.651   2.059   6.728 -1.4342 -0.6628  1.3121
 1940Sol     MW10522   2.613   2.052   6.647 -0.5373 -0.0248  0.2426
 1941Sol     OW10523   2.615   3.332   4.407 -0.8936 -0.0710 -0.1433
 1941Sol     HW10524   2.686   3.301   4.351 -1.2917 -1.6795  0.2150
 1941Sol     HW10525   2.585   3.413   4.365  1.6464  1.0558  0.1338
 1941Sol     MW10526   2.619   3.337   4.398  0.3194  0.1946 -0.5186
 1942Sol     OW10527   0.851   2.748   1.505 -0.2302 -0.1686 -0.8570
 1942Sol     HW10528   0.877   2.824   1.558 -1.0921  0.4821 -1.3609
 1942Sol     HW10529   0.886   2.673   1.553  2.3343  0.6574 -1.3643
 1942Sol     MW10530   0.857   2.748   1.514  0.1140 -0.0150 -0.0389
 1943Sol     OW10531   0.615   1.730   7.639  0.0394 -0.1780  0.3555
 1943Sol     HW10532   0.634   1.822   7.656 -0.9854  0.3190 -1.0986
 1943Sol     HW10533   0.520   1.725   7.635  0.1230 -1.0130 -1.0769
 1943Sol     MW10534   0.608   1.737   7.640  0.7089  0.5764  0.0657
 1944Sol     OW10535   0.046   1.146   2.750 -0.3041 -0.2674 -0.3274
 1944Sol     HW10536   0.013   1.187   2.830 -1.0035 -0.8544 -0.3090
 1944Sol     HW10537   0.131   1.109   2.775 -0.0622  0.4154 -0.1228
 1944Sol     MW10538   0.051   1.146   2.759 -0.0756 -0.8501 -0.5971
 1945Sol     OW10539   0.167   0.969   6.014 -0.3415 -0.6191 -0.2147
 1945Sol     HW10540   0.158   0.961   5.919  0.4919 -0.8235 -0.2768
 1945Sol     HW10541   0.117   1.048   6.036 -3.5465 -2.5338 -0.3537
 1945Sol     MW10542   0.161   0.976   6.008  0.5923 -0.0118  0.4478
 1946Sol     OW10543   2.441   2.827   9.628  0.8261  0.1256 -0.1862
 1946Sol     HW10544   2.438   2.883   9.551  2.0333 -0.1541 -0.4449
 1946Sol     HW10545   2.507   2.868   9.685  0.1227  0.1918  0.5852
 1946Sol     MW10546   2.447   2.836   9.626 -0.0247  0.5221 -0.7679
 1947Sol     OW10547   1.154   1.317   4.973  0.1807 -0.1609 -0.2269
 1947Sol     HW10548   1.173   1.342   5.063  1.4071  0.9668 -0.7845
 1947Sol     HW10549   1.238   1.325   4.927 -0.8627  1.4180 -1.9506
 1947Sol     MW10550   1.163   1.320   4.977 -0.0194  0.0088 -0.2186
 1948Sol     OW10551   2.128   1.834   6.464 -0.5556  0.2895  0.0158
 1948Sol     HW10552   2.105   1.926   6.456 -0.0307  0.3509 -0.9463
 1948Sol     HW10553   2.080   1.791   6.392 -0.6465 -0.1535  0.3373
 1948Sol     MW10554   2.121   1.838   6.457 -0.0578 -0.1126 -0.4797
 1949Sol     OW10555   3.005   2.410   6.966 -0.5684  0.2162 -0.4693
 1949Sol     HW10556   2.939   2.415   6.897 -0.0500 -2.0988 -1.1774
 1949Sol     HW10557   2.982   2.330   7.015  0.9638  0.0794  0.0471
 1949Sol     MW10558   2.997   2.403   6.964 -0.6086 -0.3235  0.0559
 1950Sol     OW10559   2.530   2.880   4.296  0.5465  0.0539 -0.3194
 1950Sol     HW10560   2.465   2.812   4.307 -0.0546  0.7681  0.6489
 1950Sol     HW10561   2.488   2.960   4.328  0.0849  1.5473 -4.3497
 1950Sol     MW10562   2.521   2.881   4.300  0.4760 -0.3456 -0.4870
 1951Sol     OW10563   2.732   3.077   9.321  0.0883 -0.1161  0.2502
 1951Sol     HW10564   2.769   3.061   9.234 -0.9062 -0.4538 -0.1116
 1951Sol     HW10565   2.772   3.011   9.377 -0.8919 -1.2651 -0.3914
 1951Sol     MW10566   2.739   3.070   9.318  0.2577 -0.3094 -0.1983
 1952Sol     OW10567   1.479   1.844   9.813 -0.3180  0.1889  0.5429
 1952Sol     HW10568   1.516   1.756   9.824  0.0365  0.5177  2.0661
 1952Sol     HW10569   1.489   1.862   9.720  0.7513 -0.8996  0.4310
 1952Sol     MW10570   1.483   1.838   9.806 -0.5630 -0.3801  0.4442
 1953Sol     OW10571   1.002   2.614   6.303  0.5910  0.2277 -0.4091
 1953Sol     HW10572   1.070   2.657   6.251 -0.2336 -0.0047 -1.7262
 1953Sol     HW10573   1.041   2.531   6.330  1.4448  0.8757  0.3407
 1953Sol     MW10574   1.011   2.610   6.301  0.8511 -0.0869  0.5994
 1954Sol     OW10575   1.876   0.378   6.263  0.4848 -0.1034  0.0395
 1954Sol     HW10576   1.873   0.315   6.191 -0.5689  0.4825 -0.4335
 1954Sol     HW10577   1.923   0.332   6.333 -0.2850 -1.4147 -0.2961
 1954Sol     MW10578   1.880   0.368   6.263  0.3186  0.6247  0.3859
 1955Sol     OW10579   2.733   0.082   8.471  0.4626 -0.0218  0.1774
 1955Sol     HW10580   2.680   0.096   8.550 -0.0947  0.8275 -0.3458
 1955Sol     HW10581   2.782   0.002   8.490 -0.6552 -0.5617  0.8544
 1955Sol     MW10582   2.732   0.076   8.480  0.3255  0.0294  0.9403
 1956Sol     OW10583   0.341   1.032   6.898  0.1374 -0.2141 -0.2683
 1956Sol     HW10584   0.301   1.085   6.966  0.2133  0.6140 -0.8664
 1956Sol     HW10585   0.367   0.951   6.942 -2.0362 -0.6943  0.1449
 1956Sol     MW10586   0.340   1.029   6.908  0.4714  0.0549  0.2622
 1957Sol     OW10587   3.053   1.505   4.098  0.6680  0.0318 -0.5876
 1957Sol     HW10588   2.977   1.550   4.060  0.7988  0.1547 -0.7068
 1957Sol     HW10589   3.086   1.566   4.165  1.5898  0.6656 -1.6002
 1957Sol     MW10590   3.049   1.515   4.101 -0.1563  0.3387  0.1090
 1958Sol     OW10591   2.539   2.283   7.026  0.4795  0.1608  0.2744
 1958Sol     HW10592   2.458   2.251   6.986 -0.1452  1.4530  0.4770
 1958Sol     HW10593   2.558   2.365   6.979  0.7031  0.7712  1.4227
 1958Sol     MW10594   2.534   2.288   7.018  0.9407  0.2536  0.4766
 1959Sol     OW10595   2.959   2.018   4.985  0.3541  0.1361  0.3328
 1959Sol     HW10596   2.943   2.014   4.891  0.3705  0.3843  0.3184
 1959Sol     HW10597   3.050   2.045   4.993  0.4489 -0.2129  0.4190
 1959Sol     MW10598   2.965   2.020   4.978  0.1273 -0.6266 -0.5109
 1960Sol     OW10599   2.911   3.001   7.891 -0.3210  0.4878  0.2282
 1960Sol     HW10600   2.959   2.967   7.816  1.5268  0.8769  1.2043
 1960Sol     HW10601   2.825   3.022   7.856 -0.5739 -2.3920 -1.0509
 1960Sol     MW10602   2.908   3.000   7.881  0.0239  0.0861 -0.5524
 1961Sol     OW10603   2.656   0.779   8.364 -0.3871 -0.4411  0.0260
 1961Sol     HW10604   2.590   0.735   8.417 -0.7700 -0.7621 -0.7079
 1961Sol     HW10605   2.689   0.711   8.306  0.1470 -0.1318 -0.0327
 1961Sol     MW10606   2.653   0.769   8.364  1.0244 -0.7537 -0.2854
 1962Sol     OW10607   1.057   1.611   7.738 -0.3021  0.2053 -0.3787
 1962Sol     HW10608   1.055   1.691   7.685 -1.3282 -0.4009 -1.2738
 1962Sol     HW10609   1.104   1.548   7.683 -1.1148 -0.3404 -0.4443
 1962Sol     MW10610   1.061   1.613   7.728 -0.0777 -0.0144 -0.3458
 1963Sol     OW10611   2.929   0.213   5.953  0.5295  0.0566  0.3564
 1963Sol     HW10612   2.956   0.270   6.026 -1.8332  1.8673 -0.1369
 1963Sol     HW10613   2.861   0.157   5.991 -1.5622  1.8208 -0.7343
 1963Sol     MW10614   2.926   0.213   5.963 -0.0606  0.1890  0.0723
 1964Sol     OW10615   0.775   0.582   9.574 -0.1974  0.0492  0.1183
 1964Sol     HW10616   0.767   0.676   9.565 -1.1851 -0.0989 -0.5376
 1964Sol     HW10617   0.739   0.563   9.661  1.7936  0.4947  1.0612
 1964Sol     MW10618   0.771   0.588   9.581  0.1625 -0.1674 -0.2634
 1965Sol     OW10619   0.113   0.819   2.152  0.2116  0.1829  0.2785
 1965Sol     HW10620   0.074   0.786   2.071  0.9142 -0.7192  0.3092
 1965Sol     HW10621   0.084   0.758   2.220  2.1164 -0.8253  0.2176
 1965Sol     MW10622   0.107   0.811   2.151  0.0889  0.3793  0.3808
 1966Sol     OW10623   0.726   1.096   2.643  0.2889  0.2735 -0.3510
 1966Sol     HW10624   0.654   1.155   2.621 -1.0328 -0.8714  0.9038
 1966Sol     HW10625   0.781   1.148   2.702 -0.3930  0.5533  0.0402
 1966Sol     MW10626   0.725   1.106   2.646 -0.0141 -0.6194  0.0159
 1967Sol     OW10627   1.756   2.549   7.660  0.4925 -0.3349 -0.0444
 1967Sol     HW10628   1.744   2.610   7.733 -2.2963 -1.2660  0.3524
 1967Sol     HW10629   1.677   2.495   7.661  0.4518 -0.4590 -3.6847
 1967Sol     MW10630   1.748   2.549   7.666  0.4992  0.5085  0.2746
 1968Sol     OW10631   1.549   0.781   9.510  0.6152  0.3971  0.3233
 1968Sol     HW10632   1.558   0.802   9.603 -0.2877 -0.0799  0.5293
 1968Sol     HW10633   1.495   0.702   9.509 -0.4741  1.1340 -0.6570
 1968Sol     MW10634   1.545   0.776   9.518  0.7048 -0.4742  0.5629
 1969Sol     OW10635   1.187   2.460   8.436 -0.2869 -0.5972 -0.1050
 1969Sol     HW10636   1.197   2.485   8.527 -2.2909 -0.5830  0.1484
 1969Sol     HW10637   1.254   2.394   8.420  0.3776 -0.2508  1.2350
 1969Sol     MW10638   1.194   2.457   8.442 -0.0408  0.8874  0.7284
 1970Sol     OW10639   2.715   1.411  10.083 -0.3657 -0.0877  0.0092
 1970Sol     HW10640   2.759   1.428  10.166  0.2592  0.4530 -0.4276
 1970Sol     HW10641   2.778   1.438  10.016 -1.7801  1.7704 -0.6038
 1970Sol     MW10642   2.724   1.415  10.084 -0.0849 -0.0728 -0.3084
 1971Sol     OW10643   0.432   3.374   8.525 -0.5134  0.3929  0.7132
 1971Sol     HW10644   0.416   3.431   8.449  1.1358 -1.0540 -0.7658
 1971Sol     HW10645   0.358   3.390   8.583 -0.2487  3.8608  0.2354
 1971Sol     MW10646   0.424   3.381   8.523 -0.5606 -0.3530 -0.0950
 1972Sol     OW10647   1.087   2.140   3.720 -0.6420  0.1574  0.6150
 1972Sol     HW10648   1.019   2.073   3.721 -0.4794 -0.0213  0.1234
 1972Sol     HW10649   1.098   2.162   3.627 -0.1431  0.2952  0.7022
 1972Sol     MW10650   1.082   2.136   3.712  0.1466  0.3141  0.0503
 1973Sol     OW10651   2.582   0.454   3.111  0.1596 -0.5542  0.1202
 1973Sol     HW10652   2.514   0.521   3.111 -0.1311 -0.8505  0.4916
 1973Sol     HW10653   2.663   0.502   3.130 -0.2731 -0.5408  2.0284
 1973Sol     MW10654   2.583   0.464   3.112 -0.6539 -1.0825  0.3218
 1974Sol     OW10655   3.099   2.070   3.174 -1.0169 -0.1261  0.5877
 1974Sol     HW10656   3.105   2.080   3.269 -0.0813  1.0129  0.4195
 1974Sol     HW10657   3.150   1.992   3.154 -0.0118  0.4568  0.8668
 1974Sol     MW10658   3.104   2.064   3.181 -0.2107  0.3107 -0.4322
 1975Sol     OW10659   1.893   1.060   3.898 -0.5176  0.4477 -0.1551
 1975Sol     HW10660   1.873   1.103   3.981  1.4895 -1.2648  1.2834
 1975Sol     HW10661   1.946   1.123   3.849  0.8443  0.3147  1.1434
 1975Sol     MW10662   1.896   1.069   3.901 -0.4563  0.2521  0.8488
 1976Sol     OW10663   1.477   2.414   8.708  0.6387 -0.8742  0.4397
 1976Sol     HW10664   1.519   2.450   8.786  0.3772  1.9418 -0.6719
 1976Sol     HW10665   1.534   2.439   8.636 -2.0440  1.6774 -0.9217
 1976Sol     MW10666   1.485   2.419   8.709 -0.0441  0.2613  0.6179
 1977Sol     OW10667   0.597   3.152   6.434  0.5858 -0.1610 -0.1660
 1977Sol     HW10668   0.554   3.228   6.472 -0.0998 -0.8129  0.3866
 1977Sol     HW10669   0.543   3.078   6.462  1.4992 -0.8888 -0.3112
 1977Sol     MW10670   0.589   3.152   6.440  0.2923  0.7471 -0.5427
 1978Sol     OW10671   0.207   1.962   3.467 -0.1362 -0.0459 -0.5170
 1978Sol     HW10672   0.169   1.874   3.471  1.7136 -0.8617 -0.7741
 1978Sol     HW10673   0.132   2.019   3.448 -1.2664 -1.6258 -0.8854
 1978Sol     MW10674   0.196   1.960   3.465  0.0348 -0.0857 -0.1789
 1979Sol     OW10675   2.999   3.047   3.952  0.4120 -0.0358 -0.8257
 1979Sol     HW10676   2.954   3.033   3.868 -1.7257 -0.0488  0.3091
 1979Sol     HW10677   2.931   3.038   4.018  2.0758  0.0409  0.9369
 1979Sol     MW10678   2.989   3.045   3.950 -1.0637  0.0130  0.3193
 1980Sol     OW10679   2.290   1.320   6.579 -0.0093 -0.3229  0.0966
 1980Sol     HW10680   2.357   1.267   6.623  1.5609  1.5456  0.0145
 1980Sol     HW10681   2.309   1.310   6.486 -0.2141 -0.2903  0.0527
 1980Sol     MW10682   2.298   1.314   6.575  0.0653 -0.2211  0.6576
 1981Sol     OW10683   2.665   0.615   3.735  0.2710  0.1106  0.5218
 1981Sol     HW10684   2.753   0.642   3.764 -0.1388  0.6737  1.2534
 1981Sol     HW10685   2.618   0.596   3.816 -0.7993  1.3982  0.2056
 1981Sol     MW10686   2.669   0.615   3.745 -0.0923  0.4909  0.4855
 1982Sol     OW10687   1.634   0.738   1.811 -0.1287 -0.4361  0.1606
 1982Sol     HW10688   1.707   0.676   1.809  0.1049 -0.1543 -0.1060
 1982Sol     HW10689   1.626   0.763   1.903 -0.5293 -1.2177  0.3474
 1982Sol     MW10690   1.640   0.735   1.819 -0.0005  0.2284  0.3490
 1983Sol     OW10691   0.386   0.630   6.621  0.3606 -0.2445 -0.1146
 1983Sol     HW10692   0.327   0.675   6.681 -0.5766  0.8641 -1.8192
 1983Sol     HW10693   0.465   0.685   6.619 -0.5946  1.1545 -1.8150
 1983Sol     MW10694   0.388   0.639   6.626  0.2718  0.5038 -0.2042
 1984Sol     OW10695   0.278   0.618   4.752  0.3292  0.2483  0.1681
 1984Sol     HW10696   0.203   0.583   4.703  1.6904 -0.8194 -1.1928
 1984Sol     HW10697   0.319   0.540   4.792  2.4386  0.4405 -1.5479
 1984Sol     MW10698   0.275   0.608   4.751  0.3354 -0.0478 -0.4632
 1985Sol     OW10699   0.419   2.797   9.715 -0.2554 -0.0094  0.1477
 1985Sol     HW10700   0.488   2.760   9.660 -1.4615  0.3521 -1.6363
 1985Sol     HW10701   0.464   2.865   9.766  0.5151  1.0450 -1.8592
 1985Sol     MW10702   0.429   2.800   9.714 -0.1002  0.0765 -0.0468
 1986Sol     OW10703   0.809   2.205   5.827 -0.5764  0.3687  0.4777
 1986Sol     HW10704   0.764   2.202   5.911 -0.9985 -0.5325  0.2240
 1986Sol     HW10705   0.902   2.197   5.849 -0.4438  3.1093  1.0626
 1986Sol     MW10706   0.813   2.204   5.836 -0.0569  0.3181  0.2161
 1987Sol     OW10707   0.791   1.353   1.789 -0.4489 -0.3990  0.6906
 1987Sol     HW10708   0.845   1.385   1.862  1.2734  1.0163 -1.1497
 1987Sol     HW10709   0.851   1.300   1.737 -0.7795  1.3036 -1.4652
 1987Sol     MW10710   0.801   1.351   1.791  0.1118 -0.2773 -0.3614
 1988Sol     OW10711   2.690   1.003   3.808 -0.6358 -0.2138 -0.3702
 1988Sol     HW10712   2.690   0.922   3.858 -1.4180 -0.4201 -0.6906
 1988Sol     HW10713   2.641   1.065   3.862  0.3938  0.1929  0.1017
 1988Sol     MW10714   2.686   1.002   3.817  0.1476  0.4953 -0.5890
 1989Sol     OW10715   1.792   1.000  10.481 -0.3268  0.4973 -0.9826
 1989Sol     HW10716   1.725   0.998  10.412 -1.8757  2.8408  0.4102
 1989Sol     HW10717   1.862   1.055  10.444 -0.9022  1.2732 -0.9413
 1989Sol     MW10718   1.792   1.005  10.471 -0.3966  0.2893 -0.2612
 1990Sol     OW10719   0.786   2.962   3.638 -0.2474 -0.2216  0.1047
 1990Sol     HW10720   0.841   3.026   3.592  1.1362 -1.4995 -0.0636
 1990Sol     HW10721   0.791   2.883   3.583 -2.3960 -0.2973  0.0026
 1990Sol     MW10722   0.792   2.960   3.629  0.5931 -0.1229 -1.0429
 1991Sol     OW10723   0.982   3.048   3.247 -0.1632 -0.2848  0.4092
 1991Sol     HW10724   0.910   3.087   3.197 -0.1719 -0.2604  0.4407
 1991Sol     HW10725   1.047   3.024   3.180 -0.6664 -1.3059  0.2731
 1991Sol     MW10726   0.981   3.049   3.236  0.0334 -0.1173  0.6683
 1992Sol     OW10727   2.826   1.711   4.396  0.0722 -0.0608 -0.1241
 1992Sol     HW10728   2.857   1.621   4.405  1.4277  0.4697  0.7415
 1992Sol     HW10729   2.764   1.722   4.468 -0.4018 -0.4211 -0.4736
 1992Sol     MW10730   2.823   1.704   4.403 -0.2025  0.0820  0.0115
 1993Sol     OW10731   2.377   0.498   9.855  0.3300 -0.6315 -0.5550
 1993Sol     HW10732   2.304   0.438   9.840  0.3770 -1.1553  1.1897
 1993Sol     HW10733   2.430   0.455   9.922 -0.7875  2.3177  2.3392
 1993Sol     MW10734   2.376   0.489   9.859  0.2548  0.6605  0.0878
 1994Sol     OW10735   0.267   1.894   6.590 -0.5108  0.1369 -0.3793
 1994Sol     HW10736   0.278   1.831   6.519 -0.4699  0.0115 -0.2623
 1994Sol     HW10737   0.179   1.929   6.577  0.1347  1.3769 -1.5028
 1994Sol     MW10738   0.260   1.891   6.582 -0.2729 -0.2478  0.1933
 1995Sol     OW10739   0.058   1.372   2.586  0.2579 -0.1571  0.0503
 1995Sol     HW10740   0.094   1.343   2.502 -0.0080 -0.2718 -0.0263
 1995Sol     HW10741   0.033   1.291   2.631  0.3936 -0.0957  0.2390
 1995Sol     MW10742   0.059   1.362   2.583  0.1286 -0.4266  0.5320
 1996Sol     OW10743   1.030   3.060   5.416 -0.1990  0.4805 -0.2015
 1996Sol     HW10744   1.092   3.120   5.459  0.3029  2.4444 -3.5040
 1996Sol     HW10745   1.065   2.973   5.435  0.6232  1.3186  2.3851
 1996Sol     MW10746   1.039   3.057   5.422 -0.1800  0.1456  0.0130
 1997Sol     OW10747   0.457   2.181   8.996 -0.0999 -0.2806 -0.2932
 1997Sol     HW10748   0.543   2.187   8.954  0.0199 -2.0643 -0.3381
 1997Sol     HW10749   0.455   2.094   9.034 -0.8509  0.7263  2.0484
 1997Sol     MW10750   0.464   2.174   8.996  0.4825 -0.2907 -0.3651
 1998Sol     OW10751   0.536   0.871   5.728  0.9397  0.5228 -0.0263
 1998Sol     HW10752   0.545   0.802   5.794 -0.8304 -1.8906 -2.2247
 1998Sol     HW10753   0.614   0.862   5.673  0.2574 -0.2897 -0.8489
 1998Sol     MW10754   0.544   0.864   5.729  0.4311  0.3651  0.6528
 1999Sol     OW10755   1.592   1.170   5.154  0.0311 -0.0327  0.1733
 1999Sol     HW10756   1.624   1.252   5.192 -1.2093  0.7447 -0.4512
 1999Sol     HW10757   1.672   1.119   5.139  0.7399  0.6411  1.4948
 1999Sol     MW10758   1.602   1.173   5.156  1.0564  0.1088 -0.2340
 2000Sol     OW10759   2.398   2.074   2.061  0.0342 -0.0064  0.6918
 2000Sol     HW10760   2.478   2.030   2.091  0.7894  0.2494 -0.9084
 2000Sol     HW10761   2.327   2.015   2.087  0.9311 -1.4836 -0.1497
 2000Sol     MW10762   2.399   2.065   2.066 -0.3463 -0.6145 -0.6376
 2001Sol     OW10763   2.849   2.064   1.754  0.2109  0.0891  0.3035
 2001Sol     HW10764   2.930   2.014   1.748 -0.5040 -0.8303 -2.7726
 2001Sol     HW10765   2.873   2.142   1.804  2.1022 -1.7743  2.4573
 2001Sol     MW10766   2.858   2.067   1.758  0.3957  0.0899 -0.7181
 2002Sol     OW10767   0.469   1.707   2.255 -0.0210  0.1340 -0.1749
 2002Sol     HW10768   0.454   1.697   2.161 -0.1404 -1.5897  0.0135
 2002Sol     HW10769   0.559   1.739   2.262 -0.0352  0.3272 -0.8769
 2002Sol     MW10770   0.476   1.709   2.248  0.2550  0.5631 -0.1188
 2003Sol     OW10771   0.995   2.523   5.266  0.6629  0.0892  0.0302
 2003Sol     HW10772   0.984   2.429   5.258  0.5243 -0.1256  2.2963
 2003Sol     HW10773   0.909   2.556   5.291  0.5899  0.8954 -1.2124
 2003Sol     MW10774   0.987   2.518   5.268 -0.9108 -0.5328 -1.3812
 2004Sol     OW10775   0.828   0.070   6.872 -0.7118 -0.1530 -0.3514
 2004Sol     HW10776   0.754   0.095   6.817 -0.8975 -0.7187 -0.3677
 2004Sol     HW10777   0.789   0.016   6.941 -0.2093 -1.2251 -0.8819
 2004Sol     MW10778   0.818   0.067   6.873 -0.3740 -0.2426  0.6590
 2005Sol     OW10779   1.643   0.986   2.433  0.1393 -0.1583 -0.8033
 2005Sol     HW10780   1.677   0.915   2.379 -2.4303 -0.6779 -1.8071
 2005Sol     HW10781   1.559   0.953   2.466 -0.2963  1.7772  0.0928
 2005Sol     MW10782   1.639   0.977   2.431 -0.2615  0.0908 -0.3176
 2006Sol     OW10783   1.623   2.361   3.203 -0.4540  0.0853  0.0121
 2006Sol     HW10784   1.698   2.417   3.182 -0.5122 -0.2279 -1.0415
 2006Sol     HW10785   1.576   2.350   3.120 -0.1992 -1.8655  0.0931
 2006Sol     MW10786   1.626   2.365   3.194 -0.5759  0.2804  0.0078
 2007Sol     OW10787   1.821   0.355   7.022  0.4844  0.5351  0.4719
 2007Sol     HW10788   1.765   0.288   6.984  0.6652  0.9867 -0.6075
 2007Sol     HW10789   1.835   0.418   6.952  0.5647  1.5558  1.3782
 2007Sol     MW10790   1.817   0.355   7.013  0.8074 -0.5700  1.2360
 2008Sol     OW10791   2.038   0.204   7.109 -0.0250 -0.0488 -0.3852
 2008Sol     HW10792   1.968   0.268   7.103 -0.7900 -0.8985 -0.6557
 2008Sol     HW10793   2.057   0.181   7.018  0.2288 -0.2211 -0.2893
 2008Sol     MW10794   2.033   0.207   7.101 -0.0652  0.5300 -0.1916
 2009Sol     OW10795   2.836   2.459   6.101  0.0912 -0.0134 -0.6002
 2009Sol     HW10796   2.791   2.381   6.132 -0.0358  0.3436  0.1192
 2009Sol     HW10797   2.850   2.512   6.180 -1.6755  1.6477 -1.3656
 2009Sol     MW10798   2.833   2.457   6.111  0.2382 -1.1098  0.2649
 2010Sol     OW10799   0.475   3.072   5.400 -0.5853  0.1904 -0.2939
 2010Sol     HW10800   0.469   2.996   5.458 -0.5235  1.3240  1.2231
 2010Sol     HW10801   0.463   3.147   5.457 -1.2073  1.3188 -1.8719
 2010Sol     MW10802   0.474   3.072   5.410 -0.0846 -0.0424  0.0879
 2011Sol     OW10803   2.406   0.573   9.326  0.4387 -0.5528  0.4673
 2011Sol     HW10804   2.384   0.540   9.413 -0.1987  1.6032  1.1698
 2011Sol     HW10805   2.462   0.649   9.343  1.8194 -1.1890 -1.0779
 2011Sol     MW10806   2.409   0.577   9.335 -0.1481  0.3859  0.0994
 2012Sol     OW10807   1.202   1.971   4.405 -0.5293  0.3637 -0.1367
 2012Sol     HW10808   1.187   2.057   4.445 -0.2175  1.5264 -2.4358
 2012Sol     HW10809   1.260   1.926   4.466 -1.9027  1.1947  1.8467
 2012Sol     MW10810   1.206   1.975   4.414 -0.3848 -0.5406  0.0318
 2013Sol     OW10811   0.443   3.405   4.631  0.1941 -0.3669  0.2729
 2013Sol     HW10812   0.480   3.488   4.662  3.1003 -1.2872 -0.5757
 2013Sol     HW10813   0.498   3.338   4.672 -0.3482 -1.7668 -1.2604
 2013Sol     MW10814   0.452   3.407   4.638  0.1912  0.7580  0.4720
 2014Sol     OW10815   2.816   2.729   8.152 -0.1596  0.0449 -0.2312
 2014Sol     HW10816   2.871   2.807   8.162  0.6849 -0.5285 -0.3096
 2014Sol     HW10817   2.878   2.659   8.135 -0.9889 -0.4614 -1.2078
 2014Sol     MW10818   2.827   2.730   8.151  0.3808 -0.0250  0.1998
 2015Sol     OW10819   0.251   2.048   7.277 -0.2997 -0.1462 -0.1737
 2015Sol     HW10820   0.318   1.984   7.254  0.8573  0.6248  1.0267
 2015Sol     HW10821   0.261   2.118   7.213 -1.4374 -1.0337 -1.3659
 2015Sol     MW10822   0.258   2.048   7.269  0.1232 -0.3154  0.1691
 2016Sol     OW10823   0.225   1.961   1.463 -0.5241 -0.5197  0.1733
 2016Sol     HW10824   0.161   1.985   1.396 -0.1878  1.4062  0.5010
 2016Sol     HW10825   0.228   2.038   1.521  1.3206 -0.9984  0.7328
 2016Sol     MW10826   0.219   1.970   1.462 -0.0449 -0.0704 -0.4800
 2017Sol     OW10827   0.047   0.168   3.052  0.1842  0.3566 -0.7776
 2017Sol     HW10828  -0.044   0.146   3.033  0.2243 -0.0820 -0.4676
 2017Sol     HW10829   0.047   0.192   3.144  0.0698  2.0606 -1.2177
 2017Sol     MW10830   0.039   0.168   3.059  0.2030 -0.3931 -0.0911
 2018Sol     OW10831   2.288   1.864   3.451  0.0102  0.0268  0.1180
 2018Sol     HW10832   2.253   1.776   3.438 -0.5550  0.3913 -0.8847
 2018Sol     HW10833   2.241   1.898   3.527  1.1635 -1.0089  1.3279
 2018Sol     MW10834   2.281   1.859   3.456  0.3903 -0.1098 -0.3168
 2019Sol     OW10835   1.334   2.199   6.337  0.0026  0.2499 -0.7821
 2019Sol     HW10836   1.380   2.216   6.419 -0.0385  0.4747 -0.8048
 2019Sol     HW10837   1.351   2.276   6.284 -0.8135  0.5577 -0.6043
 2019Sol     MW10838   1.340   2.207   6.340 -0.0844 -0.2456  0.4754
 2020Sol     OW10839   2.807   1.242   4.146  0.3458 -0.6679  0.7086
 2020Sol     HW10840   2.731   1.230   4.089  0.3789 -0.6163  0.6526
 2020Sol     HW10841   2.829   1.335   4.136  0.9781 -0.8848  0.0047
 2020Sol     MW10842   2.803   1.250   4.140  0.0116  0.7522  0.1530
 2021Sol     OW10843   1.701   2.542   3.526 -0.4879 -0.4922 -0.3158
 2021Sol     HW10844   1.752   2.555   3.446 -0.3283  2.1363  0.1642
 2021Sol     HW10845   1.674   2.631   3.551 -4.3516 -1.6912  0.0664
 2021Sol     MW10846   1.703   2.552   3.521  0.2012  0.9761 -0.2216
 2022Sol     OW10847   1.969   2.008   4.004  0.2730 -0.0681 -1.0456
 2022Sol     HW10848   1.894   2.006   3.945  0.4764  2.0633 -1.4312
 2022Sol     HW10849   1.989   2.101   4.014  0.9154 -0.4369  1.5495
 2022Sol     MW10850   1.964   2.016   4.000  0.1272  0.5755 -0.2637
 2023Sol     OW10851   2.607   2.162   3.152 -0.6763  0.1969 -0.2568
 2023Sol     HW10852   2.685   2.109   3.136 -0.3000  0.0402  1.8698
 2023Sol     HW10853   2.630   2.249   3.122 -0.2218 -0.1786 -1.0107
 2023Sol     MW10854   2.616   2.165   3.148  0.5847  0.4157  0.3024
 2024Sol     OW10855   1.412   2.613   2.311 -0.8924 -0.4650  0.0727
 2024Sol     HW10856   1.356   2.663   2.370 -1.8246 -1.3106 -0.0944
 2024Sol     HW10857   1.434   2.674   2.240  0.6787  0.7316  1.5409
 2024Sol     MW10858   1.409   2.623   2.310  0.0296 -0.1661  0.2476
 2025Sol     OW10859   2.963   1.781   6.367  0.3213 -0.2878  0.4264
 2025Sol     HW10860   2.999   1.715   6.426  1.1161 -0.3176 -0.0912
 2025Sol     HW10861   2.958   1.860   6.421  1.5920 -0.1671  0.3847
 2025Sol     MW10862   2.966   1.782   6.377 -0.3953  0.2970  0.5429
 2026Sol     OW10863   1.216   1.141   3.379 -0.1626 -0.0128 -0.7512
 2026Sol     HW10864   1.133   1.159   3.334  0.0258  0.8127 -0.7796
 2026Sol     HW10865   1.258   1.073   3.327 -0.7023 -0.2373 -0.8906
 2026Sol     MW10866   1.212   1.136   3.370  0.0704 -0.3510  0.0800
 2027Sol     OW10867   2.135   2.921   9.783  0.0475  0.1662 -0.2318
 2027Sol     HW10868   2.097   2.885   9.703  0.5045 -0.5095 -0.1475
 2027Sol     HW10869   2.213   2.868   9.799  0.3254  0.7265  0.2963
 2027Sol     MW10870   2.139   2.913   9.777 -0.3118  0.6487 -0.3312
 2028Sol     OW10871   2.706   1.155  10.173  0.2512 -0.1144  0.2546
 2028Sol     HW10872   2.620   1.116  10.158 -0.0376  0.1712  1.1271
 2028Sol     HW10873   2.708   1.233  10.119  1.3933 -2.0780 -2.6728
 2028Sol     MW10874   2.699   1.158  10.167  0.3968 -0.0595  0.0644
 2029Sol     OW10875   1.697   0.590   9.725  0.0788  0.0064  0.3473
 2029Sol     HW10876   1.744   0.520   9.770 -0.7748 -1.0756 -0.4195
 2029Sol     HW10877   1.615   0.549   9.695  0.5880  0.6981 -2.1289
 2029Sol     MW10878   1.694   0.580   9.726 -0.0376 -0.0217  0.0404
 2030Sol     OW10879   1.242   1.338   5.253 -0.2664 -0.0004 -0.1374
 2030Sol     HW10880   1.261   1.251   5.287  2.0407 -0.2022 -1.8337
 2030Sol     HW10881   1.232   1.392   5.331  2.0500 -1.0334  0.9150
 2030Sol     MW10882   1.243   1.335   5.263 -0.1824  0.0852 -0.1932
 2031Sol     OW10883   2.697   0.145   2.313 -1.0640  0.4592  0.5570
 2031Sol     HW10884   2.641   0.209   2.269  0.4901  0.8145 -0.9429
 2031Sol     HW10885   2.759   0.117   2.245 -1.3235 -2.1567  1.3691
 2031Sol     MW10886   2.698   0.148   2.303 -0.2184  0.3898 -0.2787
 2032Sol     OW10887   0.567   2.575   5.727 -0.1889 -0.6279 -0.0220
 2032Sol     HW10888   0.526   2.535   5.804  0.4878  0.0310  0.6861
 2032Sol     HW10889   0.614   2.503   5.685 -1.4952 -1.2385 -0.4600
 2032Sol     MW10890   0.567   2.565   5.730  0.0962  0.0220  0.0824
 2033Sol     OW10891   1.558   0.395   4.167 -0.2648 -0.3836  0.0504
 2033Sol     HW10892   1.479   0.447   4.151 -0.2249 -0.1646  0.5504
 2033Sol     HW10893   1.526   0.305   4.169 -0.3408 -0.3751 -0.7785
 2033Sol     MW10894   1.548   0.392   4.166 -0.0595  0.2497  0.0546
 2034Sol     OW10895   0.409   3.342  10.221 -0.0399  0.4254 -0.2092
 2034Sol     HW10896   0.478   3.336  10.287 -0.4333  0.6057  0.2160
 2034Sol     HW10897   0.455   3.334  10.137  0.4409  0.0768  0.0911
 2034Sol     MW10898   0.419   3.341  10.219 -0.4255 -0.2235  0.2958
 2035Sol     OW10899   0.461   1.923   1.621 -0.3657  0.3559 -0.1259
 2035Sol     HW10900   0.390   1.930   1.557 -0.2374  0.6755 -0.2368
 2035Sol     HW10901   0.506   2.008   1.616  0.9469 -0.3729 -1.1570
 2035Sol     MW10902   0.459   1.931   1.615 -0.7261 -0.2792 -0.4828
 2036Sol     OW10903   2.833   3.344   4.708  0.1127  0.3816 -0.2381
 2036Sol     HW10904   2.803   3.422   4.662 -1.3060 -0.0416 -0.0739
 2036Sol     HW10905   2.869   3.287   4.640 -0.4083  0.4744 -0.5932
 2036Sol     MW10906   2.833   3.346   4.698 -1.0521  0.2756 -0.3538
 2037Sol     OW10907   1.821   2.984   4.298  0.7120  0.5272  0.0017
 2037Sol     HW10908   1.746   3.032   4.264 -2.3234 -0.7498  4.4432
 2037Sol     HW10909   1.889   3.050   4.309 -1.0539  2.4739 -0.4580
 2037Sol     MW10910   1.821   2.994   4.296  0.4234  0.5785 -0.1708
 2038Sol     OW10911   1.284   3.095   5.012 -0.6087 -0.1021 -0.6023
 2038Sol     HW10912   1.340   3.084   5.089 -0.5446  1.6394 -0.3845
 2038Sol     HW10913   1.216   3.156   5.040 -1.1977 -0.2864 -1.6148
 2038Sol     MW10914   1.283   3.100   5.021 -0.0596 -0.5409 -0.0071
 2039Sol     OW10915   2.944   3.208   4.488  0.0845  0.0380 -0.2412
 2039Sol     HW10916   3.037   3.204   4.468 -0.1071 -1.9191 -0.8655
 2039Sol     HW10917   2.903   3.227   4.403 -0.3669 -3.4041 -0.8743
 2039Sol     MW10918   2.949   3.209   4.478 -0.2369 -0.2154  0.6886
 2040Sol     OW10919   1.254   1.975   3.946 -0.0481  0.1230 -0.3193
 2040Sol     HW10920   1.222   2.036   4.013  1.8859  0.9124 -0.0853
 2040Sol     HW10921   1.335   1.939   3.983 -1.0491 -2.4614 -0.5523
 2040Sol     MW10922   1.258   1.977   3.956 -0.4316  0.4771  0.2393
 2041Sol     OW10923   1.315   2.130   3.174 -0.1286  0.1132 -0.2103
 2041Sol     HW10924   1.357   2.178   3.245 -0.0831  0.2323 -0.3181
 2041Sol     HW10925   1.229   2.106   3.209 -0.1623  0.2970 -0.1651
 2041Sol     MW10926   1.311   2.132   3.183  0.3517  0.4267 -0.4038
 2042Sol     OW10927   2.832   0.499   5.080 -0.1627  0.0318  0.2346
 2042Sol     HW10928   2.743   0.530   5.101 -0.3380 -0.3284  0.0209
 2042Sol     HW10929   2.872   0.573   5.035 -0.5846 -0.0502 -0.2798
 2042Sol     MW10930   2.827   0.508   5.078 -0.4586  0.8197 -0.1957
 2043Sol     OW10931   0.317   1.081   6.415 -0.4512 -0.0156 -0.0472
 2043Sol     HW10932   0.395   1.085   6.470 -1.8899  0.3746  2.0085
 2043Sol     HW10933   0.297   0.988   6.407 -0.6884 -0.0352  0.7505
 2043Sol     MW10934   0.322   1.073   6.419  0.1989  0.4069 -0.0056
 2044Sol     OW10935   0.767   0.051   1.755 -0.6899 -0.3870  0.3252
 2044Sol     HW10936   0.725   0.136   1.741 -0.7872 -0.5962 -0.7511
 2044Sol     HW10937   0.697  -0.012   1.737 -0.0854 -0.7269 -0.8948
 2044Sol     MW10938   0.757   0.053   1.752  0.7322 -0.4840  0.2769
 2045Sol     OW10939   0.523   3.022   9.868 -0.1296 -0.1298  0.1077
 2045Sol     HW10940   0.495   3.110   9.894 -0.0781  0.5569 -2.0988
 2045Sol     HW10941   0.611   3.034   9.834  1.0612 -1.5371  2.5087
 2045Sol     MW10942   0.528   3.031   9.868  0.1576 -0.4638 -0.9048
 2046Sol     OW10943   0.510   0.087   8.031  0.0968 -0.0998 -0.1753
 2046Sol     HW10944   0.433   0.032   8.046  0.5320 -0.3372  1.2807
 2046Sol     HW10945   0.496   0.164   8.085  0.0997  0.6430 -1.2115
 2046Sol     MW10946   0.502   0.089   8.037 -0.0978 -0.0763  0.4202
 2047Sol     OW10947   0.634   0.245   3.523  0.3712  0.3936 -0.3462
 2047Sol     HW10948   0.722   0.279   3.538  0.4993 -0.6802  1.5104
 2047Sol     HW10949   0.641   0.151   3.543 -0.3297 -0.4661 -3.8424
 2047Sol     MW10950   0.643   0.239   3.526  0.5951 -0.0726  0.0026
 2048Sol     OW10951   2.379   1.011   4.967  0.4452 -0.2683  0.2592
 2048Sol     HW10952   2.304   0.955   4.985  0.1306  0.2587  0.6179
 2048Sol     HW10953   2.371   1.082   5.031  0.6276  0.3751 -0.4290
 2048Sol     MW10954   2.371   1.013   4.974  0.1976  0.0265 -0.1719
 2049Sol     OW10955   0.216   1.398   5.978  0.0341  0.0022 -0.1178
 2049Sol     HW10956   0.211   1.404   6.074  0.9374 -1.2679  0.0228
 2049Sol     HW10957   0.264   1.317   5.962 -1.4992 -0.6148 -1.6751
 2049Sol     MW10958   0.220   1.391   5.985 -0.1597  0.4430  0.1318
 2050Sol     OW10959   3.071   1.875   8.975 -0.3579  0.4566 -0.1146
 2050Sol     HW10960   2.989   1.856   8.929 -0.1628 -1.3957  0.2532
 2050Sol     HW10961   3.123   1.925   8.913 -0.4461 -1.2507 -1.6044
 2050Sol     MW10962   3.068   1.878   8.966  0.0546 -0.2883 -0.6691
 2051Sol     OW10963   0.165   1.015  10.254  0.0032  0.2381  0.2230
 2051Sol     HW10964   0.104   1.022  10.181  0.3093 -0.4149 -0.1021
 2051Sol     HW10965   0.120   0.963  10.319 -0.2188  0.7079  0.4452
 2051Sol     MW10966   0.156   1.011  10.253  0.2845 -0.2093 -0.0748
 2052Sol     OW10967   1.452   0.859   2.574  0.2064 -0.0727  0.1853
 2052Sol     HW10968   1.526   0.856   2.635  0.2296  0.3645  0.1841
 2052Sol     HW10969   1.417   0.770   2.575  0.0207 -0.0004  1.0770
 2052Sol     MW10970   1.456   0.851   2.580  0.5492  0.3442 -0.3021
 2053Sol     OW10971   0.252   1.551   3.287  1.1448  0.0706 -0.4413
 2053Sol     HW10972   0.296   1.474   3.323 -1.3412 -0.9342  0.5251
 2053Sol     HW10973   0.213   1.594   3.363 -0.4783  0.3209 -1.3918
 2053Sol     MW10974   0.252   1.548   3.297 -0.2004 -0.2167  0.2955
 2054Sol     OW10975   1.336   1.782   4.554 -0.2462  0.1328 -0.0147
 2054Sol     HW10976   1.314   1.787   4.647 -1.5709 -1.1095 -0.2330
 2054Sol     HW10977   1.269   1.723   4.517  1.0491 -0.4426 -1.4923
 2054Sol     MW10978   1.328   1.777   4.559 -0.3355  0.0050 -0.7899
 2055Sol     OW10979   0.762   0.731   5.355 -0.2720  0.0937 -0.7046
 2055Sol     HW10980   0.754   0.780   5.437 -0.8278  1.1932 -1.3990
 2055Sol     HW10981   0.683   0.677   5.351  0.3064 -0.8308  0.0261
 2055Sol     MW10982   0.754   0.731   5.362 -0.0453 -0.4058  0.0502
 2056Sol     OW10983   2.243   0.712   6.130  0.1910 -0.1540 -0.3113
 2056Sol     HW10984   2.334   0.703   6.104  0.7620 -1.3023  1.9424
 2056Sol     HW10985   2.206   0.624   6.121  0.3642 -0.5588  2.4327
 2056Sol     MW10986   2.248   0.704   6.127  0.4629 -0.0940 -0.3396
 2057Sol     OW10987   0.277   2.477   7.233 -0.2962  0.4708  0.1830
 2057Sol     HW10988   0.183   2.466   7.222 -0.4215  0.3989  1.3422
 2057Sol     HW10989   0.305   2.521   7.152 -1.1181 -0.5883 -0.7063
 2057Sol     MW10990   0.271   2.480   7.224  0.9071 -1.0396 -0.1844
 2058Sol     OW10991   0.948   3.390   4.100  0.0090  0.0610  0.9614
 2058Sol     HW10992   0.977   3.302   4.122  0.0957 -0.3459 -0.7083
 2058Sol     HW10993   0.945   3.436   4.184  1.0768 -1.1972  1.7090
 2058Sol     MW10994   0.951   3.387   4.110 -0.4847  0.0812 -0.9563
 2059Sol     OW10995   1.298   0.294   7.359  0.0815  0.5952  0.4234
 2059Sol     HW10996   1.215   0.265   7.397 -1.3234  1.1366 -2.1540
 2059Sol     HW10997   1.325   0.221   7.303  0.0040  1.4848 -0.7816
 2059Sol     MW10998   1.293   0.285   7.357  0.6117  0.2934  0.1741
 2060Sol     OW10999   0.398   3.029   2.567  0.0213 -0.3116  0.2690
 2060Sol     HW11000   0.374   2.955   2.622  1.5813 -1.3237 -0.3788
 2060Sol     HW11001   0.478   3.001   2.523  0.9858  1.9941  0.4986
 2060Sol     MW11002   0.403   3.020   2.568 -0.0763 -0.3201 -0.4722
 2061Sol     OW11003   2.381   1.001   6.592  0.2918  0.2588 -0.0388
 2061Sol     HW11004   2.290   0.999   6.563  0.1286 -1.1660  0.5823
 2061Sol     HW11005   2.427   0.942   6.533  0.8541  1.0671 -0.4300
 2061Sol     MW11006   2.377   0.996   6.584 -0.8064 -0.2892 -0.0357
 2062Sol     OW11007   2.788   1.510   6.928  0.0599  0.2268  0.0976
 2062Sol     HW11008   2.881   1.486   6.921 -0.5713 -2.1140 -0.6926
 2062Sol     HW11009   2.749   1.442   6.982 -1.0689  1.6399  1.1027
 2062Sol     MW11010   2.793   1.502   6.932  0.0885  0.7095  0.0822
 2063Sol     OW11011   2.510   2.191   9.379 -0.5627 -0.7558 -0.5442
 2063Sol     HW11012   2.493   2.217   9.470 -0.7338 -2.5013 -0.0450
 2063Sol     HW11013   2.599   2.219   9.362  1.1073 -4.3113  1.6861
 2063Sol     MW11014   2.516   2.196   9.386  0.0121 -0.4374  0.0271
 2064Sol     OW11015   1.489   1.293   2.949  0.0578  0.3844  0.1551
 2064Sol     HW11016   1.473   1.312   2.857  1.0071 -0.3146 -0.1570
 2064Sol     HW11017   1.431   1.353   2.996  0.8260  1.9568 -0.8571
 2064Sol     MW11018   1.482   1.300   2.945  0.3061  0.5263 -0.3996
 2065Sol     OW11019   2.399   0.028   6.584  0.7521 -0.4519 -0.4354
 2065Sol     HW11020   2.431   0.108   6.625  1.7960 -1.3990  0.6420
 2065Sol     HW11021   2.467   0.005   6.520  0.3197 -0.3274 -0.9436
 2065Sol     MW11022   2.408   0.033   6.582 -0.2889  0.0135 -0.4749
 2066Sol     OW11023   2.985   1.916   5.238  0.4768  0.5002  0.1783
 2066Sol     HW11024   2.966   1.918   5.144 -0.8373  1.1659  0.4474
 2066Sol     HW11025   3.067   1.965   5.247 -0.4348  2.1813 -0.3937
 2066Sol     MW11026   2.990   1.920   5.230 -0.3089 -0.1533  0.1202
 2067Sol     OW11027   0.021   3.117  10.167  0.0364  0.6006  0.3385
 2067Sol     HW11028   0.105   3.130  10.209  0.2696  0.8778 -0.2156
 2067Sol     HW11029   0.040   3.059  10.093 -0.2972  0.4641  0.3586
 2067Sol     MW11030   0.030   3.113  10.164  0.2857 -0.4048  0.2478
 2068Sol     OW11031   0.778   2.256   8.143  0.1614 -0.1639 -0.2802
 2068Sol     HW11032   0.829   2.221   8.216  2.7006  1.1685 -1.3491
 2068Sol     HW11033   0.729   2.329   8.181  0.9889  0.1293  0.2564
 2068Sol     MW11034   0.778   2.260   8.153 -0.0929 -0.4676 -0.2914
 2069Sol     OW11035   1.618   1.043   3.354 -0.6149  0.1988  0.2537
 2069Sol     HW11036   1.671   1.101   3.407 -1.5487 -0.3855  1.8594
 2069Sol     HW11037   1.649   1.056   3.264 -0.1776  2.4329  0.7209
 2069Sol     MW11038   1.626   1.049   3.351 -0.0000  0.6539  0.4063
 2070Sol     OW11039   1.461   1.255   1.761 -0.1464 -0.4137  0.1566
 2070Sol     HW11040   1.448   1.161   1.770 -1.2039 -0.0557  2.6734
 2070Sol     HW11041   1.375   1.294   1.780  0.5081  1.1104  0.1141
 2070Sol     MW11042   1.452   1.250   1.763 -0.0364 -0.0695 -0.4862
 2071Sol     OW11043   2.075   0.221   4.946  0.5575 -0.0364 -0.7437
 2071Sol     HW11044   2.024   0.273   5.009  0.6961 -0.5233 -0.2304
 2071Sol     HW11045   2.166   0.240   4.967  0.6038  0.1876 -1.1266
 2071Sol     MW11046   2.078   0.227   4.953  0.6450 -0.2394 -0.1462
 2072Sol     OW11047   2.703   1.148   4.392 -0.1903  0.2369  0.0525
 2072Sol     HW11048   2.715   1.205   4.316 -0.9958  0.6338  0.2160
 2072Sol     HW11049   2.669   1.066   4.356  0.4988  0.0355 -0.1328
 2072Sol     MW11050   2.701   1.146   4.382 -0.2052 -0.1081  0.1883
 2073Sol     OW11051   3.102   1.958   7.153 -0.1821  0.3559  0.1891
 2073Sol     HW11052   3.182   1.964   7.206 -0.3879 -0.1443  0.5666
 2073Sol     HW11053   3.133   1.926   7.068 -0.1598 -1.3997  0.8263
 2073Sol     MW11054   3.112   1.955   7.151 -0.3012 -0.5160 -0.0097
 2074Sol     OW11055   2.748   0.992   5.463 -0.3954  0.1023 -0.0021
 2074Sol     HW11056   2.664   1.030   5.438  0.4995  1.9461 -0.2195
 2074Sol     HW11057   2.811   1.029   5.402  0.7057 -0.7340  0.6024
 2074Sol     MW11058   2.746   0.998   5.455  0.5135  0.0751 -0.4818
 2075Sol     OW11059   1.597   3.180   3.646  0.1495 -0.4770  0.2436
 2075Sol     HW11060   1.619   3.272   3.632  1.2710 -1.0325 -1.9264
 2075Sol     HW11061   1.594   3.143   3.558 -2.7590 -1.9836  0.9402
 2075Sol     MW11062   1.599   3.185   3.637 -0.2100  0.0299 -0.9260
 2076Sol     OW11063   3.101   1.351   8.931  0.3508  0.5888 -0.3320
 2076Sol     HW11064   3.113   1.445   8.938  1.5918  0.4113  0.0307
 2076Sol     HW11065   3.069   1.324   9.017  1.3364  0.4974  0.0193
 2076Sol     MW11066   3.099   1.357   8.939 -0.0547  0.2412 -0.6451
 2077Sol     OW11067   2.532   1.555   6.370 -0.1657 -0.0559 -0.0961
 2077Sol     HW11068   2.479   1.615   6.318  1.5945  0.4085 -1.4124
 2077Sol     HW11069   2.607   1.534   6.313  0.4528 -1.6214  1.2523
 2077Sol     MW11070   2.534   1.559   6.360 -0.2548  0.2080 -0.0825
 2078Sol     OW11071   1.998   2.892  10.007  0.1319  0.1034 -0.1179
 2078Sol     HW11072   2.026   2.959  10.069  0.6989 -0.6631  0.4615
 2078Sol     HW11073   2.053   2.905   9.930  0.6117 -0.0444  0.2019
 2078Sol     MW11074   2.005   2.899  10.005 -0.1302 -0.4501  0.0389
 2079Sol     OW11075   2.352   2.817   8.413  0.1068 -0.1889  0.1892
 2079Sol     HW11076   2.306   2.899   8.393  1.7725  0.6487 -0.3099
 2079Sol     HW11077   2.404   2.799   8.335  0.5840 -1.1454  0.7273
 2079Sol     MW11078   2.353   2.823   8.404  0.4508  0.2784 -0.6676
 2080Sol     OW11079   1.802   1.180   8.325 -0.5059  0.0546 -0.0790
 2080Sol     HW11080   1.819   1.270   8.297  1.0524 -0.1609  0.1150
 2080Sol     HW11081   1.828   1.127   8.250  0.1416 -0.3148  0.4004
 2080Sol     MW11082   1.806   1.183   8.316  0.6862  0.2844 -0.6198
 2081Sol     OW11083   1.358   1.103   5.334  0.3423 -0.1338  0.0716
 2081Sol     HW11084   1.396   1.125   5.419  1.6198 -2.9979  0.2929
 2081Sol     HW11085   1.433   1.077   5.280 -0.7044 -0.6094 -1.1923
 2081Sol     MW11086   1.368   1.103   5.337 -0.0717  0.4976  0.2775
 2082Sol     OW11087   1.790   0.598   6.862 -0.3107 -0.1234  0.1301
 2082Sol     HW11088   1.717   0.634   6.913 -1.3261  0.1810 -1.5038
 2082Sol     HW11089   1.752   0.575   6.778  1.1564 -1.4780 -0.1930
 2082Sol     MW11090   1.780   0.599   6.859  0.3915  0.1388  0.2008
 2083Sol     OW11091   1.486   1.723  10.228 -0.0744 -0.6556  0.1866
 2083Sol     HW11092   1.460   1.742  10.318  1.1656  0.2364  0.3731
 2083Sol     HW11093   1.473   1.806  10.182 -1.6734 -1.3722 -0.7090
 2083Sol     MW11094   1.482   1.732  10.232 -0.4063 -0.1290 -0.5142
 2084Sol     OW11095   0.502   2.270   7.705 -0.2124  0.2330 -0.3039
 2084Sol     HW11096   0.415   2.311   7.705 -0.5313 -0.4290  0.0366
 2084Sol     HW11097   0.549   2.313   7.776 -0.2219  0.6898 -0.5771
 2084Sol     MW11098   0.498   2.277   7.711 -0.6025 -0.4238  0.8603
 2085Sol     OW11099   3.057   2.066   6.211  0.8132  0.2014 -0.0431
 2085Sol     HW11100   3.114   2.141   6.227  2.1497 -1.0142  0.9827
 2085Sol     HW11101   3.050   2.022   6.296  0.1083 -0.8876 -0.6497
 2085Sol     MW11102   3.061   2.069   6.220  0.2910 -1.1288  0.0213
 2086Sol     OW11103   2.517   2.843   2.123 -0.1335  0.6880 -0.2044
 2086Sol     HW11104   2.500   2.749   2.123  0.5413  0.5466  0.7714
 2086Sol     HW11105   2.566   2.859   2.042 -0.8313  0.3171 -0.6993
 2086Sol     MW11106   2.520   2.836   2.116  0.8300 -0.3598  0.0027
 2087Sol     OW11107   1.093   2.362   2.892 -0.7859 -0.4021 -0.0508
 2087Sol     HW11108   1.143   2.281   2.891 -0.4667 -0.2065 -0.1925
 2087Sol     HW11109   1.013   2.342   2.843 -1.3094 -1.0003  1.0213
 2087Sol     MW11110   1.090   2.353   2.887 -0.3979  0.4828  0.2858
 2088Sol     OW11111   0.185   0.167   6.759 -0.2184 -0.3248  0.2363
 2088Sol     HW11112   0.192   0.259   6.786 -1.8366  0.2870 -1.3130
 2088Sol     HW11113   0.230   0.119   6.828 -1.4334  1.4345  2.3555
 2088Sol     MW11114   0.189   0.171   6.768  0.3485  0.1153 -0.0499
 2089Sol     OW11115   2.587   2.569  10.135 -0.0433  0.1349 -0.5598
 2089Sol     HW11116   2.562   2.624  10.061 -1.7332 -0.5684 -0.5284
 2089Sol     HW11117   2.521   2.500  10.138  1.0083 -0.8619  0.5227
 2089Sol     MW11118   2.579   2.568  10.129  0.1056  0.0276  0.1287
 2090Sol     OW11119   1.130   1.412   7.313 -0.6453 -0.2692 -0.0768
 2090Sol     HW11120   1.039   1.435   7.297 -1.0430 -1.1778  0.8122
 2090Sol     HW11121   1.168   1.489   7.356 -0.8817  0.2658 -0.8302
 2090Sol     MW11122   1.125   1.421   7.316 -0.1641 -0.8679 -0.1692
 2091Sol     OW11123   2.680   1.926   7.543  0.3258  0.2165  0.1642
 2091Sol     HW11124   2.753   1.893   7.491  0.0065  0.6744 -0.5986
 2091Sol     HW11125   2.608   1.866   7.524  0.3998 -0.0129  0.6139
 2091Sol     MW11126   2.680   1.918   7.536  0.4760  0.4038  0.1207
 2092Sol     OW11127   0.504   0.672   7.853 -0.6666 -0.1277 -0.4578
 2092Sol     HW11128   0.480   0.744   7.794 -2.9801 -0.4190  0.0825
 2092Sol     HW11129   0.535   0.603   7.795 -0.8214  0.3953 -1.1694
 2092Sol     MW11130   0.505   0.673   7.843 -0.0650  0.6366 -0.1259
 2093Sol     OW11131   2.482   3.307   2.702 -0.0990 -0.5015  0.1356
 2093Sol     HW11132   2.414   3.248   2.670 -0.2502 -0.0764 -0.3445
 2093Sol     HW11133   2.457   3.393   2.668  0.1679 -0.1776  0.7475
 2093Sol     MW11134   2.474   3.310   2.696  0.1134  0.0709 -0.2141
 2094Sol     OW11135   2.100   0.857   3.858 -0.3430 -0.0274  0.2568
 2094Sol     HW11136   2.046   0.780   3.845 -0.8120  0.2321  0.6424
 2094Sol     HW11137   2.038   0.928   3.876  0.1572  0.0580  1.7475
 2094Sol     MW11138   2.090   0.857   3.858  0.0754  0.2747 -0.1710
 2095Sol     OW11139   0.892   1.586   6.745  0.2036  0.1220 -0.0688
 2095Sol     HW11140   0.894   1.545   6.832  1.9725  0.3671  0.0319
 2095Sol     HW11141   0.806   1.627   6.739  0.3658  0.7935  1.8927
 2095Sol     MW11142   0.885   1.586   6.753  0.6202 -0.1447 -0.4952
 2096Sol     OW11143   0.982   1.627   9.078  0.2516  0.6488  0.1393
 2096Sol     HW11144   1.016   1.663   9.161 -0.0381 -0.7473  0.8827
 2096Sol     HW11145   1.045   1.558   9.054 -1.3202 -1.0900  0.8621
 2096Sol     MW11146   0.991   1.624   9.084 -0.4427  0.3122  0.9930
 2097Sol     OW11147   0.150   3.165   3.913  0.0988 -0.1613  0.5371
 2097Sol     HW11148   0.113   3.253   3.922  0.6988  0.2671 -0.9894
 2097Sol     HW11149   0.074   3.107   3.910 -0.3699  0.4644  0.0141
 2097Sol     MW11150   0.140   3.168   3.913  0.0161 -0.0924  0.1464
 2098Sol     OW11151   2.553   0.898   6.369  0.0561 -0.3275 -0.0634
 2098Sol     HW11152   2.603   0.934   6.443  1.8450 -1.9849 -0.4317
 2098Sol     HW11153   2.605   0.824   6.339 -0.3033  0.6820 -3.4289
 2098Sol     MW11154   2.562   0.895   6.373  0.8031 -0.6795 -0.2804
 2099Sol     OW11155   0.287   3.348   8.079 -0.1654  0.1528 -0.2592
 2099Sol     HW11156   0.194   3.340   8.056 -0.4844  0.5183  0.8527
 2099Sol     HW11157   0.297   3.293   8.157  0.5418  0.1815 -0.3258
 2099Sol     MW11158   0.279   3.342   8.084 -0.4716 -0.4691 -0.6245
 2100Sol     OW11159   1.912   3.295   2.989 -0.5966 -0.6576  0.4379
 2100Sol     HW11160   1.996   3.323   2.955 -0.4709  0.4056  1.5745
 2100Sol     HW11161   1.849   3.319   2.920  0.0255 -1.5411 -0.4490
 2100Sol     MW11162   1.914   3.300   2.980 -0.2122  0.3626 -0.6759
 2101Sol     OW11163   1.969   2.568   9.043 -0.5335  0.4478  0.1988
 2101Sol     HW11164   1.925   2.652   9.032 -3.6088 -1.1960 -0.4529
 2101Sol     HW11165   1.998   2.544   8.955 -3.9059 -1.3720 -0.4892
 2101Sol     MW11166   1.968   2.573   9.034 -0.4473  0.1534  0.0521
 2102Sol     OW11167   1.321   0.342   1.997  0.2217  0.0982 -0.0747
 2102Sol     HW11168   1.384   0.352   2.068  0.9565 -2.3263 -0.3555
 2102Sol     HW11169   1.259   0.414   2.010  1.0267  0.4105  2.2870
 2102Sol     MW11170   1.321   0.349   2.005 -0.1087 -0.6373  0.1766
 2103Sol     OW11171   2.234   3.251   7.746 -0.2102 -0.0792  0.2097
 2103Sol     HW11172   2.210   3.263   7.838  0.7011  0.3940  0.3947
 2103Sol     HW11173   2.182   3.315   7.698  1.0057  1.2733  0.6571
 2103Sol     MW11174   2.227   3.258   7.750 -0.1757 -0.2041 -0.8229
 2104Sol     OW11175   0.072   1.610   8.997 -0.2389  0.5007 -0.7553
 2104Sol     HW11176   0.082   1.596   9.091 -0.0729 -0.4717 -0.9160
 2104Sol     HW11177   0.033   1.697   8.990 -2.0385 -0.1959  0.2880
 2104Sol     MW11178   0.070   1.616   9.005  0.1341  0.3894 -0.2521
 2105Sol     OW11179   1.906   1.434   8.210 -0.2344  0.4055 -0.0504
 2105Sol     HW11180   1.947   1.462   8.128  1.0437  0.7445  0.7073
 2105Sol     HW11181   1.965   1.464   8.279  0.4142 -2.7246  0.8639
 2105Sol     MW11182   1.915   1.439   8.209 -0.4510 -0.8803  0.5584
 2106Sol     OW11183   2.026   1.393   5.743 -0.2371 -0.5571 -0.2546
 2106Sol     HW11184   2.003   1.480   5.709  0.5543  0.5987  2.0515
 2106Sol     HW11185   2.119   1.384   5.723 -0.3128 -0.8824 -0.4683
 2106Sol     MW11186   2.032   1.400   5.738 -0.8928  0.0031  0.7307
 2107Sol     OW11187   2.706   3.076  10.254 -0.2291 -0.1461  0.4057
 2107Sol     HW11188   2.697   2.983  10.274  0.3745 -0.6227 -1.4850
 2107Sol     HW11189   2.792   3.099  10.290 -0.5508 -0.2018  1.2354
 2107Sol     MW11190   2.713   3.070  10.259  0.1428  0.1427 -0.1940
 2108Sol     OW11191   1.184   2.282   8.122 -0.2503 -0.2751  0.1859
 2108Sol     HW11192   1.140   2.271   8.206 -2.4096  1.2031 -0.6939
 2108Sol     HW11193   1.192   2.194   8.087 -0.7114 -0.7560  1.2753
 2108Sol     MW11194   1.181   2.273   8.126 -0.1283 -0.1439 -0.2149
 2109Sol     OW11195   2.396   0.133  10.082  0.1999  0.7187 -0.4261
 2109Sol     HW11196   2.322   0.074  10.063 -0.0687  0.6198  0.8786
 2109Sol     HW11197   2.405   0.129  10.177  3.0666 -0.6737 -0.7264
 2109Sol     MW11198   2.390   0.127  10.089 -0.1000 -0.5756  0.0938
 2110Sol     OW11199   2.259   2.709   7.768  0.3868  0.4335 -0.2688
 2110Sol     HW11200   2.312   2.638   7.732  1.9026  1.9152 -1.0007
 2110Sol     HW11201   2.305   2.789   7.742 -2.3879  1.7740 -1.2488
 2110Sol     MW11202   2.268   2.710   7.762  0.1951  0.1358 -0.1622
 2111Sol     OW11203   2.004   2.912   1.722  0.0241 -0.0193 -0.5295
 2111Sol     HW11204   1.983   2.926   1.629  0.7849  0.7030 -0.5964
 2111Sol     HW11205   1.966   2.827   1.742 -2.8583  1.1585 -0.7009
 2111Sol     MW11206   1.998   2.906   1.715  0.6114  0.0671 -0.0153
 2112Sol     OW11207   2.017   3.266   5.444 -0.3016 -0.5194 -0.0044
 2112Sol     HW11208   2.039   3.310   5.526  0.4313  0.1713 -0.5759
 2112Sol     HW11209   2.091   3.282   5.386 -2.0118  1.3960 -1.7692
 2112Sol     MW11210   2.025   3.271   5.446  0.2493 -0.0341  0.1884
 2113Sol     OW11211   0.732   2.819   6.392 -0.0813 -0.1994 -0.7070
 2113Sol     HW11212   0.663   2.841   6.330 -2.4072  1.0296  2.2070
 2113Sol     HW11213   0.784   2.899   6.401 -1.4621  0.5444  1.0023
 2113Sol     MW11214   0.731   2.828   6.388 -0.1703  0.3541 -0.2386
 2114Sol     OW11215   1.221   0.626   2.717  0.3299  0.0804 -0.7075
 2114Sol     HW11216   1.172   0.543   2.717 -0.1153  0.3431 -0.8201
 2114Sol     HW11217   1.255   0.633   2.806 -0.8970  0.5221 -0.2619
 2114Sol     MW11218   1.220   0.619   2.725  0.4681 -0.0434 -0.5889
 2115Sol     OW11219   0.398   1.777   8.235 -0.0249 -0.3774  0.7260
 2115Sol     HW11220   0.319   1.783   8.288  0.2302 -0.6190  1.1339
 2115Sol     HW11221   0.401   1.686   8.206 -1.2574  0.2217 -1.3988
 2115Sol     MW11222   0.391   1.769   8.237 -0.2205  0.4850  0.4041
 2116Sol     OW11223   0.225   3.102   7.452 -0.2554  0.1152 -0.1926
 2116Sol     HW11224   0.307   3.079   7.407 -0.4410  0.8629 -0.9172
 2116Sol     HW11225   0.188   3.017   7.478 -0.6692 -0.4198 -2.3772
 2116Sol     MW11226   0.229   3.092   7.450 -0.1215  0.1666 -0.0376
 2117Sol     OW11227   2.510   1.716   8.998 -0.7478 -0.6699  0.0734
 2117Sol     HW11228   2.458   1.684   9.072  1.5257 -3.4744  0.5509
 2117Sol     HW11229   2.576   1.774   9.037 -1.1579 -0.1008 -0.0741
 2117Sol     MW11230   2.511   1.718   9.008 -0.0390 -0.2682  0.3980
 2118Sol     OW11231   2.046   1.913   2.762 -0.3758 -0.4244  0.2361
 2118Sol     HW11232   2.064   1.970   2.686 -0.4717 -1.3227 -0.4657
 2118Sol     HW11233   1.988   1.845   2.728 -0.3843 -0.8578  1.1131
 2118Sol     MW11234   2.043   1.912   2.752  0.2378  0.4510 -0.1080
 2119Sol     OW11235   2.439   1.868   4.396  0.2829 -0.7013  0.3203
 2119Sol     HW11236   2.365   1.916   4.433  0.5590 -0.1711  0.1988
 2119Sol     HW11237   2.401   1.790   4.357  0.0068 -1.3914  1.9384
 2119Sol     MW11238   2.429   1.865   4.396 -0.0403  0.3246 -0.3813
 2120Sol     OW11239   1.511   2.306   9.415  0.3013  0.5781  0.3955
 2120Sol     HW11240   1.567   2.377   9.445  1.4957 -1.3718  2.9391
 2120Sol     HW11241   1.560   2.226   9.433 -1.4109 -0.9851 -1.4984
 2120Sol     MW11242   1.520   2.305   9.419  0.2340  0.0984 -0.6836
 2121Sol     OW11243   0.304   2.733   5.483 -0.2112 -0.2861  0.0140
 2121Sol     HW11244   0.274   2.814   5.442 -1.7714 -1.4522 -1.2177
 2121Sol     HW11245   0.312   2.755   5.576 -1.2067  1.1007 -0.2110
 2121Sol     MW11246   0.302   2.742   5.488 -0.4165 -0.0892  0.2217
 2122Sol     OW11247   2.228   3.253   2.382 -0.4055 -0.2283  0.3398
 2122Sol     HW11248   2.219   3.200   2.303  1.0560 -2.1873  1.4193
 2122Sol     HW11249   2.139   3.273   2.408 -0.9352 -0.5123 -1.1874
 2122Sol     MW11250   2.219   3.250   2.377 -0.5906 -0.6777  0.7477
 2123Sol     OW11251   1.201   2.472  10.181  0.0944 -0.5585  0.5289
 2123Sol     HW11252   1.125   2.530  10.177  0.4131 -0.2348 -2.1321
 2123Sol     HW11253   1.204   2.442  10.272 -0.6094  2.8471  1.7361
 2123Sol     MW11254   1.194   2.474  10.189 -0.2249  0.4756 -0.4368
 2124Sol     OW11255   0.503   1.913  10.123  0.1547 -0.7010 -0.3635
 2124Sol     HW11256   0.586   1.877  10.153  0.2663 -0.0312  0.1317
 2124Sol     HW11257   0.484   1.866  10.042 -0.6678 -3.2886  1.2610
 2124Sol     MW11258   0.508   1.905  10.119  0.1958  0.3486  0.5522
 2125Sol     OW11259   1.858   1.043   5.130 -0.0037  0.6448  0.0289
 2125Sol     HW11260   1.880   1.017   5.040  0.0444  0.3658  0.1191
 2125Sol     HW11261   1.886   0.968   5.183  1.2670  1.3746  0.4219
 2125Sol     MW11262   1.863   1.034   5.127 -0.0004 -0.4446  0.2588
 2126Sol     OW11263   2.384   1.240   7.693 -0.0347  0.1634  0.0205
 2126Sol     HW11264   2.375   1.158   7.644 -3.5781 -0.2976  1.2484
 2126Sol     HW11265   2.369   1.214   7.784  1.8376  1.7233  0.7776
 2126Sol     MW11266   2.382   1.230   7.696 -0.7534  0.5729 -0.5333
 2127Sol     OW11267   2.068   2.839   4.920  0.0665  0.3608  0.0098
 2127Sol     HW11268   2.053   2.818   5.013 -2.4319  1.4187 -0.1123
 2127Sol     HW11269   2.157   2.808   4.903  0.5974  0.1872  2.7717
 2127Sol     MW11270   2.074   2.834   4.927 -0.2207  0.3674  0.1268
 2128Sol     OW11271   2.716   0.804   4.017  0.8923 -0.5015 -0.5810
 2128Sol     HW11272   2.693   0.863   4.089  1.9544 -0.6712 -0.0869
 2128Sol     HW11273   2.674   0.721   4.040  1.2691 -0.5693 -0.1267
 2128Sol     MW11274   2.710   0.802   4.025 -0.2572 -0.0094 -0.1956
 2129Sol     OW11275   2.021   0.841  10.135  0.3164 -0.0414 -0.0440
 2129Sol     HW11276   2.004   0.864  10.044  1.0545 -0.6660 -0.3451
 2129Sol     HW11277   2.045   0.923  10.177 -0.1651  0.2698 -0.3822
 2129Sol     MW11278   2.022   0.850  10.131 -0.3749 -0.0432 -0.6216
 2130Sol     OW11279   2.154   0.784   1.582  0.3842  0.7566  0.2073
 2130Sol     HW11280   2.218   0.832   1.529 -0.0489  2.2075  0.9692
 2130Sol     HW11281   2.152   0.696   1.544  1.6217  1.1744 -0.8500
 2130Sol     MW11282   2.160   0.780   1.574 -0.2578  0.2364  0.6539
 2131Sol     OW11283   2.368   1.755   6.287 -0.3161 -0.8900  0.2819
 2131Sol     HW11284   2.319   1.782   6.210 -1.5242  0.9279  1.6478
 2131Sol     HW11285   2.301   1.732   6.352  0.5955  1.3098  2.0578
 2131Sol     MW11286   2.358   1.755   6.286 -0.1542  0.4226 -0.1443
 2132Sol     OW11287   1.823   1.071   4.351  0.1129 -0.0979 -0.0180
 2132Sol     HW11288   1.784   1.053   4.436 -0.7249  0.0953 -0.3548
 2132Sol     HW11289   1.821   0.987   4.306 -1.4449  0.2546 -0.6426
 2132Sol     MW11290   1.819   1.062   4.354  0.4791  0.4090  0.0262
 2133Sol     OW11291   0.230   1.538   5.217 -0.2798  0.8290 -0.5564
 2133Sol     HW11292   0.140   1.561   5.192 -1.1447 -2.6525 -0.8618
 2133Sol     HW11293   0.265   1.493   5.140  0.9598  0.1779  0.3777
 2133Sol     MW11294   0.225   1.536   5.208  0.3575 -0.1672 -0.7480
 2134Sol     OW11295   0.418   1.262   4.210 -0.5790  0.8630  0.5428
 2134Sol     HW11296   0.334   1.289   4.175  0.7136  1.5216 -2.2057
 2134Sol     HW11297   0.456   1.207   4.142  0.4689 -0.8851  2.4932
 2134Sol     MW11298   0.414   1.260   4.201 -0.2756 -0.4208  0.3025
 2135Sol     OW11299   1.096   0.049   8.172 -0.0702  0.4327 -0.0960
 2135Sol     HW11300   1.160   0.017   8.236 -0.6397 -0.6874 -0.0772
 2135Sol     HW11301   1.024   0.082   8.224 -0.5604 -0.5339 -0.1450
 2135Sol     MW11302   1.096   0.049   8.182 -0.4094  0.1181  0.1404
 2136Sol     OW11303   1.486   1.526   6.705  0.0487  0.1459 -0.1429
 2136Sol     HW11304   1.536   1.505   6.627  1.3862  1.1102  0.4280
 2136Sol     HW11305   1.409   1.572   6.673  0.7139  0.7523 -0.8767
 2136Sol     MW11306   1.483   1.528   6.695  0.2322  0.9156  0.1565
 2137Sol     OW11307   0.040   2.945   6.179 -0.7726 -0.1742 -0.2387
 2137Sol     HW11308   0.078   2.858   6.195  0.0154  0.2934  0.5249
 2137Sol     HW11309   0.110   3.006   6.204 -2.0120  0.7107  1.1805
 2137Sol     MW11310   0.050   2.942   6.183 -0.4404 -0.2221 -0.4833
 2138Sol     OW11311   1.524   1.824   6.961  0.3135 -0.1652  0.0735
 2138Sol     HW11312   1.431   1.833   6.938  0.4976  0.3127 -0.4947
 2138Sol     HW11313   1.541   1.730   6.958  0.8401 -0.0352 -3.7633
 2138Sol     MW11314   1.517   1.817   6.959  0.2431 -0.1265  0.3574
 2139Sol     OW11315   1.982   3.213   9.330 -0.4170  0.0181 -0.3760
 2139Sol     HW11316   1.917   3.261   9.380 -0.1032  0.3258 -0.2604
 2139Sol     HW11317   2.053   3.197   9.392 -0.6139 -0.7956 -0.3436
 2139Sol     MW11318   1.983   3.216   9.340 -0.6862 -0.0445  0.1282
 2140Sol     OW11319   2.917   0.264   1.973 -0.2149  0.2212 -0.4955
 2140Sol     HW11320   2.969   0.303   2.044  0.1252  0.2646 -0.7655
 2140Sol     HW11321   2.887   0.339   1.921  0.4033  0.1354 -0.9897
 2140Sol     MW11322   2.919   0.275   1.975  0.0097  0.6654 -0.3572
 2141Sol     OW11323   0.690   2.644   2.331 -0.8198  0.3356  0.1700
 2141Sol     HW11324   0.758   2.706   2.357  0.4804 -1.5153  1.3741
 2141Sol     HW11325   0.623   2.653   2.398  0.6903 -1.5609  2.0091
 2141Sol     MW11326   0.690   2.650   2.339 -0.5362  0.0309 -0.1166
 2142Sol     OW11327   2.712   1.512   6.671  0.5458  0.0241 -0.4303
 2142Sol     HW11328   2.659   1.590   6.683 -0.3605 -0.5640 -0.5785
 2142Sol     HW11329   2.741   1.489   6.759  0.1334  0.0645 -0.2813
 2142Sol     MW11330   2.710   1.517   6.680 -0.0699 -0.1322  0.2153
 2143Sol     OW11331   0.948   2.556   3.752 -0.0760  0.2561 -0.2973
 2143Sol     HW11332   0.926   2.476   3.799  0.9884  0.1959  0.1198
 2143Sol     HW11333   0.936   2.626   3.816 -0.3527  0.3553 -0.4595
 2143Sol     MW11334   0.945   2.555   3.762 -0.1795 -0.4265  0.2619
 2144Sol     OW11335   2.258   0.397   5.833  0.5741 -0.5036  0.1227
 2144Sol     HW11336   2.236   0.431   5.746  0.2397 -0.7327  0.1179
 2144Sol     HW11337   2.213   0.313   5.838 -0.6265  0.1851  1.0997
 2144Sol     MW11338   2.252   0.393   5.825 -0.2262 -0.0464  0.2368
 2145Sol     OW11339   0.902   2.207   9.389  0.5546  0.2051  0.4252
 2145Sol     HW11340   0.973   2.258   9.429 -0.0349  1.6831 -0.3889
 2145Sol     HW11341   0.925   2.116   9.408  1.8745  0.7387  1.4853
 2145Sol     MW11342   0.911   2.203   9.394 -0.7158 -0.2714  0.0776
 2146Sol     OW11343   0.724   0.528   4.828  0.3282 -0.4157  0.1662
 2146Sol     HW11344   0.665   0.596   4.859 -1.3306 -1.3813 -0.7987
 2146Sol     HW11345   0.753   0.558   4.742  2.3159  0.6815  1.1843
 2146Sol     MW11346   0.721   0.537   4.823 -0.1106 -0.2306 -0.0805
 2147Sol     OW11347   0.174   0.714   2.759  0.2378  0.4462  0.1862
 2147Sol     HW11348   0.215   0.642   2.808 -0.2104  0.6054  0.7986
 2147Sol     HW11349   0.202   0.793   2.806 -1.2829  0.5203  0.9779
 2147Sol     MW11350   0.181   0.714   2.768 -0.2028 -0.4041  0.4319
 2148Sol     OW11351   0.793   0.637   6.515  0.2416 -0.0061  0.1448
 2148Sol     HW11352   0.877   0.677   6.492 -0.5606  1.5617 -0.1093
 2148Sol     HW11353   0.754   0.613   6.430 -0.0682  0.3046  0.1987
 2148Sol     MW11354   0.797   0.638   6.505 -0.5521 -0.1769 -0.2460
 2149Sol     OW11355   0.002   3.068   5.190  0.0556 -0.2956 -0.3278
 2149Sol     HW11356   0.051   3.053   5.110 -0.1626 -1.3994 -0.2637
 2149Sol     HW11357  -0.066   3.000   5.190  0.5238 -0.7956  1.1551
 2149Sol     MW11358  -0.000   3.060   5.183 -0.0697 -0.7402 -0.4313
 2150Sol     OW11359   1.046   1.362   9.328  0.1554 -0.1050 -0.1802
 2150Sol     HW11360   1.116   1.312   9.284  0.2435 -0.7791  0.7100
 2150Sol     HW11361   1.055   1.451   9.294  1.4591 -0.1824 -0.0532
 2150Sol     MW11362   1.053   1.365   9.321  0.4764  0.3731 -0.3576
 2151Sol     OW11363   2.366   2.825   2.633  0.2662  0.2039  0.3951
 2151Sol     HW11364   2.340   2.916   2.617 -0.8403 -0.3494 -1.0471
 2151Sol     HW11365   2.309   2.773   2.576  1.1891 -1.3741  0.8741
 2151Sol     MW11366   2.359   2.828   2.626 -0.6898 -0.2072  0.0085
 2152Sol     OW11367   2.612   2.761   9.012  0.5916  0.1397  0.0736
 2152Sol     HW11368   2.686   2.814   8.981  0.5776 -1.2623 -2.5205
 2152Sol     HW11369   2.645   2.717   9.090  1.7910  1.2042  0.1863
 2152Sol     MW11370   2.622   2.762   9.016  0.3664 -0.2945  0.2679
 2153Sol     OW11371   2.325   2.426   3.662  0.0908 -0.2791  0.5981
 2153Sol     HW11372   2.369   2.343   3.644  0.5231  0.0594  0.0693
 2153Sol     HW11373   2.247   2.402   3.711  1.0049 -0.8664  1.7809
 2153Sol     MW11374   2.322   2.416   3.665  0.2091  0.4410  0.8996
 2154Sol     OW11375   3.071   2.147   7.556  0.2598 -0.2396  0.0272
 2154Sol     HW11376   2.979   2.163   7.574  0.6290  2.1555 -0.1591
 2154Sol     HW11377   3.114   2.231   7.568  2.3067 -1.1308 -0.7143
 2154Sol     MW11378   3.067   2.156   7.559 -0.3306 -0.4151  0.6078
 2155Sol     OW11379   0.687   1.711   8.775  0.3227  0.1171 -0.0925
 2155Sol     HW11380   0.625   1.713   8.702 -1.1694 -1.3106  1.0933
 2155Sol     HW11381   0.746   1.784   8.758 -1.0416  0.8586 -1.8223
 2155Sol     MW11382   0.687   1.718   8.767  0.2588  0.1521 -0.5175
 2156Sol     OW11383   2.682   1.443   4.763 -0.6102 -0.2125  0.3286
 2156Sol     HW11384   2.651   1.402   4.844  3.2648 -0.3665  1.8194
 2156Sol     HW11385   2.727   1.522   4.791  1.4455 -0.6476 -1.5830
 2156Sol     MW11386   2.683   1.446   4.773 -0.4300  0.0060  0.2034
 2157Sol     OW11387   2.378   2.059   6.906 -0.2364  0.5213 -0.0875
 2157Sol     HW11388   2.386   2.057   6.811 -1.0064 -0.8851 -0.1375
 2157Sol     HW11389   2.399   1.969   6.934 -2.8517  0.1563  0.8084
 2157Sol     MW11390   2.381   2.050   6.900  0.2449  0.7353  0.2747
 2158Sol     OW11391   2.402   2.903   8.909  0.1167  0.5878 -0.1291
 2158Sol     HW11392   2.455   2.855   8.973  1.5784  1.0846 -0.9503
 2158Sol     HW11393   2.427   2.994   8.921 -0.4955  0.8192 -0.5880
 2158Sol     MW11394   2.409   2.907   8.916 -0.7264 -0.5845  0.4531
 2159Sol     OW11395   0.541   2.617   5.340  0.0758 -0.8884  1.3134
 2159Sol     HW11396   0.517   2.539   5.289  0.6425 -0.6684  0.7106
 2159Sol     HW11397   0.458   2.648   5.377 -0.4878 -0.5252 -0.2290
 2159Sol     MW11398   0.531   2.613   5.339  0.1797 -0.4120  0.0260
 2160Sol     OW11399   0.951   0.773   3.535  0.5104 -0.0339  0.2481
 2160Sol     HW11400   1.017   0.706   3.520  0.4839 -0.1803  0.8070
 2160Sol     HW11401   1.000   0.852   3.557  0.5032 -0.1223  0.5827
 2160Sol     MW11402   0.961   0.774   3.535 -0.4418  0.2401 -0.4176
 2161Sol     OW11403   2.659   0.843   9.073 -0.0884  0.4152  0.4221
 2161Sol     HW11404   2.715   0.768   9.051  0.7482  0.9351  0.7648
 2161Sol     HW11405   2.588   0.839   9.009  1.1661  0.6380 -1.0154
 2161Sol     MW11406   2.658   0.836   9.065  0.5577 -0.2816 -0.1159
 2162Sol     OW11407   1.218   0.914   2.462  0.1470  0.4234 -0.0934
 2162Sol     HW11408   1.166   0.918   2.542 -0.6813  0.1629 -0.6115
 2162Sol     HW11409   1.308   0.920   2.492 -0.1349 -0.0777  0.8936
 2162Sol     MW11410   1.221   0.915   2.472 -0.2649 -0.2537  0.0976
 2163Sol     OW11411   0.559   1.044   3.772 -0.1345 -0.1261 -0.4260
 2163Sol     HW11412   0.475   1.088   3.758 -0.8934  0.3527  4.6511
 2163Sol     HW11413   0.541   0.952   3.758 -0.7958  0.2585 -2.1548
 2163Sol     MW11414   0.550   1.040   3.770 -0.1034 -0.0797 -0.1298
 2164Sol     OW11415   1.472   2.307   6.593 -0.7739 -0.1505 -0.0759
 2164Sol     HW11416   1.415   2.371   6.636 -0.4646  0.2948 -0.3162
 2164Sol     HW11417   1.537   2.284   6.659  0.4614  1.4911 -0.6819
 2164Sol     MW11418   1.473   2.311   6.602 -0.2823 -0.1089 -0.5543
 2165Sol     OW11419   1.947   1.291   4.472 -0.7403 -0.1570  0.3291
 2165Sol     HW11420   1.912   1.208   4.440 -0.6526  0.8944 -2.6712
 2165Sol     HW11421   2.040   1.290   4.447 -0.6485  0.6782  0.5962
 2165Sol     MW11422   1.952   1.284   4.467 -0.3233 -0.2986  0.9060
 2166Sol     OW11423   2.973   2.310   3.540  0.3603  0.0462  0.0122
 2166Sol     HW11424   3.001   2.402   3.536  1.4888 -0.1838  1.8272
 2166Sol     HW11425   2.878   2.313   3.539  0.3534  1.3759  1.8515
 2166Sol     MW11426   2.967   2.318   3.539  0.0960  0.0161  0.2355
 2167Sol     OW11427   0.816   1.519   3.480  0.0107 -0.2020  0.1411
 2167Sol     HW11428   0.729   1.558   3.474  0.2711  0.0344 -2.9583
 2167Sol     HW11429   0.876   1.594   3.487  0.2623 -0.1491 -2.3024
 2167Sol     MW11430   0.814   1.529   3.480 -0.2056  0.6163 -0.4268
 2168Sol     OW11431   0.305   3.112   4.124  0.1895  0.3028 -0.1368
 2168Sol     HW11432   0.269   3.140   4.040 -0.3161  1.2664  0.3916
 2168Sol     HW11433   0.400   3.114   4.111  0.0922 -1.8721 -1.4187
 2168Sol     MW11434   0.311   3.115   4.115 -0.4324 -0.0713  0.0602
 2169Sol     OW11435   1.648   1.358   9.773  0.0499  0.0376  0.1010
 2169Sol     HW11436   1.720   1.298   9.792  0.8375  1.0748  0.4352
 2169Sol     HW11437   1.580   1.303   9.734  0.7278 -1.0788  0.4826
 2169Sol     MW11438   1.648   1.347   9.771  0.0709 -0.0570  0.5794
 2170Sol     OW11439   1.918   1.528   9.519  0.0615 -0.0131 -0.1982
 2170Sol     HW11440   1.827   1.551   9.501 -0.3694 -0.1740  1.6866
 2170Sol     HW11441   1.943   1.583   9.594  1.4559 -0.1237 -0.5581
 2170Sol     MW11442   1.913   1.535   9.524  0.4901 -0.2050 -0.1229
 2171Sol     OW11443   2.285   1.775   2.798 -0.7439 -0.6932  0.2710
 2171Sol     HW11444   2.280   1.706   2.732  0.8204  1.0140 -1.6835
 2171Sol     HW11445   2.203   1.823   2.790 -0.4106 -0.2829 -0.6459
 2171Sol     MW11446   2.278   1.773   2.791 -0.6952  0.3990 -0.0953
 2172Sol     OW11447   1.848   2.075   2.497  0.3522 -0.8609 -0.0811
 2172Sol     HW11448   1.796   2.073   2.577  0.0727 -1.3243 -0.2710
 2172Sol     HW11449   1.786   2.101   2.429  0.7187  0.1124 -0.0564
 2172Sol     MW11450   1.838   2.077   2.498 -0.3732  0.0660  0.1117
 2173Sol     OW11451   2.383   1.399   7.183 -0.2350  0.0394  0.0523
 2173Sol     HW11452   2.365   1.404   7.089 -1.0324 -0.5450  0.1753
 2173Sol     HW11453   2.336   1.322   7.213  3.4598 -2.3255  0.1290
 2173Sol     MW11454   2.377   1.393   7.177 -0.2838 -0.0329  0.0686
 2174Sol     OW11455   1.579   2.497   8.466  0.1064 -0.3675 -0.0262
 2174Sol     HW11456   1.665   2.474   8.432 -0.5264 -2.3271 -0.4213
 2174Sol     HW11457   1.520   2.433   8.425 -1.7451  1.8467 -0.8983
 2174Sol     MW11458   1.581   2.489   8.459 -0.1410  0.0759  0.0478
 2175Sol     OW11459   1.309   0.942   3.239 -0.0529  0.2043 -0.5205
 2175Sol     HW11460   1.260   0.862   3.222  0.7024 -0.5526  0.7691
 2175Sol     HW11461   1.361   0.922   3.318 -1.9954  2.8945  1.5191
 2175Sol     MW11462   1.310   0.933   3.245 -0.5155  0.1051  0.4337
 2176Sol     OW11463   2.112   1.979   8.383 -0.1247  0.2940 -0.3169
 2176Sol     HW11464   2.065   1.994   8.301 -0.9876  0.0027  0.1139
 2176Sol     HW11465   2.060   1.912   8.428  0.7900 -0.1382  0.1023
 2176Sol     MW11466   2.103   1.974   8.380  0.1446 -0.4476 -0.1553
 2177Sol     OW11467   1.997   1.561   1.508  0.2206 -0.3048  0.1084
 2177Sol     HW11468   1.949   1.543   1.589  0.6582  0.1664  0.4770
 2177Sol     HW11469   1.993   1.656   1.498 -1.1692 -0.4884 -1.2686
 2177Sol     MW11470   1.992   1.568   1.514 -0.4408  0.7105  0.3025
 2178Sol     OW11471   1.328   1.137   8.786  0.4032  0.5599 -0.1336
 2178Sol     HW11472   1.394   1.162   8.721  0.7516 -0.0907 -0.0340
 2178Sol     HW11473   1.379   1.115   8.864  0.1359 -0.8638 -0.3507
 2178Sol     MW11474   1.339   1.137   8.787  0.7154 -0.3179  0.1201
 2179Sol     OW11475   0.308   1.668   5.476 -0.4469  0.8286 -0.4662
 2179Sol     HW11476   0.302   1.632   5.387  0.4848 -0.5862  0.0145
 2179Sol     HW11477   0.217   1.680   5.503 -0.7597  0.2099 -1.2146
 2179Sol     MW11478   0.299   1.666   5.471  0.2953 -0.3116  0.9356
 2180Sol     OW11479   1.505   0.088   8.739  0.4568 -0.3027 -0.1816
 2180Sol     HW11480   1.432   0.029   8.719 -0.0789  0.2359  0.1576
 2180Sol     HW11481   1.476   0.174   8.708  1.9492 -0.5264 -2.2645
 2180Sol     MW11482   1.496   0.091   8.735  0.0682  0.6308  0.1974
 2181Sol     OW11483   1.863   2.402   2.344 -0.4030  0.2110  0.1249
 2181Sol     HW11484   1.868   2.421   2.438  0.5183  0.6049  0.0009
 2181Sol     HW11485   1.787   2.344   2.335 -2.2255  2.3783  0.7744
 2181Sol     MW11486   1.856   2.399   2.352 -0.1445  0.1380 -0.2020
 2182Sol     OW11487   0.361   0.371   4.898  0.3674  0.0309 -0.2893
 2182Sol     HW11488   0.412   0.422   4.961 -0.0326 -0.2282  0.2516
 2182Sol     HW11489   0.309   0.311   4.952  0.6873 -0.8197 -0.9063
 2182Sol     MW11490   0.361   0.370   4.908 -0.0241 -0.3656 -0.1893
 2183Sol     OW11491   0.631   1.941   7.371  0.5851  0.0430  0.4752
 2183Sol     HW11492   0.586   1.975   7.448  1.5009  1.1789  0.5254
 2183Sol     HW11493   0.561   1.912   7.313 -0.1815  1.2761  0.7698
 2183Sol     MW11494   0.621   1.941   7.373  0.1093  0.1156 -0.3497
 2184Sol     OW11495   0.078   1.522   3.788  0.4013  0.5018  0.3838
 2184Sol     HW11496   0.001   1.568   3.756 -0.5666 -0.9551  0.5530
 2184Sol     HW11497   0.104   1.570   3.867  0.8708  2.1754 -0.7702
 2184Sol     MW11498   0.073   1.530   3.792 -0.2206 -0.1319 -0.6378
 2185Sol     OW11499   1.068   3.154   7.230  0.0282  0.0179  0.0307
 2185Sol     HW11500   1.072   3.230   7.171 -0.5680 -1.2597 -1.6990
 2185Sol     HW11501   1.036   3.083   7.174  0.1844 -1.4032  1.7396
 2185Sol     MW11502   1.065   3.155   7.219 -0.0793  0.7526 -0.0325
 2186Sol     OW11503   0.734   0.070   5.719  0.6746 -0.1394  0.3022
 2186Sol     HW11504   0.749   0.123   5.640  1.4385  0.2565  0.7107
 2186Sol     HW11505   0.698   0.132   5.783  3.0351  0.2381  1.2839
 2186Sol     MW11506   0.732   0.080   5.717  0.4519 -0.2914 -0.1925
 2187Sol     OW11507   0.472   1.243  10.176  0.4626  0.4614 -0.6515
 2187Sol     HW11508   0.523   1.162  10.187 -0.8307 -0.1354  1.3073
 2187Sol     HW11509   0.436   1.260  10.263 -2.3768  1.0836 -1.9031
 2187Sol     MW11510   0.473   1.237  10.185  0.2518 -0.0997 -0.3295
 2188Sol     OW11511   0.200   0.495   4.024  1.1629  0.9972 -0.1445
 2188Sol     HW11512   0.141   0.534   4.090  0.7677  1.0556 -0.5310
 2188Sol     HW11513   0.222   0.568   3.967  2.7966  1.3073  0.8517
 2188Sol     MW11514   0.197   0.505   4.025  0.4566 -0.0553 -0.5642
 2189Sol     OW11515   1.223   2.556   2.718 -0.6036 -0.3099  0.4302
 2189Sol     HW11516   1.188   2.540   2.806 -1.8771  2.9866  0.5900
 2189Sol     HW11517   1.194   2.480   2.667 -1.3192 -1.4214  2.4344
 2189Sol     MW11518   1.217   2.548   2.721 -0.2242 -0.2124 -0.2130
 2190Sol     OW11519   0.954   2.128   6.530  0.3720 -0.0220 -0.1755
 2190Sol     HW11520   0.860   2.121   6.548  0.2088 -0.0922 -1.0269
 2190Sol     HW11521   0.973   2.051   6.475  0.5004  1.1117 -1.7438
 2190Sol     MW11522   0.947   2.120   6.527 -0.3290  0.6047 -0.5815
 2191Sol     OW11523   2.151   2.620   4.055  0.1487  0.1005  0.0216
 2191Sol     HW11524   2.145   2.700   4.107 -2.0505 -0.4854  0.7106
 2191Sol     HW11525   2.166   2.551   4.119 -1.2026 -0.4469 -0.2393
 2191Sol     MW11526   2.152   2.621   4.065  0.4254  0.4715 -0.4139
 2192Sol     OW11527   0.106   2.611   8.365 -0.2288  0.3021  0.0003
 2192Sol     HW11528   0.054   2.537   8.332  0.4566 -0.5951  0.8965
 2192Sol     HW11529   0.168   2.630   8.295  0.4186 -0.8010  0.2568
 2192Sol     MW11530   0.107   2.606   8.356  0.9089  1.0535  0.2785
 2193Sol     OW11531   1.019   1.652   7.162  0.0337 -0.0979  0.1798
 2193Sol     HW11532   1.115   1.650   7.166  0.1340  0.5835 -1.4007
 2193Sol     HW11533   0.996   1.583   7.101 -0.5066 -0.5222  0.8657
 2193Sol     MW11534   1.026   1.646   7.157 -0.1610  0.4153  0.3292
 2194Sol     OW11535   2.842   0.865   4.498  0.5767 -0.3681  0.0900
 2194Sol     HW11536   2.869   0.798   4.435 -1.3716  0.8339 -2.0800
 2194Sol     HW11537   2.887   0.945   4.468 -0.8745  0.3544 -0.1834
 2194Sol     MW11538   2.849   0.866   4.490 -0.1035  0.0054 -0.3154
 2195Sol     OW11539   0.180   2.545   1.800 -0.8209  0.2656 -0.8018
 2195Sol     HW11540   0.108   2.572   1.743 -1.3286  0.0883 -0.2416
 2195Sol     HW11541   0.151   2.567   1.888 -0.9322 -1.3971 -0.3942
 2195Sol     MW11542   0.171   2.549   1.803 -0.0018  0.2024 -0.2492
 2196Sol     OW11543   0.558   1.157   8.030  0.3947 -0.5147  0.0521
 2196Sol     HW11544   0.469   1.123   8.038  0.4882 -0.5459  0.9748
 2196Sol     HW11545   0.595   1.109   7.957  0.8909 -3.2164  2.0274
 2196Sol     MW11546   0.553   1.150   8.024  0.0727 -0.1377 -0.8536
 2197Sol     OW11547   1.782   1.415   9.181  0.0458 -0.0089 -0.1011
 2197Sol     HW11548   1.719   1.385   9.247  0.0451 -0.2266 -0.2032
 2197Sol     HW11549   1.728   1.460   9.116  0.1366  0.9696  0.4869
 2197Sol     MW11550   1.771   1.417   9.181  0.2506  0.5266 -0.4178
 2198Sol     OW11551   1.493   2.879   7.493  0.1741 -0.2003 -0.6312
 2198Sol     HW11552   1.446   2.886   7.576  0.8110  0.6358 -0.3435
 2198Sol     HW11553   1.432   2.916   7.428  0.1651  0.2732 -0.3542
 2198Sol     MW11554   1.483   2.883   7.494 -0.5499  0.1236 -0.6557
 2199Sol     OW11555   0.898   2.940   6.779  0.7316  0.1147 -0.1437
 2199Sol     HW11556   0.890   2.847   6.801 -0.7164  0.3027  0.1830
 2199Sol     HW11557   0.885   2.943   6.684  1.8480 -0.1273 -0.3108
 2199Sol     MW11558   0.896   2.932   6.772  0.0331  0.3338 -0.2387
 2200Sol     OW11559   0.094   2.321   6.198  0.0284 -0.3544  0.0319
 2200Sol     HW11560   0.062   2.388   6.138 -2.3865 -0.4170  1.1771
 2200Sol     HW11561   0.174   2.358   6.235  0.2205  0.7126 -1.4093
 2200Sol     MW11562   0.098   2.330   6.196 -0.1333  0.0379  0.1386
 2201Sol     OW11563   1.196   1.762   9.841 -0.4515  0.5170  0.0426
 2201Sol     HW11564   1.286   1.793   9.837 -0.3206  0.2548  0.9335
 2201Sol     HW11565   1.172   1.767   9.934 -1.4921  0.9829 -0.2404
 2201Sol     MW11566   1.202   1.765   9.849 -0.1371  0.2085 -0.1078
 2202Sol     OW11567   1.824   0.201   2.454 -0.3827  0.2595  0.5633
 2202Sol     HW11568   1.858   0.177   2.540 -1.4585  1.6747  1.3984
 2202Sol     HW11569   1.748   0.144   2.442 -0.9218  0.8789  1.0558
 2202Sol     MW11570   1.820   0.194   2.460  0.5125 -0.3101  0.0196
 2203Sol     OW11571   1.586   0.412   6.268 -0.0526 -0.1952  0.2989
 2203Sol     HW11572   1.569   0.323   6.238 -0.4141 -0.1098  0.2402
 2203Sol     HW11573   1.681   0.418   6.275  0.0213 -0.2878 -0.6238
 2203Sol     MW11574   1.593   0.405   6.266  0.1034 -0.0887 -0.0311
 2204Sol     OW11575   0.461   3.266  10.645 -0.2240  0.3076  0.1104
 2204Sol     HW11576   0.478   3.211  10.722 -0.7168  0.5044  0.3645
 2204Sol     HW11577   0.366   3.262  10.634  0.0439 -1.4142 -1.7449
 2204Sol     MW11578   0.454   3.261  10.651 -0.6918 -1.0991 -0.2002
 2205Sol     OW11579   0.801   2.876   4.294 -0.1961  0.2062  0.3873
 2205Sol     HW11580   0.842   2.790   4.310  0.7728  0.5936  0.0370
 2205Sol     HW11581   0.743   2.861   4.220  1.1868  0.2205 -0.7121
 2205Sol     MW11582   0.800   2.867   4.289  1.0215 -0.5139  0.4142
 2206Sol     OW11583   1.003   3.111   8.693 -0.3125  0.2311  0.2261
 2206Sol     HW11584   1.097   3.115   8.708 -0.8161  0.4144  3.7641
 2206Sol     HW11585   0.982   3.196   8.654  1.0065  0.0673 -0.8831
 2206Sol     MW11586   1.010   3.119   8.691  0.5902  0.8238 -0.0307
 2207Sol     OW11587   1.140   0.490   9.044 -0.4066 -0.6117 -0.1669
 2207Sol     HW11588   1.183   0.437   8.977 -0.2094  0.4716 -0.9084
 2207Sol     HW11589   1.075   0.431   9.083 -0.6082 -1.2087 -1.3900
 2207Sol     MW11590   1.138   0.480   9.042  0.1877 -0.6876 -0.5322
 2208Sol     OW11591   3.008   2.612   6.597  0.2795 -0.3499 -0.1262
 2208Sol     HW11592   2.982   2.651   6.681  1.6257 -0.6700  0.4441
 2208Sol     HW11593   3.064   2.539   6.620 -0.7756 -1.5506 -1.2652
 2208Sol     MW11594   3.010   2.609   6.607 -0.4600 -0.0378  0.1884
 2209Sol     OW11595   1.549   2.570   1.980 -0.3974  0.3507 -0.3182
 2209Sol     HW11596   1.571   2.544   1.891  0.0819 -0.8770  0.1454
 2209Sol     HW11597   1.632   2.596   2.020 -0.6642  1.2552 -0.3400
 2209Sol     MW11598   1.558   2.570   1.976 -0.4621 -0.2830  0.4311
 2210Sol     OW11599   2.249   0.263   3.253  0.1972  0.4410  0.1620
 2210Sol     HW11600   2.296   0.329   3.303 -0.4316 -0.3217  1.7822
 2210Sol     HW11601   2.243   0.188   3.311 -2.3998  0.2758 -0.2662
 2210Sol     MW11602   2.253   0.262   3.262 -0.4573 -0.0728  0.3136
 2211Sol     OW11603   1.241   0.046   7.208  0.9243  0.2410  0.2849
 2211Sol     HW11604   1.302  -0.003   7.264  1.7512  0.4552 -0.4206
 2211Sol     HW11605   1.271   0.027   7.119  0.1593  0.6218 -0.0500
 2211Sol     MW11606   1.249   0.040   7.205  0.6338 -0.3300  0.2156
 2212Sol     OW11607   1.154   0.264  10.078  0.8791  0.3160  0.2626
 2212Sol     HW11608   1.186   0.341  10.124  1.8034 -0.2116  0.5247
 2212Sol     HW11609   1.210   0.193  10.109 -0.0189 -0.4734  0.0874
 2212Sol     MW11610   1.162   0.265  10.084 -0.4313 -0.2708  0.6082
 2213Sol     OW11611   0.448   3.011   8.459 -0.1839  1.0014 -0.2983
 2213Sol     HW11612   0.525   3.056   8.494  0.3146  0.2424 -0.4047
 2213Sol     HW11613   0.407   2.971   8.535 -0.9665  2.1226 -0.1131
 2213Sol     MW11614   0.451   3.011   8.469 -0.3052  0.5239  0.1918
 2214Sol     OW11615   1.540   0.989   8.083  0.0242 -0.1988 -0.1725
 2214Sol     HW11616   1.448   0.980   8.056  0.6394 -3.6569 -1.3802
 2214Sol     HW11617   1.563   1.078   8.056 -1.4347 -1.0968 -5.0584
 2214Sol     MW11618   1.533   0.996   8.078  0.0320 -0.2402 -0.1162
 2215Sol     OW11619   2.054   2.583   5.571 -0.3582  0.4638 -0.0955
 2215Sol     HW11620   2.011   2.564   5.654  0.8021 -0.5416  0.2807
 2215Sol     HW11621   1.987   2.627   5.519 -2.1767 -1.9800  0.1039
 2215Sol     MW11622   2.044   2.585   5.573 -0.0893 -0.3238 -0.0397
 2216Sol     OW11623   0.196   2.874   4.141 -0.4299  0.7882 -0.3701
 2216Sol     HW11624   0.263   2.806   4.138 -1.5387 -0.2481 -2.4575
 2216Sol     HW11625   0.244   2.957   4.135  0.7861  0.1173  0.1359
 2216Sol     MW11626   0.206   2.876   4.140 -1.1075 -0.0262 -0.0663
 2217Sol     OW11627   1.615   0.870   2.812 -0.3403 -0.0394 -0.4195
 2217Sol     HW11628   1.569   0.862   2.896  0.4527 -2.1386 -0.1438
 2217Sol     HW11629   1.646   0.961   2.810  0.8343 -0.3234  2.2449
 2217Sol     MW11630   1.614   0.878   2.820 -0.4913 -0.7996 -0.2866
 2218Sol     OW11631   1.203   3.331   9.086 -0.2012  0.1799 -0.3793
 2218Sol     HW11632   1.258   3.257   9.058 -1.1789 -0.4056 -0.7951
 2218Sol     HW11633   1.256   3.377   9.151  0.9443 -0.1322 -1.0778
 2218Sol     MW11634   1.213   3.328   9.090  0.7884  0.2622 -0.6038
 2219Sol     OW11635   0.369   0.525   2.894 -0.5344  0.1842  0.5024
 2219Sol     HW11636   0.369   0.431   2.913  0.8852  0.0201 -0.3043
 2219Sol     HW11637   0.354   0.566   2.980  0.0627 -0.7282  1.0530
 2219Sol     MW11638   0.367   0.520   2.904  0.7950 -0.7061  0.3107
 2220Sol     OW11639   2.261   1.201   7.286 -0.2012 -0.2441 -0.0405
 2220Sol     HW11640   2.211   1.135   7.238 -0.4306 -0.7235  0.8454
 2220Sol     HW11641   2.290   1.155   7.365  0.4238  0.4524  0.1330
 2220Sol     MW11642   2.259   1.191   7.289  0.2982  0.0630 -0.2194
 2221Sol     OW11643   2.893   2.020   4.702 -0.0570 -0.6976  0.2338
 2221Sol     HW11644   2.848   1.945   4.740  0.5814 -1.6016 -0.7407
 2221Sol     HW11645   2.830   2.058   4.641  0.9467 -2.9265 -2.3530
 2221Sol     MW11646   2.884   2.016   4.700  0.6787 -0.2501  0.0000
 2222Sol     OW11647   0.166   2.771   9.285 -0.2573 -0.0640 -0.2382
 2222Sol     HW11648   0.214   2.802   9.362  1.9527  0.6904 -1.8803
 2222Sol     HW11649   0.139   2.850   9.239  0.9512 -0.5050 -1.7495
 2222Sol     MW11650   0.168   2.781   9.288  0.6336 -0.0466 -0.5138
 2223Sol     OW11651   2.414   0.946   2.632  0.0970  0.4454 -0.2560
 2223Sol     HW11652   2.480   0.878   2.621  1.5906  1.8069  0.1187
 2223Sol     HW11653   2.394   0.945   2.725 -0.4238  0.0333 -0.3695
 2223Sol     MW11654   2.418   0.940   2.639  0.1790  0.9087 -0.7198
 2224Sol     OW11655   1.636   2.788   8.963  0.2747 -0.1113  0.6091
 2224Sol     HW11656   1.660   2.870   9.006 -1.0567  0.1699  0.8225
 2224Sol     HW11657   1.541   2.793   8.952  0.3191 -1.1631 -0.3331
 2224Sol     MW11658   1.630   2.796   8.966  0.1684 -0.2325 -0.1946
 2225Sol     OW11659   2.969   0.931   8.179 -0.0351 -0.1995  0.7888
 2225Sol     HW11660   3.055   0.971   8.192 -0.3988  1.1579 -0.7637
 2225Sol     HW11661   2.922   0.949   8.261 -0.3328  3.0480 -0.0035
 2225Sol     MW11662   2.972   0.936   8.187 -0.0709  0.2194  0.2205
 2226Sol     OW11663   1.463   2.712   4.799 -0.0074  0.4684  0.1844
 2226Sol     HW11664   1.519   2.655   4.851  1.0876 -0.1212 -1.5848
 2226Sol     HW11665   1.522   2.752   4.735 -1.0231  2.4374  0.4215
 2226Sol     MW11666   1.473   2.711   4.798  0.3246  0.1708 -0.3135
 2227Sol     OW11667   0.901   2.628   9.284  0.5813 -0.5855 -0.6820
 2227Sol     HW11668   0.925   2.667   9.200 -0.8625 -1.0010 -1.2974
 2227Sol     HW11669   0.824   2.678   9.312  0.7475 -0.7898  0.1492
 2227Sol     MW11670   0.897   2.636   9.279 -0.0181  0.1826  0.1884
 2228Sol     OW11671   1.208   0.057   3.500 -0.1596  0.6983 -0.1002
 2228Sol     HW11672   1.229  -0.008   3.432 -0.9988 -1.5249  1.7197
 2228Sol     HW11673   1.114   0.072   3.491 -0.4042 -0.1568  1.0567
 2228Sol     MW11674   1.202   0.052   3.493  0.1292 -0.0946  0.0218
 2229Sol     OW11675   2.684   2.175  10.010  0.0395  0.6301 -0.5269
 2229Sol     HW11676   2.606   2.196   9.959  0.4423 -0.8875 -1.8349
 2229Sol     HW11677   2.714   2.091   9.974  0.4294 -0.4043  2.1500
 2229Sol     MW11678   2.680   2.169  10.002  0.4879 -0.3582  0.0567
 2230Sol     OW11679   2.922   1.774   9.910 -0.1626  0.2551 -0.2442
 2230Sol     HW11680   2.968   1.750   9.829  1.7871  1.5563  0.4536
 2230Sol     HW11681   2.856   1.837   9.882 -0.6724 -0.6211 -1.0569
 2230Sol     MW11682   2.920   1.777   9.900 -0.5276  0.0494  0.1973
 2231Sol     OW11683   0.474   1.492   5.621 -0.5985  0.3165  0.1146
 2231Sol     HW11684   0.505   1.552   5.688 -0.9033  0.3906  0.1919
 2231Sol     HW11685   0.404   1.540   5.576  0.4748  0.7623 -1.1199
 2231Sol     MW11686   0.470   1.501   5.623 -0.3937 -0.2095 -0.1040
 2232Sol     OW11687   1.284   1.605   6.541  0.7213 -0.2253  0.2941
 2232Sol     HW11688   1.282   1.513   6.514  0.9029 -0.0660 -0.2762
 2232Sol     HW11689   1.197   1.638   6.521  1.2079  0.1903 -1.1741
 2232Sol     MW11690   1.276   1.599   6.537  0.0865 -0.2482 -0.5988
 2233Sol     OW11691   2.084   1.044   1.875  0.1109 -0.7175 -0.1624
 2233Sol     HW11692   2.152   1.092   1.922  0.6345 -0.5306 -1.1057
 2233Sol     HW11693   2.080   1.085   1.789 -0.7943 -1.1049 -0.3131
 2233Sol     MW11694   2.090   1.052   1.872 -0.7258  0.1415  0.1348
 2234Sol     OW11695   1.636   2.997   8.265  0.7284 -0.2388  0.2604
 2234Sol     HW11696   1.695   2.976   8.337  0.5730 -0.1394  0.4161
 2234Sol     HW11697   1.670   2.946   8.191  0.7162 -0.5674  0.4761
 2234Sol     MW11698   1.644   2.990   8.265 -0.3139 -0.6815  0.3831
 2235Sol     OW11699   2.490   1.484   8.162 -0.2950 -0.6126  0.0120
 2235Sol     HW11700   2.411   1.536   8.149  0.7378  0.5333 -2.0404
 2235Sol     HW11701   2.531   1.481   8.075  1.7812 -1.3729  0.9820
 2235Sol     MW11702   2.487   1.488   8.153 -0.2721  0.3410  0.5995
 2236Sol     OW11703   1.079   1.785   5.367  0.1772  0.9036 -0.4243
 2236Sol     HW11704   1.052   1.752   5.281 -3.8188 -0.8520  1.3757
 2236Sol     HW11705   1.089   1.880   5.354 -1.0291  0.7717 -2.6505
 2236Sol     MW11706   1.078   1.791   5.358 -0.1655 -0.1234 -0.4099
 2237Sol     OW11707   2.499   2.856   2.862  0.0256  0.1156  0.1821
 2237Sol     HW11708   2.467   2.843   2.772  0.7728 -1.1697  0.0949
 2237Sol     HW11709   2.586   2.894   2.852 -0.2595  0.8331  0.3828
 2237Sol     MW11710   2.504   2.858   2.853  0.1482  0.1566  0.5898
 2238Sol     OW11711   1.836   2.625   3.288 -0.4313 -0.0791  0.4060
 2238Sol     HW11712   1.919   2.654   3.325 -0.7316 -0.2108  1.1831
 2238Sol     HW11713   1.859   2.552   3.231  0.1489  0.7407 -0.4305
 2238Sol     MW11714   1.846   2.621   3.286 -0.2568  0.9760  0.0693
 2239Sol     OW11715   2.446   1.498   5.188  0.4834 -0.2175  0.0408
 2239Sol     HW11716   2.398   1.548   5.253 -2.2581 -1.3999 -1.0119
 2239Sol     HW11717   2.517   1.556   5.160 -0.5867  1.7222  1.2791
 2239Sol     MW11718   2.448   1.507   5.192  0.6860 -0.3766 -0.1940
 2240Sol     OW11719   0.971   0.262   9.066  0.5960  0.2462 -0.0850
 2240Sol     HW11720   0.897   0.322   9.072 -0.2334 -0.9336  2.0228
 2240Sol     HW11721   0.934   0.180   9.034  1.0532 -0.2515  0.6403
 2240Sol     MW11722   0.961   0.260   9.064  0.9286 -0.1614  0.3407
 2241Sol     OW11723   1.156   2.343   1.764  0.2860 -0.6952 -0.1989
 2241Sol     HW11724   1.190   2.262   1.727 -0.9855 -0.6020 -1.6518
 2241Sol     HW11725   1.199   2.412   1.714  2.4287 -0.3920  1.9670
 2241Sol     MW11726   1.163   2.342   1.756  0.4400 -0.5680 -0.4090
 2242Sol     OW11727   1.540   1.963   6.700  0.0119 -0.2464  0.3805
 2242Sol     HW11728   1.572   2.053   6.710  2.0357 -0.9477  0.3645
 2242Sol     HW11729   1.517   1.935   6.788 -0.8690  0.3656  0.3525
 2242Sol     MW11730   1.541   1.969   6.708 -0.7467  0.4756  0.0656
 2243Sol     OW11731   0.405   1.745   1.975 -0.1416  0.0061 -0.2639
 2243Sol     HW11732   0.441   1.676   1.919 -0.6056 -0.3721 -0.1023
 2243Sol     HW11733   0.440   1.826   1.939  0.3451 -0.3109 -0.5045
 2243Sol     MW11734   0.411   1.746   1.967 -0.7806  0.0166  0.0517
 2244Sol     OW11735   0.256   2.494   4.900  0.2863 -0.3241  0.4839
 2244Sol     HW11736   0.244   2.520   4.809 -1.0787 -1.1025  0.4288
 2244Sol     HW11737   0.316   2.560   4.936  0.3996  0.3027 -0.8203
 2244Sol     MW11738   0.261   2.502   4.895 -0.3827  0.2118 -0.3885
 2245Sol     OW11739   0.962   0.326   8.132  0.4002 -0.3717  0.3061
 2245Sol     HW11740   0.923   0.265   8.195  1.4097  0.9664  2.3076
 2245Sol     HW11741   0.888   0.359   8.082 -0.6429 -0.3511  1.8108
 2245Sol     MW11742   0.952   0.323   8.133 -0.1627 -0.5773 -0.3082
 2246Sol     OW11743   2.100   0.996   6.518  0.1599  0.0850  0.0191
 2246Sol     HW11744   2.033   0.965   6.579 -0.0044 -0.9693 -0.6834
 2246Sol     HW11745   2.126   0.918   6.470  3.0738  0.1606  1.4015
 2246Sol     MW11746   2.096   0.987   6.520 -0.7369 -0.1830 -0.3413
 2247Sol     OW11747   1.014   1.073   5.038  0.2394  0.7715  0.0622
 2247Sol     HW11748   1.063   1.146   5.001 -0.2644  0.8435 -0.4614
 2247Sol     HW11749   1.082   1.014   5.072  0.6989  0.7984 -0.7909
 2247Sol     MW11750   1.024   1.074   5.038 -0.3143 -0.0929  0.5881
 2248Sol     OW11751   2.656   1.920   9.108 -0.1283 -0.3438 -0.1424
 2248Sol     HW11752   2.614   1.920   9.193 -0.8967  0.1369 -0.5121
 2248Sol     HW11753   2.750   1.910   9.127 -0.2664  0.0421  0.7641
 2248Sol     MW11754   2.661   1.919   9.117  0.3962  0.2947  0.0193
 2249Sol     OW11755   2.538   1.600  10.015 -0.6463 -0.3958  0.0564
 2249Sol     HW11756   2.543   1.659  10.091 -0.7461  0.4991 -0.6326
 2249Sol     HW11757   2.610   1.538  10.029 -0.8678 -0.4469  1.0516
 2249Sol     MW11758   2.545   1.599  10.023  0.1885 -0.2101 -0.2921
 2250Sol     OW11759   0.017   2.948   9.936  0.1772  0.5108  0.1906
 2250Sol     HW11760   0.099   2.900   9.926 -0.5540 -0.3773 -1.6952
 2250Sol     HW11761  -0.049   2.880   9.951 -0.5991  1.0539 -0.7657
 2250Sol     MW11762   0.018   2.938   9.937  0.4441  0.0033  0.0756
 2251Sol     OW11763   2.682   0.364   6.646  0.0110  0.2401  0.5213
 2251Sol     HW11764   2.708   0.283   6.602  1.3400  0.3959  1.0009
 2251Sol     HW11765   2.586   0.359   6.650 -0.0328 -0.4809 -1.0101
 2251Sol     MW11766   2.676   0.356   6.643  0.0548 -0.1379 -0.5800
 2252Sol     OW11767   0.433   2.447   5.935 -0.2620  0.2029  0.4727
 2252Sol     HW11768   0.467   2.359   5.923 -0.1101  0.2283  0.7027
 2252Sol     HW11769   0.339   2.439   5.918  0.0659  0.4186 -1.5435
 2252Sol     MW11770   0.427   2.439   5.933  0.0219  0.0708 -0.1537
 2253Sol     OW11771   2.896   2.855   6.294  0.0163 -0.0410 -0.1155
 2253Sol     HW11772   2.977   2.883   6.251  0.0701 -1.2018 -0.7944
 2253Sol     HW11773   2.899   2.895   6.381  1.1352  0.2360 -0.2807
 2253Sol     MW11774   2.903   2.861   6.298  0.6040  0.4872  0.4241
 2254Sol     OW11775   1.702   3.252   6.331 -0.6516  0.6163 -0.1963
 2254Sol     HW11776   1.763   3.309   6.284 -1.5845  1.6544 -0.1706
 2254Sol     HW11777   1.670   3.306   6.404  1.9594 -1.4920  2.6154
 2254Sol     MW11778   1.704   3.262   6.333  0.5079  0.0456  0.8346
 2255Sol     OW11779   1.172   1.173   6.765  0.0599 -0.3320  0.3732
 2255Sol     HW11780   1.120   1.233   6.712 -1.3996 -2.0916 -0.2703
 2255Sol     HW11781   1.124   1.167   6.848 -0.2196 -1.1349  0.1658
 2255Sol     MW11782   1.163   1.178   6.768 -0.1158  0.7105  0.0988
 2256Sol     OW11783   0.692   2.500   2.082 -0.4344 -0.0543  0.0727
 2256Sol     HW11784   0.665   2.527   2.169  2.0199  0.3111  0.7646
 2256Sol     HW11785   0.769   2.444   2.096  0.9304  1.2452 -1.9060
 2256Sol     MW11786   0.697   2.497   2.091 -0.1604 -0.4586  0.3829
 2257Sol     OW11787   0.692   2.652   4.568  0.0260  0.0815  0.6087
 2257Sol     HW11788   0.786   2.664   4.564  0.2063 -1.4285 -0.2376
 2257Sol     HW11789   0.664   2.702   4.645  1.5069  0.5756  0.8268
 2257Sol     MW11790   0.698   2.657   4.575  0.0401  0.0360 -0.8307
 2258Sol     OW11791   2.631   0.073   3.684  0.7396  0.3342 -0.1712
 2258Sol     HW11792   2.695   0.143   3.669 -0.7758  1.8337  0.1958
 2258Sol     HW11793   2.621   0.070   3.779  0.5652 -0.1746 -0.2086
 2258Sol     MW11794   2.636   0.079   3.691 -0.3832 -0.7013 -0.1161
 2259Sol     OW11795   2.348   2.272   8.101 -1.0687  0.2986  0.2481
 2259Sol     HW11796   2.405   2.199   8.126 -0.9997  0.0200 -0.7223
 2259Sol     HW11797   2.272   2.231   8.062 -0.9187  0.7573 -0.5288
 2259Sol     MW11798   2.346   2.262   8.100  0.0739 -0.4500 -0.1128
 2260Sol     OW11799   0.462   3.242   6.174  0.4902  0.0404  0.4543
 2260Sol     HW11800   0.491   3.181   6.107 -0.6406  1.4245 -1.3598
 2260Sol     HW11801   0.479   3.198   6.257 -1.5048 -3.2735 -0.8087
 2260Sol     MW11802   0.466   3.233   6.175  0.1051 -0.2772  0.4788
 2261Sol     OW11803   2.737   3.335   3.157  0.1476  0.7685  0.0650
 2261Sol     HW11804   2.686   3.363   3.233  1.3301  1.3290  0.6626
 2261Sol     HW11805   2.691   3.372   3.082  0.3476  2.3033  0.6794
 2261Sol     MW11806   2.728   3.341   3.158  0.0120 -1.0334 -0.1264
 2262Sol     OW11807   1.025   0.861   2.669 -0.1885 -0.5022  0.7759
 2262Sol     HW11808   1.071   0.777   2.677  0.6223 -0.1043  0.2858
 2262Sol     HW11809   0.982   0.856   2.583  0.8783  0.0947  0.2110
 2262Sol     MW11810   1.025   0.853   2.662  0.2701  0.6234 -0.1657
 2263Sol     OW11811   1.683   0.921   6.643  0.1182  0.0061 -0.5070
 2263Sol     HW11812   1.669   0.903   6.550 -0.4027 -0.1612 -0.3980
 2263Sol     HW11813   1.601   0.896   6.685 -0.0528  1.1322 -0.1452
 2263Sol     MW11814   1.674   0.917   6.638  0.3477 -0.2211 -0.6719
 2264Sol     OW11815   2.949   2.782   2.743  0.0717 -0.5425  0.0897
 2264Sol     HW11816   3.011   2.761   2.812  2.1853  1.1949 -1.1950
 2264Sol     HW11817   3.002   2.786   2.663 -1.3923  2.4461 -0.8188
 2264Sol     MW11818   2.959   2.781   2.742 -0.5348  0.1852  0.4238
 2265Sol     OW11819   0.663   2.795   9.294 -0.1961 -0.2793  0.0853
 2265Sol     HW11820   0.654   2.852   9.218 -1.2431 -0.8880 -0.2677
 2265Sol     HW11821   0.620   2.713   9.268  0.3175 -0.8445  0.9701
 2265Sol     MW11822   0.658   2.792   9.285  0.3675  0.3659 -0.1184
 2266Sol     OW11823   2.183   2.827   6.924 -0.3195 -0.0290 -0.0530
 2266Sol     HW11824   2.153   2.917   6.915 -2.0318 -0.5444  0.2506
 2266Sol     HW11825   2.192   2.795   6.834  1.0029  0.6508 -0.1767
 2266Sol     MW11826   2.181   2.832   6.916 -0.3188 -0.3537  0.3720
 2267Sol     OW11827   0.505   2.551   1.676  0.2230  0.5179  0.0856
 2267Sol     HW11828   0.414   2.536   1.702 -0.1581 -0.0970 -1.5686
 2267Sol     HW11829   0.555   2.486   1.726 -0.1017  1.5446  1.7972
 2267Sol     MW11830   0.501   2.544   1.683  0.5334 -0.0498 -0.0670
 2268Sol     OW11831   2.206   0.542   7.059 -0.4793  0.4269 -0.2749
 2268Sol     HW11832   2.239   0.474   7.118  0.5672 -0.2333 -1.6131
 2268Sol     HW11833   2.171   0.494   6.984  1.3983  1.3867 -1.7997
 2268Sol     MW11834   2.206   0.532   7.058 -0.2489 -0.2549  0.2310
 2269Sol     OW11835   0.017   0.508   8.979 -0.5481  0.0419  0.5556
 2269Sol     HW11836  -0.033   0.509   9.061  0.0449  0.8057  0.9139
 2269Sol     HW11837   0.106   0.486   9.006 -0.2669  0.6869  0.1643
 2269Sol     MW11838   0.021   0.506   8.989 -0.5899  1.0341 -0.2773
 2270Sol     OW11839   0.394   1.790   5.937 -0.0250  0.1216 -0.5489
 2270Sol     HW11840   0.346   1.869   5.962 -1.2085  0.7243 -4.4721
 2270Sol     HW11841   0.327   1.731   5.903  1.4188 -0.9446 -1.5646
 2270Sol     MW11842   0.384   1.792   5.937  0.7187 -0.0720 -0.8143
 2271Sol     OW11843   0.280   0.694   3.842  0.0822 -0.4990  0.0828
 2271Sol     HW11844   0.222   0.770   3.844  0.6914 -0.0317  0.3510
 2271Sol     HW11845   0.362   0.728   3.806  1.0294 -0.5455  2.1542
 2271Sol     MW11846   0.282   0.704   3.839  0.5074 -0.1953 -0.0447
 2272Sol     OW11847   1.849   1.273   6.601 -0.2617 -0.6993 -0.2658
 2272Sol     HW11848   1.880   1.334   6.668 -0.9531 -1.0998  0.4257
 2272Sol     HW11849   1.787   1.325   6.550  2.2417  0.4179 -2.2987
 2272Sol     MW11850   1.846   1.283   6.603  0.0656 -0.2440 -0.3735
 2273Sol     OW11851   0.282   1.446   9.218  0.1502 -0.0946  0.2283
 2273Sol     HW11852   0.224   1.517   9.248  0.2473 -0.3724  1.0928
 2273Sol     HW11853   0.234   1.366   9.238  0.1491 -0.2874 -0.5261
 2273Sol     MW11854   0.272   1.445   9.223  0.4656 -0.0766  0.1113
 2274Sol     OW11855   0.912   0.971   5.297 -0.1078 -0.6186 -0.2172
 2274Sol     HW11856   0.987   0.945   5.245  0.1616  0.6865 -0.4881
 2274Sol     HW11857   0.878   0.889   5.332  2.2621 -1.1162  1.0442
 2274Sol     MW11858   0.915   0.962   5.296 -0.1214  0.3418 -0.0106
 2275Sol     OW11859   1.186   3.310   6.229  0.1559  0.0967  0.2453
 2275Sol     HW11860   1.123   3.331   6.298 -0.2981 -0.6038  0.0524
 2275Sol     HW11861   1.133   3.270   6.160  0.1078  3.5352 -1.8115
 2275Sol     MW11862   1.175   3.309   6.229 -0.0694  0.1787  0.2813
 2276Sol     OW11863   0.409   0.325   4.521 -0.2122  0.6171  0.7925
 2276Sol     HW11864   0.438   0.416   4.511  0.4880  0.2415 -0.6961
 2276Sol     HW11865   0.422   0.286   4.434  1.3870 -1.4610  1.9458
 2276Sol     MW11866   0.412   0.330   4.512  0.0827 -0.0460  0.3700
 2277Sol     OW11867   0.051   3.004   3.135  0.0513  0.2283  0.5251
 2277Sol     HW11868  -0.009   2.954   3.191  0.5250  0.0248  0.8566
 2277Sol     HW11869   0.066   2.947   3.060 -0.0406  0.2113  0.5190
 2277Sol     MW11870   0.047   2.994   3.134 -0.1794  0.6970  0.0455
 2278Sol     OW11871   2.618   2.573   4.822  0.3312 -0.0779  0.4520
 2278Sol     HW11872   2.605   2.653   4.772  1.1107 -0.6954 -0.7777
 2278Sol     HW11873   2.665   2.600   4.901  0.0706  0.7537  0.3185
 2278Sol     MW11874   2.621   2.582   4.824 -0.0460 -0.1346  0.2874
 2279Sol     OW11875   1.297   0.687   2.308 -0.2594 -0.4836 -0.3428
 2279Sol     HW11876   1.334   0.632   2.377 -0.4204  1.2214  1.1551
 2279Sol     HW11877   1.271   0.768   2.353 -0.6400  0.5607 -2.3574
 2279Sol     MW11878   1.298   0.690   2.318  0.4529  0.0025  0.0062
 2280Sol     OW11879   2.734   2.304   6.601  0.1723  0.0261 -0.0879
 2280Sol     HW11880   2.695   2.216   6.599 -1.6142  0.8103 -0.6637
 2280Sol     HW11881   2.665   2.362   6.568  1.6721  1.5291 -0.6593
 2280Sol     MW11882   2.724   2.301   6.598  0.0996 -0.4205 -0.1498
 2281Sol     OW11883   1.962   0.248   4.682 -0.1708 -0.3189 -0.4653
 2281Sol     HW11884   2.001   0.269   4.767 -1.6152  0.5422  0.0013
 2281Sol     HW11885   1.879   0.205   4.704 -1.1703  1.0867 -1.4424
 2281Sol     MW11886   1.958   0.246   4.692 -0.6478 -0.3969  0.0102
 2282Sol     OW11887   0.143   0.930   4.861  0.2015 -0.3634  0.1123
 2282Sol     HW11888   0.225   0.959   4.822 -0.0382  0.0335 -0.0972
 2282Sol     HW11889   0.105   0.871   4.796  1.0546 -1.7804  0.8561
 2282Sol     MW11890   0.147   0.927   4.852 -0.1410 -0.0480  0.5461
 2283Sol     OW11891   1.039   0.876   8.336  0.0811  0.2858  0.2881
 2283Sol     HW11892   1.078   0.960   8.313 -1.5625  1.0261  0.1523
 2283Sol     HW11893   0.997   0.892   8.420 -1.0466 -0.1524 -0.1939
 2283Sol     MW11894   1.039   0.885   8.342 -0.1842  0.7886  0.1830
 2284Sol     OW11895   1.401   2.562   9.795 -0.3805  0.7144  0.3898
 2284Sol     HW11896   1.323   2.614   9.812 -0.3394  0.6649  0.7387
 2284Sol     HW11897   1.427   2.529   9.881 -1.1308 -0.9100  0.0214
 2284Sol     MW11898   1.396   2.564   9.804 -0.2316 -0.1828 -0.2056
 2285Sol     OW11899   1.006   0.269   3.289  0.0516 -0.0555 -0.4785
 2285Sol     HW11900   0.989   0.363   3.292  0.8296  0.0585  1.2097
 2285Sol     HW11901   1.100   0.262   3.269 -0.2493 -0.5113 -1.8037
 2285Sol     MW11902   1.013   0.276   3.288 -0.1107  0.6582  0.1343
 2286Sol     OW11903   0.952   0.642   5.990  0.3301 -0.4362 -0.1049
 2286Sol     HW11904   1.007   0.568   6.016  0.6289  0.5782  2.3154
 2286Sol     HW11905   0.977   0.712   6.050 -1.7451  0.8485 -0.6905
 2286Sol     MW11906   0.959   0.641   5.998  0.0654  0.0609 -0.0418
 2287Sol     OW11907   2.160   0.510   2.908 -0.0229  0.4225 -0.2223
 2287Sol     HW11908   2.073   0.473   2.891 -0.1437  0.7044 -0.2181
 2287Sol     HW11909   2.194   0.532   2.822  0.1175  0.1428 -0.2366
 2287Sol     MW11910   2.155   0.509   2.899 -0.0884 -0.7031  0.0445
 2288Sol     OW11911   1.212   1.853   7.433  0.0664  0.0986 -0.1828
 2288Sol     HW11912   1.233   1.765   7.463 -1.5757  0.1902  1.2941
 2288Sol     HW11913   1.279   1.909   7.472  0.0368 -0.2557  0.3789
 2288Sol     MW11914   1.220   1.850   7.439 -0.1446  0.8977 -0.3173
 2289Sol     OW11915   2.934   1.674   3.798  0.3841  0.2190 -0.2836
 2289Sol     HW11916   2.909   1.688   3.707 -1.8962 -1.2129  0.0987
 2289Sol     HW11917   2.965   1.760   3.827  0.7348  0.7982 -2.2569
 2289Sol     MW11918   2.935   1.683   3.792 -0.0430 -0.0021 -0.0716
 2290Sol     OW11919   1.529   1.630   7.661  0.7154 -0.0366  0.2054
 2290Sol     HW11920   1.539   1.710   7.713  0.4646  0.1866 -0.0927
 2290Sol     HW11921   1.501   1.563   7.724 -0.3925  0.4265  0.2088
 2290Sol     MW11922   1.528   1.631   7.671 -0.3305 -0.2162 -0.0352
 2291Sol     OW11923   1.959   2.102   2.952  0.1335 -0.3680 -0.2302
 2291Sol     HW11924   2.011   2.046   2.894  0.8212 -0.6661  0.6648
 2291Sol     HW11925   1.898   2.147   2.894  0.9588 -0.5039 -1.2090
 2291Sol     MW11926   1.958   2.101   2.942  0.3872 -0.3756 -0.0438
 2292Sol     OW11927   0.357   0.291   3.274  0.7724 -0.3910 -0.2271
 2292Sol     HW11928   0.345   0.295   3.179  0.8162 -0.3674 -0.2321
 2292Sol     HW11929   0.345   0.382   3.303 -1.0310 -0.6924  0.0174
 2292Sol     MW11930   0.355   0.300   3.268 -0.3262 -0.2356 -0.4713
 2293Sol     OW11931   0.043   1.407   5.506 -0.5290 -0.2407 -0.1326
 2293Sol     HW11932   0.084   1.338   5.558  0.0230 -0.7997 -1.2907
 2293Sol     HW11933   0.117   1.456   5.470 -0.8812 -0.7281 -1.5304
 2293Sol     MW11934   0.053   1.405   5.508 -0.1352 -0.0146  0.5614
 2294Sol     OW11935   2.102   2.228   2.047  0.5212 -0.1436 -0.1079
 2294Sol     HW11936   2.130   2.153   2.100 -2.5289 -0.8729  0.5845
 2294Sol     HW11937   2.105   2.196   1.957  1.9156 -0.1835 -0.0542
 2294Sol     MW11938   2.105   2.218   2.044 -0.2783  0.3169  0.3176
 2295Sol     OW11939   2.644   2.160   4.656 -0.2718 -0.4677  0.1861
 2295Sol     HW11940   2.699   2.213   4.714 -0.1609 -1.0385  0.6014
 2295Sol     HW11941   2.593   2.224   4.608 -0.0424  0.0299  0.5933
 2295Sol     MW11942   2.645   2.171   4.657 -0.3121  0.0497  0.5028
 2296Sol     OW11943   2.294   3.019   2.944  0.3025  0.5375  0.0245
 2296Sol     HW11944   2.365   2.962   2.915  0.6408  1.5286 -1.1496
 2296Sol     HW11945   2.334   3.106   2.950 -0.4050  0.7990  0.9825
 2296Sol     MW11946   2.304   3.022   2.942 -0.0528  0.3112 -0.1537
 2297Sol     OW11947   0.095   0.061   3.639  0.4469  0.2772  0.5546
 2297Sol     HW11948   0.114  -0.008   3.575 -2.5641  1.0069 -1.1858
 2297Sol     HW11949   0.119   0.142   3.594 -1.2224  0.7522  0.4882
 2297Sol     MW11950   0.099   0.062   3.629  0.0811  0.4556  0.3456
 2298Sol     OW11951   2.430   2.440   7.728  0.6020  0.4659  0.0000
 2298Sol     HW11952   2.434   2.408   7.638 -0.9954  1.3191 -0.3833
 2298Sol     HW11953   2.355   2.395   7.767  0.5837  0.9704  0.5584
 2298Sol     MW11954   2.424   2.433   7.724 -0.1722  0.2316 -1.1983
 2299Sol     OW11955   3.081   0.887   9.693  0.1831  0.3602 -0.0470
 2299Sol     HW11956   3.035   0.939   9.759 -1.8148  0.1709 -1.2318
 2299Sol     HW11957   3.097   0.802   9.736  0.3014  0.7587  0.7040
 2299Sol     MW11958   3.078   0.884   9.703 -1.0789 -0.0449 -0.2948
 2300Sol     OW11959   1.941   1.526   6.036  0.4488  0.1867  0.0948
 2300Sol     HW11960   1.940   1.518   5.940 -1.7235  0.4573  0.0682
 2300Sol     HW11961   2.003   1.459   6.065 -0.8779 -1.7358 -1.3640
 2300Sol     MW11962   1.946   1.519   6.030 -0.2062 -0.1546  0.2895
 2301Sol     OW11963   0.285   3.146   5.762 -0.4101  0.1979  0.0758
 2301Sol     HW11964   0.332   3.203   5.701 -0.6248  1.3971  1.0155
 2301Sol     HW11965   0.197   3.184   5.767 -0.3708  0.1529  1.1805
 2301Sol     MW11966   0.281   3.155   5.757 -0.5224  0.1248  0.3480
 2302Sol     OW11967   0.901   2.698   3.507 -0.4373 -0.3314  0.0563
 2302Sol     HW11968   0.981   2.739   3.474 -1.1590  2.0369  1.1048
 2302Sol     HW11969   0.930   2.639   3.576  0.3373  1.1099  0.9663
 2302Sol     MW11970   0.911   2.696   3.510 -0.0888  0.1854  0.9458
 2303Sol     OW11971   3.064   0.309   7.263  0.2521 -0.4947 -0.6622
 2303Sol     HW11972   3.021   0.278   7.184 -1.5162 -1.7135  0.7429
 2303Sol     HW11973   3.045   0.242   7.329  3.3119 -0.4825  0.3216
 2303Sol     MW11974   3.059   0.300   7.262 -0.1332 -0.1407  0.2656
 2304Sol     OW11975   1.271   2.066   9.318 -0.0917 -0.1775  0.1359
 2304Sol     HW11976   1.365   2.071   9.298 -0.1435  0.5119  0.0699
 2304Sol     HW11977   1.267   2.013   9.397  0.5570  1.8350  1.5550
 2304Sol     MW11978   1.279   2.061   9.323  0.5091 -0.0081 -0.1435
 2305Sol     OW11979   0.025   0.108   5.023 -0.2542  0.2876 -0.4220
 2305Sol     HW11980  -0.069   0.109   5.041 -0.4506  2.1562 -1.3959
 2305Sol     HW11981   0.049   0.016   5.022 -1.4319 -0.1443  3.1025
 2305Sol     MW11982   0.019   0.100   5.024 -0.4961  0.1667  0.8466
 2306Sol     OW11983   1.954   0.019   2.091  0.2092  0.3272 -0.0115
 2306Sol     HW11984   1.909   0.058   2.016 -0.8574 -0.0219  0.4358
 2306Sol     HW11985   2.008   0.090   2.126 -0.1477  0.8150 -0.4354
 2306Sol     MW11986   1.955   0.029   2.087 -0.1319  0.6431  0.1625
 2307Sol     OW11987   0.267   0.225   5.170 -0.7927 -0.4666 -0.4888
 2307Sol     HW11988   0.342   0.223   5.230 -1.0689 -2.2500 -0.1637
 2307Sol     HW11989   0.262   0.136   5.135 -2.7947 -0.4117 -0.4294
 2307Sol     MW11990   0.273   0.216   5.172 -0.5684 -0.6478  0.6750
 2308Sol     OW11991   2.676   1.302   5.049 -0.0869 -0.9548  1.0011
 2308Sol     HW11992   2.588   1.272   5.070 -0.3415 -1.2735 -0.4479
 2308Sol     HW11993   2.719   1.225   5.011  0.4197 -0.4664  0.5765
 2308Sol     MW11994   2.672   1.293   5.047 -0.0157  0.2818 -0.3150
 2309Sol     OW11995   1.653   1.569   9.000 -0.3929  0.2878 -0.3355
 2309Sol     HW11996   1.613   1.653   9.024 -0.0954 -0.0818  1.5453
 2309Sol     HW11997   1.579   1.509   8.989 -0.5122  0.2606  0.5385
 2309Sol     MW11998   1.643   1.571   9.001  0.5113  0.4140 -0.3990
 2310Sol     OW11999   0.689   3.365   3.548  0.5876 -0.1426  0.1961
 2310Sol     HW12000   0.646   3.279   3.548  0.4411 -0.0790  2.1006
 2310Sol     HW12001   0.783   3.345   3.557  0.7664 -0.1802 -1.5902
 2310Sol     MW12002   0.694   3.355   3.549  0.6208  0.2404 -0.3517
 2311Sol     OW12003   2.526   0.158   4.252  0.0655 -0.2691 -0.2958
 2311Sol     HW12004   2.474   0.238   4.263 -2.0546 -1.5949 -0.4037
 2311Sol     HW12005   2.539   0.151   4.157 -1.2226 -0.9513 -0.4297
 2311Sol     MW12006   2.523   0.165   4.244 -0.4328  0.0509  0.0089
 2312Sol     OW12007   1.245   3.191   7.936  0.0789  0.8117 -0.0179
 2312Sol     HW12008   1.266   3.280   7.908  2.0431 -0.2558 -2.0449
 2312Sol     HW12009   1.325   3.159   7.977  0.3490 -1.0261 -1.9317
 2312Sol     MW12010   1.254   3.196   7.938  0.3583 -0.5119 -0.5391
 2313Sol     OW12011   0.835   2.508   4.068  0.1678 -0.0323  0.0729
 2313Sol     HW12012   0.767   2.526   4.133 -2.4928 -3.5913 -1.5733
 2313Sol     HW12013   0.883   2.433   4.102  0.9602  0.2223 -0.4674
 2313Sol     MW12014   0.833   2.503   4.077  0.1506  0.3390 -0.0659
 2314Sol     OW12015   1.608   0.172   7.701  0.1424  0.0702  0.5753
 2314Sol     HW12016   1.552   0.113   7.752 -0.1394 -0.8872 -0.8122
 2314Sol     HW12017   1.548   0.217   7.642  0.5564  0.6502  0.5984
 2314Sol     MW12018   1.598   0.171   7.701  0.5200 -0.8157  0.1698
 2315Sol     OW12019   0.817   0.180   7.603 -0.1455  0.8289 -0.5671
 2315Sol     HW12020   0.807   0.260   7.551  2.2477  2.4730  1.3631
 2315Sol     HW12021   0.747   0.186   7.669 -0.7794  0.6488 -1.2102
 2315Sol     MW12022   0.810   0.188   7.604  0.3363 -0.2185 -0.3979
 2316Sol     OW12023   2.334   1.219   7.963 -0.4145  0.2047  0.3500
 2316Sol     HW12024   2.259   1.162   7.949  0.1036 -0.0688 -1.3630
 2316Sol     HW12025   2.333   1.236   8.057 -1.1998 -1.7702  0.7385
 2316Sol     MW12026   2.327   1.215   7.970 -1.1775 -0.0280 -0.0092
 2317Sol     OW12027   1.643   1.452   3.472  0.1849 -0.2822  0.1274
 2317Sol     HW12028   1.731   1.418   3.455  0.1119 -0.0456 -0.8027
 2317Sol     HW12029   1.586   1.376   3.459  0.1929 -0.2654 -0.0136
 2317Sol     MW12030   1.646   1.442   3.469 -0.3585  0.6516 -0.0235
 2318Sol     OW12031   2.850   0.036   2.095 -0.0271 -0.8147 -0.0779
 2318Sol     HW12032   2.868   0.122   2.058 -1.8386  0.8912  2.7324
 2318Sol     HW12033   2.781  -0.001   2.039  0.1270 -0.0362 -0.7783
 2318Sol     MW12034   2.845   0.040   2.087  0.1453  0.2435  0.0109
 2319Sol     OW12035   1.492   2.568   2.736 -0.0817 -0.2358  0.5241
 2319Sol     HW12036   1.525   2.588   2.648  0.5730 -2.5993  0.1997
 2319Sol     HW12037   1.397   2.562   2.725 -0.1658  1.2060  0.3546
 2319Sol     MW12038   1.487   2.569   2.727 -0.3354  0.5777 -0.0689
 2320Sol     OW12039   2.410   0.066   6.092 -0.1844  0.3040 -0.2711
 2320Sol     HW12040   2.456  -0.009   6.129 -0.3030 -0.0919 -0.9216
 2320Sol     HW12041   2.326   0.067   6.137  0.1949  0.6264  0.4360
 2320Sol     MW12042   2.407   0.059   6.099  0.0806 -0.4613  0.5024
 2321Sol     OW12043   0.922   2.452   5.684  0.6576 -0.0008  0.4069
 2321Sol     HW12044   0.953   2.373   5.728 -0.1528 -0.5644 -0.0361
 2321Sol     HW12045   0.934   2.521   5.749  1.6890 -0.4224  0.6742
 2321Sol     MW12046   0.926   2.451   5.694  0.0319  0.8959  0.2632
 2322Sol     OW12047   3.006   1.369   8.526  0.5866 -0.2831 -0.2614
 2322Sol     HW12048   3.085   1.368   8.473 -0.4296 -0.6567 -1.8109
 2322Sol     HW12049   3.015   1.294   8.585  0.6270 -1.3511 -1.5963
 2322Sol     MW12050   3.014   1.362   8.527  0.1964  0.2525 -0.7172
 2323Sol     OW12051   1.512   1.042   7.542 -0.1134  0.9344  0.0361
 2323Sol     HW12052   1.447   0.992   7.593  1.0071 -0.7884 -0.2003
 2323Sol     HW12053   1.570   1.079   7.608  1.3962 -1.3812  0.0496
 2323Sol     MW12054   1.511   1.040   7.553 -0.2645 -0.3971 -0.8296
 2324Sol     OW12055   2.421   2.661   6.767  0.0602  0.6196  0.0915
 2324Sol     HW12056   2.494   2.708   6.728 -0.4510 -0.0585 -1.7155
 2324Sol     HW12057   2.344   2.693   6.720 -0.7326  0.7704  1.4557
 2324Sol     MW12058   2.420   2.668   6.759 -0.2006  0.2981  0.2385
 2325Sol     OW12059   1.671   2.831   8.678 -0.1843 -0.4339 -0.2054
 2325Sol     HW12060   1.584   2.798   8.656 -0.7662  0.3177  0.9276
 2325Sol     HW12061   1.690   2.793   8.764  1.2363 -1.7599 -1.0523
 2325Sol     MW12062   1.665   2.824   8.684 -0.2586  0.1724  0.1968
 2326Sol     OW12063   0.300   1.198   9.550 -0.3606  0.1106  0.1024
 2326Sol     HW12064   0.214   1.239   9.535 -0.8831 -1.1265 -0.3562
 2326Sol     HW12065   0.336   1.185   9.462  0.3250  0.6726  0.2989
 2326Sol     MW12066   0.295   1.200   9.541 -0.0106 -0.0340  0.1672
 2327Sol     OW12067   0.653   1.070   7.782  0.1527 -0.0114  0.3518
 2327Sol     HW12068   0.746   1.049   7.787 -0.0943 -1.1490  0.4797
 2327Sol     HW12069   0.648   1.144   7.722  1.1957  0.4668  0.8363
 2327Sol     MW12070   0.661   1.074   7.777 -0.2830  0.4157  0.1325
 2328Sol     OW12071   1.372   0.787   4.042  0.1055  0.1078 -0.0548
 2328Sol     HW12072   1.337   0.708   4.084 -1.5631  0.0578 -1.4603
 2328Sol     HW12073   1.397   0.844   4.115  0.8850 -1.5148  0.9710
 2328Sol     MW12074   1.371   0.785   4.053 -0.0773  1.1230  0.8553
 2329Sol     OW12075   0.497   1.712   6.186  0.6771 -0.2747  0.3829
 2329Sol     HW12076   0.467   1.739   6.099 -2.3433 -0.8248  1.2222
 2329Sol     HW12077   0.556   1.783   6.213 -0.9845  1.5781 -0.7096
 2329Sol     MW12078   0.500   1.721   6.180  0.2822 -0.1600 -0.1374
 2330Sol     OW12079   0.138   1.456   6.230  0.1598  0.2346  0.2424
 2330Sol     HW12080   0.136   1.392   6.301  2.2261  1.3619  1.3561
 2330Sol     HW12081   0.207   1.518   6.255 -1.8096  2.9387 -0.7601
 2330Sol     MW12082   0.144   1.456   6.239 -0.1718 -0.0614 -0.1648
 2331Sol     OW12083   0.456   2.324   1.992  0.3338 -0.9199 -0.2786
 2331Sol     HW12084   0.426   2.405   2.035  2.8349  0.5912 -1.2465
 2331Sol     HW12085   0.381   2.296   1.940 -1.0030  0.0705  1.0459
 2331Sol     MW12086   0.446   2.329   1.991  0.4457  0.2454 -0.4166
 2332Sol     OW12087   1.858   1.356   7.799  0.3247 -0.4148 -0.1884
 2332Sol     HW12088   1.822   1.396   7.720  4.1195 -0.7165 -2.2120
 2332Sol     HW12089   1.888   1.429   7.853 -0.6446 -0.2689  0.1557
 2332Sol     MW12090   1.858   1.366   7.797  0.2044 -0.0248  0.2829
 2333Sol     OW12091   2.660   0.901   4.266 -0.2849 -0.0287  0.1642
 2333Sol     HW12092   2.577   0.867   4.299  0.4725 -2.0252  0.0909
 2333Sol     HW12093   2.726   0.860   4.322  0.6880  0.9078 -0.2994
 2333Sol     MW12094   2.658   0.894   4.274  0.0211 -0.5645  0.0281
 2334Sol     OW12095   2.163   2.440   5.971  0.0993 -0.3151  0.2327
 2334Sol     HW12096   2.101   2.412   6.039 -2.2817  0.8903 -1.3723
 2334Sol     HW12097   2.108   2.465   5.897  2.5187  1.0208 -1.1882
 2334Sol     MW12098   2.152   2.439   5.970  0.0826 -0.1532 -0.0819
 2335Sol     OW12099   2.193   2.500   1.801  0.4269  0.6140  0.3812
 2335Sol     HW12100   2.152   2.545   1.727  1.0043  2.4263  1.1574
 2335Sol     HW12101   2.160   2.546   1.878  0.0245 -1.1082  1.2593
 2335Sol     MW12102   2.186   2.508   1.801  0.2031  0.3563  0.2850
 2336Sol     OW12103   2.971   3.166   9.870 -0.2365 -0.6085  0.5170
 2336Sol     HW12104   2.908   3.184   9.940 -2.2609 -3.3791 -0.4866
 2336Sol     HW12105   3.019   3.089   9.901  1.3400  0.3177  0.4050
 2336Sol     MW12106   2.970   3.161   9.879 -0.1716  0.5399  0.7820
 2337Sol     OW12107   2.831   2.387   3.090  0.6427 -0.0045 -0.2342
 2337Sol     HW12108   2.920   2.376   3.057  0.1246 -0.0675 -1.6419
 2337Sol     HW12109   2.774   2.361   3.017 -0.5344 -1.8563  1.2803
 2337Sol     MW12110   2.833   2.384   3.081  0.3137 -0.1550 -0.3451
 2338Sol     OW12111   3.030   0.072   8.325 -0.1883  0.3582  0.7429
 2338Sol     HW12112   3.007   0.164   8.337 -0.5949  0.2850  0.5276
 2338Sol     HW12113   3.005   0.030   8.408 -0.2026  0.4013  0.7601
 2338Sol     MW12114   3.026   0.076   8.334 -0.3666 -0.2536  0.0906
 2339Sol     OW12115   2.091   1.532   7.528  0.4077 -0.1350 -0.7264
 2339Sol     HW12116   2.001   1.499   7.525  1.0986 -2.2265  0.0539
 2339Sol     HW12117   2.118   1.538   7.436 -0.9786  1.8851 -1.0252
 2339Sol     MW12118   2.086   1.529   7.520  0.2814  0.0919 -0.0250
 2340Sol     OW12119   0.524   3.070   8.048 -0.0643 -0.3221  0.7047
 2340Sol     HW12120   0.617   3.089   8.058 -0.0009 -1.3143  2.1551
 2340Sol     HW12121   0.507   2.998   8.109 -1.1692 -2.1003 -1.6267
 2340Sol     MW12122   0.530   3.065   8.054  0.7099  0.3442 -0.2481
 2341Sol     OW12123   2.073   2.147   9.920 -0.4921 -0.2584 -0.2692
 2341Sol     HW12124   2.064   2.134  10.014  1.6755 -1.6371 -0.2094
 2341Sol     HW12125   2.102   2.237   9.910  2.0229 -0.9409  0.6032
 2341Sol     MW12126   2.075   2.154   9.927  0.0105 -0.2257  0.0182
 2342Sol     OW12127   0.955   0.130   7.163 -0.6144 -0.1824 -0.3224
 2342Sol     HW12128   1.047   0.110   7.142 -0.8973 -0.8776 -0.8936
 2342Sol     HW12129   0.933   0.070   7.234 -0.0582  1.2821  1.1390
 2342Sol     MW12130   0.962   0.123   7.167 -0.0390 -0.0993  0.7961
 2343Sol     OW12131   3.100   2.426   4.590  0.2043 -0.3265 -0.3526
 2343Sol     HW12132   3.039   2.484   4.545  0.2213 -1.1451 -1.4495
 2343Sol     HW12133   3.058   2.406   4.674  0.7842  2.3052  0.6087
 2343Sol     MW12134   3.091   2.430   4.593  0.3179 -0.8574  0.4048
 2344Sol     OW12135   3.048   0.709   8.014 -0.3098  0.1289 -0.3878
 2344Sol     HW12136   3.140   0.708   7.988 -0.0957 -2.4764  0.3225
 2344Sol     HW12137   3.045   0.771   8.087  1.0397 -0.3436  0.0965
 2344Sol     MW12138   3.056   0.715   8.018  0.3322  0.2654  0.3961
 2345Sol     OW12139   2.117   0.306   8.615 -0.1852  0.4007 -0.3101
 2345Sol     HW12140   2.134   0.327   8.523 -1.9054 -1.6995 -1.1482
 2345Sol     HW12141   2.154   0.219   8.627 -0.4040  0.4632  0.8709
 2345Sol     MW12142   2.122   0.300   8.608 -0.9544 -0.3440 -0.1896
 2346Sol     OW12143   2.446   3.010   9.427 -0.3990  0.5989  0.2747
 2346Sol     HW12144   2.399   2.996   9.345 -0.6546 -2.8707  0.9199
 2346Sol     HW12145   2.527   3.052   9.401 -0.7712  0.1662 -1.6867
 2346Sol     MW12146   2.449   3.012   9.417 -0.1730 -0.1540 -0.0957
 2347Sol     OW12147   2.956   3.263   7.847 -0.3764 -0.2521 -0.1973
 2347Sol     HW12148   2.866   3.285   7.873 -1.4522 -2.4511 -1.8407
 2347Sol     HW12149   2.969   3.174   7.879  0.3809 -0.8012 -1.9797
 2347Sol     MW12150   2.949   3.257   7.852 -0.0721  0.5261 -0.2668
 2348Sol     OW12151   0.791   1.975   4.111  0.2882 -0.1413 -0.0217
 2348Sol     HW12152   0.787   2.015   4.024 -1.2930  1.2053  0.6459
 2348Sol     HW12153   0.842   1.895   4.099  0.9726  0.5793 -1.9747
 2348Sol     MW12154   0.795   1.971   4.102  0.3696 -0.2315 -0.2210
 2349Sol     OW12155   1.384   2.150   2.295 -0.1693  0.0842  0.0715
 2349Sol     HW12156   1.340   2.075   2.255 -0.6371  0.6085 -0.4120
 2349Sol     HW12157   1.375   2.136   2.389 -0.6979 -0.2176 -0.0198
 2349Sol     MW12158   1.379   2.142   2.300  0.1069  0.1355 -0.0159
 2350Sol     OW12159   2.624   0.003   1.979  0.5360  0.1362 -0.0900
 2350Sol     HW12160   2.583  -0.082   1.990  1.0649  0.1990  2.7881
 2350Sol     HW12161   2.569   0.063   2.029  1.2183  1.1572 -0.5377
 2350Sol     MW12162   2.616   0.001   1.984  0.1225 -0.1099  0.2129
 2351Sol     OW12163   1.352   0.419   3.912  0.3073 -0.1737  0.9112
 2351Sol     HW12164   1.285   0.400   3.977 -1.0146  2.9296  0.5432
 2351Sol     HW12165   1.306   0.414   3.828  1.0857 -0.3066  0.4873
 2351Sol     MW12166   1.342   0.417   3.910 -0.6992  0.1120  0.1439
 2352Sol     OW12167   1.978   1.904  10.057  0.5318 -0.3929  0.0129
 2352Sol     HW12168   1.944   1.907   9.968  1.4622  0.8445 -0.3175
 2352Sol     HW12169   2.032   1.824  10.060 -0.2139 -0.9063 -0.2605
 2352Sol     MW12170   1.980   1.897  10.050  0.1010 -0.4906 -0.1714
 2353Sol     OW12171   0.851   0.086   6.117 -0.0994  0.1257  0.3952
 2353Sol     HW12172   0.854   0.136   6.198 -1.7910  0.0903  0.5014
 2353Sol     HW12173   0.942   0.065   6.098  0.5679  2.5376  0.7867
 2353Sol     MW12174   0.859   0.089   6.122  0.2945 -0.0049  0.2480
 2354Sol     OW12175   0.755   1.521   1.558  0.3336 -0.1035 -0.2968
 2354Sol     HW12176   0.754   1.469   1.638  0.1514  1.6841  0.8999
 2354Sol     HW12177   0.664   1.524   1.529  0.0338  1.1850  0.7409
 2354Sol     MW12178   0.747   1.517   1.562 -0.3837  0.3121 -0.3541
 2355Sol     OW12179   1.417   0.890   2.988 -0.2584  0.5812  0.3567
 2355Sol     HW12180   1.398   0.963   2.929  0.7141  1.1022  0.6756
 2355Sol     HW12181   1.415   0.928   3.076  1.5980  0.5276  0.4422
 2355Sol     MW12182   1.415   0.900   2.991  0.1123  0.1786  0.2294
 2356Sol     OW12183   1.912   3.002   5.766  0.2395  0.2365  0.2424
 2356Sol     HW12184   1.922   2.983   5.673 -1.5651  2.1025 -0.3589
 2356Sol     HW12185   1.876   2.922   5.804  0.6436 -0.4060 -0.7231
 2356Sol     MW12186   1.910   2.993   5.761  0.0289 -0.0314 -0.1788
 2357Sol     OW12187   3.008   0.397   6.132  0.5633 -0.0628  0.2953
 2357Sol     HW12188   2.937   0.462   6.127  0.3667 -0.3160 -0.2681
 2357Sol     HW12189   3.039   0.403   6.223 -0.4950 -0.2774  0.6832
 2357Sol     MW12190   3.004   0.404   6.140  0.0287  0.1164  0.1144
 2358Sol     OW12191   0.594   2.553   9.175  0.0172  0.3071  0.1972
 2358Sol     HW12192   0.632   2.541   9.089  0.7499  1.3251  0.3683
 2358Sol     HW12193   0.511   2.598   9.159  0.2942  0.7608  0.0468
 2358Sol     MW12194   0.590   2.556   9.166 -0.2846 -0.7114  0.0407
 2359Sol     OW12195   2.066   0.737   4.360  0.0508  0.0992  0.1588
 2359Sol     HW12196   2.104   0.659   4.318 -0.4499  0.3592 -0.7762
 2359Sol     HW12197   1.985   0.753   4.312  0.1211  1.1679  0.3873
 2359Sol     MW12198   2.063   0.731   4.352 -0.3269 -0.6890 -0.5093
 2360Sol     OW12199   2.158   0.830   4.938  0.1736 -0.2838 -0.2790
 2360Sol     HW12200   2.173   0.735   4.932  1.3534 -0.2191  1.3413
 2360Sol     HW12201   2.065   0.839   4.958 -0.0492 -1.0663 -0.9175
 2360Sol     MW12202   2.151   0.822   4.939 -0.1728 -0.4856 -0.0536
 2361Sol     OW12203   3.061   1.983   2.340  0.2716  0.0194 -0.1542
 2361Sol     HW12204   2.980   2.022   2.375  0.7914  2.1607 -1.2631
 2361Sol     HW12205   3.032   1.930   2.266 -0.0406  1.4451 -1.0598
 2361Sol     MW12206   3.051   1.982   2.336  0.2740 -0.0308 -0.1724
 2362Sol     OW12207   3.009   3.088   2.001  0.3132  0.0236 -0.0611
 2362Sol     HW12208   2.952   3.156   1.964  1.5283  1.3925  0.5695
 2362Sol     HW12209   3.097   3.124   1.994  0.7827 -0.6847  2.0701
 2362Sol     MW12210   3.011   3.097   1.997  0.6011 -0.5136  0.9624
 2363Sol     OW12211   2.612   0.926   8.118 -0.6425 -0.5361  0.7531
 2363Sol     HW12212   2.593   0.988   8.188 -1.9869 -1.4053  1.1671
 2363Sol     HW12213   2.655   0.853   8.162  0.0067 -0.3617  0.4168
 2363Sol     MW12214   2.614   0.925   8.129 -0.1921  0.1304  0.1964
 2364Sol     OW12215   1.241   1.585   2.558  0.1441 -0.0262 -0.3961
 2364Sol     HW12216   1.179   1.563   2.628 -0.0663  0.6539 -0.3702
 2364Sol     HW12217   1.319   1.535   2.579  0.7735  1.6373  1.3865
 2364Sol     MW12218   1.242   1.578   2.566  0.0200  0.0089  0.0654
 2365Sol     OW12219   1.872   0.377   9.863 -0.1078  0.0309  0.2511
 2365Sol     HW12220   1.949   0.433   9.856  0.6421 -0.7943  1.6988
 2365Sol     HW12221   1.851   0.376   9.956 -0.6338 -1.3702  0.1331
 2365Sol     MW12222   1.877   0.382   9.870  0.2541  0.0005 -0.3784
 2366Sol     OW12223   2.167   1.621   9.717 -0.2683 -0.5174 -1.2482
 2366Sol     HW12224   2.090   1.669   9.747 -0.9862 -2.4118  0.0631
 2366Sol     HW12225   2.241   1.666   9.759 -0.5610  1.5942 -2.8819
 2366Sol     MW12226   2.167   1.629   9.723  0.1242  0.1387 -0.2966
 2367Sol     OW12227   2.676   0.657   2.114  0.3341  0.5153  0.6553
 2367Sol     HW12228   2.765   0.629   2.138 -0.0592 -0.3752  1.1453
 2367Sol     HW12229   2.687   0.745   2.078  1.5199  0.0845 -0.0827
 2367Sol     MW12230   2.685   0.662   2.113 -0.0230 -0.1313  0.8183
 2368Sol     OW12231   0.550   1.692   9.030 -0.2397 -0.1106  0.1068
 2368Sol     HW12232   0.569   1.691   8.936  0.3834  1.5422  0.2088
 2368Sol     HW12233   0.599   1.617   9.065 -0.9512 -1.0925 -0.9637
 2368Sol     MW12234   0.556   1.685   9.025 -0.1891 -0.1035 -0.2136
 2369Sol     OW12235   0.006   3.230   9.288  0.3834 -0.0171  0.2081
 2369Sol     HW12236  -0.040   3.283   9.353  1.7916 -1.3158  2.2959
 2369Sol     HW12237   0.073   3.288   9.251 -0.3432  0.6811 -0.0220
 2369Sol     MW12238   0.008   3.240   9.290  0.9026 -0.2249 -0.0640
 2370Sol     OW12239   2.282   0.310   7.171  0.6532 -0.3293  0.5166
 2370Sol     HW12240   2.287   0.307   7.266  0.5705  2.2645  0.6160
 2370Sol     HW12241   2.206   0.256   7.149 -1.1225  1.4790  2.1051
 2370Sol     MW12242   2.276   0.305   7.177 -0.0764 -0.0136  0.0653
 2371Sol     OW12243   1.012   0.707   7.436  0.7398  0.6094  0.3924
 2371Sol     HW12244   1.101   0.719   7.468 -0.0050  1.3541  2.2817
 2371Sol     HW12245   0.960   0.771   7.485 -0.8098  0.3329 -0.8251
 2371Sol     MW12246   1.015   0.714   7.443  0.3667  0.2829  0.3928
 2372Sol     OW12247   2.231   1.853   6.740 -0.8833  0.4374  0.1219
 2372Sol     HW12248   2.288   1.794   6.789 -2.2358 -1.4360 -0.5021
 2372Sol     HW12249   2.213   1.807   6.658 -1.2361  2.1271 -0.7650
 2372Sol     MW12250   2.234   1.843   6.737 -0.0634 -0.3500  0.3241
 2373Sol     OW12251   0.154   2.408   5.852  0.5433  0.8040  0.2734
 2373Sol     HW12252   0.171   2.426   5.759 -1.7508  0.3570 -0.2647
 2373Sol     HW12253   0.087   2.471   5.877 -0.9752 -0.9964  0.8190
 2373Sol     MW12254   0.150   2.415   5.846 -0.4975  0.6738  0.4694
 2374Sol     OW12255   1.745   2.242   1.794  0.2409  0.0927  0.0730
 2374Sol     HW12256   1.677   2.175   1.804 -1.1066  1.3416 -0.4159
 2374Sol     HW12257   1.779   2.256   1.882 -0.8638  0.1710  0.5029
 2374Sol     MW12258   1.742   2.238   1.802 -0.3091  0.0578  0.0792
 2375Sol     OW12259   0.033   0.232   3.360  0.0942 -0.4657 -0.2783
 2375Sol     HW12260  -0.006   0.173   3.424  0.4603 -0.7169 -0.2878
 2375Sol     HW12261   0.107   0.272   3.406  1.3579 -1.8690 -1.0664
 2375Sol     MW12262   0.036   0.230   3.370 -0.0963 -0.4830 -0.2827
 2376Sol     OW12263   0.855   2.169   1.934 -0.1426  0.1953  0.8441
 2376Sol     HW12264   0.906   2.139   1.858 -1.1754  0.7757 -0.0962
 2376Sol     HW12265   0.812   2.091   1.967  0.2514 -0.0486  0.7849
 2376Sol     MW12266   0.856   2.160   1.930  0.4714  0.0565 -0.4119
 2377Sol     OW12267   2.699   3.300   9.908  0.0930  0.2897 -0.0781
 2377Sol     HW12268   2.699   3.228   9.845  0.0395 -1.0074  1.3639
 2377Sol     HW12269   2.626   3.280   9.967  1.7656  0.0172  1.9930
 2377Sol     MW12270   2.692   3.291   9.908  0.2674 -0.4699 -0.2945
 2378Sol     OW12271   0.488   0.828   8.473 -0.2359  0.5246 -0.2649
 2378Sol     HW12272   0.573   0.873   8.475  1.1192 -1.6466 -4.4136
 2378Sol     HW12273   0.506   0.740   8.506 -1.1814  0.4613  0.1047
 2378Sol     MW12274   0.497   0.824   8.476 -0.2653 -0.3841  0.1513
 2379Sol     OW12275   1.919   0.513   5.828 -0.2807 -0.0958 -0.4879
 2379Sol     HW12276   1.904   0.435   5.774 -1.7804  0.1790 -0.5060
 2379Sol     HW12277   1.954   0.479   5.910  0.0341 -0.7058 -0.8752
 2379Sol     MW12278   1.921   0.503   5.831  0.1300 -0.1655 -0.3794
 2380Sol     OW12279   2.136   2.433   2.951  0.3356  0.1239 -0.3113
 2380Sol     HW12280   2.196   2.362   2.928  0.8779 -1.1854  4.5600
 2380Sol     HW12281   2.185   2.488   3.012 -2.4801  0.5682  1.6632
 2380Sol     MW12282   2.145   2.432   2.954  0.3612 -0.3393 -0.1891
 2381Sol     OW12283   1.759   1.362   5.763  0.2511 -0.0168 -0.0692
 2381Sol     HW12284   1.855   1.359   5.758  0.1706 -0.5935 -1.4762
 2381Sol     HW12285   1.734   1.271   5.782 -0.0372  0.0419 -0.1704
 2381Sol     MW12286   1.766   1.353   5.764  0.2599  0.4373  0.6493
 2382Sol     OW12287   0.864   2.802   5.607  0.2139 -0.2333 -0.0972
 2382Sol     HW12288   0.957   2.811   5.590  0.1218  1.2120  0.0496
 2382Sol     HW12289   0.833   2.735   5.546  0.9327  0.8401 -1.6392
 2382Sol     MW12290   0.869   2.797   5.600 -0.4096  0.2643 -0.0233
 2383Sol     OW12291   2.304   1.111   5.608 -0.6876 -0.1544  0.3284
 2383Sol     HW12292   2.209   1.096   5.607 -0.3950 -2.1356 -1.5431
 2383Sol     HW12293   2.338   1.041   5.664 -0.0435 -1.6266 -1.8475
 2383Sol     MW12294   2.298   1.103   5.613  0.0963  0.2920  0.3506
 2384Sol     OW12295   0.015   3.170   8.955 -0.1385  0.0684 -0.0121
 2384Sol     HW12296   0.099   3.216   8.965  0.0655 -0.4962  0.9287
 2384Sol     HW12297   0.012   3.146   8.862  1.4949 -1.3254  0.2705
 2384Sol     MW12298   0.023   3.172   8.947  0.0839  0.3455 -0.4283
 2385Sol     OW12299   1.607   2.355   6.001  0.0258 -0.0176  0.5895
 2385Sol     HW12300   1.528   2.355   6.054 -0.1798  0.3508  0.2836
 2385Sol     HW12301   1.671   2.405   6.051  0.7225 -2.0515  1.8040
 2385Sol     MW12302   1.606   2.359   6.010 -0.2949 -0.0782  0.1580
 2386Sol     OW12303   2.727   0.652   6.605  0.0605 -0.4684 -0.6097
 2386Sol     HW12304   2.693   0.666   6.517 -0.9347 -1.7678 -0.4354
 2386Sol     HW12305   2.721   0.558   6.619 -0.2436 -0.2179  1.0352
 2386Sol     MW12306   2.724   0.645   6.598  0.7998 -0.5469 -1.3689
 2387Sol     OW12307   0.980   2.255   9.819  0.4675 -0.4838 -0.0068
 2387Sol     HW12308   1.057   2.210   9.785  0.1746 -0.7517 -0.3218
 2387Sol     HW12309   0.989   2.250   9.914  1.5423  0.7052 -0.0351
 2387Sol     MW12310   0.988   2.251   9.824  0.9500  0.2176  0.2427
 2388Sol     OW12311   0.521   3.398   6.778  0.4720  0.0453  0.1484
 2388Sol     HW12312   0.491   3.396   6.687 -2.2501  0.6569  0.9793
 2388Sol     HW12313   0.520   3.307   6.806  0.0509 -0.0082 -0.0417
 2388Sol     MW12314   0.518   3.390   6.773 -0.1197 -0.1260  0.2502
 2389Sol     OW12315   1.612   1.027  10.276  0.0519 -0.0133  0.3039
 2389Sol     HW12316   1.593   0.958  10.213 -1.5648 -0.5239  1.3039
 2389Sol     HW12317   1.526   1.063  10.299  0.7395  1.2036  1.0653
 2389Sol     MW12318   1.602   1.024  10.273 -0.2110 -0.2208 -0.7495
 2390Sol     OW12319   0.337   2.461   8.487 -0.2047  0.7094 -0.6655
 2390Sol     HW12320   0.265   2.496   8.434 -1.5957 -0.2912  0.5578
 2390Sol     HW12321   0.336   2.367   8.470  2.5468  0.9537 -2.7240
 2390Sol     MW12322   0.331   2.456   8.480 -0.3704 -0.3848 -0.0438
 2391Sol     OW12323   2.123   0.638   9.564 -0.1186  0.2784 -0.3842
 2391Sol     HW12324   2.122   0.543   9.576 -0.1266  0.4479  1.0990
 2391Sol     HW12325   2.045   0.657   9.513 -0.0133 -0.5359 -0.8535
 2391Sol     MW12326   2.116   0.631   9.561  0.0660  0.5818 -0.1204
 2392Sol     OW12327   1.204   0.332   8.018  0.0099  0.0715 -0.0016
 2392Sol     HW12328   1.120   0.304   8.055 -0.0281  0.5882  0.3175
 2392Sol     HW12329   1.251   0.371   8.092  1.3698 -2.0474  0.2818
 2392Sol     MW12330   1.200   0.333   8.028 -0.4377 -0.0572 -0.0064
 2393Sol     OW12331   0.997   2.096   8.739 -0.4251  0.4896 -0.1278
 2393Sol     HW12332   0.935   2.148   8.789 -0.7312 -0.7210  0.7776
 2393Sol     HW12333   1.076   2.094   8.793 -0.9977 -1.4312  0.6876
 2393Sol     MW12334   0.999   2.100   8.748  0.1147  0.2233  0.4819
 2394Sol     OW12335   0.641   3.222   4.711 -0.1879  0.1578  0.6254
 2394Sol     HW12336   0.661   3.142   4.662  1.2031  1.0481 -0.3049
 2394Sol     HW12337   0.652   3.197   4.803  0.0822 -0.7553  0.3518
 2394Sol     MW12338   0.644   3.213   4.715  0.1800  0.2396 -0.5007
 2395Sol     OW12339   2.012   2.997   5.493 -0.7370 -0.7288  0.0772
 2395Sol     HW12340   2.098   2.985   5.533 -0.6738  0.4400  0.2967
 2395Sol     HW12341   2.011   3.087   5.462 -1.1160 -1.3366 -1.8049
 2395Sol     MW12342   2.020   3.004   5.494 -0.3984  0.1208  0.0835
 2396Sol     OW12343   2.943   0.451   4.178  0.4776  0.0748 -0.3399
 2396Sol     HW12344   2.932   0.429   4.086  1.0289  1.0122 -0.6466
 2396Sol     HW12345   2.910   0.375   4.226 -1.7471  0.4086 -1.2720
 2396Sol     MW12346   2.939   0.443   4.174 -0.2447 -0.2331  0.5577
 2397Sol     OW12347   0.864   0.631   4.065  0.4981  0.1189  0.4360
 2397Sol     HW12348   0.931   0.632   3.997  1.0332 -0.0626  0.9506
 2397Sol     HW12349   0.832   0.721   4.068  1.5141  0.4800  0.9492
 2397Sol     MW12350   0.867   0.639   4.059  0.3831  0.2202  0.1512
 2398Sol     OW12351   1.925   1.615   8.916 -0.1619 -0.0264 -0.0841
 2398Sol     HW12352   1.906   1.542   8.857 -0.8160 -0.1731  0.3093
 2398Sol     HW12353   1.848   1.622   8.972  1.2287 -1.1465  2.0456
 2398Sol     MW12354   1.917   1.609   8.916  0.3757  0.0877 -0.3578
 2399Sol     OW12355   1.883   0.324   8.137  0.0783 -0.2368 -0.0073
 2399Sol     HW12356   1.858   0.297   8.049  0.3432  0.0772 -0.1809
 2399Sol     HW12357   1.841   0.409   8.150 -0.3545 -0.5047  0.3507
 2399Sol     MW12358   1.877   0.329   8.130  0.1788  0.4971  0.2883
 2400Sol     OW12359   0.269   0.968   7.506  0.1881 -0.0417 -0.2247
 2400Sol     HW12360   0.335   1.033   7.480  0.4207 -0.2377 -0.1281
 2400Sol     HW12361   0.195   1.020   7.537 -0.2731  0.2067 -1.7071
 2400Sol     MW12362   0.268   0.979   7.507  0.4876 -0.5456 -0.1177
 2401Sol     OW12363   2.954   0.006   9.469  0.2116 -0.4219  0.8027
 2401Sol     HW12364   2.977   0.096   9.447  1.2458 -0.5694  1.2420
 2401Sol     HW12365   2.877  -0.013   9.416  2.0025 -0.4336 -1.9125
 2401Sol     MW12366   2.949   0.012   9.463 -0.4241 -0.0672 -0.4938
 2402Sol     OW12367   0.504   1.474   8.564 -0.4447 -0.4830 -0.1062
 2402Sol     HW12368   0.421   1.432   8.587  0.2990 -2.3422 -0.6612
 2402Sol     HW12369   0.567   1.435   8.625  0.0236  0.9031  0.2988
 2402Sol     MW12370   0.502   1.467   8.571 -0.3037  0.5193 -0.3826
 2403Sol     OW12371   1.153   3.150   2.013  0.3084 -0.7190  0.3633
 2403Sol     HW12372   1.115   3.202   1.942  2.0066 -1.6230 -1.2629
 2403Sol     HW12373   1.240   3.187   2.026  0.3637 -1.1769  1.3304
 2403Sol     MW12374   1.157   3.158   2.008  0.5274  0.3178 -0.0946
 2404Sol     OW12375   1.262   0.829   4.609  0.0067  0.7158  0.1741
 2404Sol     HW12376   1.321   0.889   4.654 -1.4554  1.6367  0.8665
 2404Sol     HW12377   1.177   0.873   4.608 -0.7880 -0.7740 -0.4438
 2404Sol     MW12378   1.260   0.838   4.613  0.2273  0.7117  0.5318
 2405Sol     OW12379   0.350   1.222   9.907 -0.4907  0.5137  0.1247
 2405Sol     HW12380   0.396   1.139   9.899 -0.2840  0.6569 -0.1571
 2405Sol     HW12381   0.373   1.254   9.995 -0.6670  0.2154  0.2793
 2405Sol     MW12382   0.356   1.218   9.914 -0.4336 -0.4826 -0.1199
 2406Sol     OW12383   1.883   3.406   3.387  0.3469  0.3052 -0.5976
 2406Sol     HW12384   1.946   3.391   3.458 -0.1000  0.0000 -0.2552
 2406Sol     HW12385   1.883   3.323   3.338  0.3296  0.3597 -0.6885
 2406Sol     MW12386   1.888   3.397   3.389  0.0182 -0.4543 -0.5714
 2407Sol     OW12387   2.843   0.224   5.095  0.2662  0.1448 -0.2842
 2407Sol     HW12388   2.788   0.204   5.019  1.4759 -0.2320 -1.0611
 2407Sol     HW12389   2.853   0.319   5.094  1.0310  0.0564 -1.1163
 2407Sol     MW12390   2.839   0.231   5.088  0.0063 -0.4268  0.4676
 2408Sol     OW12391   2.403   1.742   2.437 -0.2138  0.0092 -0.2384
 2408Sol     HW12392   2.373   1.687   2.509  2.8166  1.1476  1.9788
 2408Sol     HW12393   2.387   1.832   2.467 -0.6996  0.4698 -1.8236
 2408Sol     MW12394   2.399   1.745   2.446 -0.0236 -0.4284  0.2864
 2409Sol     OW12395   1.079   2.204   7.757 -0.3607  1.0979  0.3623
 2409Sol     HW12396   1.025   2.261   7.812 -0.5707  0.6585  0.6152
 2409Sol     HW12397   1.167   2.241   7.764 -0.5349  1.5242  0.3429
 2409Sol     MW12398   1.082   2.213   7.763 -0.3889 -0.0979  0.6963
 2410Sol     OW12399   2.023   2.117   4.578 -0.0304 -0.6761 -0.3771
 2410Sol     HW12400   1.972   2.107   4.497 -0.1036 -1.2214 -0.2612
 2410Sol     HW12401   1.965   2.166   4.636 -0.8023 -2.1244  0.0950
 2410Sol     MW12402   2.013   2.121   4.576  0.2757  0.0614 -0.1058
 2411Sol     OW12403   2.292   1.563   2.627 -0.3453  0.9178 -0.8661
 2411Sol     HW12404   2.219   1.513   2.663 -0.0085 -0.3432 -1.8803
 2411Sol     HW12405   2.370   1.521   2.664  0.0929 -1.5184 -4.2899
 2411Sol     MW12406   2.292   1.555   2.634  0.0601 -0.0411  0.7258
 2412Sol     OW12407   1.158   0.409   4.408  0.8432  0.4975 -0.8945
 2412Sol     HW12408   1.112   0.491   4.430  0.4361 -0.2273  1.0985
 2412Sol     HW12409   1.101   0.366   4.344 -1.5114 -0.5501  1.8067
 2412Sol     MW12410   1.149   0.413   4.404  0.3331 -0.9508  0.2633
 2413Sol     OW12411   1.685   0.328   3.011  0.3045 -0.1204 -0.4244
 2413Sol     HW12412   1.601   0.366   3.037 -0.3895 -0.6882 -1.8141
 2413Sol     HW12413   1.720   0.291   3.092  0.2308  2.0042  0.6223
 2413Sol     MW12414   1.681   0.328   3.021 -0.0690 -0.6394  0.1173
 2414Sol     OW12415   2.691   3.223   8.718  0.9854  0.1010 -0.4559
 2414Sol     HW12416   2.687   3.295   8.781  1.8245 -0.0564 -0.2118
 2414Sol     HW12417   2.749   3.256   8.649  1.8182 -0.5361 -0.0762
 2414Sol     MW12418   2.696   3.232   8.717  0.1979 -0.5278  0.0339
 2415Sol     OW12419   1.653   1.656  10.537 -0.5144  0.0352 -0.2671
 2415Sol     HW12420   1.739   1.697  10.543 -0.4341 -0.1432 -0.1812
 2415Sol     HW12421   1.668   1.574  10.491 -0.5373 -0.2688  0.2544
 2415Sol     MW12422   1.662   1.652  10.534  0.0960  0.5093 -1.0622
 2416Sol     OW12423   3.101   3.396   8.080  0.3774 -0.3262 -1.2873
 2416Sol     HW12424   3.076   3.416   8.170  0.3379  1.1400 -1.6087
 2416Sol     HW12425   3.021   3.366   8.038 -0.0627  0.9258 -1.3600
 2416Sol     MW12426   3.092   3.395   8.084 -0.0670  0.6428 -0.4710
 2417Sol     OW12427   1.471   1.868   8.559 -0.0375  0.3896  0.1948
 2417Sol     HW12428   1.392   1.917   8.582 -0.0399  0.3646  0.2394
 2417Sol     HW12429   1.502   1.832   8.642  0.9973  1.8590  0.4662
 2417Sol     MW12430   1.467   1.869   8.568 -0.2831 -0.2162 -0.3909
 2418Sol     OW12431   1.216   0.367   9.645  0.6609  0.4029 -0.1880
 2418Sol     HW12432   1.229   0.296   9.707 -1.5544  0.2908  0.1613
 2418Sol     HW12433   1.241   0.330   9.560 -0.6904 -0.8630 -0.0348
 2418Sol     MW12434   1.220   0.358   9.643 -0.1033  0.3446  0.3632
 2419Sol     OW12435   2.953   3.303   5.175 -0.4292 -0.2454  0.5504
 2419Sol     HW12436   3.011   3.228   5.191 -1.0531 -0.9472 -0.4019
 2419Sol     HW12437   2.937   3.301   5.081 -2.3771 -0.3370  0.8642
 2419Sol     MW12438   2.957   3.296   5.168  0.7017  0.2679 -0.3655
 2420Sol     OW12439   2.241   1.327   1.774 -0.1597 -0.0282  0.0024
 2420Sol     HW12440   2.215   1.336   1.866 -0.9086  0.6724 -0.2744
 2420Sol     HW12441   2.326   1.369   1.769 -0.3683  0.4288  0.2637
 2420Sol     MW12442   2.246   1.331   1.782 -0.0511  0.4706 -0.1525
 2421Sol     OW12443   0.349   2.656   9.121  0.0172 -0.3880 -0.0780
 2421Sol     HW12444   0.307   2.688   9.201 -0.7662 -1.8090  0.1051
 2421Sol     HW12445   0.306   2.572   9.104  1.9788 -1.3185 -0.5372
 2421Sol     MW12446   0.341   2.651   9.127  0.6632 -0.3058 -0.4305
 2422Sol     OW12447   3.093   2.508   7.272 -0.7793 -0.2091 -0.3870
 2422Sol     HW12448   3.018   2.475   7.323 -0.2617  0.3746  0.7811
 2422Sol     HW12449   3.059   2.585   7.227 -0.6185  0.6535  0.9509
 2422Sol     MW12450   3.083   2.512   7.273 -0.0996 -0.0415  0.0522
 2423Sol     OW12451   2.411   0.680   8.920 -0.2666 -0.3624 -0.2609
 2423Sol     HW12452   2.345   0.639   8.864  0.3136 -0.9500 -0.5231
 2423Sol     HW12453   2.440   0.609   8.978  0.5866 -0.2719 -0.5704
 2423Sol     MW12454   2.407   0.670   8.920  0.1110  0.4694 -0.0633
 2424Sol     OW12455   2.995   1.847   2.104 -0.0779 -0.2335 -0.1145
 2424Sol     HW12456   2.997   1.890   2.019  0.1417  0.6670  0.3396
 2424Sol     HW12457   3.076   1.796   2.108  0.2025  0.2053 -0.2002
 2424Sol     MW12458   3.002   1.846   2.097  0.5138 -0.0827 -0.5533
 2425Sol     OW12459   0.865   1.404   7.370  0.6547 -0.2468  0.0287
 2425Sol     HW12460   0.838   1.433   7.457 -0.3733  0.2734 -0.4494
 2425Sol     HW12461   0.809   1.454   7.310  2.8030  0.9892 -1.0132
 2425Sol     MW12462   0.857   1.411   7.372 -0.5202  0.7664  0.2881
 2426Sol     OW12463   0.818   1.985   2.947 -0.2066  0.2984 -0.0943
 2426Sol     HW12464   0.880   2.025   2.887 -4.2639  2.6469 -3.0297
 2426Sol     HW12465   0.804   2.051   3.015  0.6325 -0.3004  0.6629
 2426Sol     MW12466   0.822   1.994   2.948  0.2049  0.3276  0.5269
 2427Sol     OW12467   1.092   0.961   9.281  0.5046 -0.5905  0.1526
 2427Sol     HW12468   1.171   1.002   9.249  0.2394  1.0991  1.5763
 2427Sol     HW12469   1.021   1.014   9.245  0.1032 -0.7554  0.6977
 2427Sol     MW12470   1.092   0.969   9.275  0.2215  0.2950 -0.4147
 2428Sol     OW12471   0.866   3.081   6.455 -0.0380 -0.0506 -0.7948
 2428Sol     HW12472   0.782   3.126   6.466  0.1508 -0.2270  1.8576
 2428Sol     HW12473   0.924   3.147   6.417 -0.5729  1.0662  0.2848
 2428Sol     MW12474   0.864   3.091   6.453  0.0301  0.0756  0.1885
 2429Sol     OW12475   1.430   0.541   9.689  0.2313  0.1903 -0.0648
 2429Sol     HW12476   1.394   0.575   9.771 -0.6621 -0.4557 -0.1803
 2429Sol     HW12477   1.371   0.470   9.664  0.7317  0.1052 -1.0545
 2429Sol     MW12478   1.422   0.537   9.694 -0.1594  0.5301 -0.4312
 2430Sol     OW12479   2.646   2.521   3.263  0.4559  0.3162 -0.2382
 2430Sol     HW12480   2.619   2.568   3.184  1.1645 -0.0547 -0.7044
 2430Sol     HW12481   2.724   2.473   3.237 -0.3994 -1.3175  0.1861
 2430Sol     MW12482   2.651   2.521   3.253  0.2220  0.0196 -0.0971
 2431Sol     OW12483   1.076   3.322   1.824  0.2305  0.3979 -0.5639
 2431Sol     HW12484   0.984   3.349   1.835  0.2721  1.4034 -2.4133
 2431Sol     HW12485   1.127   3.397   1.855  0.3850  0.7109 -1.5388
 2431Sol     MW12486   1.072   3.331   1.827  0.7208  0.2363  0.7930
 2432Sol     OW12487   2.846   0.657   4.322  0.0577  0.1059 -0.4744
 2432Sol     HW12488   2.902   0.596   4.273 -0.4654  0.4010 -1.4470
 2432Sol     HW12489   2.765   0.608   4.336 -0.1368  0.3596 -0.7162
 2432Sol     MW12490   2.844   0.647   4.319 -0.6014 -0.8138 -0.0972
 2433Sol     OW12491   0.932   1.126   6.242  0.2384 -0.4911 -0.1470
 2433Sol     HW12492   0.885   1.136   6.159  0.6366  0.4045 -0.2676
 2433Sol     HW12493   0.877   1.172   6.306  0.0894 -0.9108  0.0259
 2433Sol     MW12494   0.923   1.131   6.240  0.0123 -0.6943  0.4410
 2434Sol     OW12495   0.979   2.081   2.731  0.1751 -0.2052  0.0174
 2434Sol     HW12496   0.905   2.106   2.675  0.5471  1.1255  0.1035
 2434Sol     HW12497   1.037   2.031   2.673  0.0008  0.1828 -0.5003
 2434Sol     MW12498   0.978   2.079   2.721 -0.2231  0.4157 -0.5489
 2435Sol     OW12499   0.550   0.561   7.607 -0.5023  0.1654  0.6960
 2435Sol     HW12500   0.580   0.649   7.583  0.7178  0.0302  1.6491
 2435Sol     HW12501   0.624   0.504   7.583 -0.1389 -0.2337  2.7198
 2435Sol     MW12502   0.560   0.564   7.602 -0.2702 -0.2151  0.0563
 2436Sol     OW12503   3.027   2.791   2.032  0.0105 -0.3491  0.5528
 2436Sol     HW12504   3.007   2.865   1.975  1.4024 -0.7272 -0.4603
 2436Sol     HW12505   3.120   2.801   2.052  0.2606 -1.9400  0.2497
 2436Sol     MW12506   3.034   2.799   2.029  0.0364  0.0808 -0.8148
 2437Sol     OW12507   0.249   2.364   4.248 -0.0743 -0.2149 -0.5538
 2437Sol     HW12508   0.174   2.401   4.200 -0.2013 -0.1573 -0.3137
 2437Sol     HW12509   0.258   2.275   4.213 -0.2771 -0.2349 -0.5573
 2437Sol     MW12510   0.243   2.359   4.240 -0.7018 -0.2791  0.1766
 2438Sol     OW12511   1.840   3.278   8.926 -0.3121 -0.1808 -0.3231
 2438Sol     HW12512   1.935   3.294   8.919 -0.0433 -1.4026  0.4031
 2438Sol     HW12513   1.801   3.348   8.874  0.9758  0.6090 -0.2799
 2438Sol     MW12514   1.845   3.286   8.921  0.3100  0.5987 -0.1775
 2439Sol     OW12515   2.532   2.671   6.266  0.0372  0.4741  0.2424
 2439Sol     HW12516   2.590   2.610   6.312 -2.3191 -0.8069  1.6057
 2439Sol     HW12517   2.489   2.617   6.199 -0.6127  1.0641  0.1789
 2439Sol     MW12518   2.533   2.661   6.264 -0.0148 -0.7682  0.0871
 2440Sol     OW12519   0.779   0.070   9.418 -0.2903  0.1454  0.7845
 2440Sol     HW12520   0.730   0.041   9.341 -0.6397  0.1087  1.0182
 2440Sol     HW12521   0.867   0.089   9.385 -0.6991  1.0428  0.1897
 2440Sol     MW12522   0.782   0.069   9.408 -0.3914 -0.9843 -0.2065
 2441Sol     OW12523   2.441   2.474   5.813  0.2170  0.2147 -0.4619
 2441Sol     HW12524   2.416   2.544   5.753 -0.2571  0.4655  0.0260
 2441Sol     HW12525   2.368   2.468   5.874  1.5143  1.2644  1.2450
 2441Sol     MW12526   2.433   2.480   5.813 -0.3634  0.8214 -0.1633
 2442Sol     OW12527   1.522   0.600   5.956  0.1832  0.7485 -0.1677
 2442Sol     HW12528   1.456   0.632   6.017  0.3215  3.1492 -1.2209
 2442Sol     HW12529   1.605   0.633   5.990  0.4955  0.2758 -0.4660
 2442Sol     MW12530   1.523   0.606   5.964  0.6616 -0.0280  0.1060
 2443Sol     OW12531   0.488   2.201   5.891 -0.4714  0.1550 -0.4623
 2443Sol     HW12532   0.461   2.150   5.815 -0.9270  0.6240 -0.6182
 2443Sol     HW12533   0.549   2.144   5.937  1.3276  0.5896 -2.2154
 2443Sol     MW12534   0.491   2.191   5.888 -0.0324  0.0622  0.5473
 2444Sol     OW12535   1.234   0.179   6.151  0.0064 -0.7970 -0.2602
 2444Sol     HW12536   1.324   0.164   6.125  0.4927  0.9583  0.3229
 2444Sol     HW12537   1.204   0.096   6.186  0.9731 -1.7490 -1.6426
 2444Sol     MW12538   1.239   0.170   6.152 -0.7358 -0.0043  0.1045
 2445Sol     OW12539   2.828   1.594   5.960 -0.6176  0.4434  0.0500
 2445Sol     HW12540   2.894   1.536   5.998 -0.1934  0.3303 -0.8492
 2445Sol     HW12541   2.824   1.669   6.019 -1.2029 -0.5205  1.2500
 2445Sol     MW12542   2.834   1.595   5.968 -0.6607 -0.1247  0.4332
 2446Sol     OW12543   2.612   2.137   2.602 -0.2010  0.0912  0.3709
 2446Sol     HW12544   2.669   2.213   2.614  1.2426 -0.6933 -1.2914
 2446Sol     HW12545   2.610   2.094   2.688  0.9814  0.6507  0.6840
 2446Sol     MW12546   2.617   2.140   2.610 -0.3485  0.6306  0.5438
 2447Sol     OW12547   0.173   1.184   9.256 -0.4004 -0.5928 -0.1094
 2447Sol     HW12548   0.199   1.099   9.292 -1.1568  0.2355  2.4658
 2447Sol     HW12549   0.081   1.173   9.233 -0.6448 -0.3351  0.7179
 2447Sol     MW12550   0.167   1.175   9.257  0.3089 -0.2157  0.2811
 2448Sol     OW12551   1.165   2.549   8.957 -0.0361  0.9196 -0.0670
 2448Sol     HW12552   1.161   2.456   8.979  1.6298 -0.3240 -4.6419
 2448Sol     HW12553   1.079   2.583   8.984 -0.8984 -2.0447  1.1129
 2448Sol     MW12554   1.157   2.544   8.962 -0.1213  0.3078 -0.3056
 2449Sol     OW12555   1.806   1.669   6.423  0.4184 -0.3139  0.5771
 2449Sol     HW12556   1.782   1.714   6.504  0.5053 -1.7507  1.4216
 2449Sol     HW12557   1.856   1.733   6.373 -0.7308  1.0127  1.0847
 2449Sol     MW12558   1.808   1.679   6.426  0.0272 -0.0492  0.0018
 2450Sol     OW12559   1.588   2.698   7.856 -0.1919 -0.1097 -0.2212
 2450Sol     HW12560   1.609   2.630   7.920 -1.5365 -0.4565 -0.1339
 2450Sol     HW12561   1.514   2.663   7.807  0.1076  0.6331 -1.2243
 2450Sol     MW12562   1.583   2.689   7.857 -0.2794 -0.2519  0.6285
 2451Sol     OW12563   0.158   1.132   1.939  0.3801 -0.5080  0.4723
 2451Sol     HW12564   0.091   1.101   2.001 -0.7325  1.2271  0.1781
 2451Sol     HW12565   0.216   1.186   1.992  1.7100 -2.1965  0.7730
 2451Sol     MW12566   0.157   1.134   1.949 -0.2042 -0.0761  0.0233
 2452Sol     OW12567   1.539   1.026   8.366 -0.0445 -0.0294 -0.0423
 2452Sol     HW12568   1.547   0.992   8.277  0.0551  0.5281 -0.2472
 2452Sol     HW12569   1.536   1.121   8.356  0.5986  0.0627  0.5979
 2452Sol     MW12570   1.539   1.032   8.357  0.0626 -0.4278  0.3977
 2453Sol     OW12571   1.770   1.456   7.507  0.0082 -0.4992  0.0380
 2453Sol     HW12572   1.696   1.502   7.546  0.2474 -0.7025  0.7366
 2453Sol     HW12573   1.731   1.382   7.461 -0.1359 -1.2898  1.3997
 2453Sol     MW12574   1.760   1.454   7.506  0.2453  0.0091  0.6491
 2454Sol     OW12575   0.455   3.047   7.296 -0.2820  0.7941 -0.5128
 2454Sol     HW12576   0.494   3.134   7.301 -0.0027  0.5860  1.0051
 2454Sol     HW12577   0.529   2.987   7.297 -0.4959  0.5087 -1.1035
 2454Sol     MW12578   0.465   3.049   7.297 -0.1354  0.1420 -0.4883
 2455Sol     OW12579   2.880   0.115   3.017 -0.0463 -0.0132 -0.7628
 2455Sol     HW12580   2.850   0.041   3.070  0.8576 -0.4981 -0.9074
 2455Sol     HW12581   2.829   0.108   2.936 -1.6280  0.8946  0.1375
 2455Sol     MW12582   2.873   0.108   3.014  0.5279 -0.2331 -0.0995
 2456Sol     OW12583   2.241   2.449   8.281 -0.9035  0.5030  0.1080
 2456Sol     HW12584   2.280   2.403   8.207  0.0285  1.7678 -0.2090
 2456Sol     HW12585   2.295   2.424   8.356 -0.2336  1.2547 -0.1100
 2456Sol     MW12586   2.249   2.443   8.281 -0.4997  0.1848 -0.2843
 2457Sol     OW12587   0.850   2.135   4.482 -0.2786 -0.3731 -0.8854
 2457Sol     HW12588   0.786   2.134   4.553 -1.7399  0.3566 -2.1676
 2457Sol     HW12589   0.867   2.228   4.466  0.5068 -0.5448 -1.0978
 2457Sol     MW12590   0.846   2.144   4.487 -0.2809  0.6063  0.1306
 2458Sol     OW12591   1.428   0.350   7.579  0.2094 -0.3653  0.5522
 2458Sol     HW12592   1.392   0.296   7.508  1.6469 -0.7367  0.0763
 2458Sol     HW12593   1.467   0.425   7.534  1.7003 -0.9258  0.8788
 2458Sol     MW12594   1.428   0.352   7.569  0.5710 -0.4343  0.2234
 2459Sol     OW12595   1.687   2.161   9.774  0.2033  0.2190 -0.4666
 2459Sol     HW12596   1.681   2.189   9.866 -1.3746 -0.5487 -0.3303
 2459Sol     HW12597   1.748   2.224   9.734  1.6273  0.0225  1.3020
 2459Sol     MW12598   1.692   2.169   9.779  0.3948  0.4032 -0.1184
 2460Sol     OW12599   1.870   0.332   7.836  0.2186  0.5352 -0.4917
 2460Sol     HW12600   1.964   0.321   7.822  0.0592 -2.5461  0.4547
 2460Sol     HW12601   1.831   0.251   7.804 -2.0821  1.5379 -0.3515
 2460Sol     MW12602   1.875   0.324   7.832 -0.2158 -0.3600  0.4232
 2461Sol     OW12603   1.450   0.032   3.243  0.3469  0.4933  0.2858
 2461Sol     HW12604   1.508  -0.022   3.189  0.0851  0.5723 -0.0746
 2461Sol     HW12605   1.371  -0.021   3.255 -0.1304  1.0154 -0.5275
 2461Sol     MW12606   1.448   0.022   3.239 -0.0654  0.1851  0.1667
 2462Sol     OW12607   0.165   0.696   1.647 -0.0259 -0.2357 -0.0606
 2462Sol     HW12608   0.259   0.715   1.646  0.2141 -1.4091 -0.5141
 2462Sol     HW12609   0.159   0.602   1.661 -1.0975 -0.4017 -1.4648
 2462Sol     MW12610   0.173   0.690   1.648  0.2013 -0.4461  0.3275
 2463Sol     OW12611   1.983   0.254   6.464  0.0635 -0.1875 -0.5023
 2463Sol     HW12612   1.899   0.216   6.492 -0.6249  1.3994 -0.3579
 2463Sol     HW12613   2.046   0.182   6.473 -1.3240 -1.4756 -0.8511
 2463Sol     MW12614   1.981   0.244   6.467 -0.2718 -0.4670  0.3084
 2464Sol     OW12615   1.870   0.585   1.784  0.4261 -0.4521 -0.3137
 2464Sol     HW12616   1.877   0.535   1.865  0.3825 -0.6575 -0.4382
 2464Sol     HW12617   1.929   0.660   1.797  0.4435 -0.5026 -0.1063
 2464Sol     MW12618   1.876   0.587   1.793 -0.0784  0.6548  0.4877
 2465Sol     OW12619   1.571   3.042   4.174 -0.4703 -0.3221 -0.3263
 2465Sol     HW12620   1.585   3.000   4.090 -1.7940 -0.5100 -0.4591
 2465Sol     HW12621   1.497   2.995   4.213 -0.7421  0.6340  0.3379
 2465Sol     MW12622   1.565   3.034   4.170  0.5597 -0.7786 -0.3710
 2466Sol     OW12623   1.084   0.983   7.033  0.2335  0.4672 -0.5745
 2466Sol     HW12624   1.098   0.930   7.112 -1.2567 -0.0468 -0.6326
 2466Sol     HW12625   1.087   1.073   7.064 -2.2990  0.2527  0.4604
 2466Sol     MW12626   1.085   0.986   7.043 -0.6666  0.1461  0.1124
 2467Sol     OW12627   2.365   1.650   4.236  0.2838 -0.1482  0.4187
 2467Sol     HW12628   2.316   1.592   4.294  1.6265  0.8032  2.5663
 2467Sol     HW12629   2.299   1.684   4.175 -1.0823 -1.4871  1.1217
 2467Sol     MW12630   2.354   1.648   4.236 -0.1323  0.4932 -0.2081
 2468Sol     OW12631   0.789   2.212   3.110 -0.4767 -0.1066 -0.1556
 2468Sol     HW12632   0.717   2.211   3.173  0.2273  0.8832  0.6895
 2468Sol     HW12633   0.757   2.266   3.038 -0.5967  0.3225  0.2143
 2468Sol     MW12634   0.780   2.217   3.109  0.0286  0.2287  0.4207
 2469Sol     OW12635   1.693   0.312   9.231 -0.1721 -0.2618 -0.5717
 2469Sol     HW12636   1.676   0.256   9.306 -1.3246 -0.0921 -0.6993
 2469Sol     HW12637   1.750   0.260   9.174  0.1793 -0.6285  0.1098
 2469Sol     MW12638   1.697   0.303   9.233 -0.1613 -0.5714 -0.3689
 2470Sol     OW12639   0.923   0.548   5.233  0.3921  0.6078  0.2661
 2470Sol     HW12640   0.885   0.627   5.272 -3.6848 -1.4420  0.7333
 2470Sol     HW12641   0.998   0.527   5.289  0.2751  2.9572  1.3554
 2470Sol     MW12642   0.926   0.553   5.242  0.0819  0.0049  0.3704
 2471Sol     OW12643   2.643   0.781   2.610 -0.3608  0.3337 -0.2675
 2471Sol     HW12644   2.685   0.781   2.696  0.0521  0.3061 -0.4684
 2471Sol     HW12645   2.667   0.697   2.571 -0.1869  0.5307 -0.5844
 2471Sol     MW12646   2.649   0.774   2.614  0.4724 -0.0589 -0.5122
 2472Sol     OW12647   1.018   2.949   7.641 -0.7392  0.0989  0.2843
 2472Sol     HW12648   1.064   2.874   7.605  0.1849  0.6342  0.3243
 2472Sol     HW12649   0.999   2.926   7.732 -0.2394  0.0165  0.3648
 2472Sol     MW12650   1.020   2.940   7.646 -0.2315  0.1855  0.3066
 2473Sol     OW12651   2.665   1.617   8.325 -0.5208  0.1777 -0.0262
 2473Sol     HW12652   2.632   1.692   8.276  1.1457  0.6705 -0.4180
 2473Sol     HW12653   2.615   1.543   8.292 -2.2862  1.1192  0.4728
 2473Sol     MW12654   2.657   1.617   8.318  0.2088 -0.7514 -0.1295
 2474Sol     OW12655   0.530   1.586   1.797  0.3552 -0.2345  0.4158
 2474Sol     HW12656   0.549   1.493   1.803  0.5567 -0.2680 -0.7069
 2474Sol     HW12657   0.454   1.592   1.740  3.3064  0.5898 -3.6701
 2474Sol     MW12658   0.525   1.578   1.792 -0.1971  0.1856 -0.1138
 2475Sol     OW12659   2.074   1.129  10.101 -0.2858 -0.1394  0.1006
 2475Sol     HW12660   2.141   1.099  10.040 -0.1871  0.2765  0.0039
 2475Sol     HW12661   2.011   1.177  10.047 -0.3658 -0.0468  0.2738
 2475Sol     MW12662   2.075   1.131  10.091 -0.2789  0.0544 -0.0700
 2476Sol     OW12663   1.240   1.898   8.293  0.5374  0.5000  0.3562
 2476Sol     HW12664   1.240   1.960   8.366 -1.0261  0.2044  0.6333
 2476Sol     HW12665   1.196   1.946   8.222 -0.3365 -0.1541  0.4538
 2476Sol     MW12666   1.236   1.908   8.293 -0.0383 -0.2848  0.3141
 2477Sol     OW12667   2.275   3.365   1.707 -0.0246  0.0054  0.1703
 2477Sol     HW12668   2.330   3.442   1.718 -0.5064  0.5867 -1.3817
 2477Sol     HW12669   2.254   3.337   1.797  1.9443  0.3674  0.7615
 2477Sol     MW12670   2.278   3.369   1.716 -0.6541 -0.2086 -0.7037
 2478Sol     OW12671   2.034   2.980   6.652  0.5120  0.1319 -0.3249
 2478Sol     HW12672   2.041   3.042   6.724 -2.3667  1.2717 -0.9646
 2478Sol     HW12673   1.945   2.947   6.657  0.7908 -1.0560 -2.3523
 2478Sol     MW12674   2.027   2.982   6.659  0.1321  0.4731  0.4440
 2479Sol     OW12675   0.907   3.322   8.524  0.3056  0.7169  0.1051
 2479Sol     HW12676   0.886   3.412   8.552  1.5479  1.1692 -0.3927
 2479Sol     HW12677   0.987   3.331   8.473 -0.2416 -0.5323 -0.9810
 2479Sol     MW12678   0.912   3.331   8.522 -0.0913 -0.4778  0.0199
 2480Sol     OW12679   0.547   1.511   2.672  0.4509  0.2713  0.0933
 2480Sol     HW12680   0.526   1.571   2.744 -1.1704  1.2336 -1.1209
 2480Sol     HW12681   0.465   1.463   2.657  1.4383 -1.5225  0.3588
 2480Sol     MW12682   0.538   1.512   2.677 -0.2468 -0.5828 -0.0246
 2481Sol     OW12683   0.438   0.229   4.243  0.0114 -0.0423 -0.0053
 2481Sol     HW12684   0.501   0.166   4.279  0.5445 -0.3150 -1.3874
 2481Sol     HW12685   0.379   0.177   4.189  0.2642  0.5904 -0.9024
 2481Sol     MW12686   0.439   0.219   4.242 -0.4833 -0.2885 -0.2347
 2482Sol     OW12687   2.927   1.792   9.200  0.0430 -0.5382  0.6224
 2482Sol     HW12688   2.900   1.719   9.144 -0.5452 -0.9064  1.3826
 2482Sol     HW12689   3.019   1.807   9.176 -0.1456 -0.8178 -0.2995
 2482Sol     MW12690   2.933   1.786   9.192 -0.2896 -0.0701  0.1196
 2483Sol     OW12691   2.850   2.416   7.408 -0.4379  0.1580 -0.1134
 2483Sol     HW12692   2.819   2.507   7.416 -1.4714 -0.3374  1.8381
 2483Sol     HW12693   2.796   2.379   7.338 -1.2394  0.5605  0.2828
 2483Sol     MW12694   2.842   2.421   7.402  0.1771 -0.6500  0.2999
 2484Sol     OW12695   0.808   0.407   7.935  0.1137  0.5285 -0.5812
 2484Sol     HW12696   0.741   0.351   7.895  0.3689  0.0779 -0.3844
 2484Sol     HW12697   0.870   0.424   7.864  1.2308 -1.2969 -0.0821
 2484Sol     MW12698   0.807   0.403   7.925 -0.5400 -0.1856  0.5306
 2485Sol     OW12699   0.848   2.208   8.950 -0.0141 -0.6981 -0.1680
 2485Sol     HW12700   0.861   2.279   9.013 -0.2984 -1.8187  1.1877
 2485Sol     HW12701   0.830   2.131   9.004 -3.4777 -1.0485 -1.7055
 2485Sol     MW12702   0.848   2.208   8.960  0.0341  0.1568 -0.1603
 2486Sol     OW12703   2.602   1.410   8.869 -0.0183  0.1868  0.1642
 2486Sol     HW12704   2.527   1.386   8.923  1.3584 -1.4207  1.4238
 2486Sol     HW12705   2.671   1.350   8.896  1.6147  1.3828 -1.2390
 2486Sol     MW12706   2.602   1.402   8.876  0.2500  0.0390  0.4413
 2487Sol     OW12707   0.893   0.127   8.332  0.4840  0.3059  1.0072
 2487Sol     HW12708   0.847   0.049   8.299  0.0690  0.2416  1.7107
 2487Sol     HW12709   0.831   0.166   8.394  0.1609  1.9324 -0.2854
 2487Sol     MW12710   0.883   0.123   8.335  0.0261  0.0910  0.6004
 2488Sol     OW12711   0.516   1.045   4.605 -0.1964 -0.0157 -0.3778
 2488Sol     HW12712   0.538   1.121   4.659 -2.8495 -0.1060  0.9120
 2488Sol     HW12713   0.470   0.985   4.664  1.5078 -2.4771 -1.4797
 2488Sol     MW12714   0.514   1.046   4.615  0.2018 -0.1310  0.4416
 2489Sol     OW12715   1.156   3.129   5.816 -0.2746 -0.3515 -0.0365
 2489Sol     HW12716   1.148   3.164   5.727  0.4386  0.1013  0.0698
 2489Sol     HW12717   1.095   3.055   5.819  0.2163 -0.8089 -1.1273
 2489Sol     MW12718   1.150   3.125   5.808  0.8220 -0.2581 -0.2687
 2490Sol     OW12719   2.028   0.701   6.825 -0.2880 -0.1535 -0.3084
 2490Sol     HW12720   2.016   0.796   6.822 -0.6003 -0.1740  0.1466
 2490Sol     HW12721   1.944   0.667   6.858  0.4002 -0.4501  1.1762
 2490Sol     MW12722   2.019   0.706   6.828  0.2170  0.5586  0.3196
 2491Sol     OW12723   1.936   2.031   9.106 -0.1059 -0.4100  0.1221
 2491Sol     HW12724   2.006   2.079   9.150 -0.5710  0.0595  0.3517
 2491Sol     HW12725   1.974   1.944   9.090  0.7600  0.0544 -0.3725
 2491Sol     MW12726   1.946   2.027   9.109  0.4444 -0.0765  0.0162
 2492Sol     OW12727   2.082   1.046   7.098  0.3120  0.1356  0.0620
 2492Sol     HW12728   2.040   0.973   7.144 -0.6013  1.1122  0.8092
 2492Sol     HW12729   2.142   1.004   7.036 -0.8300 -1.2683 -0.1219
 2492Sol     MW12730   2.083   1.036   7.096 -0.4864 -0.1934  0.9827
 2493Sol     OW12731   0.116   1.452   4.593 -0.2809  0.1671 -0.6119
 2493Sol     HW12732   0.149   1.538   4.619  0.2129 -0.0799 -0.4254
 2493Sol     HW12733   0.099   1.407   4.675  1.8453 -0.8330 -0.6951
 2493Sol     MW12734   0.118   1.456   4.602  0.1456 -0.2126 -0.1291
 2494Sol     OW12735   1.013   2.163   7.304 -0.3074 -0.2168  0.1219
 2494Sol     HW12736   1.016   2.242   7.251  2.8642  0.5142  1.2846
 2494Sol     HW12737   1.073   2.102   7.261 -1.5904 -1.4860  0.0623
 2494Sol     MW12738   1.019   2.164   7.295 -0.0053  0.2265 -0.2583
 2495Sol     OW12739   0.496   2.011   8.718 -0.0584 -0.3275  0.0224
 2495Sol     HW12740   0.478   1.972   8.632  1.2364 -0.3107 -0.2606
 2495Sol     HW12741   0.565   2.075   8.701 -1.7671  1.7166  0.5761
 2495Sol     MW12742   0.500   2.013   8.709  0.1970  0.0555 -0.1462
 2496Sol     OW12743   2.786   2.989   4.109  0.4069  0.0292 -0.0285
 2496Sol     HW12744   2.729   2.971   4.035  0.8536 -0.2192 -0.3182
 2496Sol     HW12745   2.795   2.905   4.153  1.6435 -0.2507 -0.7715
 2496Sol     MW12746   2.782   2.980   4.106 -0.6779  0.4344 -0.0419
 2497Sol     OW12747   1.356   0.636   9.145  0.0232 -0.8944  0.1015
 2497Sol     HW12748   1.304   0.569   9.100 -1.6751  2.0380 -2.5102
 2497Sol     HW12749   1.297   0.673   9.210 -0.1543  0.2629 -0.6968
 2497Sol     MW12750   1.346   0.633   9.147 -0.3970 -0.6662  0.0625
 2498Sol     OW12751   2.462   0.198   2.083  0.1741  0.2995  0.0492
 2498Sol     HW12752   2.479   0.288   2.110  0.9261  1.0733 -2.8152
 2498Sol     HW12753   2.410   0.161   2.155 -0.0643  2.9551  1.3239
 2498Sol     MW12754   2.459   0.203   2.092 -0.3207  0.2465  0.1536
 2499Sol     OW12755   1.937   2.637   2.848  0.0187  0.2828  0.0193
 2499Sol     HW12756   1.998   2.567   2.871  0.1022  0.7812  1.3537
 2499Sol     HW12757   1.987   2.694   2.790  0.6613  0.3997  0.6747
 2499Sol     MW12758   1.947   2.636   2.845 -0.4813  0.0299 -0.1771
 2500Sol     OW12759   0.575   1.871   7.945 -0.1827 -0.1497 -0.0493
 2500Sol     HW12760   0.500   1.921   7.912 -0.0146 -2.1108 -3.6523
 2500Sol     HW12761   0.649   1.904   7.893  0.4660 -1.9423 -0.2753
 2500Sol     MW12762   0.575   1.879   7.937 -0.2840 -0.2597  0.4012
 2501Sol     OW12763   1.080   1.644   9.341  0.0241 -0.1977  0.1492
 2501Sol     HW12764   1.168   1.681   9.336 -0.6558  1.3739 -0.8222
 2501Sol     HW12765   1.056   1.651   9.433 -0.3848  2.6015 -0.1041
 2501Sol     MW12766   1.086   1.648   9.348 -0.9241 -0.9263  0.1011
 2502Sol     OW12767   1.418   2.959   3.868  0.3086 -0.2512  0.0025
 2502Sol     HW12768   1.374   2.989   3.788  1.9260  0.3630 -0.6787
 2502Sol     HW12769   1.408   3.031   3.930 -0.1625 -0.3558  0.0467
 2502Sol     MW12770   1.413   2.968   3.866  0.5838  0.6103  0.0427
 2503Sol     OW12771   0.888   0.643  10.039  0.2725 -0.4885  0.2332
 2503Sol     HW12772   0.971   0.653   9.992  0.6558  1.9723  1.3953
 2503Sol     HW12773   0.875   0.548  10.044  2.7475 -0.8916 -0.4191
 2503Sol     MW12774   0.894   0.635  10.035 -0.0972  0.4010  0.0673
 2504Sol     OW12775   0.029   1.115   7.598  0.0228  0.1363 -0.2055
 2504Sol     HW12776  -0.056   1.114   7.553  0.3932  0.2927 -0.8969
 2504Sol     HW12777   0.006   1.133   7.690 -0.7894 -1.0019 -0.1691
 2504Sol     MW12778   0.019   1.116   7.602 -0.7554 -0.1339  0.2992
 2505Sol     OW12779   0.611   0.209   7.794 -0.3397  0.4507  0.1957
 2505Sol     HW12780   0.537   0.227   7.736  0.2522 -1.6378 -1.2646
 2505Sol     HW12781   0.573   0.163   7.869 -0.8347  1.4907  0.5975
 2505Sol     MW12782   0.601   0.206   7.796 -0.2122  0.0449 -0.3817
 2506Sol     OW12783   0.510   1.975   1.889  0.0476  0.2203 -0.3965
 2506Sol     HW12784   0.487   1.941   1.803 -0.1691  0.6983 -0.5298
 2506Sol     HW12785   0.427   2.009   1.924  0.3579  1.0501 -0.4670
 2506Sol     MW12786   0.500   1.975   1.885 -0.4188  0.0767 -0.0339
 2507Sol     OW12787   2.660   1.172   9.768  0.2830 -0.2975  0.1440
 2507Sol     HW12788   2.657   1.209   9.680  1.1746  0.0559  0.2612
 2507Sol     HW12789   2.600   1.226   9.819  1.5571  0.9784  0.3071
 2507Sol     MW12790   2.654   1.180   9.764 -0.8268 -0.5077 -0.0028
 2508Sol     OW12791   1.837   2.379   8.135  0.3583  0.0705 -0.1365
 2508Sol     HW12792   1.837   2.375   8.231  0.6639  1.5577 -0.0638
 2508Sol     HW12793   1.918   2.425   8.113 -0.1294  0.4927 -1.0708
 2508Sol     MW12794   1.844   2.382   8.142  0.2538  0.0882  0.5547
 2509Sol     OW12795   2.363   2.771   5.967  0.5040  0.5139  0.0729
 2509Sol     HW12796   2.335   2.788   5.877  1.5080 -3.0092 -0.9776
 2509Sol     HW12797   2.457   2.751   5.960  0.0564 -2.3524  1.4982
 2509Sol     MW12798   2.369   2.771   5.958 -0.7500 -0.2781 -0.3463
 2510Sol     OW12799   2.821   1.009   6.797 -0.3926  0.4682 -0.1485
 2510Sol     HW12800   2.857   1.085   6.752  0.5476 -0.5890 -1.1787
 2510Sol     HW12801   2.767   1.047   6.867 -1.0847  2.0965 -1.5254
 2510Sol     MW12802   2.819   1.019   6.800  0.7662 -0.0754  0.5594
 2511Sol     OW12803   0.045   0.907  10.008 -0.8311  0.4063 -0.3330
 2511Sol     HW12804   0.068   0.814   9.999 -0.0622  0.1492  3.3065
 2511Sol     HW12805  -0.046   0.906  10.038 -0.4607  0.7650  0.8244
 2511Sol     MW12806   0.039   0.898  10.010 -0.2152 -0.1371  0.1409
 2512Sol     OW12807   0.265   2.262   8.817  0.1720 -0.2483  0.3916
 2512Sol     HW12808   0.327   2.238   8.886 -1.2951  1.6938  2.4921
 2512Sol     HW12809   0.224   2.180   8.791  2.0923 -1.2596  0.4805
 2512Sol     MW12810   0.267   2.253   8.821  0.0200  0.2781  0.3822
 2513Sol     OW12811   2.086   3.145   6.877 -0.8582 -0.1930  0.5160
 2513Sol     HW12812   2.065   3.185   6.961  1.0066  1.1821  0.3795
 2513Sol     HW12813   2.154   3.202   6.840 -0.6015 -1.5931 -1.2499
 2513Sol     MW12814   2.091   3.153   6.881 -0.8440 -0.1572 -0.4135
 2514Sol     OW12815   0.975   1.763   3.474  0.0921 -0.1138  0.2389
 2514Sol     HW12816   1.057   1.754   3.522  0.0884 -2.6812 -0.1571
 2514Sol     HW12817   0.919   1.815   3.531  2.0439  1.8802  0.4027
 2514Sol     MW12818   0.977   1.766   3.483  0.4529 -0.3167  0.4448
 2515Sol     OW12819   2.011   2.449   7.600 -0.1737 -0.8061 -0.1242
 2515Sol     HW12820   1.926   2.477   7.635  0.7213  0.2919  1.2033
 2515Sol     HW12821   2.031   2.513   7.532 -0.3488 -1.0189 -0.3809
 2515Sol     MW12822   2.005   2.457   7.597 -0.4696 -0.3036  0.3867
 2516Sol     OW12823   0.807   0.458   7.567  0.3792  0.0388 -0.1956
 2516Sol     HW12824   0.832   0.515   7.494  1.2462  0.5025  0.4532
 2516Sol     HW12825   0.865   0.484   7.639 -0.4377 -0.4353  0.6510
 2516Sol     MW12826   0.814   0.466   7.567 -0.2051 -0.3542 -0.0734
 2517Sol     OW12827   1.027   1.929   7.837  0.4977 -0.0969 -0.1835
 2517Sol     HW12828   0.938   1.922   7.800 -0.2489  1.6308  1.1958
 2517Sol     HW12829   1.070   1.995   7.782  0.7747 -0.5877 -0.5566
 2517Sol     MW12830   1.023   1.934   7.829  0.4062 -0.2385 -0.3768
 2518Sol     OW12831   0.055   2.455   9.299  0.2608  0.1281 -0.3219
 2518Sol     HW12832  -0.030   2.411   9.303 -0.0238  0.7030 -0.1376
 2518Sol     HW12833   0.037   2.540   9.259  0.2134  1.5813  2.6749
 2518Sol     MW12834   0.046   2.458   9.295  0.2073 -0.3221 -0.1565
 2519Sol     OW12835   2.188   2.725   2.442  0.0620 -0.2303 -0.3376
 2519Sol     HW12836   2.160   2.641   2.405  1.4692 -0.5711 -0.6692
 2519Sol     HW12837   2.208   2.780   2.366 -1.2481  0.5463 -0.1253
 2519Sol     MW12838   2.188   2.722   2.432  0.7521  0.3493 -0.4353
 2520Sol     OW12839   2.554   2.621   3.007  0.4492 -0.2395 -0.1270
 2520Sol     HW12840   2.459   2.623   3.011  0.3828 -1.3532 -1.0875
 2520Sol     HW12841   2.577   2.697   2.953  0.1186  0.0191  0.0901
 2520Sol     MW12842   2.548   2.628   3.003 -0.1222 -0.0877 -0.3169
 2521Sol     OW12843   0.597   1.910   2.530  0.2977  0.5510  0.5482
 2521Sol     HW12844   0.606   1.915   2.435 -1.3505 -0.7456  0.2970
 2521Sol     HW12845   0.504   1.923   2.546  0.5486  0.6484  1.9824
 2521Sol     MW12846   0.590   1.911   2.523  0.4345  0.3557  0.3782
 2522Sol     OW12847   0.136   1.750   2.101 -0.0322 -0.3291 -0.3982
 2522Sol     HW12848   0.152   1.708   2.186  0.4497  1.0785  0.2272
 2522Sol     HW12849   0.220   1.747   2.056 -0.3026 -1.1279 -0.8500
 2522Sol     MW12850   0.145   1.746   2.105 -0.6692 -0.0444 -0.3193
 2523Sol     OW12851   2.737   0.207   5.351 -0.0632  0.3214 -0.5326
 2523Sol     HW12852   2.816   0.163   5.380 -0.5749  0.3528  0.9278
 2523Sol     HW12853   2.752   0.224   5.258  0.8481 -1.3695 -0.7093
 2523Sol     MW12854   2.745   0.205   5.345 -0.4576 -0.1767  0.2471
 2524Sol     OW12855   2.781   2.243   9.412 -0.3963  0.0878 -0.2662
 2524Sol     HW12856   2.851   2.220   9.352 -2.7571 -2.9330 -2.0333
 2524Sol     HW12857   2.769   2.164   9.466 -1.0876  1.2840  1.3754
 2524Sol     MW12858   2.786   2.234   9.412 -0.1045  0.6065 -0.1187
 2525Sol     OW12859   1.190   3.238   5.564  0.0419  0.3591 -0.5806
 2525Sol     HW12860   1.135   3.299   5.514 -1.1409  0.0301  0.2923
 2525Sol     HW12861   1.276   3.245   5.524 -0.2865  1.9721 -1.0491
 2525Sol     MW12862   1.193   3.245   5.556 -0.3483 -0.0047 -0.2205
 2526Sol     OW12863   2.191   0.891  10.587  0.0547 -0.3690  0.5182
 2526Sol     HW12864   2.286   0.893  10.601  0.2682 -0.1506 -0.9190
 2526Sol     HW12865   2.172   0.971  10.539 -0.7586 -0.7732  0.1612
 2526Sol     MW12866   2.198   0.899  10.584 -0.8420  0.3312 -0.0782
 2527Sol     OW12867   1.884   0.630   9.450 -0.1279  0.1558 -0.2098
 2527Sol     HW12868   1.793   0.650   9.469 -0.6148 -1.6042 -0.5275
 2527Sol     HW12869   1.882   0.589   9.363  0.7627 -1.1333  0.3484
 2527Sol     MW12870   1.876   0.628   9.444 -0.4867  1.1816 -0.2779
 2528Sol     OW12871   0.533   0.225   4.727  0.5810  0.2125 -0.2999
 2528Sol     HW12872   0.480   0.250   4.652 -1.0217 -1.5766  0.1997
 2528Sol     HW12873   0.499   0.278   4.799  1.0146  0.7194 -0.4621
 2528Sol     MW12874   0.525   0.232   4.727 -0.0988 -0.2928  0.3146
 2529Sol     OW12875   1.464   2.518  10.060 -0.1950 -0.1575  0.0318
 2529Sol     HW12876   1.469   2.605  10.101 -0.3214  0.1339 -0.5676
 2529Sol     HW12877   1.390   2.476  10.105 -1.2809  0.7072 -0.9052
 2529Sol     MW12878   1.457   2.522  10.068  0.6524  0.2831 -0.0692
 2530Sol     OW12879   0.841   0.954   3.143 -0.2780  0.3797 -0.2674
 2530Sol     HW12880   0.762   0.937   3.092 -0.0300 -2.8222  0.2952
 2530Sol     HW12881   0.913   0.922   3.088  0.2399 -0.4725  0.8858
 2530Sol     MW12882   0.840   0.950   3.134 -0.0450  0.1420  0.0097
 2531Sol     OW12883   2.473   2.655   3.693 -0.4178  0.2082  0.3131
 2531Sol     HW12884   2.501   2.638   3.783 -1.0348 -0.2176  0.4249
 2531Sol     HW12885   2.409   2.587   3.674  0.7691 -0.5718 -0.9412
 2531Sol     MW12886   2.470   2.648   3.699  0.4683 -0.0714 -0.6107
 2532Sol     OW12887   1.925   2.397   3.175  0.2094  0.0818 -0.4310
 2532Sol     HW12888   1.970   2.338   3.235 -0.6150 -2.2035 -1.9814
 2532Sol     HW12889   1.973   2.389   3.093 -0.3568  1.0035 -0.8581
 2532Sol     MW12890   1.933   2.391   3.173 -0.1645  0.2143  0.7442
 2533Sol     OW12891   0.804   3.175   5.363  0.3728  0.2739  0.1473
 2533Sol     HW12892   0.891   3.153   5.397 -0.9002 -1.8210  2.1988
 2533Sol     HW12893   0.745   3.161   5.438 -1.9767 -0.2661 -1.7527
 2533Sol     MW12894   0.806   3.172   5.373 -0.1525 -0.0620  0.0774
 2534Sol     OW12895   2.361   1.268   9.903  0.4182  0.2038 -0.5704
 2534Sol     HW12896   2.308   1.300   9.831  0.7178 -0.3774 -1.0593
 2534Sol     HW12897   2.335   1.176   9.913  0.7710  0.1302 -0.3089
 2534Sol     MW12898   2.354   1.262   9.897  0.0716  0.1082 -0.0182
 2535Sol     OW12899   2.255   1.956   9.093  0.2373 -0.1109 -0.3092
 2535Sol     HW12900   2.218   1.868   9.095 -0.4438  0.2020  1.9810
 2535Sol     HW12901   2.317   1.954   9.020  2.5885 -3.4928  1.6025
 2535Sol     MW12902   2.258   1.948   9.087  0.3889  0.1353 -0.4037
 2536Sol     OW12903   2.390   2.499   8.723  0.6702  0.8745 -0.4057
 2536Sol     HW12904   2.391   2.439   8.648 -1.0180 -0.6172  0.7121
 2536Sol     HW12905   2.341   2.575   8.691 -2.4887 -0.9218 -0.0302
 2536Sol     MW12906   2.385   2.501   8.713  0.1437 -0.0236 -0.3180
 2537Sol     OW12907   2.409   0.326   9.540  0.0010 -0.6457 -0.2786
 2537Sol     HW12908   2.466   0.378   9.597 -0.2355 -1.2419  0.5075
 2537Sol     HW12909   2.401   0.242   9.585 -1.4060 -0.6029 -0.4388
 2537Sol     MW12910   2.413   0.323   9.549  0.2517  0.0080 -0.2155
 2538Sol     OW12911   0.302   2.109   5.046 -0.4193 -0.1584  0.1939
 2538Sol     HW12912   0.368   2.134   5.110 -0.7898 -0.9223  0.8816
 2538Sol     HW12913   0.350   2.058   4.981 -0.5164 -1.6786  1.2846
 2538Sol     MW12914   0.312   2.106   5.046 -0.1657  0.2936  0.2721
 2539Sol     OW12915   2.616   1.780   5.022  0.0474 -0.3677 -0.3194
 2539Sol     HW12916   2.582   1.797   5.110 -1.6694 -0.8186 -0.8555
 2539Sol     HW12917   2.567   1.840   4.966  0.7661 -0.4473 -1.0361
 2539Sol     MW12918   2.608   1.787   5.025 -0.5195 -0.3521 -0.0161
 2540Sol     OW12919   1.245   1.296   9.152  0.7142  0.0625  0.1318
 2540Sol     HW12920   1.299   1.218   9.162 -0.2093 -0.6995 -0.6589
 2540Sol     HW12921   1.307   1.368   9.139  1.5494 -0.6258  0.2983
 2540Sol     MW12922   1.255   1.296   9.152 -0.2461 -0.3507  0.3873
 2541Sol     OW12923   0.145   3.003   9.674  0.4056  0.3714 -0.1519
 2541Sol     HW12924   0.091   2.979   9.750 -0.1264  0.8220 -0.3754
 2541Sol     HW12925   0.144   2.926   9.618  0.2044  0.2820 -0.0269
 2541Sol     MW12926   0.140   2.994   9.676  0.3776  0.0254  0.2480
 2542Sol     OW12927   1.404   2.937   6.369  0.2011 -0.5403  0.0653
 2542Sol     HW12928   1.467   2.933   6.297 -0.3885 -0.0904 -0.4854
 2542Sol     HW12929   1.415   3.025   6.407  0.1484 -0.5864  0.1891
 2542Sol     MW12930   1.410   2.945   6.366 -0.6583  0.0570 -0.4461
 2543Sol     OW12931   2.805   0.210   4.248 -0.0531  0.4620 -0.7692
 2543Sol     HW12932   2.723   0.165   4.270  0.3650  0.0292 -0.0728
 2543Sol     HW12933   2.845   0.155   4.180  1.0302 -0.8713  0.9300
 2543Sol     MW12934   2.801   0.201   4.244 -0.0911 -0.0197  0.3826
 2544Sol     OW12935   1.029   1.200   2.022 -0.1087  0.0185  0.0422
 2544Sol     HW12936   1.034   1.295   2.007 -0.2785 -0.0137 -0.2012
 2544Sol     HW12937   1.009   1.193   2.115  0.8509  0.2119  0.2758
 2544Sol     MW12938   1.028   1.208   2.029 -0.4325 -0.5288  0.0226
 2545Sol     OW12939   1.486   0.491   9.345 -0.1025  0.0431 -0.0113
 2545Sol     HW12940   1.571   0.470   9.306  0.7978 -0.6936  2.2238
 2545Sol     HW12941   1.462   0.575   9.307 -0.6145 -1.8771 -4.1642
 2545Sol     MW12942   1.491   0.496   9.338 -0.0407 -0.0008 -0.3129
 2546Sol     OW12943   2.890   0.924   7.905 -0.3048 -0.4946  0.0678
 2546Sol     HW12944   2.941   0.847   7.879 -1.0702 -0.8781 -0.2867
 2546Sol     HW12945   2.889   0.920   8.001 -0.5688 -1.0672  0.0425
 2546Sol     MW12946   2.895   0.916   7.911 -0.3771  0.4808  0.4374
 2547Sol     OW12947   1.334   2.786   6.592 -0.0683 -0.4107  0.4986
 2547Sol     HW12948   1.239   2.789   6.580 -0.1419 -0.1768  1.0842
 2547Sol     HW12949   1.370   2.826   6.513 -0.5354  1.5935  1.2751
 2547Sol     MW12950   1.329   2.790   6.584  0.0194  0.0583  0.4064
 2548Sol     OW12951   1.779   0.170   9.661  0.1279 -0.0506  0.3028
 2548Sol     HW12952   1.812   0.228   9.730 -0.1045 -0.8676  1.1123
 2548Sol     HW12953   1.812   0.084   9.685 -1.5287 -0.6650  0.4236
 2548Sol     MW12954   1.785   0.168   9.670  0.2734 -0.4065 -0.3647
 2549Sol     OW12955   1.882   0.223  10.546 -0.0467 -0.6476 -0.0500
 2549Sol     HW12956   1.954   0.267  10.500  1.9857  0.7301  4.1119
 2549Sol     HW12957   1.829   0.295  10.582 -0.5454 -1.6028  1.1761
 2549Sol     MW12958   1.884   0.234  10.545  0.0694 -0.0833  0.2593
 2550Sol     OW12959   0.762   0.627   3.657  0.4304  0.0239 -0.0249
 2550Sol     HW12960   0.819   0.597   3.728  1.0161  0.2284 -0.3978
 2550Sol     HW12961   0.814   0.695   3.612  0.7794 -1.3286 -1.7121
 2550Sol     MW12962   0.772   0.631   3.659  0.2430  0.2292 -0.2606
 2551Sol     OW12963   2.927   0.756   6.744  0.6912  0.3616  0.2239
 2551Sol     HW12964   2.887   0.843   6.749  0.1583  0.0851  0.8922
 2551Sol     HW12965   2.861   0.702   6.701  1.1711  0.3709 -0.5292
 2551Sol     MW12966   2.917   0.758   6.740  0.3462  0.0217  0.3213
 2552Sol     OW12967   0.438   2.967   7.039 -0.0270  0.5043 -0.1937
 2552Sol     HW12968   0.423   3.010   7.123 -0.0879  0.3276 -0.1125
 2552Sol     HW12969   0.451   3.038   6.976 -0.6265  0.6492 -0.1555
 2552Sol     MW12970   0.438   2.977   7.041  0.0814  0.0767  0.3388
 2553Sol     OW12971   0.611   1.782   4.465 -0.5659  0.7065 -0.7699
 2553Sol     HW12972   0.589   1.849   4.401 -0.6386  0.4187 -1.0499
 2553Sol     HW12973   0.528   1.743   4.490 -0.5376  0.8182 -0.5002
 2553Sol     MW12974   0.602   1.784   4.461  0.5757 -0.6781 -0.0920
 2554Sol     OW12975   0.685   3.243   7.289 -0.8771 -0.3941 -0.0972
 2554Sol     HW12976   0.725   3.157   7.277 -2.0700 -0.8368 -1.0859
 2554Sol     HW12977   0.749   3.292   7.339  0.3478 -1.4788 -0.5460
 2554Sol     MW12978   0.694   3.239   7.292  0.3403 -0.4791 -0.1639
 2555Sol     OW12979   0.187   0.697   4.392  0.3301  0.1324 -0.0209
 2555Sol     HW12980   0.152   0.683   4.304  0.9690 -0.1094 -0.2407
 2555Sol     HW12981   0.281   0.712   4.378  0.3736  0.4121  0.5892
 2555Sol     MW12982   0.193   0.697   4.383  0.1949  0.1245  0.6607
 2556Sol     OW12983   2.490   2.270   2.329 -0.3234  0.1474 -0.4295
 2556Sol     HW12984   2.435   2.298   2.257  0.1721  2.3815  0.0126
 2556Sol     HW12985   2.490   2.175   2.325  0.7793  0.2505 -4.1834
 2556Sol     MW12986   2.485   2.264   2.323 -0.5870 -0.6849 -0.3659
 2557Sol     OW12987   1.177   3.019   3.046 -0.3419 -0.1984 -0.0160
 2557Sol     HW12988   1.179   3.077   2.970  3.1149  0.5189  0.5177
 2557Sol     HW12989   1.181   2.931   3.009 -0.9582  0.0765 -0.7288
 2557Sol     MW12990   1.178   3.016   3.036 -0.0584 -0.1300  0.0005
 2558Sol     OW12991   0.953   1.898   6.335 -0.3598 -0.0971 -0.1785
 2558Sol     HW12992   0.973   1.832   6.402  0.8564  0.2876 -0.1375
 2558Sol     HW12993   1.037   1.913   6.292 -1.0189  0.0752 -1.4196
 2558Sol     MW12994   0.963   1.893   6.337 -0.7359  0.1102  0.4376
 2559Sol     OW12995   2.648   2.211   8.492  0.5175 -0.5818  0.3348
 2559Sol     HW12996   2.608   2.130   8.521  0.8765 -0.1170  2.1596
 2559Sol     HW12997   2.707   2.185   8.421 -0.0433 -1.7770  0.3028
 2559Sol     MW12998   2.650   2.202   8.488 -0.1832 -0.3634  0.5563
 2560Sol     OW12999   2.554   1.135   9.468  0.0220 -0.2231 -0.6786
 2560Sol     HW13000   2.481   1.196   9.457  0.5398  0.0966 -2.6298
 2560Sol     HW13001   2.536   1.065   9.405  2.4763  0.9632 -2.7986
 2560Sol     MW13002   2.546   1.135   9.461  0.4726 -0.1675  0.1178
 2561Sol     OW13003   0.372   0.553   8.208 -0.2300  0.4297  0.5188
 2561Sol     HW13004   0.350   0.643   8.230 -0.2686  0.2234  1.3640
 2561Sol     HW13005   0.461   0.541   8.241 -0.4479 -0.0138  0.9706
 2561Sol     MW13006   0.378   0.560   8.213  0.2257  0.0295 -0.7976
 2562Sol     OW13007   2.619   0.770   5.347 -0.7639 -0.4332 -0.5145
 2562Sol     HW13008   2.657   0.833   5.407 -0.0562 -0.9471 -0.4118
 2562Sol     HW13009   2.635   0.806   5.260 -1.3130  0.0459 -0.4233
 2562Sol     MW13010   2.624   0.779   5.344  0.2673  0.0721  1.0826
 2563Sol     OW13011   0.485   2.814  10.097  0.5071 -0.0240  0.0831
 2563Sol     HW13012   0.495   2.885  10.034 -1.7676  1.7588  1.6473
 2563Sol     HW13013   0.525   2.738  10.055 -1.4288  0.9752 -3.7527
 2563Sol     MW13014   0.489   2.813  10.088 -0.1878 -0.2706 -0.7693
 2564Sol     OW13015   0.184   2.967   5.430  0.1369  0.0365 -0.3769
 2564Sol     HW13016   0.187   2.984   5.336 -0.3288  0.1735 -0.3712
 2564Sol     HW13017   0.092   2.984   5.454  0.5890  1.4975  0.3780
 2564Sol     MW13018   0.176   2.970   5.423 -0.3081 -0.3392 -0.0217
 2565Sol     OW13019   1.135   1.926   2.530  0.3647 -0.0081 -0.3697
 2565Sol     HW13020   1.141   1.834   2.555  0.6993  0.6646  2.1863
 2565Sol     HW13021   1.068   1.929   2.462 -1.4477 -1.8138  1.2702
 2565Sol     MW13022   1.130   1.918   2.526 -0.1609  0.3800 -0.0183
 2566Sol     OW13023   2.016   0.688   7.208 -0.0107 -0.1739 -0.3591
 2566Sol     HW13024   2.082   0.733   7.261  0.6584  0.0982 -1.4197
 2566Sol     HW13025   2.067   0.637   7.145 -0.8195  1.6392 -2.5342
 2566Sol     MW13026   2.026   0.687   7.207  0.0589  0.3957 -0.1262
 2567Sol     OW13027   0.332   0.782   3.511  0.0909  0.4497 -0.1410
 2567Sol     HW13028   0.376   0.827   3.439  0.5428  1.2469  0.6260
 2567Sol     HW13029   0.250   0.830   3.523 -1.8264 -2.0047 -2.6405
 2567Sol     MW13030   0.329   0.790   3.505  0.1888 -0.2580 -0.2023
 2568Sol     OW13031   2.288   1.679   8.408  0.4414  0.2351 -0.0888
 2568Sol     HW13032   2.327   1.750   8.356  0.9228 -0.1044 -0.1997
 2568Sol     HW13033   2.320   1.696   8.497 -0.2976  0.7558  0.0853
 2568Sol     MW13034   2.295   1.687   8.411 -0.3226 -0.2076  0.0772
 2569Sol     OW13035   2.289   0.179   4.013 -0.4101 -0.1792  0.3278
 2569Sol     HW13036   2.284   0.089   3.981 -1.0172  0.2480 -0.7922
 2569Sol     HW13037   2.216   0.188   4.074  0.1646 -0.6911  1.1130
 2569Sol     MW13038   2.282   0.172   4.016 -0.0749 -0.3090 -0.2527
 2570Sol     OW13039   0.860   3.364   7.433 -0.1992  0.3703  0.0325
 2570Sol     HW13040   0.921   3.309   7.482 -1.3596  0.0939  1.2002
 2570Sol     HW13041   0.826   3.426   7.497 -0.0686  1.4637 -0.9328
 2570Sol     MW13042   0.863   3.365   7.443 -0.2391 -0.3606 -0.1965
 2571Sol     OW13043   0.219   0.993   8.962  0.7890  0.1068 -0.0727
 2571Sol     HW13044   0.294   0.940   8.989  0.1446 -0.7849 -0.0154
 2571Sol     HW13045   0.214   1.063   9.027  0.3760 -0.9594  1.0594
 2571Sol     MW13046   0.225   0.995   8.970  0.2309 -0.7986  0.1500
 2572Sol     OW13047   2.156   1.181   5.952  0.0268  0.5259 -0.0102
 2572Sol     HW13048   2.214   1.216   5.884  0.2286 -0.1378 -0.1886
 2572Sol     HW13049   2.155   1.248   6.020 -1.1616  1.7639 -1.2200
 2572Sol     MW13050   2.161   1.190   5.952  0.3283 -0.6765  0.4096
 2573Sol     OW13051   0.216   0.458   6.881  0.4195  0.2285 -0.2235
 2573Sol     HW13052   0.203   0.422   6.968 -0.5688 -0.8297 -0.7849
 2573Sol     HW13053   0.310   0.477   6.876  0.4223  0.6191  1.1795
 2573Sol     MW13054   0.223   0.456   6.888  0.3646  0.8285 -0.5561
 2574Sol     OW13055   1.583   3.067   5.513 -0.2663  0.5355  0.1826
 2574Sol     HW13056   1.606   3.066   5.420  2.0490 -1.0705  0.7258
 2574Sol     HW13057   1.612   3.152   5.544 -0.3609  0.7794 -0.3889
 2574Sol     MW13058   1.587   3.074   5.507 -0.1416  0.1446  0.5427
 2575Sol     OW13059   1.437   0.004   7.813  0.2875  0.0955 -0.6012
 2575Sol     HW13060   1.386   0.015   7.732 -1.1865  0.8481  0.4178
 2575Sol     HW13061   1.479  -0.081   7.803  1.5857  0.9649 -2.9584
 2575Sol     MW13062   1.436  -0.003   7.805 -0.2154  0.0534  0.4810
 2576Sol     OW13063   2.231   0.779   2.532  0.2258  0.1781  0.2801
 2576Sol     HW13064   2.288   0.849   2.564  0.0389  0.4544  0.0167
 2576Sol     HW13065   2.164   0.769   2.599  2.0709 -1.9716  1.8765
 2576Sol     MW13066   2.230   0.784   2.541 -0.4263  0.9745 -0.0063
 2577Sol     OW13067   1.450   2.500   7.434 -0.0849  0.2356  0.1246
 2577Sol     HW13068   1.415   2.414   7.413 -0.1803  0.5355 -0.9829
 2577Sol     HW13069   1.400   2.561   7.380  0.6581  0.8791  0.1400
 2577Sol     MW13070   1.443   2.498   7.427  0.0970 -0.0210 -0.6229
 2578Sol     OW13071   1.993   0.448   3.273 -0.1921 -0.1649  0.2137
 2578Sol     HW13072   2.028   0.529   3.238  0.4900  0.6246  2.6258
 2578Sol     HW13073   2.069   0.389   3.278  0.2525  0.5823  2.7198
 2578Sol     MW13074   2.003   0.450   3.270 -0.2798  0.0991  0.0792
 2579Sol     OW13075   2.012   0.638   3.701 -0.7113 -0.1655 -0.1193
 2579Sol     HW13076   2.105   0.638   3.677 -0.9806  1.2234 -1.1961
 2579Sol     HW13077   1.977   0.558   3.662  0.1040 -0.9176  0.6522
 2579Sol     MW13078   2.017   0.631   3.696  0.0575 -0.5952 -0.4139
 2580Sol     OW13079   0.838   1.092   9.206  0.1797 -0.3972 -0.1090
 2580Sol     HW13080   0.792   1.044   9.137 -0.2033 -1.1103  0.6206
 2580Sol     HW13081   0.809   1.182   9.196  0.6461 -0.3673 -1.2904
 2580Sol     MW13082   0.831   1.096   9.199 -0.1796  0.6143  1.1781
 2581Sol     OW13083   0.465   3.377   3.975 -0.9306  0.3836  0.2676
 2581Sol     HW13084   0.496   3.289   3.997 -0.2829  0.7220  0.7187
 2581Sol     HW13085   0.531   3.436   4.012 -2.1674  1.1178  1.3405
 2581Sol     MW13086   0.474   3.374   3.980  0.3960 -0.4775  0.6915
 2582Sol     OW13087   2.179   1.909   6.120 -0.1196 -0.3486  0.9384
 2582Sol     HW13088   2.134   1.993   6.125  1.1272  0.2522  2.9901
 2582Sol     HW13089   2.234   1.914   6.042 -0.6167  0.4560  0.6461
 2582Sol     MW13090   2.180   1.917   6.114 -0.1347 -0.6644 -0.2003
 2583Sol     OW13091   3.026   1.301   3.669 -0.1310  0.0801  0.8039
 2583Sol     HW13092   3.066   1.367   3.725  0.3687 -1.8393  2.7981
 2583Sol     HW13093   3.002   1.230   3.729 -2.6715 -0.6126 -0.9668
 2583Sol     MW13094   3.028   1.300   3.679  0.0724  0.8256 -0.1682
 2584Sol     OW13095   0.652   0.518   2.365 -0.0152  0.0732 -0.2720
 2584Sol     HW13096   0.569   0.485   2.329  1.1693 -0.8472 -2.2135
 2584Sol     HW13097   0.669   0.462   2.441 -0.7715 -0.2530 -0.3408
 2584Sol     MW13098   0.646   0.510   2.368 -0.3843 -0.1736  0.4696
 2585Sol     OW13099   2.467   0.003   9.170  0.0362  0.5302 -0.1350
 2585Sol     HW13100   2.374  -0.016   9.159 -0.1559  1.9839 -1.0629
 2585Sol     HW13101   2.470   0.097   9.184  1.4598  0.6287 -1.0929
 2585Sol     MW13102   2.459   0.009   9.171 -0.1522 -0.3795 -0.0531
 2586Sol     OW13103   1.030   0.158   9.337 -0.3513  0.1698 -0.1124
 2586Sol     HW13104   1.015   0.193   9.249  1.2129  0.4158 -0.2960
 2586Sol     HW13105   1.112   0.200   9.365 -1.0227  0.3515  1.5865
 2586Sol     MW13106   1.036   0.165   9.331 -0.3202 -0.9926  0.3670
 2587Sol     OW13107   1.955   0.759  10.545 -0.1154  0.4927  0.4190
 2587Sol     HW13108   1.895   0.832  10.550  0.7131  1.4265 -2.3589
 2587Sol     HW13109   2.040   0.795  10.572  0.1556  0.4264 -0.3140
 2587Sol     MW13110   1.957   0.768  10.547 -0.1400  0.0780  0.0436
 2588Sol     OW13111   1.067   1.389   6.378  0.7210  0.4288  0.3957
 2588Sol     HW13112   1.020   1.326   6.323  0.3062  0.5074  0.6568
 2588Sol     HW13113   1.141   1.340   6.413  0.1387 -0.0504  0.9714
 2588Sol     MW13114   1.069   1.379   6.376 -0.5477  0.2096 -0.0783
 2589Sol     OW13115   2.435   0.125   5.559  0.1986 -0.5311 -0.6919
 2589Sol     HW13116   2.402   0.069   5.630 -0.5317 -0.9775 -1.3810
 2589Sol     HW13117   2.358   0.172   5.527  1.3167  3.4938  2.1456
 2589Sol     MW13118   2.425   0.124   5.563 -0.4114 -0.1744  0.1490
 2590Sol     OW13119   2.936   2.121   8.003  0.4795  0.3453  0.1974
 2590Sol     HW13120   2.980   2.134   7.919  0.7799  0.6789  0.4047
 2590Sol     HW13121   2.903   2.031   8.000 -0.1086  0.5871 -0.5518
 2590Sol     MW13122   2.937   2.114   7.995 -0.1952  0.3604  0.4087
 2591Sol     OW13123   0.484   3.155   6.858 -0.5262  0.1642 -0.1257
 2591Sol     HW13124   0.502   3.110   6.775  0.3612  1.8536 -0.8771
 2591Sol     HW13125   0.390   3.171   6.856 -0.4201  0.7431 -1.1186
 2591Sol     MW13126   0.477   3.153   6.850 -0.0419 -0.1551 -0.0667
 2592Sol     OW13127   0.083   2.775   1.433 -0.4042 -0.4324 -0.1577
 2592Sol     HW13128   0.034   2.777   1.351  0.4206  1.0231 -0.6419
 2592Sol     HW13129   0.175   2.772   1.406 -0.0937  0.9047  0.6990
 2592Sol     MW13130   0.087   2.775   1.423 -0.1376 -0.7082 -0.0304
 2593Sol     OW13131   2.760   0.992   6.532 -0.1089 -0.0903  0.4226
 2593Sol     HW13132   2.850   0.987   6.499 -0.5598 -1.6193 -0.6417
 2593Sol     HW13133   2.770   1.001   6.627  1.1760  1.9905  0.1284
 2593Sol     MW13134   2.769   0.992   6.538  0.3552  0.1596 -0.0458
 2594Sol     OW13135   1.359   0.388   6.998  0.2331 -0.6279 -0.2092
 2594Sol     HW13136   1.296   0.394   7.070  0.2907  0.5767 -0.2493
 2594Sol     HW13137   1.319   0.440   6.927 -0.0792 -2.2347 -1.2467
 2594Sol     MW13138   1.349   0.394   6.998  0.1543  0.6069  0.3180
 2595Sol     OW13139   0.931   0.122   5.033 -0.7462 -0.3509  0.3075
 2595Sol     HW13140   0.925   0.084   4.945 -0.6182 -0.0481  0.1672
 2595Sol     HW13141   0.887   0.207   5.025 -0.2400 -0.0785  0.3938
 2595Sol     MW13142   0.926   0.126   5.024 -0.6873  0.1172  0.1575
 2596Sol     OW13143   2.584   2.408   8.144  0.1223  0.0403 -0.2965
 2596Sol     HW13144   2.564   2.501   8.133  0.5967  0.5698  2.8353
 2596Sol     HW13145   2.503   2.363   8.118  0.3230  1.1930 -3.1246
 2596Sol     MW13146   2.575   2.413   8.140 -0.4211 -0.4141 -0.1585
 2597Sol     OW13147   0.447   0.250   8.821 -0.3791 -0.7591  0.2016
 2597Sol     HW13148   0.509   0.296   8.878 -0.5241 -0.3647  0.0400
 2597Sol     HW13149   0.472   0.276   8.732 -1.1405 -0.1469  0.1628
 2597Sol     MW13150   0.455   0.256   8.818  0.6463  0.5614 -0.1893
 2598Sol     OW13151   3.050   0.865   9.276 -0.1848 -0.2377  0.4089
 2598Sol     HW13152   3.041   0.888   9.183 -0.0127  0.4891  0.5730
 2598Sol     HW13153   3.142   0.882   9.296 -0.0183 -1.2176  0.4969
 2598Sol     MW13154   3.057   0.868   9.269  0.1488 -0.0447 -0.6988
 2599Sol     OW13155   1.418   3.227   2.040  0.4967  0.5276 -0.4089
 2599Sol     HW13156   1.465   3.301   2.078  0.6963  0.4220 -0.4468
 2599Sol     HW13157   1.472   3.200   1.965  0.9842 -0.3154  0.2223
 2599Sol     MW13158   1.427   3.231   2.037 -0.0737 -0.4506  0.1769
 2600Sol     OW13159   1.295   3.367   4.322 -0.4383 -0.0143  0.1551
 2600Sol     HW13160   1.280   3.273   4.335  0.8244 -0.2569 -0.1393
 2600Sol     HW13161   1.208   3.406   4.331 -1.5280 -1.5762 -2.7763
 2600Sol     MW13162   1.286   3.362   4.324 -0.6713  0.0107  0.8167
 2601Sol     OW13163   2.358   1.651   9.226 -0.7300  0.3067  0.1266
 2601Sol     HW13164   2.328   1.667   9.315 -1.8132 -0.2365 -0.1395
 2601Sol     HW13165   2.410   1.570   9.232 -1.7987 -0.3927  0.0547
 2601Sol     MW13166   2.360   1.645   9.235  0.2421  0.2735 -0.1874
 2602Sol     OW13167   2.935   2.758   7.139 -0.2263 -0.2761 -0.2692
 2602Sol     HW13168   2.885   2.680   7.162  1.0605 -1.0320  0.0494
 2602Sol     HW13169   2.882   2.831   7.170 -0.8072 -1.0934  0.6923
 2602Sol     MW13170   2.926   2.758   7.144 -1.0810 -0.0828  0.2716
 2603Sol     OW13171   1.791   2.196   7.580  0.1877 -0.5179 -0.1197
 2603Sol     HW13172   1.869   2.232   7.538  0.1317 -1.0838 -0.7203
 2603Sol     HW13173   1.824   2.127   7.637  0.1682 -0.4127  0.0211
 2603Sol     MW13174   1.801   2.193   7.581  0.1810 -0.1943  0.1627
 2604Sol     OW13175   1.541   0.055  10.279 -0.1989  0.2634  0.0643
 2604Sol     HW13176   1.583  -0.026  10.310 -1.3582 -0.5203 -0.3429
 2604Sol     HW13177   1.612   0.105  10.239  0.2785 -1.2093 -0.9682
 2604Sol     MW13178   1.551   0.052  10.278  0.0929 -0.0228  0.0526
 2605Sol     OW13179   1.721   2.747   6.961  0.0719  0.0854  0.1477
 2605Sol     HW13180   1.769   2.685   7.016 -0.5678 -0.2714  0.3028
 2605Sol     HW13181   1.699   2.819   7.021  0.0495  0.0585  0.1720
 2605Sol     MW13182   1.724   2.748   6.971 -0.3015 -0.8075 -0.1325
 2606Sol     OW13183   2.159   1.934   9.524  0.7491 -0.0919 -0.0110
 2606Sol     HW13184   2.209   1.975   9.594  0.1051 -2.9415  2.2309
 2606Sol     HW13185   2.218   1.868   9.487  0.4671  0.1692 -0.9530
 2606Sol     MW13186   2.169   1.932   9.527  0.2475 -0.4582 -0.4162
 2607Sol     OW13187   0.197   1.557   8.583  0.0876  0.0452  0.2652
 2607Sol     HW13188   0.109   1.595   8.586 -1.0062 -2.4873  1.3269
 2607Sol     HW13189   0.229   1.562   8.673  0.6406  0.0309  0.0733
 2607Sol     MW13190   0.192   1.561   8.591 -0.1714 -0.0307 -0.1987
 2608Sol     OW13191   1.998   0.595   8.295  0.1260 -0.2899 -0.3708
 2608Sol     HW13192   1.975   0.640   8.377  1.4026  1.3641 -0.8887
 2608Sol     HW13193   1.919   0.603   8.241  0.4169  1.6335 -0.5632
 2608Sol     MW13194   1.989   0.600   8.298 -0.2497  0.1433 -0.7383
 2609Sol     OW13195   2.507   1.524   7.700 -0.4191 -0.0400  0.2844
 2609Sol     HW13196   2.491   1.435   7.732 -1.0013  0.0519  0.2688
 2609Sol     HW13197   2.467   1.525   7.612 -0.0919  0.1270  0.1373
 2609Sol     MW13198   2.502   1.516   7.695 -0.2339 -0.1891  0.3789
 2610Sol     OW13199   1.682   0.369   7.260 -0.1749 -0.2308  0.0713
 2610Sol     HW13200   1.609   0.431   7.261  2.0459  2.5018  0.2026
 2610Sol     HW13201   1.725   0.386   7.176  1.4443 -0.3858  0.8583
 2610Sol     MW13202   1.679   0.376   7.252  0.1082  0.1596 -0.1348
 2611Sol     OW13203   2.504   2.472   6.567 -0.7053 -0.0154  0.5265
 2611Sol     HW13204   2.472   2.530   6.636 -0.3467 -0.5191  1.1222
 2611Sol     HW13205   2.440   2.480   6.497 -1.3137  0.1520  1.1004
 2611Sol     MW13206   2.496   2.478   6.567  0.1633  0.6693 -0.3986
 2612Sol     OW13207   1.662   1.423   6.488  0.0556  0.6397 -0.0083
 2612Sol     HW13208   1.653   1.378   6.404  2.5824 -0.9433  0.4989
 2612Sol     HW13209   1.701   1.508   6.467 -0.2379  0.6438 -0.5285
 2612Sol     MW13210   1.665   1.426   6.479 -0.8651  0.2838 -0.4991
 2613Sol     OW13211   2.235   0.946   4.283  0.1834  0.1605  0.2419
 2613Sol     HW13212   2.174   0.871   4.285 -0.1702  0.4498  0.4022
 2613Sol     HW13213   2.204   1.003   4.353  0.4210  0.4862  0.0796
 2613Sol     MW13214   2.226   0.944   4.290  0.5647  0.3508 -0.4723
 2614Sol     OW13215   0.824   0.149   3.768  0.1149 -0.1188 -0.0344
 2614Sol     HW13216   0.838   0.060   3.801 -0.2440 -0.6378 -1.2752
 2614Sol     HW13217   0.764   0.188   3.831 -1.8211 -1.6231 -0.8852
 2614Sol     MW13218   0.820   0.144   3.777  0.4276  0.8013  0.6071
 2615Sol     OW13219   2.340   0.236   4.930 -0.0778  0.1204 -0.8799
 2615Sol     HW13220   2.342   0.273   4.842  0.6087 -1.2888 -1.4728
 2615Sol     HW13221   2.430   0.243   4.961 -0.5246  1.6281  0.1696
 2615Sol     MW13222   2.348   0.240   4.925 -0.7954 -0.5948  0.5216
 2616Sol     OW13223   1.652   0.148   1.739  0.0203 -0.7592 -0.3056
 2616Sol     HW13224   1.649   0.216   1.670  0.9884 -0.9147 -0.5107
 2616Sol     HW13225   1.564   0.112   1.740 -0.8106  1.2059  0.5084
 2616Sol     MW13226   1.644   0.151   1.733 -0.2185  0.1912  0.8649
 2617Sol     OW13227   0.338   2.090   2.865  0.0720 -0.9087  0.0036
 2617Sol     HW13228   0.421   2.043   2.857  1.0156  0.6300  0.5410
 2617Sol     HW13229   0.362   2.182   2.858 -1.5037 -0.4122  0.8666
 2617Sol     MW13230   0.347   2.094   2.864 -0.4825 -0.3251 -0.0858
 2618Sol     OW13231   0.653   3.101   4.942 -0.2386  0.5760 -1.0160
 2618Sol     HW13232   0.728   3.124   4.995 -0.4417  1.5484 -1.1304
 2618Sol     HW13233   0.577   3.121   4.997 -0.4374  1.1691 -1.4872
 2618Sol     MW13234   0.653   3.105   4.951 -0.2146  0.8312 -0.0846
 2619Sol     OW13235   1.973   1.591   2.189  0.0073 -0.1044 -0.2582
 2619Sol     HW13236   2.051   1.605   2.244 -0.6416 -1.1622  0.9629
 2619Sol     HW13237   1.950   1.678   2.158 -0.4091  0.7265  2.2637
 2619Sol     MW13238   1.978   1.600   2.192  0.2849  0.1101 -0.2995
 2620Sol     OW13239   2.667   2.822   8.673 -0.1202  0.2021  0.6527
 2620Sol     HW13240   2.655   2.740   8.721  0.5647 -0.3032 -0.0205
 2620Sol     HW13241   2.673   2.796   8.581  2.1705  0.7905  0.6070
 2620Sol     MW13242   2.667   2.813   8.669  0.0636  0.5872 -0.2949
 2621Sol     OW13243   2.446   1.027  10.150  0.2256  0.1282  0.3450
 2621Sol     HW13244   2.422   1.040  10.242  0.6533 -1.5476  0.7023
 2621Sol     HW13245   2.465   0.934  10.143  1.4570  0.4765 -1.1604
 2621Sol     MW13246   2.446   1.020  10.158  0.1352  0.4239 -0.3490
 2622Sol     OW13247   2.868   1.260   6.689  0.1269  0.1400  0.0478
 2622Sol     HW13248   2.942   1.290   6.742  1.3706 -0.6487 -1.1898
 2622Sol     HW13249   2.869   1.318   6.613 -0.7044  0.2936  0.1548
 2622Sol     MW13250   2.875   1.268   6.687 -0.2949 -0.1103  0.6033
 2623Sol     OW13251   0.523   3.135   3.545  0.3055 -0.1934  0.1710
 2623Sol     HW13252   0.545   3.126   3.637 -0.0470  0.2726  0.3021
 2623Sol     HW13253   0.428   3.146   3.544  0.2497 -0.6777 -0.2844
 2623Sol     MW13254   0.517   3.135   3.553  0.5660  0.5700 -0.0337
 2624Sol     OW13255   1.660   2.101   3.329 -0.1224  0.3271  0.0603
 2624Sol     HW13256   1.574   2.108   3.369  1.2525  0.8655  3.0634
 2624Sol     HW13257   1.664   2.176   3.269 -1.4313  0.7628  0.4941
 2624Sol     MW13258   1.653   2.109   3.327 -0.2264  0.4113 -0.0014
 2625Sol     OW13259   2.309   2.559   9.656 -0.5144  0.2728  0.1074
 2625Sol     HW13260   2.243   2.542   9.589  1.6721 -1.9609 -1.5839
 2625Sol     HW13261   2.356   2.637   9.625 -0.0316 -0.2793 -0.5629
 2625Sol     MW13262   2.307   2.564   9.647 -0.3130  0.5186  0.4374
 2626Sol     OW13263   0.958   1.737   2.020  0.0489  0.1460 -0.0329
 2626Sol     HW13264   0.976   1.737   2.114 -0.5208  1.6224  0.0880
 2626Sol     HW13265   1.026   1.793   1.983 -1.0466  1.3726 -0.2256
 2626Sol     MW13266   0.966   1.742   2.025  0.4362 -0.1540  0.1417
 2627Sol     OW13267   1.136   2.803   5.557 -0.3173 -0.1048  0.7757
 2627Sol     HW13268   1.213   2.823   5.611  0.4716 -1.0511  0.0252
 2627Sol     HW13269   1.133   2.707   5.554  0.4720 -0.0860 -1.9570
 2627Sol     MW13270   1.143   2.796   5.562 -0.1565 -0.3814  0.5307
 2628Sol     OW13271   2.685   2.895   6.133 -0.3888 -0.3045 -0.0864
 2628Sol     HW13272   2.632   2.816   6.141  0.5961 -1.0580 -0.8619
 2628Sol     HW13273   2.754   2.884   6.198  0.5203 -0.7094 -1.1142
 2628Sol     MW13274   2.686   2.887   6.140 -0.0653 -0.0011  0.6362
 2629Sol     OW13275   1.534   2.751  10.191 -0.3523  0.0205 -0.1344
 2629Sol     HW13276   1.573   2.779  10.274 -0.2252 -0.1939 -0.1205
 2629Sol     HW13277   1.602   2.766  10.126  0.1743 -1.4076  0.0576
 2629Sol     MW13278   1.543   2.755  10.193 -0.5286  0.2225  0.6176
 2630Sol     OW13279   2.547   0.424   2.191  0.0936 -0.4320 -0.1686
 2630Sol     HW13280   2.603   0.474   2.131  1.3609 -1.3705  0.2268
 2630Sol     HW13281   2.563   0.463   2.277  0.8543 -1.3255  0.0926
 2630Sol     MW13282   2.553   0.432   2.193 -0.5384 -0.0121 -0.0858
 2631Sol     OW13283   0.309   2.381   5.243 -0.0864  0.9339 -0.1385
 2631Sol     HW13284   0.260   2.342   5.316  0.2462 -1.7142 -1.2935
 2631Sol     HW13285   0.249   2.375   5.169  1.4408 -1.0328 -1.2383
 2631Sol     MW13286   0.299   2.377   5.243 -0.4063  0.0203  0.1536
 2632Sol     OW13287   2.211   0.746   6.407 -0.3934 -0.1310 -0.5975
 2632Sol     HW13288   2.301   0.761   6.436 -0.6084 -0.9890  0.5223
 2632Sol     HW13289   2.218   0.734   6.312  0.3077  2.6426 -0.9325
 2632Sol     MW13290   2.220   0.746   6.401  0.2618  0.6925  0.6666
 2633Sol     OW13291   0.239   3.240   3.348  0.3179  0.2631  0.3918
 2633Sol     HW13292   0.263   3.331   3.368 -1.5777  0.8343  0.0889
 2633Sol     HW13293   0.169   3.219   3.410 -1.1394 -0.0767 -1.3312
 2633Sol     MW13294   0.235   3.246   3.355  0.1706 -0.5896  0.1383
 2634Sol     OW13295   1.331   1.772   9.305  0.0144 -0.0886  0.1255
 2634Sol     HW13296   1.389   1.770   9.382  2.5939  1.0728 -1.7051
 2634Sol     HW13297   1.300   1.862   9.301 -1.4293 -0.5454  0.7064
 2634Sol     MW13298   1.334   1.779   9.312  0.2839  0.3872 -0.0761
 2635Sol     OW13299   0.248   2.537   9.465  0.3153 -0.5411  0.1619
 2635Sol     HW13300   0.333   2.501   9.442 -0.3270 -2.8969  1.2530
 2635Sol     HW13301   0.188   2.502   9.399 -0.3534 -1.7631  1.3612
 2635Sol     MW13302   0.250   2.531   9.457  0.0684  0.4441 -0.1612
 2636Sol     OW13303   0.123   1.500   3.042  0.0404  0.1027  0.0799
 2636Sol     HW13304   0.108   1.578   2.990  0.5386  0.0118 -0.1947
 2636Sol     HW13305   0.138   1.532   3.131 -1.0616  0.2440  0.2237
 2636Sol     MW13306   0.123   1.510   3.046  0.0268 -0.0902 -0.4376
 2637Sol     OW13307   1.137   0.045   8.842 -0.2551  0.3153  0.6435
 2637Sol     HW13308   1.041   0.047   8.838 -0.3906 -3.1894  0.8284
 2637Sol     HW13309   1.157   0.041   8.936 -0.0562 -1.5698  0.5397
 2637Sol     MW13310   1.130   0.045   8.850 -0.6304 -0.0758 -0.4288
 2638Sol     OW13311   0.967   1.793   7.543 -0.0680 -0.2048 -0.1069
 2638Sol     HW13312   1.050   1.815   7.500 -0.8135  1.6630 -0.6709
 2638Sol     HW13313   0.909   1.769   7.471 -0.7315  0.9582  0.0246
 2638Sol     MW13314   0.969   1.793   7.532  0.0575 -0.1184 -0.6973
 2639Sol     OW13315   0.603   0.810   7.504 -0.5214 -0.6387 -0.0955
 2639Sol     HW13316   0.694   0.841   7.502 -1.0219  0.8716 -0.3330
 2639Sol     HW13317   0.562   0.854   7.430 -1.6495 -0.6386  0.5193
 2639Sol     MW13318   0.608   0.817   7.497  0.1073 -0.9155  0.6031
 2640Sol     OW13319   2.889   3.283   8.524 -0.4535 -0.4375  0.2475
 2640Sol     HW13320   2.873   3.197   8.486 -0.9380  0.0029 -0.5518
 2640Sol     HW13321   2.984   3.285   8.540 -0.5757 -1.4667  1.1390
 2640Sol     MW13322   2.896   3.276   8.522 -0.6370 -0.2491  0.0255
 2641Sol     OW13323   0.975   1.725   3.022  0.2707  0.6470 -0.2165
 2641Sol     HW13324   1.042   1.749   3.086  0.9203 -0.8537 -0.3161
 2641Sol     HW13325   0.919   1.803   3.016  0.7019  1.1153  1.5170
 2641Sol     MW13326   0.976   1.734   3.027  0.4533  0.2218 -0.5298
 2642Sol     OW13327   0.518   1.427   6.314  0.0585 -0.2519  0.4291
 2642Sol     HW13328   0.522   1.504   6.257 -0.9949 -0.1077  0.5335
 2642Sol     HW13329   0.481   1.358   6.259 -2.0534  0.1942  1.2276
 2642Sol     MW13330   0.515   1.428   6.304 -0.1428 -0.2362  0.1649
 2643Sol     OW13331   2.178   2.010   3.645  0.0475 -0.1928 -0.1939
 2643Sol     HW13332   2.243   2.079   3.657  0.3587 -0.6380  0.6728
 2643Sol     HW13333   2.191   1.951   3.719 -0.5544 -0.9153 -0.6570
 2643Sol     MW13334   2.185   2.010   3.652  0.3519  0.0566  0.3039
 2644Sol     OW13335   0.931   2.174   4.969 -0.3357 -0.0010  0.1897
 2644Sol     HW13336   0.964   2.105   4.911  1.9537  0.6016  0.7155
 2644Sol     HW13337   0.836   2.167   4.963 -0.1366 -2.2231 -0.9200
 2644Sol     MW13338   0.925   2.168   4.963 -0.2717 -0.0326  0.1127
 2645Sol     OW13339   1.368   2.991  10.140  0.4801  0.4159  0.3638
 2645Sol     HW13340   1.422   2.912  10.148  0.3533  0.2321 -0.6122
 2645Sol     HW13341   1.399   3.048  10.211  1.7975  0.2106 -0.0295
 2645Sol     MW13342   1.376   2.989  10.147 -0.1618  0.3135 -0.6626
 2646Sol     OW13343   0.526   0.023   4.379  0.5271 -0.0210 -0.0338
 2646Sol     HW13344   0.517   0.002   4.472  0.0086  0.6952  0.0798
 2646Sol     HW13345   0.480  -0.048   4.335 -1.8739  1.2180  0.3817
 2646Sol     MW13346   0.521   0.015   4.384 -0.4061 -0.0150  0.3334
 2647Sol     OW13347   1.235   2.712   2.498  0.5321 -0.5293 -0.1624
 2647Sol     HW13348   1.229   2.637   2.558 -0.8676 -0.2627  0.0408
 2647Sol     HW13349   1.216   2.788   2.552 -1.7422 -0.3771 -1.1446
 2647Sol     MW13350   1.233   2.712   2.508 -0.5086  0.3717 -0.5867
 2648Sol     OW13351   0.484   0.827   9.329 -0.2904  0.1657  0.0675
 2648Sol     HW13352   0.481   0.742   9.373 -2.0839  0.7046  1.0449
 2648Sol     HW13353   0.577   0.851   9.329 -0.0073 -0.8535  1.5911
 2648Sol     MW13354   0.492   0.821   9.333  0.6749  0.0745 -0.3089
 2649Sol     OW13355   2.029   0.776   5.927  0.4852 -0.8909  0.1728
 2649Sol     HW13356   2.097   0.761   5.992 -1.8972  0.6639  3.1204
 2649Sol     HW13357   2.007   0.689   5.894  2.9937 -1.5119  0.0758
 2649Sol     MW13358   2.033   0.767   5.930 -0.4634 -0.0506  0.5720
 2650Sol     OW13359   0.201   2.550  10.107 -0.6814  0.2472 -0.3849
 2650Sol     HW13360   0.197   2.623  10.045  0.8886  0.0496 -0.7375
 2650Sol     HW13361   0.117   2.553  10.153 -0.9249  1.8261 -0.8964
 2650Sol     MW13362   0.193   2.557  10.106  0.2571 -0.5964  0.2976
 2651Sol     OW13363   1.925   0.951   1.521  0.3749 -0.8779 -0.3516
 2651Sol     HW13364   1.975   1.033   1.520 -0.6504 -0.2511 -0.6449
 2651Sol     HW13365   1.985   0.887   1.560  1.2581 -0.0405 -0.3145
 2651Sol     MW13366   1.935   0.953   1.525  0.3662 -0.2866  0.2428
 2652Sol     OW13367   0.593   2.555   3.897  0.7476 -0.7413 -0.6374
 2652Sol     HW13368   0.568   2.508   3.817  0.5043  1.2927 -1.7852
 2652Sol     HW13369   0.682   2.524   3.916  0.8211 -1.2025 -1.7158
 2652Sol     MW13370   0.599   2.548   3.892 -0.8604 -0.5861  0.1336
 2653Sol     OW13371   1.360   2.251   7.365  0.3172 -0.2873 -0.1820
 2653Sol     HW13372   1.288   2.282   7.310  0.4557  0.5919  0.1323
 2653Sol     HW13373   1.414   2.199   7.305  1.7513  2.6107 -1.5064
 2653Sol     MW13374   1.358   2.249   7.354  0.1584 -0.1190 -0.1163
 2654Sol     OW13375   0.372   1.743   3.140  0.3508  0.3222  1.0126
 2654Sol     HW13376   0.328   1.682   3.199 -0.4320  0.0525  0.1713
 2654Sol     HW13377   0.423   1.800   3.197  0.2174 -0.4283  1.8853
 2654Sol     MW13378   0.373   1.743   3.150 -0.3450  0.0298 -0.4514
 2655Sol     OW13379   0.300   1.073   2.773  0.1358  0.3542  0.0077
 2655Sol     HW13380   0.315   1.002   2.710  1.1846 -0.8077  1.5028
 2655Sol     HW13381   0.299   1.028   2.858 -2.1687  1.7559  0.7612
 2655Sol     MW13382   0.301   1.062   2.775  0.0761  0.1585 -0.6470
 2656Sol     OW13383   0.191   0.205   7.807 -1.0330 -0.0737 -0.1000
 2656Sol     HW13384   0.258   0.229   7.743  0.1634  1.0970  1.5615
 2656Sol     HW13385   0.146   0.130   7.767  0.3838 -0.0442 -1.8225
 2656Sol     MW13386   0.193   0.200   7.798  0.3311  0.5043  0.1982
 2657Sol     OW13387   1.896   2.315   4.739 -0.0258  0.1439  0.1326
 2657Sol     HW13388   1.945   2.320   4.821  1.2166 -1.4751 -0.4803
 2657Sol     HW13389   1.806   2.337   4.763  0.1688 -1.0521  2.0902
 2657Sol     MW13390   1.892   2.317   4.748  0.0627 -0.0444 -0.3845
 2658Sol     OW13391   0.758   2.967   1.332  0.4735  0.3748  0.3929
 2658Sol     HW13392   0.815   2.892   1.350 -0.0990 -0.1616  0.0257
 2658Sol     HW13393   0.789   3.036   1.391  1.6106  0.1537  0.0629
 2658Sol     MW13394   0.765   2.966   1.339 -0.3004  0.6237  0.0596
 2659Sol     OW13395   1.651   2.498   4.878  0.0213  0.7848 -0.3558
 2659Sol     HW13396   1.626   2.491   4.970 -0.3476  1.0835 -0.4329
 2659Sol     HW13397   1.733   2.548   4.879  1.0699 -0.8880 -0.0400
 2659Sol     MW13398   1.656   2.502   4.886  0.2059 -0.3070 -0.6351
 2660Sol     OW13399   2.059   2.755   3.392  0.0704  0.4807 -0.7577
 2660Sol     HW13400   2.102   2.804   3.321  0.3481  1.1808 -0.1162
 2660Sol     HW13401   2.121   2.686   3.415  1.2408  1.9826  0.7218
 2660Sol     MW13402   2.068   2.754   3.388  0.1468  0.0016 -0.2556
 2661Sol     OW13403   0.192   0.200   9.958 -0.0616  0.1693  0.2595
 2661Sol     HW13404   0.261   0.218  10.022 -0.2801  1.9676  0.0032
 2661Sol     HW13405   0.119   0.168  10.011  0.3143  0.0667  0.7228
 2661Sol     MW13406   0.192   0.198   9.969  0.0833 -0.2146  0.0375
 2662Sol     OW13407   0.976   0.010   2.116 -0.4637 -0.3703  0.6149
 2662Sol     HW13408   1.059   0.033   2.074 -1.0295  0.2361 -0.1837
 2662Sol     HW13409   0.934   0.094   2.133 -0.7397 -0.6620  1.3898
 2662Sol     MW13410   0.980   0.020   2.114  0.5335  0.6347  0.3177
 2663Sol     OW13411   2.372   1.630   6.867 -0.7863 -0.3341 -0.0628
 2663Sol     HW13412   2.382   1.591   6.780  0.8297 -0.1650  0.0235
 2663Sol     HW13413   2.314   1.570   6.913  1.8160 -2.8305  0.1448
 2663Sol     MW13414   2.368   1.621   6.863  0.2795 -0.0986 -0.2020
 2664Sol     OW13415   0.399   0.295   8.139  0.1190  0.2046  0.4593
 2664Sol     HW13416   0.397   0.389   8.157 -0.5457  0.1526  0.6594
 2664Sol     HW13417   0.308   0.272   8.121  0.6538  0.1092 -2.2434
 2664Sol     MW13418   0.391   0.301   8.139  0.2262 -0.1768 -0.5143
 2665Sol     OW13419   0.076   0.893   3.886 -0.2195 -0.1771 -0.1111
 2665Sol     HW13420   0.001   0.866   3.939 -2.1120  0.6029 -2.2840
 2665Sol     HW13421   0.051   0.979   3.851  2.1110  0.5444 -0.0959
 2665Sol     MW13422   0.067   0.899   3.887  0.7839  0.5656 -0.5020
 2666Sol     OW13423   2.433   3.134   3.765 -0.0170 -0.5954  0.3463
 2666Sol     HW13424   2.351   3.086   3.769 -0.6699  0.6055  1.7270
 2666Sol     HW13425   2.482   3.092   3.693 -1.4832 -1.8257  0.0411
 2666Sol     MW13426   2.430   3.126   3.759 -0.5619  0.1997 -0.6290
 2667Sol     OW13427   2.796   0.753   2.834 -0.6554  0.5304 -0.4849
 2667Sol     HW13428   2.782   0.726   2.925 -0.8676 -0.7450 -0.8913
 2667Sol     HW13429   2.872   0.703   2.806 -2.1588 -1.0659 -1.8207
 2667Sol     MW13430   2.801   0.746   2.840 -0.5456 -0.0480 -0.2549
 2668Sol     OW13431   1.852   1.669   8.605  0.5953 -0.0636  0.7823
 2668Sol     HW13432   1.854   1.697   8.513 -0.2424  1.3273  1.1809
 2668Sol     HW13433   1.901   1.587   8.606  1.6197  0.5172 -0.7110
 2668Sol     MW13434   1.857   1.664   8.597  0.1293  0.2992  0.0344
 2669Sol     OW13435   1.202   1.976   2.152  0.0722 -0.0251  0.1281
 2669Sol     HW13436   1.205   2.063   2.113  1.7948 -0.2800 -0.3578
 2669Sol     HW13437   1.201   1.916   2.078  1.5850 -0.4724  0.4570
 2669Sol     MW13438   1.202   1.978   2.142  0.5197  0.4454  0.1574
 2670Sol     OW13439   1.892   2.316   9.605 -0.5613 -1.1164 -0.4414
 2670Sol     HW13440   1.931   2.254   9.544  0.2027 -3.3593  2.2125
 2670Sol     HW13441   1.962   2.380   9.622 -0.8746 -0.3163 -2.0834
 2670Sol     MW13442   1.902   2.317   9.601 -0.0751  0.2965  0.6261
 2671Sol     OW13443   1.508   0.567   3.338 -0.2890 -1.0046  0.2189
 2671Sol     HW13444   1.519   0.512   3.416  2.9819 -0.7354  0.0196
 2671Sol     HW13445   1.583   0.627   3.340 -0.6818 -0.3500 -2.6387
 2671Sol     MW13446   1.516   0.568   3.345 -0.0112  0.4845  0.2517
 2672Sol     OW13447   1.163   2.137   4.145  0.2136 -0.4672  0.1027
 2672Sol     HW13448   1.180   2.067   4.209 -0.3315 -0.6940  0.0082
 2672Sol     HW13449   1.228   2.204   4.165  0.2777 -0.6909  0.6650
 2672Sol     MW13450   1.170   2.136   4.153  0.4459 -0.2432  0.4926
 2673Sol     OW13451   2.510   2.831   7.320  0.0394 -0.4874  0.2374
 2673Sol     HW13452   2.429   2.819   7.271  0.5527  1.1858 -1.0813
 2673Sol     HW13453   2.497   2.782   7.401 -1.0052 -2.9440 -1.3600
 2673Sol     MW13454   2.501   2.826   7.323  0.4107  0.4363  0.1797
 2674Sol     OW13455   2.709   2.669   3.492  0.0805 -0.4650 -0.1892
 2674Sol     HW13456   2.629   2.695   3.538  1.1433  2.1934  0.3013
 2674Sol     HW13457   2.679   2.638   3.407 -1.4136  1.8282 -0.5494
 2674Sol     MW13458   2.699   2.669   3.489 -0.5458 -0.3308 -0.0290
 2675Sol     OW13459   2.916   2.765   6.841 -0.1667  0.4230 -0.5039
 2675Sol     HW13460   2.951   2.742   6.927 -2.2138 -0.9695 -0.0192
 2675Sol     HW13461   2.914   2.861   6.842 -0.6868  0.4203  1.2380
 2675Sol     MW13462   2.919   2.772   6.849 -0.4319  0.0760 -0.1324
 2676Sol     OW13463   0.002   0.305   5.577 -0.6627  0.4182  0.0477
 2676Sol     HW13464   0.043   0.293   5.491 -0.9429  0.4705 -0.0913
 2676Sol     HW13465  -0.002   0.400   5.590  1.4899  0.3946  1.1219
 2676Sol     MW13466   0.005   0.312   5.571  1.3501 -0.3815 -0.2803
 2677Sol     OW13467   0.900   2.346   4.721  0.3542 -0.0943 -0.5706
 2677Sol     HW13468   0.928   2.277   4.781  0.9684  1.0415  0.4829
 2677Sol     HW13469   0.816   2.317   4.688  0.4037 -1.1462  0.2035
 2677Sol     MW13470   0.895   2.337   4.724  0.7229 -0.4906 -0.3027
 2678Sol     OW13471   1.554   2.229   4.767 -0.2653 -0.5964  0.3584
 2678Sol     HW13472   1.479   2.185   4.809 -0.0204  0.3251  1.7937
 2678Sol     HW13473   1.564   2.310   4.816  0.1363  0.4481 -1.4272
 2678Sol     MW13474   1.548   2.232   4.775  0.0438 -0.6739 -0.7542
 2679Sol     OW13475   3.091   1.231   9.546  0.0753 -0.0981  0.1490
 2679Sol     HW13476   3.025   1.171   9.512  0.1487 -0.6724  1.0004
 2679Sol     HW13477   3.061   1.254   9.633  2.0757 -2.1553  1.4750
 2679Sol     MW13478   3.083   1.227   9.550  0.2356  0.0465 -0.6376
 2680Sol     OW13479   2.931   3.004   8.182  0.4043 -0.1830 -0.7076
 2680Sol     HW13480   2.914   3.003   8.088  1.1503  0.1593 -0.8474
 2680Sol     HW13481   3.026   2.999   8.190  0.2896 -1.4679  0.0572
 2680Sol     MW13482   2.938   3.003   8.175  0.1197 -0.3649  0.3652
 2681Sol     OW13483   2.298   1.261   8.243  0.3781  0.4704 -0.0483
 2681Sol     HW13484   2.336   1.349   8.255  2.3434 -0.5094  1.2457
 2681Sol     HW13485   2.221   1.260   8.299  1.1370  0.9282  1.0301
 2681Sol     MW13486   2.295   1.269   8.249  0.4678 -0.0937  0.3986
 2682Sol     OW13487   1.388   2.482   5.584  0.3129  0.3309  0.2821
 2682Sol     HW13488   1.302   2.511   5.555 -0.2277  0.3006  1.8249
 2682Sol     HW13489   1.380   2.388   5.594  0.4204  0.3689  0.7560
 2682Sol     MW13490   1.380   2.476   5.582 -0.3641 -0.1323 -0.4096
 2683Sol     OW13491   2.764   2.896   4.520  0.3530  0.2522 -0.1059
 2683Sol     HW13492   2.795   2.876   4.431 -0.8022 -1.6421 -0.1154
 2683Sol     HW13493   2.692   2.957   4.507  0.9736  0.9392 -0.3806
 2683Sol     MW13494   2.761   2.900   4.511  0.1129  0.4926 -0.5207
 2684Sol     OW13495   1.054   3.247   7.623 -0.0679  0.0333  0.2307
 2684Sol     HW13496   1.089   3.159   7.640 -1.6798 -0.5116  0.7781
 2684Sol     HW13497   0.988   3.260   7.691 -1.9040  0.5022 -1.5966
 2684Sol     MW13498   1.052   3.240   7.631  0.3005  0.2429  0.0008
 2685Sol     OW13499   1.882   3.327   8.566 -0.0722  0.5416 -0.8049
 2685Sol     HW13500   1.924   3.242   8.578  2.4029  1.4833 -2.5092
 2685Sol     HW13501   1.850   3.325   8.476 -0.7858  1.1086 -0.5739
 2685Sol     MW13502   1.883   3.319   8.559  0.3696  0.3594 -0.2318
 2686Sol     OW13503   2.001   1.140  10.370 -0.3344  0.1233  0.0931
 2686Sol     HW13504   2.025   1.154  10.279  0.7391  0.0258  0.3526
 2686Sol     HW13505   2.047   1.210  10.418 -1.4784  0.6360  0.4830
 2686Sol     MW13506   2.007   1.148  10.366 -0.3346 -0.0393  0.7465
 2687Sol     OW13507   1.180   2.181   4.569 -0.0981  0.4796 -0.8926
 2687Sol     HW13508   1.123   2.237   4.516 -0.8948  0.6972  0.1880
 2687Sol     HW13509   1.120   2.132   4.625  0.6325 -1.0280 -1.3987
 2687Sol     MW13510   1.170   2.182   4.569  0.1586  0.6005  0.2728
 2688Sol     OW13511   0.189   3.175   6.164 -0.1388  0.0331 -0.1403
 2688Sol     HW13512   0.271   3.223   6.165  0.3320 -0.7514  1.4040
 2688Sol     HW13513   0.138   3.213   6.092  2.0760 -0.3223 -1.9280
 2688Sol     MW13514   0.191   3.182   6.158 -0.6527 -0.1590  0.8887
 2689Sol     OW13515   0.297   3.260   7.796  0.6819 -0.2643  0.2853
 2689Sol     HW13516   0.353   3.259   7.874  1.3310 -1.7226 -0.1684
 2689Sol     HW13517   0.358   3.273   7.723  0.1599  0.3757 -0.0410
 2689Sol     MW13518   0.308   3.261   7.796 -0.1350  0.0212  0.3285
 2690Sol     OW13519   0.742   1.180   5.097  0.4752  0.3874  0.3983
 2690Sol     HW13520   0.806   1.140   5.155  1.0634  1.4849  0.5207
 2690Sol     HW13521   0.795   1.227   5.032 -0.1774 -0.4091 -0.7197
 2690Sol     MW13522   0.753   1.181   5.096 -0.8336 -0.2314 -0.4042
 2691Sol     OW13523   0.729   1.216   6.988 -0.5922  0.1544  0.1840
 2691Sol     HW13524   0.750   1.127   6.960 -0.4434 -0.0896  1.0437
 2691Sol     HW13525   0.664   1.204   7.057 -1.4026  0.7667 -0.4674
 2691Sol     MW13526   0.725   1.207   6.992  0.3478  0.6431  0.1040
 2692Sol     OW13527   2.867   0.281   3.230  0.6655  0.2325  0.4988
 2692Sol     HW13528   2.951   0.257   3.269  1.3084 -1.5586 -1.9166
 2692Sol     HW13529   2.870   0.246   3.142 -1.6501  2.3287 -0.4812
 2692Sol     MW13530   2.875   0.276   3.226 -0.0495 -0.5718 -0.3040
 2693Sol     OW13531   2.605   1.837   3.446 -0.6064 -0.1298  0.7532
 2693Sol     HW13532   2.659   1.915   3.438  1.3056 -1.5240 -0.5879
 2693Sol     HW13533   2.520   1.862   3.411  0.2037  1.1300 -0.3738
 2693Sol     MW13534   2.602   1.846   3.443 -0.4130  0.0704  0.2085
 2694Sol     OW13535   2.113   2.099   5.052  0.4158  0.2421 -0.0950
 2694Sol     HW13536   2.203   2.120   5.078  0.4580  0.5673 -0.4975
 2694Sol     HW13537   2.116   2.008   5.024  0.7618  0.4549 -0.7582
 2694Sol     MW13538   2.121   2.093   5.052 -0.1025  0.0922 -0.1574
 2695Sol     OW13539   1.614   2.005   8.850  0.2084 -0.0426  0.2116
 2695Sol     HW13540   1.679   1.951   8.804 -0.0668  0.6541 -1.0177
 2695Sol     HW13541   1.569   1.944   8.908 -0.5918 -1.3140 -1.6707
 2695Sol     MW13542   1.616   1.995   8.851 -0.0230 -0.0576 -0.6484
 2696Sol     OW13543   1.275   0.178   2.854  0.2530  0.0374 -0.2958
 2696Sol     HW13544   1.261   0.165   2.948 -0.4944  0.0289 -0.3993
 2696Sol     HW13545   1.370   0.180   2.843  0.3906 -3.2021  0.0040
 2696Sol     MW13546   1.282   0.177   2.861 -0.1349  0.3517  0.8503
 2697Sol     OW13547   2.484   3.261  10.174 -0.5955  0.5873  0.0030
 2697Sol     HW13548   2.443   3.209  10.105 -0.8274  0.8127 -0.0285
 2697Sol     HW13549   2.554   3.205  10.207 -1.4695 -0.1344  0.6373
 2697Sol     MW13550   2.487   3.252  10.170 -0.1653 -0.0200 -0.2981
 2698Sol     OW13551   0.073   2.132   5.883  0.2178 -0.2854  0.1876
 2698Sol     HW13552   0.111   2.216   5.855 -1.0702  0.7706  1.5375
 2698Sol     HW13553   0.137   2.097   5.946  0.4334  0.0262  0.1447
 2698Sol     MW13554   0.082   2.137   5.886  0.1685  0.9106 -0.5112
 2699Sol     OW13555   1.535   0.166   3.920 -0.4246 -0.2530  0.0036
 2699Sol     HW13556   1.499   0.253   3.902 -1.7623 -0.9687 -0.8131
 2699Sol     HW13557   1.544   0.163   4.015  1.3775  1.4635 -0.0821
 2699Sol     MW13558   1.533   0.174   3.927  0.1554  0.3826  0.2337
 2700Sol     OW13559   2.694   1.995   6.387 -0.1104 -0.3579  0.1877
 2700Sol     HW13560   2.734   1.916   6.350 -1.5347 -0.4303 -1.2748
 2700Sol     HW13561   2.681   1.974   6.479  2.3150 -0.6804  0.4945
 2700Sol     MW13562   2.696   1.986   6.392 -0.0575  0.4904 -0.0739
 2701Sol     OW13563   0.698   3.074   5.775 -0.1168 -0.3146  0.1867
 2701Sol     HW13564   0.691   3.150   5.717 -2.9261 -1.1368 -0.6476
 2701Sol     HW13565   0.661   3.001   5.724  2.2448 -2.1986  1.0909
 2701Sol     MW13566   0.694   3.074   5.765  0.3247  0.7350 -0.2187
 2702Sol     OW13567   0.808   2.570   3.121  0.1779  0.3732 -0.0575
 2702Sol     HW13568   0.725   2.534   3.153  0.0336  0.0823 -0.7600
 2702Sol     HW13569   0.797   2.665   3.128 -0.0563  0.3255  0.2461
 2702Sol     MW13570   0.799   2.575   3.125  0.3941 -0.1094 -0.5212
 2703Sol     OW13571   2.457   1.074   6.202  0.3289 -0.3385  0.3233
 2703Sol     HW13572   2.467   0.992   6.249 -1.9538 -0.9339 -0.1670
 2703Sol     HW13573   2.427   1.048   6.115  1.5445  0.9140 -0.4988
 2703Sol     MW13574   2.455   1.065   6.198 -0.0411 -0.1197 -0.1371
 2704Sol     OW13575   1.179   1.920   9.543  0.2951  0.1074 -0.2503
 2704Sol     HW13576   1.143   1.836   9.572  0.4635  0.1383  0.0389
 2704Sol     HW13577   1.193   1.970   9.623 -0.4922  0.6873 -0.4656
 2704Sol     MW13578   1.177   1.917   9.552  0.0006 -0.5856 -0.4007
 2705Sol     OW13579   0.257   3.184   8.346  0.4254  0.5977 -0.4396
 2705Sol     HW13580   0.233   3.249   8.412  2.3805  1.6273 -0.7139
 2705Sol     HW13581   0.323   3.130   8.388 -0.2586 -0.4223 -0.6553
 2705Sol     MW13582   0.260   3.185   8.356  0.5257  0.1073  0.5487
 2706Sol     OW13583   2.814   0.200   7.364  0.5959 -0.0521 -0.0229
 2706Sol     HW13584   2.806   0.146   7.442  2.5379 -0.6064 -0.1744
 2706Sol     HW13585   2.793   0.141   7.291  1.2784 -0.2286 -0.0835
 2706Sol     MW13586   2.812   0.190   7.364 -0.1139  0.1050 -0.5169
 2707Sol     OW13587   2.656   0.600   7.768 -0.5249  0.7582  1.2561
 2707Sol     HW13588   2.674   0.680   7.818  0.1733  0.9176  0.7555
 2707Sol     HW13589   2.732   0.544   7.784  0.4722  1.4398 -0.8849
 2707Sol     MW13590   2.665   0.603   7.774  0.1135 -0.0592 -0.5179
 2708Sol     OW13591   2.054   2.724   3.776 -0.1346  0.1431 -0.2270
 2708Sol     HW13592   2.078   2.706   3.867  1.1960  0.8515 -0.4141
 2708Sol     HW13593   2.013   2.644   3.745 -0.6587 -0.0849  1.0122
 2708Sol     MW13594   2.052   2.715   3.782 -0.3022 -0.3155  0.1870
 2709Sol     OW13595   1.480   1.130   5.589 -0.7136  0.1453  0.6910
 2709Sol     HW13596   1.458   1.090   5.674  0.0081 -2.5872 -0.3466
 2709Sol     HW13597   1.576   1.137   5.591 -0.8783  2.3858  1.0799
 2709Sol     MW13598   1.487   1.127   5.597 -0.2936 -0.0755 -0.2049
 2710Sol     OW13599   2.527   3.180   1.691 -0.4469 -0.2365  0.0830
 2710Sol     HW13600   2.507   3.117   1.622  0.2795  0.1113 -0.4484
 2710Sol     HW13601   2.466   3.252   1.676 -0.7880 -0.4860  0.2570
 2710Sol     MW13602   2.519   3.181   1.684  0.1070  0.2741 -0.2957
 2711Sol     OW13603   2.832   3.240   4.240  0.6371  0.1028 -0.0923
 2711Sol     HW13604   2.829   3.159   4.190 -0.0044  0.7825 -1.1847
 2711Sol     HW13605   2.902   3.291   4.200  0.6074  0.3547  0.1711
 2711Sol     MW13606   2.838   3.238   4.232 -0.3667 -0.2764  0.0505
 2712Sol     OW13607   1.993   1.434  10.560 -0.2676  0.8077 -0.1147
 2712Sol     HW13608   1.965   1.517  10.599  0.0568  0.4025  1.0103
 2712Sol     HW13609   1.930   1.370  10.593  1.2485  0.1012  1.4717
 2712Sol     MW13610   1.985   1.436  10.566  0.1309 -0.4508 -0.1908
 2713Sol     OW13611   0.667   3.255   9.622  0.1483 -0.3658  0.0480
 2713Sol     HW13612   0.574   3.278   9.617  0.0384 -0.4268  1.7169
 2713Sol     HW13613   0.711   3.318   9.565 -0.8210  0.1958 -0.0797
 2713Sol     MW13614   0.663   3.263   9.616  0.5028 -0.5978  0.2620
 2714Sol     OW13615   1.392   3.241   6.706 -0.0229 -0.9891 -0.1584
 2714Sol     HW13616   1.384   3.146   6.714 -1.0172 -0.8970  0.0489
 2714Sol     HW13617   1.389   3.273   6.796  1.4272 -0.8342 -0.1568
 2714Sol     MW13618   1.391   3.235   6.715 -0.0457  0.3041  0.3984
 2715Sol     OW13619   1.395   2.896   8.392  1.0420  0.5176  0.3364
 2715Sol     HW13620   1.322   2.927   8.338  2.5564  0.9567 -1.5179
 2715Sol     HW13621   1.456   2.969   8.393  1.7028 -0.0465  1.4227
 2715Sol     MW13622   1.394   2.905   8.387  0.0783  0.5603  0.1383
 2716Sol     OW13623   2.290   3.329   6.785  0.0618  0.0969  0.3801
 2716Sol     HW13624   2.356   3.270   6.822 -0.8273  0.3962  2.5396
 2716Sol     HW13625   2.336   3.377   6.716  1.4172 -1.4622  0.1755
 2716Sol     MW13626   2.300   3.328   6.782 -0.3767 -0.8906 -0.0726
 2717Sol     OW13627   3.031   2.652   4.919 -0.1249  0.3614  0.2186
 2717Sol     HW13628   3.108   2.691   4.960 -0.6717  2.0135 -0.3001
 2717Sol     HW13629   2.957   2.688   4.967 -0.6861  0.9783 -1.0823
 2717Sol     MW13630   3.031   2.659   4.927 -0.2146  0.0334 -0.0705
 2718Sol     OW13631   1.764   1.626   4.865  0.3316 -0.2282 -0.0194
 2718Sol     HW13632   1.799   1.714   4.873  0.0657 -0.1821  0.6161
 2718Sol     HW13633   1.698   1.633   4.795  0.1600  0.1203  0.1755
 2718Sol     MW13634   1.761   1.634   4.859 -0.4327 -0.1029  0.3395
 2719Sol     OW13635   0.986   1.300   7.808  0.1736 -0.3237 -0.4153
 2719Sol     HW13636   0.947   1.268   7.889 -0.0898 -0.2645 -0.5159
 2719Sol     HW13637   0.917   1.355   7.769  1.5012  2.4280  1.0087
 2719Sol     MW13638   0.976   1.302   7.812 -0.0485 -0.2081  0.0215
 2720Sol     OW13639   2.940   0.900   1.765  0.3064  0.0041  0.1835
 2720Sol     HW13640   2.963   0.858   1.682 -0.5603  0.3315 -0.2313
 2720Sol     HW13641   2.966   0.991   1.754  0.7759 -0.0918  0.5081
 2720Sol     MW13642   2.944   0.904   1.757 -0.3137 -0.1362  0.4399
 2721Sol     OW13643   2.262   1.504   4.692  0.4838  0.3832  0.3759
 2721Sol     HW13644   2.233   1.428   4.742  2.1312 -0.8852 -0.5265
 2721Sol     HW13645   2.188   1.564   4.694 -0.6951 -1.0605  1.4663
 2721Sol     MW13646   2.253   1.502   4.696  0.7164  0.4699 -0.0010
 2722Sol     OW13647   2.888   1.830   7.981  0.6072  0.3005 -0.7283
 2722Sol     HW13648   2.851   1.865   7.900 -1.8075  2.4854  1.2079
 2722Sol     HW13649   2.816   1.782   8.021  0.8275  1.8458  1.5738
 2722Sol     MW13650   2.878   1.829   7.977 -0.1685 -0.1610  0.1462
 2723Sol     OW13651   2.633   0.174   4.909 -0.1059  0.4692 -0.0219
 2723Sol     HW13652   2.604   0.167   4.818  0.9173 -0.2648 -0.2919
 2723Sol     HW13653   2.622   0.086   4.945 -2.0744  1.1165  1.0606
 2723Sol     MW13654   2.629   0.166   4.904  0.1739 -0.8247 -0.0149
 2724Sol     OW13655   2.985   2.917   6.558 -0.2077  0.9904 -0.5088
 2724Sol     HW13656   3.029   2.835   6.536  0.0512  0.9022  0.3095
 2724Sol     HW13657   3.057   2.980   6.570 -0.4552  1.6043 -2.1975
 2724Sol     MW13658   2.996   2.915   6.558 -0.8922 -0.2116 -0.3125
 2725Sol     OW13659   0.217   1.625   2.346 -0.6748  0.2553 -0.0016
 2725Sol     HW13660   0.177   1.686   2.408  1.6162  0.9034  0.8629
 2725Sol     HW13661   0.305   1.659   2.331 -0.1680 -1.5565 -1.3116
 2725Sol     MW13662   0.221   1.633   2.350 -0.1970  0.1847  0.1325
 2726Sol     OW13663   2.908   2.562   4.450  0.1964  0.1377  0.0047
 2726Sol     HW13664   2.826   2.515   4.458 -0.1570  0.4525 -1.5289
 2726Sol     HW13665   2.887   2.639   4.397  1.0052  1.4135  1.5020
 2726Sol     MW13666   2.899   2.565   4.446  0.5452  0.3175  0.2468
 2727Sol     OW13667   2.062   0.229   4.144  0.4460  0.2487 -0.2750
 2727Sol     HW13668   2.002   0.251   4.072 -0.7010  1.9920  1.1680
 2727Sol     HW13669   2.025   0.273   4.220  1.6058 -1.6365  1.4223
 2727Sol     MW13670   2.053   0.235   4.144  0.2765  0.0772  0.0769
 2728Sol     OW13671   2.203   1.072   2.953  0.0661 -0.0316 -0.4259
 2728Sol     HW13672   2.186   1.038   3.040  0.4259  0.3628 -0.1975
 2728Sol     HW13673   2.288   1.115   2.961 -0.5038  1.1356 -0.6508
 2728Sol     MW13674   2.209   1.072   2.961  1.1678 -0.0975  0.6014
 2729Sol     OW13675   1.560   3.206   1.794  0.5574 -0.1903  0.0820
 2729Sol     HW13676   1.529   3.295   1.776 -0.8735 -0.8719 -0.8402
 2729Sol     HW13677   1.499   3.149   1.747  1.9894 -1.6327 -0.0532
 2729Sol     MW13678   1.552   3.209   1.788  0.0349 -0.1046  0.6550
 2730Sol     OW13679   0.625   1.111   9.520  0.7514  0.1502 -0.0967
 2730Sol     HW13680   0.564   1.132   9.449 -0.2906 -0.3982  0.6268
 2730Sol     HW13681   0.706   1.155   9.495  0.0492  0.9357 -1.0514
 2730Sol     MW13682   0.626   1.117   9.512 -0.5168  0.3839  0.1462
 2731Sol     OW13683   0.106   2.821   7.136  0.6873 -0.1112  0.2115
 2731Sol     HW13684   0.162   2.801   7.210 -0.6911 -0.6362  1.1221
 2731Sol     HW13685   0.018   2.828   7.173  0.3971  2.7475 -0.8506
 2731Sol     MW13686   0.103   2.820   7.146 -0.4790  0.0771 -0.3372
 2732Sol     OW13687   0.789   3.275   3.163  0.1824  0.4378 -0.1940
 2732Sol     HW13688   0.706   3.278   3.211  0.3642 -1.9218  0.3174
 2732Sol     HW13689   0.802   3.365   3.133 -0.9091  1.5789  2.5343
 2732Sol     MW13690   0.783   3.284   3.165  0.0635  0.3715 -0.1616
 2733Sol     OW13691   2.203   0.674   4.674 -0.0206  0.1771  0.1687
 2733Sol     HW13692   2.230   0.615   4.744 -1.9832 -0.8597  0.0789
 2733Sol     HW13693   2.157   0.618   4.612 -2.1260  1.8360  0.1958
 2733Sol     MW13694   2.201   0.664   4.675  0.3354  0.3718  0.1844
 2734Sol     OW13695   1.368   0.113   8.054  0.7717  0.2628 -0.0605
 2734Sol     HW13696   1.289   0.163   8.035  1.8817  1.7487 -0.9741
 2734Sol     HW13697   1.393   0.075   7.969  1.8832  1.1239 -0.1409
 2734Sol     MW13698   1.363   0.114   8.044 -0.1545 -0.1942 -0.7119
 2735Sol     OW13699   1.965   3.328   2.439  0.2377 -0.1086  0.2159
 2735Sol     HW13700   1.901   3.378   2.389  0.1977  0.4973  0.8660
 2735Sol     HW13701   1.919   3.301   2.518  0.6467 -0.0706  0.4703
 2735Sol     MW13702   1.956   3.330   2.442 -0.3390 -0.3112  0.6425
 2736Sol     OW13703   1.915   2.146   6.726  0.6197 -0.2792  0.3792
 2736Sol     HW13704   1.944   2.057   6.746  1.9054  0.1130  0.3040
 2736Sol     HW13705   1.938   2.159   6.634 -1.6234 -0.6527 -0.2748
 2736Sol     MW13706   1.920   2.140   6.720  0.0905 -0.0529  0.5667
 2737Sol     OW13707   0.347   1.493   3.542  0.1547  0.2359  0.0960
 2737Sol     HW13708   0.414   1.540   3.494 -0.0159 -0.3556 -0.7291
 2737Sol     HW13709   0.344   1.406   3.501 -0.1115 -0.2184  1.0498
 2737Sol     MW13710   0.353   1.489   3.534 -0.0655 -0.4014 -0.1146
 2738Sol     OW13711   1.826   1.922   8.693 -0.3819 -0.5897 -0.0005
 2738Sol     HW13712   1.843   1.832   8.665 -0.2571 -1.0462  1.5338
 2738Sol     HW13713   1.904   1.947   8.743 -0.4084  0.3785 -0.4198
 2738Sol     MW13714   1.835   1.916   8.695 -0.0067 -0.0434 -0.7175
 2739Sol     OW13715   0.637   1.716   9.738  0.8691 -0.4431 -0.4646
 2739Sol     HW13716   0.705   1.780   9.718 -0.6349  0.5140 -2.6999
 2739Sol     HW13717   0.649   1.647   9.673  1.4824 -1.6743  0.9405
 2739Sol     MW13718   0.644   1.716   9.731  0.0365  0.0952  0.1101
 2740Sol     OW13719   0.663   2.555   6.365  0.7383  0.3394  0.1135
 2740Sol     HW13720   0.701   2.509   6.290 -0.8907  0.6844 -0.9484
 2740Sol     HW13721   0.703   2.642   6.363 -0.4433  0.8853 -1.3285
 2740Sol     MW13722   0.670   2.559   6.358 -0.2599  0.5873  0.4043
 2741Sol     OW13723   1.372   0.992   1.786  0.4293  0.1988 -0.5535
 2741Sol     HW13724   1.282   0.997   1.819  0.7553 -0.9381  0.5652
 2741Sol     HW13725   1.379   0.903   1.752  0.8652  0.5747 -1.4500
 2741Sol     MW13726   1.364   0.984   1.786  0.0045  0.3737 -0.1547
 2742Sol     OW13727   2.760   2.024   5.399  0.0114  0.5304 -0.4290
 2742Sol     HW13728   2.818   1.970   5.346  1.5537 -1.5291  3.1596
 2742Sol     HW13729   2.788   2.114   5.381  3.7086 -0.3613  0.4265
 2742Sol     MW13730   2.768   2.027   5.393  0.0240  0.2051 -0.2403
 2743Sol     OW13731   0.106   0.876   5.599  0.3724 -0.1262 -0.2855
 2743Sol     HW13732   0.086   0.876   5.505  0.7431  0.3804 -0.3667
 2743Sol     HW13733   0.166   0.803   5.611 -0.5105 -0.8598 -0.2587
 2743Sol     MW13734   0.109   0.870   5.591 -0.6750  0.7180 -0.0944
 2744Sol     OW13735   0.965   2.855   7.882  0.1995  0.4955 -0.3307
 2744Sol     HW13736   1.019   2.776   7.886  0.4202  0.5919 -1.2859
 2744Sol     HW13737   0.876   2.824   7.896  0.2674  0.0421 -0.8788
 2744Sol     MW13738   0.962   2.845   7.884 -0.6122 -0.1565  0.1539
 2745Sol     OW13739   0.037   2.270   8.168  0.3028  0.1851  0.1525
 2745Sol     HW13740  -0.015   2.322   8.229 -1.3363 -0.0405 -1.0244
 2745Sol     HW13741  -0.016   2.191   8.153  0.9115  0.0158 -1.1784
 2745Sol     MW13742   0.028   2.267   8.172  0.1107 -0.2900 -0.3131
 2746Sol     OW13743   0.213   2.181   7.017  0.0751 -0.0433  0.0207
 2746Sol     HW13744   0.292   2.146   6.975 -0.8317  0.6994 -2.4343
 2746Sol     HW13745   0.146   2.115   6.999 -0.3857  0.4104  0.0827
 2746Sol     MW13746   0.214   2.172   7.011  0.2010  0.2214  0.2907
 2747Sol     OW13747   1.150   1.823  10.106 -0.2133 -0.5368  0.1097
 2747Sol     HW13748   1.069   1.776  10.122 -0.9337  1.0345  1.2338
 2747Sol     HW13749   1.213   1.785  10.167  0.0550 -2.0921 -1.1030
 2747Sol     MW13750   1.148   1.816  10.113 -0.5953  0.0525 -0.4407
 2748Sol     OW13751   2.916   3.000   3.342  0.3319 -0.5090 -0.1850
 2748Sol     HW13752   2.941   2.909   3.357 -1.2470 -1.2056 -1.5861
 2748Sol     HW13753   2.829   3.007   3.380  0.5760  0.4990  0.1869
 2748Sol     MW13754   2.910   2.992   3.347 -0.5098  0.4700  0.3905
 2749Sol     OW13755   0.981   2.658   4.276 -0.7041  0.0612  0.0286
 2749Sol     HW13756   1.034   2.733   4.251 -0.7615  0.4377  1.0433
 2749Sol     HW13757   0.954   2.619   4.193  0.1382  0.5849 -0.4934
 2749Sol     MW13758   0.983   2.661   4.266  0.5478 -0.1707  0.3299
 2750Sol     OW13759   1.201   3.234  10.291 -0.0541 -0.0748 -0.4220
 2750Sol     HW13760   1.121   3.181  10.293 -0.8240  1.0964  0.6370
 2750Sol     HW13761   1.269   3.176  10.324 -0.7023 -0.7130 -0.2003
 2750Sol     MW13762   1.200   3.224  10.294  0.8217 -0.2627 -0.2922
 2751Sol     OW13763   1.268   1.840   8.784  0.3474 -0.9273 -0.2929
 2751Sol     HW13764   1.258   1.909   8.849  0.2309 -3.0757  2.0418
 2751Sol     HW13765   1.184   1.837   8.738  0.3217  0.3757 -0.3436
 2751Sol     MW13766   1.259   1.846   8.785 -0.6062 -0.2020  0.6458
 2752Sol     OW13767   1.685   3.238   7.089 -0.4085  0.1048 -0.0467
 2752Sol     HW13768   1.660   3.317   7.042  0.4151 -0.5111 -1.5430
 2752Sol     HW13769   1.620   3.173   7.064 -0.9110  0.2029  0.9501
 2752Sol     MW13770   1.677   3.239   7.083  0.3463  0.5163 -0.2234
 2753Sol     OW13771   1.000   1.471   1.979 -0.1235 -0.2810  0.3572
 2753Sol     HW13772   1.092   1.470   2.004 -0.2671 -0.0916  0.9036
 2753Sol     HW13773   0.974   1.563   1.983  0.7400  0.2366 -3.8879
 2753Sol     MW13774   1.006   1.479   1.981 -0.8165 -0.2789 -0.6087
 2754Sol     OW13775   0.665   2.293   2.842 -0.0870 -0.4792 -0.0135
 2754Sol     HW13776   0.710   2.376   2.824 -0.1504 -0.6964 -1.2449
 2754Sol     HW13777   0.695   2.235   2.772  0.1842 -1.5907  1.0096
 2754Sol     MW13778   0.672   2.295   2.834 -0.3533  0.7110  0.3118
 2755Sol     OW13779   0.932   3.213   9.979  0.5382  0.3852  0.4590
 2755Sol     HW13780   0.986   3.238   9.904  0.4806  0.3759  0.4137
 2755Sol     HW13781   0.862   3.279   9.979  0.1464 -0.0284  0.0830
 2755Sol     MW13782   0.930   3.222   9.972 -0.3752  0.1930 -0.0821
 2756Sol     OW13783   0.070   1.643   9.280 -0.1914 -0.5429 -0.0672
 2756Sol     HW13784   0.099   1.711   9.341  0.7190  0.3206 -1.4391
 2756Sol     HW13785  -0.012   1.611   9.318  0.3679 -0.0477  1.6197
 2756Sol     MW13786   0.065   1.646   9.289  0.8579 -0.7896 -0.1775
 2757Sol     OW13787   0.699   2.819   7.075 -0.3899  0.0427 -0.3743
 2757Sol     HW13788   0.689   2.822   7.170 -0.1991  0.6769 -0.3760
 2757Sol     HW13789   0.618   2.856   7.041  0.7217  2.5586 -0.4150
 2757Sol     MW13790   0.691   2.822   7.081 -0.6365  0.1448  0.0068
 2758Sol     OW13791   1.562   1.161   6.706 -0.0834 -0.4077 -0.0189
 2758Sol     HW13792   1.617   1.084   6.722 -0.6717 -0.8749 -0.2305
 2758Sol     HW13793   1.612   1.212   6.642  0.1661 -0.7694 -0.1199
 2758Sol     MW13794   1.572   1.158   6.701  0.0984 -0.2468 -0.0892
 2759Sol     OW13795   0.365   2.310   3.266  0.2009  0.4881  0.0524
 2759Sol     HW13796   0.322   2.340   3.186  0.8453  1.1630 -0.0485
 2759Sol     HW13797   0.296   2.265   3.316  0.3699 -2.1752 -2.0161
 2759Sol     MW13798   0.355   2.309   3.264 -0.5407 -0.5194 -0.2534
 2760Sol     OW13799   2.039   3.056   2.769  0.1967  0.1515  0.2839
 2760Sol     HW13800   2.110   3.050   2.834 -1.1319 -0.9049  1.6696
 2760Sol     HW13801   2.046   2.974   2.719  0.2467  0.2691  0.0973
 2760Sol     MW13802   2.046   3.048   2.770  0.1230  0.4468 -0.0942
 2761Sol     OW13803   2.138   1.773   4.477 -0.1220  0.6204 -0.2913
 2761Sol     HW13804   2.201   1.784   4.549  0.7794  1.9992 -1.2598
 2761Sol     HW13805   2.065   1.830   4.500 -0.5754 -0.1975  0.3277
 2761Sol     MW13806   2.137   1.779   4.485 -0.2861  0.1585 -0.4779
 2762Sol     OW13807   3.030   2.299   3.976 -0.3192 -0.0933 -0.1911
 2762Sol     HW13808   3.078   2.230   4.023 -3.2825 -1.7663  0.5000
 2762Sol     HW13809   3.049   2.379   4.024  0.5608 -0.9791  0.9538
 2762Sol     MW13810   3.036   2.300   3.984  0.4420  0.3633 -0.5063
 2763Sol     OW13811   1.767   0.742   9.090  0.1307  0.0272  0.3486
 2763Sol     HW13812   1.846   0.782   9.053  0.2092 -0.0393  0.4438
 2763Sol     HW13813   1.793   0.653   9.112 -0.1817 -0.2303 -0.3164
 2763Sol     MW13814   1.777   0.738   9.089  0.0536  0.6460  0.0875
 2764Sol     OW13815   1.766   1.095   3.115 -0.2161 -0.8661  0.2441
 2764Sol     HW13816   1.759   1.102   3.020  0.3803  0.3045  0.2789
 2764Sol     HW13817   1.781   1.185   3.145 -1.1723 -1.1150  1.5157
 2764Sol     MW13818   1.767   1.104   3.109 -0.3700 -0.7731  0.2123
 2765Sol     OW13819   2.124   2.610   2.071 -0.0049 -0.5052 -0.2143
 2765Sol     HW13820   2.135   2.701   2.098  0.7354  0.0382 -2.2263
 2765Sol     HW13821   2.180   2.560   2.131  1.1208  0.5873 -0.3388
 2765Sol     MW13822   2.130   2.614   2.079  0.1183  0.3542 -0.0033
 2766Sol     OW13823   2.644   0.517   2.525  0.3156  0.5322  0.0168
 2766Sol     HW13824   2.619   0.485   2.612 -0.0502 -0.5770 -0.4986
 2766Sol     HW13825   2.735   0.490   2.515  0.0328 -0.2833 -0.3824
 2766Sol     MW13826   2.650   0.512   2.532 -0.3163 -0.0615 -0.2385
 2767Sol     OW13827   1.755   2.910   6.428 -0.1229  0.2859 -0.5153
 2767Sol     HW13828   1.723   2.909   6.518 -0.9966 -0.3862 -0.8322
 2767Sol     HW13829   1.705   2.979   6.385  1.5177  1.7992 -0.0534
 2767Sol     MW13830   1.748   2.916   6.432  0.3315 -0.6491  0.0824
 2768Sol     OW13831   2.666   3.166   6.049  0.3913 -0.3929  0.3784
 2768Sol     HW13832   2.676   3.075   6.076  0.4224 -0.7154 -0.7134
 2768Sol     HW13833   2.594   3.165   5.987  2.2048 -0.1189 -1.7696
 2768Sol     MW13834   2.660   3.158   6.046  0.2949 -0.2425 -0.1544
 2769Sol     OW13835   1.300   1.694   2.934  0.4071 -0.7746 -0.2691
 2769Sol     HW13836   1.226   1.673   2.878  0.1887  1.4371 -0.8675
 2769Sol     HW13837   1.369   1.721   2.873  0.0418  2.0277  0.4734
 2769Sol     MW13838   1.300   1.695   2.924 -0.3483  0.3517  0.2396
 2770Sol     OW13839   2.212   0.279   9.824 -0.1570 -0.2509  0.4913
 2770Sol     HW13840   2.161   0.244   9.897 -0.5006 -0.9173 -0.0577
 2770Sol     HW13841   2.279   0.213   9.807 -0.4388 -0.3799 -0.1621
 2770Sol     MW13842   2.213   0.270   9.829 -0.0825  0.2093  0.1982
 2771Sol     OW13843   0.715   1.802   2.288 -0.1618 -0.2734 -0.8284
 2771Sol     HW13844   0.792   1.810   2.344 -1.2938 -0.4811  0.7934
 2771Sol     HW13845   0.731   1.863   2.216  2.4896 -1.9012 -1.6913
 2771Sol     MW13846   0.724   1.808   2.287  0.7646  1.0302  0.7057
 2772Sol     OW13847   0.352   3.111   9.211  0.3393  0.6453 -0.7986
 2772Sol     HW13848   0.315   3.102   9.298  0.0301  0.0551 -0.9903
 2772Sol     HW13849   0.446   3.105   9.223  0.2696  0.0398 -0.5735
 2772Sol     MW13850   0.357   3.110   9.220  0.6150 -0.2144  0.4578
 2773Sol     OW13851   0.905   0.346   2.268 -0.0515  0.7093  0.0477
 2773Sol     HW13852   0.916   0.430   2.225  2.7406  0.5820  0.4047
 2773Sol     HW13853   0.989   0.330   2.311 -0.0703 -2.8457 -1.0815
 2773Sol     MW13854   0.913   0.352   2.268 -0.2511 -0.4324  0.1720
 2774Sol     OW13855   0.458   1.712   9.929  0.1983  0.5212 -0.0698
 2774Sol     HW13856   0.510   1.730   9.850  0.3912 -0.5112 -0.1834
 2774Sol     HW13857   0.509   1.646   9.976 -1.1868 -0.8014 -0.3746
 2774Sol     MW13858   0.467   1.707   9.926  0.9538 -0.4292  0.6079
 2775Sol     OW13859   0.946   1.957   2.231  0.1468 -0.1555 -0.0886
 2775Sol     HW13860   0.894   1.990   2.158  1.8173  3.1137  0.0876
 2775Sol     HW13861   1.037   1.964   2.201  0.8040  0.3576  1.9443
 2775Sol     MW13862   0.949   1.960   2.222 -0.6715  0.3770 -0.2693
 2776Sol     OW13863   1.460   2.389   3.665  0.6511 -0.4848 -0.4017
 2776Sol     HW13864   1.515   2.465   3.680 -0.9038  0.5548  0.2062
 2776Sol     HW13865   1.448   2.386   3.570 -1.9658  2.0395 -0.2305
 2776Sol     MW13866   1.464   2.395   3.658 -0.0696 -1.0680 -0.0188
 2777Sol     OW13867   2.045   2.490   8.768 -0.2251  0.3527 -0.0274
 2777Sol     HW13868   2.100   2.566   8.752 -0.6586  0.6251 -0.2421
 2777Sol     HW13869   2.059   2.433   8.692 -0.9180  0.8298 -0.5216
 2777Sol     MW13870   2.051   2.492   8.760  0.2081  1.0189  0.0317
 2778Sol     OW13871   3.011   1.448   4.419  0.0191 -0.1468 -0.4287
 2778Sol     HW13872   3.086   1.460   4.477  1.0523 -1.0261 -1.5766
 2778Sol     HW13873   2.951   1.392   4.469  0.9828 -1.0459 -0.2827
 2778Sol     MW13874   3.012   1.444   4.429 -0.0774  0.3883 -0.0125
 2779Sol     OW13875   2.844   1.124   2.258  0.0288 -0.4847  0.7419
 2779Sol     HW13876   2.849   1.047   2.314  0.9433  0.2840  1.7475
 2779Sol     HW13877   2.753   1.127   2.229 -0.4027 -1.0311  1.9998
 2779Sol     MW13878   2.837   1.117   2.261 -0.4283  0.3010 -0.1436
 2780Sol     OW13879   0.917   2.341   6.737  0.3421  0.0583 -0.1478
 2780Sol     HW13880   0.909   2.261   6.686  1.7381  0.5926 -1.2344
 2780Sol     HW13881   0.834   2.387   6.723 -0.4759 -1.2046  0.5194
 2780Sol     MW13882   0.909   2.338   6.731  0.2808 -0.5402  0.7137
 2781Sol     OW13883   1.441   0.443   3.101  0.2496 -0.5728 -0.1595
 2781Sol     HW13884   1.405   0.514   3.047  0.6254 -1.3186 -1.4248
 2781Sol     HW13885   1.462   0.485   3.184 -0.8800  0.4896 -0.3783
 2781Sol     MW13886   1.439   0.453   3.103 -0.0800  0.2690 -0.1642
 2782Sol     OW13887   2.227   1.918   5.293  0.1109 -0.2666 -0.7160
 2782Sol     HW13888   2.269   1.956   5.370  0.6337  0.4738 -1.3517
 2782Sol     HW13889   2.140   1.893   5.322  0.0586  0.6582 -0.0702
 2782Sol     MW13890   2.223   1.919   5.302  0.5550 -0.4780  0.4030
 2783Sol     OW13891   2.484   2.064   8.632 -0.5100 -0.8001 -0.0917
 2783Sol     HW13892   2.397   2.095   8.608 -0.7228 -0.8191  0.6323
 2783Sol     HW13893   2.484   2.065   8.728  0.0201 -1.5424 -0.0787
 2783Sol     MW13894   2.476   2.067   8.638  0.1993 -0.0378 -0.0641
 2784Sol     OW13895   2.279   2.875   3.683  0.4504  0.5298  0.5676
 2784Sol     HW13896   2.355   2.817   3.688 -0.1100 -0.3161 -0.6074
 2784Sol     HW13897   2.205   2.820   3.710 -0.0347  0.7821 -0.2446
 2784Sol     MW13898   2.279   2.865   3.686 -0.6290  0.2913  0.1289
 2785Sol     OW13899   0.621   0.279   1.719  0.4722 -0.2406  0.4863
 2785Sol     HW13900   0.580   0.313   1.640 -0.8737  0.4024  1.4391
 2785Sol     HW13901   0.667   0.354   1.757  0.5552 -0.3819  0.6661
 2785Sol     MW13902   0.622   0.289   1.715 -0.2358  0.1969 -0.0923
 2786Sol     OW13903   0.483   2.611   6.787 -0.1473 -0.4317 -0.1511
 2786Sol     HW13904   0.523   2.675   6.728  0.1890  0.3321  0.8999
 2786Sol     HW13905   0.408   2.656   6.826  0.4828 -0.4352  1.0998
 2786Sol     MW13906   0.480   2.621   6.785  0.6304  0.2848  0.3849
 2787Sol     OW13907   2.110   3.127   9.082 -0.0088 -0.6389 -0.3048
 2787Sol     HW13908   2.071   3.177   9.153 -1.1224 -0.8017 -0.7998
 2787Sol     HW13909   2.091   3.177   9.003  0.5369 -0.8611 -0.5846
 2787Sol     MW13910   2.105   3.136   9.081 -0.0667  0.4381 -0.8498
 2788Sol     OW13911   1.772   1.017   4.631  0.6186  0.0023  0.3984
 2788Sol     HW13912   1.860   0.984   4.616  0.4668 -0.8779  1.4096
 2788Sol     HW13913   1.781   1.079   4.703  0.7926  1.7321 -1.0617
 2788Sol     MW13914   1.781   1.020   4.636 -0.7574  0.1188  0.4059
 2789Sol     OW13915   3.010   0.562   7.381  0.5133  0.6475 -0.2099
 2789Sol     HW13916   3.074   0.547   7.451  0.3443  0.1541 -0.1607
 2789Sol     HW13917   3.013   0.483   7.328  1.1158  1.2954 -1.1537
 2789Sol     MW13918   3.016   0.553   7.383  1.0533 -0.7221  0.3403
 2790Sol     OW13919   1.183   0.582   3.592 -0.6478  0.1581 -0.0811
 2790Sol     HW13920   1.272   0.606   3.619 -1.0303 -0.6060  1.9487
 2790Sol     HW13921   1.191   0.494   3.557 -0.2762  0.8677 -1.8273
 2790Sol     MW13922   1.192   0.577   3.591  0.3511 -0.2837 -0.4327
 2791Sol     OW13923   1.197   1.203   2.607 -0.0888 -0.3149 -0.2973
 2791Sol     HW13924   1.118   1.239   2.648  0.5706 -0.4836  1.1307
 2791Sol     HW13925   1.170   1.184   2.517 -1.1740  1.3043 -0.3390
 2791Sol     MW13926   1.187   1.204   2.603 -0.3036 -0.5240 -0.2001
 2792Sol     OW13927   2.919   0.489   2.532  0.5428 -0.0220  0.3580
 2792Sol     HW13928   2.975   0.413   2.517  0.2360 -0.4242  1.2090
 2792Sol     HW13929   2.968   0.543   2.594 -0.2286 -0.6188  1.4941
 2792Sol     MW13930   2.929   0.487   2.536 -0.0593 -0.4052 -0.4093
 2793Sol     OW13931   1.874   2.789   5.405 -0.4122 -0.1519 -0.6961
 2793Sol     HW13932   1.786   2.783   5.442  0.7851 -2.0527  1.9610
 2793Sol     HW13933   1.910   2.869   5.441 -0.4561 -0.2370 -0.4643
 2793Sol     MW13934   1.869   2.795   5.411  0.5542 -0.4885 -0.7570
 2794Sol     OW13935   1.303   0.648   2.976 -0.3779 -0.0168 -0.0913
 2794Sol     HW13936   1.217   0.666   3.015 -0.7104 -0.7210 -0.4959
 2794Sol     HW13937   1.340   0.735   2.960 -1.3124  0.3069 -0.5642
 2794Sol     MW13938   1.298   0.657   2.978 -0.2364 -0.7577 -0.6114
 2795Sol     OW13939   0.851   0.258   1.920 -0.0882 -0.6229 -0.5084
 2795Sol     HW13940   0.835   0.164   1.906 -1.0391 -0.7167  1.0683
 2795Sol     HW13941   0.778   0.287   1.975  0.6968  0.8355 -0.2030
 2795Sol     MW13942   0.843   0.252   1.924  0.2584  0.3565 -0.4035
 2796Sol     OW13943   2.989   2.522   8.053 -0.2733  0.1979 -0.1093
 2796Sol     HW13944   2.971   2.519   7.959 -0.2282  1.8159 -0.1865
 2796Sol     HW13945   3.054   2.453   8.067  1.4238  1.4374 -1.6756
 2796Sol     MW13946   2.993   2.515   8.046  0.0997  0.5353 -0.3178
 2797Sol     OW13947   0.500   1.749   6.968 -0.0347  0.1126  0.3124
 2797Sol     HW13948   0.562   1.687   6.930 -0.1285  0.1077  0.1655
 2797Sol     HW13949   0.495   1.820   6.904  0.0345  0.2470  0.4563
 2797Sol     MW13950   0.505   1.750   6.959 -0.0317  0.3848  0.0068
 2798Sol     OW13951   1.781   0.680   5.448  0.1102 -0.2383 -0.3555
 2798Sol     HW13952   1.724   0.755   5.430 -1.4011 -1.4235 -0.6393
 2798Sol     HW13953   1.748   0.645   5.530  0.4048 -0.9690 -0.5527
 2798Sol     MW13954   1.773   0.684   5.453 -0.4954 -0.2838  0.3408
 2799Sol     OW13955   2.393   3.380   5.073  0.3419 -0.3468 -0.2195
 2799Sol     HW13956   2.455   3.350   5.005  0.0677 -1.3744 -0.0266
 2799Sol     HW13957   2.341   3.447   5.029  0.3179 -0.8404 -0.9689
 2799Sol     MW13958   2.394   3.383   5.063 -0.3536 -0.0587  0.5828
 2800Sol     OW13959   1.363   1.002   5.819  0.1583  0.4187  0.0272
 2800Sol     HW13960   1.288   0.966   5.770 -0.7031  0.4804  1.2856
 2800Sol     HW13961   1.323   1.049   5.893  1.4548  0.3250  0.7920
 2800Sol     MW13962   1.352   1.003   5.821 -0.5141  0.8172  0.3558
 2801Sol     OW13963   2.635   1.553   7.941  0.7366 -0.1294  0.0121
 2801Sol     HW13964   2.707   1.493   7.923  0.8818  0.0361  0.0335
 2801Sol     HW13965   2.588   1.558   7.858  1.2753  0.4542 -0.2664
 2801Sol     MW13966   2.637   1.548   7.932  0.2842 -0.2135 -0.5017
 2802Sol     OW13967   1.245   2.631   4.641  0.3230  0.2641 -0.7838
 2802Sol     HW13968   1.288   2.614   4.558 -1.4544 -2.0810 -1.2910
 2802Sol     HW13969   1.310   2.679   4.693  2.3539 -0.4304 -2.6244
 2802Sol     MW13970   1.255   2.633   4.639  1.1746  0.0902 -0.1225
 2803Sol     OW13971   1.260   1.080   2.849  0.2684  0.6893  0.2008
 2803Sol     HW13972   1.230   1.152   2.904  0.8894  0.9806  0.1669
 2803Sol     HW13973   1.250   1.111   2.759 -1.0652  0.0853  0.1266
 2803Sol     MW13974   1.257   1.089   2.846 -0.0056  0.0331  0.3078
 2804Sol     OW13975   1.872   0.225   8.952 -0.0111 -0.2043 -0.0997
 2804Sol     HW13976   1.896   0.163   9.021  2.1077  0.3974 -0.2679
 2804Sol     HW13977   1.824   0.172   8.888  0.4173 -1.3291  0.4924
 2804Sol     MW13978   1.870   0.215   8.952  0.6050  0.4517 -0.1472
 2805Sol     OW13979   2.032   0.600  10.299  0.0206 -0.4153 -0.0681
 2805Sol     HW13980   2.037   0.684  10.253  0.9259 -0.9265 -0.9139
 2805Sol     HW13981   2.009   0.623  10.389 -0.2001  0.7062 -0.4088
 2805Sol     MW13982   2.030   0.609  10.303  0.0895 -0.4191 -0.2748
 2806Sol     OW13983   2.925   0.360   3.893  0.0706 -0.3961 -0.4590
 2806Sol     HW13984   2.913   0.300   3.819  0.7217  0.7687 -1.5200
 2806Sol     HW13985   2.932   0.446   3.853  1.5001  0.1280  0.8836
 2806Sol     MW13986   2.924   0.362   3.883  0.2336 -0.2968 -0.1576
 2807Sol     OW13987   0.306   1.438   7.396  0.2453 -0.2520  0.7109
 2807Sol     HW13988   0.286   1.500   7.325  0.7524  0.0233  0.8013
 2807Sol     HW13989   0.221   1.412   7.430  0.0613  2.2447  2.2549
 2807Sol     MW13990   0.296   1.442   7.392  0.6604  0.6823 -0.0841
 2808Sol     OW13991   1.474   1.258   3.445 -0.1330  0.2136 -0.1467
 2808Sol     HW13992   1.525   1.177   3.438 -1.2633 -0.4683 -0.6029
 2808Sol     HW13993   1.386   1.233   3.418 -0.4995  1.5942 -0.2562
 2808Sol     MW13994   1.471   1.248   3.442 -0.2517  0.2466 -0.0485
 2809Sol     OW13995   0.419   2.710   3.127 -0.0693 -0.8572  0.1355
 2809Sol     HW13996   0.458   2.647   3.188 -1.2093 -0.8290  0.9116
 2809Sol     HW13997   0.399   2.786   3.180 -2.7110 -1.5023  0.1235
 2809Sol     MW13998   0.421   2.711   3.137  0.1891 -0.1034  0.0664
 2810Sol     OW13999   0.058   1.182   6.350  0.0165  0.1486  0.9209
 2810Sol     HW14000   0.002   1.107   6.368 -0.2080 -0.8589 -3.4678
 2810Sol     HW14001   0.147   1.151   6.366 -0.2915  0.0086  2.3805
 2810Sol     MW14002   0.061   1.173   6.353 -0.4774  0.2554  0.0832
 2811Sol     OW14003   0.974   2.602  10.109  0.6886 -0.1089 -0.2816
 2811Sol     HW14004   0.992   2.695  10.093 -0.5045 -0.0357 -1.2702
 2811Sol     HW14005   0.903   2.580  10.048 -0.3753 -1.1702  1.2842
 2811Sol     MW14006   0.969   2.609  10.102 -0.4662  0.1558 -0.1464
 2812Sol     OW14007   1.591   1.332   9.365 -0.6304  0.0603 -0.6434
 2812Sol     HW14008   1.543   1.250   9.377 -0.1477  0.0584  1.4781
 2812Sol     HW14009   1.526   1.394   9.331 -1.3435 -0.8039 -0.8758
 2812Sol     MW14010   1.581   1.330   9.363  0.3204  0.6621  0.6681
 2813Sol     OW14011   1.226   0.893   8.719 -0.5756  0.1203 -0.3808
 2813Sol     HW14012   1.305   0.871   8.670  0.1323 -1.5408  1.4856
 2813Sol     HW14013   1.245   0.979   8.758  0.1750 -0.1225 -0.2123
 2813Sol     MW14014   1.234   0.899   8.718 -0.4644  0.2694 -0.1745
 2814Sol     OW14015   1.204   0.949   7.301 -0.4003 -0.0765 -0.4071
 2814Sol     HW14016   1.285   0.974   7.255  1.1732 -1.1053  1.6845
 2814Sol     HW14017   1.199   0.854   7.288 -1.2128 -0.0374 -0.3858
 2814Sol     MW14018   1.211   0.943   7.295  0.2044 -1.0853  0.1581
 2815Sol     OW14019   1.800   1.401   5.024  0.3250 -0.1087  0.6133
 2815Sol     HW14020   1.811   1.481   4.974 -0.0608 -0.4250  0.0139
 2815Sol     HW14021   1.771   1.336   4.960  2.0914 -1.1163  0.7941
 2815Sol     MW14022   1.798   1.402   5.014 -0.5240  0.0755  0.3991
 2816Sol     OW14023   1.575   2.718   5.206 -0.5071 -0.0421  0.3565
 2816Sol     HW14024   1.601   2.648   5.266  0.9449 -1.0083 -1.3294
 2816Sol     HW14025   1.483   2.702   5.188 -0.6823 -0.3521  1.5175
 2816Sol     MW14026   1.569   2.710   5.210 -0.4355  0.0380 -0.3572
 2817Sol     OW14027   1.945   1.989   7.149  0.4525  0.6636  0.0307
 2817Sol     HW14028   1.897   2.070   7.166 -3.1591 -1.0902 -1.3701
 2817Sol     HW14029   1.903   1.924   7.205  0.5297 -1.1303 -1.9261
 2817Sol     MW14030   1.937   1.990   7.155  0.2739  0.4368  0.2773
 2818Sol     OW14031   1.452   2.267   8.346  0.1273  0.0329  0.3360
 2818Sol     HW14032   1.391   2.254   8.274  1.5906 -0.8825 -0.7491
 2818Sol     HW14033   1.493   2.182   8.359  0.6525  0.4597  1.5447
 2818Sol     MW14034   1.450   2.259   8.341 -0.3322 -0.0212 -0.1626
 2819Sol     OW14035   2.484   3.376   7.741 -0.1228  0.2948  0.7041
 2819Sol     HW14036   2.441   3.461   7.752 -1.1926 -0.1621  0.1821
 2819Sol     HW14037   2.412   3.313   7.741  0.5440 -0.4760 -0.3833
 2819Sol     MW14038   2.473   3.378   7.742 -0.5244 -0.2112  0.8690
 2820Sol     OW14039   2.937   0.184   8.692 -0.5103  0.0258  0.6689
 2820Sol     HW14040   2.919   0.261   8.746 -0.3904  0.2287  0.4165
 2820Sol     HW14041   2.889   0.200   8.610 -0.9931 -0.4477  0.8499
 2820Sol     MW14042   2.931   0.192   8.690 -0.5530  0.3229 -0.1333
 2821Sol     OW14043   1.382   1.493   9.306 -0.3992 -0.1556  0.9291
 2821Sol     HW14044   1.362   1.585   9.292  1.5955  0.6535  3.0680
 2821Sol     HW14045   1.323   1.466   9.376 -0.8834 -0.4877  0.4000
 2821Sol     MW14046   1.375   1.499   9.311 -0.1227  0.5782 -0.0526
 2822Sol     OW14047   1.602   0.896   5.409  0.0191  0.0080 -0.1038
 2822Sol     HW14048   1.657   0.973   5.422  2.7744 -1.6128 -1.7322
 2822Sol     HW14049   1.553   0.887   5.491  1.7523  1.8040  1.1656
 2822Sol     MW14050   1.602   0.902   5.417 -0.2689 -0.5271 -0.2616
 2823Sol     OW14051   1.857   0.708   8.528 -0.0160 -0.1509 -0.1014
 2823Sol     HW14052   1.850   0.804   8.527 -2.0882 -0.2189  2.9444
 2823Sol     HW14053   1.782   0.679   8.476  0.9883 -0.1485 -1.5872
 2823Sol     MW14054   1.850   0.714   8.523 -0.4604  0.0240  0.6562
 2824Sol     OW14055   1.528   0.633   7.539  0.5305  0.3556  0.3103
 2824Sol     HW14056   1.594   0.703   7.535  1.8805 -0.9764 -1.3068
 2824Sol     HW14057   1.550   0.583   7.617  0.8581  0.4620  0.2855
 2824Sol     MW14058   1.536   0.635   7.546 -0.3217  0.0203  0.2688
 2825Sol     OW14059   2.634   2.147   3.433 -0.0134 -0.0115 -0.1409
 2825Sol     HW14060   2.611   2.160   3.341 -0.0317  0.6481 -0.0451
 2825Sol     HW14061   2.654   2.234   3.465 -1.0594 -0.0930  0.7601
 2825Sol     MW14062   2.634   2.156   3.427 -0.7323 -0.7792 -0.3297
 2826Sol     OW14063   2.811   2.009   2.454 -0.7167 -0.0004  0.1290
 2826Sol     HW14064   2.741   2.057   2.497  1.5300  2.0637  1.5770
 2826Sol     HW14065   2.793   1.917   2.473 -3.7813  0.3735 -0.7230
 2826Sol     MW14066   2.803   2.005   2.459 -0.0941 -0.1106  0.1999
 2827Sol     OW14067   1.719   1.150   5.473 -0.3195  0.4707 -0.0897
 2827Sol     HW14068   1.804   1.179   5.441  0.2882  0.5172  1.5132
 2827Sol     HW14069   1.655   1.200   5.421  0.6021 -0.1040 -1.7999
 2827Sol     MW14070   1.721   1.157   5.465  0.2821  0.3420  0.0669
 2828Sol     OW14071   0.408   0.831   9.081 -0.4558 -0.0048  0.3223
 2828Sol     HW14072   0.450   0.747   9.066 -2.9489 -1.3638  0.6225
 2828Sol     HW14073   0.423   0.850   9.174  0.0342 -0.1326  0.2719
 2828Sol     MW14074   0.413   0.825   9.088 -0.5347  0.0740  0.2013
 2829Sol     OW14075   0.953   2.017   1.742  0.2203 -0.1379  0.3712
 2829Sol     HW14076   0.920   1.927   1.733  0.7336 -0.1598 -1.5820
 2829Sol     HW14077   0.983   2.040   1.654 -0.5711  2.2239  0.6758
 2829Sol     MW14078   0.953   2.011   1.733 -0.3320  0.4357  0.4026
 2830Sol     OW14079   2.069   0.315   7.374 -0.0187  0.1906  0.0430
 2830Sol     HW14080   2.000   0.381   7.381  0.5801  1.0938 -2.2244
 2830Sol     HW14081   2.048   0.266   7.295  0.9918 -0.6536  0.2911
 2830Sol     MW14082   2.061   0.317   7.368 -0.0913  0.1632 -0.9780
 2831Sol     OW14083   2.525   1.109   8.291  0.2562  0.0542  0.2828
 2831Sol     HW14084   2.542   1.170   8.363 -0.7198 -0.7446  1.2025
 2831Sol     HW14085   2.449   1.146   8.246  1.3694  1.0028 -0.8718
 2831Sol     MW14086   2.520   1.118   8.293 -0.1012  0.2350 -0.1128
 2832Sol     OW14087   0.038   0.279   5.297  0.3291 -0.3632 -0.3948
 2832Sol     HW14088  -0.035   0.220   5.279  0.3664 -0.8469  0.9619
 2832Sol     HW14089   0.109   0.247   5.241  0.0897 -1.0768 -0.2953
 2832Sol     MW14090   0.038   0.271   5.290  0.3278 -0.2363 -0.3002
 2833Sol     OW14091   0.601   1.703   5.776 -0.3874 -0.1544  0.4796
 2833Sol     HW14092   0.678   1.760   5.778 -0.9750  0.7624 -1.4341
 2833Sol     HW14093   0.539   1.744   5.836  0.1263 -0.1619  1.0150
 2833Sol     MW14094   0.603   1.712   5.781 -0.8814 -0.1200 -0.7346
 2834Sol     OW14095   0.407   0.858   4.784 -0.5523 -0.2685 -0.2046
 2834Sol     HW14096   0.345   0.786   4.776 -1.0006  0.0981  0.0026
 2834Sol     HW14097   0.479   0.823   4.837 -0.7971 -0.5423 -0.0565
 2834Sol     MW14098   0.408   0.849   4.788 -0.2906  0.4589 -0.5802
 2835Sol     OW14099   2.178   3.318   8.385 -0.3293 -0.7259  0.5450
 2835Sol     HW14100   2.244   3.335   8.317  0.0331 -0.6132  0.9271
 2835Sol     HW14101   2.098   3.300   8.336  0.3349 -2.3980  0.0438
 2835Sol     MW14102   2.177   3.318   8.374 -0.7541  0.0377  0.1034
 2836Sol     OW14103   2.075   1.164   1.638 -0.0917  0.5595  0.5413
 2836Sol     HW14104   1.992   1.212   1.631  0.0914  1.0165  1.3429
 2836Sol     HW14105   2.137   1.229   1.671  0.4296  0.0544  0.5633
 2836Sol     MW14106   2.073   1.174   1.640  0.2624  0.0646  0.3105
 2837Sol     OW14107   0.330   2.872   2.779 -0.5798  0.6099 -0.1708
 2837Sol     HW14108   0.319   2.961   2.812  0.1537  0.3528  0.8058
 2837Sol     HW14109   0.413   2.843   2.818  0.1360  0.1677 -1.9668
 2837Sol     MW14110   0.337   2.878   2.785  0.1298 -0.4739  0.1877
 2838Sol     OW14111   2.383   1.411   3.163 -0.0450  0.8348  0.3382
 2838Sol     HW14112   2.443   1.468   3.115 -0.9391  0.3872 -1.3274
 2838Sol     HW14113   2.440   1.359   3.220  1.1648  0.3938 -1.2469
 2838Sol     MW14114   2.393   1.412   3.164  0.5039  0.1195 -0.4981
 2839Sol     OW14115   2.176   2.236   1.733 -0.2088  0.0733 -0.2772
 2839Sol     HW14116   2.175   2.329   1.755  0.5719  0.2141 -0.8500
 2839Sol     HW14117   2.268   2.214   1.721 -0.5040 -0.3827 -1.8339
 2839Sol     MW14118   2.184   2.242   1.734 -0.0335 -0.3821 -0.4198
 2840Sol     OW14119   2.129   3.259   1.946  0.2675  0.2218  0.3312
 2840Sol     HW14120   2.071   3.241   1.872  1.4012  3.0223 -1.3244
 2840Sol     HW14121   2.079   3.316   2.003  0.6287  0.9682 -0.0833
 2840Sol     MW14122   2.120   3.262   1.944  0.0436 -0.5352  0.1496
 2841Sol     OW14123   2.050   1.986   8.816 -0.3741  0.4271 -0.0261
 2841Sol     HW14124   2.012   2.009   8.901  0.5854 -1.2417  0.8713
 2841Sol     HW14125   2.129   1.936   8.837 -1.1541 -1.7059 -1.8834
 2841Sol     MW14126   2.053   1.984   8.825 -0.3015  0.2090  0.0895
 2842Sol     OW14127   0.651   3.179   8.580 -0.8082  0.1677 -0.3386
 2842Sol     HW14128   0.601   3.260   8.574 -0.1394  0.4981 -1.6673
 2842Sol     HW14129   0.738   3.202   8.547  0.3055 -0.3447  2.0995
 2842Sol     MW14130   0.654   3.188   8.576 -0.5756  0.3841 -0.5859
 2843Sol     OW14131   0.165   2.013   5.615  0.4287 -0.2071  0.7613
 2843Sol     HW14132   0.137   1.922   5.621 -2.4350  0.5784  0.1743
 2843Sol     HW14133   0.126   2.056   5.691  1.5481  0.5898  0.9025
 2843Sol     MW14134   0.159   2.009   5.622 -0.2314  0.3446 -0.4130
 2844Sol     OW14135   1.470   0.519   7.295  0.9309 -1.0707 -0.7963
 2844Sol     HW14136   1.494   0.560   7.378 -0.6852  1.2846 -1.4508
 2844Sol     HW14137   1.387   0.475   7.313  0.5668 -0.5388 -1.1387
 2844Sol     MW14138   1.465   0.519   7.304  0.1700 -0.4935 -0.2477
 2845Sol     OW14139   0.865   1.135   7.294 -0.2044 -0.2490 -0.3317
 2845Sol     HW14140   0.859   1.229   7.308  0.1595 -0.2669 -0.0412
 2845Sol     HW14141   0.840   1.122   7.203 -1.8122 -0.0422  0.0621
 2845Sol     MW14142   0.863   1.142   7.287  0.7928 -0.5196  0.0399
 2846Sol     OW14143   1.921   2.506   5.805 -0.6592 -0.1742  0.0913
 2846Sol     HW14144   1.883   2.439   5.747 -1.0172 -0.3972  0.5812
 2846Sol     HW14145   1.899   2.476   5.893 -0.5534  0.4329  0.3224
 2846Sol     MW14146   1.916   2.497   5.808  0.2440 -0.1695  0.1576
 2847Sol     OW14147   2.968   2.305   6.418  0.3100  0.1189  0.3216
 2847Sol     HW14148   2.916   2.302   6.499  0.0486  2.2579  0.2599
 2847Sol     HW14149   2.904   2.322   6.350  0.7732  0.1815 -0.0959
 2847Sol     MW14150   2.957   2.307   6.420  0.3560 -0.0262  0.2351
 2848Sol     OW14151   2.783   2.687   9.708 -0.4555 -0.0405 -0.3547
 2848Sol     HW14152   2.733   2.606   9.717  0.5582 -0.9688 -2.5908
 2848Sol     HW14153   2.874   2.660   9.717 -0.1920  1.1309  0.5542
 2848Sol     MW14154   2.787   2.678   9.710 -0.0684  0.3608 -0.5267
 2849Sol     OW14155   2.756   0.879   5.707 -0.1761  0.0433 -0.2247
 2849Sol     HW14156   2.754   0.914   5.618 -1.6980  1.3824  0.3034
 2849Sol     HW14157   2.789   0.951   5.760 -1.1425 -0.0785  0.5586
 2849Sol     MW14158   2.759   0.889   5.704  0.6158 -0.1215 -0.4158
 2850Sol     OW14159   2.379   2.329   3.960 -0.2163  0.2105 -0.3676
 2850Sol     HW14160   2.287   2.328   3.932 -0.2384 -1.5215 -0.2704
 2850Sol     HW14161   2.382   2.272   4.037  1.1826 -0.8767 -1.2019
 2850Sol     MW14162   2.371   2.324   3.964  0.2178  0.5932  0.4652
 2851Sol     OW14163   3.048   1.396   6.886 -0.5129  0.1262  0.3667
 2851Sol     HW14164   3.085   1.326   6.940 -0.4573 -0.4949 -0.4819
 2851Sol     HW14165   3.117   1.419   6.824 -0.8613  0.2965  0.0400
 2851Sol     MW14166   3.057   1.392   6.886  0.2542  0.3385 -0.7907
 2852Sol     OW14167   1.693   3.265   5.659  0.0337 -0.1775 -0.8446
 2852Sol     HW14168   1.766   3.202   5.661 -0.1084 -0.3505 -1.2251
 2852Sol     HW14169   1.725   3.337   5.604  0.1864  0.0743 -0.4301
 2852Sol     MW14170   1.703   3.266   5.654 -1.0119 -0.2827  0.3723
 2853Sol     OW14171   2.592   3.171   5.188 -0.0734 -0.1901 -0.8249
 2853Sol     HW14172   2.656   3.162   5.259  0.5710 -1.6904 -1.5893
 2853Sol     HW14173   2.533   3.241   5.218  2.1998  1.5806 -0.3303
 2853Sol     MW14174   2.592   3.177   5.197 -0.1273  0.2536  0.5824
 2854Sol     OW14175   1.608   0.328   5.923 -0.2266  0.3191 -0.1650
 2854Sol     HW14176   1.603   0.332   5.828  3.0354  0.5673 -0.3793
 2854Sol     HW14177   1.564   0.408   5.953 -1.4567  0.1306 -1.4274
 2854Sol     MW14178   1.604   0.335   5.917 -0.0820 -0.1256 -0.7766
 2855Sol     OW14179   1.271   3.376   2.300 -0.3100 -0.0483 -0.2813
 2855Sol     HW14180   1.342   3.331   2.345 -0.0073 -0.0314 -0.7379
 2855Sol     HW14181   1.191   3.336   2.335 -0.0497 -0.8228 -0.5522
 2855Sol     MW14182   1.270   3.368   2.307 -0.7223  0.2821 -0.3975
 2856Sol     OW14183   2.302   0.896   7.826 -0.4898 -0.5351  0.4951
 2856Sol     HW14184   2.345   0.866   7.906 -1.0646  0.3405  1.1400
 2856Sol     HW14185   2.258   0.818   7.791 -0.8363 -0.7538  1.4208
 2856Sol     MW14186   2.302   0.886   7.830 -0.0499  0.5247 -0.7608
 2857Sol     OW14187   1.137   0.372   5.045  0.3299  0.4141 -0.2012
 2857Sol     HW14188   1.173   0.373   4.957 -0.1380  1.3489 -0.3791
 2857Sol     HW14189   1.043   0.363   5.032  0.4149 -1.4380  0.2508
 2857Sol     MW14190   1.132   0.371   5.036  0.7645 -1.1365 -0.0186
 2858Sol     OW14191   2.246   1.682   8.079 -0.3710 -0.1823  0.1604
 2858Sol     HW14192   2.276   1.732   8.003 -1.8405 -0.5118 -0.6668
 2858Sol     HW14193   2.267   1.736   8.155  1.7705 -0.1724 -0.4299
 2858Sol     MW14194   2.250   1.691   8.079  0.3566 -0.7745 -0.7959
 2859Sol     OW14195   1.211   2.559   3.839 -0.1464  0.5772  0.3758
 2859Sol     HW14196   1.120   2.549   3.811 -0.2288 -0.1109  0.8914
 2859Sol     HW14197   1.259   2.492   3.790 -0.0934  0.2046  0.9341
 2859Sol     MW14198   1.207   2.552   3.832 -0.6505  0.1153 -0.1876
 2860Sol     OW14199   1.350   1.352   5.697 -0.1954  0.1234  0.3357
 2860Sol     HW14200   1.426   1.305   5.663 -0.0571 -1.1132  2.2403
 2860Sol     HW14201   1.282   1.285   5.705 -1.5007  1.2100 -1.2972
 2860Sol     MW14202   1.351   1.342   5.695 -1.2685 -0.1015 -0.4308
 2861Sol     OW14203   2.512   2.234   6.055 -0.0360 -0.6322 -0.1371
 2861Sol     HW14204   2.506   2.230   5.960 -0.3115 -0.8670 -0.1084
 2861Sol     HW14205   2.475   2.151   6.086 -1.2758  0.0549  0.2357
 2861Sol     MW14206   2.508   2.226   6.050  0.0082  0.3946  0.2504
 2862Sol     OW14207   0.993   3.350   6.411  0.1032 -0.3357 -0.1038
 2862Sol     HW14208   0.946   3.431   6.390 -0.2721 -0.5615 -0.1493
 2862Sol     HW14209   1.025   3.364   6.500  0.4290  0.0403 -0.2785
 2862Sol     MW14210   0.992   3.359   6.418  0.0286 -0.0158  0.2293
 2863Sol     OW14211   2.792   0.510   9.357  0.4892  0.9786  0.0845
 2863Sol     HW14212   2.782   0.535   9.449 -4.4175  1.0929 -0.3167
 2863Sol     HW14213   2.786   0.415   9.357 -0.0284  1.0060 -0.1240
 2863Sol     MW14214   2.790   0.504   9.365 -0.3646 -0.0513  0.1374
 2864Sol     OW14215   0.470   3.221   5.163  0.3456  0.2373 -0.4723
 2864Sol     HW14216   0.451   3.176   5.245  0.3287 -0.5594 -0.9080
 2864Sol     HW14217   0.491   3.311   5.189  0.7968 -0.1271  0.4493
 2864Sol     MW14218   0.470   3.225   5.172 -0.3927  0.0570  0.4495
 2865Sol     OW14219   0.711   2.695   5.944  0.2299  0.0846 -0.3002
 2865Sol     HW14220   0.796   2.695   5.901  0.0808 -2.6996 -0.7252
 2865Sol     HW14221   0.649   2.668   5.875 -0.8606  1.0902  0.2567
 2865Sol     MW14222   0.713   2.692   5.934 -0.0478 -0.4337 -0.4036
 2866Sol     OW14223   1.678   1.320   6.992  0.0523 -0.1857  0.5333
 2866Sol     HW14224   1.590   1.283   6.998  0.3600 -0.8298  1.0949
 2866Sol     HW14225   1.692   1.331   6.898 -0.3076 -0.8484  0.3980
 2866Sol     MW14226   1.671   1.318   6.984 -0.4296 -0.0419  0.5429
 2867Sol     OW14227   0.100   0.323   3.845 -0.6870  0.3669 -0.1034
 2867Sol     HW14228   0.010   0.321   3.877 -1.0671  0.5720 -1.1481
 2867Sol     HW14229   0.144   0.386   3.902 -1.3452  0.6971  0.0386
 2867Sol     MW14230   0.096   0.328   3.853 -0.5133 -0.2839  0.0940
 2868Sol     OW14231   0.767   0.022   5.234  0.0361 -0.2915 -0.3023
 2868Sol     HW14232   0.781  -0.058   5.284  1.2050  0.7072  1.0145
 2868Sol     HW14233   0.834   0.019   5.165 -1.0389 -1.2651 -1.3253
 2868Sol     MW14234   0.775   0.015   5.232  0.1716  0.4818 -0.1349
 2869Sol     OW14235   1.841   1.653   6.957  0.0899  0.3857 -0.1490
 2869Sol     HW14236   1.841   1.701   7.040  2.7312  1.4169 -0.6852
 2869Sol     HW14237   1.751   1.624   6.946 -0.6260  1.5076  2.3506
 2869Sol     MW14238   1.833   1.655   6.964 -0.0568  0.2114  0.4733
 2870Sol     OW14239   1.775   0.621   4.636  0.5805 -0.8133 -0.5366
 2870Sol     HW14240   1.730   0.555   4.583 -0.3334  0.5646 -1.5394
 2870Sol     HW14241   1.734   0.704   4.610  0.3197 -0.0694  2.1477
 2870Sol     MW14242   1.767   0.622   4.629  0.7039  0.5711 -0.3642
 2871Sol     OW14243   1.813   0.016   7.552 -0.0615  0.4297  0.2040
 2871Sol     HW14244   1.756   0.076   7.601 -1.9141 -0.3541 -0.9311
 2871Sol     HW14245   1.805   0.046   7.461  2.2781  1.0286  0.1782
 2871Sol     MW14246   1.807   0.024   7.548  0.7664 -0.2145  0.0901
 2872Sol     OW14247   1.085   1.745   3.907 -0.6823  0.2915  0.0224
 2872Sol     HW14248   1.131   1.671   3.947 -1.8361 -0.9896 -0.9855
 2872Sol     HW14249   1.129   1.822   3.943 -0.2935 -0.8532  2.0968
 2872Sol     MW14250   1.093   1.745   3.914 -0.3909  0.3557 -0.1474
 2873Sol     OW14251   2.754   0.987   3.539 -0.1534 -0.3610  0.2949
 2873Sol     HW14252   2.772   1.074   3.502  2.2901 -1.5209 -1.3790
 2873Sol     HW14253   2.731   1.005   3.630 -2.7093  2.2598 -0.7714
 2873Sol     MW14254   2.754   0.997   3.544 -0.5202  0.8184 -0.0587
 2874Sol     OW14255   0.175   1.348   4.103 -0.2794 -0.3602 -0.0886
 2874Sol     HW14256   0.216   1.356   4.017  1.1582  0.7239  0.6862
 2874Sol     HW14257   0.092   1.393   4.094 -1.1700 -2.2217 -1.5597
 2874Sol     MW14258   0.172   1.352   4.094 -0.1312  0.2490 -0.0961
 2875Sol     OW14259   1.508   2.064   5.738  0.8341 -0.0609  0.0266
 2875Sol     HW14260   1.592   2.077   5.780 -0.1533 -0.2081  2.0961
 2875Sol     HW14261   1.472   1.985   5.779 -0.5590  0.3308 -0.4194
 2875Sol     MW14262   1.512   2.058   5.745  0.3487  0.1390 -0.6145
 2876Sol     OW14263   0.414   1.837   7.228  0.5375 -0.1518  0.1320
 2876Sol     HW14264   0.456   1.820   7.144  1.7058 -0.8284  0.8270
 2876Sol     HW14265   0.350   1.766   7.238 -0.6011  0.7322 -0.8123
 2876Sol     MW14266   0.412   1.829   7.222 -0.0785  0.2523  0.1025
 2877Sol     OW14267   2.122   0.323   6.709 -0.2914  0.2491 -0.1867
 2877Sol     HW14268   2.094   0.320   6.618 -2.0177  0.1020  0.3400
 2877Sol     HW14269   2.163   0.409   6.719  1.5154 -0.4205 -1.5438
 2877Sol     MW14270   2.124   0.330   6.702  0.2202 -0.1294  0.1721
 2878Sol     OW14271   2.341   1.908   8.265  0.1070 -0.1418 -0.8889
 2878Sol     HW14272   2.400   1.984   8.257 -0.2277  0.2227 -0.0093
 2878Sol     HW14273   2.266   1.942   8.314 -0.2274 -0.9403 -0.8534
 2878Sol     MW14274   2.340   1.918   8.269  0.0793  0.2421 -0.3015
 2879Sol     OW14275   0.755   0.763   3.332  0.3759 -0.0709  0.2981
 2879Sol     HW14276   0.825   0.782   3.395  0.1304 -0.6783  0.7568
 2879Sol     HW14277   0.791   0.793   3.248  0.3377  1.6152  0.8501
 2879Sol     MW14278   0.765   0.768   3.331  0.3382 -0.1174 -0.5100
 2880Sol     OW14279   2.768   1.230   7.720 -0.7108 -0.4427  0.4010
 2880Sol     HW14280   2.702   1.175   7.763 -1.9139 -0.1986 -1.0905
 2880Sol     HW14281   2.808   1.278   7.792 -0.8918 -1.9256  1.5380
 2880Sol     MW14282   2.765   1.229   7.730 -0.3809 -0.3290 -0.0688
 2881Sol     OW14283   0.503   1.750   8.562 -0.1817  0.2368 -0.4120
 2881Sol     HW14284   0.566   1.768   8.492 -0.8276 -1.5231 -1.4826
 2881Sol     HW14285   0.496   1.655   8.564  0.1077  0.2283  2.3329
 2881Sol     MW14286   0.508   1.743   8.556 -0.1439  0.2943  0.0706
 2882Sol     OW14287   2.081   3.391   7.550  0.0037  0.0845  0.4036
 2882Sol     HW14288   2.094   3.334   7.474  2.1690 -0.5828  1.2325
 2882Sol     HW14289   1.987   3.406   7.552 -0.2243 -0.8071 -1.7468
 2882Sol     MW14290   2.074   3.387   7.544 -0.5607  0.1517  0.4677
 2883Sol     OW14291   1.157   0.350   2.653  0.0070  0.3569 -0.0534
 2883Sol     HW14292   1.064   0.325   2.657  0.1299 -0.0788  0.1900
 2883Sol     HW14293   1.199   0.291   2.716  0.2900  1.2919  0.6385
 2883Sol     MW14294   1.152   0.342   2.659  0.1080 -0.7015 -0.0045
 2884Sol     OW14295   1.593   1.579   6.936 -0.3465  0.0231 -0.2146
 2884Sol     HW14296   1.567   1.546   6.850 -1.9046  0.0323  0.2367
 2884Sol     HW14297   1.598   1.501   6.991  1.1949 -0.0446 -0.4448
 2884Sol     MW14298   1.591   1.569   6.933 -0.0016 -0.1692  0.5862
 2885Sol     OW14299   1.105   3.354   3.090  0.2821  0.4939 -1.0057
 2885Sol     HW14300   1.125   3.447   3.090  0.9170  0.3794  0.7960
 2885Sol     HW14301   1.019   3.347   3.132  0.6096  0.2206 -0.3627
 2885Sol     MW14302   1.099   3.361   3.094 -0.3220  0.1003 -0.3058
 2886Sol     OW14303   1.770   1.266  10.614 -0.2966 -0.3450  0.1115
 2886Sol     HW14304   1.770   1.173  10.591  0.0206 -0.0565 -1.0785
 2886Sol     HW14305   1.733   1.310  10.538 -1.4404  0.4156  1.0843
 2886Sol     MW14306   1.766   1.261  10.605  0.0547  0.7965  0.1668
 2887Sol     OW14307   2.110   2.347   8.525 -0.0963  0.0159  0.4153
 2887Sol     HW14308   2.149   2.261   8.512 -2.0731 -0.5630 -1.9531
 2887Sol     HW14309   2.141   2.398   8.450 -1.3489  0.4692  0.2033
 2887Sol     MW14310   2.116   2.344   8.517  0.0573 -0.2936 -0.1570
 2888Sol     OW14311   1.627   3.300   3.093 -0.7152  0.0316 -0.3256
 2888Sol     HW14312   1.599   3.332   3.007  2.0585  1.0672 -0.8811
 2888Sol     HW14313   1.720   3.319   3.097 -0.6658 -0.5537  2.6999
 2888Sol     MW14314   1.633   3.304   3.086 -0.1497  0.7694 -0.0280
 2889Sol     OW14315   2.164   2.560   5.031  0.2274  0.2029  0.8186
 2889Sol     HW14316   2.181   2.599   5.117  1.7367 -0.3294  0.7705
 2889Sol     HW14317   2.219   2.610   4.971 -0.0404 -0.1027  0.3174
 2889Sol     MW14318   2.170   2.568   5.034 -0.1005  0.1612 -0.1756
 2890Sol     OW14319   1.995   3.188   4.362 -0.7154  0.2453 -0.6253
 2890Sol     HW14320   2.024   3.229   4.281 -0.2436  0.2874 -0.4358
 2890Sol     HW14321   2.011   3.254   4.429  0.5301 -0.4325 -0.2419
 2890Sol     MW14322   1.999   3.198   4.361 -0.2046  0.1396  0.5105
 2891Sol     OW14323   0.847   0.555   2.851  0.0151 -0.2116 -0.4483
 2891Sol     HW14324   0.758   0.561   2.815 -0.9262 -0.8369  1.7272
 2891Sol     HW14325   0.882   0.475   2.811 -0.4291 -0.0261 -1.2381
 2891Sol     MW14326   0.842   0.548   2.844 -0.7512  0.0538 -0.1342
 2892Sol     OW14327   1.045   1.033  10.101  0.1393 -0.1322  0.0803
 2892Sol     HW14328   0.996   1.114  10.117  1.0780  0.3255  0.7120
 2892Sol     HW14329   1.010   0.999  10.019 -0.6181  0.6490  0.0735
 2892Sol     MW14330   1.037   1.038  10.095 -0.0451  0.0348 -0.0820
 2893Sol     OW14331   1.158   2.811   6.179  0.0028  0.3811  0.1952
 2893Sol     HW14332   1.221   2.879   6.201  0.9616 -0.9855  1.7733
 2893Sol     HW14333   1.082   2.859   6.145  0.9368  2.1844  0.5961
 2893Sol     MW14334   1.157   2.821   6.178  0.1451 -0.5141  0.0486
 2894Sol     OW14335   1.496   0.822   8.554  0.1160  0.2028 -0.4125
 2894Sol     HW14336   1.524   0.900   8.506 -0.3987 -0.1723 -1.3151
 2894Sol     HW14337   1.523   0.839   8.644 -0.1974  1.5211 -0.5637
 2894Sol     MW14338   1.501   0.830   8.558 -0.5112 -0.8319  0.4680
 2895Sol     OW14339   1.217   2.000   7.203 -0.8636 -0.3897 -0.3057
 2895Sol     HW14340   1.306   2.037   7.199 -0.4384 -1.4555 -0.7855
 2895Sol     HW14341   1.213   1.956   7.287 -1.1863  0.2811  0.0308
 2895Sol     MW14342   1.225   2.000   7.210  0.2034 -0.0694 -0.2500
 2896Sol     OW14343   2.311   2.962   9.202 -0.5654 -0.7517  0.0275
 2896Sol     HW14344   2.240   2.898   9.206 -1.6537  0.3596 -1.2169
 2896Sol     HW14345   2.273   3.038   9.159  1.6024 -0.4500 -1.4317
 2896Sol     MW14346   2.301   2.963   9.199  0.1739  0.4389 -0.8123
 2897Sol     OW14347   0.261   3.373   2.179 -0.6435 -1.0213 -0.5471
 2897Sol     HW14348   0.205   3.296   2.181 -0.7322 -0.9851 -1.5565
 2897Sol     HW14349   0.336   3.347   2.125 -1.1310 -0.0908 -1.6861
 2897Sol     MW14350   0.263   3.364   2.174  0.3867 -0.6459  0.1271
 2898Sol     OW14351   0.346   1.125   8.676 -0.8016  0.1029 -0.2075
 2898Sol     HW14352   0.267   1.070   8.680 -2.2341  2.0532 -0.9284
 2898Sol     HW14353   0.327   1.198   8.735  0.9956 -0.0220  0.5619
 2898Sol     MW14354   0.337   1.127   8.682 -0.0192  0.2452  0.7914
 2899Sol     OW14355   0.127   1.353   2.295 -0.3928 -0.6461  0.2400
 2899Sol     HW14356   0.157   1.436   2.332 -0.3611 -1.1210  1.3113
 2899Sol     HW14357   0.042   1.373   2.256 -0.7355 -0.2620  1.1574
 2899Sol     MW14358   0.122   1.362   2.295 -0.0612 -0.3945  0.9406
 2900Sol     OW14359   1.393   0.018   4.575 -0.9656  0.0693  0.1848
 2900Sol     HW14360   1.444   0.098   4.566 -0.0035 -0.5120  0.3678
 2900Sol     HW14361   1.374  -0.009   4.486 -0.7499  0.1654  0.1101
 2900Sol     MW14362   1.396   0.022   4.567 -0.4331  0.8029  0.1126
 2901Sol     OW14363   0.072   2.739   9.574  0.5562  0.6554  0.1559
 2901Sol     HW14364   0.028   2.684   9.638 -0.4021  0.8421 -0.3413
 2901Sol     HW14365   0.145   2.685   9.542 -1.1440 -0.8294 -1.2995
 2901Sol     MW14366   0.075   2.729   9.577  0.0134 -0.1378 -0.6474
 2902Sol     OW14367   1.586   0.862   5.710  0.1924 -0.3530 -0.0302
 2902Sol     HW14368   1.628   0.779   5.735 -0.1369 -0.6368 -0.4099
 2902Sol     HW14369   1.528   0.883   5.783  0.7621 -0.1246  0.3558
 2902Sol     MW14370   1.585   0.856   5.719 -0.1373  0.4794  0.3644
 2903Sol     OW14371   1.690   3.368   2.812 -0.4102  0.4405 -0.0498
 2903Sol     HW14372   1.713   3.459   2.793  1.2796  0.0616  0.1034
 2903Sol     HW14373   1.719   3.319   2.735 -1.3972  0.0239 -0.1717
 2903Sol     MW14374   1.694   3.372   2.803  0.0142  0.1166 -0.2022
 2904Sol     OW14375   0.552   1.645   3.427  0.0426 -0.4804  0.2368
 2904Sol     HW14376   0.574   1.617   3.338  1.5609 -0.9435  0.7313
 2904Sol     HW14377   0.548   1.740   3.422  1.3089 -0.4336 -0.0868
 2904Sol     MW14378   0.554   1.651   3.418  0.3167  0.1483 -0.2319
 2905Sol     OW14379   0.625   2.699   1.905  0.4511 -0.7477  0.0674
 2905Sol     HW14380   0.618   2.662   1.817 -0.4431 -2.8876  0.9805
 2905Sol     HW14381   0.652   2.625   1.960  0.7143  0.4783  1.6455
 2905Sol     MW14382   0.627   2.689   1.902 -0.3436 -0.2887  0.2375
 2906Sol     OW14383   2.119   0.329  10.435 -0.3002 -0.2451 -0.3707
 2906Sol     HW14384   2.211   0.306  10.432 -0.4761 -1.0192  0.1423
 2906Sol     HW14385   2.115   0.419  10.400  0.5500 -0.4626 -1.0216
 2906Sol     MW14386   2.127   0.335  10.431 -0.2678  0.1437 -0.3510
 2907Sol     OW14387   1.355   0.594   6.197  0.2594 -0.5322 -0.4453
 2907Sol     HW14388   1.420   0.529   6.226 -0.6487 -0.4344  1.8539
 2907Sol     HW14389   1.289   0.542   6.151  0.8992 -0.8808 -0.9937
 2907Sol     MW14390   1.355   0.583   6.195 -0.0635 -0.1414 -0.0745
 2908Sol     OW14391   0.760   2.905   2.943  0.2449 -0.2273 -0.2134
 2908Sol     HW14392   0.742   2.997   2.926 -1.2070 -0.7762 -1.8003
 2908Sol     HW14393   0.758   2.897   3.038 -0.3293  1.2375 -0.0978
 2908Sol     MW14394   0.758   2.912   2.950 -0.2490 -0.1261  0.5887
 2909Sol     OW14395   0.623   2.526   8.901  0.1774  0.3109 -0.0054
 2909Sol     HW14396   0.670   2.587   8.845 -0.9029 -1.9551 -3.5344
 2909Sol     HW14397   0.536   2.518   8.862 -0.2482 -2.1717  1.3200
 2909Sol     MW14398   0.620   2.531   8.892 -0.0314 -0.0009 -0.6425
 2910Sol     OW14399   0.631   0.444   8.926 -0.5644 -0.3700  0.1492
 2910Sol     HW14400   0.623   0.535   8.898 -2.0515 -0.6790 -0.4585
 2910Sol     HW14401   0.684   0.447   9.006 -2.1894  1.1980  1.1775
 2910Sol     MW14402   0.635   0.452   8.930  0.0867  0.3282  0.0239
 2911Sol     OW14403   2.156   1.254   2.034 -0.1415 -0.0599 -0.0390
 2911Sol     HW14404   2.076   1.304   2.022  0.3892  0.3390 -2.0630
 2911Sol     HW14405   2.177   1.263   2.127 -1.6311  1.0518  0.1951
 2911Sol     MW14406   2.151   1.259   2.042  0.9066 -0.3282 -0.0631
 2912Sol     OW14407   0.316   0.977   8.040 -0.3237  0.2350 -0.0145
 2912Sol     HW14408   0.299   0.886   8.063 -0.3877  0.2161 -0.1407
 2912Sol     HW14409   0.356   0.974   7.953 -2.1376  0.4545 -0.8777
 2912Sol     MW14410   0.318   0.969   8.035  0.0527 -0.5340 -0.1996
 2913Sol     OW14411   2.233   2.993   4.458 -0.4560  0.4008 -0.2040
 2913Sol     HW14412   2.285   3.057   4.410  0.0831 -0.3909 -0.6933
 2913Sol     HW14413   2.160   3.043   4.495 -0.0275  1.2885 -0.5634
 2913Sol     MW14414   2.231   3.003   4.457 -0.3605 -0.3492  0.0829
 2914Sol     OW14415   2.494   2.691   5.419 -0.0418  0.4316  0.2148
 2914Sol     HW14416   2.543   2.741   5.485  0.5749 -1.5074  1.2681
 2914Sol     HW14417   2.540   2.607   5.415 -1.6819 -0.4212 -0.7651
 2914Sol     MW14418   2.503   2.688   5.425 -0.0567  0.0704 -0.1202
 2915Sol     OW14419   1.965   1.328   2.929  0.2832  0.2298 -0.2015
 2915Sol     HW14420   2.010   1.326   3.014 -1.2702  1.0034  0.6538
 2915Sol     HW14421   1.877   1.360   2.949  0.1216  1.0958 -2.2081
 2915Sol     MW14422   1.962   1.331   2.938  0.1017  0.3207  0.4243
 2916Sol     OW14423   1.254   0.726   6.434  0.2534 -0.6377 -0.2332
 2916Sol     HW14424   1.268   0.810   6.390 -0.8375 -0.8844 -1.0688
 2916Sol     HW14425   1.265   0.661   6.365 -1.3639 -1.0349 -0.1208
 2916Sol     MW14426   1.257   0.728   6.424  0.1162 -0.1209  0.5621
 2917Sol     OW14427   2.713   0.271   9.628  0.3110 -0.2937  0.3423
 2917Sol     HW14428   2.756   0.245   9.547 -0.0509 -0.7831  0.3008
 2917Sol     HW14429   2.734   0.200   9.689 -1.3576 -1.0998  0.0049
 2917Sol     MW14430   2.719   0.262   9.627 -0.0318 -0.7405  0.5121
 2918Sol     OW14431   2.716   1.720   3.212 -0.2693 -0.9761 -0.1923
 2918Sol     HW14432   2.657   1.746   3.283 -0.8051  0.5317 -1.1788
 2918Sol     HW14433   2.739   1.801   3.168  1.1897 -1.7474 -0.8983
 2918Sol     MW14434   2.713   1.729   3.215  0.4996 -0.7375  0.7722
 2919Sol     OW14435   2.483   0.773   1.862  0.4376  0.0052  0.2121
 2919Sol     HW14436   2.568   0.811   1.884  1.8082 -0.2428 -4.1418
 2919Sol     HW14437   2.436   0.844   1.817  0.9067 -1.6596 -3.0945
 2919Sol     MW14438   2.486   0.783   1.860 -0.0318 -0.5970 -0.5600
 2920Sol     OW14439   1.983   0.731   2.117  0.1485 -0.4888 -0.6334
 2920Sol     HW14440   2.041   0.778   2.178 -1.8898  0.8526  0.3310
 2920Sol     HW14441   2.027   0.738   2.032  1.1477  0.9700 -0.0166
 2920Sol     MW14442   1.992   0.736   2.115  0.5135  0.1350  0.4063
 2921Sol     OW14443   1.974   1.898   6.821 -0.0760  0.2633 -0.1654
 2921Sol     HW14444   1.945   1.812   6.852 -1.8028  0.2133 -1.8287
 2921Sol     HW14445   2.067   1.885   6.799  0.2486 -0.5817  1.6581
 2921Sol     MW14446   1.980   1.889   6.821  0.2929 -0.7332  0.5086
 2922Sol     OW14447   1.780   0.179   8.371  0.7999  0.1047  0.1500
 2922Sol     HW14448   1.821   0.219   8.294  1.1664 -1.1062 -0.2980
 2922Sol     HW14449   1.828   0.215   8.446  0.9992  0.6358 -0.2340
 2922Sol     MW14450   1.788   0.186   8.371  0.4085 -0.2483  0.1558
 2923Sol     OW14451   0.573   0.771   5.991  0.1586  0.1718  0.5447
 2923Sol     HW14452   0.489   0.755   6.034 -0.5376 -0.9074 -1.1838
 2923Sol     HW14453   0.572   0.865   5.973 -0.2664  0.3361  1.3605
 2923Sol     MW14454   0.565   0.778   5.993 -0.4043  0.1819  0.0565
 2924Sol     OW14455   0.443   1.656   2.875 -0.4574 -0.3990 -0.6312
 2924Sol     HW14456   0.484   1.742   2.869  0.0921 -0.8208 -3.5154
 2924Sol     HW14457   0.439   1.638   2.969  0.9235  2.0325 -0.0671
 2924Sol     MW14458   0.446   1.662   2.883  0.3042  0.6609  1.2293
 2925Sol     OW14459   2.171   1.174   4.107  0.2861  0.1234 -0.5558
 2925Sol     HW14460   2.083   1.178   4.143  0.6698  1.0702  0.2933
 2925Sol     HW14461   2.188   1.080   4.097  0.5320 -0.2608  2.6953
 2925Sol     MW14462   2.165   1.166   4.110 -0.2688 -0.7415 -0.9934
 2926Sol     OW14463   1.532   0.215   2.815  0.3525 -0.2849  0.9404
 2926Sol     HW14464   1.605   0.224   2.877  0.1805  1.9608  0.8854
 2926Sol     HW14465   1.566   0.255   2.734 -1.1800  1.4742  1.1394
 2926Sol     MW14466   1.542   0.220   2.813  0.5404 -0.3339 -0.4449
 2927Sol     OW14467   1.257   1.447   2.060  0.3098 -0.2662 -0.0108
 2927Sol     HW14468   1.261   1.388   2.135  1.2725 -0.7303 -0.4149
 2927Sol     HW14469   1.348   1.473   2.045 -0.0056  0.6791 -0.3507
 2927Sol     MW14470   1.265   1.444   2.065 -0.2329  0.3350  0.3290
 2928Sol     OW14471   1.993   3.283   9.904  0.0587 -0.6488 -0.7842
 2928Sol     HW14472   1.956   3.224   9.970 -2.1000  2.8996  1.3674
 2928Sol     HW14473   1.923   3.293   9.839 -0.6444  1.5609  0.2694
 2928Sol     MW14474   1.983   3.279   9.904 -0.7668  0.4667  0.2089
 2929Sol     OW14475   1.991   0.017  10.214  0.0626  0.2414  0.1308
 2929Sol     HW14476   2.015   0.023  10.306 -3.4858 -0.7011  1.1895
 2929Sol     HW14477   1.912   0.071  10.206  0.3298  0.3379 -2.3802
 2929Sol     MW14478   1.986   0.022  10.221  0.2877 -0.1874  0.5169
 2930Sol     OW14479   2.324   0.255   4.654  0.4891 -0.2732 -0.0092
 2930Sol     HW14480   2.363   0.337   4.622 -1.9323  2.0084  2.6151
 2930Sol     HW14481   2.263   0.229   4.585 -0.1122  1.1708 -0.0350
 2930Sol     MW14482   2.322   0.260   4.645  0.0046 -0.1128  0.3090
 2931Sol     OW14483   2.654   2.922   3.887 -0.4431  0.3376  0.2588
 2931Sol     HW14484   2.560   2.909   3.898 -0.2068  0.5561  2.6456
 2931Sol     HW14485   2.686   2.838   3.853 -1.3861  0.0636  0.0355
 2931Sol     MW14486   2.649   2.913   3.885  0.0647 -0.5531 -0.1433
 2932Sol     OW14487   1.162   0.554   2.061  0.6311 -0.0811 -0.0643
 2932Sol     HW14488   1.203   0.589   2.140 -0.0482  0.2216  0.1624
 2932Sol     HW14489   1.168   0.625   1.997  0.8532 -0.1950 -0.1705
 2932Sol     MW14490   1.166   0.564   2.063 -0.3875  0.0323  0.5249
 2933Sol     OW14491   1.124   1.290   4.409  0.0577 -0.4819  0.7523
 2933Sol     HW14492   1.107   1.285   4.315 -2.0255 -1.2275  1.1265
 2933Sol     HW14493   1.206   1.337   4.416  0.7307 -1.2501 -1.4792
 2933Sol     MW14494   1.130   1.294   4.401  0.0715  0.2632  0.4071
 2934Sol     OW14495   1.743   1.351   3.180  0.0306 -0.1862 -0.1663
 2934Sol     HW14496   1.660   1.397   3.168  0.3813  0.8035  1.0531
 2934Sol     HW14497   1.799   1.414   3.225  1.8122 -0.4621 -1.9484
 2934Sol     MW14498   1.741   1.361   3.183 -0.3409 -0.3482  0.0563
 2935Sol     OW14499   0.300   1.007   5.719  0.1917 -0.0364 -0.1151
 2935Sol     HW14500   0.375   0.949   5.710 -0.3442 -0.8140  0.4667
 2935Sol     HW14501   0.231   0.966   5.667 -0.7317 -0.8647  1.7077
 2935Sol     MW14502   0.301   0.999   5.714  0.3173  1.1669  0.1946
 2936Sol     OW14503   0.405   2.425  10.196 -0.4455  0.0267 -0.4297
 2936Sol     HW14504   0.327   2.474  10.169  0.5759  1.4488 -0.8662
 2936Sol     HW14505   0.464   2.431  10.122  0.6861  0.2605  0.4752
 2936Sol     MW14506   0.403   2.430  10.187 -0.2124 -0.0020 -0.0699
 2937Sol     OW14507   2.750   1.955   3.708  0.6912 -0.3554  0.6614
 2937Sol     HW14508   2.754   1.885   3.643  2.1296 -0.5492  0.9310
 2937Sol     HW14509   2.837   1.993   3.707 -0.9109  3.5072 -1.6697
 2937Sol     MW14510   2.758   1.952   3.702  0.3229 -0.1394  0.3535
 2938Sol     OW14511   0.953   1.641  10.110  0.6472 -0.0401 -0.2978
 2938Sol     HW14512   0.871   1.682  10.137 -0.2120 -0.7463 -1.7613
 2938Sol     HW14513   0.927   1.573  10.049  2.1473 -1.9265  1.0822
 2938Sol     MW14514   0.944   1.638  10.107  0.4579  0.2178  0.2179
 2939Sol     OW14515   2.083   0.239   7.665  0.1544 -0.1683 -0.3061
 2939Sol     HW14516   2.053   0.312   7.612  0.0952 -0.2113 -0.3319
 2939Sol     HW14517   2.055   0.161   7.616  0.1920 -0.2077 -0.2646
 2939Sol     MW14518   2.078   0.238   7.656  0.5712  0.4599 -0.2655
 2940Sol     OW14519   0.327   1.343   2.737 -0.2052  0.2689 -0.8076
 2940Sol     HW14520   0.240   1.371   2.708 -0.6805  0.0158  0.3330
 2940Sol     HW14521   0.318   1.249   2.752  0.2386  0.2614 -0.5780
 2940Sol     MW14522   0.318   1.337   2.736  0.1315 -1.0752 -0.1262
 2941Sol     OW14523   1.191   0.650   8.414 -0.2343  0.4154 -0.3572
 2941Sol     HW14524   1.235   0.712   8.472 -0.3484  1.6116 -1.5005
 2941Sol     HW14525   1.129   0.705   8.365 -0.8362 -0.7349 -0.8893
 2941Sol     MW14526   1.189   0.661   8.414  0.1897  0.2856  0.1135
 2942Sol     OW14527   2.167   0.057   1.436  0.4546 -0.2564  0.1344
 2942Sol     HW14528   2.195   0.045   1.528  0.0167  0.2439  0.3294
 2942Sol     HW14529   2.243   0.097   1.394  0.6485 -0.4608  0.2794
 2942Sol     MW14530   2.177   0.059   1.441 -0.1850  0.0685 -0.6513
 2943Sol     OW14531   2.245   2.839   2.182 -0.0384 -0.0721  0.6048
 2943Sol     HW14532   2.336   2.811   2.173  0.5475  0.7647  3.3164
 2943Sol     HW14533   2.246   2.932   2.159 -1.0357 -0.9509 -3.3879
 2943Sol     MW14534   2.253   2.845   2.179  0.4579 -0.0135  0.6139
 2944Sol     OW14535   0.606   1.478  10.082 -0.6683  0.2057 -0.5264
 2944Sol     HW14536   0.577   1.390  10.108  0.1656  0.5826  1.7785
 2944Sol     HW14537   0.694   1.465  10.047 -0.2921  0.1840  0.4053
 2944Sol     MW14538   0.611   1.469  10.081 -0.1036  0.5189  0.0613
 2945Sol     OW14539   0.830   2.494   2.539  0.0456 -0.0515  0.0248
 2945Sol     HW14540   0.886   2.571   2.535  0.8182 -0.6791 -1.7117
 2945Sol     HW14541   0.788   2.499   2.625 -0.8288  2.9351 -0.5164
 2945Sol     MW14542   0.831   2.502   2.546 -0.1073  0.4383  0.2542
 2946Sol     OW14543   1.751   1.656  10.151  0.2937  0.3799 -0.3703
 2946Sol     HW14544   1.805   1.734  10.166  2.6928 -1.7591  2.8721
 2946Sol     HW14545   1.668   1.675  10.194  1.0946  0.9127  0.9538
 2946Sol     MW14546   1.748   1.665  10.156 -0.5142 -0.1252 -0.7969
 2947Sol     OW14547   1.046   2.269  10.103 -0.0392 -0.2135  0.2400
 2947Sol     HW14548   1.098   2.340  10.142 -0.8990  0.2409  0.5578
 2947Sol     HW14549   0.982   2.246  10.170 -1.2849  0.3220 -0.7402
 2947Sol     MW14550   1.045   2.274  10.112  0.2034  0.4207  0.0369
 2948Sol     OW14551   2.259   2.129   6.352  0.3866  0.4273  0.0865
 2948Sol     HW14552   2.278   2.105   6.443  1.2928  0.7351 -0.0156
 2948Sol     HW14553   2.326   2.084   6.301 -0.7561 -0.5971 -0.5374
 2948Sol     MW14554   2.267   2.123   6.356 -0.1010 -0.1755 -0.3263
 2949Sol     OW14555   0.684   2.044   8.494 -0.1605  0.3609  0.1733
 2949Sol     HW14556   0.666   2.138   8.493 -1.5262  0.1247  1.1947
 2949Sol     HW14557   0.685   2.019   8.402  2.6687  1.8056 -0.2433
 2949Sol     MW14558   0.682   2.050   8.486 -0.1063 -0.2036  0.2570
 2950Sol     OW14559   0.373   1.618   4.470 -0.5400  0.1415  0.0108
 2950Sol     HW14560   0.302   1.646   4.529  0.0309 -0.7843  1.1606
 2950Sol     HW14561   0.354   1.526   4.452  1.1962 -0.5423  1.5722
 2950Sol     MW14562   0.365   1.612   4.474  0.1216  0.2281 -0.0704
 2951Sol     OW14563   0.650   2.797   4.070 -0.1776  0.2177 -0.5687
 2951Sol     HW14564   0.569   2.756   4.038  0.6933 -1.7994 -0.2505
 2951Sol     HW14565   0.712   2.787   3.998  0.2387  0.4184 -0.2404
 2951Sol     MW14566   0.648   2.793   4.061  0.2185 -0.3258 -0.5289
 2952Sol     OW14567   0.527   1.298   1.796 -0.4920  0.6461  0.1598
 2952Sol     HW14568   0.510   1.207   1.819 -0.7017  1.2230  2.4719
 2952Sol     HW14569   0.622   1.302   1.783  0.1635  0.9047  4.2946
 2952Sol     MW14570   0.534   1.290   1.797  0.0592  0.1684  0.1082
 2953Sol     OW14571   0.446   0.800   5.251 -0.5067  0.0077 -0.3326
 2953Sol     HW14572   0.358   0.794   5.213 -0.2415 -0.2859 -0.9149
 2953Sol     HW14573   0.484   0.879   5.212 -1.7236  2.0480  2.5156
 2953Sol     MW14574   0.441   0.806   5.244  0.3489  0.1845  0.2297
 2954Sol     OW14575   2.242   0.556   4.934  0.1094 -0.2946 -0.1345
 2954Sol     HW14576   2.328   0.516   4.944 -0.8617 -2.4093 -0.0878
 2954Sol     HW14577   2.211   0.570   5.024 -0.2063 -0.9199 -0.1387
 2954Sol     MW14578   2.247   0.554   4.943 -0.1908  0.1332  0.1250
 2955Sol     OW14579   0.689   0.372  10.242  0.3307 -0.2681 -0.2809
 2955Sol     HW14580   0.763   0.372  10.181 -0.4527 -0.8520 -1.2484
 2955Sol     HW14581   0.689   0.459  10.281  1.8269 -0.4273  0.0835
 2955Sol     MW14582   0.696   0.380  10.240  0.7647 -0.4053  0.1304
 2956Sol     OW14583   1.647   2.632   2.506  0.5860  0.1509  0.4511
 2956Sol     HW14584   1.713   2.566   2.528  1.2401  0.8161  0.5250
 2956Sol     HW14585   1.621   2.610   2.416  0.6611 -0.3187  0.5419
 2956Sol     MW14586   1.651   2.624   2.500 -0.4802 -0.2713 -0.4177
 2957Sol     OW14587   0.391   2.494   8.752  0.0422  0.1012  0.3791
 2957Sol     HW14588   0.368   2.509   8.660  2.8802 -2.7264 -0.9294
 2957Sol     HW14589   0.339   2.417   8.777 -0.1361  0.3832  0.8674
 2957Sol     MW14590   0.384   2.488   8.746  0.3216 -0.8078 -0.1058
 2958Sol     OW14591   2.967   0.077   5.386 -0.6751 -0.3560 -0.3669
 2958Sol     HW14592   2.944   0.006   5.326 -2.8673 -0.5787  0.7188
 2958Sol     HW14593   2.933   0.050   5.471  0.1628  1.1325  0.4733
 2958Sol     MW14594   2.962   0.068   5.388 -0.2060  0.0026  0.1792
 2959Sol     OW14595   2.221   1.335  10.431  0.1557 -0.1646  0.2059
 2959Sol     HW14596   2.147   1.371  10.480 -0.5551 -0.7843 -0.3987
 2959Sol     HW14597   2.233   1.395  10.357  0.2316 -0.0874  0.2812
 2959Sol     MW14598   2.216   1.344  10.428 -0.0704 -0.1164 -0.3604
 2960Sol     OW14599   1.344   0.624   9.922 -0.2184 -0.3918  0.1110
 2960Sol     HW14600   1.340   0.568   9.999 -0.2344 -1.3329 -0.5680
 2960Sol     HW14601   1.253   0.651   9.908 -0.6357 -2.3072 -1.0853
 2960Sol     MW14602   1.336   0.621   9.928  0.1652  0.1334  0.2411
 2961Sol     OW14603   3.096   2.787   2.477 -0.2063 -0.7218  0.4071
 2961Sol     HW14604   3.089   2.883   2.478  1.4836 -0.5701  0.3593
 2961Sol     HW14605   3.020   2.757   2.428 -1.8565  0.4785  2.1888
 2961Sol     MW14606   3.089   2.793   2.472  0.3393  0.0159 -0.2666
 2962Sol     OW14607   2.412   0.007   5.820  0.3211  0.4364  0.1296
 2962Sol     HW14608   2.434   0.078   5.881 -0.8140  1.7652 -0.9505
 2962Sol     HW14609   2.419  -0.073   5.872 -0.8226  1.5474  2.0691
 2962Sol     MW14610   2.415   0.006   5.830 -0.2580 -0.0210  0.1454
 2963Sol     OW14611   2.099   3.146   5.894 -0.3081  0.5195 -0.5321
 2963Sol     HW14612   2.089   3.120   5.986 -2.6924  1.6171 -0.4288
 2963Sol     HW14613   2.022   3.109   5.850  0.2032  0.9871 -1.8523
 2963Sol     MW14614   2.091   3.140   5.898  0.6206 -0.4323 -0.2076
 2964Sol     OW14615   0.819   1.110   3.657  0.1942 -0.4181  0.0217
 2964Sol     HW14616   0.872   1.034   3.632  2.7232  1.3227 -0.0983
 2964Sol     HW14617   0.736   1.072   3.688  0.7683 -3.1199 -1.5323
 2964Sol     MW14618   0.816   1.100   3.657  0.8916 -0.0928 -0.7848
 2965Sol     OW14619   2.042   1.200   5.547  0.0273  0.3268  0.3221
 2965Sol     HW14620   2.036   1.267   5.615 -2.4465 -0.7896  1.2768
 2965Sol     HW14621   2.031   1.249   5.465  1.3137  1.4539  0.8021
 2965Sol     MW14622   2.040   1.211   5.546 -0.2901  0.0366 -0.0526
 2966Sol     OW14623   0.534   0.386   1.468 -0.4661  0.0655  0.5283
 2966Sol     HW14624   0.574   0.470   1.448 -0.2145 -0.0721  0.4495
 2966Sol     HW14625   0.582   0.323   1.414 -0.3582 -0.1864  0.9128
 2966Sol     MW14626   0.542   0.388   1.461 -0.3775  0.2324  0.4499
 2967Sol     OW14627   2.012   0.488   4.558  0.1213  0.0241 -0.0390
 2967Sol     HW14628   1.987   0.409   4.606 -0.7005 -1.1219 -2.2938
 2967Sol     HW14629   1.945   0.552   4.580 -1.5263 -1.1924 -1.3587
 2967Sol     MW14630   2.004   0.487   4.564 -0.6072  0.7737 -0.0452
 2968Sol     OW14631   1.101   2.624   7.923  0.3176 -0.1979  0.2050
 2968Sol     HW14632   1.176   2.592   7.971 -1.3500 -0.4986  2.7107
 2968Sol     HW14633   1.040   2.550   7.920 -0.0555  0.1519 -1.4238
 2968Sol     MW14634   1.102   2.615   7.927  0.0695  0.6244  0.2962
 2969Sol     OW14635   1.002   1.918   9.125  0.0997 -0.5730 -0.6293
 2969Sol     HW14636   1.009   1.833   9.082 -0.0732 -0.3551 -1.0949
 2969Sol     HW14637   0.909   1.941   9.117 -0.1586 -1.0534  0.8693
 2969Sol     MW14638   0.994   1.913   9.120  0.0419 -0.5297  0.2484
 2970Sol     OW14639   0.888   0.309   4.359  0.3365  0.3050  0.0343
 2970Sol     HW14640   0.847   0.328   4.444  2.7690 -0.8405  1.5261
 2970Sol     HW14641   0.833   0.355   4.295 -1.8956  0.7095  2.1492
 2970Sol     MW14642   0.879   0.315   4.361  0.0688 -0.0015 -0.3219
 2971Sol     OW14643   1.848   1.447   1.738  0.8119 -0.2893 -0.5101
 2971Sol     HW14644   1.836   1.358   1.704  1.1274 -0.5015 -0.0872
 2971Sol     HW14645   1.885   1.433   1.826  0.8761  0.2613 -0.4512
 2971Sol     MW14646   1.851   1.437   1.743  0.0256 -1.1209  0.4102
 2972Sol     OW14647   2.966   3.335   5.616 -0.2080 -0.1977 -0.5159
 2972Sol     HW14648   2.883   3.373   5.643  0.1319  1.1146 -1.2669
 2972Sol     HW14649   3.032   3.391   5.657  0.3010 -0.1326 -1.4125
 2972Sol     MW14650   2.965   3.344   5.622 -0.7945  0.0353 -0.4478
 2973Sol     OW14651   0.235   0.473   9.303 -0.6644 -0.0723 -0.1644
 2973Sol     HW14652   0.145   0.501   9.288  0.0240  2.3513  0.0920
 2973Sol     HW14653   0.267   0.449   9.215 -2.0793 -2.7044 -0.0167
 2973Sol     MW14654   0.230   0.473   9.293 -0.3242  0.2886 -0.1511
 2974Sol     OW14655   0.199   3.405   4.526  0.0705 -0.4101 -0.0571
 2974Sol     HW14656   0.197   3.332   4.464 -1.9462  0.2114 -0.7893
 2974Sol     HW14657   0.288   3.406   4.560  0.5330 -2.2769 -1.1532
 2974Sol     MW14658   0.206   3.399   4.523  0.0509  0.4434  0.0636
 2975Sol     OW14659   2.246   0.102   4.361 -0.2778 -0.2774 -0.5296
 2975Sol     HW14660   2.266   0.191   4.333  1.0946 -0.0559  1.1215
 2975Sol     HW14661   2.321   0.050   4.334  0.4715 -0.2981  1.5541
 2975Sol     MW14662   2.254   0.105   4.356 -0.4542  0.4378 -0.2338
 2976Sol     OW14663   1.374   3.270   8.284  0.1150  0.3367  0.4705
 2976Sol     HW14664   1.431   3.346   8.300 -0.4984  1.0738 -0.8303
 2976Sol     HW14665   1.407   3.233   8.203 -1.1580  0.6749 -0.2065
 2976Sol     MW14666   1.382   3.274   8.278 -0.2883 -0.3052  1.1014
 2977Sol     OW14667   1.645   2.512   8.054  0.0741  0.0184  0.1083
 2977Sol     HW14668   1.724   2.467   8.083  0.5439  1.5676  1.2573
 2977Sol     HW14669   1.629   2.579   8.121 -0.1457  2.1279 -1.9963
 2977Sol     MW14670   1.651   2.514   8.063  0.5447  0.3101  0.6033
 2978Sol     OW14671   1.757   1.047   6.198 -0.7689  0.5495  0.0912
 2978Sol     HW14672   1.832   1.091   6.238 -1.2692  1.6643 -0.1962
 2978Sol     HW14673   1.789   1.018   6.113 -0.5732  0.7395  0.0983
 2978Sol     MW14674   1.767   1.048   6.194  0.3469 -0.2466  0.0430
 2979Sol     OW14675   0.434   1.185   7.422  0.2919  0.2432 -0.7445
 2979Sol     HW14676   0.396   1.273   7.415  0.7660  0.5007 -0.0463
 2979Sol     HW14677   0.485   1.186   7.503 -1.5600 -1.3961  0.4869
 2979Sol     MW14678   0.435   1.193   7.428  0.5599  0.2205 -0.3196
 2980Sol     OW14679   1.754   2.238   2.793  0.1638  0.2200 -0.3810
 2980Sol     HW14680   1.702   2.158   2.785 -0.7087  0.5528  1.4913
 2980Sol     HW14681   1.697   2.299   2.840  0.8372  1.9354 -1.7283
 2980Sol     MW14682   1.744   2.236   2.797  0.3219 -0.4827  0.1145
 2981Sol     OW14683   1.817   2.326   5.567 -0.1081  0.1988 -0.2965
 2981Sol     HW14684   1.748   2.367   5.515 -1.3694 -1.0390  0.3664
 2981Sol     HW14685   1.867   2.273   5.505 -1.1315 -0.6568 -0.4098
 2981Sol     MW14686   1.815   2.325   5.557  0.2198 -0.0666  0.1134
 2982Sol     OW14687   1.719   2.072   4.624  0.0856 -0.6462 -0.4093
 2982Sol     HW14688   1.667   2.127   4.682  1.0333 -0.1460 -0.0226
 2982Sol     HW14689   1.749   2.131   4.555 -1.2846 -1.3049 -1.5750
 2982Sol     MW14690   1.717   2.082   4.623  0.5026 -0.1526 -0.3079
 2983Sol     OW14691   2.857   1.407   6.445  0.4740  0.1736 -0.6809
 2983Sol     HW14692   2.833   1.403   6.352 -0.9502  0.6788 -0.3487
 2983Sol     HW14693   2.778   1.439   6.488  1.3761  0.6826  0.6133
 2983Sol     MW14694   2.848   1.410   6.440  0.4075  0.0678  0.7933
 2984Sol     OW14695   2.519   1.347   1.809  0.0727 -0.5658  0.2280
 2984Sol     HW14696   2.559   1.419   1.858  2.1098 -0.1295 -1.9592
 2984Sol     HW14697   2.546   1.268   1.857 -0.9548  0.0120  1.8022
 2984Sol     MW14698   2.525   1.346   1.818  0.6421  0.3073 -0.1788
 2985Sol     OW14699   1.886   2.620   4.854  0.3028 -0.9570  0.8736
 2985Sol     HW14700   1.936   2.596   4.776  0.2540 -0.0416  0.5574
 2985Sol     HW14701   1.950   2.665   4.910 -0.4985  1.6219 -0.2002
 2985Sol     MW14702   1.896   2.622   4.852 -0.4556 -0.3364  0.0745
 2986Sol     OW14703   1.977   1.648   5.667 -0.4824  0.1638 -0.0057
 2986Sol     HW14704   2.003   1.711   5.733 -1.9394  0.9225 -0.1418
 2986Sol     HW14705   1.892   1.679   5.636 -0.6415 -1.1748 -0.9509
 2986Sol     MW14706   1.972   1.656   5.670 -0.1707 -0.0864  0.4281
 2987Sol     OW14707   2.801   0.438   8.547  0.1466  0.1524  0.2101
 2987Sol     HW14708   2.865   0.400   8.487  0.1941 -0.4933  0.6661
 2987Sol     HW14709   2.724   0.455   8.492  1.7459  3.8581 -1.0453
 2987Sol     MW14710   2.800   0.436   8.536  0.6740  0.0171  0.1383
 2988Sol     OW14711   1.170   2.500   7.333 -0.5715  1.2345 -0.4198
 2988Sol     HW14712   1.080   2.467   7.332  0.0517 -0.4936 -1.5325
 2988Sol     HW14713   1.197   2.499   7.241  0.9254  0.7742  0.0112
 2988Sol     MW14714   1.164   2.497   7.325 -0.3026 -0.4828  0.7065
 2989Sol     OW14715   2.215   1.236   4.370 -0.0818  0.1198 -0.4723
 2989Sol     HW14716   2.204   1.213   4.278  2.6257  0.3236 -0.8914
 2989Sol     HW14717   2.232   1.330   4.369  2.5806 -0.3110 -0.0584
 2989Sol     MW14718   2.216   1.243   4.362  0.2196  0.4244 -0.2844
 2990Sol     OW14719   0.475   1.196   9.324 -0.2584  0.1686 -0.0768
 2990Sol     HW14720   0.444   1.180   9.235 -0.7260 -0.4890  0.1978
 2990Sol     HW14721   0.498   1.289   9.325 -0.2795  0.1895 -0.8716
 2990Sol     MW14722   0.474   1.203   9.316  0.4130 -0.2202  0.5093
 2991Sol     OW14723   2.132   1.546   7.264 -0.0852  0.4023  0.3272
 2991Sol     HW14724   2.059   1.515   7.210 -0.0909 -0.9858  1.1331
 2991Sol     HW14725   2.196   1.475   7.262  0.9795  1.3390  0.1685
 2991Sol     MW14726   2.131   1.537   7.259  0.2724 -0.1187 -0.3485
 2992Sol     OW14727   0.578   3.100   9.360  0.2740 -0.7157  0.7142
 2992Sol     HW14728   0.570   3.127   9.451  3.0624 -1.8424  1.3532
 2992Sol     HW14729   0.657   3.145   9.329 -1.0280  0.1958 -1.3601
 2992Sol     MW14730   0.584   3.106   9.365 -0.2257 -0.1172  0.2475
 2993Sol     OW14731   2.824   2.911   8.869  0.0873  0.3486 -0.0668
 2993Sol     HW14732   2.761   2.896   8.798 -0.5374 -1.2080  0.7922
 2993Sol     HW14733   2.898   2.855   8.847 -0.5667 -0.9878  1.0618
 2993Sol     MW14734   2.825   2.905   8.860 -0.1760 -0.1090 -0.1813
 2994Sol     OW14735   1.152   0.703   9.330  0.5034 -0.5702 -0.1379
 2994Sol     HW14736   1.116   0.789   9.311  0.4857 -0.6209 -0.3288
 2994Sol     HW14737   1.128   0.687   9.422  1.5079  0.1180  0.2427
 2994Sol     MW14738   1.147   0.709   9.337  0.5236  0.9869 -0.9782
 2995Sol     OW14739   2.805   2.747   4.246 -0.1288 -0.1181  0.4442
 2995Sol     HW14740   2.784   2.673   4.189 -0.1916 -2.0857  2.9218
 2995Sol     HW14741   2.719   2.782   4.271 -0.2621 -1.6984  2.3534
 2995Sol     MW14742   2.795   2.744   4.243 -0.4141 -0.2839 -0.0228
 2996Sol     OW14743   1.232   0.688   3.309 -0.2321  0.4976 -0.3367
 2996Sol     HW14744   1.290   0.637   3.253 -0.4187  0.6510 -0.6705
 2996Sol     HW14745   1.290   0.727   3.374  0.0654  0.8022 -0.7800
 2996Sol     MW14746   1.242   0.687   3.310  0.4353 -0.4230 -0.5389
 2997Sol     OW14747   2.369   0.168   3.654 -0.4163  0.1775  0.1909
 2997Sol     HW14748   2.446   0.116   3.632 -0.8684 -1.1102  1.6227
 2997Sol     HW14749   2.342   0.137   3.740 -3.3630 -0.3743 -0.8572
 2997Sol     MW14750   2.373   0.161   3.660 -0.1085 -0.2833 -0.2248
 2998Sol     OW14751   1.544   2.931   2.351  0.1463  0.1842  0.2602
 2998Sol     HW14752   1.505   2.903   2.269 -0.4244 -1.4588  1.0843
 2998Sol     HW14753   1.639   2.926   2.335  0.0472  0.7964 -0.5837
 2998Sol     MW14754   1.549   2.928   2.342 -0.4616  0.5984  0.7988
 2999Sol     OW14755   2.426   1.427   3.576  0.5404  0.5479  0.3004
 2999Sol     HW14756   2.330   1.421   3.581  0.2766  2.6784 -1.3723
 2999Sol     HW14757   2.450   1.369   3.504  0.3070  1.2575 -0.3673
 2999Sol     MW14758   2.419   1.422   3.570  0.1581  0.0382 -0.0408
 3000Sol     OW14759   0.931   0.003   4.780 -0.1004  0.6402  0.1498
 3000Sol     HW14760   1.005   0.037   4.730 -0.1995  1.0583  0.2816
 3000Sol     HW14761   0.873  -0.036   4.715 -0.1632  1.0634 -0.0512
 3000Sol     MW14762   0.932   0.003   4.770  0.4548 -0.8021 -0.1238
 3001Sol     OW14763   2.037   2.207   7.441  0.3628 -0.2360 -0.6891
 3001Sol     HW14764   2.120   2.159   7.438  0.2014 -0.5448 -0.1426
 3001Sol     HW14765   2.054   2.281   7.499  0.1391 -0.5161 -0.2670
 3001Sol     MW14766   2.046   2.209   7.446  0.2622  0.1807 -0.0750
   3.10480   3.40730  11.95200
