Water-ethanol mixture in organosilica
15030
    1Sil     Ob    1   2.571   3.340  11.190 -0.7486 -0.0658 -1.1228
    1Sil     Ob    2   3.158   3.337  10.391  0.1236 -0.0027  0.1289
    1Sil     Ob    3   2.393   3.824  10.763 -0.3791  0.1251  0.1178
    1Sil     Ob    4   2.936   3.845  11.134  0.1468 -0.7639  0.2475
    1Sil     Ob    5   2.760   3.726  10.364  0.0027  0.7150 -0.0149
    1Sil     Ob    6   2.779   3.659  11.217  0.2648 -0.1370  0.2909
    1Sil     Ob    7   2.509   3.664  10.442 -0.1305  0.2254  0.4978
    1Sil     Ob    8   3.058   3.662  10.827  1.4498 -0.3063 -0.3310
    1Sil     Ob    9   2.560   3.394  10.946  0.2531 -0.0258  0.0879
    1Sil     Ob   10   2.849   3.416  10.550  1.0934  0.2893 -0.4948
    1Sil     Ob   11   2.547   3.594  11.125 -0.3076 -0.4372 -0.3379
    1Sil     Ob   12   2.270   3.592  10.358  0.0170 -0.4817 -0.3969
    1Sil     Ob   13   2.875   3.479  10.791  0.1250  0.2723 -0.0001
    1Sil     Ob   14   2.468   3.578  10.777  0.0222  0.3001 -0.0593
    1Sil     Ob   15   3.022   3.593  11.152 -0.2684 -0.9634  0.0918
    1Sil     Ob   16   2.678   3.483  10.359  0.2838  0.4538  0.0214
    1Sil     Ob   17   2.922   3.429  10.305 -0.0638  0.7096  0.5634
    1Sil     Ob   18   2.354   3.420  11.100 -0.2554 -0.2042 -0.5568
    1Sil     Ob   19   2.644   3.404  10.696 -0.3067 -0.3302  0.5989
    1Sil     Ob   20   2.306   3.659  10.598 -0.2603 -0.2299 -0.0775
    1Sil     Ob   21   2.849   3.661  10.969 -0.2071  0.1125 -0.0228
    1Sil     Ob   22   2.536   3.331  12.391 -0.5369  0.2434 -0.0096
    1Sil     Ob   23   3.098   3.327  11.577 -0.4150 -0.0115 -0.3649
    1Sil     Ob   24   2.351   3.831  11.935  0.7538  0.2119  0.3944
    1Sil     Ob   25   2.885   3.834  12.321  0.1553  0.0901 -0.5371
    1Sil     Ob   26   2.705   3.715  11.568  0.1530  0.4164 -0.2994
    1Sil     Ob   27   2.718   3.670  12.408  0.2511 -0.2582  0.0390
    1Sil     Ob   28   2.469   3.637  11.613 -0.0730  0.2960  0.5977
    1Sil     Ob   29   3.001   3.656  12.017 -0.2689  0.5310  0.5910
    1Sil     Ob   30   2.506   3.405  12.126  0.0745 -0.1650  0.1743
    1Sil     Ob   31   3.087   3.421  11.336 -0.6394  0.2215 -0.5857
    1Sil     Ob   32   2.790   3.403  11.729  0.0318  0.3161 -0.3225
    1Sil     Ob   33   2.486   3.581  12.321  0.2821  0.0690 -0.1570
    1Sil     Ob   34   2.231   3.571  11.523 -0.5606  0.1509 -0.6638
    1Sil     Ob   35   2.812   3.473  11.977  0.0341  0.4153 -0.1623
    1Sil     Ob   36   2.418   3.578  11.948  0.1241  0.5204  0.0520
    1Sil     Ob   37   2.956   3.591  12.373  0.2457  0.1769  0.4366
    1Sil     Ob   38   2.634   3.466  11.545 -0.4515 -0.3789 -0.1667
    1Sil     Ob   39   2.875   3.405  11.481 -0.3953  0.2467  0.3365
    1Sil     Ob   40   2.311   3.400  12.281  0.1977  0.3239 -0.0838
    1Sil     Ob   41   2.584   3.392  11.880  0.7135  0.4151  0.4692
    1Sil     Ob   42   2.261   3.669  11.763 -0.3936  0.1479 -0.3188
    1Sil     Ob   43   2.795   3.654  12.164 -0.0618 -0.1402 -0.2714
    1Sil     Ob   44   2.556   3.640  11.369 -0.1105 -0.0445 -0.3057
    1Sil     Ob   45   2.590   3.832  11.202 -0.2080  0.1727 -0.0022
    1Sil     Ob   46   3.183   3.841  10.390  0.4441  0.6804  0.4258
    1Sil     Ob   47   2.832   3.721  10.723 -0.0157  0.1569 -0.0872
    1Sil     Ob   48   2.411   4.323  10.726  0.2087 -0.2164  0.1406
    1Sil     Ob   49   2.944   4.331  11.137  1.0410  0.0567 -0.0073
    1Sil     Ob   50   2.770   4.220  10.359 -0.0403 -0.1063  0.8902
    1Sil     Ob   51   2.768   4.152  11.211  0.6071 -0.6729  0.6184
    1Sil     Ob   52   2.525   4.149  10.416 -0.4383 -0.5189 -0.0693
    1Sil     Ob   53   3.067   4.132  10.829  0.1349 -0.7535 -0.5254
    1Sil     Ob   54   2.569   3.912  10.950 -0.3004  0.1727 -0.7501
    1Sil     Ob   55   2.846   3.898  10.545  0.0618 -0.2334  0.2459
    1Sil     Ob   56   2.538   4.078  11.147  0.4046 -0.1167  0.4757
    1Sil     Ob   57   2.301   4.084  10.321  0.0578  0.1234 -0.0877
    1Sil     Ob   58   2.876   3.967  10.792 -0.2924 -0.0094 -0.5898
    1Sil     Ob   59   2.481   4.077  10.769 -0.0500  0.3109 -0.1079
    1Sil     Ob   60   3.007   4.086  11.176 -0.3733 -0.1094 -0.2584
    1Sil     Ob   61   2.694   3.975  10.352 -0.2991 -0.2485  0.1513
    1Sil     Ob   62   2.942   3.893  10.303  0.4631 -0.5888  0.0981
    1Sil     Ob   63   2.366   3.892  11.103 -0.2473 -0.0127  0.0607
    1Sil     Ob   64   2.646   3.890  10.704  0.2354 -0.2896  0.1049
    1Sil     Ob   65   2.325   4.164  10.576 -0.2436 -0.4733  0.4371
    1Sil     Ob   66   2.859   4.145  10.978 -0.3247 -0.7136 -0.3542
    1Sil     Ob   67   2.535   3.835  12.391 -0.1537 -0.3526 -0.5129
    1Sil     Ob   68   3.104   3.829  11.592  0.2831  0.7252  0.3101
    1Sil     Ob   69   2.770   3.726  11.917 -0.5237  0.3534 -0.1855
    1Sil     Ob   70   2.354   4.321  11.925 -0.1027  0.5959  0.0888
    1Sil     Ob   71   2.886   4.325  12.343 -0.4410  0.2756 -0.2454
    1Sil     Ob   72   2.704   4.211  11.570  0.3089 -0.8585 -0.0847
    1Sil     Ob   73   2.720   4.145  12.409 -0.1240  0.5739 -0.8003
    1Sil     Ob   74   2.465   4.146  11.609  0.4829 -0.6034 -0.5129
    1Sil     Ob   75   3.014   4.173  12.022 -0.7689  0.2518  0.0556
    1Sil     Ob   76   2.513   3.908  12.131 -0.0363 -0.1390 -0.3119
    1Sil     Ob   77   3.071   3.904  11.346 -0.0289 -0.1879 -0.3480
    1Sil     Ob   78   2.794   3.903  11.733  0.0240  0.3192 -0.0872
    1Sil     Ob   79   2.488   4.075  12.330 -0.6063 -0.3333 -0.0352
    1Sil     Ob   80   2.238   4.070  11.526 -0.1968  0.1848 -0.8064
    1Sil     Ob   81   2.842   3.972  11.985  0.2769 -0.4215  0.4212
    1Sil     Ob   82   2.422   4.078  11.966 -0.5547 -0.0609  0.2040
    1Sil     Ob   83   2.960   4.073  12.363  0.2396 -0.2951 -0.2777
    1Sil     Ob   84   2.632   3.962  11.549 -0.0486  0.2491 -0.3823
    1Sil     Ob   85   2.875   3.897  11.495 -0.3812 -0.4519  0.4716
    1Sil     Ob   86   2.304   3.899  12.294  0.1136 -0.0277  0.3854
    1Sil     Ob   87   2.598   3.911  11.889 -0.2839  0.1371  0.2170
    1Sil     Ob   88   2.270   4.134  11.771  0.0711  0.4197  0.3075
    1Sil     Ob   89   2.817   4.157  12.165  0.0335  0.0173  1.0708
    1Sil     Ob   90   2.561   4.148  11.378  0.6923 -0.5204  0.2564
    1Sil     Ob   91   2.579   4.321  11.184  0.4284  0.1709 -0.1554
    1Sil     Ob   92   3.154   4.329  10.403 -0.2787 -0.0016 -0.0023
    1Sil     Ob   93   2.844   4.209  10.717 -0.6238  0.1540 -0.3590
    1Sil     Ob   94   2.405   4.809  10.755 -0.5783  0.0595 -0.8071
    1Sil     Ob   95   2.936   4.815  11.146 -0.0256  0.2547  0.2905
    1Sil     Ob   96   2.758   4.708  10.379 -0.2042  0.1650 -0.2906
    1Sil     Ob   97   2.763   4.633  11.213  0.3694 -0.0082 -0.4362
    1Sil     Ob   98   2.522   4.642  10.429 -0.0735 -0.2541  0.1738
    1Sil     Ob   99   3.061   4.642  10.823  0.5960 -0.3606 -0.2494
    1Sil     Ob  100   2.565   4.390  10.938  0.9821 -0.1339  0.0118
    1Sil     Ob  101   2.853   4.388  10.530 -0.4784 -0.2470  0.3950
    1Sil     Ob  102   2.527   4.563  11.125  0.2701  0.3403  0.0626
    1Sil     Ob  103   2.287   4.573  10.336  0.1407 -0.3732  0.3083
    1Sil     Ob  104   2.874   4.471  10.781  0.1356 -0.5479 -0.1950
    1Sil     Ob  105   2.478   4.561  10.777 -0.2417 -0.5350 -0.0048
    1Sil     Ob  106   3.017   4.573  11.168  0.0148 -0.4710  0.3350
    1Sil     Ob  107   2.686   4.466  10.351 -0.2698  0.3736  0.9667
    1Sil     Ob  108   2.939   4.391  10.285 -0.0229  0.4941  0.3245
    1Sil     Ob  109   2.349   4.382  11.092 -0.6355 -0.1770 -0.9171
    1Sil     Ob  110   2.655   4.392  10.688  0.3978  0.0201  0.4907
    1Sil     Ob  111   2.318   4.637  10.586 -0.4324  0.2610 -0.0119
    1Sil     Ob  112   2.850   4.646  10.979 -0.1285 -0.4176 -0.2087
    1Sil     Ob  113   2.526   4.323  12.381  0.4221  0.2505 -0.0741
    1Sil     Ob  114   3.124   4.318  11.582 -0.3422  0.1734 -0.6460
    1Sil     Ob  115   2.782   4.219  11.930  0.4773  0.0595  0.1642
    1Sil     Ob  116   2.354   4.811  11.945  0.0296 -0.0200 -0.4396
    1Sil     Ob  117   2.876   4.818  12.354 -0.4182  0.2017 -0.1118
    1Sil     Ob  118   2.716   4.711  11.552  0.2879 -0.0631  0.0396
    1Sil     Ob  119   2.711   4.634  12.391  0.8246  0.1950 -0.0774
    1Sil     Ob  120   2.470   4.653  11.609  0.7206 -0.0327 -0.6443
    1Sil     Ob  121   3.011   4.626  11.999 -0.3637 -0.6624 -0.1162
    1Sil     Ob  122   2.499   4.379  12.128 -0.8481 -0.3828  0.1842
    1Sil     Ob  123   3.092   4.391  11.331  0.7506  0.4326 -0.7101
    1Sil     Ob  124   2.799   4.390  11.735  0.2551  0.7274 -0.1479
    1Sil     Ob  125   2.483   4.565  12.309 -0.1515 -0.2591 -0.9348
    1Sil     Ob  126   2.247   4.560  11.517  0.1611 -0.0895  0.1708
    1Sil     Ob  127   2.820   4.464  11.996 -0.1935  0.4160 -0.1869
    1Sil     Ob  128   2.431   4.554  11.956  0.3473 -0.3057  0.5236
    1Sil     Ob  129   2.961   4.571  12.350  0.0688 -0.0884  0.0736
    1Sil     Ob  130   2.638   4.460  11.553 -0.1941 -0.1013 -0.1649
    1Sil     Ob  131   2.888   4.389  11.489 -0.2105  0.6277  0.1121
    1Sil     Ob  132   2.299   4.387  12.298 -0.5243  0.1711  0.1237
    1Sil     Ob  133   2.599   4.387  11.886  0.0191  0.0447  0.3592
    1Sil     Ob  134   2.267   4.635  11.773  0.0806  0.1484  0.2193
    1Sil     Ob  135   2.808   4.657  12.157  0.1287  0.3441  0.2164
    1Sil     Ob  136   2.548   4.617  11.365 -0.1834  0.4397 -0.3635
    1Sil     Ob  137   2.586   4.815  11.189 -0.6429 -0.7533 -0.0427
    1Sil     Ob  138   3.160   4.809  10.403  0.7572  0.2400 -0.6337
    1Sil     Ob  139   2.829   4.714  10.728  0.2452  0.2064  0.6362
    1Sil     Ob  140   2.399   5.302  10.759  0.2581 -0.0263  0.3567
    1Sil     Ob  141   2.931   5.310  11.137 -0.0861  0.2364 -0.2871
    1Sil     Ob  142   2.767   5.212  10.353 -0.4037  0.0633  0.3616
    1Sil     Ob  143   2.761   5.130  11.211 -0.5330  0.2410 -0.1396
    1Sil     Ob  144   2.521   5.150  10.415 -0.0130 -0.1072  0.4154
    1Sil     Ob  145   3.059   5.142  10.824  0.1294 -0.4013 -0.3691
    1Sil     Ob  146   2.560   4.893  10.943 -0.2140 -0.4904 -0.2920
    1Sil     Ob  147   2.839   4.895  10.544  0.0281 -0.0758 -0.0916
    1Sil     Ob  148   2.525   5.071  11.132  0.2092  0.3557  0.0697
    1Sil     Ob  149   2.296   5.073  10.340 -0.0025 -0.3147  0.4542
    1Sil     Ob  150   2.882   4.959  10.788  0.6865 -0.4084 -0.1456
    1Sil     Ob  151   2.478   5.060  10.776  0.5432  0.0632 -0.5270
    1Sil     Ob  152   3.002   5.062  11.175  0.3607 -0.0961  0.0467
    1Sil     Ob  153   2.688   4.966  10.349  0.1412 -0.0474  1.1090
    1Sil     Ob  154   2.930   4.889  10.310 -0.2855  0.4422  0.0352
    1Sil     Ob  155   2.362   4.882  11.102  0.8387  0.2349  0.1612
    1Sil     Ob  156   2.648   4.881  10.700  0.0424 -0.0812  0.1633
    1Sil     Ob  157   2.329   5.134  10.578 -0.2786  1.2951  0.2702
    1Sil     Ob  158   2.847   5.127  10.979 -0.6298 -0.8600  1.0392
    1Sil     Ob  159   2.531   4.815  12.372  0.2276 -0.3497 -0.8691
    1Sil     Ob  160   3.117   4.812  11.587 -0.1032 -0.1372 -0.1772
    1Sil     Ob  161   2.784   4.698  11.900  0.7491 -0.5670  0.9990
    1Sil     Ob  162   2.344   5.315  11.943 -0.6163 -0.5617 -0.0691
    1Sil     Ob  163   2.887   5.304  12.314 -0.3867  0.1191  0.0267
    1Sil     Ob  164   2.718   5.204  11.558 -0.2413  0.3744 -0.0834
    1Sil     Ob  165   2.712   5.131  12.403 -0.1726  0.5647  0.1759
    1Sil     Ob  166   2.464   5.123  11.615 -0.0590 -0.0117  0.4252
    1Sil     Ob  167   3.018   5.124  12.017  0.1595 -0.2209 -0.8650
    1Sil     Ob  168   2.506   4.888  12.132 -0.4039 -0.2274  0.2528
    1Sil     Ob  169   3.086   4.877  11.341 -0.2717 -0.8108 -0.3603
    1Sil     Ob  170   2.797   4.877  11.719 -0.0253 -0.6616  0.1521
    1Sil     Ob  171   2.489   5.064  12.312  0.4327  0.0864 -0.2131
    1Sil     Ob  172   2.238   5.050  11.524 -0.0122  0.2504  0.2170
    1Sil     Ob  173   2.839   4.949  11.964  0.1151  0.0419  0.3971
    1Sil     Ob  174   2.424   5.063  11.961  0.0551 -0.0317 -0.2493
    1Sil     Ob  175   2.957   5.065  12.361  0.3102  0.2899 -0.1529
    1Sil     Ob  176   2.650   4.957  11.527  0.5625  0.0901  0.7492
    1Sil     Ob  177   2.885   4.883  11.492  0.5831 -0.0512 -0.2347
    1Sil     Ob  178   2.300   4.880  12.288  0.2860 -0.3625 -0.3949
    1Sil     Ob  179   2.596   4.873  11.887 -0.7434 -0.3746 -0.3491
    1Sil     Ob  180   2.256   5.142  11.771  0.1084 -0.0969 -0.0015
    1Sil     Ob  181   2.806   5.107  12.159 -0.3197  0.0874  0.6144
    1Sil     Ob  182   2.551   5.146  11.371  0.3782 -0.2627 -0.2035
    1Sil     Ob  183   2.585   5.316  11.186  0.8282  0.6586 -0.3543
    1Sil     Ob  184   3.151   5.304  10.400 -0.0091  0.6169 -0.0760
    1Sil     Ob  185   2.822   5.202  10.729 -0.2741  0.1243  0.1023
    1Sil     Ob  186   2.393   5.802  10.751 -0.5897 -0.8475  0.0889
    1Sil     Ob  187   2.940   5.809  11.132 -0.8674 -0.2127 -0.4613
    1Sil     Ob  188   2.748   5.695  10.386  0.0017  0.0065  0.3240
    1Sil     Ob  189   2.759   5.626  11.215 -0.6746 -0.3304 -0.2192
    1Sil     Ob  190   2.502   5.614  10.425  0.3321  0.2493  0.4356
    1Sil     Ob  191   3.070   5.600  10.815 -0.3739 -0.1980  0.1675
    1Sil     Ob  192   2.556   5.388  10.939 -0.1179  0.1760 -0.2370
    1Sil     Ob  193   2.838   5.379  10.540 -0.2528 -0.2474 -0.1736
    1Sil     Ob  194   2.537   5.557  11.123  0.4927 -0.6099 -0.3118
    1Sil     Ob  195   2.280   5.562  10.332  0.8064  0.3039 -0.3520
    1Sil     Ob  196   2.872   5.449  10.794  0.0532 -0.1937  0.6409
    1Sil     Ob  197   2.467   5.555  10.768 -0.0019  0.2755 -0.0138
    1Sil     Ob  198   3.007   5.552  11.168  0.3218 -0.3288 -0.4183
    1Sil     Ob  199   2.690   5.460  10.341  0.4548  0.3529  0.1662
    1Sil     Ob  200   2.932   5.397  10.293 -0.4391 -0.5877  0.0898
    1Sil     Ob  201   2.347   5.384  11.096 -0.0102 -0.2760  0.1972
    1Sil     Ob  202   2.632   5.377  10.694  0.0743 -0.3321 -0.2431
    1Sil     Ob  203   2.297   5.630  10.581 -0.0438 -0.1090  0.8795
    1Sil     Ob  204   2.855   5.625  10.968  0.6369 -0.2530  0.7953
    1Sil     Ob  205   2.531   5.306  12.388  0.5497  0.1408 -0.0939
    1Sil     Ob  206   3.101   5.319  11.594  0.3160 -0.5931 -0.0875
    1Sil     Ob  207   2.774   5.190  11.930  0.0514 -0.6398 -0.0187
    1Sil     Ob  208   2.354   5.800  11.931  0.0774 -0.1644  0.1900
    1Sil     Ob  209   2.887   5.806  12.330 -0.1598 -0.4008 -0.3874
    1Sil     Ob  210   2.705   5.696  11.554  0.2940 -0.0855 -0.2206
    1Sil     Ob  211   2.720   5.612  12.407 -0.2922 -0.1031 -0.1878
    1Sil     Ob  212   2.463   5.625  11.608 -0.5996  0.1612  0.3423
    1Sil     Ob  213   3.001   5.618  12.015 -0.1692 -0.7357  0.3228
    1Sil     Ob  214   2.495   5.390  12.138 -0.2211  0.4518 -0.5953
    1Sil     Ob  215   3.079   5.377  11.342  0.8491  0.3638 -0.1319
    1Sil     Ob  216   2.796   5.370  11.739  0.5543 -0.2803  0.1268
    1Sil     Ob  217   2.487   5.556  12.331 -0.6186 -0.0094 -0.2972
    1Sil     Ob  218   2.227   5.550  11.522  0.1513  0.6596 -0.4092
    1Sil     Ob  219   2.818   5.444  11.986 -0.4466 -0.1468  0.2104
    1Sil     Ob  220   2.426   5.555  11.955 -0.2361 -0.5860  0.1508
    1Sil     Ob  221   2.960   5.550  12.348 -0.1884  0.2198 -0.1159
    1Sil     Ob  222   2.634   5.440  11.550  0.2410 -0.7358  0.1506
    1Sil     Ob  223   2.875   5.399  11.492  0.6783 -0.2379 -0.1540
    1Sil     Ob  224   2.303   5.372  12.299 -0.2790  0.3997  0.4887
    1Sil     Ob  225   2.583   5.374  11.893 -0.5408 -0.1947  0.2722
    1Sil     Ob  226   2.262   5.615  11.763 -0.5760 -0.4699  0.8515
    1Sil     Ob  227   2.801   5.624  12.169  0.3528 -0.1269  0.0724
    1Sil     Ob  228   2.554   5.614  11.371 -0.3234 -0.1443  0.2938
    1Sil     Ob  229   2.581   5.801  11.193 -0.5999 -0.1787 -0.5749
    1Sil     Ob  230   3.157   5.803  10.396  0.0409  0.1046 -0.1057
    1Sil     Ob  231   2.841   5.689  10.716  0.1743  0.5998 -0.4225
    1Sil     Ob  232   2.405   6.292  10.755  0.2343 -0.0172 -0.1798
    1Sil     Ob  233   2.936   6.300  11.136 -0.0270 -0.4579  0.4005
    1Sil     Ob  234   2.758   6.191  10.381  0.0805  0.4526 -0.2044
    1Sil     Ob  235   2.763   6.118  11.216 -0.0701  0.0265  0.3908
    1Sil     Ob  236   2.522   6.116  10.425 -0.3087  0.3643  0.2853
    1Sil     Ob  237   3.065   6.119  10.818 -0.0581  0.0082  0.1992
    1Sil     Ob  238   2.561   5.865  10.942 -0.8874  0.4569  0.3935
    1Sil     Ob  239   2.838   5.873  10.541  0.4618 -0.2217  0.2187
    1Sil     Ob  240   2.537   6.049  11.121 -0.1108  0.1731  0.2907
    1Sil     Ob  241   2.280   6.055  10.336 -0.7089  0.0852 -0.1256
    1Sil     Ob  242   2.873   5.937  10.785  0.0887 -0.6149 -0.1095
    1Sil     Ob  243   2.480   6.044  10.780 -0.0722  0.5172  0.4832
    1Sil     Ob  244   3.017   6.047  11.158 -0.7081 -0.3299  0.0406
    1Sil     Ob  245   2.694   5.935  10.348 -0.0599  0.7721 -0.7535
    1Sil     Ob  246   2.940   5.874  10.298  0.3005  0.8151 -0.2721
    1Sil     Ob  247   2.352   5.866  11.096 -0.0048 -0.8254 -0.0780
    1Sil     Ob  248   2.643   5.847  10.701  0.1845 -0.0608 -0.3049
    1Sil     Ob  249   2.321   6.119  10.583 -0.2736  0.1074 -0.2061
    1Sil     Ob  250   2.852   6.120  10.967 -0.5718 -0.1410 -0.1050
    1Sil     Ob  251   2.542   5.797  12.382 -0.1006 -0.2745 -0.1194
    1Sil     Ob  252   3.113   5.801  11.581  0.0478  0.5386 -0.0752
    1Sil     Ob  253   2.775   5.691  11.920 -0.0435  0.4280 -0.1002
    1Sil     Ob  254   2.343   6.289  11.934  0.0729 -0.5227  0.2838
    1Sil     Ob  255   2.878   6.292  12.339 -0.2386 -0.0831  0.1622
    1Sil     Ob  256   2.707   6.187  11.564 -0.7105  0.6036  0.8687
    1Sil     Ob  257   2.706   6.112  12.411 -0.1456  0.5677  0.0209
    1Sil     Ob  258   2.464   6.106  11.617  0.2791 -0.2377 -0.5528
    1Sil     Ob  259   2.999   6.113  12.010  0.1827 -0.1296 -0.5849
    1Sil     Ob  260   2.498   5.868  12.135  0.3350 -0.2189 -0.3252
    1Sil     Ob  261   3.081   5.866  11.334 -0.0784  0.2668 -0.2577
    1Sil     Ob  262   2.780   5.883  11.729  0.1455 -0.0495 -0.4188
    1Sil     Ob  263   2.478   6.045  12.328  0.0022  0.0764 -0.7079
    1Sil     Ob  264   2.226   6.041  11.521 -0.8757  0.3025 -0.2301
    1Sil     Ob  265   2.811   5.936  11.980 -0.4153 -0.1641  0.1949
    1Sil     Ob  266   2.424   6.047  11.961 -0.7472 -0.3924  0.1060
    1Sil     Ob  267   2.949   6.058  12.364  0.0602 -0.7154  0.6875
    1Sil     Ob  268   2.635   5.945  11.530  0.6487  0.4613 -0.2726
    1Sil     Ob  269   2.876   5.868  11.488  0.2439 -0.3729  0.4610
    1Sil     Ob  270   2.299   5.863  12.304 -0.2105  0.5126  0.7972
    1Sil     Ob  271   2.586   5.864  11.888 -0.6324 -0.5837 -0.2742
    1Sil     Ob  272   2.261   6.120  11.773  0.7472 -0.2272 -0.2396
    1Sil     Ob  273   2.793   6.121  12.164  0.8265 -0.3931  0.0844
    1Sil     Ob  274   2.552   6.125  11.371 -0.3094  0.6090 -0.3697
    1Sil     Ob  275   2.573   6.291  11.186 -0.3560 -0.6333  0.2487
    1Sil     Ob  276   3.153   6.294  10.401  0.3770  0.0892 -0.6846
    1Sil     Ob  277   2.829   6.186  10.732  0.2270  0.4375  0.5247
    1Sil     Ob  278   2.768   3.170  11.212  0.5540  0.1837  0.2626
    1Sil     Ob  279   2.524   3.191  10.422  0.0795  0.2328  0.1547
    1Sil     Ob  280   3.067   3.158  10.819  0.0253 -1.1612 -0.0596
    1Sil     Ob  281   2.548   6.353  10.948 -0.1833 -0.3250 -0.0522
    1Sil     Ob  282   2.849   6.365  10.547  0.0122  0.5609 -0.1656
    1Sil     Ob  283   2.543   6.540  11.113 -0.6647  0.0470 -0.3646
    1Sil     Ob  284   2.312   3.088  10.329  0.2142  0.3064 -1.1463
    1Sil     Ob  285   2.880   6.428  10.798 -0.0984  0.6365 -0.3038
    1Sil     Ob  286   2.474   3.086  10.796 -0.4572 -0.1415 -0.4643
    1Sil     Ob  287   3.003   3.101  11.163 -0.1636  0.1044 -0.1733
    1Sil     Ob  288   2.687   2.986  10.360 -0.3678  0.1974  0.2743
    1Sil     Ob  289   2.925   6.364  10.302 -0.1824  0.1162 -0.5386
    1Sil     Ob  290   2.352   6.357  11.098 -0.1614  0.0104  0.0837
    1Sil     Ob  291   2.650   6.366  10.704  0.3568 -0.0979 -0.7752
    1Sil     Ob  292   2.335   3.153  10.587  0.0591  0.5200  0.8508
    1Sil     Ob  293   2.853   3.161  10.972 -0.2996  0.0596 -0.1271
    1Sil     Ob  294   2.528   6.293  12.384 -0.4092  0.2224  0.4544
    1Sil     Ob  295   3.120   6.298  11.574  0.0088 -0.0959  0.4314
    1Sil     Ob  296   2.772   6.181  11.911  0.3456  0.0564  0.1472
    1Sil     Ob  297   2.707   3.156  12.409  0.4209  0.2196  0.1759
    1Sil     Ob  298   2.486   3.156  11.609 -0.0032  0.0727  0.0652
    1Sil     Ob  299   3.013   3.150  12.022 -0.3412  0.5553  0.1426
    1Sil     Ob  300   2.493   6.363  12.130 -0.0598 -0.6475  0.4180
    1Sil     Ob  301   3.085   6.371  11.326  0.5518 -0.5124  0.2195
    1Sil     Ob  302   2.789   6.373  11.726  0.2437 -0.3417 -0.2486
    1Sil     Ob  303   2.483   6.546  12.307 -0.4539 -0.3403 -0.1828
    1Sil     Ob  304   2.255   3.082  11.505 -0.2808  0.6146 -0.6023
    1Sil     Ob  305   2.815   6.427  11.980 -0.6154  0.5889 -0.5312
    1Sil     Ob  306   2.416   3.085  11.954 -0.4602  0.1904 -0.0621
    1Sil     Ob  307   2.949   3.090  12.372  0.2344 -0.0751 -0.4865
    1Sil     Ob  308   2.648   2.979  11.524  0.4993 -0.0487  0.1696
    1Sil     Ob  309   2.881   6.364  11.490 -0.6340  0.8553 -0.2649
    1Sil     Ob  310   2.292   6.363  12.283 -0.4506 -0.4116  0.0520
    1Sil     Ob  311   2.586   6.367  11.880  0.8696 -0.2093 -0.0155
    1Sil     Ob  312   2.281   3.150  11.760  0.3963 -0.4416 -0.1921
    1Sil     Ob  313   2.809   3.177  12.170  0.2005  0.6347  0.5820
    1Sil     Ob  314   2.562   3.160  11.360  0.3749 -0.0122  0.0159
    1Sil     Ob  315   3.407   3.340  11.189  0.3699  0.6174  0.2572
    1Sil     Ob  316   3.979   3.338  10.404  0.5419  0.9660  0.6880
    1Sil     Ob  317   3.233   3.835  10.761 -0.2405 -0.0958 -0.2444
    1Sil     Ob  318   3.770   3.824  11.134 -0.2667  0.4934  0.1843
    1Sil     Ob  319   3.590   3.718  10.364  0.4973  0.6565 -0.0667
    1Sil     Ob  320   3.599   3.657  11.224 -0.6967  0.4194  0.0861
    1Sil     Ob  321   3.350   3.644  10.431  0.4048  0.0108 -0.2931
    1Sil     Ob  322   3.890   3.648  10.832  0.9748  0.4844  0.4592
    1Sil     Ob  323   3.383   3.408  10.942 -0.6140  0.1332  0.0346
    1Sil     Ob  324   3.670   3.384  10.540 -0.2751  0.2366 -0.8798
    1Sil     Ob  325   3.366   3.596  11.137 -0.1782  0.1870  0.8017
    1Sil     Ob  326   3.125   3.594  10.327  0.1201  0.5331  0.4515
    1Sil     Ob  327   3.708   3.470  10.783  0.0592 -0.1922 -0.3109
    1Sil     Ob  328   3.295   3.586  10.778 -0.2012 -0.3523  0.0564
    1Sil     Ob  329   3.832   3.582  11.166  0.4467  0.4996  0.1389
    1Sil     Ob  330   3.514   3.470  10.354  0.4478  0.0958  0.2370
    1Sil     Ob  331   3.758   3.411  10.293 -0.4307 -1.1336  0.0768
    1Sil     Ob  332   3.189   3.421  11.102 -0.0028  0.0020  0.0792
    1Sil     Ob  333   3.469   3.414  10.701  0.4422 -0.0274  0.3846
    1Sil     Ob  334   3.142   3.674  10.583 -0.0422  0.4359  0.4748
    1Sil     Ob  335   3.676   3.644  10.967  0.0250 -0.1264  0.1086
    1Sil     Ob  336   3.373   3.336  12.375 -0.1511  0.7921 -0.0291
    1Sil     Ob  337   3.954   3.328  11.571 -0.5029 -0.2545 -0.3161
    1Sil     Ob  338   3.178   3.839  11.944 -0.3883  0.3959  0.1006
    1Sil     Ob  339   3.710   3.828  12.336 -0.4182  0.3159 -0.0625
    1Sil     Ob  340   3.544   3.724  11.580 -0.8222 -0.1097  0.2390
    1Sil     Ob  341   3.536   3.640  12.397  0.2255  0.9098  0.4217
    1Sil     Ob  342   3.295   3.646  11.624 -0.1708 -0.1877 -0.3873
    1Sil     Ob  343   3.839   3.665  12.004 -0.0237  0.2452  0.5627
    1Sil     Ob  344   3.334   3.406  12.133  0.1784  0.3946  0.5426
    1Sil     Ob  345   3.905   3.388  11.330  0.6038  0.0282 -0.2460
    1Sil     Ob  346   3.619   3.416  11.733 -0.7364 -0.2403  0.1309
    1Sil     Ob  347   3.316   3.584  12.322  0.3623 -0.0498 -0.1579
    1Sil     Ob  348   3.055   3.581  11.527  0.1789  0.6047  0.1876
    1Sil     Ob  349   3.645   3.482  11.986  0.2469  0.9028  0.1945
    1Sil     Ob  350   3.251   3.585  11.972 -0.2515 -0.4513 -0.2929
    1Sil     Ob  351   3.781   3.575  12.355  0.9004 -0.7144 -0.0447
    1Sil     Ob  352   3.468   3.483  11.532  0.4627 -0.5916 -0.4991
    1Sil     Ob  353   3.713   3.405  11.492  0.0860 -0.1292 -0.7702
    1Sil     Ob  354   3.127   3.407  12.301 -0.1162 -0.2506 -0.6548
    1Sil     Ob  355   3.417   3.408  11.893 -0.6297 -0.5819 -0.0281
    1Sil     Ob  356   3.098   3.646  11.775  0.5825  0.1411 -0.0644
    1Sil     Ob  357   3.623   3.667  12.160 -0.0087 -0.6785 -0.2799
    1Sil     Ob  358   3.396   3.658  11.388 -0.1602 -0.1271 -0.2293
    1Sil     Ob  359   3.428   3.840  11.190  0.1732 -0.6446 -0.3207
    1Sil     Ob  360   3.982   3.836  10.396  0.4934  0.0976 -0.1965
    1Sil     Ob  361   3.660   3.718  10.730  0.5543  0.4700 -0.0976
    1Sil     Ob  362   3.218   4.320  10.770  0.1475  0.1368  0.7125
    1Sil     Ob  363   3.767   4.319  11.149  0.2118 -0.4317  0.1531
    1Sil     Ob  364   3.593   4.207  10.362  0.2381  0.7879 -0.1212
    1Sil     Ob  365   3.598   4.144  11.222 -0.1028  0.1969  0.1316
    1Sil     Ob  366   3.352   4.149  10.417  0.1456  0.3298 -0.5270
    1Sil     Ob  367   3.889   4.143  10.822  0.7646  0.2261  0.2584
    1Sil     Ob  368   3.395   3.916  10.951  0.1119 -0.0833 -0.8720
    1Sil     Ob  369   3.659   3.898  10.538 -0.1088  0.7376  0.3699
    1Sil     Ob  370   3.362   4.085  11.143  0.5425  0.5581  0.4896
    1Sil     Ob  371   3.116   4.088  10.353  0.1180 -0.0640  0.0848
    1Sil     Ob  372   3.716   3.958  10.788  0.4141  0.1633 -0.3823
    1Sil     Ob  373   3.314   4.081  10.774 -0.2013 -0.1775  0.0997
    1Sil     Ob  374   3.846   4.074  11.173 -0.0892 -0.0382  0.2694
    1Sil     Ob  375   3.506   3.963  10.332  0.4962 -0.0071  0.0429
    1Sil     Ob  376   3.762   3.900  10.288 -0.3536  0.5700 -0.2124
    1Sil     Ob  377   3.184   3.913  11.101 -0.0333  0.2618 -0.0411
    1Sil     Ob  378   3.474   3.894  10.710 -0.1630 -0.4859 -0.3560
    1Sil     Ob  379   3.152   4.153  10.589 -0.4071  0.8813  0.2890
    1Sil     Ob  380   3.680   4.138  10.979 -0.0302  0.4827 -0.1630
    1Sil     Ob  381   3.371   3.839  12.380  0.3630 -0.7116 -0.0038
    1Sil     Ob  382   3.939   3.829  11.588 -0.0252 -0.2689 -0.0752
    1Sil     Ob  383   3.607   3.726  11.911  0.2257 -0.1514  0.0075
    1Sil     Ob  384   3.188   4.340  11.922 -0.0694 -0.4736  0.4460
    1Sil     Ob  385   3.726   4.317  12.326 -0.0059  0.2779  0.3643
    1Sil     Ob  386   3.547   4.218  11.568 -0.2515 -0.0137 -0.6696
    1Sil     Ob  387   3.550   4.156  12.412  0.2063 -0.2708 -0.2948
    1Sil     Ob  388   3.301   4.141  11.620 -0.0649 -1.0146 -0.3681
    1Sil     Ob  389   3.832   4.152  12.017  0.2316  0.1425  0.2940
    1Sil     Ob  390   3.334   3.902  12.132 -0.0319 -0.3218 -0.4599
    1Sil     Ob  391   3.914   3.893  11.339  0.2700  0.2094 -0.1711
    1Sil     Ob  392   3.630   3.904  11.738 -0.7240  0.1869  0.2254
    1Sil     Ob  393   3.325   4.079  12.308 -0.1216 -0.5616  0.1275
    1Sil     Ob  394   3.063   4.075  11.529 -0.0960 -0.0736  0.3544
    1Sil     Ob  395   3.650   3.966  11.986 -0.4181  0.1054  0.5343
    1Sil     Ob  396   3.249   4.090  11.963  0.2018 -0.4855 -0.3455
    1Sil     Ob  397   3.784   4.074  12.376 -0.5028  0.0931  0.1920
    1Sil     Ob  398   3.471   3.971  11.535 -0.4001 -0.2855  0.1028
    1Sil     Ob  399   3.711   3.904  11.492 -0.2626 -0.1633  0.3882
    1Sil     Ob  400   3.134   3.901  12.290 -0.3586 -0.1577  0.0260
    1Sil     Ob  401   3.419   3.902  11.886 -0.4835  0.6439 -0.7124
    1Sil     Ob  402   3.100   4.148  11.771  0.6227 -0.0713 -0.0093
    1Sil     Ob  403   3.629   4.139  12.174 -0.0773 -0.0470  0.1325
    1Sil     Ob  404   3.387   4.157  11.379 -0.0406 -0.3549 -0.0370
    1Sil     Ob  405   3.417   4.328  11.198 -0.0553 -0.2070  0.0618
    1Sil     Ob  406   3.998   4.318  10.379  0.8009 -0.5821  0.4287
    1Sil     Ob  407   3.648   4.210  10.731 -0.6560 -0.1888 -0.8512
    1Sil     Ob  408   3.228   4.818  10.744  0.3834  0.3271 -0.0920
    1Sil     Ob  409   3.755   4.808  11.152  0.3769 -0.7107  0.1164
    1Sil     Ob  410   3.597   4.699  10.377  0.1005 -0.3945  0.0709
    1Sil     Ob  411   3.583   4.645  11.226 -0.5462  0.2450  0.0528
    1Sil     Ob  412   3.352   4.646  10.427 -0.0051  0.9253  0.1370
    1Sil     Ob  413   3.884   4.638  10.824 -0.9882 -0.3152  0.0610
    1Sil     Ob  414   3.391   4.398  10.950  0.2437 -0.0780 -0.5496
    1Sil     Ob  415   3.676   4.371  10.538 -0.0299 -0.1285 -0.6683
    1Sil     Ob  416   3.364   4.577  11.125  0.2785 -0.1523  0.0945
    1Sil     Ob  417   3.121   4.564  10.334 -0.5565 -0.8328  0.5299
    1Sil     Ob  418   3.706   4.457  10.780 -0.0390 -0.2052 -0.5327
    1Sil     Ob  419   3.303   4.570  10.792 -0.0225  0.0823  0.0270
    1Sil     Ob  420   3.821   4.565  11.182  0.6794  0.2320 -0.3307
    1Sil     Ob  421   3.506   4.453  10.365  0.1737 -0.3617  0.4494
    1Sil     Ob  422   3.750   4.399  10.301  0.2412 -0.1906  0.4553
    1Sil     Ob  423   3.187   4.395  11.100 -0.0893  0.7251 -0.2627
    1Sil     Ob  424   3.472   4.394  10.701 -0.4350  0.0937 -0.0135
    1Sil     Ob  425   3.156   4.621  10.582 -0.0014  0.2984 -0.3439
    1Sil     Ob  426   3.673   4.626  10.974 -0.8170  0.1765  0.9197
    1Sil     Ob  427   3.360   4.338  12.376 -0.1709  0.1564  0.1126
    1Sil     Ob  428   3.959   4.321  11.579  0.8357 -0.1218 -0.1286
    1Sil     Ob  429   3.592   4.215  11.930 -0.1935  0.0482  0.0107
    1Sil     Ob  430   3.176   4.821  11.943 -0.2832  0.7305 -0.3653
    1Sil     Ob  431   3.726   4.813  12.312 -0.7653  0.2253 -0.1541
    1Sil     Ob  432   3.548   4.717  11.578 -0.6003 -0.3262 -0.5755
    1Sil     Ob  433   3.553   4.650  12.412 -0.7484 -0.3615 -0.0737
    1Sil     Ob  434   3.306   4.648  11.619 -0.2260 -0.0251  0.1433
    1Sil     Ob  435   3.841   4.632  12.009  0.3603  0.0057 -0.2115
    1Sil     Ob  436   3.335   4.408  12.126 -0.2260  0.3676  0.2280
    1Sil     Ob  437   3.922   4.394  11.334  0.1479  0.2183  0.7191
    1Sil     Ob  438   3.640   4.373  11.739  0.5665 -0.3548  0.1755
    1Sil     Ob  439   3.322   4.584  12.316 -0.0002 -0.1183  0.3171
    1Sil     Ob  440   3.071   4.567  11.527 -0.0327 -0.8421 -0.4232
    1Sil     Ob  441   3.659   4.463  11.977 -0.4566 -0.5243 -0.5374
    1Sil     Ob  442   3.260   4.579  11.956  0.0249  0.2778 -0.1243
    1Sil     Ob  443   3.791   4.566  12.374 -0.7958 -0.1340  0.7900
    1Sil     Ob  444   3.477   4.465  11.546 -0.2269 -0.3262 -0.2526
    1Sil     Ob  445   3.722   4.386  11.493  0.3212  0.4083 -0.1973
    1Sil     Ob  446   3.132   4.397  12.299  0.0258 -0.2471 -0.1831
    1Sil     Ob  447   3.429   4.390  11.884  0.6240  0.4082 -0.2747
    1Sil     Ob  448   3.102   4.646  11.767  0.2936 -0.6166 -0.4176
    1Sil     Ob  449   3.638   4.633  12.163  0.0364 -0.5571 -0.1914
    1Sil     Ob  450   3.389   4.650  11.380 -0.1317  0.1600 -0.2307
    1Sil     Ob  451   3.408   4.822  11.182 -0.4056  0.0355 -0.2536
    1Sil     Ob  452   4.004   4.819  10.387  0.3247  0.7864 -0.5542
    1Sil     Ob  453   3.648   4.705  10.739  0.2556 -0.1063  0.1130
    1Sil     Ob  454   3.228   5.307  10.745  0.4295  0.0497 -0.2107
    1Sil     Ob  455   3.762   5.307  11.128 -0.0368 -0.1039 -0.5977
    1Sil     Ob  456   3.607   5.206  10.373  0.3989 -0.7661 -0.0162
    1Sil     Ob  457   3.589   5.132  11.198 -0.6078 -1.0106 -0.0912
    1Sil     Ob  458   3.355   5.145  10.430  0.6366  0.1018 -0.2531
    1Sil     Ob  459   3.905   5.124  10.811 -0.6604 -0.1912 -0.4859
    1Sil     Ob  460   3.382   4.887  10.930  0.9290 -0.2249 -0.1387
    1Sil     Ob  461   3.686   4.865  10.552 -0.2430  0.1739  0.1564
    1Sil     Ob  462   3.364   5.067  11.114 -0.5304 -0.1683 -0.0313
    1Sil     Ob  463   3.132   5.047  10.332  0.2944  0.3104 -0.0356
    1Sil     Ob  464   3.709   4.947  10.797  0.4073 -0.2335  0.1688
    1Sil     Ob  465   3.297   5.062  10.773 -0.3877 -0.0008 -0.2353
    1Sil     Ob  466   3.828   5.058  11.168 -0.1149  0.7283  0.7949
    1Sil     Ob  467   3.531   4.953  10.382 -0.1337 -0.3857  0.8831
    1Sil     Ob  468   3.763   4.890  10.306 -0.0237  0.3123  0.0922
    1Sil     Ob  469   3.181   4.882  11.106  0.0352 -0.1761  0.7725
    1Sil     Ob  470   3.479   4.893  10.691 -0.0053 -0.1539  0.2215
    1Sil     Ob  471   3.140   5.125  10.580  0.8073 -0.1242  0.0036
    1Sil     Ob  472   3.688   5.134  10.962  0.1893  0.1926  0.4593
    1Sil     Ob  473   3.357   4.819  12.393  0.1418  0.1957 -0.1771
    1Sil     Ob  474   3.946   4.817  11.583 -0.3013 -0.0723 -0.4223
    1Sil     Ob  475   3.606   4.715  11.925 -0.4525 -0.0652  0.0632
    1Sil     Ob  476   3.171   5.313  11.937  0.3709  0.0792  0.2473
    1Sil     Ob  477   3.721   5.310  12.328 -0.6342  0.1285 -0.0814
    1Sil     Ob  478   3.550   5.207  11.534 -0.8623 -0.0765 -0.2994
    1Sil     Ob  479   3.545   5.144  12.406  0.5925  0.1851 -0.1012
    1Sil     Ob  480   3.306   5.157  11.606  0.1393 -0.7643  0.4970
    1Sil     Ob  481   3.830   5.132  12.015  0.2740  0.0721 -0.0168
    1Sil     Ob  482   3.335   4.894  12.139  0.5187 -0.2902 -0.0820
    1Sil     Ob  483   3.908   4.892  11.345 -0.0217  0.5490 -0.5314
    1Sil     Ob  484   3.629   4.876  11.742  0.2169  0.2355 -0.4329
    1Sil     Ob  485   3.303   5.067  12.332  0.3789  0.3293 -0.4225
    1Sil     Ob  486   3.064   5.069  11.523  0.0731  0.3906 -0.3793
    1Sil     Ob  487   3.652   4.953  11.982 -0.7572  0.3378 -0.6449
    1Sil     Ob  488   3.254   5.071  11.962 -0.2026 -0.0832  0.6486
    1Sil     Ob  489   3.789   5.062  12.353  0.3131  0.5692  0.5112
    1Sil     Ob  490   3.473   4.960  11.549 -0.0672  0.4899 -0.0214
    1Sil     Ob  491   3.713   4.886  11.501 -0.2105 -0.6148 -0.8256
    1Sil     Ob  492   3.126   4.886  12.310  0.9101 -0.0302  0.1103
    1Sil     Ob  493   3.415   4.896  11.891  0.1061 -0.1555  0.3503
    1Sil     Ob  494   3.103   5.133  11.765 -0.2046 -0.0952  0.3661
    1Sil     Ob  495   3.628   5.126  12.167 -0.0196 -0.3016  0.0706
    1Sil     Ob  496   3.386   5.123  11.365 -0.1806 -0.5594 -0.0308
    1Sil     Ob  497   3.409   5.311  11.189  0.2182  0.8217  0.0455
    1Sil     Ob  498   4.003   5.308  10.382  0.0733  0.6429  0.1891
    1Sil     Ob  499   3.678   5.194  10.715  0.2967 -0.1965  0.1004
    1Sil     Ob  500   3.229   5.795  10.736 -0.2100  0.0371  0.2454
    1Sil     Ob  501   3.768   5.803  11.141  0.0336  0.1972 -0.5216
    1Sil     Ob  502   3.599   5.698  10.360  0.6153  0.2836  0.8053
    1Sil     Ob  503   3.599   5.625  11.215 -0.4390 -0.3002 -0.0423
    1Sil     Ob  504   3.359   5.613  10.417 -0.3747 -0.8216  0.1304
    1Sil     Ob  505   3.892   5.621  10.814  0.3560 -0.0400 -0.1739
    1Sil     Ob  506   3.384   5.382  10.940 -0.2097 -0.1239  0.2354
    1Sil     Ob  507   3.681   5.388  10.541  0.3659  0.3939  0.2555
    1Sil     Ob  508   3.360   5.556  11.128 -0.7721 -0.5427 -0.6207
    1Sil     Ob  509   3.135   5.548  10.318 -0.7218  0.1368 -0.4244
    1Sil     Ob  510   3.703   5.446  10.787  0.1812  0.3656  0.0442
    1Sil     Ob  511   3.311   5.550  10.759  0.1799  0.8024  0.0700
    1Sil     Ob  512   3.840   5.550  11.161 -0.1268 -0.6442 -0.0287
    1Sil     Ob  513   3.533   5.455  10.332 -0.7396 -0.4130 -0.0243
    1Sil     Ob  514   3.777   5.381  10.299 -0.2960 -0.0242  0.1557
    1Sil     Ob  515   3.177   5.373  11.101  0.5207 -0.0982  0.1549
    1Sil     Ob  516   3.477   5.361  10.702 -0.8849  0.2185  0.1902
    1Sil     Ob  517   3.155   5.610  10.572 -1.0607 -0.0045  0.5428
    1Sil     Ob  518   3.683   5.620  10.971  0.0207  0.0726 -0.5478
    1Sil     Ob  519   3.363   5.318  12.373 -0.0936 -0.9536 -0.1284
    1Sil     Ob  520   3.947   5.319  11.584 -0.3091  0.3474  0.5500
    1Sil     Ob  521   3.599   5.205  11.922 -0.3110  0.6511  0.1438
    1Sil     Ob  522   3.169   5.804  11.931  0.4958 -0.9053 -0.7545
    1Sil     Ob  523   3.712   5.800  12.332  0.1855 -0.2960  0.6114
    1Sil     Ob  524   3.539   5.695  11.564  0.3452  0.2438  0.0426
    1Sil     Ob  525   3.533   5.621  12.401 -0.0458  0.1956  0.2442
    1Sil     Ob  526   3.298   5.631  11.616 -0.2023  0.0175  0.3140
    1Sil     Ob  527   3.831   5.633  12.020  0.0842 -0.0921 -0.4618
    1Sil     Ob  528   3.323   5.386  12.129 -0.1507  0.4830  0.4510
    1Sil     Ob  529   3.915   5.380  11.329 -0.0996  0.4432  0.1862
    1Sil     Ob  530   3.632   5.372  11.728  0.4398  0.1984  0.9048
    1Sil     Ob  531   3.295   5.555  12.322 -0.4465  0.1098  0.1492
    1Sil     Ob  532   3.070   5.557  11.526 -0.1449 -0.1462  0.0832
    1Sil     Ob  533   3.656   5.451  11.970 -0.5040 -0.1581 -0.9246
    1Sil     Ob  534   3.245   5.556  11.968 -0.0981  0.3718 -0.5520
    1Sil     Ob  535   3.790   5.558  12.375 -0.0031 -0.5710  0.1588
    1Sil     Ob  536   3.469   5.452  11.549 -0.0794 -0.0493  0.1275
    1Sil     Ob  537   3.716   5.395  11.482 -0.0187 -0.6811  0.2172
    1Sil     Ob  538   3.134   5.369  12.293 -0.0007 -0.2965  0.5042
    1Sil     Ob  539   3.419   5.379  11.887 -0.7361  0.2084  0.9391
    1Sil     Ob  540   3.097   5.614  11.772  0.4413  0.4145  0.3856
    1Sil     Ob  541   3.623   5.626  12.163  0.3114  0.0532 -0.3627
    1Sil     Ob  542   3.381   5.638  11.375 -0.0781  0.0463  0.0272
    1Sil     Ob  543   3.422   5.798  11.174 -0.1187 -0.7116 -0.3471
    1Sil     Ob  544   4.006   5.807  10.400  0.2077  0.0564 -0.0909
    1Sil     Ob  545   3.658   5.691  10.732 -0.4340 -0.5045 -0.0391
    1Sil     Ob  546   3.228   6.291  10.733 -0.1572  0.2927  0.1139
    1Sil     Ob  547   3.767   6.293  11.131  0.2154  0.0828 -1.1492
    1Sil     Ob  548   3.598   6.188  10.365  0.4183 -0.4475 -0.2953
    1Sil     Ob  549   3.594   6.133  11.215 -1.3033 -0.1988  0.8924
    1Sil     Ob  550   3.348   6.126  10.409  0.2427 -0.4874  0.0189
    1Sil     Ob  551   3.896   6.113  10.810  0.3826 -0.3086 -0.0237
    1Sil     Ob  552   3.382   5.874  10.935 -0.1551  0.6477 -0.2741
    1Sil     Ob  553   3.694   5.864  10.545  0.2723  0.1825 -0.4399
    1Sil     Ob  554   3.366   6.053  11.123  0.4038  0.1144  0.4759
    1Sil     Ob  555   3.122   6.050  10.325 -0.7240  0.6478  0.0213
    1Sil     Ob  556   3.712   5.926  10.781  0.4888 -0.4820 -0.1447
    1Sil     Ob  557   3.307   6.042  10.771  0.7308 -0.5507  0.1639
    1Sil     Ob  558   3.842   6.047  11.166 -1.0322 -0.1100  0.4045
    1Sil     Ob  559   3.527   5.945  10.357 -0.4048  0.3133  0.3574
    1Sil     Ob  560   3.770   5.890  10.297 -0.0707  0.1196  0.1245
    1Sil     Ob  561   3.188   5.864  11.097  0.5375  0.0711 -0.8595
    1Sil     Ob  562   3.475   5.873  10.682 -0.1733 -0.7751 -0.1191
    1Sil     Ob  563   3.154   6.104  10.571  0.2951  0.8898  0.6670
    1Sil     Ob  564   3.686   6.105  10.966  0.2183  0.7360 -0.1243
    1Sil     Ob  565   3.360   5.805  12.370 -0.4291  0.1744 -0.1584
    1Sil     Ob  566   3.949   5.802  11.588 -0.4996 -0.1516  0.3983
    1Sil     Ob  567   3.595   5.694  11.916 -0.1304  0.9680  0.3290
    1Sil     Ob  568   3.173   6.296  11.941 -0.2423 -0.1204 -0.0208
    1Sil     Ob  569   3.717   6.284  12.326 -0.6209 -0.0870  0.2076
    1Sil     Ob  570   3.537   6.194  11.569  0.0314 -0.2947  0.0789
    1Sil     Ob  571   3.539   6.121  12.409 -0.1180 -0.2159  0.2718
    1Sil     Ob  572   3.294   6.118  11.606  0.1688 -0.3203 -0.2307
    1Sil     Ob  573   3.834   6.105  12.010  0.0013  0.2517 -0.4762
    1Sil     Ob  574   3.324   5.879  12.123  0.5614  0.4851  0.0597
    1Sil     Ob  575   3.926   5.864  11.336 -0.0758 -0.0656 -0.1586
    1Sil     Ob  576   3.611   5.873  11.728 -0.2340 -0.1472 -0.0787
    1Sil     Ob  577   3.317   6.057  12.319  0.2972  0.0605  0.2817
    1Sil     Ob  578   3.058   6.048  11.517  0.3634 -0.4036  0.7044
    1Sil     Ob  579   3.650   5.941  11.975 -0.2558  0.2409  0.4008
    1Sil     Ob  580   3.247   6.055  11.950  0.8185 -0.4233 -0.2301
    1Sil     Ob  581   3.779   6.044  12.363  0.2155 -0.0408 -0.3313
    1Sil     Ob  582   3.474   5.950  11.515  0.0782  0.0994  0.1421
    1Sil     Ob  583   3.719   5.866  11.489 -0.3739  0.3740 -0.2635
    1Sil     Ob  584   3.134   5.883  12.287  0.6118  0.2736  0.3383
    1Sil     Ob  585   3.416   5.880  11.876 -0.0927 -0.3098  0.1224
    1Sil     Ob  586   3.080   6.127  11.762 -0.2783  0.1470  0.0987
    1Sil     Ob  587   3.625   6.119  12.161  0.8150  0.4313  0.5201
    1Sil     Ob  588   3.383   6.129  11.353 -0.3950  0.1888 -0.5863
    1Sil     Ob  589   3.414   6.298  11.176 -0.0914 -0.4601 -0.3747
    1Sil     Ob  590   4.001   6.303  10.390  0.2396 -0.1498 -0.2065
    1Sil     Ob  591   3.667   6.179  10.728  0.6469 -0.2492  0.4984
    1Sil     Ob  592   3.591   3.164  11.213 -0.0922  0.4548 -0.0517
    1Sil     Ob  593   3.358   3.168  10.407  0.4072  0.2634  0.3682
    1Sil     Ob  594   3.887   3.161  10.826  0.2640  0.0639  0.8119
    1Sil     Ob  595   3.383   6.372  10.935  0.2165  0.0561 -0.3964
    1Sil     Ob  596   3.690   6.351  10.546 -0.1199 -0.3871  0.4544
    1Sil     Ob  597   3.360   6.545  11.112  0.1186  0.6125 -0.1979
    1Sil     Ob  598   3.119   6.536  10.321  0.0669 -0.5505  0.3827
    1Sil     Ob  599   3.712   6.423  10.792  0.3798 -0.7712 -0.2726
    1Sil     Ob  600   3.305   3.085  10.759  0.1859  0.1231 -0.1991
    1Sil     Ob  601   3.832   3.088  11.170  0.0001  0.3698 -0.0676
    1Sil     Ob  602   3.522   2.979  10.349 -0.2898 -0.4774 -0.1944
    1Sil     Ob  603   3.769   6.373  10.295  0.5448 -0.5920 -0.1153
    1Sil     Ob  604   3.181   6.367  11.084  0.3869  0.1613 -1.2080
    1Sil     Ob  605   3.480   6.352  10.700 -0.7960 -0.3359 -0.2490
    1Sil     Ob  606   3.151   3.163  10.568  0.1802 -0.0344 -0.0716
    1Sil     Ob  607   3.685   3.135  10.975 -0.0301 -0.5044 -0.5578
    1Sil     Ob  608   3.348   6.302  12.390  1.3517 -0.4995  0.2713
    1Sil     Ob  609   3.927   6.296  11.590 -0.4010  0.4473 -0.5979
    1Sil     Ob  610   3.614   6.180  11.916 -0.5548  0.0726 -0.3154
    1Sil     Ob  611   3.533   3.131  12.396  0.6373 -0.0622 -0.5148
    1Sil     Ob  612   3.304   3.168  11.607  0.3820  0.0466 -0.5116
    1Sil     Ob  613   3.841   3.167  12.015 -0.3301 -0.2748 -0.1472
    1Sil     Ob  614   3.333   6.376  12.136  0.0215 -0.6256 -0.9034
    1Sil     Ob  615   3.916   6.349  11.343 -0.3911 -0.0321  0.1326
    1Sil     Ob  616   3.624   6.356  11.730  0.0115  0.5024 -0.0971
    1Sil     Ob  617   3.300   6.544  12.330 -0.4764 -0.0387  0.2112
    1Sil     Ob  618   3.069   6.541  11.512 -0.7908 -0.1674 -0.2203
    1Sil     Ob  619   3.649   6.437  11.978 -0.3771 -0.6788  0.2942
    1Sil     Ob  620   3.260   3.090  11.949 -0.0146  0.5322 -0.8168
    1Sil     Ob  621   3.791   3.076  12.348  0.5181  0.4850  0.2041
    1Sil     Ob  622   3.466   2.987  11.541 -0.0997  0.0869 -0.1649
    1Sil     Ob  623   3.708   6.362  11.493  0.4187  0.1964  0.1631
    1Sil     Ob  624   3.124   6.367  12.300  0.0959  0.5133 -0.0164
    1Sil     Ob  625   3.416   6.350  11.878 -0.3872 -0.5914 -0.0456
    1Sil     Ob  626   3.090   3.167  11.767  0.2335  0.2927  0.1200
    1Sil     Ob  627   3.624   3.158  12.163 -0.0934 -0.2762  0.1728
    1Sil     Ob  628   3.385   3.151  11.362  0.0982  0.9611 -0.5799
    1Sil     Ob  629   4.231   3.348  11.189  0.0779  0.3922  0.0971
    1Sil     Ob  630   4.827   3.337  10.382 -0.5869 -0.5019  0.1474
    1Sil     Ob  631   4.055   3.833  10.752 -0.4605 -1.1562 -0.0314
    1Sil     Ob  632   4.598   3.820  11.148  0.3077 -0.0985 -0.0659
    1Sil     Ob  633   4.429   3.730  10.376  0.0456  0.2430  0.6746
    1Sil     Ob  634   4.425   3.641  11.215  0.0305  0.4246 -0.2035
    1Sil     Ob  635   4.175   3.677  10.430  0.5346  0.5418 -0.3957
    1Sil     Ob  636   4.719   3.660  10.823 -0.3706 -0.3155  0.3762
    1Sil     Ob  637   4.213   3.407  10.943 -0.0159 -0.0862  0.3294
    1Sil     Ob  638   4.517   3.406  10.540 -0.1656  0.8220 -0.1940
    1Sil     Ob  639   4.186   3.590  11.127  0.0710  0.0076 -0.1717
    1Sil     Ob  640   3.936   3.591  10.348  0.2905 -0.3363 -0.1917
    1Sil     Ob  641   4.529   3.478  10.794  0.0572 -0.4528 -0.3642
    1Sil     Ob  642   4.137   3.578  10.771 -0.0149  0.5058  0.4076
    1Sil     Ob  643   4.678   3.576  11.168 -0.4607 -0.3551  0.6081
    1Sil     Ob  644   4.351   3.488  10.359  0.2359 -0.3832  0.7004
    1Sil     Ob  645   4.594   3.407  10.295  0.4423  0.0611 -0.4077
    1Sil     Ob  646   4.007   3.411  11.097  0.2420 -0.3841  0.3151
    1Sil     Ob  647   4.307   3.393  10.694 -0.3022 -0.5707 -0.1758
    1Sil     Ob  648   3.976   3.665  10.585  0.5911 -0.4797 -0.0293
    1Sil     Ob  649   4.511   3.649  10.974  0.2084  0.5092  0.0980
    1Sil     Ob  650   4.196   3.341  12.380  0.1842  0.3014 -0.2715
    1Sil     Ob  651   4.780   3.331  11.575 -0.3698  0.3234  0.4573
    1Sil     Ob  652   4.018   3.834  11.927 -0.6639  0.4981  0.0071
    1Sil     Ob  653   4.540   3.817  12.325 -0.3318 -0.3319  0.1009
    1Sil     Ob  654   4.382   3.724  11.561 -0.0337  0.2919 -0.0806
    1Sil     Ob  655   4.365   3.647  12.404 -0.5767  0.4430 -0.0895
    1Sil     Ob  656   4.135   3.665  11.619  0.9208 -0.4838  0.0514
    1Sil     Ob  657   4.669   3.653  12.020 -0.3477  0.6572  0.3384
    1Sil     Ob  658   4.164   3.405  12.126 -0.4507 -0.3543 -0.4697
    1Sil     Ob  659   4.760   3.404  11.338  0.4249  0.2883 -0.3177
    1Sil     Ob  660   4.457   3.414  11.741 -0.0110  0.0580 -0.2484
    1Sil     Ob  661   4.132   3.580  12.309  0.3572 -0.0637  0.2701
    1Sil     Ob  662   3.907   3.580  11.513 -0.2630 -0.7564 -0.8310
    1Sil     Ob  663   4.489   3.470  11.983 -0.1827 -0.1514  0.2602
    1Sil     Ob  664   4.077   3.583  11.966  0.3085 -0.2163 -0.4886
    1Sil     Ob  665   4.610   3.574  12.371  0.1941 -0.0277  0.3966
    1Sil     Ob  666   4.295   3.480  11.541 -0.5819 -0.2939 -0.3754
    1Sil     Ob  667   4.549   3.399  11.493 -0.0257  0.5516 -0.3054
    1Sil     Ob  668   3.953   3.402  12.285  0.4580  0.0507  0.4381
    1Sil     Ob  669   4.257   3.412  11.883  0.7026 -0.4122  0.0936
    1Sil     Ob  670   3.931   3.651  11.764 -0.5315  0.2769 -0.1497
    1Sil     Ob  671   4.455   3.632  12.174 -0.3321 -0.0572  0.3694
    1Sil     Ob  672   4.216   3.661  11.373  0.0657  0.6430  0.1456
    1Sil     Ob  673   4.256   3.828  11.176 -0.3862 -0.0024  0.4159
    1Sil     Ob  674   4.828   3.832  10.396 -0.3031  0.1546  0.4966
    1Sil     Ob  675   4.493   3.722  10.722 -0.0501  0.6490 -0.4743
    1Sil     Ob  676   4.058   4.334  10.766 -0.4846 -0.8718 -0.1703
    1Sil     Ob  677   4.596   4.319  11.153  0.1237 -0.1075 -0.5230
    1Sil     Ob  678   4.419   4.218  10.373  0.3051  0.0518 -0.0739
    1Sil     Ob  679   4.415   4.146  11.221 -0.0050 -0.2999  0.4756
    1Sil     Ob  680   4.178   4.136  10.425 -0.1364 -0.2383 -0.0766
    1Sil     Ob  681   4.721   4.144  10.828  0.2202 -0.1937 -0.1912
    1Sil     Ob  682   4.212   3.907  10.929 -0.2411 -0.4033 -0.1218
    1Sil     Ob  683   4.513   3.908  10.542 -0.7151  0.3990  0.5434
    1Sil     Ob  684   4.198   4.073  11.130  0.4807 -0.2781 -0.0640
    1Sil     Ob  685   3.930   4.080  10.340  0.4575  0.5699 -0.5088
    1Sil     Ob  686   4.525   3.967  10.790 -0.3250  0.3250 -0.0488
    1Sil     Ob  687   4.133   4.082  10.758 -0.5363 -0.4318 -0.4273
    1Sil     Ob  688   4.660   4.068  11.179  0.6494 -0.4911  0.5190
    1Sil     Ob  689   4.365   3.974  10.342 -0.6700  0.0492 -0.1545
    1Sil     Ob  690   4.602   3.911  10.305  0.2581  0.1759  0.0992
    1Sil     Ob  691   4.021   3.887  11.105 -0.1469  0.6936  0.3458
    1Sil     Ob  692   4.299   3.894  10.691  0.3159  0.2242  0.0914
    1Sil     Ob  693   3.971   4.174  10.574 -0.1787 -0.2007  0.0258
    1Sil     Ob  694   4.509   4.135  10.980 -0.9999 -0.2993  0.2695
    1Sil     Ob  695   4.179   3.828  12.370  0.1761  0.0704  0.4613
    1Sil     Ob  696   4.786   3.825  11.587 -0.0765 -0.6646  0.3475
    1Sil     Ob  697   4.435   3.725  11.926  0.1538 -0.6279 -0.5874
    1Sil     Ob  698   4.007   4.321  11.943  0.3460 -0.3042 -0.0901
    1Sil     Ob  699   4.558   4.314  12.332 -0.4367 -0.2076  0.3293
    1Sil     Ob  700   4.367   4.218  11.576  0.2812 -0.3417  0.4295
    1Sil     Ob  701   4.382   4.143  12.409  0.1196  0.2952 -1.1098
    1Sil     Ob  702   4.134   4.138  11.619  0.2995  0.4102  0.3388
    1Sil     Ob  703   4.685   4.135  12.024  0.2772 -0.1092  0.0690
    1Sil     Ob  704   4.162   3.905  12.132 -0.1916  0.0905 -0.2650
    1Sil     Ob  705   4.766   3.898  11.342  0.2743  0.0502  0.1079
    1Sil     Ob  706   4.468   3.905  11.730  0.5893  0.3738 -0.3018
    1Sil     Ob  707   4.152   4.072  12.316 -0.7199 -0.4276  0.3666
    1Sil     Ob  708   3.899   4.074  11.524  0.2358  0.5431 -0.5935
    1Sil     Ob  709   4.491   3.973  11.980 -0.2267  0.8723 -1.0271
    1Sil     Ob  710   4.076   4.076  11.974 -0.2612  0.0041  0.7187
    1Sil     Ob  711   4.617   4.063  12.360 -0.3267  0.0323  0.4215
    1Sil     Ob  712   4.311   3.972  11.537  0.5360 -0.5834 -0.3888
    1Sil     Ob  713   4.557   3.893  11.488  0.1847  0.0350 -0.5441
    1Sil     Ob  714   3.951   3.911  12.278 -0.1338 -0.6491 -0.1779
    1Sil     Ob  715   4.258   3.914  11.890  0.1083  0.4746 -0.1603
    1Sil     Ob  716   3.929   4.149  11.778  0.5925  0.4361 -0.6245
    1Sil     Ob  717   4.474   4.131  12.174 -0.2057  0.0907 -0.0708
    1Sil     Ob  718   4.213   4.157  11.379  0.8342 -0.7920  0.1562
    1Sil     Ob  719   4.235   4.329  11.191  0.0597 -0.4490 -0.3278
    1Sil     Ob  720   4.823   4.332  10.401 -0.0677  0.4030 -0.0906
    1Sil     Ob  721   4.486   4.214  10.730 -0.5763 -0.4703  0.5206
    1Sil     Ob  722   4.055   4.820  10.759  0.3539  0.3606  0.1068
    1Sil     Ob  723   4.592   4.817  11.146  0.1884 -0.2746  0.7889
    1Sil     Ob  724   4.428   4.709  10.372 -0.4349 -0.1369  0.3103
    1Sil     Ob  725   4.429   4.643  11.216  0.2631  0.2821  0.1578
    1Sil     Ob  726   4.176   4.634  10.425 -0.4405 -0.3070  0.0364
    1Sil     Ob  727   4.731   4.642  10.817  0.0885 -0.4251 -0.3358
    1Sil     Ob  728   4.212   4.408  10.949 -0.5390  0.9910 -0.1557
    1Sil     Ob  729   4.504   4.395  10.539 -0.4112 -0.0921  0.0617
    1Sil     Ob  730   4.200   4.578  11.131  0.4444 -0.4594  0.4952
    1Sil     Ob  731   3.944   4.572  10.329  0.1918 -0.0072 -0.1093
    1Sil     Ob  732   4.541   4.469  10.785 -0.2572 -0.1679 -0.5097
    1Sil     Ob  733   4.129   4.575  10.763  0.3884 -0.8298  0.0892
    1Sil     Ob  734   4.676   4.566  11.153  0.2368 -0.1115  0.8551
    1Sil     Ob  735   4.347   4.463  10.343 -0.2084 -0.2011  0.0815
    1Sil     Ob  736   4.595   4.395  10.298 -0.1942  0.2492  0.1682
    1Sil     Ob  737   4.006   4.399  11.095  0.1649 -0.8037 -0.0517
    1Sil     Ob  738   4.312   4.391  10.699  0.1521  0.2058 -0.4029
    1Sil     Ob  739   3.963   4.654  10.575 -0.1832 -0.0645 -0.0417
    1Sil     Ob  740   4.509   4.648  10.964  0.4222 -0.3085 -0.2453
    1Sil     Ob  741   4.195   4.316  12.374  0.0734 -0.1823 -0.1573
    1Sil     Ob  742   4.784   4.320  11.587  0.5069 -0.3072  0.6622
    1Sil     Ob  743   4.455   4.227  11.929  0.5165 -0.2371 -0.5518
    1Sil     Ob  744   4.014   4.809  11.957  0.3382  0.4602 -0.2994
    1Sil     Ob  745   4.557   4.802  12.346 -0.0775 -0.4600  0.5040
    1Sil     Ob  746   4.373   4.711  11.565 -0.7827  0.0579  0.7796
    1Sil     Ob  747   4.383   4.633  12.420  0.7365 -0.3185 -0.2765
    1Sil     Ob  748   4.138   4.643  11.614 -0.2747 -0.1206 -0.9590
    1Sil     Ob  749   4.680   4.638  12.027 -0.1000  0.3395  0.3650
    1Sil     Ob  750   4.158   4.389  12.136 -0.0838 -0.2057  0.2819
    1Sil     Ob  751   4.753   4.408  11.344 -0.0671  0.6537  0.0080
    1Sil     Ob  752   4.455   4.402  11.737 -0.0923 -0.1681 -0.3153
    1Sil     Ob  753   4.149   4.570  12.323  0.4750  0.6892  0.3384
    1Sil     Ob  754   3.901   4.568  11.526  0.0692 -0.2960 -0.0672
    1Sil     Ob  755   4.495   4.463  11.993  0.4281 -0.0547 -0.4593
    1Sil     Ob  756   4.083   4.565  11.971  0.5623 -0.0705 -0.4319
    1Sil     Ob  757   4.621   4.551  12.371 -0.2310 -0.4806 -0.1835
    1Sil     Ob  758   4.296   4.457  11.555 -0.0518  0.3932 -0.5470
    1Sil     Ob  759   4.543   4.388  11.490  0.0240 -0.0378  0.0349
    1Sil     Ob  760   3.961   4.394  12.289 -0.0001  0.2355 -0.1000
    1Sil     Ob  761   4.257   4.387  11.900  0.5149 -0.1204  0.0287
    1Sil     Ob  762   3.924   4.649  11.775  0.3472  0.2298  0.2658
    1Sil     Ob  763   4.468   4.633  12.175  0.1763 -0.0036  0.2507
    1Sil     Ob  764   4.218   4.634  11.377  0.2423  0.1195 -0.6039
    1Sil     Ob  765   4.235   4.818  11.192 -0.5199  0.3036  0.5685
    1Sil     Ob  766   4.825   4.817  10.397 -0.1691  0.0930  0.0589
    1Sil     Ob  767   4.514   4.712  10.708  0.2566 -0.2192  0.0898
    1Sil     Ob  768   4.075   5.315  10.745  0.0739 -0.3797  0.2899
    1Sil     Ob  769   4.600   5.306  11.140  0.6194  0.6307  0.0083
    1Sil     Ob  770   4.428   5.197  10.347  0.1706 -0.0283  0.1975
    1Sil     Ob  771   4.418   5.143  11.219  0.2957  0.2504  0.1298
    1Sil     Ob  772   4.185   5.140  10.402  0.1032  0.3002 -0.2076
    1Sil     Ob  773   4.714   5.130  10.829  0.2187 -0.0390 -0.4808
    1Sil     Ob  774   4.219   4.904  10.947 -0.4009 -0.2918  0.0826
    1Sil     Ob  775   4.497   4.898  10.540 -0.0243 -0.7657  0.4384
    1Sil     Ob  776   4.181   5.063  11.143 -1.3861 -0.5473  0.0897
    1Sil     Ob  777   3.949   5.064  10.326 -0.1012 -0.1068  0.0471
    1Sil     Ob  778   4.533   4.946  10.789 -0.3926 -0.0464 -0.1956
    1Sil     Ob  779   4.151   5.059  10.742  0.1983  0.1253  0.1279
    1Sil     Ob  780   4.661   5.061  11.188  0.5133  0.0022  0.4650
    1Sil     Ob  781   4.346   4.953  10.347 -0.2182  0.4883  0.4495
    1Sil     Ob  782   4.594   4.903  10.313  0.4814  0.3697 -0.3096
    1Sil     Ob  783   4.003   4.883  11.098 -0.1305 -0.4048  0.1948
    1Sil     Ob  784   4.304   4.863  10.702  0.6973 -0.0652 -0.3693
    1Sil     Ob  785   3.980   5.149  10.567  0.2124 -0.2481 -0.0456
    1Sil     Ob  786   4.512   5.115  10.976  0.2198  0.0278 -0.2060
    1Sil     Ob  787   4.207   4.818  12.389  0.0183  0.5444 -0.4198
    1Sil     Ob  788   4.768   4.816  11.600 -0.0054 -0.1085 -0.0043
    1Sil     Ob  789   4.453   4.709  11.929 -0.3147  0.0917 -0.2233
    1Sil     Ob  790   4.012   5.308  11.959  0.5547 -0.3253  0.2306
    1Sil     Ob  791   4.550   5.312  12.346  0.1258  0.2383 -0.1053
    1Sil     Ob  792   4.375   5.202  11.570  0.3361 -0.4872  0.4766
    1Sil     Ob  793   4.386   5.129  12.410 -0.0955 -0.1899  0.4915
    1Sil     Ob  794   4.134   5.147  11.625 -1.0807  0.2303 -0.8181
    1Sil     Ob  795   4.671   5.125  12.010 -0.5208  0.6776  0.0238
    1Sil     Ob  796   4.170   4.893  12.144  0.2684 -0.6954  0.4193
    1Sil     Ob  797   4.740   4.877  11.343 -0.1399 -0.1450  0.3445
    1Sil     Ob  798   4.455   4.882  11.740 -0.2476 -0.2332  0.1167
    1Sil     Ob  799   4.148   5.061  12.340  0.2903  0.6271 -0.3024
    1Sil     Ob  800   3.897   5.054  11.535 -0.1195 -0.1438  0.2973
    1Sil     Ob  801   4.490   4.960  11.983 -0.2654 -0.1981  0.1957
    1Sil     Ob  802   4.079   5.059  11.976 -0.1575 -0.3920 -0.3747
    1Sil     Ob  803   4.623   5.059  12.363  0.2308  0.2093  0.5762
    1Sil     Ob  804   4.298   4.961  11.535 -0.0164  0.5835  0.2275
    1Sil     Ob  805   4.540   4.890  11.495  1.0004  0.1231  0.0262
    1Sil     Ob  806   3.971   4.885  12.305  0.7773  0.0975 -0.0032
    1Sil     Ob  807   4.256   4.890  11.895  0.1983  0.3877  0.3473
    1Sil     Ob  808   3.930   5.145  11.778  0.0295  0.1994 -0.6985
    1Sil     Ob  809   4.464   5.132  12.173 -0.4741 -0.1627  0.3268
    1Sil     Ob  810   4.211   5.149  11.381  0.2000  0.3023  0.5541
    1Sil     Ob  811   4.228   5.321  11.188 -0.9936  0.0481  0.1047
    1Sil     Ob  812   4.816   5.313  10.411 -0.2136  0.2741  0.0964
    1Sil     Ob  813   4.486   5.189  10.735  1.1989 -0.4401  0.2275
    1Sil     Ob  814   4.055   5.802  10.748 -0.0274 -0.3631  0.6452
    1Sil     Ob  815   4.583   5.789  11.149 -0.0798 -0.1819 -0.8053
    1Sil     Ob  816   4.436   5.694  10.368 -0.8314 -0.7553 -0.0270
    1Sil     Ob  817   4.415   5.607  11.203  0.2489 -0.4994 -0.0635
    1Sil     Ob  818   4.192   5.631  10.420 -0.0813 -0.2393  0.3154
    1Sil     Ob  819   4.716   5.638  10.817 -0.0635  0.2538  0.6567
    1Sil     Ob  820   4.213   5.383  10.942 -1.1553 -0.1329  0.3628
    1Sil     Ob  821   4.517   5.344  10.546  0.0868 -0.9551  0.1023
    1Sil     Ob  822   4.184   5.555  11.133  0.3622  0.1058  0.4342
    1Sil     Ob  823   3.954   5.558  10.343  0.0491 -0.0779  0.1580
    1Sil     Ob  824   4.544   5.444  10.779 -0.1462 -0.5937 -0.7254
    1Sil     Ob  825   4.144   5.559  10.778 -0.3074  0.0385 -0.2957
    1Sil     Ob  826   4.663   5.541  11.162 -0.6784 -0.2056 -0.4376
    1Sil     Ob  827   4.354   5.443  10.369  0.0585  0.7276 -0.3066
    1Sil     Ob  828   4.596   5.387  10.305 -0.0816 -0.3509  0.1605
    1Sil     Ob  829   4.006   5.381  11.092 -0.3906 -0.2204 -0.5343
    1Sil     Ob  830   4.309   5.377  10.697 -0.2625 -0.1848  0.2820
    1Sil     Ob  831   3.992   5.620  10.582  0.2437 -0.0656  0.2996
    1Sil     Ob  832   4.506   5.625  10.967 -0.7252 -0.0445 -0.3677
    1Sil     Ob  833   4.185   5.307  12.403  0.4674 -0.1795 -0.3007
    1Sil     Ob  834   4.783   5.307  11.577  0.4614 -0.1930 -0.4195
    1Sil     Ob  835   4.449   5.206  11.924 -0.0352 -0.2555  0.3300
    1Sil     Ob  836   4.011   5.800  11.939 -0.0500  0.5006 -0.1419
    1Sil     Ob  837   4.551   5.791  12.348  0.0428  0.2584 -0.0891
    1Sil     Ob  838   4.373   5.693  11.563  0.0480 -0.1199 -0.1207
    1Sil     Ob  839   4.383   5.611  12.413  0.1113 -0.1507  0.0283
    1Sil     Ob  840   4.141   5.633  11.617  0.2511 -0.1642 -0.8209
    1Sil     Ob  841   4.674   5.618  12.009  0.2934 -0.2111 -0.2376
    1Sil     Ob  842   4.174   5.368  12.145  0.0432  0.3337 -0.1480
    1Sil     Ob  843   4.753   5.383  11.334 -0.1962  0.2478 -0.3240
    1Sil     Ob  844   4.448   5.380  11.740  0.3239  0.4401 -0.2672
    1Sil     Ob  845   4.142   5.548  12.333 -0.2646 -0.3377 -0.2602
    1Sil     Ob  846   3.919   5.566  11.517  0.2218 -0.4760 -0.1006
    1Sil     Ob  847   4.475   5.449  11.982  0.6028 -0.0873  0.1854
    1Sil     Ob  848   4.083   5.549  11.981  1.0390  0.3650  0.0014
    1Sil     Ob  849   4.630   5.543  12.361  0.6069  0.0000 -0.0142
    1Sil     Ob  850   4.310   5.447  11.531 -0.3252  0.2011 -0.3130
    1Sil     Ob  851   4.550   5.369  11.486  1.2643  0.4805 -0.1160
    1Sil     Ob  852   3.966   5.380  12.304  0.4090 -0.4072  0.2834
    1Sil     Ob  853   4.248   5.369  11.896 -0.2870 -0.3655 -0.5511
    1Sil     Ob  854   3.930   5.630  11.771  0.1004  0.2669  0.3129
    1Sil     Ob  855   4.469   5.611  12.175 -0.2382  0.4907  0.2756
    1Sil     Ob  856   4.218   5.631  11.370 -0.5336  0.1612  0.7692
    1Sil     Ob  857   4.247   5.793  11.178 -0.1760 -0.0548 -0.4029
    1Sil     Ob  858   4.813   5.805  10.402 -0.7173 -0.2356 -0.1045
    1Sil     Ob  859   4.489   5.686  10.725 -0.1503  0.0646  0.3649
    1Sil     Ob  860   4.061   6.296  10.736 -0.3959 -0.2671  0.1114
    1Sil     Ob  861   4.609   6.288  11.138 -0.1035  0.0913  0.5420
    1Sil     Ob  862   4.436   6.190  10.365  0.2335 -0.0582 -0.3445
    1Sil     Ob  863   4.418   6.123  11.222 -0.6109  0.0993 -0.0877
    1Sil     Ob  864   4.184   6.123  10.431  0.2734 -0.0497  0.3238
    1Sil     Ob  865   4.714   6.115  10.824 -0.1770  0.6717 -0.4336
    1Sil     Ob  866   4.219   5.877  10.934  0.0815 -0.4910  0.0339
    1Sil     Ob  867   4.505   5.873  10.538 -0.2500 -0.1968 -0.1805
    1Sil     Ob  868   4.188   6.049  11.127  0.1247 -0.0855  0.7533
    1Sil     Ob  869   3.955   6.058  10.320  0.1561  0.6332 -0.0497
    1Sil     Ob  870   4.520   5.934  10.801 -0.5616  0.4160  0.7473
    1Sil     Ob  871   4.134   6.047  10.764  0.5187  0.0861  0.3282
    1Sil     Ob  872   4.665   6.043  11.183 -0.3614 -0.3644  0.4313
    1Sil     Ob  873   4.353   5.943  10.348  0.4550  0.0878 -0.0825
    1Sil     Ob  874   4.604   5.880  10.292  0.4023 -0.1355  0.3608
    1Sil     Ob  875   4.015   5.862  11.098  0.5854  0.9732  0.3731
    1Sil     Ob  876   4.296   5.867  10.697  0.6079  0.3138  0.2466
    1Sil     Ob  877   3.974   6.127  10.574  0.5028  0.0198  0.0170
    1Sil     Ob  878   4.508   6.110  10.989  0.3917  0.9369 -0.1290
    1Sil     Ob  879   4.197   5.787  12.391  0.3896  1.0031 -0.4126
    1Sil     Ob  880   4.758   5.794  11.587  0.2935 -0.2595  0.1847
    1Sil     Ob  881   4.434   5.689  11.930  0.0974  0.4550 -0.2038
    1Sil     Ob  882   4.004   6.291  11.944 -0.4886 -0.1224  0.0961
    1Sil     Ob  883   4.557   6.286  12.321  0.2669 -0.0749 -0.6258
    1Sil     Ob  884   4.367   6.196  11.579 -0.4991  0.1277  0.0209
    1Sil     Ob  885   4.385   6.118  12.403  0.2715 -0.5369  0.3463
    1Sil     Ob  886   4.128   6.130  11.610 -0.4418 -0.5092  0.1777
    1Sil     Ob  887   4.670   6.121  12.000  0.4532 -0.6874 -0.1844
    1Sil     Ob  888   4.173   5.875  12.139 -0.0236  0.0187 -0.6342
    1Sil     Ob  889   4.745   5.848  11.337  0.0067  0.0173  0.0606
    1Sil     Ob  890   4.460   5.852  11.742 -0.1848  0.4349  0.4117
    1Sil     Ob  891   4.136   6.035  12.345  1.0290 -0.2748  0.1104
    1Sil     Ob  892   3.898   6.040  11.523 -0.0351 -0.8216  0.3759
    1Sil     Ob  893   4.486   5.939  11.967 -0.6297 -0.1048 -0.5918
    1Sil     Ob  894   4.079   6.045  11.964 -0.0521  0.7475 -0.0276
    1Sil     Ob  895   4.623   6.039  12.350  0.4064 -0.0996 -0.1972
    1Sil     Ob  896   4.289   5.943  11.549  0.0568  0.1737  0.1598
    1Sil     Ob  897   4.539   5.891  11.502  0.7505 -0.2711 -0.5016
    1Sil     Ob  898   3.962   5.856  12.297  0.2249  0.3008  0.1472
    1Sil     Ob  899   4.249   5.877  11.892  0.5431 -0.0893  0.1937
    1Sil     Ob  900   3.931   6.111  11.767  0.3495  0.2251  0.3343
    1Sil     Ob  901   4.475   6.115  12.154 -0.3087  0.5588  0.2425
    1Sil     Ob  902   4.213   6.122  11.368  0.3037  0.0625  0.1963
    1Sil     Ob  903   4.250   6.299  11.183  0.0564  0.1355  0.3212
    1Sil     Ob  904   4.843   6.300  10.388 -0.5084  0.2419 -0.0269
    1Sil     Ob  905   4.482   6.184  10.741 -0.4964 -0.5696  0.6265
    1Sil     Ob  906   4.424   3.161  11.221  0.3393  0.5995 -0.1843
    1Sil     Ob  907   4.181   3.168  10.429  0.2916 -0.2111 -0.4310
    1Sil     Ob  908   4.727   3.159  10.820  0.3560  0.1170  0.6352
    1Sil     Ob  909   4.205   6.369  10.937 -0.7964 -0.4448 -0.0130
    1Sil     Ob  910   4.511   6.353  10.557 -0.5979  0.3062 -0.0823
    1Sil     Ob  911   4.195   6.552  11.127 -0.1909  0.5722 -0.2538
    1Sil     Ob  912   3.949   6.546  10.326  0.0563  0.5655  0.4266
    1Sil     Ob  913   4.549   6.440  10.796  0.4204  0.2187 -0.1835
    1Sil     Ob  914   4.127   3.089  10.767 -1.0685 -0.3951  0.2344
    1Sil     Ob  915   4.672   3.081  11.169 -0.1936  0.7155 -0.3651
    1Sil     Ob  916   4.347   2.988  10.361  0.1925  0.3339 -0.0899
    1Sil     Ob  917   4.602   6.375  10.306 -0.1652  0.4601  0.0211
    1Sil     Ob  918   4.014   6.372  11.101  0.0058 -0.0052  0.2363
    1Sil     Ob  919   4.307   6.376  10.698 -0.0159  0.1182 -0.4627
    1Sil     Ob  920   3.967   3.162  10.580 -0.3877 -0.3866 -0.2988
    1Sil     Ob  921   4.517   3.161  10.977  0.2059 -0.8698 -0.9271
    1Sil     Ob  922   4.208   6.302  12.362 -0.9083 -0.5130  0.0435
    1Sil     Ob  923   4.771   6.281  11.584 -0.4726 -0.4872 -0.0603
    1Sil     Ob  924   4.453   6.189  11.902  0.4472 -0.9757 -0.6147
    1Sil     Ob  925   4.376   3.163  12.409 -0.3225 -0.2259 -0.3658
    1Sil     Ob  926   4.123   3.138  11.613 -0.2464 -0.1938 -0.1800
    1Sil     Ob  927   4.675   3.151  12.011  0.4675 -0.1338  0.0695
    1Sil     Ob  928   4.169   6.381  12.122 -0.3945  0.1061 -0.4267
    1Sil     Ob  929   4.757   6.349  11.333  0.2065 -0.2964 -0.4532
    1Sil     Ob  930   4.455   6.385  11.730  0.2187 -0.2867 -0.0411
    1Sil     Ob  931   4.135   6.546  12.330 -0.3524  0.1416  0.6470
    1Sil     Ob  932   3.893   6.534  11.516 -0.2013  0.2713  0.0950
    1Sil     Ob  933   4.473   6.435  11.988  0.2316 -0.1327  0.3068
    1Sil     Ob  934   4.089   3.078  11.944 -0.5127  0.6822  0.0035
    1Sil     Ob  935   4.626   3.085  12.355  0.1412 -0.0151 -0.8155
    1Sil     Ob  936   4.310   2.991  11.515  0.4174 -0.0878 -0.1127
    1Sil     Ob  937   4.548   6.367  11.480  0.8298  0.1094  0.5471
    1Sil     Ob  938   3.962   6.350  12.295  0.1747  0.5268 -0.6989
    1Sil     Ob  939   4.254   6.351  11.881  0.2639 -0.3750  0.1821
    1Sil     Ob  940   3.924   3.152  11.762 -0.5601  0.9113 -0.4898
    1Sil     Ob  941   4.469   3.161  12.167  0.2981  0.1080  0.3513
    1Sil     Ob  942   4.211   3.177  11.371  0.2033  0.2420 -0.0255
    1Sil     Ob  943   5.086   3.336  11.184  0.1546 -0.2000 -0.1325
    1Sil     Ob  944   4.896   3.832  10.742  0.4803 -0.2201  0.2240
    1Sil     Ob  945   5.441   3.826  11.127 -0.2728 -0.0629  0.2235
    1Sil     Ob  946   5.263   3.722  10.345 -0.4338 -0.8305  0.4392
    1Sil     Ob  947   5.256   3.664  11.220  0.5298  0.0108  0.3912
    1Sil     Ob  948   5.015   3.656  10.423  0.2788 -0.2489  0.2279
    1Sil     Ob  949   2.223   3.643  10.829 -0.5159  0.1307 -0.3736
    1Sil     Ob  950   5.054   3.407  10.937 -0.0007  0.2090 -0.8421
    1Sil     Ob  951   2.008   3.417  10.532 -0.6268 -0.0457 -0.0611
    1Sil     Ob  952   5.029   3.589  11.128 -0.2123  0.3399  0.2725
    1Sil     Ob  953   4.780   3.593  10.330 -0.4018 -0.3930  0.3127
    1Sil     Ob  954   2.043   3.471  10.792  1.2459  0.3047 -0.1000
    1Sil     Ob  955   4.967   3.579  10.778  0.3177  0.2154 -0.8252
    1Sil     Ob  956   5.495   3.577  11.183 -0.3241  0.1448  0.6321
    1Sil     Ob  957   5.188   3.482  10.326  0.2169  0.8177  0.5711
    1Sil     Ob  958   2.110   3.412  10.301  0.1353 -0.4691 -0.1354
    1Sil     Ob  959   4.850   3.405  11.093  0.0676 -0.0468  0.0581
    1Sil     Ob  960   1.813   3.406  10.695 -0.0082  0.0335 -0.1970
    1Sil     Ob  961   4.812   3.655  10.585  0.4411 -0.7938  0.6476
    1Sil     Ob  962   5.339   3.648  10.978  0.2324  0.1059  0.3433
    1Sil     Ob  963   5.009   3.331  12.393  0.1143 -0.6285  0.2184
    1Sil     Ob  964   4.842   3.827  11.931 -0.1428 -0.1042 -0.0488
    1Sil     Ob  965   5.382   3.834  12.322  0.2894 -0.3169  0.4181
    1Sil     Ob  966   5.202   3.716  11.566  0.1448  0.3934  0.0852
    1Sil     Ob  967   5.213   3.660  12.408  0.3746  0.0539  0.0713
    1Sil     Ob  968   4.966   3.648  11.614 -0.1196 -0.0175 -0.0232
    1Sil     Ob  969   2.177   3.658  12.008  0.2650 -0.2082 -0.6184
    1Sil     Ob  970   4.986   3.380  12.129  0.4413 -0.1338  0.4571
    1Sil     Ob  971   2.252   3.387  11.339  0.0477  0.2077 -0.0941
    1Sil     Ob  972   1.954   3.420  11.733 -0.2526  0.0345  0.6060
    1Sil     Ob  973   4.983   3.568  12.314 -0.6234  0.0010 -0.0993
    1Sil     Ob  974   4.742   3.581  11.523  0.0070 -0.0703 -0.0658
    1Sil     Ob  975   1.993   3.486  11.974 -0.3701  0.4307  0.0767
    1Sil     Ob  976   4.906   3.574  11.982  0.3915 -0.1569  0.9433
    1Sil     Ob  977   5.458   3.587  12.350  0.3112 -0.3672 -0.6897
    1Sil     Ob  978   5.133   3.469  11.521  0.9502 -0.1757 -0.5445
    1Sil     Ob  979   2.055   3.390  11.490 -0.1358  0.3838  0.3680
    1Sil     Ob  980   4.794   3.415  12.299  0.4228 -0.0325  0.1379
    1Sil     Ob  981   1.752   3.410  11.887  0.1570 -0.1620 -0.2448
    1Sil     Ob  982   4.763   3.638  11.771  0.0848  0.2515  0.5032
    1Sil     Ob  983   5.296   3.651  12.165  0.1148 -0.4653 -0.3596
    1Sil     Ob  984   5.042   3.668  11.373  0.6296 -0.2706  0.0125
    1Sil     Ob  985   5.068   3.832  11.184 -0.1382 -0.0032  0.4903
    1Sil     Ob  986   1.998   3.722  10.729 -0.2229  0.2106  0.6907
    1Sil     Ob  987   4.894   4.322  10.740 -0.7312 -0.1200 -0.0389
    1Sil     Ob  988   5.429   4.309  11.128 -0.5215 -0.1162 -0.0997
    1Sil     Ob  989   5.258   4.222  10.359  0.1336  0.1211  0.2730
    1Sil     Ob  990   5.263   4.143  11.211  0.0787  0.8485  0.3769
    1Sil     Ob  991   5.016   4.161  10.417 -0.7269 -0.0649  0.2334
    1Sil     Ob  992   2.227   4.161  10.807 -0.6140  0.5707 -0.1396
    1Sil     Ob  993   5.053   3.910  10.938  0.2263 -0.3532  0.7911
    1Sil     Ob  994   2.023   3.860  10.534  0.3713  0.3649  0.6741
    1Sil     Ob  995   5.024   4.070  11.127  0.5934 -0.2382  0.6855
    1Sil     Ob  996   4.796   4.083  10.332 -0.6515  0.5121 -0.4518
    1Sil     Ob  997   2.054   3.964  10.772 -0.3616  0.2854 -0.3368
    1Sil     Ob  998   4.973   4.077  10.770 -0.2520  0.8552  0.6816
    1Sil     Ob  999   5.508   4.077  11.147  0.2955 -0.6925  0.5638
    1Sil     Ob 1000   5.191   3.972  10.362  0.1289  0.3933 -0.3990
    1Sil     Ob 1001   2.111   3.912  10.293  0.5230 -0.0714 -0.1852
    1Sil     Ob 1002   4.844   3.904  11.092  0.7950  0.5149  0.1947
    1Sil     Ob 1003   1.826   3.890  10.691  0.1857  0.7452 -0.5491
    1Sil     Ob 1004   4.820   4.141  10.582  0.3140  0.2913  0.0245
    1Sil     Ob 1005   5.342   4.138  10.962  0.1532  0.3105  0.7018
    1Sil     Ob 1006   5.012   3.824  12.378  0.0874 -0.1696  0.2367
    1Sil     Ob 1007   1.943   3.729  11.917 -0.8887  0.1400  0.2743
    1Sil     Ob 1008   4.841   4.320  11.961 -0.8454  0.7098  0.4669
    1Sil     Ob 1009   5.371   4.328  12.325 -0.4903  0.0395 -0.1963
    1Sil     Ob 1010   5.218   4.216  11.558 -0.1285  0.5962  0.4461
    1Sil     Ob 1011   5.214   4.151  12.408  0.8964 -0.5205 -0.4511
    1Sil     Ob 1012   4.976   4.151  11.618 -0.3529  0.1052  0.6147
    1Sil     Ob 1013   2.175   4.142  12.013 -0.5900 -0.5532  0.0031
    1Sil     Ob 1014   4.999   3.900  12.127  0.6143  0.7792  0.1020
    1Sil     Ob 1015   2.254   3.901  11.336 -0.1129 -0.0363 -0.2099
    1Sil     Ob 1016   1.960   3.908  11.732  0.2223  0.5660  0.3585
    1Sil     Ob 1017   4.978   4.071  12.320  0.2282 -0.2234  0.4958
    1Sil     Ob 1018   4.742   4.073  11.528 -0.4037  0.0363  0.0940
    1Sil     Ob 1019   1.988   3.974  11.989 -0.4616 -0.3333  0.0676
    1Sil     Ob 1020   4.920   4.077  11.963 -0.3784 -0.2010 -0.6060
    1Sil     Ob 1021   5.449   4.086  12.347 -0.1721 -0.1218  0.2949
    1Sil     Ob 1022   5.131   3.961  11.534 -0.3528  0.0095 -0.3412
    1Sil     Ob 1023   2.057   3.893  11.494  0.4500 -0.3114 -0.1982
    1Sil     Ob 1024   4.788   3.890  12.282  0.2786  0.3308 -0.1767
    1Sil     Ob 1025   1.759   3.900  11.892  0.1032  0.1938  0.3383
    1Sil     Ob 1026   4.764   4.152  11.776 -0.1514  0.1498 -0.2706
    1Sil     Ob 1027   5.286   4.161  12.164 -0.3281  0.2501 -0.2919
    1Sil     Ob 1028   5.053   4.136  11.368 -0.1836  0.4525  0.2114
    1Sil     Ob 1029   5.075   4.316  11.181 -0.3837 -0.3171 -0.3457
    1Sil     Ob 1030   1.994   4.207  10.713 -0.0221 -0.3192  0.1225
    1Sil     Ob 1031   4.902   4.815  10.741 -0.2669  0.9271  0.2330
    1Sil     Ob 1032   5.441   4.808  11.130  0.2005  0.6282  0.1290
    1Sil     Ob 1033   5.264   4.721  10.356 -0.1067  0.7701  0.0808
    1Sil     Ob 1034   5.266   4.639  11.221  0.0485 -0.2083 -0.1956
    1Sil     Ob 1035   5.022   4.645  10.411 -0.6590  0.0430 -0.8479
    1Sil     Ob 1036   2.239   4.618  10.836 -0.1115  0.4807  0.5876
    1Sil     Ob 1037   5.050   4.391  10.934  0.0551  0.0205  0.2321
    1Sil     Ob 1038   2.022   4.385  10.539 -0.1441 -0.3542 -0.2471
    1Sil     Ob 1039   5.035   4.561  11.121  1.0001 -0.5605 -0.4902
    1Sil     Ob 1040   4.786   4.567  10.321 -0.4212  0.2493 -0.3173
    1Sil     Ob 1041   2.058   4.441  10.785  0.3161  0.0748  0.7193
    1Sil     Ob 1042   4.964   4.566  10.773 -0.0220  0.2754  0.1701
    1Sil     Ob 1043   5.503   4.552  11.173 -0.8201  0.0851 -0.0819
    1Sil     Ob 1044   5.187   4.464  10.346 -0.6640 -0.2845  0.0351
    1Sil     Ob 1045   2.107   4.399  10.295 -0.0267  0.5158  0.1794
    1Sil     Ob 1046   4.843   4.386  11.101 -0.5639 -0.1984  0.0146
    1Sil     Ob 1047   1.817   4.390  10.686  0.5002  0.5644 -0.0753
    1Sil     Ob 1048   4.819   4.633  10.572 -0.6755 -0.1195  0.2962
    1Sil     Ob 1049   5.355   4.614  10.978  0.1523  0.5531  0.3081
    1Sil     Ob 1050   5.018   4.314  12.388 -0.6813 -0.1168  1.0546
    1Sil     Ob 1051   1.952   4.213  11.912  0.3766  0.0380 -0.3982
    1Sil     Ob 1052   4.850   4.816  11.948  0.0490  0.7042  0.3406
    1Sil     Ob 1053   5.372   4.811  12.330 -0.1933  0.4123  1.1360
    1Sil     Ob 1054   5.214   4.709  11.548  0.4069 -0.0015 -0.1267
    1Sil     Ob 1055   5.190   4.636  12.378 -0.3336  0.2485 -0.1161
    1Sil     Ob 1056   4.965   4.648  11.619  0.3710  0.0406  0.1379
    1Sil     Ob 1057   2.188   4.626  12.020 -0.4808 -0.0010 -0.0874
    1Sil     Ob 1058   5.007   4.396  12.146  0.1361 -0.4048  0.0829
    1Sil     Ob 1059   2.254   4.381  11.336 -0.4905  0.8822 -0.3071
    1Sil     Ob 1060   1.959   4.401  11.736  0.0616  0.7094  0.1655
    1Sil     Ob 1061   4.964   4.570  12.320 -0.1354 -0.9873 -0.6956
    1Sil     Ob 1062   4.727   4.573  11.534  0.1410  0.4158 -0.7512
    1Sil     Ob 1063   1.994   4.459  11.981  0.2306 -0.2450  0.0306
    1Sil     Ob 1064   4.921   4.571  11.974 -0.1069  0.3041 -0.2852
    1Sil     Ob 1065   5.440   4.569  12.341  0.2292 -0.3443 -0.4063
    1Sil     Ob 1066   5.135   4.461  11.539  0.3517 -0.0373 -0.2186
    1Sil     Ob 1067   2.055   4.412  11.498  0.1176 -0.2998  0.0028
    1Sil     Ob 1068   4.791   4.380  12.294 -0.4649 -0.4687 -0.1994
    1Sil     Ob 1069   1.757   4.376  11.893  0.1088 -0.1717  0.0240
    1Sil     Ob 1070   4.763   4.641  11.779  0.4269  0.3570 -0.2921
    1Sil     Ob 1071   5.297   4.650  12.155 -0.5223  0.3757 -0.1691
    1Sil     Ob 1072   5.051   4.626  11.367 -0.0749  0.1245 -0.5183
    1Sil     Ob 1073   5.071   4.807  11.195  0.4117  0.4511 -0.3397
    1Sil     Ob 1074   2.004   4.698  10.732  0.2575 -0.1037 -0.1816
    1Sil     Ob 1075   4.891   5.305  10.746  0.0647  0.4192  0.3490
    1Sil     Ob 1076   5.434   5.309  11.122  0.0793 -0.1996  0.0753
    1Sil     Ob 1077   5.257   5.209  10.356 -0.0448  0.3106 -0.2015
    1Sil     Ob 1078   5.264   5.140  11.212 -0.4732 -0.3871  0.9939
    1Sil     Ob 1079   5.016   5.156  10.417 -0.2038  0.0306 -0.0734
    1Sil     Ob 1080   2.229   5.127  10.823  0.2176  0.5065  0.1709
    1Sil     Ob 1081   5.047   4.871  10.944 -0.0388  0.2719  0.0761
    1Sil     Ob 1082   2.022   4.870  10.540  0.5851 -0.0118  0.2556
    1Sil     Ob 1083   5.032   5.058  11.124  0.9266 -0.3042  0.2967
    1Sil     Ob 1084   4.789   5.071  10.341  0.2480 -0.2567 -0.2256
    1Sil     Ob 1085   2.053   4.952  10.773 -0.5984  0.6068 -0.3577
    1Sil     Ob 1086   4.967   5.059  10.783  0.2990  0.1863 -0.3864
    1Sil     Ob 1087   5.509   5.058  11.166  0.3386  0.6446 -0.5123
    1Sil     Ob 1088   5.190   4.968  10.356  0.1075 -0.3688  0.5475
    1Sil     Ob 1089   2.107   4.901  10.293 -0.2772  0.1383  0.2411
    1Sil     Ob 1090   4.833   4.880  11.108 -0.0180  0.4831  0.3855
    1Sil     Ob 1091   1.822   4.880  10.698 -0.5702  0.1823  0.0960
    1Sil     Ob 1092   4.823   5.120  10.589  1.0830  0.3372  0.4634
    1Sil     Ob 1093   5.341   5.128  10.968 -0.0431  1.1565 -0.1039
    1Sil     Ob 1094   5.008   4.819  12.384 -0.9744  0.1114 -0.7878
    1Sil     Ob 1095   1.963   4.704  11.906 -0.0359 -0.1831  0.4956
    1Sil     Ob 1096   4.829   5.312  11.949  0.1636  0.6198  0.4116
    1Sil     Ob 1097   5.380   5.305  12.339  0.2551  0.3405 -0.0311
    1Sil     Ob 1098   5.204   5.199  11.565 -0.6451 -0.2090  0.0059
    1Sil     Ob 1099   5.204   5.126  12.396 -0.0422 -0.1224 -0.7725
    1Sil     Ob 1100   4.955   5.121  11.613 -0.0816  0.3568  0.5280
    1Sil     Ob 1101   2.180   5.135  12.013  0.7337 -0.2133  0.6319
    1Sil     Ob 1102   4.996   4.893  12.132  0.0917  0.0442 -0.0873
    1Sil     Ob 1103   2.258   4.873  11.336 -0.2905  0.2878  0.4857
    1Sil     Ob 1104   1.967   4.895  11.732 -0.1254 -0.0514 -0.2907
    1Sil     Ob 1105   4.971   5.068  12.304 -0.3876  0.0034 -0.5451
    1Sil     Ob 1106   4.724   5.063  11.527 -0.0387  0.1360  0.6929
    1Sil     Ob 1107   1.999   4.950  11.987  0.5041  0.4186  0.0216
    1Sil     Ob 1108   4.924   5.067  11.954 -0.6750 -0.1658 -0.2775
    1Sil     Ob 1109   5.457   5.059  12.353 -0.3714  0.2036 -0.3065
    1Sil     Ob 1110   5.136   4.951  11.532  0.3611  0.0248 -1.1542
    1Sil     Ob 1111   2.046   4.887  11.484 -0.1932  0.6099 -1.0781
    1Sil     Ob 1112   4.789   4.891  12.293  0.3972  0.1484 -0.2982
    1Sil     Ob 1113   1.771   4.872  11.888 -0.0764  0.0196  0.7322
    1Sil     Ob 1114   4.752   5.137  11.776 -0.4515 -0.2021 -0.0265
    1Sil     Ob 1115   5.300   5.138  12.164  0.3007  0.1168  0.3311
    1Sil     Ob 1116   5.049   5.134  11.366  0.2929 -0.2943 -0.3794
    1Sil     Ob 1117   5.070   5.309  11.186  0.3417 -0.3428 -0.7319
    1Sil     Ob 1118   1.998   5.199  10.717 -0.3348  0.8026 -0.4140
    1Sil     Ob 1119   4.897   5.806  10.747  0.1922  0.1444  0.0967
    1Sil     Ob 1120   5.429   5.792  11.127  0.5493 -0.1543  0.7368
    1Sil     Ob 1121   5.269   5.693  10.370  0.3502  0.3671 -0.3234
    1Sil     Ob 1122   5.253   5.630  11.211  0.0378  0.5183 -0.0591
    1Sil     Ob 1123   5.014   5.636  10.422 -0.3611  0.4434 -0.1084
    1Sil     Ob 1124   2.220   5.617  10.827 -0.2874  0.2230  0.1846
    1Sil     Ob 1125   5.051   5.379  10.939  0.0242  0.2922 -0.3076
    1Sil     Ob 1126   2.017   5.382  10.531  0.1384 -0.1836 -0.1793
    1Sil     Ob 1127   5.027   5.552  11.119 -0.1660  0.1614  0.0292
    1Sil     Ob 1128   4.787   5.560  10.330  0.2736 -0.0448 -0.1652
    1Sil     Ob 1129   2.053   5.442  10.773 -0.1945 -0.8575  0.0520
    1Sil     Ob 1130   4.960   5.557  10.775  0.0478 -0.4683  0.1756
    1Sil     Ob 1131   5.492   5.551  11.174 -0.3309  0.0074  0.0358
    1Sil     Ob 1132   5.189   5.456  10.344 -0.1183  0.1121  0.1913
    1Sil     Ob 1133   2.104   5.390  10.289  0.4372 -0.0234  0.2137
    1Sil     Ob 1134   4.839   5.367  11.094  0.2972 -0.2144 -0.0546
    1Sil     Ob 1135   1.811   5.372  10.691 -0.2805 -0.6298 -0.1184
    1Sil     Ob 1136   4.812   5.623  10.579  0.1037 -0.3901 -0.1295
    1Sil     Ob 1137   5.343   5.605  10.967  0.3641  0.1783 -0.0383
    1Sil     Ob 1138   5.027   5.306  12.375 -0.1473 -0.3990 -0.1709
    1Sil     Ob 1139   1.955   5.204  11.912 -0.5816  0.2503  0.1210
    1Sil     Ob 1140   4.839   5.807  11.946 -0.1183 -0.1402 -0.3919
    1Sil     Ob 1141   5.375   5.795  12.342 -0.2216 -0.3153 -0.4565
    1Sil     Ob 1142   5.204   5.693  11.547  0.5758  0.1346 -0.5290
    1Sil     Ob 1143   5.210   5.603  12.392 -0.3088 -0.9316  0.0778
    1Sil     Ob 1144   4.959   5.634  11.606 -0.1539  0.1032  0.0239
    1Sil     Ob 1145   2.186   5.616  12.004  0.0927 -0.1794  1.0396
    1Sil     Ob 1146   4.995   5.380  12.125 -0.3368 -0.4141 -0.2822
    1Sil     Ob 1147   2.253   5.372  11.334  0.1978 -0.0772  0.3800
    1Sil     Ob 1148   1.956   5.385  11.725  0.0751 -0.0299  0.7483
    1Sil     Ob 1149   4.975   5.553  12.332 -0.7694  0.0893  0.2705
    1Sil     Ob 1150   4.724   5.543  11.525  0.2278  0.1287  0.4635
    1Sil     Ob 1151   1.991   5.446  11.971  0.6929 -0.1623  0.2426
    1Sil     Ob 1152   4.920   5.560  11.959 -0.2291  0.6442 -0.2718
    1Sil     Ob 1153   5.456   5.547  12.351  0.3843  0.3495 -0.1216
    1Sil     Ob 1154   5.118   5.446  11.533 -0.6694  0.3699 -0.5366
    1Sil     Ob 1155   2.045   5.381  11.494  0.1886 -0.7210  0.3620
    1Sil     Ob 1156   4.793   5.361  12.305 -0.1849 -0.3290 -0.1838
    1Sil     Ob 1157   1.757   5.359  11.893 -0.1759  0.1424  0.0180
    1Sil     Ob 1158   4.761   5.626  11.768 -0.3454  0.0996 -0.6304
    1Sil     Ob 1159   5.299   5.625  12.154 -0.2278  0.6392 -0.0104
    1Sil     Ob 1160   5.033   5.623  11.366  0.3479  0.2031  0.3623
    1Sil     Ob 1161   5.063   5.802  11.192 -0.2306 -0.1511  0.3202
    1Sil     Ob 1162   1.984   5.688  10.741 -0.2111  0.3060  0.0463
    1Sil     Ob 1163   4.895   6.292  10.754  0.4414 -0.2162 -0.6286
    1Sil     Ob 1164   5.418   6.288  11.139 -0.1409 -0.0641  0.1529
    1Sil     Ob 1165   5.271   6.190  10.362 -0.1219 -0.0398  0.3152
    1Sil     Ob 1166   5.249   6.108  11.212  0.5813 -0.0138 -0.4192
    1Sil     Ob 1167   5.022   6.123  10.422  0.0744  0.4037  0.2319
    1Sil     Ob 1168   2.233   6.110  10.823  0.0029  0.0400 -0.5646
    1Sil     Ob 1169   5.048   5.878  10.940 -0.1060  0.1178  0.2069
    1Sil     Ob 1170   2.035   5.840  10.546 -0.0203 -0.5130 -0.1296
    1Sil     Ob 1171   5.013   6.054  11.134  0.9143 -0.5665  0.3532
    1Sil     Ob 1172   4.787   6.061  10.341 -0.0861  0.0742  0.1858
    1Sil     Ob 1173   2.054   5.933  10.785  0.2770  0.0568  0.0216
    1Sil     Ob 1174   4.966   6.049  10.770 -0.0373  0.3175 -0.3317
    1Sil     Ob 1175   5.493   6.042  11.175  0.5017 -0.1026  0.2445
    1Sil     Ob 1176   5.199   5.936  10.366  0.1842 -0.2285  0.5036
    1Sil     Ob 1177   2.117   5.865  10.289  0.1712  0.2353 -0.5235
    1Sil     Ob 1178   4.833   5.869  11.100 -0.0711  0.3426  0.2127
    1Sil     Ob 1179   1.815   5.878  10.694  0.0300  0.2276  0.0862
    1Sil     Ob 1180   4.810   6.141  10.575  0.2900  0.2322 -0.7389
    1Sil     Ob 1181   5.340   6.113  10.973  0.0101  0.6855 -0.4362
    1Sil     Ob 1182   5.039   5.799  12.388  0.0645  0.3681  0.6164
    1Sil     Ob 1183   1.938   5.691  11.915  0.4022  0.1510 -1.1078
    1Sil     Ob 1184   4.849   6.295  11.944 -0.1896  0.2821  0.9031
    1Sil     Ob 1185   5.377   6.296  12.324  0.0146  0.3331 -0.3937
    1Sil     Ob 1186   5.212   6.186  11.564 -0.0179 -0.1732  0.1974
    1Sil     Ob 1187   5.201   6.120  12.410 -0.0413  0.2265 -0.5858
    1Sil     Ob 1188   4.972   6.127  11.626 -0.7194  0.1576  0.1900
    1Sil     Ob 1189   2.178   6.115  12.011 -0.7478 -0.1381 -0.5041
    1Sil     Ob 1190   4.996   5.870  12.145  0.4432 -0.1905  0.6090
    1Sil     Ob 1191   2.258   5.864  11.325 -0.1455 -0.1906 -0.6381
    1Sil     Ob 1192   1.957   5.860  11.730  0.0338 -0.1934  0.6373
    1Sil     Ob 1193   4.979   6.039  12.343 -0.5773 -0.0158 -0.0111
    1Sil     Ob 1194   4.749   6.037  11.518 -0.1061  0.5301 -0.2792
    1Sil     Ob 1195   2.008   5.939  11.969 -0.2218 -0.1898 -0.1123
    1Sil     Ob 1196   4.912   6.053  11.977  0.5401  0.5461 -0.2855
    1Sil     Ob 1197   5.443   6.039  12.348 -0.2269  0.3831  0.9007
    1Sil     Ob 1198   5.121   5.943  11.539  0.7743 -0.2885 -0.3566
    1Sil     Ob 1199   2.043   5.869  11.492 -0.7430 -0.4970  0.2770
    1Sil     Ob 1200   4.805   5.845  12.322 -0.5053 -0.3112 -0.2359
    1Sil     Ob 1201   1.762   5.887  11.897 -0.6008 -0.1734  0.4457
    1Sil     Ob 1202   4.767   6.116  11.768  0.4346 -0.2721  0.0858
    1Sil     Ob 1203   5.283   6.115  12.162 -0.1174 -0.2542 -0.2872
    1Sil     Ob 1204   5.046   6.119  11.378  0.6715  0.8893  0.1367
    1Sil     Ob 1205   5.076   6.295  11.191 -0.0723  0.1737  0.2624
    1Sil     Ob 1206   2.009   6.184  10.722  0.1385 -0.3011  0.3136
    1Sil     Ob 1207   1.937   3.159  11.221  0.7004  0.5068  0.4243
    1Sil     Ob 1208   1.696   3.179  10.407 -0.0788  0.1729 -0.3518
    1Sil     Ob 1209   2.224   3.157  10.828  0.0715 -0.0736  0.3326
    1Sil     Ob 1210   5.056   6.361  10.947 -0.3724  0.6409 -0.2192
    1Sil     Ob 1211   2.018   6.368  10.540 -0.0889 -0.5532 -0.2380
    1Sil     Ob 1212   5.028   6.544  11.128 -0.0905  0.4103 -0.2847
    1Sil     Ob 1213   4.787   6.546  10.318  0.8370  0.5714 -0.0033
    1Sil     Ob 1214   2.040   6.440  10.790  0.0349  0.0702 -0.0968
    1Sil     Ob 1215   4.972   3.085  10.766 -0.1260  0.0837 -0.4250
    1Sil     Ob 1216   2.170   3.078  11.155 -0.8354 -0.4742 -0.1528
    1Sil     Ob 1217   1.876   2.991  10.342 -0.0004  0.3071 -0.0025
    1Sil     Ob 1218   2.117   6.371  10.297  0.0620 -0.6503  0.6090
    1Sil     Ob 1219   4.853   6.366  11.096  0.2991  0.7364  0.1497
    1Sil     Ob 1220   1.822   6.354  10.706 -0.3093  0.3607 -0.2495
    1Sil     Ob 1221   4.816   3.156  10.566  0.1846  0.7242 -0.1632
    1Sil     Ob 1222   2.008   3.177  10.973  0.0137 -0.0707  0.4394
    1Sil     Ob 1223   5.033   6.287  12.371 -0.7465 -0.1529 -0.1750
    1Sil     Ob 1224   1.962   6.187  11.910  0.2374 -0.3589 -0.0556
    1Sil     Ob 1225   1.881   3.163  12.420 -0.4026  0.1466  0.0224
    1Sil     Ob 1226   1.639   3.146  11.619 -0.1650  0.5879  0.6072
    1Sil     Ob 1227   2.171   3.160  11.998 -0.0051 -0.4735 -0.6805
    1Sil     Ob 1228   4.993   6.375  12.133  0.8416  0.3785 -0.0128
    1Sil     Ob 1229   2.241   6.352  11.333  0.6166 -0.0457  0.0103
    1Sil     Ob 1230   1.955   6.368  11.735 -0.1072  0.6019  0.2619
    1Sil     Ob 1231   4.990   6.531  12.319  0.1310 -0.3340 -0.6691
    1Sil     Ob 1232   4.736   6.535  11.518 -0.2668 -0.8432  0.0017
    1Sil     Ob 1233   1.988   6.438  11.981 -0.4100 -0.4918 -1.0292
    1Sil     Ob 1234   4.916   3.090  11.956  0.1710 -0.1182  0.4125
    1Sil     Ob 1235   2.121   3.086  12.358 -0.2070  0.2018 -0.2421
    1Sil     Ob 1236   1.813   2.982  11.533  0.6049  0.7619 -0.1434
    1Sil     Ob 1237   2.053   6.367  11.490 -0.0644 -0.0349  0.1658
    1Sil     Ob 1238   4.794   6.356  12.292 -0.2159 -0.0358  0.5601
    1Sil     Ob 1239   1.760   6.350  11.892  0.3053  0.4152  0.0299
    1Sil     Ob 1240   4.757   3.155  11.762 -0.4436 -0.0891 -0.5864
    1Sil     Ob 1241   1.968   3.150  12.163  0.6132  0.0426 -0.1560
    1Sil     Ob 1242   5.047   3.160  11.370 -0.0843 -0.4663 -0.2545
    1Sil     Ob 1243   2.321   3.343  10.415 -0.3152  0.0469  0.3016
    1Sil     Ob 1244   2.299   3.328  11.585  0.2322 -0.2820  0.1624
    1Sil     Ob 1245   2.325   3.844  10.408  0.1365 -0.0398 -0.4562
    1Sil     Ob 1246   2.289   3.821  11.578 -0.3276  0.2356 -0.7852
    1Sil     Ob 1247   2.345   4.330  10.390 -0.0713  0.1968 -0.3443
    1Sil     Ob 1248   2.277   4.315  11.590  0.5679 -0.0406  0.6625
    1Sil     Ob 1249   2.335   4.823  10.404 -0.2739 -0.5134 -0.1976
    1Sil     Ob 1250   2.274   4.808  11.584  0.0875 -0.2939 -0.0960
    1Sil     Ob 1251   2.329   5.315  10.388  0.2952 -0.7221  0.2037
    1Sil     Ob 1252   2.281   5.306  11.579 -0.6638 -0.6587 -0.0802
    1Sil     Ob 1253   2.334   5.805  10.392 -0.2821  0.1070  0.0588
    1Sil     Ob 1254   2.280   5.802  11.581  0.5269 -0.1382  0.7079
    1Sil     Ob 1255   2.338   6.296  10.405  0.4027 -0.2068 -0.5958
    1Sil     Ob 1256   2.284   6.288  11.581 -0.0317  0.4441 -0.1700
    1Sil     Ob 1257   2.840   3.233  10.722  0.0361 -0.2946 -0.0128
    1Sil     Ob 1258   2.782   3.221  11.925  0.1082  0.6866 -0.5706
    1Sil     Ob 1259   3.639   3.220  10.729 -0.1011 -1.4077 -0.7628
    1Sil     Ob 1260   3.610   3.238  11.917  0.4656  0.1545 -0.2599
    1Sil     Ob 1261   4.506   3.232  10.730  0.1974 -0.4475  0.3718
    1Sil     Ob 1262   4.448   3.225  11.924 -0.3117  0.1715 -0.0979
    1Sil     Ob 1263   2.001   3.231  10.717 -0.4388  0.3540 -0.6847
    1Sil     Ob 1264   1.938   3.232  11.915 -0.2567 -0.2298 -0.0065
    1Sil     Ob 1265   2.401   3.329  10.757 -0.1034 -0.2543  1.0379
    1Sil     Ob 1266   2.939   3.350  11.125 -0.2434 -0.0680 -0.7600
    1Sil     Ob 1267   2.772   3.227  10.375  0.1204 -0.0023  0.0201
    1Sil     Ob 1268   2.349   3.334  11.918  0.0688  0.4385  0.5050
    1Sil     Ob 1269   2.878   3.340  12.361  0.1072 -0.3867  0.9383
    1Sil     Ob 1270   2.719   3.226  11.556 -0.0239 -0.2522  0.1804
    1Sil     Ob 1271   3.236   3.342  10.733  0.2085 -0.5837  0.2402
    1Sil     Ob 1272   3.766   3.329  11.127  0.1118  0.1750  0.1517
    1Sil     Ob 1273   3.596   3.219  10.349 -0.5638  0.2001  0.6813
    1Sil     Ob 1274   3.185   3.332  11.939 -0.2261  0.2780  0.0312
    1Sil     Ob 1275   3.704   3.328  12.344  0.9479 -0.3708  0.0611
    1Sil     Ob 1276   3.542   3.232  11.560 -0.5474 -0.6313  0.5762
    1Sil     Ob 1277   4.056   3.340  10.756  0.1292  0.3212 -0.0565
    1Sil     Ob 1278   4.611   3.329  11.138 -0.4205 -0.7339  0.4193
    1Sil     Ob 1279   4.426   3.228  10.365 -0.8072  0.2809  0.4161
    1Sil     Ob 1280   4.018   3.326  11.925  0.0063  0.2206  0.1027
    1Sil     Ob 1281   4.551   3.333  12.347  0.2677  0.1604 -0.1421
    1Sil     Ob 1282   4.364   3.229  11.584  0.7219  0.8597  0.5474
    1Sil     Ob 1283   4.901   3.333  10.742 -0.1653  0.5477 -0.1295
    1Sil     Ob 1284   2.106   3.331  11.128 -0.0428  0.1406 -0.1392
    1Sil     Ob 1285   1.942   3.244  10.337  0.8283  0.4573 -0.0513
    1Sil     Ob 1286   4.833   3.334  11.923  0.0088  0.4732 -1.3238
    1Sil     Ob 1287   2.055   3.334  12.334 -0.1445 -1.0123  0.4266
    1Sil     Ob 1288   1.879   3.229  11.579  0.1398  0.1347 -0.1775
    1Sil     Oy 1289   3.126   3.415  10.143 -0.0141  0.1374 -0.0941
    1Sil     Oy 1290   2.588   3.654  10.189  0.0794  0.2867  0.2350
    1Sil     Oy 1291   2.513   3.652  12.570  0.6583 -0.3336  0.2596
    1Sil     Cm 1292   3.042   3.413  12.553 -0.2747 -0.4923 -0.2879
    1Sil     Oy 1293   3.150   3.926  10.146 -0.0733  0.1031  0.2093
    1Sil     Cm 1294   2.616   4.156  10.160  0.0002  0.1899 -0.1806
    1Sil     Cm 1295   2.503   4.144  12.589 -0.2273  0.1837 -0.4936
    1Sil     Oy 1296   3.024   3.881  12.527  0.4299  0.1685  0.3502
    1Sil     Cm 1297   3.148   4.389  10.119 -0.3854  0.1555 -1.1605
    1Sil     Oy 1298   2.600   4.650  10.179 -0.2991 -0.3160  0.1910
    1Sil     Cm 1299   2.523   4.639  12.563 -1.1788  0.7117 -0.6905
    1Sil     Oy 1300   3.040   4.421  12.545 -0.1617 -0.5354 -0.0784
    1Sil     Oy 1301   3.143   4.855  10.154 -0.3618  0.2628  0.0612
    1Sil     Oy 1302   2.613   5.139  10.173 -0.5468 -0.6575  0.1720
    1Sil     Oy 1303   2.508   5.130  12.563 -0.2814  0.4841 -0.1145
    1Sil     Oy 1304   3.025   4.895  12.549 -0.2746 -0.5006 -0.0415
    1Sil     Cm 1305   3.145   5.348  10.144  0.4609  1.1572 -0.3018
    1Sil     Oy 1306   2.597   5.641  10.180 -0.4184  0.2224  0.3814
    1Sil     Oy 1307   2.533   5.621  12.569  0.4081  0.0523 -0.1604
    1Sil     Cm 1308   3.016   5.377  12.539 -0.1563 -0.3826 -0.1457
    1Sil     Oy 1309   3.147   5.860  10.153  0.1751  0.6329 -0.4150
    1Sil     Cm 1310   2.611   6.123  10.181 -0.9211 -0.0941  0.2855
    1Sil     Oy 1311   2.519   6.129  12.582  0.3088  0.4231 -0.9783
    1Sil     Cm 1312   3.036   5.888  12.528  0.1994  0.3532 -0.0708
    1Sil     Oy 1313   3.132   6.353  10.145  0.2499 -0.2973 -0.4640
    1Sil     Oy 1314   2.620   3.153  10.179 -0.1844 -0.2245 -0.1628
    1Sil     Cm 1315   2.494   3.150  12.563 -0.0186  0.1669  0.0619
    1Sil     Oy 1316   3.041   6.353  12.540 -0.1229 -0.0315 -0.2997
    1Sil     Oy 1317   3.976   3.411  10.158  0.1938  0.1226 -0.4815
    1Sil     Oy 1318   3.439   3.634  10.182  0.2995 -0.1164 -0.0380
    1Sil     Cm 1319   3.339   3.659  12.554 -0.7119 -0.1370 -0.2111
    1Sil     Cm 1320   3.863   3.402  12.546 -0.0822 -0.5516 -0.2812
    1Sil     Cm 1321   3.980   3.906  10.137  0.2812 -0.5242 -0.1079
    1Sil     Oy 1322   3.412   4.148  10.175  0.0269 -0.2428  0.2124
    1Sil     Cm 1323   3.320   4.140  12.572  0.0723 -0.5699  0.1939
    1Sil     Oy 1324   3.886   3.886  12.532  0.2856 -0.0654 -0.9901
    1Sil     Cm 1325   3.954   4.394  10.131  0.5944 -0.3835  0.2388
    1Sil     Cm 1326   3.442   4.633  10.170  0.6236 -0.4545  0.3451
    1Sil     Cm 1327   3.340   4.635  12.574  0.5192 -0.1661  0.3240
    1Sil     Oy 1328   3.884   4.366  12.528  0.0236  0.9649  0.5563
    1Sil     Cm 1329   3.975   4.889  10.128  0.0943  0.3272 -0.3055
    1Sil     Cm 1330   3.455   5.122  10.179  0.4844 -0.4692  0.3113
    1Sil     Oy 1331   3.350   5.163  12.568 -0.0753  0.3758  0.2834
    1Sil     Cm 1332   3.838   4.872  12.540 -0.0405  0.3970  0.1720
    1Sil     Cm 1333   3.987   5.397  10.121 -0.5180 -0.0836  0.0930
    1Sil     Oy 1334   3.434   5.626  10.177 -0.2532  0.2118 -0.7104
    1Sil     Oy 1335   3.321   5.636  12.565 -0.3508 -0.3503  0.0339
    1Sil     Cm 1336   3.860   5.375  12.545  0.3983  0.2410  0.1117
    1Sil     Cm 1337   3.972   5.857  10.137  1.1748 -0.5133  0.5143
    1Sil     Cm 1338   3.446   6.114  10.157 -0.5500  0.2412  0.2148
    1Sil     Cm 1339   3.329   6.115  12.581 -0.0088 -0.5066 -0.3370
    1Sil     Oy 1340   3.859   5.868  12.541  0.4757  0.3793  0.5742
    1Sil     Oy 1341   3.976   6.374  10.134  0.2988  0.0919  0.4870
    1Sil     Oy 1342   3.428   3.137  10.173 -0.0960 -0.0466  0.3669
    1Sil     Oy 1343   3.340   3.156  12.567 -0.0711  0.7049  0.3544
    1Sil     Cm 1344   3.858   6.342  12.533  0.1289 -0.0030  1.4782
    1Sil     Oy 1345   4.794   3.420  10.135 -0.1910  0.5222  0.1601
    1Sil     Oy 1346   4.266   3.650  10.183  0.4209  0.1110  0.5972
    1Sil     Oy 1347   4.150   3.661  12.558  0.2521 -0.0844 -0.1244
    1Sil     Oy 1348   4.699   3.418  12.541  0.0274  0.3684  0.3145
    1Sil     Oy 1349   4.807   3.899  10.145 -0.2425 -0.1658 -0.0396
    1Sil     Oy 1350   4.267   4.142  10.188 -0.6930 -0.1387 -0.3067
    1Sil     Cm 1351   4.173   4.129  12.581 -0.1662 -0.6518  0.6682
    1Sil     Oy 1352   4.687   3.877  12.526  0.2048 -0.3139 -0.4983
    1Sil     Cm 1353   4.817   4.364  10.143 -0.1739  0.5867 -0.0985
    1Sil     Cm 1354   4.263   4.646  10.172  0.2572 -0.2136 -1.3472
    1Sil     Cm 1355   4.190   4.634  12.598  0.2832  0.3998 -0.3575
    1Sil     Oy 1356   4.701   4.367  12.533 -0.8967 -0.1649  0.2300
    1Sil     Oy 1357   4.789   4.908  10.159 -0.4434  0.3521 -0.0836
    1Sil     Oy 1358   4.293   5.110  10.159 -0.4994  0.4436  0.1453
    1Sil     Cm 1359   4.191   5.122  12.607 -0.2741  0.4228 -0.3699
    1Sil     Oy 1360   4.703   4.886  12.539 -0.2178  0.3612 -0.1315
    1Sil     Cm 1361   4.789   5.364  10.148  0.1083 -0.4208 -0.7751
    1Sil     Cm 1362   4.292   5.619  10.161 -0.1061  0.1416  0.6861
    1Sil     Cm 1363   4.179   5.606  12.594 -0.2972 -0.3026  0.3993
    1Sil     Cm 1364   4.698   5.373  12.558 -0.0696 -0.2286  0.0633
    1Sil     Oy 1365   4.828   5.864  10.154 -0.4106 -0.0135 -0.3617
    1Sil     Oy 1366   4.271   6.111  10.178 -0.0319  0.6721  0.0331
    1Sil     Oy 1367   4.211   6.149  12.579  0.0819  0.5780  0.1535
    1Sil     Cm 1368   4.697   5.874  12.564  0.2729  0.1307  0.0884
    1Sil     Oy 1369   4.791   6.356  10.135  0.3215  0.0869  0.0343
    1Sil     Oy 1370   4.265   3.150  10.183 -0.2538  0.4867  0.0640
    1Sil     Cm 1371   4.164   3.169  12.578  0.4628 -0.3038  0.3141
    1Sil     Oy 1372   4.706   6.343  12.534 -0.4447  0.3925  0.0913
    1Sil     Oy 1373   2.327   3.436  10.164  0.7438  0.3223 -0.0741
    1Sil     Oy 1374   5.079   3.654  10.180 -0.1445 -0.2423  0.0255
    1Sil     Cm 1375   4.981   3.644  12.573  0.2115  0.1697 -0.0127
    1Sil     Oy 1376   2.218   3.411  12.513  0.2857  0.6802 -0.7443
    1Sil     Cm 1377   2.325   3.882  10.137  0.0133  0.1947 -0.5594
    1Sil     Cm 1378   5.111   4.135  10.152 -0.4183 -0.0260  0.2526
    1Sil     Oy 1379   5.001   4.130  12.564  0.1495  0.2455  0.1510
    1Sil     Cm 1380   2.187   3.898  12.543  0.0742 -0.9285  0.2967
    1Sil     Oy 1381   2.304   4.395  10.138  0.2231 -0.1295 -0.0993
    1Sil     Cm 1382   5.111   4.631  10.158 -0.2716  0.6255 -0.0083
    1Sil     Oy 1383   5.015   4.630  12.562 -0.1560 -0.1115  0.3785
    1Sil     Cm 1384   2.177   4.411  12.529  0.2574 -0.3086 -0.2681
    1Sil     Cm 1385   2.324   4.906  10.157 -0.1394  0.1515  0.8575
    1Sil     Oy 1386   5.092   5.133  10.172 -0.4488 -0.7083  0.1850
    1Sil     Oy 1387   5.004   5.122  12.550 -0.2622  0.0264 -0.7130
    1Sil     Oy 1388   2.209   4.867  12.530  0.0657 -0.6127  0.2402
    1Sil     Cm 1389   2.320   5.399  10.140  0.1905  0.7055  0.8634
    1Sil     Cm 1390   5.100   5.650  10.162  0.0766 -0.0010  0.3920
    1Sil     Oy 1391   5.029   5.613  12.572  0.7048  0.2993 -1.1141
    1Sil     Oy 1392   2.194   5.390  12.542  0.4124 -0.0913  0.0149
    1Sil     Oy 1393   2.320   5.891  10.149  0.3242 -0.5043 -0.0673
    1Sil     Oy 1394   5.125   6.102  10.179  0.0738 -0.4103  0.2160
    1Sil     Oy 1395   5.006   6.130  12.576  0.4283 -0.5880 -0.3275
    1Sil     Cm 1396   2.198   5.877  12.555 -0.5742 -0.1837  0.7989
    1Sil     Oy 1397   2.333   6.357  10.162  0.0458 -0.3438 -0.6883
    1Sil     Oy 1398   1.777   3.148  10.168  0.3862  0.2221  0.2441
    1Sil     Cm 1399   4.981   3.141  12.588 -0.5627 -0.6769 -0.0508
    1Sil     Oy 1400   2.213   6.347  12.513  0.0278 -0.0507  0.4027
    1Sil    Sib 1401   3.086   3.443  10.294  0.2500  0.4272  0.1318
    1Sil    Sib 1402   2.510   3.439  11.091 -0.1576  0.2448  0.3866
    1Sil    Sib 1403   2.802   3.382  10.693 -0.1414 -0.4600 -0.2558
    1Sil    Sib 1404   2.346   3.677  10.741 -0.3157 -0.1325 -0.2217
    1Sil    Sib 1405   2.899   3.695  11.114  0.1903  0.4805 -0.0102
    1Sil    Sib 1406   2.634   3.635  10.341  0.1144  0.2352  0.5232
    1Sil    Sib 1407   2.625   3.681  11.232  0.7194  0.4591 -0.2673
    1Sil    Sib 1408   2.350   3.692  10.452 -0.1146  0.6026  0.3664
    1Sil    Sib 1409   2.904   3.632  10.827  0.2766  0.0908  0.0794
    1Sil    Sib 1410   2.520   3.426  10.795 -0.4335  0.0925  0.4022
    1Sil    Sib 1411   3.058   3.446  11.183 -0.1369  0.3053 -0.0412
    1Sil    Sib 1412   2.804   3.387  10.398  0.0840 -0.6407  0.2583
    1Sil    Sib 1413   3.032   3.436  11.478  0.3439 -0.0911 -0.0673
    1Sil    Sib 1414   2.466   3.427  12.279  0.1934 -0.2269  0.4421
    1Sil    Sib 1415   2.744   3.368  11.877 -0.1147  0.1195  0.4222
    1Sil    Sib 1416   2.301   3.684  11.913 -0.1325 -0.1436  0.1477
    1Sil    Sib 1417   2.839   3.685  12.314  0.2757  0.1639  0.0246
    1Sil    Sib 1418   2.592   3.620  11.522 -0.2900  0.1222  0.0825
    1Sil    Sib 1419   2.560   3.682  12.423 -0.3087  0.4535 -0.0622
    1Sil    Sib 1420   2.313   3.670  11.618 -0.2783  0.4680 -0.4770
    1Sil    Sib 1421   2.844   3.621  12.013 -0.3113 -0.2906  0.2330
    1Sil    Sib 1422   2.460   3.426  11.974 -0.0939 -0.1329 -0.1458
    1Sil    Sim 1423   2.997   3.438  12.394  0.0871 -0.4675 -0.1768
    1Sil    Sib 1424   2.758   3.374  11.578  0.7087  0.2013  0.0989
    1Sil    Sib 1425   3.093   3.938  10.300 -0.3149  0.3193 -0.2596
    1Sil    Sib 1426   2.520   3.930  11.100  0.4099 -0.1540  0.0279
    1Sil    Sib 1427   2.800   3.870  10.693  0.0306 -0.5248  0.1925
    1Sil    Sib 1428   2.359   4.184  10.726 -0.1226 -0.3888  0.2030
    1Sil    Sib 1429   2.892   4.179  11.128  0.5363 -0.0878  0.4719
    1Sil    Sim 1430   2.653   4.125  10.321  0.5320  0.0159  0.1686
    1Sil    Sib 1431   2.613   4.175  11.232  0.4628 -0.4742 -0.1049
    1Sil    Sib 1432   2.375   4.181  10.427 -0.0804  0.0575  0.1993
    1Sil    Sib 1433   2.908   4.116  10.828 -0.0349  0.3407  0.4260
    1Sil    Sib 1434   2.520   3.922  10.797 -0.0970  0.3322 -0.0819
    1Sil    Sib 1435   3.050   3.935  11.188 -0.2288  0.3309  0.1783
    1Sil    Sib 1436   2.813   3.873  10.395 -0.7197  0.1284 -0.2974
    1Sil    Sib 1437   3.031   3.928  11.492 -0.0521 -0.4754 -0.4477
    1Sil    Sib 1438   2.460   3.927  12.285  0.2418 -0.1258 -0.1942
    1Sil    Sib 1439   2.756   3.881  11.885 -0.1587  0.2803 -0.1350
    1Sil    Sib 1440   2.304   4.171  11.919 -0.2964  0.0860  0.3610
    1Sil    Sib 1441   2.846   4.172  12.318  0.1537  0.1370 -0.1399
    1Sil    Sib 1442   2.592   4.117  11.523 -0.2301 -0.2386 -0.3647
    1Sil    Sim 1443   2.561   4.175  12.429 -0.5941 -0.4015 -0.0812
    1Sil    Sib 1444   2.311   4.166  11.623 -0.2021  0.0948  0.2690
    1Sil    Sib 1445   2.865   4.124  12.024  0.1368 -0.3313 -0.0211
    1Sil    Sib 1446   2.470   3.926  11.978  0.1076  0.1134  0.0627
    1Sil    Sib 1447   3.001   3.921  12.373  0.2926 -0.4032  0.2020
    1Sil    Sib 1448   2.750   3.865  11.589 -0.1399 -0.3555  0.0414
    1Sil    Sim 1449   3.091   4.418  10.292 -0.2136 -0.4508 -0.0142
    1Sil    Sib 1450   2.504   4.417  11.084 -0.0128  0.3069 -0.1012
    1Sil    Sib 1451   2.810   4.361  10.685  0.2095  0.4739  0.0583
    1Sil    Sib 1452   2.363   4.660  10.735  0.0383  0.4355 -0.1568
    1Sil    Sib 1453   2.896   4.664  11.128 -0.5657 -0.0477  0.2728
    1Sil    Sib 1454   2.644   4.611  10.332  0.4984 -0.4797 -0.1053
    1Sil    Sib 1455   2.606   4.659  11.224  0.0489 -0.2774  0.3666
    1Sil    Sib 1456   2.364   4.670  10.443  0.0610 -0.2477  0.4182
    1Sil    Sib 1457   2.902   4.617  10.827  0.8030 -0.1559 -0.1316
    1Sil    Sib 1458   2.529   4.413  10.787  0.2847  0.3104  0.2770
    1Sil    Sib 1459   3.062   4.418  11.183 -0.5244 -0.1358  0.0570
    1Sil    Sib 1460   2.811   4.372  10.380  0.5268 -0.4902  0.1067
    1Sil    Sib 1461   3.045   4.415  11.482  0.1493 -0.7074 -0.4418
    1Sil    Sib 1462   2.457   4.415  12.277  0.0490 -0.0242 -0.0469
    1Sil    Sib 1463   2.750   4.363  11.891  0.1026 -0.0983 -0.0998
    1Sil    Sib 1464   2.309   4.653  11.927 -0.0048  0.1500  0.2333
    1Sil    Sib 1465   2.841   4.666  12.314 -0.2702 -0.0448  0.3577
    1Sil    Sib 1466   2.595   4.608  11.522 -0.1880  0.0600  0.0195
    1Sil    Sim 1467   2.560   4.664  12.410 -0.1991  0.2668 -0.0315
    1Sil    Sib 1468   2.311   4.661  11.621  0.1278 -0.1424  0.0752
    1Sil    Sib 1469   2.857   4.612  12.014  0.4987 -0.3496  0.0642
    1Sil    Sib 1470   2.471   4.404  11.977  0.0227  0.0077  0.3767
    1Sil    Sib 1471   3.005   4.426  12.384  0.3049 -0.2949  0.0255
    1Sil    Sib 1472   2.761   4.361  11.584  0.0068  0.2013 -0.2740
    1Sil    Sib 1473   3.089   4.900  10.302  0.4813 -0.6323  0.1300
    1Sil    Sib 1474   2.510   4.913  11.091  0.1270 -0.3310  0.3964
    1Sil    Sib 1475   2.799   4.861  10.691  0.2292 -0.0869  0.1162
    1Sil    Sib 1476   2.357   5.157  10.736  0.3856  0.0132  0.0639
    1Sil    Sib 1477   2.887   5.156  11.127 -0.5675 -0.3717 -0.2447
    1Sil    Sib 1478   2.646   5.116  10.325  0.3059 -0.2636  0.4099
    1Sil    Sib 1479   2.603   5.166  11.231  0.4960 -0.2330  0.6630
    1Sil    Sib 1480   2.370   5.173  10.431 -0.1635 -0.4798 -0.2612
    1Sil    Sib 1481   2.899   5.106  10.831 -0.1769 -0.0121  0.2858
    1Sil    Sib 1482   2.525   4.910  10.793 -0.1477 -0.0086 -0.1743
    1Sil    Sib 1483   3.050   4.912  11.194  0.0107 -0.1125 -0.1716
    1Sil    Sib 1484   2.802   4.862  10.396 -0.0375 -0.2528 -0.0376
    1Sil    Sib 1485   3.040   4.913  11.487 -0.1791  0.0263  0.1435
    1Sil    Sib 1486   2.456   4.910  12.278  0.1843  0.3836 -0.0815
    1Sil    Sib 1487   2.754   4.852  11.872 -0.1076  0.3260 -0.0614
    1Sil    Sib 1488   2.305   5.163  11.921  0.4198  0.1713  0.4992
    1Sil    Sib 1489   2.842   5.152  12.309 -0.2178 -0.1135  0.3556
    1Sil    Sib 1490   2.595   5.109  11.519  0.1560  0.2455  0.2717
    1Sil    Sib 1491   2.556   5.155  12.413  0.2667  0.0541  0.6270
    1Sil    Sib 1492   2.307   5.153  11.622  0.2142  0.1076  0.3425
    1Sil    Sib 1493   2.860   5.094  12.015  0.2645  0.2018 -0.1059
    1Sil    Sib 1494   2.474   4.907  11.982  0.0197 -0.0218  0.0445
    1Sil    Sib 1495   2.996   4.914  12.392  0.0355 -0.1987 -0.0313
    1Sil    Sib 1496   2.759   4.858  11.574 -0.0231 -0.2764 -0.0689
    1Sil    Sim 1497   3.095   5.398  10.288 -0.3558  0.3261 -0.0944
    1Sil    Sib 1498   2.504   5.412  11.086 -0.0669 -0.1081 -0.0189
    1Sil    Sib 1499   2.791   5.352  10.687 -0.0120 -0.4284 -0.0137
    1Sil    Sib 1500   2.345   5.650  10.732 -0.5489 -0.0167  0.0539
    1Sil    Sib 1501   2.890   5.652  11.123 -0.2070  0.1688  0.2606
    1Sil    Sib 1502   2.630   5.609  10.337  0.0587  0.4107 -0.5407
    1Sil    Sib 1503   2.604   5.649  11.223 -0.2106 -0.0075  0.1033
    1Sil    Sib 1504   2.353   5.655  10.435 -0.0918  0.6020 -0.1426
    1Sil    Sib 1505   2.909   5.596  10.823  0.1310  0.6635  0.2449
    1Sil    Sib 1506   2.517   5.405  10.789  0.1747 -0.0005  0.2597
    1Sil    Sib 1507   3.045   5.402  11.185 -0.0235 -0.0799 -0.3142
    1Sil    Sib 1508   2.808   5.365  10.381 -0.2010  0.0986 -0.1192
    1Sil    Sib 1509   3.033   5.414  11.489  0.0978  0.1394 -0.1778
    1Sil    Sib 1510   2.454   5.409  12.296 -0.0199 -0.2368  0.0018
    1Sil    Sib 1511   2.744   5.346  11.890  0.0105 -0.0906  0.7523
    1Sil    Sib 1512   2.303   5.645  11.907 -0.0223 -0.1798 -0.9535
    1Sil    Sib 1513   2.846   5.648  12.318  0.5019  0.1816  0.1885
    1Sil    Sib 1514   2.589   5.593  11.521  0.1069 -0.0427 -0.4639
    1Sil    Sib 1515   2.574   5.649  12.420 -0.2987  0.3533 -0.1811
    1Sil    Sib 1516   2.310   5.647  11.615  0.3657  0.1538  0.6058
    1Sil    Sib 1517   2.849   5.592  12.021 -0.2443 -0.2158 -0.2386
    1Sil    Sib 1518   2.460   5.408  11.987 -0.0073  0.2635  0.0473
    1Sil    Sim 1519   3.000   5.402  12.376  0.0528 -0.2259  0.5507
    1Sil    Sib 1520   2.756   5.354  11.580  0.1571  0.0217 -0.5224
    1Sil    Sib 1521   3.090   5.899  10.293  0.1337 -0.3545 -0.2198
    1Sil    Sib 1522   2.507   5.900  11.095 -0.2946 -0.0675  0.1890
    1Sil    Sib 1523   2.798   5.839  10.689 -0.3171 -0.4037 -0.0780
    1Sil    Sib 1524   2.361   6.142  10.734 -0.2833  0.7099  0.2966
    1Sil    Sib 1525   2.895   6.145  11.121 -0.3063  0.1397  0.2621
    1Sil    Sim 1526   2.646   6.085  10.331  0.0674 -0.0764 -0.2390
    1Sil    Sib 1527   2.607   6.147  11.226 -0.3398  0.1327  0.9053
    1Sil    Sib 1528   2.363   6.146  10.436  0.1158 -0.5066  0.1848
    1Sil    Sib 1529   2.908   6.087  10.823  0.2169 -0.3749 -0.1407
    1Sil    Sib 1530   2.518   5.889  10.791 -0.0717  0.1099  0.0978
    1Sil    Sib 1531   3.058   5.896  11.179  0.2025 -0.6288  0.0441
    1Sil    Sib 1532   2.810   5.842  10.393  0.0549 -0.4320  0.3194
    1Sil    Sib 1533   3.033   5.896  11.481 -0.0397 -0.0467  0.1300
    1Sil    Sib 1534   2.459   5.892  12.287  0.3590 -0.1625  0.2861
    1Sil    Sib 1535   2.741   5.841  11.875  0.1360 -0.3895 -0.3548
    1Sil    Sib 1536   2.301   6.139  11.919  0.2534 -0.2874 -0.0661
    1Sil    Sib 1537   2.834   6.145  12.318 -0.1804 -0.0640 -0.0727
    1Sil    Sib 1538   2.589   6.094  11.524 -0.3418  0.4431  0.0117
    1Sil    Sib 1539   2.554   6.142  12.427  0.5482  0.1605 -0.0088
    1Sil    Sib 1540   2.304   6.137  11.626  0.0001  0.3096 -0.2055
    1Sil    Sib 1541   2.846   6.087  12.017 -0.3724  0.3462  0.2910
    1Sil    Sib 1542   2.466   5.898  11.981 -0.0101 -0.0319 -0.0195
    1Sil    Sim 1543   3.005   5.905  12.377 -0.0624 -0.2900 -0.2272
    1Sil    Sib 1544   2.746   5.845  11.578 -0.2966  0.0984 -0.4029
    1Sil    Sib 1545   3.083   6.389  10.293 -0.1401  0.0066 -0.0617
    1Sil    Sib 1546   2.504   6.385  11.088  0.2014 -0.1529 -0.0099
    1Sil    Sib 1547   2.803   6.338  10.694 -0.1846 -0.4522 -0.2025
    1Sil    Sib 1548   2.357   3.178  10.744 -0.4471 -0.0100 -0.2929
    1Sil    Sib 1549   2.890   3.202  11.116 -0.0213 -0.0407  0.5570
    1Sil    Sib 1550   2.649   3.137  10.338 -0.0745 -0.4742 -0.2281
    1Sil    Sib 1551   2.617   3.185  11.215  0.1865 -0.4902  0.0894
    1Sil    Sib 1552   2.370   3.192  10.437 -0.3406  0.0028  0.1000
    1Sil    Sib 1553   2.908   3.131  10.830  0.1130  0.3209  0.0383
    1Sil    Sib 1554   2.524   6.383  10.798 -0.3790  0.5726 -0.3518
    1Sil    Sib 1555   3.055   6.397  11.170  0.2605  0.1395  0.0350
    1Sil    Sib 1556   2.806   6.341  10.395  0.1404  0.5132  0.2208
    1Sil    Sib 1557   3.038   6.394  11.480  0.1910 -0.1425  0.6675
    1Sil    Sib 1558   2.448   6.391  12.280 -0.1803 -0.5151 -0.3601
    1Sil    Sib 1559   2.741   6.334  11.872  0.4998 -0.4757  0.0442
    1Sil    Sib 1560   2.302   3.180  11.910  0.0847 -0.1082  0.4875
    1Sil    Sib 1561   2.836   3.189  12.324 -0.0884  0.3533 -0.4220
    1Sil    Sib 1562   2.605   3.132  11.507  0.1213 -0.3034 -0.0068
    1Sil    Sim 1563   2.554   3.182  12.422  0.0014  0.0072  0.1841
    1Sil    Sib 1564   2.332   3.176  11.613  0.0331  0.2765 -0.2281
    1Sil    Sib 1565   2.855   3.129  12.026  0.0049  0.0604 -0.2140
    1Sil    Sib 1566   2.458   6.388  11.976  0.0359 -0.0926 -0.0941
    1Sil    Sib 1567   2.997   6.384  12.384 -0.4106  0.3715 -0.6003
    1Sil    Sib 1568   2.757   6.336  11.578  0.6041 -0.2113 -0.6696
    1Sil    Sib 1569   3.914   3.436  10.302  0.0115  0.6064 -0.2941
    1Sil    Sib 1570   3.337   3.444  11.092 -0.3701 -0.2678 -0.4349
    1Sil    Sib 1571   3.617   3.370  10.686  0.0977 -0.0285 -0.1569
    1Sil    Sib 1572   3.185   3.686  10.735 -0.2591 -0.2995 -0.2958
    1Sil    Sib 1573   3.717   3.677  11.125  0.5409 -0.1041  0.1331
    1Sil    Sib 1574   3.473   3.618  10.336  0.0642  1.0030  0.9635
    1Sil    Sib 1575   3.449   3.687  11.238  0.4302  0.1079 -0.3495
    1Sil    Sib 1576   3.197   3.687  10.430  0.1515 -0.1048 -0.1410
    1Sil    Sib 1577   3.734   3.616  10.827 -0.4218  0.1217 -0.4236
    1Sil    Sib 1578   3.348   3.437  10.793  0.2386 -0.0284 -0.0451
    1Sil    Sib 1579   3.880   3.428  11.181  0.5105 -0.1077 -0.0948
    1Sil    Sib 1580   3.634   3.367  10.385 -0.2165 -0.0493  0.1053
    1Sil    Sib 1581   3.872   3.424  11.483 -0.1258 -0.2227  0.4167
    1Sil    Sib 1582   3.289   3.432  12.279 -0.3621  0.1648  0.0962
    1Sil    Sib 1583   3.575   3.387  11.882  0.4364  0.1168 -0.4843
    1Sil    Sib 1584   3.131   3.680  11.927  0.0207 -0.0976 -0.0657
    1Sil    Sib 1585   3.669   3.678  12.309  0.1822  0.2956  0.1596
    1Sil    Sib 1586   3.421   3.631  11.537 -0.0173 -0.5027  0.8582
    1Sil    Sim 1587   3.394   3.683  12.413  0.4381 -0.0064 -0.1176
    1Sil    Sib 1588   3.140   3.677  11.626  0.1189 -0.3005 -0.1242
    1Sil    Sib 1589   3.683   3.632  12.007 -0.1930 -0.1224 -0.0736
    1Sil    Sib 1590   3.295   3.433  11.983  0.0831 -0.4138  0.2174
    1Sil    Sim 1591   3.825   3.428  12.379  0.5777 -0.0663 -0.1027
    1Sil    Sib 1592   3.585   3.380  11.577  0.3492  0.0459 -0.3532
    1Sil    Sim 1593   3.911   3.930  10.295 -0.1965 -0.1686  0.1421
    1Sil    Sib 1594   3.342   3.937  11.101 -0.4481  0.1509  0.4012
    1Sil    Sib 1595   3.628   3.866  10.693  0.2359  0.0454  0.0350
    1Sil    Sib 1596   3.186   4.173  10.739  0.0524  0.3249 -0.0337
    1Sil    Sib 1597   3.725   4.166  11.128 -0.3937 -0.7888 -0.2302
    1Sil    Sib 1598   3.465   4.113  10.322 -0.1089 -0.2431 -0.1848
    1Sil    Sib 1599   3.440   4.177  11.241  0.4895 -0.2956  0.2252
    1Sil    Sib 1600   3.197   4.180  10.445  0.1403 -0.5459 -0.0185
    1Sil    Sib 1601   3.734   4.110  10.827 -0.1486  0.0905 -0.3622
    1Sil    Sib 1602   3.356   3.929  10.806 -0.1944  0.2947 -0.1454
    1Sil    Sib 1603   3.893   3.922  11.185  0.2988 -0.1062  0.4205
    1Sil    Sib 1604   3.631   3.873  10.383 -0.2270  0.0298 -0.0765
    1Sil    Sib 1605   3.867   3.924  11.488  0.0000  0.1593 -0.3278
    1Sil    Sib 1606   3.290   3.934  12.282  0.2006  0.3350 -0.3610
    1Sil    Sib 1607   3.578   3.878  11.881  0.2839 -0.0371  0.4640
    1Sil    Sib 1608   3.135   4.193  11.921  0.2284 -0.4314  0.1721
    1Sil    Sib 1609   3.675   4.172  12.322 -0.0821  0.0460 -0.3423
    1Sil    Sib 1610   3.423   4.116  11.526  0.0716 -0.2338  0.4105
    1Sil    Sim 1611   3.391   4.182  12.417 -0.1775  0.4309  0.4363
    1Sil    Sib 1612   3.145   4.172  11.623 -0.2465  0.1453 -0.4895
    1Sil    Sib 1613   3.680   4.119  12.023  0.6475 -0.0546  0.0818
    1Sil    Sib 1614   3.296   3.937  11.983 -0.2024  0.3649  0.1126
    1Sil    Sib 1615   3.832   3.921  12.380  0.1169 -0.3715 -0.1472
    1Sil    Sib 1616   3.587   3.876  11.586 -0.4300  0.3450  0.5088
    1Sil    Sim 1617   3.909   4.421  10.285 -0.1280 -0.6025  0.2518
    1Sil    Sib 1618   3.347   4.423  11.095  0.3826  0.2239  0.3299
    1Sil    Sib 1619   3.631   4.355  10.683 -0.3114 -0.3893 -0.1226
    1Sil    Sib 1620   3.190   4.661  10.740 -0.2082  0.1252  0.0173
    1Sil    Sib 1621   3.707   4.654  11.128  0.3445 -0.4032  0.0230
    1Sil    Sim 1622   3.478   4.606  10.335 -0.0358  0.2702  0.1070
    1Sil    Sib 1623   3.433   4.675  11.228 -0.0490  0.1719  0.0303
    1Sil    Sib 1624   3.193   4.662  10.435 -0.0025  0.1915 -0.1402
    1Sil    Sib 1625   3.731   4.604  10.825  0.1534  0.4253 -0.1043
    1Sil    Sib 1626   3.344   4.421  10.798  0.2967  0.3297  0.3433
    1Sil    Sib 1627   3.880   4.419  11.185  0.5656 -0.4497  0.0856
    1Sil    Sib 1628   3.629   4.356  10.395  0.5878  0.0551  0.5421
    1Sil    Sib 1629   3.877   4.419  11.484  0.1889  0.0244  0.4981
    1Sil    Sib 1630   3.285   4.436  12.277  0.5213  0.3422 -0.0340
    1Sil    Sib 1631   3.580   4.361  11.880 -0.1894 -0.2049 -0.1411
    1Sil    Sib 1632   3.136   4.671  11.918  0.4260  0.5993  0.0883
    1Sil    Sib 1633   3.675   4.665  12.314  0.3360  0.2946  0.4139
    1Sil    Sib 1634   3.432   4.618  11.527  0.3107 -0.1941  0.0147
    1Sil    Sim 1635   3.394   4.671  12.424 -0.0579  0.1387  0.0320
    1Sil    Sib 1636   3.149   4.663  11.621  0.5234  0.3958 -0.0036
    1Sil    Sib 1637   3.685   4.611  12.014 -0.0249  0.4341 -0.1705
    1Sil    Sib 1638   3.305   4.428  11.975  0.2047 -0.2383 -0.4107
    1Sil    Sib 1639   3.834   4.412  12.378  0.0327 -0.1275  0.1200
    1Sil    Sib 1640   3.599   4.364  11.588 -0.1765 -0.1852 -0.1145
    1Sil    Sim 1641   3.919   4.913  10.289 -0.4074  0.0730  0.2876
    1Sil    Sib 1642   3.337   4.914  11.078  0.0472 -0.1339 -0.3995
    1Sil    Sib 1643   3.628   4.854  10.697  0.0482  0.3402  0.3021
    1Sil    Sib 1644   3.182   5.157  10.729 -0.4319 -0.4445 -0.1915
    1Sil    Sib 1645   3.716   5.156  11.113  0.4180  0.0802 -0.3265
    1Sil    Sim 1646   3.487   5.107  10.341  0.4289 -0.1972 -0.0476
    1Sil    Sib 1647   3.436   5.161  11.221  0.0670 -0.6899 -0.2231
    1Sil    Sib 1648   3.196   5.156  10.435  0.3383 -0.1418  0.4462
    1Sil    Sib 1649   3.747   5.098  10.822  0.4622  0.3803  0.0460
    1Sil    Sib 1650   3.349   4.916  10.778 -0.0321  0.4203 -0.4546
    1Sil    Sib 1651   3.873   4.907  11.193  0.2182  0.1499  0.0034
    1Sil    Sib 1652   3.644   4.847  10.403  0.2189 -0.1792  0.1022
    1Sil    Sib 1653   3.862   4.910  11.496 -0.4670  0.3622  0.0543
    1Sil    Sib 1654   3.282   4.916  12.291  0.2415  0.2029 -0.0276
    1Sil    Sib 1655   3.576   4.862  11.884 -0.0624  0.0646 -0.0786
    1Sil    Sib 1656   3.135   5.161  11.924 -0.4439  0.1679  0.2077
    1Sil    Sib 1657   3.669   5.159  12.318  0.6498  0.1459 -0.4053
    1Sil    Sib 1658   3.431   5.109  11.519 -0.0372  0.0853  0.2258
    1Sil    Sib 1659   3.393   5.169  12.415  0.0054  0.3919 -0.0727
    1Sil    Sib 1660   3.146   5.170  11.621 -0.1045 -0.1073 -0.0819
    1Sil    Sib 1661   3.681   5.106  12.020  0.0172  0.1906  0.4630
    1Sil    Sib 1662   3.295   4.922  11.989  0.2104 -0.0166  0.2579
    1Sil    Sim 1663   3.830   4.910  12.378 -0.3620  0.0440 -0.1417
    1Sil    Sib 1664   3.592   4.860  11.591  0.1841  0.3905 -0.2031
    1Sil    Sim 1665   3.931   5.410  10.285 -0.2575 -0.0587 -0.1312
    1Sil    Sib 1666   3.332   5.408  11.089  0.1991  0.2780  0.1312
    1Sil    Sib 1667   3.631   5.347  10.687 -0.3023 -0.4330  0.5820
    1Sil    Sib 1668   3.188   5.642  10.726 -0.4048 -0.0936 -0.2544
    1Sil    Sib 1669   3.728   5.647  11.119 -0.3253  0.0112 -0.2067
    1Sil    Sib 1670   3.481   5.602  10.321  0.3356 -0.1683 -0.0166
    1Sil    Sib 1671   3.437   5.651  11.225 -0.0624  0.4330 -0.1512
    1Sil    Sib 1672   3.201   5.648  10.423 -0.3107  0.3006 -0.1034
    1Sil    Sib 1673   3.741   5.597  10.826 -0.4216 -0.2280  0.3693
    1Sil    Sib 1674   3.352   5.397  10.785  0.0894  0.1164 -0.3598
    1Sil    Sib 1675   3.880   5.406  11.179 -0.1512 -0.3200  0.4076
    1Sil    Sib 1676   3.650   5.359  10.393 -0.5075 -0.0373  0.1174
    1Sil    Sib 1677   3.878   5.414  11.484  0.0857  0.1571  0.0658
    1Sil    Sib 1678   3.286   5.406  12.278  0.0470  0.1574  0.7306
    1Sil    Sib 1679   3.576   5.353  11.874 -0.2955  0.6040  0.0526
    1Sil    Sib 1680   3.125   5.651  11.923 -0.2319  0.1194  0.1715
    1Sil    Sib 1681   3.671   5.650  12.316  0.2976 -0.0694  0.1774
    1Sil    Sib 1682   3.422   5.602  11.523  0.0690 -0.0101  0.2603
    1Sil    Sib 1683   3.377   5.655  12.413  0.3505  0.0869 -0.0713
    1Sil    Sib 1684   3.142   5.652  11.628 -0.2347  0.5407 -0.2565
    1Sil    Sib 1685   3.673   5.606  12.019 -0.4182  0.5179  0.0794
    1Sil    Sib 1686   3.290   5.406  11.982  0.3773 -0.4556  0.2993
    1Sil    Sim 1687   3.833   5.411  12.388  0.0478 -0.1138 -0.0731
    1Sil    Sib 1688   3.591   5.357  11.573  0.0526 -0.1502  0.1250
    1Sil    Sim 1689   3.931   5.903  10.289 -0.1402  0.2399  0.0887
    1Sil    Sib 1690   3.342   5.899  11.084  0.3206  0.2281 -0.1060
    1Sil    Sib 1691   3.633   5.834  10.683  0.4578 -0.3631  0.1645
    1Sil    Sib 1692   3.188   6.137  10.723  0.4288  0.0861  0.3574
    1Sil    Sib 1693   3.722   6.146  11.116  0.1445  0.0013  0.0357
    1Sil    Sim 1694   3.479   6.092  10.321  0.1259  0.0091 -0.0690
    1Sil    Sib 1695   3.438   6.153  11.218  0.0376  0.3342 -0.5743
    1Sil    Sib 1696   3.195   6.145  10.425  0.2154 -0.6801 -0.1073
    1Sil    Sib 1697   3.743   6.078  10.817  0.3441  0.2155 -0.1263
    1Sil    Sib 1698   3.348   5.894  10.778 -0.0215  0.3632 -0.0145
    1Sil    Sib 1699   3.886   5.894  11.186 -0.5237  0.3067  0.5232
    1Sil    Sib 1700   3.645   5.847  10.391  0.2054 -0.2572 -0.2757
    1Sil    Sib 1701   3.873   5.894  11.490 -0.5940 -0.4326 -0.2382
    1Sil    Sib 1702   3.288   5.906  12.278  0.0852 -0.1966 -0.1458
    1Sil    Sib 1703   3.565   5.847  11.877 -0.0491 -0.3710  0.0317
    1Sil    Sib 1704   3.123   6.146  11.915 -0.1605  0.0420  0.1026
    1Sil    Sib 1705   3.663   6.140  12.311 -0.5512 -0.2001  0.3975
    1Sil    Sib 1706   3.420   6.098  11.507  0.0767 -0.4047 -0.0312
    1Sil    Sim 1707   3.383   6.157  12.424 -0.2327  0.1297  0.4153
    1Sil    Sib 1708   3.139   6.144  11.612  0.0953 -0.1466  0.1120
    1Sil    Sib 1709   3.684   6.084  12.014 -0.1974  0.0961 -0.2432
    1Sil    Sib 1710   3.288   5.908  11.969 -0.0730 -0.0355 -0.0202
    1Sil    Sib 1711   3.835   5.894  12.383  0.3205  0.2361  0.2482
    1Sil    Sib 1712   3.587   5.850  11.575 -0.4086 -0.3036  0.0959
    1Sil    Sib 1713   3.930   6.396  10.291  0.0230 -0.1937 -0.4989
    1Sil    Sib 1714   3.331   6.394  11.079  0.3354  0.2983  0.3012
    1Sil    Sib 1715   3.635   6.327  10.695  0.0769 -0.0456 -0.1610
    1Sil    Sib 1716   3.191   3.187  10.720 -0.1344 -0.1712  0.6308
    1Sil    Sib 1717   3.716   3.181  11.125  0.2392  0.5546 -0.0948
    1Sil    Sib 1718   3.476   3.124  10.326  0.1817 -0.0683  0.1127
    1Sil    Sib 1719   3.437   3.189  11.216  0.0346  0.0334  0.3499
    1Sil    Sib 1720   3.199   3.188  10.421 -0.1368  0.1281 -0.3525
    1Sil    Sib 1721   3.731   3.125  10.823 -0.3414 -0.0915 -0.3121
    1Sil    Sib 1722   3.347   6.383  10.782  0.1211 -0.1453  0.1103
    1Sil    Sib 1723   3.883   6.385  11.189 -0.0467  0.3783  0.3385
    1Sil    Sib 1724   3.647   6.338  10.387 -0.0051 -0.3082  0.1794
    1Sil    Sib 1725   3.863   6.387  11.485 -0.3684  0.0482 -0.2549
    1Sil    Sib 1726   3.276   6.398  12.289 -0.8513 -0.1534  0.1119
    1Sil    Sib 1727   3.574   6.335  11.884 -0.5216  0.3079  0.1213
    1Sil    Sib 1728   3.139   3.184  11.922  0.2524 -0.2998  0.0514
    1Sil    Sib 1729   3.665   3.175  12.311  0.3542  0.4833 -0.3455
    1Sil    Sib 1730   3.426   3.135  11.519  0.0572 -0.3266 -0.1550
    1Sil    Sib 1731   3.391   3.182  12.415  0.3592 -0.0907 -0.0356
    1Sil    Sib 1732   3.148   3.184  11.615  0.1445  0.3182 -0.2732
    1Sil    Sib 1733   3.680   3.135  12.017  0.5552  0.5007 -0.0304
    1Sil    Sib 1734   3.296   6.388  11.980  0.2345 -0.0165 -0.2431
    1Sil    Sim 1735   3.832   6.377  12.372 -0.3066  0.1251  0.0315
    1Sil    Sib 1736   3.579   6.339  11.581  0.0099  0.0385  0.1671
    1Sil    Sib 1737   4.745   3.440  10.293 -0.1456 -0.0723 -0.4295
    1Sil    Sib 1738   4.160   3.438  11.082  0.3197  0.1775  0.2037
    1Sil    Sib 1739   4.463   3.379  10.691 -0.1518  0.5902 -0.0800
    1Sil    Sib 1740   4.015   3.679  10.736  0.0374  0.5273  0.1495
    1Sil    Sib 1741   4.554   3.673  11.126 -0.0348 -0.3652  0.0221
    1Sil    Sib 1742   4.304   3.636  10.342  0.4924  0.2414 -0.1182
    1Sil    Sib 1743   4.273   3.680  11.226 -0.3018 -0.0509 -0.4232
    1Sil    Sib 1744   4.018   3.690  10.439 -0.4958  0.6558  0.1614
    1Sil    Sib 1745   4.565   3.628  10.828  0.1755 -0.2723 -0.1924
    1Sil    Sib 1746   4.180   3.435  10.790  0.3160  0.0798 -0.5345
    1Sil    Sib 1747   4.728   3.429  11.185  0.7179  0.2714  0.1153
    1Sil    Sib 1748   4.472   3.384  10.387  0.0724  0.3484  0.3721
    1Sil    Sib 1749   4.703   3.432  11.481  0.1849 -0.6823 -0.4133
    1Sil    Sib 1750   4.111   3.430  12.276 -0.0001  0.5569 -0.4289
    1Sil    Sib 1751   4.413   3.380  11.890 -0.2585 -0.0313 -0.0443
    1Sil    Sib 1752   3.965   3.685  11.915  0.0381  0.0817  0.1145
    1Sil    Sib 1753   4.490   3.666  12.319 -0.1438 -0.3215  0.3207
    1Sil    Sib 1754   4.259   3.632  11.526  0.0846 -0.1280 -0.2157
    1Sil    Sib 1755   4.207   3.677  12.410  0.0243 -0.1650  0.5398
    1Sil    Sib 1756   3.975   3.682  11.620  0.0724 -0.1685  0.3758
    1Sil    Sib 1757   4.511   3.621  12.025  0.0139 -0.0070  0.1745
    1Sil    Sib 1758   4.132   3.430  11.973  0.3972 -0.3320 -0.2932
    1Sil    Sib 1759   4.666   3.435  12.388 -0.5242  0.3202 -0.3269
    1Sil    Sib 1760   4.417   3.382  11.590 -0.1248 -0.1263 -0.4342
    1Sil    Sib 1761   4.759   3.930  10.294 -0.1149 -0.2403  0.2550
    1Sil    Sib 1762   4.173   3.927  11.085  0.3111  0.1093  0.2326
    1Sil    Sib 1763   4.457   3.868  10.684 -0.5808 -0.0571  0.0109
    1Sil    Sib 1764   4.016   4.186  10.731  0.2683 -0.0589 -0.3808
    1Sil    Sib 1765   4.550   4.168  11.131  0.1800 -0.0046  0.1735
    1Sil    Sib 1766   4.308   4.121  10.339  0.2055  0.3080 -0.3554
    1Sil    Sib 1767   4.263   4.177  11.235  0.5309  0.0930 -0.2315
    1Sil    Sib 1768   4.023   4.177  10.428  0.0249  0.1629  0.4625
    1Sil    Sib 1769   4.563   4.114  10.829 -0.0136  0.2986  0.5442
    1Sil    Sib 1770   4.174   3.930  10.786  0.1925  0.1135 -0.1655
    1Sil    Sib 1771   4.716   3.919  11.188 -0.0003 -0.2026 -0.6231
    1Sil    Sib 1772   4.480   3.879  10.394  0.4498 -0.2625 -0.1997
    1Sil    Sib 1773   4.711   3.925  11.485  0.0687 -0.0130 -0.1064
    1Sil    Sib 1774   4.108   3.928  12.276  0.1095 -0.4973 -0.2554
    1Sil    Sib 1775   4.411   3.878  11.879 -0.4789  0.1044  0.4014
    1Sil    Sib 1776   3.960   4.173  11.930 -0.1215 -0.3994  0.1665
    1Sil    Sib 1777   4.508   4.168  12.320  0.1149 -0.1916 -0.0040
    1Sil    Sib 1778   4.257   4.121  11.529 -0.3875 -0.3157 -0.0880
    1Sil    Sim 1779   4.225   4.162  12.419 -0.2430 -0.1365 -0.2036
    1Sil    Sib 1780   3.982   4.169  11.626  0.0433  0.3361 -0.2803
    1Sil    Sib 1781   4.525   4.118  12.025 -0.0008 -0.0216  0.0221
    1Sil    Sib 1782   4.130   3.930  11.981  0.1386 -0.3314 -0.2321
    1Sil    Sib 1783   4.659   3.909  12.372  0.0389 -0.3833  0.0257
    1Sil    Sib 1784   4.429   3.877  11.581 -0.0693  0.0502 -0.1309
    1Sil    Sim 1785   4.751   4.415  10.289 -0.0980 -0.1733 -0.1847
    1Sil    Sib 1786   4.165   4.430  11.089  0.2981 -0.3821 -0.0755
    1Sil    Sib 1787   4.466   4.370  10.688 -0.1731 -0.4143 -0.6502
    1Sil    Sib 1788   4.003   4.674  10.732 -0.2496  0.1609 -0.3054
    1Sil    Sib 1789   4.550   4.667  11.116 -0.8306 -0.1792  0.4877
    1Sil    Sim 1790   4.306   4.616  10.332 -0.3245  0.7489  0.2031
    1Sil    Sib 1791   4.272   4.665  11.233 -0.0445 -0.2658 -0.2092
    1Sil    Sib 1792   4.023   4.668  10.428  0.0965  0.0435 -0.0364
    1Sil    Sib 1793   4.572   4.615  10.821  0.0284 -0.1299 -0.1663
    1Sil    Sib 1794   4.184   4.429  10.795  0.1907  0.1787 -0.3595
    1Sil    Sib 1795   4.719   4.418  11.185  0.3770 -0.0378  0.0226
    1Sil    Sib 1796   4.470   4.370  10.386  0.0897  0.2643  0.0207
    1Sil    Sib 1797   4.700   4.417  11.493  0.3240 -0.0548  0.2597
    1Sil    Sib 1798   4.117   4.421  12.279  0.7143 -0.5592  0.1656
    1Sil    Sib 1799   4.417   4.373  11.888  0.1284 -0.0178 -0.0142
    1Sil    Sib 1800   3.965   4.662  11.929 -0.0169  0.1160  0.3885
    1Sil    Sib 1801   4.507   4.656  12.330  0.2444  0.0826 -0.5492
    1Sil    Sib 1802   4.259   4.609  11.526  0.0821  0.4229 -0.1647
    1Sil    Sim 1803   4.231   4.665  12.430 -0.1993 -0.3833 -0.2758
    1Sil    Sib 1804   3.978   4.664  11.624 -0.2029 -0.1553 -0.2814
    1Sil    Sib 1805   4.528   4.612  12.028 -0.3068  0.1741 -0.5361
    1Sil    Sib 1806   4.125   4.415  11.990 -0.2328 -0.1495 -0.0715
    1Sil    Sib 1807   4.669   4.403  12.382 -0.1791 -0.3261 -0.2018
    1Sil    Sib 1808   4.417   4.369  11.586 -0.2618 -0.1432 -0.0648
    1Sil    Sib 1809   4.749   4.927  10.312  0.1107 -0.1618 -0.0485
    1Sil    Sib 1810   4.156   4.910  11.091 -0.0759 -0.0605 -0.3089
    1Sil    Sib 1811   4.459   4.859  10.681 -0.1633 -0.5187 -0.0802
    1Sil    Sib 1812   4.031   5.163  10.715 -0.1296 -0.0600 -0.1415
    1Sil    Sib 1813   4.547   5.158  11.130  0.0736  0.8214 -0.0883
    1Sil    Sib 1814   4.306   5.102  10.315 -0.3423  0.1131 -0.2312
    1Sil    Sib 1815   4.259   5.173  11.230  0.1740  0.4583  0.2521
    1Sil    Sib 1816   4.031   5.160  10.418 -0.0334  0.4972 -0.3886
    1Sil    Sib 1817   4.565   5.096  10.828 -0.6253 -0.0732  0.4969
    1Sil    Sib 1818   4.183   4.909  10.793 -0.0305  0.2030 -0.2667
    1Sil    Sib 1819   4.705   4.907  11.197 -0.0033 -0.0070  0.0343
    1Sil    Sib 1820   4.471   4.866  10.393 -0.4205  0.0938  0.2991
    1Sil    Sib 1821   4.696   4.913  11.492 -0.1035 -0.5390 -0.5316
    1Sil    Sib 1822   4.123   4.912  12.295 -0.7422  0.0936  0.0080
    1Sil    Sib 1823   4.412   4.859  11.890 -0.1662 -0.2119  0.2752
    1Sil    Sib 1824   3.963   5.159  11.934 -0.1599 -0.0075  0.3307
    1Sil    Sib 1825   4.506   5.162  12.318 -0.3480 -0.0907  0.3776
    1Sil    Sib 1826   4.257   5.113  11.528  0.2445 -0.0223 -0.2137
    1Sil    Sim 1827   4.230   5.152  12.439 -0.0045 -0.0912 -0.0483
    1Sil    Sib 1828   3.975   5.163  11.626  0.0313 -0.2445 -0.3089
    1Sil    Sib 1829   4.521   5.108  12.025 -0.2490 -0.3586  0.1584
    1Sil    Sib 1830   4.130   4.911  11.990 -0.1491  0.1060  0.2425
    1Sil    Sib 1831   4.667   4.909  12.389  0.0946 -0.2683  0.1287
    1Sil    Sib 1832   4.414   4.863  11.588 -0.0745 -0.1526 -0.3340
    1Sil    Sim 1833   4.750   5.408  10.307 -0.5209  0.0442 -0.1528
    1Sil    Sib 1834   4.157   5.411  11.085  0.1275  0.0647 -0.1772
    1Sil    Sib 1835   4.465   5.341  10.693 -0.0406  0.9119 -0.3398
    1Sil    Sib 1836   4.022   5.652  10.731 -0.2890 -0.0154  0.1901
    1Sil    Sib 1837   4.542   5.637  11.120 -0.5316  0.1437  0.6436
    1Sil    Sim 1838   4.315   5.594  10.332 -0.0003  0.3421  0.4624
    1Sil    Sib 1839   4.268   5.650  11.223  0.3615  0.1696  0.3052
    1Sil    Sib 1840   4.041   5.655  10.435 -0.0873 -0.3955  0.3502
    1Sil    Sib 1841   4.568   5.599  10.821  0.3507 -0.0404 -0.0472
    1Sil    Sib 1842   4.188   5.410  10.791  0.2052 -0.1287  0.5602
    1Sil    Sib 1843   4.717   5.394  11.180 -0.7639 -0.1632  0.0970
    1Sil    Sib 1844   4.472   5.348  10.396 -0.1680 -0.0200 -0.3036
    1Sil    Sib 1845   4.700   5.401  11.481  0.0202  0.0290  0.1856
    1Sil    Sib 1846   4.119   5.398  12.296 -0.3189  0.1576 -0.4678
    1Sil    Sib 1847   4.402   5.354  11.889  0.1654  0.0578  0.0590
    1Sil    Sib 1848   3.963   5.646  11.930  0.3150 -0.2695 -0.0871
    1Sil    Sib 1849   4.511   5.640  12.323  0.4220  0.5512  0.2525
    1Sil    Sib 1850   4.261   5.598  11.520 -0.4469 -0.1538  0.2532
    1Sil    Sim 1851   4.227   5.634  12.426  0.6522  0.5585  0.0649
    1Sil    Sib 1852   3.984   5.658  11.627 -0.1342  0.7096 -0.5548
    1Sil    Sib 1853   4.513   5.594  12.023  0.0171 -0.0930  0.4006
    1Sil    Sib 1854   4.130   5.397  11.996 -0.3709 -0.3681  0.5981
    1Sil    Sim 1855   4.670   5.398  12.397 -0.0048  0.1925  0.1825
    1Sil    Sib 1856   4.421   5.351  11.586 -0.3713 -0.2268  0.3003
    1Sil    Sib 1857   4.759   5.904  10.296  0.3419 -0.1763 -0.2891
    1Sil    Sib 1858   4.169   5.893  11.085 -0.0616 -0.2040 -0.4735
    1Sil    Sib 1859   4.452   5.843  10.689 -0.1782  0.4510 -0.1756
    1Sil    Sib 1860   4.017   6.143  10.717  0.5406  0.0416  0.3537
    1Sil    Sib 1861   4.551   6.141  11.136  0.1138 -0.0203 -0.0116
    1Sil    Sib 1862   4.309   6.092  10.332 -0.1338 -0.2199 -0.0948
    1Sil    Sib 1863   4.267   6.144  11.225  0.0971 -0.2472  0.1622
    1Sil    Sib 1864   4.030   6.152  10.429  0.1187 -0.4555  0.4123
    1Sil    Sib 1865   4.559   6.086  10.838  0.2777 -0.5893  0.3368
    1Sil    Sib 1866   4.172   5.901  10.785  0.4388 -0.3748  0.1486
    1Sil    Sib 1867   4.706   5.888  11.192  0.2822  0.3939  0.2070
    1Sil    Sib 1868   4.480   5.846  10.385  0.3014 -0.0611 -0.1103
    1Sil    Sib 1869   4.695   5.890  11.489  0.2830 -0.1183  0.1455
    1Sil    Sib 1870   4.117   5.890  12.294 -0.2393  0.3824  0.0273
    1Sil    Sib 1871   4.401   5.839  11.882 -0.0999 -0.4806  0.2285
    1Sil    Sib 1872   3.957   6.140  11.920  0.3910  0.3844 -0.0074
    1Sil    Sib 1873   4.513   6.141  12.307  0.5477 -0.6382 -0.4341
    1Sil    Sib 1874   4.256   6.098  11.523 -0.0578 -0.0801  0.0515
    1Sil    Sib 1875   4.236   6.151  12.420 -0.5159 -0.1087  0.4410
    1Sil    Sib 1876   3.971   6.147  11.620  0.0524  0.2263  0.4662
    1Sil    Sib 1877   4.522   6.092  12.004 -0.2472 -0.0090 -0.8920
    1Sil    Sib 1878   4.129   5.897  11.987 -0.5933 -0.4503  0.1706
    1Sil    Sim 1879   4.668   5.888  12.389  0.0026  0.1932  0.5869
    1Sil    Sib 1880   4.409   5.839  11.589 -0.1759 -0.3791 -0.1263
    1Sil    Sib 1881   4.759   6.396  10.291 -0.3328  0.5052  0.4428
    1Sil    Sib 1882   4.167   6.398  11.087  0.0005  0.4210  0.2406
    1Sil    Sib 1883   4.459   6.337  10.700  0.3368 -0.0484 -0.1774
    1Sil    Sib 1884   4.012   3.190  10.728  0.3508 -0.3164 -0.2472
    1Sil    Sib 1885   4.555   3.181  11.132  0.4503 -0.2544  0.4402
    1Sil    Sib 1886   4.302   3.137  10.335  0.1645 -0.0633  0.3402
    1Sil    Sib 1887   4.268   3.197  11.228  0.0067 -0.5363 -0.2444
    1Sil    Sib 1888   4.018   3.188  10.430 -0.2118 -0.1566  0.4785
    1Sil    Sib 1889   4.574   3.137  10.832  0.0039  0.1190 -0.5516
    1Sil    Sib 1890   4.173   6.398  10.783 -0.1165 -0.0349 -0.8885
    1Sil    Sib 1891   4.723   6.382  11.182  0.2226  0.0365 -0.1657
    1Sil    Sib 1892   4.478   6.340  10.401  0.1991  0.2511 -0.0488
    1Sil    Sib 1893   4.708   6.379  11.480 -0.2159  0.3341  0.2099
    1Sil    Sib 1894   4.115   6.402  12.275  0.0851  0.0099  0.1652
    1Sil    Sib 1895   4.411   6.345  11.876 -0.3121 -0.2757  0.0609
    1Sil    Sib 1896   3.968   3.176  11.913 -0.2409  0.2945  0.1391
    1Sil    Sib 1897   4.509   3.185  12.314 -0.3157 -0.0382 -0.0966
    1Sil    Sib 1898   4.253   3.133  11.518 -0.2626 -0.0110  0.1458
    1Sil    Sim 1899   4.217   3.191  12.422  0.5458  0.1891  0.1857
    1Sil    Sib 1900   3.969   3.174  11.616  0.1866  0.0897 -0.1610
    1Sil    Sib 1901   4.520   3.129  12.023 -0.3367  0.2330  0.3478
    1Sil    Sib 1902   4.127   6.382  11.973  0.0995  0.2447 -0.2429
    1Sil    Sib 1903   4.662   6.381  12.381 -0.3065 -0.0867  0.3257
    1Sil    Sib 1904   4.420   6.347  11.575 -0.3678 -0.1211  0.4388
    1Sil    Sib 1905   2.260   3.444  10.309  0.2519 -0.4759 -0.0363
    1Sil    Sib 1906   5.008   3.434  11.083  0.2891 -0.5141 -0.3469
    1Sil    Sib 1907   1.967   3.385  10.682 -0.2206  0.0838 -0.5276
    1Sil    Sib 1908   4.846   3.679  10.737  0.0683 -0.0307  0.4672
    1Sil    Sib 1909   5.387   3.680  11.128  0.2597  0.0252  0.2309
    1Sil    Sib 1910   5.138   3.631  10.321  0.1777  0.3352 -0.3500
    1Sil    Sib 1911   5.095   3.688  11.225  0.1958  0.2910  0.0832
    1Sil    Sib 1912   4.859   3.684  10.436  0.1758 -0.3767  0.0523
    1Sil    Sib 1913   2.069   3.623  10.833 -0.0044 -0.2449 -0.0653
    1Sil    Sib 1914   5.016   3.428  10.789 -0.6147  0.2472 -0.0544
    1Sil    Sib 1915   2.219   3.428  11.190 -0.5064  0.4736 -0.0703
    1Sil    Sib 1916   1.976   3.390  10.379 -0.1342 -0.7289  0.1465
    1Sil    Sib 1917   2.213   3.418  11.485  0.1583 -0.0705 -0.1769
    1Sil    Sib 1918   4.948   3.425  12.281 -0.1953 -0.2464  0.0979
    1Sil    Sib 1919   1.907   3.384  11.879  0.0435  0.3741  0.0168
    1Sil    Sib 1920   4.794   3.673  11.926  0.1070  0.2437 -0.3531
    1Sil    Sib 1921   5.338   3.681  12.311  0.0285  0.5749 -0.0682
    1Sil    Sib 1922   5.083   3.621  11.519 -0.0424 -0.4005  0.1684
    1Sil    Sim 1923   5.048   3.672  12.410  0.0504 -0.3060  0.2226
    1Sil    Sib 1924   4.810   3.669  11.625  0.1151 -0.1847 -0.1368
    1Sil    Sib 1925   2.018   3.635  12.016 -0.1967 -0.2936  0.0472
    1Sil    Sib 1926   4.951   3.425  11.979 -0.4200  0.0107  0.4488
    1Sil    Sib 1927   2.177   3.434  12.362 -0.0465 -0.1592 -0.1119
    1Sil    Sib 1928   1.926   3.374  11.579 -0.1417  0.3428 -0.1905
    1Sil    Sim 1929   2.269   3.934  10.292  0.2752  0.3403 -0.0368
    1Sil    Sib 1930   4.999   3.926  11.083  0.3397  0.0500  0.3489
    1Sil    Sib 1931   1.981   3.864  10.681 -0.2394  0.1301  0.4429
    1Sil    Sib 1932   4.851   4.167  10.729  0.4232 -0.4123 -0.1084
    1Sil    Sib 1933   5.382   4.165  11.111  0.0569 -0.4739  0.5358
    1Sil    Sim 1934   5.140   4.117  10.325 -0.4581 -0.3281 -0.2169
    1Sil    Sib 1935   5.105   4.164  11.221  0.5058 -0.0441 -0.1741
    1Sil    Sib 1936   4.864   4.178  10.438  0.0003  0.1201  0.8195
    1Sil    Sib 1937   2.073   4.117  10.811 -0.1239 -0.2682  0.1222
    1Sil    Sib 1938   5.018   3.924  10.781  0.0728 -0.3112 -0.3695
    1Sil    Sib 1939   2.230   3.926  11.178  0.1550 -0.4185 -0.2948
    1Sil    Sib 1940   5.307   3.869  10.383  0.3352  0.0173 -0.4094
    1Sil    Sib 1941   2.213   3.920  11.488 -0.1065  0.7445  0.1443
    1Sil    Sib 1942   4.944   3.926  12.273  0.0580 -0.0050 -0.7111
    1Sil    Sib 1943   1.920   3.878  11.884 -0.3649 -0.4787  0.4233
    1Sil    Sib 1944   4.806   4.172  11.931  0.0106 -0.0016 -0.0974
    1Sil    Sib 1945   5.334   4.180  12.309 -0.0294 -0.0121 -0.4666
    1Sil    Sib 1946   5.094   4.115  11.518 -0.1184 -0.3674  0.1654
    1Sil    Sib 1947   5.056   4.165  12.418 -0.0475  0.0744 -0.0613
    1Sil    Sib 1948   4.818   4.174  11.626  0.4175 -0.5021 -0.1020
    1Sil    Sib 1949   2.022   4.118  12.018  0.2376  0.1721  0.2394
    1Sil    Sib 1950   4.960   3.925  11.978  0.0920 -0.3498  0.0728
    1Sil    Sim 1951   2.172   3.930  12.372 -0.1446  0.1220 -0.4662
    1Sil    Sib 1952   5.250   3.866  11.580  0.5200  0.3275  0.2261
    1Sil    Sib 1953   2.265   4.423  10.290 -0.1114 -0.1165 -0.1852
    1Sil    Sib 1954   5.000   4.413  11.082  0.2159  0.4382  0.0894
    1Sil    Sib 1955   1.974   4.355  10.680 -0.5901  0.4539 -0.1241
    1Sil    Sib 1956   4.853   4.663  10.726 -0.0740 -0.1580 -0.1504
    1Sil    Sib 1957   5.389   4.652  11.124 -0.1484  0.1036  0.0775
    1Sil    Sim 1958   5.144   4.612  10.315 -0.0091  0.6452 -0.3478
    1Sil    Sib 1959   5.110   4.654  11.225 -0.2732 -0.1461  0.0106
    1Sil    Sib 1960   4.865   4.667  10.422  0.4448 -0.2511  0.2146
    1Sil    Sib 1961   2.083   4.593  10.834 -0.2222  0.4497  0.2730
    1Sil    Sib 1962   5.015   4.416  10.784 -0.1804 -0.0855 -0.1632
    1Sil    Sib 1963   2.220   4.404  11.182  0.3155 -0.2867  0.2755
    1Sil    Sib 1964   5.310   4.370  10.385  0.5557 -0.3790  0.6773
    1Sil    Sib 1965   2.216   4.415  11.482 -0.4576 -0.1773  0.0470
    1Sil    Sib 1966   4.942   4.414  12.290 -0.1450  0.4825  0.2436
    1Sil    Sib 1967   1.915   4.367  11.884 -0.1101 -0.5614 -0.1072
    1Sil    Sib 1968   4.803   4.660  11.931  0.1911 -0.1109 -0.7290
    1Sil    Sib 1969   5.325   4.668  12.302  0.3188 -0.3049  0.0898
    1Sil    Sib 1970   5.089   4.610  11.517  0.1362 -0.2169 -0.2395
    1Sil    Sib 1971   5.044   4.670  12.411  0.3533  0.0659  0.2101
    1Sil    Sib 1972   4.809   4.671  11.633  0.2749 -0.0241  0.0662
    1Sil    Sib 1973   2.030   4.611  12.017 -0.1357  0.1635 -0.2288
    1Sil    Sib 1974   4.960   4.416  11.995 -0.1051  0.1668 -0.1016
    1Sil    Sim 1975   2.161   4.426  12.372  0.0809 -0.3489 -0.0269
    1Sil    Sib 1976   5.253   4.370  11.587  0.0017 -0.1954  0.1344
    1Sil    Sim 1977   2.265   4.923  10.302 -0.2575  0.0523 -0.5316
    1Sil    Sib 1978   4.996   4.906  11.095 -0.1749 -0.0065  0.0982
    1Sil    Sib 1979   1.976   4.848  10.690  0.0899  0.2775 -0.1079
    1Sil    Sib 1980   4.847   5.155  10.739  0.0061  0.0485 -0.3762
    1Sil    Sib 1981   5.388   5.151  11.119 -0.0293 -0.0957 -0.0608
    1Sil    Sib 1982   5.138   5.112  10.326  0.4073  0.3064  0.2037
    1Sil    Sib 1983   5.108   5.162  11.224  0.3633 -0.0204 -0.1377
    1Sil    Sib 1984   4.865   5.163  10.443 -0.2712  0.5070  0.2768
    1Sil    Sib 1985   2.077   5.102  10.821  0.1074  0.3734 -0.0306
    1Sil    Sib 1986   5.023   4.908  10.790  0.5225  0.0519  0.2548
    1Sil    Sib 1987   2.227   4.902  11.183 -0.2563 -0.0506 -0.2073
    1Sil    Sib 1988   5.307   4.865  10.384  0.0222 -0.5613  0.0330
    1Sil    Sib 1989   2.207   4.904  11.483  0.0152 -0.3728 -0.3717
    1Sil    Sib 1990   4.937   4.918  12.278 -0.0009  0.1045 -0.1705
    1Sil    Sib 1991   1.929   4.859  11.878 -0.6419  0.1586  0.0436
    1Sil    Sib 1992   4.795   5.160  11.927 -0.5358  0.1051 -0.4020
    1Sil    Sib 1993   5.337   5.151  12.315  0.0004 -0.1751 -0.2413
    1Sil    Sib 1994   5.086   5.106  11.518  0.3480  0.0164 -0.2305
    1Sil    Sib 1995   5.055   5.158  12.405  0.5374  0.1063 -0.5488
    1Sil    Sib 1996   4.802   5.154  11.626  0.2642  0.0564  0.3040
    1Sil    Sib 1997   2.028   5.107  12.022  0.4421  0.1434  0.0859
    1Sil    Sib 1998   4.966   4.917  11.978 -0.5382 -0.1568 -0.2567
    1Sil    Sib 1999   2.171   4.901  12.376  0.4652 -0.0430 -0.0272
    1Sil    Sib 2000   5.250   4.862  11.578  0.0725 -0.0874  0.9736
    1Sil    Sim 2001   2.258   5.416  10.288 -0.1190 -0.6037 -0.3012
    1Sil    Sib 2002   4.996   5.399  11.082 -0.8015 -0.2456 -0.6862
    1Sil    Sib 2003   1.967   5.349  10.678 -0.0357  0.4941 -0.0013
    1Sil    Sib 2004   4.846   5.652  10.730  0.0281 -0.4376 -0.1878
    1Sil    Sib 2005   5.382   5.646  11.120 -0.1308  0.2107  0.4818
    1Sil    Sim 2006   5.142   5.603  10.322  0.1561 -0.0713 -0.1167
    1Sil    Sib 2007   5.096   5.647  11.222  0.1846 -0.2797 -0.5470
    1Sil    Sib 2008   4.857   5.659  10.430  0.0488 -0.0024  0.1068
    1Sil    Sib 2009   2.073   5.589  10.824 -0.1673 -0.0791 -0.1775
    1Sil    Sib 2010   5.008   5.405  10.785  0.1399 -0.1261  0.2486
    1Sil    Sib 2011   2.221   5.405  11.182 -0.1197  0.2022 -0.2851
    1Sil    Sib 2012   5.303   5.359  10.380  0.2685  0.3734  0.3011
    1Sil    Sib 2013   2.203   5.399  11.483  0.5808  0.1972  0.2157
    1Sil    Sib 2014   4.952   5.405  12.279  0.0437  0.0772 -0.4204
    1Sil    Sib 2015   1.916   5.347  11.876 -0.0924 -0.3064  0.0631
    1Sil    Sib 2016   4.798   5.655  11.918 -0.2434  0.1316 -0.0735
    1Sil    Sib 2017   5.338   5.643  12.310  0.1252  0.1179 -0.0330
    1Sil    Sib 2018   5.082   5.600  11.515  0.0135 -0.5420 -0.0090
    1Sil    Sib 2019   5.063   5.640  12.426  0.1112 -0.0873 -0.2046
    1Sil    Sib 2020   4.798   5.641  11.616 -0.2431  0.3980 -0.6523
    1Sil    Sib 2021   2.027   5.595  12.009  0.5320 -0.1409 -0.2524
    1Sil    Sib 2022   4.957   5.404  11.981  0.1553 -0.0123  0.0156
    1Sil    Sib 2023   2.170   5.399  12.383 -0.4834 -0.3375 -0.3031
    1Sil    Sib 2024   5.242   5.352  11.578  0.4708  0.2907 -0.4466
    1Sil    Sib 2025   2.263   5.906  10.296 -0.4340 -0.3124  0.0589
    1Sil    Sib 2026   4.988   5.900  11.091 -0.3882 -0.1089  0.6142
    1Sil    Sib 2027   1.970   5.839  10.689  0.5094  0.1762 -0.1681
    1Sil    Sib 2028   4.843   6.143  10.732  0.1350 -0.4422 -0.1142
    1Sil    Sib 2029   5.376   6.137  11.126  0.6969 -0.3856 -0.2132
    1Sil    Sib 2030   5.152   6.088  10.336 -0.2690  0.4224 -0.1633
    1Sil    Sib 2031   5.092   6.145  11.228 -0.4527 -0.2153 -0.2047
    1Sil    Sib 2032   4.868   6.151  10.433 -0.7609 -0.4590  0.1485
    1Sil    Sib 2033   2.074   6.085  10.826 -0.3936  0.4269  0.4558
    1Sil    Sib 2034   5.018   5.901  10.789 -0.1121  0.2849 -0.1326
    1Sil    Sib 2035   2.220   5.890  11.172 -0.0051  0.3016 -0.0714
    1Sil    Sib 2036   5.319   5.841  10.392  0.0205 -0.0444  0.8286
    1Sil    Sib 2037   2.203   5.894  11.476  0.0828 -0.4241  0.0761
    1Sil    Sib 2038   4.953   5.890  12.303  0.1817 -0.0445 -0.0912
    1Sil    Sib 2039   1.918   5.842  11.879  0.5828  0.0328  0.1830
    1Sil    Sib 2040   4.803   6.147  11.920 -0.5564 -0.0792  0.2644
    1Sil    Sib 2041   5.325   6.141  12.311 -0.3453  0.6643 -0.3264
    1Sil    Sib 2042   5.089   6.095  11.526 -0.1227 -0.0913 -0.6250
    1Sil    Sib 2043   5.051   6.142  12.427 -0.4171  0.0391 -0.1969
    1Sil    Sib 2044   4.814   6.138  11.625  0.4601 -0.2768  0.3218
    1Sil    Sib 2045   2.024   6.088  12.014 -0.4129 -0.1606 -0.3708
    1Sil    Sib 2046   4.958   5.903  11.992 -0.2170 -0.4078  0.2187
    1Sil    Sim 2047   2.166   5.889  12.382  0.0841  0.4142 -0.1989
    1Sil    Sib 2048   5.240   5.843  11.578  0.0595 -0.3752 -0.0531
    1Sil    Sib 2049   2.271   6.390  10.303 -0.4160  0.2768 -0.5956
    1Sil    Sib 2050   5.010   6.391  11.094 -0.0755  0.0806  0.3708
    1Sil    Sib 2051   1.977   6.336  10.692 -0.3585  0.0583  0.2139
    1Sil    Sib 2052   4.852   3.180  10.721  0.0169 -0.1159  0.2181
    1Sil    Sib 2053   2.055   3.183  11.119  0.2197 -0.0330  0.0703
    1Sil    Sib 2054   1.826   3.141  10.320  0.0516 -0.0331 -0.4970
    1Sil    Sib 2055   5.108   3.185  11.228 -0.2878 -0.2211  0.2993
    1Sil    Sib 2056   4.862   3.187  10.415  0.1675 -0.5529  0.3852
    1Sil    Sib 2057   2.063   3.138  10.829  0.2539 -0.2733 -0.3747
    1Sil    Sib 2058   5.019   6.386  10.797 -0.5547  0.2758  0.2384
    1Sil    Sib 2059   2.215   6.383  11.182 -0.2111 -0.3279 -0.0559
    1Sil    Sib 2060   5.314   6.341  10.389 -0.0045  0.3211  0.4040
    1Sil    Sib 2061   2.206   6.381  11.481 -0.6583 -0.3596 -0.5467
    1Sil    Sib 2062   4.950   6.386  12.279 -0.5316 -0.1637  0.1722
    1Sil    Sib 2063   1.916   6.341  11.884  0.2176  0.1824  0.3604
    1Sil    Sib 2064   4.791   3.178  11.914  0.3796  0.3499 -0.5100
    1Sil    Sib 2065   2.005   3.187  12.316 -0.6247 -0.0862  0.0491
    1Sil    Sib 2066   1.766   3.129  11.522 -0.1370  0.5688 -0.3321
    1Sil    Sim 2067   5.048   3.181  12.428  0.3641  0.7863  0.1164
    1Sil    Sib 2068   4.811   3.181  11.616 -0.1675 -0.2586  0.1959
    1Sil    Sib 2069   2.019   3.141  12.012  0.4757  0.2445 -0.2437
    1Sil    Sib 2070   4.958   6.391  11.981  0.0262 -0.3221 -0.0059
    1Sil    Sib 2071   2.168   6.389  12.366  0.2288 -0.2521  0.2103
    1Sil    Sib 2072   5.256   6.338  11.581 -0.0566  0.1667  0.3812
    1Sil     Hy 2073   3.051   3.377  10.100  0.0725  0.5124 -0.5877
    1Sil     Hy 2074   2.654   3.653  10.122 -0.3605 -0.4136 -0.1978
    1Sil     Hy 2075   2.463   3.724  12.604 -1.1073 -1.9772  1.2813
    1Sil     Hm 2076   2.970   3.351  12.606 -1.3850 -0.2480 -1.4787
    1Sil     Hm 2077   3.139   3.364  12.557  0.0865  0.1540 -0.9355
    1Sil     Hm 2078   3.056   3.508  12.604  0.6914 -0.4486 -0.6266
    1Sil     Hy 2079   3.237   3.890  10.141  0.7633  1.4998  3.1588
    1Sil     Hm 2080   2.509   4.143  10.140 -0.3718  3.3754 -0.5325
    1Sil     Hm 2081   2.684   4.114  10.086  0.5675 -0.5629  0.7483
    1Sil     Hm 2082   2.619   4.264  10.148  2.2747  0.7592  4.5084
    1Sil     Hm 2083   2.396   4.122  12.585 -0.6100  1.6946  0.7858
    1Sil     Hm 2084   2.549   4.062  12.644  2.6815  1.4583 -0.9297
    1Sil     Hm 2085   2.503   4.233  12.653 -1.9784  0.8649 -1.3975
    1Sil     Hy 2086   3.003   3.791  12.541 -2.6554  1.0766  1.9113
    1Sil     Hm 2087   3.102   4.464  10.054 -0.5950  0.9414 -0.1086
    1Sil     Hm 2088   3.120   4.288  10.087  0.7276 -0.2634 -0.8315
    1Sil     Hm 2089   3.257   4.393  10.112 -0.3393 -0.1197 -0.5778
    1Sil     Hy 2090   2.638   4.594  10.114 -1.9921 -0.8466 -0.3832
    1Sil     Hm 2091   2.490   4.537  12.579 -0.3034  0.6980  1.1284
    1Sil     Hm 2092   2.607   4.661  12.629 -1.4087 -0.5571  0.0268
    1Sil     Hm 2093   2.442   4.705  12.595 -2.1566 -1.2651  1.0600
    1Sil     Hy 2094   3.009   4.504  12.576 -0.2552  0.0564 -1.7399
    1Sil     Hy 2095   3.195   4.928  10.126 -0.8439  1.2042  1.5650
    1Sil     Hy 2096   2.649   5.224  10.154  1.5791 -0.9941  2.4341
    1Sil     Hy 2097   2.514   5.213  12.607  4.0084 -0.0380  0.5703
    1Sil     Hy 2098   2.947   4.882  12.600  0.3729  0.3629  1.1864
    1Sil     Hm 2099   3.058   5.322  10.083  0.1435  0.5773  0.3935
    1Sil     Hm 2100   3.214   5.265  10.138 -0.1865  0.7215 -2.4772
    1Sil     Hm 2101   3.191   5.438  10.103  0.2263  2.3299  1.9394
    1Sil     Hy 2102   2.644   5.583  10.123 -0.9976  1.0114 -0.9046
    1Sil     Hy 2103   2.479   5.690  12.605 -0.2088 -0.1375 -0.7126
    1Sil     Hm 2104   3.087   5.296  12.554  0.0546 -0.0797  0.5018
    1Sil     Hm 2105   3.048   5.471  12.585  1.0210 -1.1040  0.5315
    1Sil     Hm 2106   2.927   5.329  12.580  1.2597 -3.1606 -0.2727
    1Sil     Hy 2107   3.078   5.841  10.092 -0.6774 -1.0477  1.0460
    1Sil     Hm 2108   2.606   6.230  10.167  0.7725  0.1891  1.6519
    1Sil     Hm 2109   2.695   6.082  10.124 -0.8092  1.0843 -0.3939
    1Sil     Hm 2110   2.525   6.070  10.141 -0.2761  0.8609 -2.4307
    1Sil     Hy 2111   2.541   6.213  12.619 -0.9683  1.0811 -1.6543
    1Sil     Hm 2112   2.952   5.904  12.596 -0.3066  0.8040 -0.8018
    1Sil     Hm 2113   3.070   5.785  12.535  2.5895  1.1919  1.2883
    1Sil     Hm 2114   3.111   5.960  12.560 -0.7997  2.1897 -1.7591
    1Sil     Hy 2115   3.126   6.431  10.093 -3.4329 -2.2853 -3.2376
    1Sil     Hy 2116   2.623   3.064  10.149 -0.3604  0.0339 -0.9804
    1Sil     Hm 2117   2.498   3.228  12.639  1.1208  0.7026 -0.5416
    1Sil     Hm 2118   2.389   3.124  12.548 -0.1173  2.4036 -3.4862
    1Sil     Hm 2119   2.542   3.059  12.601 -0.2646  0.8421  2.0338
    1Sil     Hy 2120   2.957   6.350  12.582 -1.2861 -0.2494 -2.5459
    1Sil     Hy 2121   3.938   3.465  10.091  4.7156  1.8173 -1.8200
    1Sil     Hy 2122   3.429   3.547  10.149  0.7437 -0.3260  0.3873
    1Sil     Hm 2123   3.241   3.704  12.573 -1.0171 -1.1439  0.6696
    1Sil     Hm 2124   3.324   3.555  12.583 -0.8702 -0.2034 -0.5294
    1Sil     Hm 2125   3.412   3.701  12.624 -0.1230 -0.1233 -0.8349
    1Sil     Hm 2126   3.964   3.436  12.569 -0.4850  0.8993 -0.6113
    1Sil     Hm 2127   3.793   3.446  12.617 -0.1543 -0.8128 -0.1867
    1Sil     Hm 2128   3.847   3.295  12.559  1.3289 -0.5573  1.6456
    1Sil     Hm 2129   4.085   3.879  10.142  0.4906  0.4405  1.1655
    1Sil     Hm 2130   3.920   3.830  10.087  0.4152 -0.5887 -0.1704
    1Sil     Hm 2131   3.968   3.997  10.079 -3.2800 -1.0895 -0.3563
    1Sil     Hy 2132   3.464   4.091  10.121  0.5118 -0.9859  1.4266
    1Sil     Hm 2133   3.225   4.191  12.587  0.1295 -0.3423 -0.1954
    1Sil     Hm 2134   3.389   4.177  12.648  0.5833 -3.7766  1.3579
    1Sil     Hm 2135   3.302   4.034  12.583 -2.6253 -0.5991 -3.4717
    1Sil     Hy 2136   3.831   3.931  12.593  1.4802 -1.2850  1.0695
    1Sil     Hm 2137   3.882   4.446  10.068  0.3572  4.0697  3.9442
    1Sil     Hm 2138   4.045   4.445  10.099 -0.5154  1.5169  0.0268
    1Sil     Hm 2139   3.962   4.288  10.106 -0.8425 -0.2909 -0.6701
    1Sil     Hm 2140   3.531   4.664  10.115  0.2098 -2.5536 -1.5620
    1Sil     Hm 2141   3.411   4.546  10.113 -2.2677  1.4645 -1.1235
    1Sil     Hm 2142   3.364   4.708  10.163  1.4939  0.7734  3.0461
    1Sil     Hm 2143   3.366   4.722  12.635 -0.4428  1.0958 -1.0232
    1Sil     Hm 2144   3.232   4.619  12.566  0.6331  0.2247 -2.2680
    1Sil     Hm 2145   3.390   4.545  12.608 -1.8876 -2.2662 -1.4786
    1Sil     Hy 2146   3.977   4.348  12.525 -0.2141 -0.2332  0.3515
    1Sil     Hm 2147   3.982   4.783  10.102  0.6377  0.0037  1.1264
    1Sil     Hm 2148   3.924   4.946  10.050  0.3425  1.3004  0.2509
    1Sil     Hm 2149   4.075   4.929  10.115 -0.9526  3.0702 -0.2306
    1Sil     Hm 2150   3.437   5.225  10.149 -1.0780 -1.4151 -2.1089
    1Sil     Hm 2151   3.369   5.061  10.150  2.3439 -2.1525 -1.8338
    1Sil     Hm 2152   3.539   5.089  10.118 -0.5221 -3.2635  0.3436
    1Sil     Hy 2153   3.314   5.248  12.586 -3.6064 -1.3316  1.9668
    1Sil     Hm 2154   3.903   4.941  12.592  1.1535  0.6296 -1.5672
    1Sil     Hm 2155   3.738   4.887  12.580 -0.5873 -1.8271 -0.2626
    1Sil     Hm 2156   3.880   4.776  12.570 -1.1181 -0.4062 -0.8294
    1Sil     Hm 2157   3.905   5.372  10.053 -0.4483 -0.5193  0.1675
    1Sil     Hm 2158   4.062   5.318  10.117 -0.8339 -0.3300 -1.3763
    1Sil     Hm 2159   4.030   5.495  10.099 -1.4551  0.3138  0.0039
    1Sil     Hy 2160   3.343   5.602  10.182 -0.3226  0.6097 -0.0022
    1Sil     Hy 2161   3.387   5.681  12.614  0.2625 -1.9852  0.7418
    1Sil     Hm 2162   3.965   5.390  12.573  0.2289 -0.4131  1.0952
    1Sil     Hm 2163   3.800   5.440  12.608  0.7370  0.3502  0.3269
    1Sil     Hm 2164   3.839   5.270  12.565 -0.4820  0.1353 -1.2724
    1Sil     Hm 2165   4.079   5.847  10.117  0.8367  2.2068 -3.0351
    1Sil     Hm 2166   3.920   5.763  10.119 -2.0366  1.1701  0.7726
    1Sil     Hm 2167   3.927   5.921  10.061  0.0077  1.1822  2.6053
    1Sil     Hm 2168   3.386   6.029  10.127  1.1000 -0.5553 -0.8417
    1Sil     Hm 2169   3.389   6.207  10.146 -1.6654 -0.3483  0.8654
    1Sil     Hm 2170   3.531   6.130  10.091 -1.8104  2.7824 -0.8805
    1Sil     Hm 2171   3.387   6.172  12.654 -1.5591 -1.1857  1.4817
    1Sil     Hm 2172   3.226   6.147  12.597  0.0414 -0.8433  0.7024
    1Sil     Hm 2173   3.339   6.007  12.595 -3.4782 -0.7644  0.7096
    1Sil     Hy 2174   3.911   5.935  12.583  0.3527  1.0482 -0.3306
    1Sil     Hy 2175   3.909   6.404  10.076 -1.8374 -2.1870  1.6383
    1Sil     Hy 2176   3.423   3.050  10.139  1.6792 -0.2668  0.5895
    1Sil     Hy 2177   3.333   3.063  12.582 -1.2755  0.7706  0.2722
    1Sil     Hm 2178   3.932   6.262  12.537  0.4912  0.2926  0.7854
    1Sil     Hm 2179   3.896   6.427  12.591 -1.1488  2.3329 -0.9694
    1Sil     Hm 2180   3.765   6.314  12.583  0.3339  0.7945  2.3355
    1Sil     Hy 2181   4.821   3.503  10.101 -0.4204  0.0893 -1.0835
    1Sil     Hy 2182   4.300   3.570  10.149 -1.7571 -0.0257 -1.3718
    1Sil     Hy 2183   4.065   3.701  12.564  0.1504 -0.4119  0.5920
    1Sil     Hy 2184   4.656   3.492  12.579 -2.1445 -1.6143  1.8869
    1Sil     Hy 2185   4.738   3.923  10.087 -0.7217 -0.1836  0.5111
    1Sil     Hy 2186   4.294   4.057  10.157 -2.4020 -0.4467 -1.0038
    1Sil     Hm 2187   4.168   4.021  12.600  1.3816 -0.6850  0.9503
    1Sil     Hm 2188   4.243   4.169  12.654  0.7955  2.2851 -1.7406
    1Sil     Hm 2189   4.082   4.184  12.607  0.2929  0.5079 -0.1542
    1Sil     Hy 2190   4.684   3.959  12.571  0.8029  0.2531 -1.4840
    1Sil     Hm 2191   4.917   4.404  10.126 -0.5834  1.0477 -1.5385
    1Sil     Hm 2192   4.821   4.255  10.138  2.3709  0.7242 -3.0453
    1Sil     Hm 2193   4.749   4.393  10.063 -2.7471 -0.1871  1.7281
    1Sil     Hm 2194   4.268   4.751  10.141 -0.0858 -0.2257 -1.4476
    1Sil     Hm 2195   4.334   4.590  10.111 -0.6097 -1.7086 -0.9833
    1Sil     Hm 2196   4.166   4.601  10.153 -0.0509  0.0074 -0.3191
    1Sil     Hm 2197   4.100   4.690  12.623  1.9343  1.9874  2.2970
    1Sil     Hm 2198   4.173   4.526  12.603 -3.3028  0.7642 -2.7947
    1Sil     Hm 2199   4.267   4.670  12.666 -4.1535  2.1043  4.0346
    1Sil     Hy 2200   4.757   4.292  12.527  0.0231  0.5831 -0.6429
    1Sil     Hy 2201   4.791   4.992  10.117  0.2308 -0.7246 -2.2839
    1Sil     Hy 2202   4.376   5.127  10.119 -1.2907 -2.1111 -2.7883
    1Sil     Hm 2203   4.197   5.216  12.662 -1.1718  0.6215 -0.6146
    1Sil     Hm 2204   4.092   5.076  12.606 -0.2298  0.2935  0.5697
    1Sil     Hm 2205   4.263   5.057  12.657 -2.0132  0.5100  2.3596
    1Sil     Hy 2206   4.655   4.814  12.576 -1.3670  1.7436  1.1364
    1Sil     Hm 2207   4.751   5.264  10.129 -0.3058 -0.5640  0.7648
    1Sil     Hm 2208   4.739   5.427  10.075  0.0777  0.3785 -0.0764
    1Sil     Hm 2209   4.896   5.361  10.127  0.2877  0.5976 -0.0548
    1Sil     Hm 2210   4.255   5.535  10.102 -0.7228 -0.5259  2.0064
    1Sil     Hm 2211   4.225   5.704  10.149 -1.1049 -0.8404 -0.9745
    1Sil     Hm 2212   4.381   5.665  10.118  0.4482  0.8314  2.5453
    1Sil     Hm 2213   4.213   5.684  12.662  0.9364 -0.6175  0.1371
    1Sil     Hm 2214   4.070   5.615  12.600 -0.3183  1.1883 -1.6718
    1Sil     Hm 2215   4.207   5.504  12.619  0.9302 -0.6028 -2.1115
    1Sil     Hm 2216   4.672   5.454  12.627  0.6740  0.0604  0.0066
    1Sil     Hm 2217   4.635   5.293  12.596 -1.1219  1.0982  1.1990
    1Sil     Hm 2218   4.798   5.342  12.588 -0.2883 -0.4302  0.5940
    1Sil     Hy 2219   4.767   5.814  10.103  1.0544 -3.8770  1.4811
    1Sil     Hy 2220   4.318   6.052  10.122 -1.6302 -1.7291  1.1714
    1Sil     Hy 2221   4.288   6.124  12.627  0.0802  0.3957  0.0625
    1Sil     Hm 2222   4.803   5.856  12.584  0.6177  1.3310 -0.6292
    1Sil     Hm 2223   4.671   5.961  12.625  0.2519 -0.6390  1.1899
    1Sil     Hm 2224   4.641   5.790  12.603 -1.4075  0.1056 -2.2887
    1Sil     Hy 2225   4.776   6.432  10.082 -0.7211  0.0174  0.2243
    1Sil     Hy 2226   4.334   3.100  10.143 -0.7495  0.1993 -0.4396
    1Sil     Hm 2227   4.232   3.221  12.646  1.0742  1.0634 -1.2995
    1Sil     Hm 2228   4.061   3.202  12.593  1.0345  1.3378  0.7125
    1Sil     Hm 2229   4.164   3.066  12.613  2.1261 -0.1667  0.7467
    1Sil     Hy 2230   4.696   6.425  12.578  0.0592  0.3481  0.2942
    1Sil     Hy 2231   2.383   3.510  10.147 -0.1001  1.3760  1.6441
    1Sil     Hy 2232   5.088   3.566  10.150 -2.2268 -0.8889  1.1785
    1Sil     Hm 2233   4.877   3.676  12.572  0.7046  1.8397 -0.9778
    1Sil     Hm 2234   4.993   3.538  12.595  0.0922  0.1277 -0.1522
    1Sil     Hm 2235   5.032   3.708  12.645  1.4167 -0.5089 -0.2388
    1Sil     Hy 2236   2.236   3.493  12.556  4.0805 -0.7722  0.7055
    1Sil     Hm 2237   2.264   3.925  10.058 -0.2568 -0.6386 -0.8107
    1Sil     Hm 2238   2.328   3.774  10.124 -0.0241 -0.0165  1.0599
    1Sil     Hm 2239   2.426   3.921  10.120  0.4033 -0.6143 -0.1215
    1Sil     Hm 2240   5.187   4.199  10.107  0.8857 -0.4444  1.7764
    1Sil     Hm 2241   5.120   4.036  10.107 -4.1468 -0.5554  0.5175
    1Sil     Hm 2242   5.010   4.174  10.140 -0.6013  0.9038  4.0600
    1Sil     Hy 2243   5.049   4.172  12.632 -0.0723 -0.1505  0.5602
    1Sil     Hm 2244   2.255   3.818  12.570 -2.1861 -2.0746  2.7554
    1Sil     Hm 2245   2.215   3.987  12.599 -2.6807  0.1691  0.0466
    1Sil     Hm 2246   2.094   3.859  12.584 -0.3460 -0.7620 -0.4861
    1Sil     Hy 2247   2.232   4.408  10.080  0.2551 -0.6068 -0.2478
    1Sil     Hm 2248   5.104   4.740  10.152  2.2703  0.7789 -0.8586
    1Sil     Hm 2249   5.198   4.602  10.099 -1.4320  0.9746 -1.9353
    1Sil     Hm 2250   5.021   4.582  10.121  1.1263  0.2525 -3.0953
    1Sil     Hy 2251   5.094   4.599  12.602 -0.5956 -0.4878  0.9551
    1Sil     Hm 2252   2.079   4.425  12.575  0.0203  0.6976 -1.0688
    1Sil     Hm 2253   2.218   4.312  12.548  1.0232 -0.0663 -0.6451
    1Sil     Hm 2254   2.245   4.483  12.576  0.9328 -0.7719 -0.5265
    1Sil     Hm 2255   2.428   4.937  10.149 -0.7487  1.5782 -2.2159
    1Sil     Hm 2256   2.321   4.801  10.128 -0.3313  0.4830 -0.3395
    1Sil     Hm 2257   2.265   4.966  10.088 -0.8235  2.1268  3.0981
    1Sil     Hy 2258   5.118   5.216  10.137 -0.2330 -0.7448  0.2554
    1Sil     Hy 2259   4.957   5.041  12.546  1.2086 -0.8364 -1.0579
    1Sil     Hy 2260   2.186   4.945  12.577  1.9776  0.2575 -0.1993
    1Sil     Hm 2261   2.411   5.458  10.142  1.0525 -0.4910 -1.6508
    1Sil     Hm 2262   2.349   5.297  10.114 -0.3152  0.6639  0.4556
    1Sil     Hm 2263   2.253   5.439  10.064 -0.8707  1.2267  2.0473
    1Sil     Hm 2264   5.059   5.751  10.160  0.9494  0.3477 -0.7893
    1Sil     Hm 2265   5.192   5.650  10.103  0.6200  2.6524  1.2028
    1Sil     Hm 2266   5.027   5.581  10.118  1.9993 -1.7796 -0.1098
    1Sil     Hy 2267   5.055   5.680  12.632  0.2058  0.3345 -0.9315
    1Sil     Hy 2268   2.111   5.363  12.577  1.1666 -1.1559  1.0205
    1Sil     Hy 2269   2.244   5.869  10.098 -0.2768  0.2708  0.4727
    1Sil     Hy 2270   5.040   6.064  10.163 -0.1364  0.8630 -1.8827
    1Sil     Hy 2271   5.065   6.182  12.628 -1.4695  1.1740  0.1435
    1Sil     Hm 2272   2.210   5.979  12.592 -0.6496  1.1607 -2.7174
    1Sil     Hm 2273   2.112   5.829  12.601 -1.1070 -0.8596 -0.8914
    1Sil     Hm 2274   2.285   5.818  12.586  2.0396  2.6540 -0.7612
    1Sil     Hy 2275   2.344   6.433  10.108  1.7311  1.2485  1.8332
    1Sil     Hy 2276   1.838   3.095  10.121  0.5721 -0.9351  1.7764
    1Sil     Hm 2277   4.966   3.236  12.638  4.8431  0.3984 -0.1496
    1Sil     Hm 2278   4.883   3.097  12.571 -2.5127  2.4279  2.6606
    1Sil     Hm 2279   5.048   3.081  12.651  1.0823  0.6208 -0.5284
    1Sil     Hy 2280   2.163   6.274  12.544 -0.4339 -0.5319 -1.3974
    2Eth     Ho 2281   2.207   1.981   4.481 -0.1630 -4.0168  1.9670
    2Eth     Oh 2282   2.296   1.978   4.509  0.6379 -0.3963  0.0890
    2Eth     Co 2283   2.389   2.033   4.419  0.0011 -0.6039 -0.6997
    2Eth    Hco 2284   2.345   2.130   4.397  0.1434 -0.0895  1.1727
    2Eth    Hco 2285   2.381   1.973   4.329  0.3732  0.5855 -1.5350
    2Eth     Ch 2286   2.527   2.053   4.481 -0.4523  0.3656  0.0198
    2Eth    Hcc 2287   2.587   2.085   4.395  1.2659  1.3063  1.5287
    2Eth    Hcc 2288   2.562   1.958   4.522  1.2985  0.5588 -0.9647
    2Eth    Hcc 2289   2.549   2.133   4.553  3.6518 -0.5928 -0.0174
    3Eth     Ho 2290   1.564   2.323   1.587 -0.7350  0.5506 -0.6468
    3Eth     Oh 2291   1.487   2.285   1.625 -0.0272  0.4868  0.7270
    3Eth     Co 2292   1.432   2.195   1.527  0.4799 -0.2876 -0.4591
    3Eth    Hco 2293   1.502   2.114   1.505  1.2994  0.6790 -1.4688
    3Eth    Hco 2294   1.407   2.236   1.429  0.9615 -1.5373 -1.1223
    3Eth     Ch 2295   1.301   2.131   1.581  0.2020  0.0529 -0.0494
    3Eth    Hcc 2296   1.306   2.098   1.685  0.0627  2.3105  0.6819
    3Eth    Hcc 2297   1.281   2.045   1.516  2.0278 -1.7076  1.6304
    3Eth    Hcc 2298   1.221   2.201   1.559  0.8762  1.2449  1.2453
    4Eth     Ho 2299   2.704   2.649   4.530  0.6438 -0.5546 -1.3444
    4Eth     Oh 2300   2.669   2.566   4.557 -0.2573  0.4031  0.5524
    4Eth     Co 2301   2.705   2.537   4.693 -0.1057 -0.3931 -0.4152
    4Eth    Hco 2302   2.661   2.605   4.765  0.1960  0.6002 -1.1497
    4Eth    Hco 2303   2.813   2.550   4.686 -0.0174 -0.9597 -0.1318
    4Eth     Ch 2304   2.673   2.388   4.719 -0.6660  0.7132 -0.0430
    4Eth    Hcc 2305   2.566   2.364   4.721 -0.1279 -1.9196 -0.6377
    4Eth    Hcc 2306   2.705   2.353   4.817  0.5985 -0.3048 -0.8057
    4Eth    Hcc 2307   2.728   2.331   4.643 -1.0348 -0.9697  0.9217
    5Eth     Ho 2308   0.256   1.841   6.491  2.2135  1.0276  3.1364
    5Eth     Oh 2309   0.171   1.863   6.524  0.6148  0.1674 -0.1402
    5Eth     Co 2310   0.108   1.950   6.423  0.4877 -0.2558 -0.2844
    5Eth    Hco 2311   0.034   1.908   6.355 -1.7007 -0.8660  2.3860
    5Eth    Hco 2312   0.191   2.001   6.374  0.3976 -0.2551 -0.4381
    5Eth     Ch 2313   0.027   2.058   6.492  0.7902 -0.7756 -0.2344
    5Eth    Hcc 2314  -0.027   2.106   6.411  0.4630 -3.0673 -1.4108
    5Eth    Hcc 2315   0.092   2.128   6.543 -1.8091  0.2109  1.8428
    5Eth    Hcc 2316  -0.037   2.015   6.570 -1.6684  0.9219 -1.2596
    6Eth     Ho 2317   2.925   1.595   6.764  0.0286 -0.8246 -2.0946
    6Eth     Oh 2318   2.833   1.606   6.785  0.5204  0.2632 -0.3439
    6Eth     Co 2319   2.805   1.743   6.813 -0.9582  0.2448 -0.3995
    6Eth    Hco 2320   2.806   1.802   6.721 -1.5802  0.3575 -0.3386
    6Eth    Hco 2321   2.879   1.779   6.885 -1.9155 -1.1992  1.3563
    6Eth     Ch 2322   2.664   1.764   6.879 -0.0216  1.0294 -0.8306
    6Eth    Hcc 2323   2.591   1.729   6.805 -0.3165 -0.8592  0.3353
    6Eth    Hcc 2324   2.642   1.868   6.905 -0.8511  0.1122  2.3823
    6Eth    Hcc 2325   2.645   1.707   6.969 -4.9615  3.5144 -0.0777
    7Eth     Ho 2326   1.214   2.278   3.119 -2.1555  0.4316 -2.2520
    7Eth     Oh 2327   1.266   2.352   3.092  0.0302  0.0275  0.5300
    7Eth     Co 2328   1.255   2.450   3.193  0.3693 -0.1759 -0.2008
    7Eth    Hco 2329   1.177   2.401   3.252  0.4334  1.5423  1.3365
    7Eth    Hco 2330   1.202   2.528   3.140 -0.1257  1.0648  2.0585
    7Eth     Ch 2331   1.380   2.484   3.273 -0.8737 -0.6402 -0.1649
    7Eth    Hcc 2332   1.379   2.586   3.313  1.1123 -0.6536 -0.0567
    7Eth    Hcc 2333   1.455   2.478   3.195 -3.4918  0.6277 -2.8761
    7Eth    Hcc 2334   1.411   2.429   3.362  0.1834  0.9953  0.5067
    8Eth     Ho 2335   1.117   2.517   6.626 -1.9449  0.7848 -0.7763
    8Eth     Oh 2336   1.166   2.597   6.629 -0.8479  0.1067  0.0663
    8Eth     Co 2337   1.289   2.569   6.564  0.7510 -0.3528 -0.4370
    8Eth    Hco 2338   1.279   2.546   6.458  3.3559  0.0870 -0.8239
    8Eth    Hco 2339   1.328   2.480   6.613 -0.1397  1.2567  3.3207
    8Eth     Ch 2340   1.387   2.686   6.603  0.3462  0.3673  0.4451
    8Eth    Hcc 2341   1.423   2.666   6.704  1.5917 -2.1623 -0.4698
    8Eth    Hcc 2342   1.323   2.774   6.607 -1.7568 -1.0013 -1.8015
    8Eth    Hcc 2343   1.471   2.701   6.535 -1.0553  0.7151 -1.2393
    9Eth     Ho 2344   2.158   3.057   5.603  1.3674  0.4548  1.2386
    9Eth     Oh 2345   2.182   3.059   5.512 -0.5256  0.0500  0.6984
    9Eth     Co 2346   2.174   3.195   5.465  0.2792 -0.7415 -1.0335
    9Eth    Hco 2347   2.259   3.243   5.515 -1.8028  1.7753  0.2120
    9Eth    Hco 2348   2.090   3.258   5.495 -0.0772 -2.4226  1.6459
    9Eth     Ch 2349   2.192   3.198   5.315 -0.0232  0.6174 -0.0405
    9Eth    Hcc 2350   2.280   3.145   5.280  0.8483  1.5520  0.7017
    9Eth    Hcc 2351   2.201   3.303   5.289 -2.3288  0.4265 -1.7341
    9Eth    Hcc 2352   2.099   3.160   5.273  0.1450 -1.6598  1.5451
   10Eth     Ho 2353   0.627   0.908   5.402 -0.3726 -1.0902 -2.2586
   10Eth     Oh 2354   0.555   0.951   5.359 -0.6530  0.8588  0.0633
   10Eth     Co 2355   0.616   1.048   5.284 -0.4693  0.1094 -0.3265
   10Eth    Hco 2356   0.685   1.105   5.346  0.1724 -0.3168 -0.6392
   10Eth    Hco 2357   0.531   1.114   5.265 -0.5666  0.3613  0.9429
   10Eth     Ch 2358   0.685   1.012   5.154  0.5362  0.5106 -0.8253
   10Eth    Hcc 2359   0.614   0.964   5.087  2.3384 -1.0307 -1.6822
   10Eth    Hcc 2360   0.760   0.935   5.170 -0.9073 -0.2983  2.4073
   10Eth    Hcc 2361   0.732   1.100   5.110  0.4096 -0.2683 -2.5783
   11Eth     Ho 2362   1.959   2.675   2.022  0.9184 -0.1962  1.4332
   11Eth     Oh 2363   2.033   2.723   1.989  0.3342  0.0293  0.4225
   11Eth     Co 2364   2.141   2.639   2.019 -0.5892  0.1974 -0.0770
   11Eth    Hco 2365   2.139   2.547   1.960 -2.7723 -1.0011  1.8000
   11Eth    Hco 2366   2.131   2.599   2.120  0.3306  1.9274  0.7070
   11Eth     Ch 2367   2.271   2.716   1.997  0.3339 -0.5227 -0.5872
   11Eth    Hcc 2368   2.353   2.649   2.022  0.5334 -0.0900 -0.0648
   11Eth    Hcc 2369   2.280   2.783   2.083  0.0675 -2.6590  1.1678
   11Eth    Hcc 2370   2.283   2.751   1.895 -0.1055 -0.9311 -0.7808
   12Eth     Ho 2371   0.242   1.512   9.648 -1.1896  2.8197  1.5878
   12Eth     Oh 2372   0.239   1.461   9.727  0.3644  0.3375  0.1122
   12Eth     Co 2373   0.310   1.537   9.826 -0.0666  0.2234  0.3435
   12Eth    Hco 2374   0.244   1.619   9.856 -0.4074  0.1140 -0.1008
   12Eth    Hco 2375   0.404   1.581   9.792  0.8313 -0.4982  1.8246
   12Eth     Ch 2376   0.350   1.447   9.944  0.7020  0.5234  0.2971
   12Eth    Hcc 2377   0.285   1.368   9.983  2.0525 -0.7372  0.0319
   12Eth    Hcc 2378   0.377   1.511  10.028  1.8003 -2.8919  2.6693
   12Eth    Hcc 2379   0.441   1.391   9.921 -1.4405 -2.9512 -0.0457
   13Eth     Ho 2380   1.528   1.845   2.641 -0.1697 -0.0255 -1.6772
   13Eth     Oh 2381   1.459   1.908   2.653  0.3186  0.2317 -0.1736
   13Eth     Co 2382   1.335   1.853   2.618 -0.1190 -0.0880 -0.2220
   13Eth    Hco 2383   1.303   1.759   2.662 -1.8034  0.8052  0.5009
   13Eth    Hco 2384   1.339   1.828   2.512 -0.4733 -1.6598  0.1270
   13Eth     Ch 2385   1.226   1.961   2.653  0.3862 -0.1129 -0.2296
   13Eth    Hcc 2386   1.127   1.914   2.645  0.4736 -0.5696  1.2090
   13Eth    Hcc 2387   1.243   2.050   2.592 -1.1324  0.0116 -0.4985
   13Eth    Hcc 2388   1.247   1.995   2.755  0.7726 -0.7167 -0.1067
   14Eth     Ho 2389   0.867   0.082   2.023 -0.3374 -0.0567 -0.4973
   14Eth     Oh 2390   0.819   0.074   1.943 -0.6754 -0.1634 -0.2806
   14Eth     Co 2391   0.685   0.124   1.961 -0.1676 -0.2192 -0.3071
   14Eth    Hco 2392   0.681   0.216   2.020 -0.9379  0.6611 -1.7116
   14Eth    Hco 2393   0.630   0.052   2.022  1.5612 -1.2098  0.1311
   14Eth     Ch 2394   0.609   0.152   1.830  0.1388 -0.3390  0.4590
   14Eth    Hcc 2395   0.507   0.190   1.834  0.7580  2.0251 -3.7922
   14Eth    Hcc 2396   0.612   0.060   1.773  1.8199 -0.6110  0.9347
   14Eth    Hcc 2397   0.678   0.223   1.783  0.8646 -1.1885  0.2367
   15Eth     Ho 2398   2.093   2.890   8.622  0.4736  2.4005  0.3030
   15Eth     Oh 2399   2.006   2.923   8.634 -0.4508  0.1590  0.0417
   15Eth     Co 2400   1.960   2.892   8.765  0.3761 -0.3075  0.3760
   15Eth    Hco 2401   2.040   2.896   8.840  0.2788 -0.4226  0.4855
   15Eth    Hco 2402   1.926   2.791   8.782  0.2668 -0.2042  0.7757
   15Eth     Ch 2403   1.857   2.999   8.804 -0.9073 -0.1632 -0.3528
   15Eth    Hcc 2404   1.895   3.101   8.799  0.1452 -0.2631  4.1353
   15Eth    Hcc 2405   1.827   2.987   8.908  1.5471 -0.4199  0.3490
   15Eth    Hcc 2406   1.760   2.997   8.753 -1.3925 -0.7763  0.5801
   16Eth     Ho 2407   0.295   1.282   1.397 -0.6545 -2.0358 -1.3923
   16Eth     Oh 2408   0.299   1.249   1.485  0.3279  0.5171 -0.4216
   16Eth     Co 2409   0.399   1.151   1.467 -0.6125 -0.0439 -0.0857
   16Eth    Hco 2410   0.497   1.196   1.482  0.0017 -0.5516 -2.3108
   16Eth    Hco 2411   0.385   1.133   1.360 -0.9151 -0.6685  0.0539
   16Eth     Ch 2412   0.364   1.017   1.542  0.1376 -0.3169  0.0610
   16Eth    Hcc 2413   0.386   1.036   1.648  0.8156  0.0763 -0.1451
   16Eth    Hcc 2414   0.419   0.930   1.507  0.8509  0.0377  0.2779
   16Eth    Hcc 2415   0.261   0.990   1.522  0.0709  0.4164 -0.6113
   17Eth     Ho 2416   0.087   0.893   2.773  0.1992  0.1869 -0.2436
   17Eth     Oh 2417   0.057   0.980   2.753 -0.3137  0.0643 -0.0156
   17Eth     Co 2418   0.141   1.068   2.829 -0.5584  0.5058  0.3516
   17Eth    Hco 2419   0.230   1.099   2.773  0.8111 -2.9821  0.4369
   17Eth    Hco 2420   0.172   1.014   2.918 -1.5028  1.3803  1.2149
   17Eth     Ch 2421   0.069   1.188   2.884  0.1702 -0.5343  0.1928
   17Eth    Hcc 2422   0.152   1.255   2.906  0.0761 -0.1575 -0.5642
   17Eth    Hcc 2423   0.015   1.164   2.976  0.2522 -0.2462  0.3181
   17Eth    Hcc 2424   0.009   1.246   2.813 -1.0398  0.9166  2.3437
   18Eth     Ho 2425   1.982   1.245   8.887  1.3284  0.6191  1.0458
   18Eth     Oh 2426   1.987   1.164   8.935 -0.3003  0.1851  0.5253
   18Eth     Co 2427   1.868   1.101   8.924 -0.5721  0.3353 -0.0660
   18Eth    Hco 2428   1.863   1.047   8.830 -0.7470  0.7973 -0.3206
   18Eth    Hco 2429   1.784   1.170   8.925 -0.8821 -0.0295 -0.5889
   18Eth     Ch 2430   1.846   1.006   9.041  0.3447  0.7362  0.3429
   18Eth    Hcc 2431   1.843   1.052   9.140 -2.4306  1.9323 -0.2476
   18Eth    Hcc 2432   1.928   0.935   9.049  0.6021  0.8842 -0.8325
   18Eth    Hcc 2433   1.754   0.948   9.031 -0.8251  2.5441  0.4179
   19Eth     Ho 2434   0.916   1.598   3.905  0.0298 -0.1041 -0.9634
   19Eth     Oh 2435   0.942   1.656   3.974 -0.4230 -1.1617  0.0991
   19Eth     Co 2436   1.082   1.669   3.979 -0.7324 -0.1153 -0.8531
   19Eth    Hco 2437   1.123   1.571   3.960 -2.5392 -1.4024  1.6177
   19Eth    Hco 2438   1.124   1.715   4.068 -0.4890  0.8716 -1.4625
   19Eth     Ch 2439   1.101   1.777   3.874  0.4068 -0.8241  0.1762
   19Eth    Hcc 2440   1.073   1.879   3.901  0.5998 -0.3260 -1.4689
   19Eth    Hcc 2441   1.033   1.753   3.792 -0.1925  0.1406  0.3801
   19Eth    Hcc 2442   1.200   1.783   3.830  0.7836  1.4651  1.2696
   20Eth     Ho 2443   1.897   1.788   8.377  0.2322  0.7690  0.3690
   20Eth     Oh 2444   1.820   1.841   8.368 -0.3095 -0.1326 -0.3853
   20Eth     Co 2445   1.860   1.950   8.286  0.4888 -0.5017 -0.4754
   20Eth    Hco 2446   1.865   1.910   8.185  1.9169  1.5582 -1.2517
   20Eth    Hco 2447   1.957   1.988   8.319  0.6140 -2.9446  2.1894
   20Eth     Ch 2448   1.750   2.055   8.302  0.4814  0.3311  1.0540
   20Eth    Hcc 2449   1.776   2.116   8.388  0.7749  0.7060  0.6981
   20Eth    Hcc 2450   1.647   2.021   8.310  0.4347  0.9383  3.3525
   20Eth    Hcc 2451   1.762   2.122   8.216  0.0881  0.7709  1.3417
   21Eth     Ho 2452   2.985   1.286   5.106 -0.2192 -3.4304  2.9644
   21Eth     Oh 2453   3.078   1.283   5.099 -0.1358  0.8172  0.1214
   21Eth     Co 2454   3.114   1.333   5.223 -0.2173 -0.1187 -0.6233
   21Eth    Hco 2455   3.078   1.262   5.298 -0.7329  0.5023 -0.2770
   21Eth    Hco 2456   3.066   1.430   5.240  0.5867  0.0921  0.5469
   21Eth     Ch 2457   3.265   1.355   5.229 -0.0718  0.0110 -0.7430
   21Eth    Hcc 2458   3.288   1.372   5.334 -1.9822 -1.1911 -0.0883
   21Eth    Hcc 2459   3.292   1.439   5.166 -0.8454 -0.5013 -1.7682
   21Eth    Hcc 2460   3.310   1.257   5.212 -1.2416 -0.5524 -0.6730
   22Eth     Ho 2461   1.921   3.148   3.962  0.3178  2.7389 -0.9131
   22Eth     Oh 2462   2.006   3.128   3.997 -0.4282  0.4620 -0.3128
   22Eth     Co 2463   2.090   3.103   3.883  0.7627  0.7280  0.9761
   22Eth    Hco 2464   2.144   3.195   3.863 -3.5385  3.4147  1.2317
   22Eth    Hco 2465   2.029   3.081   3.795 -0.0881 -1.0671  1.9706
   22Eth     Ch 2466   2.184   2.992   3.912 -0.2906 -0.0832 -0.8261
   22Eth    Hcc 2467   2.257   2.978   3.832  0.0799 -0.8428 -0.3680
   22Eth    Hcc 2468   2.134   2.897   3.932  0.6797 -0.9814 -2.5444
   22Eth    Hcc 2469   2.236   3.010   4.007 -1.2270 -3.0680  0.3306
   23Eth     Ho 2470   1.795   0.254   2.941  1.1504 -0.6114 -0.3187
   23Eth     Oh 2471   1.810   0.240   2.849  0.2627 -0.1522 -0.5305
   23Eth     Co 2472   1.685   0.296   2.801 -0.0945  0.2396  0.0113
   23Eth    Hco 2473   1.629   0.355   2.873 -2.3694 -0.9483 -0.7313
   23Eth    Hco 2474   1.610   0.220   2.779  0.9680 -0.4745 -1.2300
   23Eth     Ch 2475   1.723   0.354   2.661 -0.7642  0.4559 -0.1937
   23Eth    Hcc 2476   1.621   0.361   2.624 -0.3637 -1.0952 -1.6716
   23Eth    Hcc 2477   1.777   0.284   2.598  0.2593 -0.7936  1.9998
   23Eth    Hcc 2478   1.781   0.446   2.672 -0.1269  0.2214 -1.5629
   24Eth     Ho 2479   1.818   2.406   6.129  1.8721 -0.5330 -0.6872
   24Eth     Oh 2480   1.843   2.387   6.217  0.3688 -0.3281 -0.2033
   24Eth     Co 2481   1.965   2.311   6.224  0.9931  0.0928  0.1762
   24Eth    Hco 2482   2.049   2.379   6.220 -0.4005  1.8659  0.2132
   24Eth    Hco 2483   1.985   2.237   6.147  2.3701 -1.0456  1.5964
   24Eth     Ch 2484   1.948   2.237   6.353  0.4276 -0.2915  0.3621
   24Eth    Hcc 2485   1.847   2.254   6.391  0.8040 -1.3229  1.8501
   24Eth    Hcc 2486   2.009   2.279   6.433 -0.9431  1.8671  0.3300
   24Eth    Hcc 2487   1.981   2.134   6.353 -0.1745 -0.4903  0.5200
   25Eth     Ho 2488   2.273   2.080   7.927  0.1226  0.2247  0.9797
   25Eth     Oh 2489   2.198   2.135   7.915 -0.0058 -0.0274  0.6293
   25Eth     Co 2490   2.138   2.136   8.045 -1.2248  0.3780 -0.6365
   25Eth    Hco 2491   2.222   2.168   8.106 -1.7782 -0.7554  0.7477
   25Eth    Hco 2492   2.110   2.034   8.071 -1.5354  0.5012 -0.4799
   25Eth     Ch 2493   2.024   2.228   8.066  0.3221  0.5406 -0.3266
   25Eth    Hcc 2494   1.940   2.199   8.003  1.1173 -0.9480 -0.7319
   25Eth    Hcc 2495   2.063   2.327   8.041  0.1046  0.7056 -0.0066
   25Eth    Hcc 2496   1.983   2.227   8.166 -0.5211 -0.8424 -0.6707
   26Eth     Ho 2497   2.906   2.518   9.192  1.4823  0.0108 -3.0208
   26Eth     Oh 2498   2.923   2.605   9.224 -0.3938 -0.6253 -0.0314
   26Eth     Co 2499   3.052   2.620   9.282  0.0047 -0.2657 -0.2470
   26Eth    Hco 2500   3.081   2.524   9.324 -1.5174 -0.8516 -0.4902
   26Eth    Hco 2501   3.055   2.697   9.359 -0.2578  1.3463 -1.8318
   26Eth     Ch 2502   3.151   2.669   9.172  0.2625  0.1955 -0.6122
   26Eth    Hcc 2503   3.253   2.691   9.202  0.8540 -0.9696 -1.7490
   26Eth    Hcc 2504   3.119   2.769   9.140  0.1111  0.4090  0.2081
   26Eth    Hcc 2505   3.156   2.596   9.091 -1.2418 -0.9296  0.2911
   27Eth     Ho 2506   1.280   0.239   2.074  0.5710 -0.6039  2.1056
   27Eth     Oh 2507   1.304   0.322   2.112  0.0858  0.5019  0.0492
   27Eth     Co 2508   1.321   0.422   2.011 -0.1230  0.3372 -0.0461
   27Eth    Hco 2509   1.258   0.400   1.924 -0.1359 -3.2068  0.7979
   27Eth    Hco 2510   1.427   0.419   1.989 -0.1677 -1.9261 -0.0276
   27Eth     Ch 2511   1.291   0.563   2.065  1.1296 -0.1880  0.1007
   27Eth    Hcc 2512   1.291   0.645   1.993  1.3535  0.4827  0.8516
   27Eth    Hcc 2513   1.381   0.584   2.124  0.6710 -3.6027  2.1684
   27Eth    Hcc 2514   1.203   0.572   2.129  0.5737  1.8534 -0.9163
   28Eth     Ho 2515   2.726   0.639   3.866 -0.2424  0.0106 -0.3104
   28Eth     Oh 2516   2.767   0.720   3.889 -0.0784 -0.1416 -0.0507
   28Eth     Co 2517   2.787   0.724   4.030 -0.4313  0.2550 -0.1535
   28Eth    Hco 2518   2.874   0.660   4.043 -1.2907 -2.2114 -5.1502
   28Eth    Hco 2519   2.703   0.676   4.082  0.2709 -0.7047  0.1070
   28Eth     Ch 2520   2.824   0.871   4.078 -0.1603  0.4019  0.2935
   28Eth    Hcc 2521   2.738   0.935   4.059  0.2934  0.3417 -2.0541
   28Eth    Hcc 2522   2.902   0.916   4.017 -0.2589  0.1460 -0.0231
   28Eth    Hcc 2523   2.860   0.872   4.181  1.5347  0.7082 -0.2893
   29Eth     Ho 2524   1.658   1.531   6.962 -0.4371  1.8826 -1.2985
   29Eth     Oh 2525   1.581   1.551   7.012  0.2159 -0.4987  0.7627
   29Eth     Co 2526   1.512   1.434   7.037 -0.1968 -0.0222 -0.4580
   29Eth    Hco 2527   1.577   1.383   7.108 -0.6786 -1.1849 -0.8557
   29Eth    Hco 2528   1.507   1.366   6.953  0.1737 -0.6266  0.0053
   29Eth     Ch 2529   1.373   1.457   7.100 -0.2209  0.6325 -0.0864
   29Eth    Hcc 2530   1.309   1.480   7.015 -1.0054  2.0811  0.8635
   29Eth    Hcc 2531   1.375   1.532   7.179 -1.7535  1.6258 -0.9690
   29Eth    Hcc 2532   1.347   1.368   7.157  1.3748 -0.9615 -1.8086
   30Eth     Ho 2533   1.564   2.357   6.817 -1.0335 -0.6580  0.1157
   30Eth     Oh 2534   1.516   2.419   6.869 -0.2133  0.4496 -0.4275
   30Eth     Co 2535   1.391   2.363   6.891 -0.4714  0.1166  0.0666
   30Eth    Hco 2536   1.395   2.296   6.977 -1.5210 -0.2279 -0.1459
   30Eth    Hco 2537   1.361   2.302   6.806  0.8524 -3.9086  2.3752
   30Eth     Ch 2538   1.292   2.475   6.934 -0.1881 -0.2775  0.6914
   30Eth    Hcc 2539   1.326   2.537   7.016  2.2638  0.1494 -0.6120
   30Eth    Hcc 2540   1.200   2.421   6.958  0.3436 -1.9313 -0.8397
   30Eth    Hcc 2541   1.267   2.537   6.848  0.2581 -0.2996  0.5476
   31Eth     Ho 2542   1.121   0.769   7.895  2.8464 -0.1732  1.1289
   31Eth     Oh 2543   1.088   0.704   7.955  0.4806 -0.1053 -0.0217
   31Eth     Co 2544   1.058   0.778   8.073  0.4526  0.2918  0.2735
   31Eth    Hco 2545   0.977   0.843   8.041  2.2772  2.5503  0.0955
   31Eth    Hco 2546   1.143   0.841   8.102 -1.6997  3.2526  0.3598
   31Eth     Ch 2547   1.007   0.688   8.182 -0.2880  0.0008 -0.7750
   31Eth    Hcc 2548   0.920   0.627   8.156 -1.6804  1.7236 -0.3328
   31Eth    Hcc 2549   0.980   0.734   8.277  1.7092 -1.7239  0.6676
   31Eth    Hcc 2550   1.092   0.624   8.207  0.5991  2.1052  1.7908
   32Eth     Ho 2551   1.467   1.758   5.138  1.0402  0.4824 -0.8633
   32Eth     Oh 2552   1.467   1.852   5.127  0.4112  0.6985  0.7497
   32Eth     Co 2553   1.601   1.873   5.150  0.2218 -0.4518 -0.6457
   32Eth    Hco 2554   1.662   1.794   5.106  0.5775  0.2548 -1.4501
   32Eth    Hco 2555   1.620   1.855   5.255 -0.4069 -0.9247 -0.6129
   32Eth     Ch 2556   1.630   2.015   5.104  0.2985  0.9086 -0.4680
   32Eth    Hcc 2557   1.565   2.094   5.143 -0.4779 -0.0107  0.1259
   32Eth    Hcc 2558   1.628   2.028   4.996  0.4900  0.3120 -0.5465
   32Eth    Hcc 2559   1.729   2.045   5.138 -0.9295  3.0065  1.4188
   33Eth     Ho 2560   2.629   1.490   4.231  0.4292  0.2992 -1.7300
   33Eth     Oh 2561   2.685   1.565   4.235  1.0050 -0.2092  0.5649
   33Eth     Co 2562   2.773   1.532   4.344 -0.3350  0.2884  0.2690
   33Eth    Hco 2563   2.857   1.476   4.304  1.2050  2.0230  1.0161
   33Eth    Hco 2564   2.719   1.465   4.410  0.1887 -0.8685 -0.4605
   33Eth     Ch 2565   2.828   1.657   4.412  0.5007 -0.2998 -0.3237
   33Eth    Hcc 2566   2.917   1.629   4.469 -0.5192  3.7027  3.5397
   33Eth    Hcc 2567   2.760   1.693   4.490  2.9531  1.3902  1.1158
   33Eth    Hcc 2568   2.852   1.737   4.342  1.0915 -2.0203 -2.1173
   34Eth     Ho 2569   0.525   2.276   5.148  0.1201  0.7561  0.3106
   34Eth     Oh 2570   0.613   2.261   5.177  0.2825 -0.0305 -0.5776
   34Eth     Co 2571   0.615   2.123   5.180 -0.1719  0.7985 -0.2240
   34Eth    Hco 2572   0.582   2.094   5.081 -0.4612 -0.0516  0.1160
   34Eth    Hco 2573   0.535   2.086   5.244  0.7486 -0.0507  0.4595
   34Eth     Ch 2574   0.758   2.070   5.206 -0.1443  0.4017 -0.2169
   34Eth    Hcc 2575   0.806   2.125   5.287 -0.4159  2.0373 -1.1396
   34Eth    Hcc 2576   0.831   2.073   5.124  2.1108  0.1351  1.7265
   34Eth    Hcc 2577   0.767   1.967   5.239 -0.8283 -0.0154 -1.3010
   35Eth     Ho 2578   0.600   3.263   1.617 -1.6651 -0.9239  2.2846
   35Eth     Oh 2579   0.514   3.284   1.585 -0.4534 -0.4622 -0.8062
   35Eth     Co 2580   0.473   3.183   1.501 -0.5999  0.6848 -0.3846
   35Eth    Hco 2581   0.461   3.096   1.565  4.2016 -0.1567 -0.4432
   35Eth    Hco 2582   0.551   3.156   1.430  0.5356 -0.1230  1.1408
   35Eth     Ch 2583   0.337   3.213   1.440  0.0116  0.1400  0.0263
   35Eth    Hcc 2584   0.289   3.282   1.510 -1.1315 -0.3651 -0.2495
   35Eth    Hcc 2585   0.273   3.125   1.440  1.2425 -0.7707 -0.2143
   35Eth    Hcc 2586   0.340   3.254   1.339  2.3437 -0.4912 -0.1954
   36Eth     Ho 2587   2.320   3.160   5.750 -1.3992  0.4983 -0.9171
   36Eth     Oh 2588   2.362   3.244   5.753 -0.0535 -0.1808  0.0575
   36Eth     Co 2589   2.385   3.280   5.888 -0.1764  0.2482 -0.5460
   36Eth    Hco 2590   2.307   3.237   5.951  1.7145 -1.3443  0.7448
   36Eth    Hco 2591   2.383   3.387   5.908 -0.7788  0.1120  0.1561
   36Eth     Ch 2592   2.523   3.225   5.921  0.1102  0.3715  0.0748
   36Eth    Hcc 2593   2.559   3.259   6.018  2.4062 -0.7937 -0.3207
   36Eth    Hcc 2594   2.599   3.262   5.852  0.2367 -1.0982 -0.5971
   36Eth    Hcc 2595   2.523   3.116   5.924 -0.1283  0.3869  0.6162
   37Eth     Ho 2596   0.879   3.386   4.672  0.4418  0.0146 -1.9371
   37Eth     Oh 2597   0.789   3.413   4.670  0.3781  0.0721  0.2335
   37Eth     Co 2598   0.727   3.364   4.554  0.2285 -0.4806  0.3376
   37Eth    Hco 2599   0.754   3.260   4.538  1.0771 -0.1181 -0.6596
   37Eth    Hco 2600   0.786   3.419   4.481 -1.7348  0.1128 -0.8364
   37Eth     Ch 2601   0.577   3.390   4.548  0.3690 -0.9167  0.1723
   37Eth    Hcc 2602   0.523   3.354   4.635 -1.2701 -0.6060 -0.6931
   37Eth    Hcc 2603   0.532   3.346   4.458  0.0568  0.2052 -0.2244
   37Eth    Hcc 2604   0.552   3.496   4.543 -1.3226 -1.2259  1.6191
   38Eth     Ho 2605   0.294   1.122   7.899  0.2469  0.2449 -0.5073
   38Eth     Oh 2606   0.251   1.096   7.820  0.2043  0.3542 -0.5212
   38Eth     Co 2607   0.191   0.973   7.860 -0.2190  0.5183 -0.2536
   38Eth    Hco 2608   0.274   0.904   7.874 -0.2278  0.5183 -0.2025
   38Eth    Hco 2609   0.124   0.935   7.782 -0.7970 -1.9016  1.3619
   38Eth     Ch 2610   0.111   0.984   7.996 -0.5628  0.2721 -0.6791
   38Eth    Hcc 2611   0.176   1.020   8.076 -1.4289 -0.0225  0.1693
   38Eth    Hcc 2612   0.088   0.881   8.021  0.8502  0.1679  0.2486
   38Eth    Hcc 2613   0.025   1.051   8.003 -0.7641 -0.0537  0.0070
   39Eth     Ho 2614   2.777   0.141   9.855 -0.4361  0.7385 -1.0245
   39Eth     Oh 2615   2.732   0.179   9.928 -0.0915 -0.4334 -0.1950
   39Eth     Co 2616   2.809   0.305   9.943 -0.1683  0.0656 -0.1382
   39Eth    Hco 2617   2.901   0.289   9.886  0.4174 -2.5294  1.4279
   39Eth    Hco 2618   2.835   0.320  10.048 -1.6036 -2.3771  0.6158
   39Eth     Ch 2619   2.739   0.426   9.876 -0.4992 -0.2120  0.1880
   39Eth    Hcc 2620   2.823   0.483   9.836 -0.5853 -1.6741 -2.1310
   39Eth    Hcc 2621   2.678   0.468   9.956 -0.9609 -1.2962  0.4128
   39Eth    Hcc 2622   2.672   0.391   9.798 -0.3355  0.1347 -0.1104
   40Eth     Ho 2623   1.225   2.267   8.785 -1.3910 -2.3246  0.5610
   40Eth     Oh 2624   1.183   2.269   8.701  0.2111  0.7691 -0.2730
   40Eth     Co 2625   1.232   2.390   8.654  0.5077  0.4476 -0.2774
   40Eth    Hco 2626   1.340   2.382   8.666  0.1000 -0.2598  3.8144
   40Eth    Hco 2627   1.174   2.462   8.712 -2.6921 -2.9755  0.9570
   40Eth     Ch 2628   1.195   2.405   8.506  0.8081  0.8608  0.1507
   40Eth    Hcc 2629   1.247   2.324   8.453 -1.3153  0.8219 -1.9315
   40Eth    Hcc 2630   1.227   2.496   8.456  1.8595  0.8294  0.7464
   40Eth    Hcc 2631   1.087   2.399   8.492  0.8516 -0.5457  0.3239
   41Eth     Ho 2632   0.095   1.512   3.068 -2.3180 -0.1470 -2.4263
   41Eth     Oh 2633   0.032   1.541   3.132  0.3336 -0.2195  0.3188
   41Eth     Co 2634  -0.046   1.436   3.167 -0.4082  0.8257 -0.8159
   41Eth    Hco 2635   0.006   1.351   3.123 -0.1871  2.1196 -3.1440
   41Eth    Hco 2636  -0.134   1.433   3.103 -0.6491  0.8576 -0.4883
   41Eth     Ch 2637  -0.085   1.427   3.316 -0.6767 -0.4293 -0.1619
   41Eth    Hcc 2638  -0.146   1.340   3.340  1.0651 -1.1713  1.8175
   41Eth    Hcc 2639  -0.147   1.513   3.339 -0.9304 -1.2262  2.4005
   41Eth    Hcc 2640   0.008   1.412   3.372  0.8103  0.2402 -2.4121
   42Eth     Ho 2641   0.957   0.164   7.874  0.8932  0.8478 -0.2712
   42Eth     Oh 2642   0.955   0.156   7.967  0.0429 -0.4504 -0.3853
   42Eth     Co 2643   0.935   0.293   8.020 -0.1274 -0.1948  0.9186
   42Eth    Hco 2644   0.836   0.328   7.990  0.6483  0.3328 -1.0608
   42Eth    Hco 2645   1.001   0.363   7.968  3.0681 -2.6130  1.5746
   42Eth     Ch 2646   0.941   0.282   8.174  0.5425 -0.0438 -0.3181
   42Eth    Hcc 2647   0.955   0.374   8.230  2.4230 -0.0686 -0.7241
   42Eth    Hcc 2648   1.030   0.222   8.194 -0.4253 -2.3190 -2.4885
   42Eth    Hcc 2649   0.850   0.240   8.216  0.4006  2.5341  2.1034
   43Eth     Ho 2650   0.582   1.096   1.992 -2.1239 -0.7653 -0.7559
   43Eth     Oh 2651   0.623   1.027   1.943  0.5078 -0.1384  0.4937
   43Eth     Co 2652   0.671   1.084   1.823 -0.1228  0.7400 -0.5578
   43Eth    Hco 2653   0.745   1.156   1.859  0.4866  0.1775 -0.6889
   43Eth    Hco 2654   0.598   1.132   1.758  0.3232  0.4709 -1.2584
   43Eth     Ch 2655   0.752   0.974   1.744  0.0674  0.0817 -0.2874
   43Eth    Hcc 2656   0.810   1.017   1.663  0.1701  0.3065 -0.0944
   43Eth    Hcc 2657   0.683   0.902   1.699  1.7196  0.1783 -3.0941
   43Eth    Hcc 2658   0.831   0.927   1.804  0.3614 -0.1581 -0.8565
   44Eth     Ho 2659   0.322   0.699   9.675 -0.5083  1.0272 -0.7299
   44Eth     Oh 2660   0.413   0.684   9.658 -0.5254 -0.3439  0.2733
   44Eth     Co 2661   0.477   0.795   9.599 -0.6897  0.0728 -0.0140
   44Eth    Hco 2662   0.418   0.884   9.624 -2.7770 -0.4246 -2.8871
   44Eth    Hco 2663   0.471   0.788   9.490  1.2040  0.5867 -0.1621
   44Eth     Ch 2664   0.621   0.813   9.642  0.3033  0.2656 -0.0767
   44Eth    Hcc 2665   0.636   0.793   9.748  0.9991  0.5783 -0.1137
   44Eth    Hcc 2666   0.649   0.915   9.617 -0.8966  0.1171 -2.1334
   44Eth    Hcc 2667   0.691   0.745   9.594  0.3417 -0.5285  1.0668
   45Eth     Ho 2668   0.596   0.669   7.620  0.7086 -1.8850  2.1819
   45Eth     Oh 2669   0.641   0.611   7.561  0.4714  0.2819 -0.1915
   45Eth     Co 2670   0.653   0.670   7.439 -0.1775  0.7173 -0.8997
   45Eth    Hco 2671   0.713   0.760   7.457  0.4452  0.2495 -0.6099
   45Eth    Hco 2672   0.555   0.687   7.396  0.4588  1.0876 -2.2415
   45Eth     Ch 2673   0.721   0.584   7.335  0.4284  0.1481 -0.1134
   45Eth    Hcc 2674   0.746   0.638   7.244 -1.0562  0.7019 -0.2113
   45Eth    Hcc 2675   0.655   0.503   7.304 -0.1212  1.1869 -1.7298
   45Eth    Hcc 2676   0.813   0.538   7.371 -0.2188 -2.1523 -1.3137
   46Eth     Ho 2677   0.440   1.256   3.288  1.8434 -2.2968  1.5591
   46Eth     Oh 2678   0.372   1.209   3.333 -0.4698  0.0368  0.6779
   46Eth     Co 2679   0.251   1.231   3.272  0.0337 -0.1577 -0.5054
   46Eth    Hco 2680   0.265   1.206   3.167 -1.2444  0.9099 -0.9395
   46Eth    Hco 2681   0.232   1.338   3.283  0.6025 -0.1302  0.2609
   46Eth     Ch 2682   0.145   1.145   3.347  0.6469  0.1063  0.0642
   46Eth    Hcc 2683   0.163   1.147   3.454 -0.4333 -1.6151  0.3103
   46Eth    Hcc 2684   0.139   1.040   3.317 -1.2234  0.7693 -2.0117
   46Eth    Hcc 2685   0.046   1.188   3.332  0.5259 -0.1672  0.0665
   47Eth     Ho 2686   1.393   2.645   3.024  1.3687  0.9723  0.1711
   47Eth     Oh 2687   1.358   2.729   3.045 -0.0304  0.4778 -0.1416
   47Eth     Co 2688   1.342   2.799   2.923 -0.7329 -0.7042 -0.3239
   47Eth    Hco 2689   1.360   2.730   2.840  3.8294 -0.5706  0.4450
   47Eth    Hco 2690   1.428   2.865   2.917 -1.2159  0.1084  1.5078
   47Eth     Ch 2691   1.209   2.881   2.927 -0.2466  0.9404 -0.1320
   47Eth    Hcc 2692   1.191   2.929   2.831 -1.5416  0.8079  0.0381
   47Eth    Hcc 2693   1.205   2.958   3.004 -3.7768  0.4121  0.2750
   47Eth    Hcc 2694   1.130   2.810   2.950  0.0734 -0.1079 -2.1597
   48Eth     Ho 2695   2.456   2.547   1.384  0.9949 -0.4568 -0.3545
   48Eth     Oh 2696   2.455   2.480   1.450  0.0510 -0.4591 -0.3588
   48Eth     Co 2697   2.448   2.548   1.578  0.3621 -0.6173  0.2201
   48Eth    Hco 2698   2.377   2.631   1.578 -0.6052 -1.4377 -0.0355
   48Eth    Hco 2699   2.544   2.594   1.604  0.0183  0.7666 -0.8736
   48Eth     Ch 2700   2.386   2.454   1.684 -0.0039 -0.2328  0.1287
   48Eth    Hcc 2701   2.279   2.435   1.677  0.3414 -2.3788  0.3994
   48Eth    Hcc 2702   2.407   2.485   1.786 -3.0844 -0.8113  0.9601
   48Eth    Hcc 2703   2.439   2.359   1.682  0.4558 -0.0128  1.3462
   49Eth     Ho 2704   3.003   2.140   9.900 -2.7285 -0.5715  0.3496
   49Eth     Oh 2705   2.979   2.230   9.885  0.1739  0.2007 -0.0109
   49Eth     Co 2706   2.876   2.255   9.975  0.0602 -0.1624 -0.2869
   49Eth    Hco 2707   2.910   2.256  10.079  0.1767 -1.7717 -0.3060
   49Eth    Hco 2708   2.808   2.170   9.977 -0.4950  0.2565 -1.2306
   49Eth     Ch 2709   2.788   2.370   9.937  0.1060  0.0833 -0.1020
   49Eth    Hcc 2710   2.745   2.359   9.838  0.9487  2.4907 -0.7790
   49Eth    Hcc 2711   2.855   2.456   9.929  0.0599 -0.0920 -2.6781
   49Eth    Hcc 2712   2.717   2.394  10.017  0.7031 -0.6164  0.6481
   50Eth     Ho 2713   1.156   0.555   7.994  1.5654  2.4431 -1.4602
   50Eth     Oh 2714   1.227   0.500   8.023 -0.3793  0.4864 -0.2655
   50Eth     Co 2715   1.297   0.453   7.906 -0.0500  0.5525 -0.1445
   50Eth    Hco 2716   1.244   0.473   7.813  0.2702  1.2135 -0.1856
   50Eth    Hco 2717   1.310   0.345   7.919 -0.0840  0.5219 -0.3600
   50Eth     Ch 2718   1.422   0.540   7.894 -0.1747  0.1195 -0.5839
   50Eth    Hcc 2719   1.479   0.521   7.985  1.8691 -0.0457 -1.8583
   50Eth    Hcc 2720   1.398   0.646   7.898  2.3106  0.7166 -0.3019
   50Eth    Hcc 2721   1.480   0.513   7.806 -1.1148  1.2884 -1.5825
   51Eth     Ho 2722   2.804   3.437   4.105 -2.4624  2.6812  3.0633
   51Eth     Oh 2723   2.721   3.394   4.102 -0.9050 -0.3516  0.7084
   51Eth     Co 2724   2.741   3.326   4.219  0.0138 -0.0261  0.5074
   51Eth    Hco 2725   2.790   3.388   4.294 -0.5917  0.3982  0.5526
   51Eth    Hco 2726   2.808   3.242   4.198  2.2745  1.3031  2.0884
   51Eth     Ch 2727   2.609   3.287   4.286 -0.5441  0.2502 -0.6325
   51Eth    Hcc 2728   2.553   3.377   4.311  2.4282  2.2568 -1.0166
   51Eth    Hcc 2729   2.636   3.237   4.379  0.7400  1.1644 -0.5088
   51Eth    Hcc 2730   2.561   3.201   4.238 -1.9385 -0.7185  2.3855
   52Eth     Ho 2731   1.468   0.727   3.578  0.2986 -0.1617 -0.2841
   52Eth     Oh 2732   1.488   0.639   3.551  0.6732 -0.1775  0.0466
   52Eth     Co 2733   1.368   0.574   3.509  0.6231  0.5394  0.5634
   52Eth    Hco 2734   1.288   0.597   3.580  0.2848 -0.3274  0.4652
   52Eth    Hco 2735   1.387   0.467   3.500 -2.3749  0.0178 -0.0464
   52Eth     Ch 2736   1.333   0.610   3.369 -0.3252  0.0831  0.4697
   52Eth    Hcc 2737   1.257   0.537   3.344  0.1108 -1.0173  2.2664
   52Eth    Hcc 2738   1.412   0.596   3.296 -0.0081  0.6261  0.6993
   52Eth    Hcc 2739   1.290   0.705   3.337 -1.1386 -0.5418 -0.3077
   53Eth     Ho 2740   0.323   2.950   4.445  0.6819  0.5134  1.0183
   53Eth     Oh 2741   0.230   2.939   4.448  0.6301  0.6359 -0.2378
   53Eth     Co 2742   0.167   3.046   4.388  0.6219  0.1065 -0.0415
   53Eth    Hco 2743   0.186   3.063   4.282  0.6120 -1.7089 -0.3491
   53Eth    Hco 2744   0.215   3.136   4.427 -2.1086  1.0387  1.3037
   53Eth     Ch 2745   0.009   3.041   4.395 -0.2008 -0.7017 -0.0047
   53Eth    Hcc 2746  -0.023   3.017   4.496  3.0852 -1.3056  0.9507
   53Eth    Hcc 2747  -0.050   2.978   4.328 -0.3188 -1.4795  0.8284
   53Eth    Hcc 2748  -0.030   3.137   4.361 -0.3161 -1.0715 -0.9271
   54Eth     Ho 2749   1.345   3.343   9.463  0.5658  2.6852  0.7535
   54Eth     Oh 2750   1.343   3.397   9.386  0.4067  0.9945 -0.4358
   54Eth     Co 2751   1.269   3.507   9.431 -0.1053 -0.4352 -0.2178
   54Eth    Hco 2752   1.328   3.570   9.498 -0.4075 -3.3589  2.9230
   54Eth    Hco 2753   1.186   3.464   9.488 -0.4867 -0.4030 -0.7408
   54Eth     Ch 2754   1.203   3.591   9.318  0.5880  0.1993  0.1383
   54Eth    Hcc 2755   1.291   3.642   9.277  0.3145  1.5729  1.2077
   54Eth    Hcc 2756   1.135   3.669   9.351  0.3253 -0.3164  0.8179
   54Eth    Hcc 2757   1.153   3.531   9.242  1.3760 -0.8503  0.4453
   55Eth     Ho 2758   0.181   0.220   9.982  1.4837 -2.0293 -1.0004
   55Eth     Oh 2759   0.206   0.286   9.920  0.3701 -0.4180  0.2236
   55Eth     Co 2760   0.116   0.247   9.816 -0.1110 -0.1713  0.3570
   55Eth    Hco 2761   0.041   0.188   9.869  0.5842  0.8393  2.5505
   55Eth    Hco 2762   0.164   0.175   9.750  0.9207  1.6139 -0.8994
   55Eth     Ch 2763   0.053   0.364   9.744  0.1193 -0.1579 -0.6073
   55Eth    Hcc 2764  -0.010   0.320   9.666  0.0658 -3.0909  1.0075
   55Eth    Hcc 2765   0.120   0.430   9.688 -0.0226  1.1427  0.7385
   55Eth    Hcc 2766   0.003   0.432   9.812  0.7489  1.1522 -1.4313
   56Eth     Ho 2767   2.116   0.199   6.793  1.5538  0.6988  1.5720
   56Eth     Oh 2768   2.107   0.292   6.782  0.1292  0.4115  0.0430
   56Eth     Co 2769   2.047   0.355   6.898 -0.3035 -0.5084  0.1363
   56Eth    Hco 2770   2.096   0.320   6.989  1.4982  0.1272 -0.5739
   56Eth    Hco 2771   1.945   0.318   6.902 -0.5634  0.2986  0.8677
   56Eth     Ch 2772   2.040   0.504   6.893  0.5280  0.0461  0.1644
   56Eth    Hcc 2773   1.989   0.520   6.797  0.0789  1.5557  0.6493
   56Eth    Hcc 2774   2.137   0.553   6.881  0.8674 -0.4282  0.9416
   56Eth    Hcc 2775   1.985   0.542   6.979  0.2870  2.0853 -0.8690
   57Eth     Ho 2776   1.889   0.350   9.590  0.5786 -0.0290 -0.6189
   57Eth     Oh 2777   1.908   0.402   9.514  0.0409  0.1511 -0.6298
   57Eth     Co 2778   1.783   0.463   9.479  0.5345 -0.0342  0.1666
   57Eth    Hco 2779   1.728   0.493   9.568 -0.4855 -0.5202 -0.2851
   57Eth    Hco 2780   1.731   0.380   9.430  0.2624 -1.1251  2.2550
   57Eth     Ch 2781   1.810   0.581   9.388 -0.1865 -0.0325  0.3478
   57Eth    Hcc 2782   1.858   0.536   9.301 -3.3260 -0.4018 -1.2388
   57Eth    Hcc 2783   1.871   0.664   9.423 -1.5296  1.7655 -1.4436
   57Eth    Hcc 2784   1.714   0.611   9.348 -0.5512 -1.7401 -0.0930
   58Eth     Ho 2785   2.197   0.219   2.180  1.8252  0.1539  1.4392
   58Eth     Oh 2786   2.160   0.282   2.240 -0.2469  0.1783  0.2059
   58Eth     Co 2787   2.144   0.227   2.371 -0.2034 -0.3935  0.1156
   58Eth    Hco 2788   2.228   0.254   2.436 -2.4136  0.2231  2.7848
   58Eth    Hco 2789   2.127   0.120   2.372  1.6789 -0.7611 -2.7729
   58Eth     Ch 2790   2.011   0.280   2.432  0.3414  0.6748  0.3832
   58Eth    Hcc 2791   1.981   0.380   2.401  0.1464  0.5199  0.0693
   58Eth    Hcc 2792   2.023   0.284   2.541 -1.4082  0.4560  0.5918
   58Eth    Hcc 2793   1.934   0.204   2.424 -0.1255  1.0648  1.1207
   59Eth     Ho 2794   1.928   1.489   9.757 -0.8056 -0.3940 -0.6887
   59Eth     Oh 2795   1.950   1.439   9.833  0.0989  0.7586 -0.1622
   59Eth     Co 2796   2.073   1.488   9.882  0.2029 -0.5863  0.2626
   59Eth    Hco 2797   2.144   1.486   9.799 -1.4899  3.6196 -1.4413
   59Eth    Hco 2798   2.100   1.422   9.964  2.1412 -0.8859 -0.5828
   59Eth     Ch 2799   2.051   1.634   9.931 -0.5914  0.5928 -0.0320
   59Eth    Hcc 2800   2.151   1.668   9.959 -0.1401  0.5846 -1.5679
   59Eth    Hcc 2801   1.986   1.634  10.019 -1.6573  0.4286 -0.8140
   59Eth    Hcc 2802   2.010   1.697   9.853  0.0897  1.8651  0.6095
   60Eth     Ho 2803   0.612   0.029   2.693 -0.8488 -0.6904  0.4260
   60Eth     Oh 2804   0.657   0.054   2.771 -0.5178 -0.3997  0.1390
   60Eth     Co 2805   0.615   0.181   2.812  0.1243 -0.0813 -0.1690
   60Eth    Hco 2806   0.515   0.163   2.850  0.8749 -1.7368  1.1000
   60Eth    Hco 2807   0.597   0.244   2.725  1.1519  1.5172  0.7530
   60Eth     Ch 2808   0.700   0.235   2.928 -0.2558  0.2876 -0.1482
   60Eth    Hcc 2809   0.654   0.330   2.954 -0.2811 -0.0167  0.9676
   60Eth    Hcc 2810   0.798   0.259   2.888  1.3562 -0.1664  3.3700
   60Eth    Hcc 2811   0.709   0.169   3.014 -3.9489 -0.9217 -0.5862
   61Eth     Ho 2812   2.896   0.093   1.737 -1.1574 -2.1752  1.9676
   61Eth     Oh 2813   2.810   0.124   1.714 -0.1106 -0.3233  0.3538
   61Eth     Co 2814   2.838   0.252   1.666 -0.2182 -0.0215  0.3890
   61Eth    Hco 2815   2.934   0.240   1.618  0.4307 -0.6498  1.7966
   61Eth    Hco 2816   2.847   0.313   1.756  0.1313  2.0059 -0.9878
   61Eth     Ch 2817   2.726   0.297   1.574  0.2817 -0.6016  0.6023
   61Eth    Hcc 2818   2.732   0.397   1.531 -0.5732 -1.3975 -1.4036
   61Eth    Hcc 2819   2.631   0.293   1.625  0.5949  0.7824  1.3043
   61Eth    Hcc 2820   2.731   0.228   1.489  0.6499  0.1169  0.0369
   62Eth     Ho 2821   3.219   3.084   9.907 -0.6069  0.6131 -2.8044
   62Eth     Oh 2822   3.158   3.143   9.947  0.6345  0.1552 -0.1279
   62Eth     Co 2823   3.049   3.128   9.863  0.0816 -0.2656 -0.1192
   62Eth    Hco 2824   3.055   3.030   9.817 -1.2285 -0.2688 -0.3001
   62Eth    Hco 2825   3.065   3.197   9.780  0.3133 -0.2611 -0.0716
   62Eth     Ch 2826   2.922   3.154   9.949 -0.4711 -0.0010  0.2058
   62Eth    Hcc 2827   2.883   3.071  10.007 -1.2976  1.1256  1.2766
   62Eth    Hcc 2828   2.830   3.167   9.890 -1.2538  1.3394  1.6996
   62Eth    Hcc 2829   2.923   3.242  10.012 -1.2129 -0.8943  1.5006
   63Eth     Ho 2830   1.081   2.561   2.906 -0.6095 -0.5405  0.4257
   63Eth     Oh 2831   1.089   2.556   2.812 -0.2043  0.5283  0.3884
   63Eth     Co 2832   1.191   2.470   2.788  0.1661 -0.1712 -0.4706
   63Eth    Hco 2833   1.269   2.481   2.864  0.0405 -0.1552 -0.3442
   63Eth    Hco 2834   1.228   2.502   2.690 -0.1279  1.5380 -0.0513
   63Eth     Ch 2835   1.139   2.326   2.781 -0.0638 -0.4751  0.3908
   63Eth    Hcc 2836   1.085   2.304   2.873 -0.9662  0.5085  0.1058
   63Eth    Hcc 2837   1.224   2.262   2.758 -3.0877 -4.1984 -0.9356
   63Eth    Hcc 2838   1.067   2.320   2.700  0.3393 -0.8586  0.0602
   64Eth     Ho 2839   2.274   0.209   9.788  0.1224 -2.2331 -0.8473
   64Eth     Oh 2840   2.183   0.186   9.798 -0.3481 -0.2587 -0.5255
   64Eth     Co 2841   2.178   0.047   9.811 -0.6606 -0.1882 -0.2622
   64Eth    Hco 2842   2.261   0.004   9.866 -0.5508  1.1118  0.6135
   64Eth    Hco 2843   2.196   0.004   9.712  3.5721  2.2990 -0.6940
   64Eth     Ch 2844   2.051  -0.016   9.869 -0.1407  0.0844 -0.5150
   64Eth    Hcc 2845   1.961   0.031   9.830 -0.3188  0.5623  0.4523
   64Eth    Hcc 2846   2.038   0.002   9.976 -0.9058 -0.0487 -0.5822
   64Eth    Hcc 2847   2.053  -0.124   9.857  1.8468  0.0945 -0.4186
   65Eth     Ho 2848   0.535   0.912   6.942 -0.8216 -0.8841  0.0951
   65Eth     Oh 2849   0.518   0.856   7.015 -0.2559 -0.5805  0.4698
   65Eth     Co 2850   0.410   0.775   6.978 -0.4407 -0.1973 -0.0818
   65Eth    Hco 2851   0.432   0.712   6.891  0.1585  0.1947 -0.2204
   65Eth    Hco 2852   0.323   0.837   6.959 -0.6823 -0.0322  1.5146
   65Eth     Ch 2853   0.379   0.698   7.102 -0.3415  0.6059 -0.5632
   65Eth    Hcc 2854   0.290   0.636   7.090 -2.4349  3.1353  1.2434
   65Eth    Hcc 2855   0.359   0.753   7.194 -0.2032 -1.0892  0.5090
   65Eth    Hcc 2856   0.469   0.639   7.119  0.3300  1.1605 -2.1757
   66Eth     Ho 2857   0.625   0.582   9.402  1.0093 -1.0239  0.9631
   66Eth     Oh 2858   0.588   0.495   9.399 -0.0736 -0.5261 -0.1028
   66Eth     Co 2859   0.588   0.480   9.257 -0.6222  0.6679  0.4515
   66Eth    Hco 2860   0.687   0.438   9.238 -0.9138 -0.4331  1.3469
   66Eth    Hco 2861   0.588   0.572   9.198  0.2288  0.6511  0.4196
   66Eth     Ch 2862   0.474   0.386   9.217 -0.0258 -0.6914  0.0888
   66Eth    Hcc 2863   0.379   0.439   9.219  0.5355  0.2996  3.9896
   66Eth    Hcc 2864   0.461   0.292   9.271  0.1992 -0.8557 -0.1410
   66Eth    Hcc 2865   0.502   0.354   9.116 -0.1246  0.6194 -0.3607
   67Eth     Ho 2866   0.646   2.007   1.729 -0.0938 -0.5922  0.1181
   67Eth     Oh 2867   0.732   1.970   1.733 -0.0401 -0.5752 -0.7107
   67Eth     Co 2868   0.795   2.008   1.613  0.9009  0.3061  0.3403
   67Eth    Hco 2869   0.853   2.100   1.619  0.8847  0.3035  0.5243
   67Eth    Hco 2870   0.715   2.012   1.539  1.6066 -1.1397 -0.5180
   67Eth     Ch 2871   0.877   1.884   1.571  0.3668  0.1845  0.0583
   67Eth    Hcc 2872   0.822   1.790   1.567  1.6838 -0.5364 -1.8257
   67Eth    Hcc 2873   0.951   1.866   1.649 -1.3102  1.8955  2.1099
   67Eth    Hcc 2874   0.934   1.904   1.480  0.7714  0.2124  0.3139
   68Eth     Ho 2875   1.086   0.985   9.571  0.0206  0.2155 -0.1919
   68Eth     Oh 2876   1.084   0.927   9.645 -0.3586  0.1971 -0.2132
   68Eth     Co 2877   0.951   0.950   9.705  0.3671 -0.0626 -0.5699
   68Eth    Hco 2878   0.870   0.924   9.637  1.7307  2.1032 -3.0899
   68Eth    Hco 2879   0.933   1.052   9.739  0.9615  0.1518 -0.8967
   68Eth     Ch 2880   0.940   0.866   9.836  0.3867 -0.5525  0.9684
   68Eth    Hcc 2881   0.940   0.757   9.834 -0.8759 -0.5491  0.4920
   68Eth    Hcc 2882   0.857   0.898   9.899  0.0787  1.5633 -0.4516
   68Eth    Hcc 2883   1.033   0.899   9.882  2.3733 -1.4266 -2.2199
   69Eth     Ho 2884   2.895   2.710   4.975 -1.0368 -2.1648 -0.2418
   69Eth     Oh 2885   2.976   2.667   4.995 -0.2190 -0.6452 -0.1769
   69Eth     Co 2886   2.966   2.625   5.138  0.0827  0.5601 -0.4046
   69Eth    Hco 2887   2.868   2.580   5.124  0.3971 -1.0780  2.3524
   69Eth    Hco 2888   2.966   2.722   5.189 -0.4147  0.7476 -0.7579
   69Eth     Ch 2889   3.070   2.513   5.173 -0.2702 -0.1590  0.2962
   69Eth    Hcc 2890   3.173   2.538   5.150  0.2604 -2.3881  0.1289
   69Eth    Hcc 2891   3.047   2.418   5.125  1.1852  1.1722 -3.1636
   69Eth    Hcc 2892   3.063   2.491   5.280 -0.5833 -0.6058  0.1836
   70Eth     Ho 2893   2.570   0.405   6.992 -0.4287 -0.5025 -0.0381
   70Eth     Oh 2894   2.534   0.442   6.913  0.5653  0.0965 -0.2265
   70Eth     Co 2895   2.495   0.324   6.838 -1.1973  0.2579  0.0075
   70Eth    Hco 2896   2.400   0.293   6.880 -1.0458  1.2870  1.1446
   70Eth    Hco 2897   2.559   0.237   6.855 -1.0565  0.8086  2.3828
   70Eth     Ch 2898   2.468   0.356   6.690 -0.3263 -0.1333  0.1776
   70Eth    Hcc 2899   2.440   0.461   6.691  3.0310  0.8273  1.6347
   70Eth    Hcc 2900   2.383   0.302   6.649 -0.0480 -0.3211 -0.1558
   70Eth    Hcc 2901   2.564   0.342   6.639  0.1542 -0.2710  1.1176
   71Eth     Ho 2902   0.856   2.050   9.636  3.6524  1.7581  0.4711
   71Eth     Oh 2903   0.871   2.004   9.716  0.1621  0.2675  0.3842
   71Eth     Co 2904   0.812   1.877   9.695 -0.1041  0.2955 -0.3428
   71Eth    Hco 2905   0.866   1.818   9.621 -0.1572  2.7001 -2.3890
   71Eth    Hco 2906   0.711   1.880   9.652  0.1395  1.7257 -0.8419
   71Eth     Ch 2907   0.822   1.793   9.827  1.2947 -0.4277  0.1855
   71Eth    Hcc 2908   0.913   1.795   9.888  2.2521 -1.9251 -1.1325
   71Eth    Hcc 2909   0.800   1.687   9.813 -1.4011  0.1099  0.1585
   71Eth    Hcc 2910   0.740   1.824   9.892 -2.6086 -3.7807 -2.8669
   72Eth     Ho 2911   1.948   2.462   1.710  0.9908 -1.0118  0.3098
   72Eth     Oh 2912   1.980   2.505   1.633 -0.2584 -0.4326  0.0936
   72Eth     Co 2913   2.047   2.627   1.662 -0.1463  0.6219 -0.4958
   72Eth    Hco 2914   2.130   2.620   1.732 -0.1814  0.1930 -0.4996
   72Eth    Hco 2915   1.982   2.703   1.705 -0.7588  0.1715 -0.6212
   72Eth     Ch 2916   2.093   2.695   1.533 -0.1956 -0.1074  0.1463
   72Eth    Hcc 2917   2.004   2.692   1.469  0.2649 -1.2230 -0.4462
   72Eth    Hcc 2918   2.173   2.645   1.478 -1.4936 -3.1329  0.9118
   72Eth    Hcc 2919   2.134   2.792   1.563 -1.4397  0.0144  1.5102
   73Eth     Ho 2920   0.087   2.566   4.258 -0.2798  0.5566  0.5901
   73Eth     Oh 2921   0.048   2.565   4.343 -0.8259 -0.0317  0.3383
   73Eth     Co 2922   0.145   2.506   4.428  0.7356  0.1216  0.5396
   73Eth    Hco 2923   0.228   2.575   4.440  0.9251 -0.2528  1.3722
   73Eth    Hco 2924   0.182   2.415   4.379  1.8439  1.7239 -1.6868
   73Eth     Ch 2925   0.087   2.470   4.568  0.8009  0.2132 -0.0461
   73Eth    Hcc 2926   0.015   2.544   4.601  1.6557  0.6269  0.9189
   73Eth    Hcc 2927   0.165   2.451   4.642  0.1811  0.5913  0.7075
   73Eth    Hcc 2928   0.033   2.377   4.551  0.2911  0.7490 -1.4127
   74Eth     Ho 2929   1.186   2.521   6.237  0.2713 -0.1309 -0.5815
   74Eth     Oh 2930   1.151   2.605   6.213  0.0840 -0.0094  0.1161
   74Eth     Co 2931   1.045   2.574   6.120  0.8830  0.5701 -0.5977
   74Eth    Hco 2932   0.990   2.485   6.148 -0.5015  1.2535 -1.0729
   74Eth    Hco 2933   1.073   2.555   6.016  1.1708  1.3938 -0.6804
   74Eth     Ch 2934   0.932   2.675   6.146  0.2370 -0.1515 -0.3406
   74Eth    Hcc 2935   0.967   2.775   6.118 -0.0294 -0.2194 -0.9223
   74Eth    Hcc 2936   0.896   2.679   6.249  1.5208  0.1423  0.1119
   74Eth    Hcc 2937   0.845   2.640   6.091  0.1071 -0.9580  0.3711
   75Eth     Ho 2938   1.658   0.578   3.312 -1.9030  1.9793 -1.2168
   75Eth     Oh 2939   1.724   0.620   3.260  0.5864 -0.2515  0.0535
   75Eth     Co 2940   1.660   0.704   3.166  0.0915  0.7687  0.4336
   75Eth    Hco 2941   1.590   0.779   3.203 -0.4664  1.2603 -1.5391
   75Eth    Hco 2942   1.605   0.655   3.086 -0.1047  0.9543  0.4526
   75Eth     Ch 2943   1.767   0.797   3.101  0.6258  0.0714  0.3368
   75Eth    Hcc 2944   1.728   0.872   3.032 -0.8808  0.7180  1.8407
   75Eth    Hcc 2945   1.850   0.751   3.047  0.2577 -1.6835  1.2125
   75Eth    Hcc 2946   1.821   0.854   3.177  0.1944 -1.1765  1.6136
   76Eth     Ho 2947   2.170   0.724   6.480 -1.5902  1.2880 -1.9622
   76Eth     Oh 2948   2.205   0.800   6.522  0.2341 -0.4437 -0.2574
   76Eth     Co 2949   2.194   0.783   6.660  0.1661 -0.8346 -0.3328
   76Eth    Hco 2950   2.215   0.678   6.680  1.0817 -0.2921  1.7447
   76Eth    Hco 2951   2.094   0.797   6.701  0.5865  0.2413  0.3585
   76Eth     Ch 2952   2.291   0.886   6.721  0.1472  0.4472 -0.3674
   76Eth    Hcc 2953   2.279   0.983   6.672  0.3981  1.9995  2.4960
   76Eth    Hcc 2954   2.396   0.860   6.708 -0.0519 -0.7749  0.3408
   76Eth    Hcc 2955   2.280   0.906   6.828  0.6957  0.9323 -0.4011
   77Eth     Ho 2956   0.329   3.415   9.554 -0.4322  1.9230  1.5685
   77Eth     Oh 2957   0.273   3.366   9.612  0.4270 -0.3372  0.5243
   77Eth     Co 2958   0.280   3.229   9.583 -0.2493  0.1994 -0.4747
   77Eth    Hco 2959   0.381   3.201   9.614 -0.0651  1.0698 -0.2780
   77Eth    Hco 2960   0.263   3.223   9.476  4.1139  2.7208 -1.4328
   77Eth     Ch 2961   0.180   3.139   9.653  0.2679  0.0663 -0.4134
   77Eth    Hcc 2962   0.195   3.156   9.760  1.8021 -3.3676 -0.0244
   77Eth    Hcc 2963   0.209   3.037   9.627 -0.7728 -0.2845 -0.2151
   77Eth    Hcc 2964   0.076   3.151   9.624  0.0709  1.6373  0.8775
   78Eth     Ho 2965   1.428   1.485   1.646  1.6916  1.6918  0.0302
   78Eth     Oh 2966   1.362   1.541   1.685  0.2898 -0.1310  0.3721
   78Eth     Co 2967   1.426   1.662   1.678 -0.0843  0.2561 -0.1207
   78Eth    Hco 2968   1.476   1.682   1.583  0.0372 -0.4266 -0.2028
   78Eth    Hco 2969   1.513   1.663   1.743  0.1690  1.1470 -0.4632
   78Eth     Ch 2970   1.324   1.762   1.695  0.4687  0.4378  0.0474
   78Eth    Hcc 2971   1.366   1.860   1.670 -1.0724  0.7122 -1.5980
   78Eth    Hcc 2972   1.292   1.776   1.798 -2.8714  0.1565 -0.8873
   78Eth    Hcc 2973   1.237   1.741   1.633 -1.6688  2.6693  2.1793
   79Eth     Ho 2974   1.154   3.082   1.705  1.1660 -0.8401  1.3924
   79Eth     Oh 2975   1.152   3.169   1.742  0.1428 -0.4566  0.4672
   79Eth     Co 2976   1.216   3.256   1.653 -0.5712 -0.1266  0.3811
   79Eth    Hco 2977   1.185   3.214   1.558 -2.3343 -0.3254  1.0256
   79Eth    Hco 2978   1.324   3.239   1.661 -0.3122  1.5908  0.7804
   79Eth     Ch 2979   1.183   3.401   1.662 -0.1167 -0.1271 -0.4954
   79Eth    Hcc 2980   1.229   3.464   1.585 -0.1369  1.1139  0.4851
   79Eth    Hcc 2981   1.211   3.439   1.760  2.7494  0.0262 -1.3123
   79Eth    Hcc 2982   1.076   3.424   1.661  0.4724  3.5899  4.1219
   80Eth     Ho 2983   0.001   0.383   5.316  1.6903  0.3629  1.0113
   80Eth     Oh 2984  -0.044   0.334   5.382  0.9955 -0.0499  0.2373
   80Eth     Co 2985   0.016   0.382   5.492  0.2123 -0.4633  0.1982
   80Eth    Hco 2986  -0.019   0.484   5.510  0.5966 -0.1693 -0.6769
   80Eth    Hco 2987   0.123   0.386   5.468 -0.4459  0.9577 -2.7226
   80Eth     Ch 2988  -0.014   0.282   5.614 -0.5252 -0.1270 -0.9392
   80Eth    Hcc 2989   0.020   0.326   5.708 -3.3009 -0.5353  0.3129
   80Eth    Hcc 2990   0.045   0.191   5.605  0.6290  0.5926 -0.8029
   80Eth    Hcc 2991  -0.119   0.255   5.625 -0.4168  0.1653  1.0349
   81Eth     Ho 2992   2.547   0.399   6.313 -1.6029  0.4572  0.7681
   81Eth     Oh 2993   2.578   0.482   6.281  0.0634 -0.3182  0.3492
   81Eth     Co 2994   2.516   0.590   6.350  0.1739  0.2502  0.5307
   81Eth    Hco 2995   2.509   0.555   6.453 -2.0139 -0.4821  0.1500
   81Eth    Hco 2996   2.414   0.611   6.319  0.0590 -2.4421 -1.1887
   81Eth     Ch 2997   2.597   0.713   6.343  0.5430 -0.5651  0.1056
   81Eth    Hcc 2998   2.695   0.704   6.390 -0.1980  2.2794  2.3446
   81Eth    Hcc 2999   2.554   0.797   6.398 -1.5479 -1.3612 -0.2454
   81Eth    Hcc 3000   2.619   0.747   6.242 -0.8056  1.3186  0.4228
   82Eth     Ho 3001   3.125   0.717   1.502  0.3472  0.0208 -0.3306
   82Eth     Oh 3002   3.191   0.761   1.552  0.3963 -0.4082 -0.0123
   82Eth     Co 3003   3.189   0.895   1.523 -0.0261  0.3136  0.6509
   82Eth    Hco 3004   3.090   0.934   1.499 -0.4545 -1.1958 -0.1213
   82Eth    Hco 3005   3.244   0.903   1.428 -0.7997 -0.0285  0.1684
   82Eth     Ch 3006   3.270   0.977   1.623 -0.2181  0.3654  0.1765
   82Eth    Hcc 3007   3.218   1.002   1.715 -1.4924 -1.0599 -0.1522
   82Eth    Hcc 3008   3.318   1.068   1.588  1.6414 -1.3655 -1.9127
   82Eth    Hcc 3009   3.356   0.918   1.653  0.0605  0.3646 -0.6236
   83Eth     Ho 3010   0.013   3.442   3.146 -0.2430  3.7270  0.1616
   83Eth     Oh 3011  -0.080   3.446   3.140 -0.4308  0.0357 -0.3698
   83Eth     Co 3012  -0.122   3.415   3.004 -0.0333  0.1916  0.4474
   83Eth    Hco 3013  -0.065   3.326   2.981  0.0173  0.4141 -0.2863
   83Eth    Hco 3014  -0.091   3.498   2.939  1.1991 -1.0447 -0.5755
   83Eth     Ch 3015  -0.272   3.391   2.997  0.4570 -0.1888  0.5928
   83Eth    Hcc 3016  -0.299   3.406   2.893 -0.3688 -1.7537  0.5775
   83Eth    Hcc 3017  -0.327   3.468   3.052 -0.3981 -0.1950 -0.2538
   83Eth    Hcc 3018  -0.287   3.293   3.042 -0.1750  0.2399  1.3323
   84Eth     Ho 3019   1.319   2.678   8.017 -0.3888 -0.5103 -1.6307
   84Eth     Oh 3020   1.282   2.597   8.047 -0.0928 -0.2150 -0.4280
   84Eth     Co 3021   1.362   2.564   8.157 -0.2086 -0.1560  0.2408
   84Eth    Hco 3022   1.325   2.624   8.240 -1.2754  1.5014 -1.3972
   84Eth    Hco 3023   1.466   2.596   8.155 -0.7595  1.6088 -0.8929
   84Eth     Ch 3024   1.354   2.416   8.194 -0.8768  0.2049  0.2332
   84Eth    Hcc 3025   1.260   2.384   8.237 -0.7804  0.6275  0.7628
   84Eth    Hcc 3026   1.420   2.410   8.281 -1.1958  0.0024  0.4584
   84Eth    Hcc 3027   1.382   2.348   8.113 -2.1607  0.9024 -0.8154
   85Eth     Ho 3028   2.021   0.273   9.833 -0.2415 -0.0694 -0.4238
   85Eth     Oh 3029   1.940   0.307   9.867  0.0671  0.2210  0.0201
   85Eth     Co 3030   1.979   0.410   9.958 -0.0045  0.2201 -0.4777
   85Eth    Hco 3031   2.049   0.369  10.031 -2.1421 -1.0193  0.9719
   85Eth    Hco 3032   1.889   0.446  10.008  1.4507  2.9111  0.2682
   85Eth     Ch 3033   2.030   0.541   9.896  0.6418  0.4315  0.5479
   85Eth    Hcc 3034   2.015   0.624   9.965  1.0267  1.5897 -0.7327
   85Eth    Hcc 3035   1.978   0.560   9.802 -2.1441 -1.9989  1.5535
   85Eth    Hcc 3036   2.137   0.549   9.874  0.5713  3.8743  1.1504
   86Eth     Ho 3037   3.147   1.475   8.182  0.5332  0.1667  1.2167
   86Eth     Oh 3038   3.108   1.560   8.169 -0.4635 -0.4396  0.1137
   86Eth     Co 3039   3.071   1.593   8.304  0.1754  0.3065 -0.0674
   86Eth    Hco 3040   3.159   1.609   8.366 -0.2702 -2.2979  1.3287
   86Eth    Hco 3041   3.023   1.506   8.348 -2.4537  1.6373 -0.1433
   86Eth     Ch 3042   2.976   1.710   8.318  0.3597 -0.1793  0.4291
   86Eth    Hcc 3043   3.015   1.807   8.290  1.6214 -0.1904  2.0737
   86Eth    Hcc 3044   2.944   1.728   8.421 -0.6920  0.4650  0.0041
   86Eth    Hcc 3045   2.882   1.697   8.263 -0.2168  0.9385  1.1403
   87Eth     Ho 3046   1.368   1.646   7.907  0.2366 -3.0131  0.2441
   87Eth     Oh 3047   1.298   1.636   7.846  0.2881  0.3821 -0.5094
   87Eth     Co 3048   1.332   1.735   7.757 -0.0813 -0.5225 -0.4908
   87Eth    Hco 3049   1.435   1.721   7.723  1.8394  1.8857  3.9826
   87Eth    Hco 3050   1.342   1.827   7.814  1.1648 -1.6873  1.2173
   87Eth     Ch 3051   1.220   1.751   7.656 -0.7594  0.1424  0.0552
   87Eth    Hcc 3052   1.179   1.655   7.622  1.5753 -1.3325  1.2480
   87Eth    Hcc 3053   1.230   1.811   7.565  1.1939  1.6153  1.2336
   87Eth    Hcc 3054   1.135   1.809   7.693 -0.0046  1.5617 -0.4326
   88Eth     Ho 3055   0.271   2.074   8.810  2.0921  2.6738  0.2770
   88Eth     Oh 3056   0.338   2.019   8.847  0.5987  0.5758 -0.0688
   88Eth     Co 3057   0.413   1.952   8.745 -0.0065 -0.2534 -0.1626
   88Eth    Hco 3058   0.448   2.032   8.680 -1.3425  0.2479 -0.2869
   88Eth    Hco 3059   0.355   1.874   8.696 -0.9228 -2.0080  3.5268
   88Eth     Ch 3060   0.527   1.886   8.821 -0.4943  0.0277 -0.0064
   88Eth    Hcc 3061   0.603   1.864   8.747  0.2711 -0.4934  0.9202
   88Eth    Hcc 3062   0.512   1.790   8.871  0.0112  0.7234  1.5221
   88Eth    Hcc 3063   0.568   1.955   8.895 -3.1465  1.5109  0.1461
   89Eth     Ho 3064   0.218   0.613   7.331 -1.2198 -1.4411 -2.4297
   89Eth     Oh 3065   0.240   0.524   7.350 -0.2510 -0.5976  0.6014
   89Eth     Co 3066   0.235   0.518   7.488  0.7012 -0.2306  0.5297
   89Eth    Hco 3067   0.148   0.578   7.517 -1.6881 -2.5652 -1.5158
   89Eth    Hco 3068   0.318   0.553   7.549  0.0386  2.1368  0.1403
   89Eth     Ch 3069   0.197   0.368   7.510 -0.1620  0.1794  0.2304
   89Eth    Hcc 3070   0.094   0.346   7.481 -0.4964  0.1790  1.3764
   89Eth    Hcc 3071   0.200   0.360   7.619  0.1686  2.0204  0.3628
   89Eth    Hcc 3072   0.269   0.304   7.458  0.2607  1.9347 -1.3972
   90Eth     Ho 3073   2.470   1.834   1.864  2.0430  0.4616 -0.4042
   90Eth     Oh 3074   2.471   1.800   1.776 -0.4484  0.1957 -0.3895
   90Eth     Co 3075   2.546   1.678   1.761 -0.0310 -0.1687  0.1829
   90Eth    Hco 3076   2.500   1.607   1.830  1.4753 -1.1416  0.2072
   90Eth    Hco 3077   2.644   1.696   1.804 -0.3496  0.4145  0.6645
   90Eth     Ch 3078   2.549   1.616   1.618 -0.7952  0.4417 -1.0660
   90Eth    Hcc 3079   2.604   1.686   1.556  0.3836  1.1095  0.7022
   90Eth    Hcc 3080   2.454   1.597   1.568  0.1212 -1.9888 -1.9076
   90Eth    Hcc 3081   2.603   1.522   1.618  1.9314  1.9536 -1.0503
   91Eth     Ho 3082   2.475   1.268  10.000 -1.2315 -2.4769 -0.8001
   91Eth     Oh 3083   2.467   1.300   9.912 -0.7402  0.5046  0.1865
   91Eth     Co 3084   2.546   1.414   9.898  0.9040 -0.2444 -0.6544
   91Eth    Hco 3085   2.625   1.386   9.829  2.3246  0.7809  0.5041
   91Eth    Hco 3086   2.600   1.439   9.990  1.2826 -0.1607 -0.8991
   91Eth     Ch 3087   2.471   1.529   9.838 -0.1586  0.1976  0.1181
   91Eth    Hcc 3088   2.368   1.546   9.868 -0.7180 -0.9246 -1.0830
   91Eth    Hcc 3089   2.470   1.508   9.731  1.2555  0.0475  0.1203
   91Eth    Hcc 3090   2.518   1.623   9.866 -2.6370  1.7368 -0.7084
   92Eth     Ho 3091   0.771   3.007   7.970  0.8387  0.2679  0.6737
   92Eth     Oh 3092   0.780   3.100   7.965  0.6273  0.2250 -0.5500
   92Eth     Co 3093   0.794   3.141   7.830  0.3769 -0.4816 -0.4014
   92Eth    Hco 3094   0.727   3.221   7.797  0.4911  0.7412  2.2255
   92Eth    Hco 3095   0.793   3.054   7.764 -0.1018  0.4944 -1.6995
   92Eth     Ch 3096   0.935   3.200   7.809  0.3979 -0.9450  0.1531
   92Eth    Hcc 3097   1.024   3.137   7.794  1.1755  0.0056  0.7477
   92Eth    Hcc 3098   0.970   3.269   7.885 -1.0237  1.0994 -1.0165
   92Eth    Hcc 3099   0.932   3.274   7.729 -0.5230 -1.1095  0.0316
   93Eth     Ho 3100   1.527   2.713   7.652  0.4228  1.4718 -0.1267
   93Eth     Oh 3101   1.548   2.715   7.744 -0.2849  0.2218  0.0666
   93Eth     Co 3102   1.679   2.659   7.753  0.7595 -0.5306 -0.1153
   93Eth    Hco 3103   1.739   2.705   7.675 -0.7227  2.1359  0.2622
   93Eth    Hco 3104   1.675   2.552   7.732  1.0942 -0.8135  1.2465
   93Eth     Ch 3105   1.747   2.674   7.890 -0.3939  0.6358  0.6777
   93Eth    Hcc 3106   1.712   2.769   7.930 -0.0126  2.0648 -2.2889
   93Eth    Hcc 3107   1.850   2.693   7.862 -0.5413 -0.2948 -0.5249
   93Eth    Hcc 3108   1.737   2.590   7.959 -0.8838 -0.5389 -0.8116
   94Eth     Ho 3109   0.282   2.194   6.973 -0.0087  0.8121  0.7981
   94Eth     Oh 3110   0.344   2.237   7.029  0.3893  0.7753  0.3923
   94Eth     Co 3111   0.341   2.373   6.996 -0.2255 -0.0350  0.2120
   94Eth    Hco 3112   0.247   2.392   6.945 -0.2698 -0.0764  0.2802
   94Eth    Hco 3113   0.417   2.404   6.924  0.3743  0.9171  1.2347
   94Eth     Ch 3114   0.392   2.464   7.116  0.0446 -0.1093 -0.8164
   94Eth    Hcc 3115   0.337   2.463   7.210  0.4464  0.8441 -0.5618
   94Eth    Hcc 3116   0.391   2.567   7.080  0.1451  0.4962  0.9014
   94Eth    Hcc 3117   0.490   2.424   7.140 -0.7205 -1.5212 -0.0080
   95Eth     Ho 3118   1.633   0.496   6.649  1.7890  0.0513 -0.6109
   95Eth     Oh 3119   1.639   0.585   6.617 -0.4943  0.4931  0.1013
   95Eth     Co 3120   1.715   0.647   6.718  0.5256 -0.3836 -0.2005
   95Eth    Hco 3121   1.805   0.593   6.745  0.7562 -0.2587 -0.7105
   95Eth    Hco 3122   1.657   0.669   6.808 -1.4757 -1.8968 -1.0742
   95Eth     Ch 3123   1.755   0.784   6.669  0.5138 -0.7199  0.4005
   95Eth    Hcc 3124   1.836   0.774   6.597 -1.8874  0.8979 -2.6638
   95Eth    Hcc 3125   1.786   0.842   6.756  1.5831 -0.4583 -0.1508
   95Eth    Hcc 3126   1.677   0.837   6.614 -1.5383 -2.4012  1.5831
   96Eth     Ho 3127   0.364   2.495   1.547 -2.8417 -1.5551 -0.2351
   96Eth     Oh 3128   0.340   2.581   1.576  0.5193 -0.5438 -0.2170
   96Eth     Co 3129   0.296   2.641   1.454 -0.0883 -0.6314  0.5820
   96Eth    Hco 3130   0.189   2.622   1.444 -1.2460  4.2044  2.3691
   96Eth    Hco 3131   0.352   2.599   1.370  2.0532 -0.6798  1.9867
   96Eth     Ch 3132   0.317   2.791   1.462  0.1131  0.2486  0.3025
   96Eth    Hcc 3133   0.287   2.856   1.380  2.5446 -1.0753 -1.7044
   96Eth    Hcc 3134   0.421   2.816   1.483 -0.7537  3.7220  0.7597
   96Eth    Hcc 3135   0.272   2.835   1.551  0.9597 -0.6985  1.2163
   97Eth     Ho 3136   2.076   3.158   9.403 -0.0280 -0.2502 -0.6741
   97Eth     Oh 3137   2.129   3.089   9.437  0.1652  0.1334 -0.1874
   97Eth     Co 3138   2.081   3.060   9.566  0.1144 -0.6513 -0.2729
   97Eth    Hco 3139   2.062   3.158   9.611  0.4757 -0.1608 -1.1753
   97Eth    Hco 3140   2.161   3.008   9.618 -1.0390 -1.3477  0.8424
   97Eth     Ch 3141   1.954   2.977   9.560  0.2868 -0.6723  0.3986
   97Eth    Hcc 3142   1.974   2.881   9.512  1.0192 -0.0642 -0.5391
   97Eth    Hcc 3143   1.881   3.043   9.512 -0.1448  1.4439  3.8445
   97Eth    Hcc 3144   1.916   2.951   9.659  0.0697 -0.2423  0.4261
   98Eth     Ho 3145   0.376   1.199   5.413  1.2704 -1.4553 -2.8813
   98Eth     Oh 3146   0.425   1.278   5.401  0.5323 -0.5377 -0.3398
   98Eth     Co 3147   0.361   1.394   5.468  0.2416 -0.2205  0.4747
   98Eth    Hco 3148   0.341   1.356   5.569  0.9424 -1.9494 -0.0135
   98Eth    Hco 3149   0.261   1.421   5.436 -0.2683 -0.1081  2.1005
   98Eth     Ch 3150   0.457   1.517   5.455 -0.2903  0.7276 -0.0232
   98Eth    Hcc 3151   0.555   1.495   5.497 -0.9632 -1.3173  0.5517
   98Eth    Hcc 3152   0.411   1.600   5.508 -0.6525 -0.1538  1.0681
   98Eth    Hcc 3153   0.482   1.541   5.351  3.7858 -2.7275 -0.0037
   99Eth     Ho 3154   2.646   0.742   9.638  0.8365  0.1156  1.3054
   99Eth     Oh 3155   2.574   0.783   9.683  0.0338 -0.1716  0.3112
   99Eth     Co 3156   2.492   0.685   9.736  0.0171 -1.1613 -0.5314
   99Eth    Hco 3157   2.549   0.622   9.803  0.8427  1.6155  1.4602
   99Eth    Hco 3158   2.450   0.623   9.657 -0.2468 -0.3699 -1.0169
   99Eth     Ch 3159   2.385   0.752   9.818 -0.3137 -0.8540 -0.7253
   99Eth    Hcc 3160   2.335   0.832   9.764 -2.6660 -1.7575  0.0560
   99Eth    Hcc 3161   2.433   0.794   9.906  2.5109 -2.2687 -1.5093
   99Eth    Hcc 3162   2.319   0.672   9.854  1.6792 -1.8435  0.8349
  100Eth     Ho 3163   2.697   1.852   3.399  0.1352 -0.0801 -0.4465
  100Eth     Oh 3164   2.731   1.804   3.472  0.0605  0.2666 -0.1827
  100Eth     Co 3165   2.847   1.753   3.425 -0.2626 -0.7664 -0.5917
  100Eth    Hco 3166   2.919   1.827   3.390 -1.7198  0.9737  0.0087
  100Eth    Hco 3167   2.817   1.702   3.334  0.7210 -0.9622 -0.8143
  100Eth     Ch 3168   2.898   1.649   3.516 -0.2371  0.5533 -0.0780
  100Eth    Hcc 3169   2.985   1.602   3.470 -0.6742 -0.4734  0.1369
  100Eth    Hcc 3170   2.833   1.564   3.534  0.2060  1.0376  4.2353
  100Eth    Hcc 3171   2.926   1.710   3.602  0.6494  0.2528 -0.1450
  101Eth     Ho 3172   3.202   0.572   7.021  1.1502  0.7969 -1.6251
  101Eth     Oh 3173   3.281   0.597   7.065  0.6783 -0.1350 -0.1966
  101Eth     Co 3174   3.335   0.715   7.020  0.1952 -0.9193  0.0836
  101Eth    Hco 3175   3.391   0.697   6.928 -0.4075 -0.5491 -0.3609
  101Eth    Hco 3176   3.417   0.747   7.084 -0.4428  0.4264  0.2464
  101Eth     Ch 3177   3.237   0.824   7.012  0.0174  0.1202 -0.8648
  101Eth    Hcc 3178   3.151   0.791   6.954 -0.6109 -1.4681  0.9452
  101Eth    Hcc 3179   3.273   0.910   6.955 -3.0643  2.3557  0.4194
  101Eth    Hcc 3180   3.210   0.858   7.112  0.9025 -1.9737  0.1253
  102Eth     Ho 3181   2.475   1.275   5.819 -0.3882 -0.5213 -0.5617
  102Eth     Oh 3182   2.546   1.241   5.767  0.1633  0.3865 -0.4152
  102Eth     Co 3183   2.646   1.203   5.855  0.3241  0.4559 -0.7242
  102Eth    Hco 3184   2.617   1.128   5.928 -1.5837  3.6186  1.8911
  102Eth    Hco 3185   2.682   1.282   5.920 -2.7023  1.4482 -0.2084
  102Eth     Ch 3186   2.757   1.141   5.775  0.0116 -0.5623 -0.3490
  102Eth    Hcc 3187   2.839   1.115   5.842  0.0396  1.1345  0.3121
  102Eth    Hcc 3188   2.783   1.203   5.689  1.4187  0.1646  0.5788
  102Eth    Hcc 3189   2.724   1.044   5.738 -1.6575 -0.0789 -0.1403
  103Eth     Ho 3190   2.212   1.219   3.855  2.1421  0.2821  1.3744
  103Eth     Oh 3191   2.211   1.131   3.889 -0.6823 -0.2831 -0.0108
  103Eth     Co 3192   2.337   1.088   3.916 -0.3286  0.3265  0.1466
  103Eth    Hco 3193   2.350   1.106   4.023 -3.5856  1.1976  0.4414
  103Eth    Hco 3194   2.405   1.156   3.866 -2.8317  1.3667 -1.9370
  103Eth     Ch 3195   2.364   0.945   3.860  0.2217 -0.6827  0.5783
  103Eth    Hcc 3196   2.464   0.912   3.889  0.5629  0.1760  0.3809
  103Eth    Hcc 3197   2.349   0.950   3.752 -0.3571  3.3440  0.7735
  103Eth    Hcc 3198   2.296   0.873   3.905 -0.3437 -0.4973  0.0260
  104Eth     Ho 3199   0.482   2.165   1.601  0.3940  1.0486  0.3442
  104Eth     Oh 3200   0.521   2.120   1.675  0.6144  0.4930 -0.1050
  104Eth     Co 3201   0.418   2.038   1.732  0.7486 -0.3891  0.3157
  104Eth    Hco 3202   0.401   1.945   1.678 -2.3696  0.2027  0.2152
  104Eth    Hco 3203   0.331   2.100   1.712 -0.3422 -1.4031  1.8082
  104Eth     Ch 3204   0.439   2.027   1.882  0.2797  0.7203  0.0124
  104Eth    Hcc 3205   0.514   1.956   1.916  1.4989  1.6367 -0.7062
  104Eth    Hcc 3206   0.351   1.990   1.934  0.7693  1.2242  1.2177
  104Eth    Hcc 3207   0.478   2.120   1.924 -0.9678  1.2852 -0.0442
  105Eth     Ho 3208   3.226   0.534   8.063 -0.2828  0.2073  1.0518
  105Eth     Oh 3209   3.250   0.623   8.082 -0.0598  0.4341 -0.2817
  105Eth     Co 3210   3.309   0.622   8.214  0.0028  0.2730 -0.0156
  105Eth    Hco 3211   3.348   0.722   8.229  0.9204  0.3854 -2.8954
  105Eth    Hco 3212   3.403   0.566   8.219  0.9506  1.9009  1.0507
  105Eth     Ch 3213   3.223   0.581   8.331 -0.6579 -0.5009  0.3539
  105Eth    Hcc 3214   3.295   0.563   8.411 -0.0370 -0.3358 -0.1706
  105Eth    Hcc 3215   3.176   0.487   8.301  1.0253 -1.3603  0.3612
  105Eth    Hcc 3216   3.147   0.657   8.353  1.0501  1.1073  0.7804
  106Eth     Ho 3217   1.152   1.297   4.964 -1.5941  1.0062 -0.5646
  106Eth     Oh 3218   1.116   1.210   4.959  0.1692  0.2199  0.3125
  106Eth     Co 3219   0.976   1.221   4.927  0.2670  0.2334 -0.2762
  106Eth    Hco 3220   0.950   1.272   4.834  1.5483 -0.2983 -0.9361
  106Eth    Hco 3221   0.918   1.273   5.003 -1.9119 -0.5341 -1.3660
  106Eth     Ch 3222   0.910   1.080   4.911  0.0825  0.3258 -0.1058
  106Eth    Hcc 3223   0.931   1.002   4.984 -2.1402  0.1472  0.3972
  106Eth    Hcc 3224   0.930   1.041   4.812 -0.4562  0.8080 -0.4056
  106Eth    Hcc 3225   0.802   1.091   4.899  0.0774  1.7489  1.0494
  107Eth     Ho 3226   3.012   2.940   4.918  3.3578  0.8869  1.9443
  107Eth     Oh 3227   2.946   2.974   4.976  0.4167 -0.1107 -0.7042
  107Eth     Co 3228   2.943   3.112   4.966 -0.2056  0.9847  0.3759
  107Eth    Hco 3229   2.870   3.123   4.886  0.2740 -2.9156 -0.7229
  107Eth    Hco 3230   3.036   3.148   4.921  0.2535 -0.7153 -0.0808
  107Eth     Ch 3231   2.905   3.171   5.102  0.3338 -0.2133  0.5626
  107Eth    Hcc 3232   2.996   3.172   5.161  1.3125 -1.4311 -0.8901
  107Eth    Hcc 3233   2.825   3.111   5.145 -2.4706  1.1253 -2.5904
  107Eth    Hcc 3234   2.858   3.269   5.100 -0.9727 -0.8256  0.6044
  108Eth     Ho 3235   0.827   0.095   5.605 -0.1405 -0.5794  1.4538
  108Eth     Oh 3236   0.745   0.051   5.591 -0.3154  0.1344  0.1779
  108Eth     Co 3237   0.658   0.093   5.694 -0.4399  0.5195  0.1681
  108Eth    Hco 3238   0.639   0.200   5.686 -0.4387  0.4210 -1.1622
  108Eth    Hco 3239   0.696   0.088   5.797 -0.8309 -1.3753  0.2330
  108Eth     Ch 3240   0.540   0.005   5.691  0.4168 -0.0386  1.3164
  108Eth    Hcc 3241   0.575  -0.098   5.681  2.4617  0.7665  0.0124
  108Eth    Hcc 3242   0.473   0.018   5.606 -0.1233 -0.4076  1.6758
  108Eth    Hcc 3243   0.476   0.020   5.778 -1.3623  0.0562  0.0185
  109Eth     Ho 3244   1.452   1.265  10.067 -0.6341  1.9079 -1.7265
  109Eth     Oh 3245   1.416   1.206  10.003 -0.0780 -0.2662 -0.1071
  109Eth     Co 3246   1.277   1.221  10.010 -0.1819 -0.3107 -0.6384
  109Eth    Hco 3247   1.248   1.325   9.998  1.9451  0.4347  0.3573
  109Eth    Hco 3248   1.247   1.195  10.112  1.4910 -0.4263 -0.1643
  109Eth     Ch 3249   1.219   1.129   9.901  0.6143 -0.2548  0.0367
  109Eth    Hcc 3250   1.238   1.022   9.912 -3.3791 -0.8546  1.7112
  109Eth    Hcc 3251   1.234   1.169   9.800 -2.3000 -1.9241 -1.1001
  109Eth    Hcc 3252   1.111   1.134   9.914  0.6492 -0.9735  0.5717
  110Eth     Ho 3253   2.439   1.803   7.958 -0.8057 -1.0989  1.5199
  110Eth     Oh 3254   2.367   1.864   7.959  0.0994  0.0389 -0.0731
  110Eth     Co 3255   2.292   1.838   7.842 -0.5912  0.4556 -0.2329
  110Eth    Hco 3256   2.345   1.762   7.784 -0.2119 -0.6712  1.5695
  110Eth    Hco 3257   2.279   1.917   7.768  0.6279  0.3673 -0.5522
  110Eth     Ch 3258   2.155   1.772   7.888 -0.3365  0.4381 -0.0936
  110Eth    Hcc 3259   2.179   1.680   7.940 -1.9961  0.2309  0.3429
  110Eth    Hcc 3260   2.085   1.752   7.807  0.0331  1.0395 -0.5663
  110Eth    Hcc 3261   2.102   1.835   7.961 -0.9156  0.2225 -0.3240
  111Eth     Ho 3262   0.837   1.904   2.358 -1.9081 -1.8954 -0.1636
  111Eth     Oh 3263   0.783   1.949   2.295  0.1085  0.1505 -0.4729
  111Eth     Co 3264   0.665   1.978   2.367 -0.3130 -0.5825  0.4901
  111Eth    Hco 3265   0.664   2.060   2.439  0.0439  0.1697 -0.3485
  111Eth    Hco 3266   0.653   1.895   2.436 -0.8661 -0.3973  0.6208
  111Eth     Ch 3267   0.544   1.993   2.272  0.8790 -0.2508 -0.3509
  111Eth    Hcc 3268   0.571   2.062   2.192  3.2502  1.6841  2.0186
  111Eth    Hcc 3269   0.453   2.028   2.321 -0.0471  0.4942 -2.5166
  111Eth    Hcc 3270   0.510   1.902   2.225  0.2615  0.7104 -1.7904
  112Eth     Ho 3271   0.701   1.675   8.463  0.5798 -0.6308  1.6645
  112Eth     Oh 3272   0.782   1.722   8.459  0.0790  0.1506  0.0193
  112Eth     Co 3273   0.873   1.624   8.435 -0.3654 -0.6815 -0.5879
  112Eth    Hco 3274   0.852   1.566   8.345 -0.8733 -1.3251 -0.0616
  112Eth    Hco 3275   0.879   1.552   8.518  1.1272  1.8934  1.6188
  112Eth     Ch 3276   1.011   1.689   8.429 -0.2134 -0.2540 -1.1456
  112Eth    Hcc 3277   1.042   1.765   8.500  1.3412 -1.5413 -0.4186
  112Eth    Hcc 3278   1.018   1.751   8.340  1.3853  2.8557  1.0699
  112Eth    Hcc 3279   1.090   1.615   8.416 -1.0437 -1.4846  0.5751
  113Eth     Ho 3280   2.786   3.289   4.656 -0.5154  1.6687  0.4407
  113Eth     Oh 3281   2.704   3.244   4.658  0.2619  0.2407  0.3084
  113Eth     Co 3282   2.606   3.327   4.717  0.5355  0.0584  0.4489
  113Eth    Hco 3283   2.508   3.282   4.705  0.8086 -0.6112  0.6809
  113Eth    Hco 3284   2.600   3.428   4.677  1.7281 -0.5281 -1.2713
  113Eth     Ch 3285   2.641   3.336   4.873  0.5820 -0.4252  0.0839
  113Eth    Hcc 3286   2.727   3.398   4.895 -0.1575  0.1933  1.2818
  113Eth    Hcc 3287   2.649   3.233   4.908 -0.9628 -1.1984 -1.7429
  113Eth    Hcc 3288   2.555   3.375   4.928  1.7746  0.3073  1.4570
  114Eth     Ho 3289   0.743   0.760   5.747 -1.2167 -0.3502 -1.6271
  114Eth     Oh 3290   0.807   0.693   5.733  0.5354  0.9939 -0.2888
  114Eth     Co 3291   0.727   0.578   5.755  0.2344 -0.0402  0.0656
  114Eth    Hco 3292   0.625   0.581   5.715  0.1321  1.1262  0.4116
  114Eth    Hco 3293   0.716   0.555   5.861 -0.6973  1.6196  0.3451
  114Eth     Ch 3294   0.799   0.470   5.679  0.5225 -0.1143 -0.7029
  114Eth    Hcc 3295   0.809   0.503   5.576  2.5676  0.4645 -0.3397
  114Eth    Hcc 3296   0.740   0.378   5.675 -0.1456  0.3860 -3.0362
  114Eth    Hcc 3297   0.893   0.441   5.725  1.0055  0.0349 -1.5961
  115Eth     Ho 3298   2.623   1.126   1.979 -1.0277 -2.3277  0.6204
  115Eth     Oh 3299   2.672   1.097   1.904  0.0459  0.1911  0.2913
  115Eth     Co 3300   2.808   1.114   1.933 -0.0708 -0.3839  0.1364
  115Eth    Hco 3301   2.848   1.080   2.028  1.2768  0.5620 -0.0688
  115Eth    Hco 3302   2.822   1.222   1.941 -1.0063 -0.2859  0.4672
  115Eth     Ch 3303   2.886   1.059   1.809  0.7317  0.6050  0.0048
  115Eth    Hcc 3304   2.856   0.955   1.792 -2.0707  1.6893 -1.9640
  115Eth    Hcc 3305   2.994   1.060   1.823  0.7961 -0.1071 -0.4242
  115Eth    Hcc 3306   2.858   1.116   1.721  0.1658  1.7157  0.8873
  116Eth     Ho 3307   0.205   0.484   9.918  1.1718 -0.3732  1.0782
  116Eth     Oh 3308   0.215   0.575   9.941  0.0015  0.0719 -0.0974
  116Eth     Co 3309   0.352   0.605   9.955 -0.0639  0.2773  0.7129
  116Eth    Hco 3310   0.412   0.558   9.877  0.5702  0.9197  0.8048
  116Eth    Hco 3311   0.385   0.558  10.048 -1.1992 -2.6434 -0.3081
  116Eth     Ch 3312   0.366   0.752   9.961 -0.2939 -0.1016 -0.2526
  116Eth    Hcc 3313   0.320   0.807   9.879 -0.9981  1.2121  1.0045
  116Eth    Hcc 3314   0.469   0.788   9.950 -0.5163  0.9254  0.9909
  116Eth    Hcc 3315   0.337   0.794  10.057  0.9559  1.1798 -0.4027
  117Eth     Ho 3316   2.339   2.098   1.637 -0.3702  1.2408  2.0371
  117Eth     Oh 3317   2.251   2.130   1.630 -0.4561  0.5986 -0.4079
  117Eth     Co 3318   2.221   2.162   1.499 -0.5054  0.2049 -0.4300
  117Eth    Hco 3319   2.258   2.092   1.424  1.0001  0.7038 -0.1650
  117Eth    Hco 3320   2.265   2.260   1.482  0.5270  0.1581  1.7249
  117Eth     Ch 3321   2.070   2.156   1.482 -0.5802  0.0494 -0.0125
  117Eth    Hcc 3322   2.035   2.192   1.386 -2.4920 -2.9896 -0.5313
  117Eth    Hcc 3323   2.014   2.222   1.548 -0.6923 -0.1213  0.0650
  117Eth    Hcc 3324   2.030   2.055   1.496  0.4469 -0.3643  0.0435
  118Eth     Ho 3325   1.383   3.318   3.458 -0.8692  0.0225  0.4361
  118Eth     Oh 3326   1.410   3.268   3.532  0.1495  0.2816  0.2398
  118Eth     Co 3327   1.417   3.351   3.648 -0.3803  0.0216 -0.0312
  118Eth    Hco 3328   1.440   3.452   3.614  1.0704 -0.3355 -0.1318
  118Eth    Hco 3329   1.499   3.319   3.712  1.1099  1.0064 -1.4214
  118Eth     Ch 3330   1.282   3.349   3.722  0.8006  0.1973  0.1773
  118Eth    Hcc 3331   1.261   3.255   3.774  1.0225  0.3788  0.5931
  118Eth    Hcc 3332   1.197   3.375   3.659  2.3712  1.5600 -1.4309
  118Eth    Hcc 3333   1.282   3.415   3.809  2.1108 -0.2836  0.5527
  119Eth     Ho 3334   2.742   1.862   5.598 -1.7391 -0.2763 -0.5028
  119Eth     Oh 3335   2.745   1.818   5.681 -0.4696 -0.4167 -0.6025
  119Eth     Co 3336   2.810   1.696   5.665  1.0423 -0.6053  0.4544
  119Eth    Hco 3337   2.916   1.724   5.663  1.3770 -1.8869 -0.5622
  119Eth    Hco 3338   2.772   1.644   5.578  1.4976  0.4140 -0.3672
  119Eth     Ch 3339   2.787   1.601   5.783  0.2264  0.3133 -0.7494
  119Eth    Hcc 3340   2.823   1.651   5.873 -1.2202  3.3471 -1.7686
  119Eth    Hcc 3341   2.847   1.513   5.758 -0.2054  0.0186 -0.7605
  119Eth    Hcc 3342   2.688   1.561   5.806  0.7666 -1.6215 -1.6904
  120Eth     Ho 3343   2.833   3.361   8.476 -0.9006 -0.7517  0.7612
  120Eth     Oh 3344   2.851   3.300   8.545  0.9439 -0.4642  0.5500
  120Eth     Co 3345   2.907   3.181   8.500  0.3110 -0.0437  0.3239
  120Eth    Hco 3346   2.971   3.204   8.414  0.1610 -3.3033 -0.7116
  120Eth    Hco 3347   2.824   3.126   8.454  0.5826 -1.0307  1.0240
  120Eth     Ch 3348   2.987   3.112   8.615  0.3774 -1.1739  1.0036
  120Eth    Hcc 3349   2.940   3.075   8.706  0.2704  0.7538  1.7535
  120Eth    Hcc 3350   3.065   3.179   8.651  0.7480 -0.0454 -1.7916
  120Eth    Hcc 3351   3.039   3.030   8.565  1.0065  0.5622 -1.2799
  121Eth     Ho 3352   2.299   1.931   5.396  0.8331  1.7750 -2.5836
  121Eth     Oh 3353   2.279   2.017   5.429 -0.0652  0.5861  0.0385
  121Eth     Co 3354   2.401   2.070   5.458  0.2249 -0.0478 -0.3695
  121Eth    Hco 3355   2.474   2.055   5.379 -0.6677  0.0642 -1.2297
  121Eth    Hco 3356   2.427   2.019   5.551 -1.0059  1.0419  0.5937
  121Eth     Ch 3357   2.383   2.223   5.494 -0.0855  0.4676 -0.6703
  121Eth    Hcc 3358   2.355   2.272   5.400  1.7091  0.1133 -1.4049
  121Eth    Hcc 3359   2.475   2.272   5.524  0.3713 -0.6734 -0.1807
  121Eth    Hcc 3360   2.296   2.248   5.555 -0.5228  1.9258 -1.8661
  122Eth     Ho 3361   0.916   0.513   1.743 -0.5882 -0.4090 -0.3784
  122Eth     Oh 3362   0.953   0.455   1.807 -0.0548  0.1006 -0.2217
  122Eth     Co 3363   0.868   0.452   1.919  0.1664 -0.6690  0.1384
  122Eth    Hco 3364   0.871   0.358   1.974  0.8836 -1.0926 -0.6196
  122Eth    Hco 3365   0.765   0.454   1.881 -0.0335 -0.9391  0.6619
  122Eth     Ch 3366   0.887   0.574   2.003 -0.4121  0.3125  0.5865
  122Eth    Hcc 3367   0.995   0.579   2.019 -0.0019  0.9134 -2.1094
  122Eth    Hcc 3368   0.832   0.551   2.094  0.1753  0.5333  0.9998
  122Eth    Hcc 3369   0.844   0.659   1.951 -3.3441  0.3645  2.9691
  123Eth     Ho 3370   2.105   0.022   1.644 -0.6941 -1.1983  0.7813
  123Eth     Oh 3371   2.026   0.004   1.595 -0.4471  0.4134 -0.2522
  123Eth     Co 3372   2.034   0.039   1.462  0.3951  0.7240 -0.2014
  123Eth    Hco 3373   2.137   0.037   1.427 -0.0187  1.1186 -1.4824
  123Eth    Hco 3374   2.025   0.142   1.429 -1.3345  0.7538  0.2851
  123Eth     Ch 3375   1.933  -0.047   1.379 -0.2538  0.5447 -0.3850
  123Eth    Hcc 3376   1.941  -0.021   1.274  0.0526  0.5372 -0.3636
  123Eth    Hcc 3377   1.830  -0.020   1.402  0.2773  2.4002 -0.0853
  123Eth    Hcc 3378   1.947  -0.154   1.395 -3.0981  0.0628 -0.7859
  124Eth     Ho 3379   3.195   2.240   7.152  2.1130 -1.1913 -1.5709
  124Eth     Oh 3380   3.194   2.323   7.109  0.3218 -0.1935  0.2923
  124Eth     Co 3381   3.320   2.373   7.136 -0.5080  0.2169  0.4619
  124Eth    Hco 3382   3.395   2.310   7.087 -0.3343  1.1538 -0.4970
  124Eth    Hco 3383   3.351   2.365   7.240  1.3095  1.2817  0.0250
  124Eth     Ch 3384   3.339   2.517   7.087  0.1833  0.2821 -0.3920
  124Eth    Hcc 3385   3.262   2.566   7.147 -0.5508  1.0111 -1.8960
  124Eth    Hcc 3386   3.322   2.538   6.981  0.1658  1.6939 -0.1190
  124Eth    Hcc 3387   3.439   2.549   7.115  1.0966 -0.9422 -2.1448
  125Eth     Ho 3388   0.383   1.435   4.964 -1.9264  0.0671 -1.5093
  125Eth     Oh 3389   0.364   1.519   5.001  0.0602 -0.2535  0.2934
  125Eth     Co 3390   0.292   1.489   5.126 -0.0998  0.8711 -1.0507
  125Eth    Hco 3391   0.356   1.425   5.186 -0.5683  0.3640 -1.0897
  125Eth    Hco 3392   0.202   1.430   5.110 -0.4451  1.3744 -0.9751
  125Eth     Ch 3393   0.263   1.620   5.197  0.4377 -0.6776  0.6730
  125Eth    Hcc 3394   0.353   1.680   5.211 -0.1262  1.5354 -4.1549
  125Eth    Hcc 3395   0.224   1.616   5.299 -0.5725 -1.9765  0.2365
  125Eth    Hcc 3396   0.193   1.678   5.137 -0.5547 -0.2943  2.1591
  126Eth     Ho 3397   2.297   1.787   4.493  2.5496 -0.2278  1.8529
  126Eth     Oh 3398   2.273   1.696   4.487 -0.6734  0.6421  0.4707
  126Eth     Co 3399   2.397   1.638   4.503  0.1996 -0.6556  0.1086
  126Eth    Hco 3400   2.469   1.696   4.561 -0.5334 -1.8948  2.3171
  126Eth    Hco 3401   2.444   1.635   4.405  0.7251 -0.8746  0.3659
  126Eth     Ch 3402   2.394   1.495   4.566  0.3800  0.1846  0.0861
  126Eth    Hcc 3403   2.431   1.486   4.669  0.0636 -1.6774  0.0538
  126Eth    Hcc 3404   2.457   1.423   4.514  0.5616 -0.4581  1.1734
  126Eth    Hcc 3405   2.294   1.452   4.567  0.5599 -0.3279 -2.4230
  127Eth     Ho 3406   1.387   2.109   9.608  1.0703 -0.7411  1.4605
  127Eth     Oh 3407   1.410   2.031   9.561  0.1341  0.0367 -0.3742
  127Eth     Co 3408   1.460   1.935   9.651 -0.0328  0.7717  0.2887
  127Eth    Hco 3409   1.380   1.909   9.720 -0.2619  0.1514 -0.1974
  127Eth    Hco 3410   1.527   1.991   9.716 -0.4682 -1.2750  2.5811
  127Eth     Ch 3411   1.514   1.811   9.579 -0.1323 -0.2179 -0.2340
  127Eth    Hcc 3412   1.592   1.840   9.509  1.7162 -0.0797  1.8459
  127Eth    Hcc 3413   1.437   1.758   9.523 -0.0436  1.4768 -2.0360
  127Eth    Hcc 3414   1.549   1.730   9.643 -1.3330  0.7591  1.6954
  128Eth     Ho 3415   0.121   3.138   7.585 -2.0310  0.7011  0.3958
  128Eth     Oh 3416   0.152   3.227   7.582  0.3964 -0.1189 -0.4614
  128Eth     Co 3417   0.145   3.272   7.450 -0.9300 -0.3650 -0.5392
  128Eth    Hco 3418   0.050   3.248   7.403 -1.5537 -2.3424  1.6114
  128Eth    Hco 3419   0.226   3.216   7.402 -1.4584 -0.2759 -1.5293
  128Eth     Ch 3420   0.192   3.420   7.431 -0.5551  0.3860 -0.0246
  128Eth    Hcc 3421   0.299   3.419   7.451 -0.3038  1.6770 -1.2104
  128Eth    Hcc 3422   0.140   3.491   7.495 -0.7039 -0.8503  1.2597
  128Eth    Hcc 3423   0.184   3.439   7.324 -0.5398 -0.2886 -0.1533
  129Eth     Ho 3424   0.147   1.448   9.045  1.7973 -1.5152 -0.2827
  129Eth     Oh 3425   0.079   1.384   9.031  0.3236 -0.1818  0.6352
  129Eth     Co 3426   0.116   1.287   9.127 -0.1033  0.1702 -0.4215
  129Eth    Hco 3427   0.032   1.242   9.181  0.2444  0.2460  0.1836
  129Eth    Hco 3428   0.165   1.332   9.214  1.1654  0.6759 -1.3873
  129Eth     Ch 3429   0.190   1.174   9.063 -0.0771  1.0731 -0.3195
  129Eth    Hcc 3430   0.134   1.138   8.976 -1.5153  0.1225  0.9719
  129Eth    Hcc 3431   0.214   1.093   9.133  0.1229 -0.5252 -2.1832
  129Eth    Hcc 3432   0.278   1.213   9.012  0.1142 -1.6068 -2.2092
  130Eth     Ho 3433   2.798   0.641   1.595  0.4628  2.6052  1.0140
  130Eth     Oh 3434   2.789   0.676   1.509  0.8135 -0.4137 -0.3128
  130Eth     Co 3435   2.717   0.797   1.517 -0.2230 -0.5318  1.5660
  130Eth    Hco 3436   2.723   0.837   1.618  0.1855  0.4786  1.1484
  130Eth    Hco 3437   2.614   0.765   1.501  0.0624 -1.1597  0.9470
  130Eth     Ch 3438   2.760   0.896   1.408  0.5591 -0.5100  0.0866
  130Eth    Hcc 3439   2.711   0.992   1.428 -0.5857 -1.2749  1.0024
  130Eth    Hcc 3440   2.745   0.867   1.304 -0.9307  0.4031  0.0414
  130Eth    Hcc 3441   2.866   0.923   1.411  0.1332  1.4353 -1.0259
  131Eth     Ho 3442   0.159   2.351   9.998 -1.9680  0.8118  0.1827
  131Eth     Oh 3443   0.167   2.400   9.919  0.0330 -0.1317 -0.2235
  131Eth     Co 3444   0.108   2.313   9.824 -0.0628 -0.2514 -0.1640
  131Eth    Hco 3445   0.127   2.211   9.856  0.2504  0.0056  0.4631
  131Eth    Hco 3446   0.146   2.317   9.721  0.2843 -1.9536 -0.1082
  131Eth     Ch 3447  -0.041   2.346   9.832 -0.7193 -0.7811  0.1458
  131Eth    Hcc 3448  -0.094   2.272   9.772 -2.1322  0.8524 -0.6792
  131Eth    Hcc 3449  -0.067   2.448   9.803  1.3893 -0.1139  0.5035
  131Eth    Hcc 3450  -0.073   2.336   9.936 -1.2336  0.2781  0.0986
  132Eth     Ho 3451   2.637   2.280   4.037  0.3545  1.9415  0.5438
  132Eth     Oh 3452   2.607   2.277   3.947 -0.2234 -0.1021  0.7672
  132Eth     Co 3453   2.647   2.152   3.890  0.3668  0.4029  0.5444
  132Eth    Hco 3454   2.624   2.078   3.968  1.4103 -0.8085 -0.2718
  132Eth    Hco 3455   2.751   2.171   3.862  0.9127 -0.5416  1.8313
  132Eth     Ch 3456   2.563   2.139   3.760  0.4781  0.2397  0.0350
  132Eth    Hcc 3457   2.456   2.143   3.780 -0.3168 -0.9792 -3.5752
  132Eth    Hcc 3458   2.588   2.046   3.708  3.1955  1.4609 -0.9479
  132Eth    Hcc 3459   2.588   2.216   3.687  0.1317 -0.6953 -1.0972
  133Eth     Ho 3460   2.646   2.123   7.518 -0.3074 -2.1616  0.6476
  133Eth     Oh 3461   2.635   2.166   7.601  0.3692 -0.3378 -0.1785
  133Eth     Co 3462   2.502   2.209   7.618 -0.8130 -0.3316 -0.8777
  133Eth    Hco 3463   2.425   2.154   7.564  0.9218 -2.1615 -1.5625
  133Eth    Hco 3464   2.495   2.314   7.587  0.4025 -0.0053 -0.0483
  133Eth     Ch 3465   2.464   2.203   7.766 -0.6468  0.0314 -0.2390
  133Eth    Hcc 3466   2.460   2.096   7.783  1.4683  0.0570  0.5431
  133Eth    Hcc 3467   2.364   2.246   7.777 -0.0376  1.0341  1.5934
  133Eth    Hcc 3468   2.526   2.251   7.842 -1.4359 -0.2410  0.5791
  134Eth     Ho 3469   0.083   3.123   1.839  1.6355 -0.1005 -2.2932
  134Eth     Oh 3470   0.139   3.062   1.883  0.0337 -0.1805 -0.3493
  134Eth     Co 3471   0.205   2.986   1.788  0.1095  0.2814 -0.5118
  134Eth    Hco 3472   0.288   3.048   1.756 -1.2355  1.3150 -2.0655
  134Eth    Hco 3473   0.127   2.963   1.716 -1.1951  0.7240  0.7357
  134Eth     Ch 3474   0.246   2.852   1.860  1.0375 -0.2404 -0.9057
  134Eth    Hcc 3475   0.299   2.782   1.796  0.8267 -3.4625  2.3034
  134Eth    Hcc 3476   0.148   2.812   1.887  0.6261  0.6316 -1.0573
  134Eth    Hcc 3477   0.315   2.872   1.941 -0.0758 -0.6979  0.1765
  135Eth     Ho 3478   0.674   2.379   2.443  0.2162 -3.3611  0.9683
  135Eth     Oh 3479   0.581   2.393   2.443  0.7278  0.5076  0.4512
  135Eth     Co 3480   0.550   2.375   2.581  0.3581  0.1699  0.0089
  135Eth    Hco 3481   0.614   2.428   2.652 -0.5495 -0.7323  1.5339
  135Eth    Hco 3482   0.572   2.273   2.612 -0.9552 -0.0634  0.2118
  135Eth     Ch 3483   0.407   2.410   2.593  0.4726 -0.1150 -0.3338
  135Eth    Hcc 3484   0.386   2.502   2.539  1.3698  0.0897 -0.3424
  135Eth    Hcc 3485   0.388   2.433   2.698  0.8805 -0.7014 -0.1234
  135Eth    Hcc 3486   0.338   2.328   2.573  0.1170 -0.8041  3.3354
  136Eth     Ho 3487   0.150   2.608   5.831  1.3627  0.0970  0.0842
  136Eth     Oh 3488   0.165   2.531   5.781 -0.0290 -0.2668  0.2179
  136Eth     Co 3489   0.050   2.454   5.829 -1.1928 -0.0750  1.1571
  136Eth    Hco 3490  -0.016   2.523   5.882  0.9937  0.4841  3.2154
  136Eth    Hco 3491   0.093   2.382   5.899 -1.2314 -0.2539  0.9980
  136Eth     Ch 3492  -0.010   2.372   5.715  0.5330 -0.6254  0.7183
  136Eth    Hcc 3493  -0.088   2.304   5.747 -0.9861  0.0998 -1.3317
  136Eth    Hcc 3494   0.064   2.315   5.658  1.2152 -2.8170  3.6600
  136Eth    Hcc 3495  -0.061   2.443   5.650  1.3781  0.5382  1.3081
  137Eth     Ho 3496   0.992   0.251   5.560  0.8875 -0.4404 -0.4053
  137Eth     Oh 3497   0.978   0.189   5.629 -0.0067 -0.0613 -0.2342
  137Eth     Co 3498   1.089   0.101   5.630  0.6693 -0.6784  0.4997
  137Eth    Hco 3499   1.118   0.092   5.525 -0.7448 -1.9523  0.1919
  137Eth    Hco 3500   1.060   0.000   5.661 -0.6615 -0.1460  1.0469
  137Eth     Ch 3501   1.200   0.157   5.719 -0.3505  0.1004 -0.0363
  137Eth    Hcc 3502   1.156   0.182   5.816  2.0221 -1.6122  1.5383
  137Eth    Hcc 3503   1.240   0.246   5.672 -0.3075  0.3124  0.3956
  137Eth    Hcc 3504   1.279   0.088   5.746 -1.1900 -0.8550  0.0076
  138Eth     Ho 3505   3.250   2.751   2.647 -1.8004 -1.1264  3.7403
  138Eth     Oh 3506   3.163   2.728   2.619 -0.8843  0.2010 -0.5692
  138Eth     Co 3507   3.152   2.586   2.617  0.7543  0.1615 -0.1016
  138Eth    Hco 3508   3.154   2.556   2.722 -0.9178  0.2282 -0.0363
  138Eth    Hco 3509   3.246   2.560   2.569  0.4177 -1.8841  0.3358
  138Eth     Ch 3510   3.026   2.541   2.556 -0.6006  0.5080 -0.5170
  138Eth    Hcc 3511   3.007   2.608   2.472 -0.6422 -1.6134 -2.2675
  138Eth    Hcc 3512   2.934   2.537   2.614  1.2101  0.3845  2.4096
  138Eth    Hcc 3513   3.027   2.437   2.522  0.5474  0.8905 -1.7378
  139Eth     Ho 3514   1.911   2.638   6.418 -0.2656  0.1057 -1.8942
  139Eth     Oh 3515   1.922   2.562   6.473 -0.3776  0.8476 -0.8387
  139Eth     Co 3516   1.904   2.614   6.605  0.2939  0.4753  0.2280
  139Eth    Hco 3517   1.797   2.630   6.614 -0.6286 -3.8250 -1.9137
  139Eth    Hco 3518   1.954   2.708   6.627  2.0996 -0.0088 -1.5901
  139Eth     Ch 3519   1.948   2.511   6.706 -0.5024  0.1565  0.1500
  139Eth    Hcc 3520   1.898   2.416   6.693 -0.2687  0.2225 -1.2540
  139Eth    Hcc 3521   1.929   2.537   6.810  0.7057 -2.0266  0.9462
  139Eth    Hcc 3522   2.055   2.491   6.716 -0.0882  2.3517  0.5205
  140Eth     Ho 3523   0.148   2.048   8.387  0.6359  1.1437  1.4568
  140Eth     Oh 3524   0.229   2.088   8.362  0.8690 -0.1932  0.0255
  140Eth     Co 3525   0.270   2.165   8.467 -0.0851 -0.3087 -0.1932
  140Eth    Hco 3526   0.257   2.111   8.560 -1.3082  0.9068  0.3537
  140Eth    Hco 3527   0.202   2.250   8.469  0.6263  0.2895 -0.8446
  140Eth     Ch 3528   0.419   2.215   8.450 -0.9673  0.7850  0.4134
  140Eth    Hcc 3529   0.480   2.131   8.484  0.9362  1.6496 -0.8011
  140Eth    Hcc 3530   0.450   2.299   8.513  1.4570  0.0916  0.2192
  140Eth    Hcc 3531   0.433   2.241   8.345  0.7972  0.0522  0.4432
  141Eth     Ho 3532   1.163   1.503   1.632  0.0355  2.0744 -2.0018
  141Eth     Oh 3533   1.069   1.504   1.633  0.0026  0.2611 -0.5709
  141Eth     Co 3534   1.021   1.381   1.594 -0.1400 -0.5663  0.3970
  141Eth    Hco 3535   1.059   1.317   1.674  0.4964  1.6624  1.9435
  141Eth    Hco 3536   1.056   1.359   1.493  0.3924 -0.9663  0.6675
  141Eth     Ch 3537   0.866   1.374   1.612 -0.1099  0.0262 -0.3281
  141Eth    Hcc 3538   0.836   1.396   1.715 -1.6060  1.6820 -1.0802
  141Eth    Hcc 3539   0.819   1.283   1.574 -1.3798  1.2719 -1.8158
  141Eth    Hcc 3540   0.826   1.457   1.553 -1.8211  0.6425  1.6200
  142Eth     Ho 3541   3.247   1.460   9.641 -1.9977 -0.6332  0.2685
  142Eth     Oh 3542   3.217   1.490   9.558  0.0459 -0.2031 -0.3535
  142Eth     Co 3543   3.145   1.599   9.598 -0.0845 -0.7769 -0.4621
  142Eth    Hco 3544   3.191   1.656   9.679  1.2929 -0.4780 -1.4367
  142Eth    Hco 3545   3.047   1.561   9.627  1.7526 -3.7588  2.2552
  142Eth     Ch 3546   3.119   1.699   9.485 -0.0911  0.7071 -0.8104
  142Eth    Hcc 3547   3.212   1.752   9.465 -0.4723  1.4711 -0.5929
  142Eth    Hcc 3548   3.043   1.764   9.529 -1.1847 -1.0598 -0.0486
  142Eth    Hcc 3549   3.084   1.659   9.390 -1.7597 -0.8962  0.4569
  143Eth     Ho 3550   2.432   2.797   6.348 -0.3185  0.7722 -0.8073
  143Eth     Oh 3551   2.413   2.868   6.406  0.2551  0.0021  0.3541
  143Eth     Co 3552   2.425   2.987   6.334  0.4871  0.1966 -0.3652
  143Eth    Hco 3553   2.356   2.983   6.249  1.7440  3.5231 -1.6154
  143Eth    Hco 3554   2.529   2.991   6.300  1.1423 -2.2454  1.2033
  143Eth     Ch 3555   2.376   3.112   6.418 -0.3173  0.1634 -0.5801
  143Eth    Hcc 3556   2.450   3.128   6.496  0.8562 -1.0308 -1.4411
  143Eth    Hcc 3557   2.276   3.096   6.458 -0.6587 -1.7432 -2.1129
  143Eth    Hcc 3558   2.377   3.201   6.356 -0.6722  0.2114 -0.5232
  144Eth     Ho 3559   1.738   0.814   9.677  1.9238 -1.0160 -0.3838
  144Eth     Oh 3560   1.674   0.747   9.688  0.2645  0.5409 -0.2579
  144Eth     Co 3561   1.704   0.676   9.802 -0.0440 -0.1167  0.2659
  144Eth    Hco 3562   1.707   0.745   9.886 -0.5825 -1.4120  1.3812
  144Eth    Hco 3563   1.795   0.622   9.773  0.2960  1.6299 -2.0469
  144Eth     Ch 3564   1.594   0.564   9.820 -0.4555  0.4740 -0.0752
  144Eth    Hcc 3565   1.627   0.495   9.898 -3.4852 -2.3486 -1.1998
  144Eth    Hcc 3566   1.568   0.503   9.733 -1.0733  0.2222  0.2835
  144Eth    Hcc 3567   1.505   0.609   9.863 -1.3042  0.6042 -1.9404
  145Eth     Ho 3568   2.332   1.539   3.181 -0.1019 -0.3512  0.6711
  145Eth     Oh 3569   2.382   1.567   3.255  0.0490  0.0578  0.4211
  145Eth     Co 3570   2.398   1.472   3.357  0.0069 -0.2174 -0.1110
  145Eth    Hco 3571   2.428   1.378   3.312  0.6397  0.2086 -0.5806
  145Eth    Hco 3572   2.301   1.458   3.404 -0.0964  1.6120  0.2579
  145Eth     Ch 3573   2.491   1.521   3.474  0.0331 -0.1892 -0.0772
  145Eth    Hcc 3574   2.592   1.537   3.437 -0.8984  1.6552 -1.9354
  145Eth    Hcc 3575   2.492   1.443   3.550 -0.1425  0.6801  0.8255
  145Eth    Hcc 3576   2.467   1.618   3.518 -1.3603 -0.4603 -0.2058
  146Eth     Ho 3577   2.474   1.801   2.066 -0.1486 -0.6200 -1.5402
  146Eth     Oh 3578   2.486   1.889   2.033 -0.0175  0.0236  0.1896
  146Eth     Co 3579   2.409   1.978   2.116  0.3550  0.3380 -0.0534
  146Eth    Hco 3580   2.477   2.036   2.177  0.3008  0.8322 -0.4524
  146Eth    Hco 3581   2.335   1.939   2.186  0.0788 -0.7198 -0.9125
  146Eth     Ch 3582   2.337   2.068   2.026  0.1260 -0.4004 -0.0665
  146Eth    Hcc 3583   2.416   2.104   1.959  0.0377  0.0852  0.0859
  146Eth    Hcc 3584   2.277   2.147   2.071  0.1491  0.0920 -0.9036
  146Eth    Hcc 3585   2.267   2.011   1.967 -1.3040  0.7221  0.5098
  147Eth     Ho 3586   0.705   0.429   4.917 -2.5802 -0.5384 -2.6270
  147Eth     Oh 3587   0.641   0.452   4.982 -0.3033  0.3350 -0.6026
  147Eth     Co 3588   0.525   0.495   4.926 -0.1195  0.4327  0.2863
  147Eth    Hco 3589   0.467   0.403   4.925  0.4327  0.0788 -0.4233
  147Eth    Hco 3590   0.545   0.523   4.822 -0.0735 -3.7006 -0.8976
  147Eth     Ch 3591   0.468   0.617   4.996  0.3600 -0.2155 -0.2398
  147Eth    Hcc 3592   0.476   0.598   5.103  0.5663 -1.2189 -0.4247
  147Eth    Hcc 3593   0.365   0.639   4.969  0.2493 -0.5081 -0.0596
  147Eth    Hcc 3594   0.539   0.698   4.980 -1.7343  1.3434 -2.0051
  148Eth     Ho 3595   0.500   1.162   9.559 -0.2326 -0.5001  1.0530
  148Eth     Oh 3596   0.592   1.162   9.579 -0.1172 -0.0100  0.5273
  148Eth     Co 3597   0.612   1.234   9.704  0.0342 -0.0731  0.5745
  148Eth    Hco 3598   0.537   1.314   9.710 -1.7665 -1.8074  2.0272
  148Eth    Hco 3599   0.709   1.283   9.694  0.4192 -0.7500  0.9887
  148Eth     Ch 3600   0.613   1.136   9.822  0.6497  0.3361 -0.2514
  148Eth    Hcc 3601   0.624   1.196   9.913 -0.3323  1.3178 -0.7697
  148Eth    Hcc 3602   0.704   1.075   9.824  0.9671  0.7055 -2.1891
  148Eth    Hcc 3603   0.525   1.073   9.826  1.6500 -1.2401 -2.4525
  149Eth     Ho 3604   0.513   2.140   9.807  1.1927  0.7890 -2.2803
  149Eth     Oh 3605   0.448   2.105   9.748 -0.3225  0.2096 -0.3247
  149Eth     Co 3606   0.427   1.970   9.784  0.1102  0.5226 -0.0443
  149Eth    Hco 3607   0.511   1.939   9.846 -0.2508 -0.0145  0.1786
  149Eth    Hco 3608   0.433   1.902   9.699  1.9886 -0.0799  0.5411
  149Eth     Ch 3609   0.305   1.955   9.876 -0.6506 -0.6639 -0.5467
  149Eth    Hcc 3610   0.308   2.022   9.962 -1.6092 -2.1184  0.6537
  149Eth    Hcc 3611   0.301   1.849   9.898 -1.5632 -0.7875 -1.2606
  149Eth    Hcc 3612   0.219   1.985   9.815 -1.2892  0.4799  0.8784
  150Eth     Ho 3613   1.795   1.245   6.083  0.5596 -0.6496 -0.7708
  150Eth     Oh 3614   1.766   1.156   6.093 -0.3282 -0.2544  0.3518
  150Eth     Co 3615   1.856   1.087   6.005  0.1099  0.4825  0.4030
  150Eth    Hco 3616   1.961   1.088   6.034  0.4733  0.6481 -0.8875
  150Eth    Hco 3617   1.851   1.129   5.904  2.0528  1.3684  0.6674
  150Eth     Ch 3618   1.804   0.941   5.990  0.2391  0.3277 -0.3806
  150Eth    Hcc 3619   1.866   0.882   5.922  0.5605  0.5819 -0.3107
  150Eth    Hcc 3620   1.700   0.942   5.959 -0.0972  0.5495  0.7375
  150Eth    Hcc 3621   1.819   0.884   6.082  1.3698  0.7530 -0.2851
  151Eth     Ho 3622   3.228   1.508   5.724 -1.7742 -1.8312 -0.7341
  151Eth     Oh 3623   3.224   1.454   5.800  0.1583 -0.3099  0.5274
  151Eth     Co 3624   3.226   1.325   5.749  0.1396 -0.2341  0.2702
  151Eth    Hco 3625   3.306   1.321   5.675  1.9684  0.5584  2.1474
  151Eth    Hco 3626   3.137   1.301   5.691  0.0002  0.1011  0.3450
  151Eth     Ch 3627   3.243   1.219   5.857 -0.0492 -0.3426  0.2949
  151Eth    Hcc 3628   3.334   1.240   5.915 -0.1336 -0.7441  0.5759
  151Eth    Hcc 3629   3.254   1.119   5.815 -0.7343  0.0360 -0.7872
  151Eth    Hcc 3630   3.156   1.208   5.922  1.5117  0.4176  2.5817
  152Sol     OW 3631   1.067   3.414   7.060  0.1589 -0.2797  0.2797
  152Sol     HW 3632   1.005   3.392   6.990  0.1304 -0.0881  0.2439
  152Sol     HW 3633   1.095   3.329   7.094  0.1052 -0.3738  0.0948
  152Sol     MW 3634   1.064   3.404   7.057  0.4395 -0.0733 -0.7968
  153Sol     OW 3635   0.200   1.003   4.188  0.5369 -0.1737  0.1267
  153Sol     HW 3636   0.258   0.932   4.216 -0.4401 -1.4429 -1.0136
  153Sol     HW 3637   0.228   1.022   4.098  0.4978  0.5802  0.2745
  153Sol     MW 3638   0.208   0.998   4.182 -0.3038  0.1595 -1.0097
  154Sol     OW 3639   2.294   3.047   2.352  0.1841 -0.1634 -0.8705
  154Sol     HW 3640   2.213   3.052   2.403 -0.3849  1.6089 -1.9364
  154Sol     HW 3641   2.352   2.993   2.406 -1.5677 -1.1638  0.0680
  154Sol     MW 3642   2.292   3.042   2.362  0.3328  1.1356 -0.5806
  155Sol     OW 3643   2.642   0.206   4.802  0.3543 -1.0593  0.4833
  155Sol     HW 3644   2.725   0.249   4.779 -0.5861  1.1814  1.1265
  155Sol     HW 3645   2.662   0.156   4.881  1.6872 -2.5697 -0.7715
  155Sol     MW 3646   2.652   0.206   4.807  0.9778  0.3994 -1.1701
  156Sol     OW 3647   1.770   1.754   1.634 -0.1776  0.1432  0.0058
  156Sol     HW 3648   1.731   1.803   1.706 -2.3018  0.1255 -1.1000
  156Sol     HW 3649   1.785   1.667   1.670  0.2535  0.5755  0.8916
  156Sol     MW 3650   1.768   1.750   1.643  0.6275 -1.3336  0.2173
  157Sol     OW 3651   2.143   1.647   8.201  0.0649 -0.2945  0.4092
  157Sol     HW 3652   2.065   1.619   8.151  0.3487 -0.0839 -0.1635
  157Sol     HW 3653   2.107   1.689   8.279 -0.3918 -0.6239  0.3793
  157Sol     MW 3654   2.132   1.648   8.203  0.9991 -0.3377  0.6730
  158Sol     OW 3655   2.855   2.918   2.277 -0.3977 -0.0479  0.0865
  158Sol     HW 3656   2.779   2.956   2.320 -0.3002 -0.4239  0.5871
  158Sol     HW 3657   2.911   2.887   2.348  0.5707  0.8813 -0.2466
  158Sol     MW 3658   2.853   2.919   2.287 -0.0489  0.0829  0.5582
  159Sol     OW 3659   3.281   1.477   3.962  0.4587  0.6084  0.2176
  159Sol     HW 3660   3.221   1.465   3.888 -1.3882 -1.8856  1.9996
  159Sol     HW 3661   3.239   1.545   4.015  0.6065  0.8049  0.0800
  159Sol     MW 3662   3.272   1.482   3.960  0.2000  0.5000 -1.2134
  160Sol     OW 3663   1.669   0.824   4.442 -0.5778 -0.8125 -0.9853
  160Sol     HW 3664   1.659   0.911   4.403 -1.2187 -0.9538 -1.1490
  160Sol     HW 3665   1.579   0.793   4.454 -0.3835 -0.9815  0.1276
  160Sol     MW 3666   1.660   0.829   4.440 -0.8629  0.5585 -0.9093
  161Sol     OW 3667   1.487   3.266   8.280 -0.6626  0.1921  0.3124
  161Sol     HW 3668   1.458   3.323   8.208 -0.4053  0.8322  0.7077
  161Sol     HW 3669   1.564   3.222   8.245 -2.4248 -1.9760 -0.9538
  161Sol     MW 3670   1.491   3.267   8.270  0.2132 -0.4275 -0.1305
  162Sol     OW 3671   1.820   2.134   1.675  0.3676 -0.0162 -0.2223
  162Sol     HW 3672   1.906   2.112   1.713  1.2913  1.0916 -1.6141
  162Sol     HW 3673   1.766   2.057   1.692  2.0807 -1.3273 -0.6251
  162Sol     MW 3674   1.823   2.125   1.680  0.0720 -0.0843 -0.3907
  163Sol     OW 3675   2.390   0.919   5.813 -0.2372  0.3748  0.0633
  163Sol     HW 3676   2.481   0.897   5.833 -0.8264 -0.8867  1.4201
  163Sol     HW 3677   2.395   0.970   5.732  1.5322 -1.1350 -0.8195
  163Sol     MW 3678   2.398   0.922   5.808  0.4730  0.3792  0.6050
  164Sol     OW 3679   0.655   2.063   9.301  0.3133 -0.3046 -0.2262
  164Sol     HW 3680   0.725   1.997   9.309  1.6621  1.0253 -0.9154
  164Sol     HW 3681   0.665   2.118   9.379 -0.3480 -0.4601 -0.0261
  164Sol     MW 3682   0.662   2.062   9.309 -0.7966 -0.6526 -0.5997
  165Sol     OW 3683   0.736   0.742   8.983 -0.7884 -0.3687  0.4585
  165Sol     HW 3684   0.692   0.763   9.065 -0.5046 -1.0776  0.7915
  165Sol     HW 3685   0.777   0.657   8.998  0.2202  0.0185 -0.0443
  165Sol     MW 3686   0.736   0.736   8.992 -0.4518  1.0073 -0.4389
  166Sol     OW 3687   1.961   1.827   5.300  0.4162 -0.1328  0.6642
  166Sol     HW 3688   2.026   1.767   5.265  0.0787 -0.5732  0.7963
  166Sol     HW 3689   2.000   1.914   5.287  0.5039 -0.3206 -0.3320
  166Sol     MW 3690   1.971   1.830   5.296  0.8130  0.6045  0.1145
  167Sol     OW 3691   0.316   1.993   8.133 -0.2684 -0.4481  0.3564
  167Sol     HW 3692   0.277   2.034   8.210 -0.5614  0.1533 -0.1049
  167Sol     HW 3693   0.314   2.061   8.066  0.6978 -0.7208  0.0407
  167Sol     MW 3694   0.312   2.003   8.134 -0.1498  0.3836 -0.7886
  168Sol     OW 3695   2.705   1.026   3.363  0.6373  0.5961 -0.3293
  168Sol     HW 3696   2.726   1.102   3.418 -0.6756  1.1873 -0.6283
  168Sol     HW 3697   2.777   0.964   3.379 -0.0619  0.4548  2.6271
  168Sol     MW 3698   2.713   1.027   3.370 -0.8058 -0.0787 -0.5896
  169Sol     OW 3699   2.721   0.597   1.785 -0.0345  0.6284  0.0423
  169Sol     HW 3700   2.711   0.527   1.849  1.0525  0.7997  0.4094
  169Sol     HW 3701   2.691   0.676   1.831  0.7764  0.7566  0.3600
  169Sol     MW 3702   2.718   0.598   1.795 -0.4224  0.1983  0.6621
  170Sol     OW 3703   0.561   1.159   8.927  0.1421  0.0144  0.1881
  170Sol     HW 3704   0.649   1.124   8.914 -0.0263 -0.1138 -0.5893
  170Sol     HW 3705   0.546   1.151   9.021  0.7497 -0.4651  0.2444
  170Sol     MW 3706   0.567   1.155   8.934 -0.6061  0.1572 -0.4745
  171Sol     OW 3707   2.115   2.277   8.980  0.1804  0.2944  0.0138
  171Sol     HW 3708   2.101   2.206   8.917  1.0491 -0.0721  0.2232
  171Sol     HW 3709   2.210   2.289   8.982  0.1471  0.4351  1.0961
  171Sol     MW 3710   2.123   2.272   8.975  0.0180  0.4637  0.5425
  172Sol     OW 3711   2.071   2.370   4.987 -0.8079 -0.4160  0.1513
  172Sol     HW 3712   2.142   2.346   5.047 -0.2203 -0.3611 -0.5186
  172Sol     HW 3713   2.108   2.358   4.900 -1.6402 -0.4286 -0.2038
  172Sol     MW 3714   2.081   2.367   4.985  0.4449  0.0530  0.2046
  173Sol     OW 3715   0.523   3.244   3.722 -0.0677 -0.1157  0.3429
  173Sol     HW 3716   0.495   3.153   3.721  0.9840 -0.4459 -0.8894
  173Sol     HW 3717   0.617   3.241   3.703 -0.5439  1.3579 -2.6297
  173Sol     MW 3718   0.529   3.236   3.720  0.6580  0.0887 -0.8289
  174Sol     OW 3719   3.074   1.109   9.252  0.1141  0.6981  0.1391
  174Sol     HW 3720   3.109   1.160   9.325 -1.5496  2.3954 -0.1857
  174Sol     HW 3721   3.000   1.061   9.289  0.4142  0.1185 -0.0121
  174Sol     MW 3722   3.070   1.109   9.262  0.2711  0.1620  0.1044
  175Sol     OW 3723   2.759   0.116   3.456  0.0225 -0.6546 -0.3996
  175Sol     HW 3724   2.851   0.097   3.472  0.4535 -0.2350 -2.2359
  175Sol     HW 3725   2.749   0.110   3.361 -1.7059 -0.1041 -0.2800
  175Sol     MW 3726   2.766   0.114   3.448 -0.6016  0.1720 -1.0744
  176Sol     OW 3727   3.293   1.635   1.700  0.0792  0.7682 -0.9904
  176Sol     HW 3728   3.327   1.555   1.739 -0.2958  0.7848 -0.6213
  176Sol     HW 3729   3.253   1.607   1.617 -0.3183  0.5258 -0.7189
  176Sol     MW 3730   3.292   1.626   1.696 -0.5476 -0.2450 -0.6690
  177Sol     OW 3731   1.047   2.472   9.595 -0.3677  0.3275 -0.0606
  177Sol     HW 3732   1.014   2.495   9.682 -0.2222 -0.5124  0.2204
  177Sol     HW 3733   1.123   2.530   9.583  0.2064 -0.2361  0.7889
  177Sol     MW 3734   1.051   2.479   9.602 -0.4673  0.6114 -0.2471
  178Sol     OW 3735   2.031   0.891   2.012  0.1088 -0.4841  0.0230
  178Sol     HW 3736   2.079   0.934   1.941 -0.5454  1.1218  0.5292
  178Sol     HW 3737   2.030   0.798   1.987 -1.6446  0.2776 -2.9929
  178Sol     MW 3738   2.035   0.886   2.003 -0.0547  0.1072  0.6969
  179Sol     OW 3739   1.343   1.770   4.622 -0.3504  0.3249  0.2307
  179Sol     HW 3740   1.306   1.848   4.662  0.4909  1.4727 -1.2112
  179Sol     HW 3741   1.430   1.762   4.661 -1.2565 -1.2158  2.0750
  179Sol     MW 3742   1.347   1.776   4.629  0.2745 -0.7423 -0.5846
  180Sol     OW 3743   0.568   0.447   8.066 -0.3626  0.0576  0.4832
  180Sol     HW 3744   0.580   0.450   7.971  2.0007  0.0457  0.7567
  180Sol     HW 3745   0.544   0.356   8.084 -0.1025 -0.1113 -0.0180
  180Sol     MW 3746   0.567   0.439   8.059 -1.1293 -0.2614  0.1274
  181Sol     OW 3747   2.043   0.669   1.798 -0.3071  0.2926 -0.4828
  181Sol     HW 3748   2.026   0.729   1.726 -0.7068 -0.3716 -0.9499
  181Sol     HW 3749   2.043   0.582   1.758 -1.6830 -0.1853  0.4973
  181Sol     MW 3750   2.041   0.667   1.788 -0.7751  0.6563 -1.7401
  182Sol     OW 3751   2.183   2.327   9.894  0.2677  0.2986  0.9311
  182Sol     HW 3752   2.164   2.244   9.851 -1.3407  1.1774 -0.0970
  182Sol     HW 3753   2.097   2.364   9.916  0.8975  2.3698  0.0421
  182Sol     MW 3754   2.174   2.323   9.892  0.4590  0.1543 -0.0231
  183Sol     OW 3755   2.272   1.178   9.792 -0.4425 -0.6220  0.4128
  183Sol     HW 3756   2.352   1.227   9.811 -0.5171 -0.7379  1.0373
  183Sol     HW 3757   2.232   1.225   9.718 -1.1366  0.9894  1.7733
  183Sol     MW 3758   2.275   1.187   9.787 -0.0494  0.5052  0.9658
  184Sol     OW 3759   2.079   0.379   6.531 -0.0392 -0.5640  0.0884
  184Sol     HW 3760   2.107   0.353   6.618 -1.3874 -0.0733  0.6857
  184Sol     HW 3761   2.018   0.310   6.505  0.0007 -0.4628 -0.2746
  184Sol     MW 3762   2.076   0.370   6.536 -0.1811  0.0783 -0.1562
  185Sol     OW 3763   0.373   1.412   4.017 -0.2481  0.2018  0.3184
  185Sol     HW 3764   0.367   1.439   3.925  0.7438  4.4321  1.3684
  185Sol     HW 3765   0.289   1.437   4.055  0.1831  0.6084  1.0269
  185Sol     MW 3766   0.365   1.417   4.012 -0.8547 -0.4223  1.1757
  186Sol     OW 3767   2.038   1.409   7.782 -0.0211 -0.0443 -0.5103
  186Sol     HW 3768   2.099   1.451   7.722 -0.7389  0.9039 -0.5954
  186Sol     HW 3769   2.089   1.394   7.862  1.2365 -2.2863 -1.6892
  186Sol     MW 3770   2.048   1.411   7.784 -0.0430  0.4419  0.4604
  187Sol     OW 3771   2.665   1.857   3.156 -0.1718 -0.6161  0.2582
  187Sol     HW 3772   2.677   1.762   3.151  0.5899 -0.4636 -1.0429
  187Sol     HW 3773   2.600   1.876   3.089 -0.4615 -0.2339  0.6454
  187Sol     MW 3774   2.660   1.850   3.149 -0.4185 -0.1843  0.0036
  188Sol     OW 3775   0.117   1.443   1.849 -0.5315 -0.2313 -0.1540
  188Sol     HW 3776   0.075   1.389   1.916  0.4724  0.6724  1.2298
  188Sol     HW 3777   0.175   1.382   1.803  0.4791 -0.3938  1.2933
  188Sol     MW 3778   0.119   1.432   1.851 -0.0240  0.7600  0.3678
  189Sol     OW 3779   0.640   1.771   7.368  0.2694 -0.8553 -0.0082
  189Sol     HW 3780   0.704   1.797   7.302  0.9716 -1.0678  0.5768
  189Sol     HW 3781   0.571   1.836   7.363  0.8994 -0.1946 -0.1321
  189Sol     MW 3782   0.640   1.779   7.362  0.6998  0.0486  0.0444
  190Sol     OW 3783   3.044   0.885   5.826  0.1817  0.1413  0.0754
  190Sol     HW 3784   2.971   0.876   5.887 -0.9014 -1.0905 -1.3538
  190Sol     HW 3785   3.031   0.814   5.763  1.7795  0.8309 -1.0578
  190Sol     MW 3786   3.036   0.878   5.826 -0.4290  0.7819 -0.7531
  191Sol     OW 3787   1.076   0.204   3.636  0.1493 -0.3055 -0.0547
  191Sol     HW 3788   1.031   0.281   3.602 -0.2145  0.0253  1.1607
  191Sol     HW 3789   1.117   0.164   3.559  1.0937  1.5953 -0.5679
  191Sol     MW 3790   1.076   0.207   3.626  0.7265  0.9204 -0.5502
  192Sol     OW 3791   1.492   1.286   6.454  0.1374  0.0249 -0.3121
  192Sol     HW 3792   1.456   1.203   6.421  2.5269 -0.9493 -0.5906
  192Sol     HW 3793   1.418   1.328   6.498 -0.8289 -2.8135  0.9086
  192Sol     MW 3794   1.482   1.282   6.455  0.6839  0.5959 -0.7544
  193Sol     OW 3795   0.205   2.910   3.821  0.2149  0.1749 -0.1344
  193Sol     HW 3796   0.158   2.828   3.803  1.5617 -0.6525  0.0350
  193Sol     HW 3797   0.296   2.890   3.801  0.7268  1.3067  0.9934
  193Sol     MW 3798   0.209   2.901   3.818  0.4058  0.3043 -0.2545
  194Sol     OW 3799   0.965   0.403   1.443 -0.2960 -0.0223  0.1849
  194Sol     HW 3800   0.930   0.336   1.385 -0.6756  0.6070 -0.3175
  194Sol     HW 3801   1.009   0.354   1.512 -1.0883 -0.7984  0.1508
  194Sol     MW 3802   0.966   0.393   1.444 -0.4361  0.5056  1.0098
  195Sol     OW 3803   2.496   0.706   5.253  0.2979  0.3576 -0.0337
  195Sol     HW 3804   2.510   0.670   5.341  1.0060 -0.1914 -0.3689
  195Sol     HW 3805   2.472   0.630   5.200 -1.9996  0.9643  0.0741
  195Sol     MW 3806   2.495   0.696   5.257 -1.1950 -0.2955  0.0114
  196Sol     OW 3807   0.756   1.569   3.723  0.0427  0.0835  0.1553
  196Sol     HW 3808   0.664   1.568   3.695 -0.1625  1.7895  0.7001
  196Sol     HW 3809   0.777   1.477   3.741 -0.5735 -0.7567 -3.1207
  196Sol     MW 3810   0.750   1.561   3.722  0.3908 -0.5874  0.2252
  197Sol     OW 3811   0.995   1.411   7.076  0.4424 -0.0982  0.1342
  197Sol     HW 3812   0.899   1.413   7.075  0.4435  0.4180  1.0171
  197Sol     HW 3813   1.017   1.360   7.153  0.8688 -1.4916 -0.9080
  197Sol     MW 3814   0.988   1.407   7.083 -0.2446  0.6319  0.6323
  198Sol     OW 3815   3.188   0.213   8.222 -0.0042  0.5613 -0.9123
  198Sol     HW 3816   3.273   0.245   8.195  0.4202  0.6594  0.4859
  198Sol     HW 3817   3.185   0.229   8.316 -0.4096 -2.0734 -0.4375
  198Sol     MW 3818   3.195   0.217   8.228  1.1828  0.5380  0.2556
  199Sol     OW 3819   1.980   3.083   9.960 -0.0359  0.0554 -0.0159
  199Sol     HW 3820   1.913   3.112   9.898  0.6842  2.0155  0.0768
  199Sol     HW 3821   1.970   2.988   9.964 -3.0290  0.3411  0.2756
  199Sol     MW 3822   1.973   3.077   9.955 -0.5150 -0.0099  0.0419
  200Sol     OW 3823   0.645   0.374   8.874  0.2435 -0.7892 -0.1780
  200Sol     HW 3824   0.704   0.432   8.921 -0.8518  0.6271 -0.4920
  200Sol     HW 3825   0.576   0.432   8.841  0.2126 -1.9529 -2.2682
  200Sol     MW 3826   0.644   0.384   8.875  0.3046  0.0699  0.0671
  201Sol     OW 3827   0.325   1.741   3.728 -0.6890 -0.0553 -0.5890
  201Sol     HW 3828   0.320   1.792   3.648 -1.0924  0.2114 -0.3963
  201Sol     HW 3829   0.235   1.735   3.759 -0.5387 -0.1627 -0.1606
  201Sol     MW 3830   0.317   1.745   3.724 -0.5918  0.2003  0.7993
  202Sol     OW 3831   0.716   0.133   7.338  0.4433 -0.0023  0.2336
  202Sol     HW 3832   0.689   0.058   7.390 -1.6862  0.5797  0.0249
  202Sol     HW 3833   0.704   0.208   7.396 -0.9549  0.5390 -0.7101
  202Sol     MW 3834   0.713   0.133   7.348 -0.0533  0.2006  0.1851
  203Sol     OW 3835   2.131   0.716   8.967 -0.2608 -0.0294  0.0983
  203Sol     HW 3836   2.176   0.800   8.955 -0.1199 -0.0659  0.3670
  203Sol     HW 3837   2.040   0.734   8.944 -0.2064  0.1703  0.0422
  203Sol     MW 3838   2.127   0.725   8.964  0.1598 -0.6487 -0.0352
  204Sol     OW 3839   2.402   0.325   4.741 -0.7053 -0.2810 -0.1837
  204Sol     HW 3840   2.352   0.273   4.678 -0.5753  0.0598 -0.5782
  204Sol     HW 3841   2.478   0.272   4.761 -1.0003 -0.6076  0.0692
  204Sol     MW 3842   2.404   0.316   4.737  0.1657 -0.0576 -0.8733
  205Sol     OW 3843   3.185   1.567   1.459 -0.0518 -0.8810  0.4907
  205Sol     HW 3844   3.106   1.622   1.464  0.7882  0.1922  3.1924
  205Sol     HW 3845   3.186   1.534   1.369 -1.3197  2.4650 -0.8472
  205Sol     MW 3846   3.178   1.569   1.452  0.3306  0.6318 -0.1437
  206Sol     OW 3847   2.430   1.832   8.586 -0.3455  0.6860  0.2942
  206Sol     HW 3848   2.384   1.883   8.519 -0.0074  1.4906  0.6648
  206Sol     HW 3849   2.422   1.741   8.557 -1.6360  0.8727  0.0415
  206Sol     MW 3850   2.425   1.828   8.577  0.5858 -0.4800 -0.1249
  207Sol     OW 3851   0.609   0.589   3.982 -0.4186  0.1424 -0.1322
  207Sol     HW 3852   0.624   0.679   3.953 -0.5509 -0.8461 -3.5329
  207Sol     HW 3853   0.514   0.577   3.972 -0.1613 -0.9091 -1.5169
  207Sol     MW 3854   0.602   0.596   3.978  0.0344  0.0622 -0.3125
  208Sol     OW 3855   0.419   0.791   6.225  0.7236 -0.0931 -0.3667
  208Sol     HW 3856   0.394   0.785   6.133 -2.4414  0.7792  0.3680
  208Sol     HW 3857   0.486   0.858   6.227  0.6524  0.0578 -2.0196
  208Sol     MW 3858   0.422   0.796   6.217 -0.6364 -0.5760 -0.2320
  209Sol     OW 3859   3.112   0.895   7.925  0.2534  0.0950  0.5684
  209Sol     HW 3860   3.105   0.978   7.878  1.0337 -0.6320 -0.8838
  209Sol     HW 3861   3.033   0.847   7.902  1.7762 -1.2727 -2.1076
  209Sol     MW 3862   3.105   0.898   7.919 -0.3807 -0.2634  0.0801
  210Sol     OW 3863   1.373   3.430   6.871 -0.0551  0.4498 -1.3459
  210Sol     HW 3864   1.401   3.518   6.896 -0.5453  0.4921 -0.9289
  210Sol     HW 3865   1.416   3.372   6.934 -2.8759  0.7125  0.9201
  210Sol     MW 3866   1.379   3.433   6.879  0.3192 -0.1768 -0.0709
  211Sol     OW 3867   0.366   3.098   7.869  0.1525  0.1810  0.0242
  211Sol     HW 3868   0.373   3.165   7.801 -1.7685 -0.9050 -1.2633
  211Sol     HW 3869   0.293   3.127   7.924 -0.3397 -0.5694 -0.2248
  211Sol     MW 3870   0.360   3.107   7.868 -0.8118 -0.2260  0.6481
  212Sol     OW 3871   1.517   1.458   8.411  0.3119  0.3492  0.4132
  212Sol     HW 3872   1.557   1.374   8.434 -0.5382 -0.0111  0.5713
  212Sol     HW 3873   1.570   1.490   8.338 -0.3392 -1.0931 -0.7129
  212Sol     MW 3874   1.525   1.454   8.407  0.2232  0.4481 -0.3542
  213Sol     OW 3875   1.859   2.975   5.015  0.5387 -0.7217 -0.0265
  213Sol     HW 3876   1.953   2.978   5.030  0.6038  0.8334 -0.6661
  213Sol     HW 3877   1.820   3.003   5.098  0.7511  2.0400 -0.8020
  213Sol     MW 3878   1.863   2.978   5.024  0.8011  0.2962 -1.1079
  214Sol     OW 3879   0.498   0.796   4.660 -0.0746  0.6034 -0.6292
  214Sol     HW 3880   0.578   0.845   4.644  0.4124 -0.7706 -2.4752
  214Sol     HW 3881   0.511   0.712   4.617 -1.8180 -0.3061  0.5322
  214Sol     MW 3882   0.506   0.793   4.655 -0.1598  0.8995  0.1273
  215Sol     OW 3883   0.178   0.967   6.671  0.6823 -0.0364  0.0312
  215Sol     HW 3884   0.228   0.888   6.648  0.3499  0.4433 -2.4400
  215Sol     HW 3885   0.087   0.939   6.668  0.5908  0.2933 -0.3067
  215Sol     MW 3886   0.175   0.957   6.668 -0.0319  0.9051 -1.5370
  216Sol     OW 3887   0.722   2.267   5.955 -0.1379 -0.3759 -0.2245
  216Sol     HW 3888   0.678   2.195   5.911  1.4624 -0.6113 -1.4548
  216Sol     HW 3889   0.699   2.344   5.903 -1.4094 -0.0501  0.7833
  216Sol     MW 3890   0.716   2.268   5.946  0.3636 -0.6806 -0.1013
  217Sol     OW 3891   2.228   2.318   4.761 -0.2564  0.5098 -0.2229
  217Sol     HW 3892   2.281   2.239   4.771  0.5136  0.9133 -1.0307
  217Sol     HW 3893   2.161   2.294   4.697  0.7121  0.8532 -1.4034
  217Sol     MW 3894   2.227   2.309   4.756 -0.1424  0.2293  0.2991
  218Sol     OW 3895   1.735   1.039   6.895 -0.1615 -0.1874  0.3863
  218Sol     HW 3896   1.821   1.001   6.914  0.4073  1.2906  0.8140
  218Sol     HW 3897   1.741   1.068   6.804 -0.7374 -1.4828 -0.0748
  218Sol     MW 3898   1.743   1.038   6.888 -0.5101  0.1198  0.2053
  219Sol     OW 3899   2.301   1.394   2.363 -0.9498  0.3403  0.2299
  219Sol     HW 3900   2.305   1.484   2.397 -2.6003  0.3768  0.3659
  219Sol     HW 3901   2.217   1.389   2.318  0.1185 -0.4782 -1.7264
  219Sol     MW 3902   2.294   1.402   2.362  0.2756 -0.2155 -0.8970
  220Sol     OW 3903   2.451   0.986   3.433  0.0918 -0.3374  0.0661
  220Sol     HW 3904   2.395   0.996   3.356 -0.3750  0.3339  0.4832
  220Sol     HW 3905   2.540   0.989   3.399 -0.0941  1.0414 -0.3414
  220Sol     MW 3906   2.454   0.987   3.423  0.2770 -0.0615 -0.1171
  221Sol     OW 3907   2.774   2.216   7.015  0.2370  0.1091 -0.3542
  221Sol     HW 3908   2.724   2.212   7.096  1.0928 -0.9456  0.1336
  221Sol     HW 3909   2.804   2.307   7.010  1.8806 -0.2832  1.5697
  221Sol     MW 3910   2.772   2.224   7.022  0.4238  0.2985 -0.6185
  222Sol     OW 3911   1.816   1.852   6.271  0.6731  0.5677 -0.2574
  222Sol     HW 3912   1.812   1.888   6.359 -0.5663 -0.3657  0.0819
  222Sol     HW 3913   1.771   1.917   6.216 -0.5975  0.0615  0.1765
  222Sol     MW 3914   1.811   1.861   6.274  0.3573  0.7290  0.0350
  223Sol     OW 3915   2.329   3.102   3.121 -0.7942 -0.2735 -0.4121
  223Sol     HW 3916   2.348   3.137   3.034  0.1911  0.8280  0.2370
  223Sol     HW 3917   2.298   3.013   3.105  0.2621 -0.3989 -1.8220
  223Sol     MW 3918   2.328   3.098   3.112 -0.3980  0.3509  0.5418
  224Sol     OW 3919   3.053   0.184   5.132 -0.5243  0.4658  0.0396
  224Sol     HW 3920   3.128   0.241   5.149  0.0755 -0.8447  1.9840
  224Sol     HW 3921   3.067   0.153   5.042  1.8650 -0.6174  0.7458
  224Sol     MW 3922   3.061   0.186   5.125  0.2863 -0.3604 -0.5755
  225Sol     OW 3923   2.923   3.388   4.670 -0.3494 -0.3106  0.2862
  225Sol     HW 3924   2.919   3.448   4.596 -0.3460  0.8619  1.2050
  225Sol     HW 3925   3.011   3.351   4.667 -0.2300  0.0065 -0.0958
  225Sol     MW 3926   2.930   3.390   4.663 -0.5026  0.2558  1.2076
  226Sol     OW 3927   2.174   0.768   4.955  0.6889  0.4284  0.1925
  226Sol     HW 3928   2.101   0.781   4.894 -1.5337 -3.0474  1.8919
  226Sol     HW 3929   2.247   0.741   4.900 -0.0352  1.4635 -1.3193
  226Sol     MW 3930   2.174   0.767   4.945 -0.3158  0.2316 -0.2738
  227Sol     OW 3931   2.450   0.266   6.341 -0.0545  0.2359 -0.2240
  227Sol     HW 3932   2.370   0.304   6.305 -1.1404 -0.8514  1.0280
  227Sol     HW 3933   2.423   0.221   6.421  1.4930 -1.6710 -0.7191
  227Sol     MW 3934   2.441   0.265   6.345 -0.3904  0.0690 -0.1067
  228Sol     OW 3935   0.371   3.435   9.139  0.4781  0.5782 -0.2805
  228Sol     HW 3936   0.459   3.469   9.153  1.7760 -1.5862 -2.9577
  228Sol     HW 3937   0.374   3.345   9.172  0.4022 -0.7714 -3.7520
  228Sol     MW 3938   0.379   3.430   9.144  0.8786 -0.6824  0.7290
  229Sol     OW 3939   2.522   2.764   3.847 -0.0239  0.2713 -0.4010
  229Sol     HW 3940   2.560   2.818   3.917  0.9126 -0.6149 -0.2062
  229Sol     HW 3941   2.443   2.727   3.886 -0.0386  0.5734 -0.1404
  229Sol     MW 3942   2.519   2.765   3.857  0.2315  0.1180  0.6269
  230Sol     OW 3943   0.694   1.989   2.981  0.6085 -0.0202  0.1738
  230Sol     HW 3944   0.775   1.938   2.982  1.1627  0.8162 -1.2623
  230Sol     HW 3945   0.656   1.972   2.895 -0.1429  0.5298  0.3919
  230Sol     MW 3946   0.698   1.983   2.973  0.7189  0.2961  0.3900
  231Sol     OW 3947   1.164   0.883   4.620 -0.5671 -0.0996  0.1714
  231Sol     HW 3948   1.105   0.813   4.593  0.3007 -1.2041  1.0852
  231Sol     HW 3949   1.110   0.963   4.616 -1.2794 -0.6669 -1.8179
  231Sol     MW 3950   1.153   0.884   4.618  0.1175  0.5582 -0.0565
  232Sol     OW 3951   1.108   0.960   2.437  0.2403  0.0169  0.5389
  232Sol     HW 3952   1.037   1.019   2.413  0.0170 -0.5105 -0.1262
  232Sol     HW 3953   1.187   1.000   2.401 -0.0246 -0.5061 -0.6445
  232Sol     MW 3954   1.109   0.968   2.432 -0.1855 -0.3085  0.2618
  233Sol     OW 3955   0.927   0.029   2.805 -0.2572  0.3816  0.0489
  233Sol     HW 3956   0.978   0.110   2.798  0.4560  0.1835  2.5946
  233Sol     HW 3957   0.836   0.059   2.807 -0.0044  1.1214  0.7945
  233Sol     MW 3958   0.923   0.039   2.805 -0.0639  0.4573  0.2989
  234Sol     OW 3959   0.967   0.659   5.210  0.2857  0.8248 -0.0984
  234Sol     HW 3960   0.973   0.605   5.131 -0.5615 -0.1855  0.5061
  234Sol     HW 3961   1.021   0.736   5.191  2.7386 -0.8920 -0.4490
  234Sol     MW 3962   0.973   0.661   5.201  0.3615  0.5997  0.8738
  235Sol     OW 3963   1.656   0.004   2.563 -0.5439 -0.3741 -0.1552
  235Sol     HW 3964   1.627  -0.059   2.629 -0.0876  1.1323  1.5384
  235Sol     HW 3965   1.749   0.018   2.584 -1.3949  3.1946  1.4956
  235Sol     MW 3966   1.662  -0.001   2.571 -0.4611 -0.0288 -0.4956
  236Sol     OW 3967   1.042   3.062   3.210  0.3554  0.0306 -0.1742
  236Sol     HW 3968   1.027   3.136   3.151 -1.1666  0.0790  0.2472
  236Sol     HW 3969   1.136   3.064   3.229  0.1799  2.4128  0.5780
  236Sol     MW 3970   1.049   3.068   3.206  0.7551  0.0340 -0.3701
  237Sol     OW 3971   2.460   1.966   7.211  0.0853  0.2783 -0.2315
  237Sol     HW 3972   2.438   1.983   7.120 -1.1003  0.6234  0.1063
  237Sol     HW 3973   2.437   1.874   7.225 -2.1067  0.9069  0.3868
  237Sol     MW 3974   2.456   1.959   7.204 -0.5843 -0.2582 -0.4258
  238Sol     OW 3975   0.710   0.284   6.299 -0.1184 -0.3211  0.2088
  238Sol     HW 3976   0.631   0.280   6.353 -0.4905 -0.8696 -0.3603
  238Sol     HW 3977   0.720   0.195   6.265  0.1876 -0.0174 -0.5112
  238Sol     MW 3978   0.704   0.275   6.300  0.1721 -0.0030 -0.1265
  239Sol     OW 3979   2.096   1.452   8.594 -0.4885 -0.1003 -0.1128
  239Sol     HW 3980   2.140   1.367   8.603  0.3111  0.3740  0.5686
  239Sol     HW 3981   2.030   1.453   8.664  0.2388  0.2698  0.5839
  239Sol     MW 3982   2.094   1.445   8.601  0.0966  0.2543 -0.5552
  240Sol     OW 3983   2.887   0.325   4.736  0.0582  0.1430  0.1228
  240Sol     HW 3984   2.879   0.344   4.643 -1.0493  0.0764  0.1948
  240Sol     HW 3985   2.878   0.410   4.779  2.0526  0.3844  0.1085
  240Sol     MW 3986   2.885   0.334   4.732  0.5881  0.0718  0.1393
  241Sol     OW 3987   3.270   2.706   4.953  0.1686 -0.4823  0.0653
  241Sol     HW 3988   3.235   2.761   4.883  0.4115 -0.0702  0.2711
  241Sol     HW 3989   3.196   2.693   5.012  1.1822  3.2997  2.3695
  241Sol     MW 3990   3.260   2.710   4.952 -0.4659 -0.3880 -0.0456
  242Sol     OW 3991   2.068   1.711   3.550  0.3776  0.1673  0.1569
  242Sol     HW 3992   2.057   1.665   3.633  0.7073 -0.5090 -0.1690
  242Sol     HW 3993   2.120   1.788   3.572  0.1332  0.1973  0.6447
  242Sol     MW 3994   2.071   1.714   3.559  0.6235 -0.7714 -0.3017
  243Sol     OW 3995   2.108   1.610   4.732  0.1136 -0.4347 -0.4362
  243Sol     HW 3996   2.034   1.652   4.688 -0.7509 -0.2851  1.1112
  243Sol     HW 3997   2.172   1.596   4.663 -1.1163 -0.0114 -1.6958
  243Sol     MW 3998   2.107   1.613   4.722  0.1907  0.2677 -1.7096
  244Sol     OW 3999   2.223   2.758   6.563  0.3575 -0.2859  0.4749
  244Sol     HW 4000   2.229   2.784   6.655  0.1141  0.0048  0.4094
  244Sol     HW 4001   2.279   2.821   6.516 -1.6316  1.2627  0.0945
  244Sol     MW 4002   2.229   2.766   6.567  0.2501  0.7048 -0.5328
  245Sol     OW 4003   2.834   0.943   3.719  0.0698 -0.0011  0.3293
  245Sol     HW 4004   2.795   0.886   3.786 -0.6739  0.7092  0.5045
  245Sol     HW 4005   2.918   0.969   3.757  0.5243 -1.1794  0.1422
  245Sol     MW 4006   2.838   0.940   3.729  0.3769  0.2583 -0.4879
  246Sol     OW 4007   0.446   0.946   3.301 -0.2388 -0.5728  0.8150
  246Sol     HW 4008   0.396   1.025   3.320 -1.6220 -1.2507  0.0922
  246Sol     HW 4009   0.385   0.890   3.252  1.6328 -0.9025 -1.2133
  246Sol     MW 4010   0.436   0.948   3.298  0.3814 -0.3789  0.3336
  247Sol     OW 4011   1.321   1.316   2.013  0.0626 -0.0232 -0.3239
  247Sol     HW 4012   1.282   1.403   1.997  0.0111 -0.2441 -1.4564
  247Sol     HW 4013   1.250   1.255   1.995  0.2081 -0.3254  0.1211
  247Sol     MW 4014   1.311   1.319   2.010 -0.0283 -0.5095  0.1097
  248Sol     OW 4015   3.051   1.780   7.990  0.2002  0.1451  0.4008
  248Sol     HW 4016   3.089   1.856   8.034  0.0159  0.4232  0.0876
  248Sol     HW 4017   3.078   1.705   8.043  0.1907  0.4523  0.8421
  248Sol     MW 4018   3.057   1.780   7.999  1.4186  0.1790  0.1858
  249Sol     OW 4019   2.591   1.021   5.086 -0.0120 -0.1109 -0.0399
  249Sol     HW 4020   2.603   0.988   4.997  0.5374 -1.2669  0.4453
  249Sol     HW 4021   2.519   0.968   5.121  0.2188 -0.1223  0.4218
  249Sol     MW 4022   2.585   1.013   5.081  0.1214 -0.4241  0.8171
  250Sol     OW 4023   1.148   1.060   1.660 -0.2203 -0.8175  0.2182
  250Sol     HW 4024   1.112   0.973   1.647 -1.8109  0.0833 -1.6381
  250Sol     HW 4025   1.167   1.092   1.572 -1.1129  1.2929  0.7539
  250Sol     MW 4026   1.147   1.055   1.651 -0.3812  0.7416 -0.1768
  251Sol     OW 4027   1.923   1.268   9.480  0.0163  0.1013  0.2457
  251Sol     HW 4028   1.939   1.179   9.448  1.8394  0.2092  0.7889
  251Sol     HW 4029   1.843   1.260   9.533  0.1587 -1.2200  0.2853
  251Sol     MW 4030   1.917   1.259   9.482  0.5479  0.2968  0.1696
  252Sol     OW 4031   2.629   2.487   3.021  0.1284 -0.5853  0.1977
  252Sol     HW 4032   2.646   2.522   3.108 -0.3108  0.7628 -0.2453
  252Sol     HW 4033   2.703   2.516   2.968 -0.5575  0.2331 -0.3230
  252Sol     MW 4034   2.637   2.492   3.024  1.1178 -0.6527 -0.2353
  253Sol     OW 4035   1.149   2.055   8.292  0.1798  0.4353  0.0894
  253Sol     HW 4036   1.102   2.103   8.360  0.7752  0.8912  0.1848
  253Sol     HW 4037   1.113   2.089   8.210  0.3280  0.7774  0.1635
  253Sol     MW 4038   1.141   2.062   8.291  1.2383  0.4951 -0.6007
  254Sol     OW 4039   1.175   2.653   3.831  0.2346  0.3146 -0.4157
  254Sol     HW 4040   1.166   2.592   3.757  2.6635  0.1378 -0.6139
  254Sol     HW 4041   1.263   2.690   3.821  1.0739 -0.5847  3.0543
  254Sol     MW 4042   1.182   2.651   3.823  0.7336 -0.1594  0.9245
  255Sol     OW 4043   0.634   1.361   5.220  0.2787 -0.0936 -0.0007
  255Sol     HW 4044   0.560   1.333   5.273 -0.6166  0.0307 -1.1794
  255Sol     HW 4045   0.606   1.348   5.129  1.9756 -0.7798 -0.4483
  255Sol     MW 4046   0.625   1.358   5.216  0.3128  0.5410  0.9229
  256Sol     OW 4047   0.235   2.183   7.734  0.3963  0.1701  0.3443
  256Sol     HW 4048   0.221   2.089   7.726  1.2290  0.0979 -0.2147
  256Sol     HW 4049   0.151   2.222   7.708  0.3182 -0.3800 -0.2202
  256Sol     MW 4050   0.226   2.178   7.731 -0.0854  0.2241  0.0226
  257Sol     OW 4051   1.976   3.381   3.298  0.2711 -0.8926 -0.4416
  257Sol     HW 4052   1.912   3.375   3.369  0.0951 -3.2380 -0.7869
  257Sol     HW 4053   2.059   3.356   3.339  0.5792 -0.0992 -0.5608
  257Sol     MW 4054   1.978   3.378   3.308  0.6129  0.3831 -0.3484
  258Sol     OW 4055   0.265   2.695   6.159  0.3741  0.3574  0.2060
  258Sol     HW 4056   0.348   2.741   6.144  1.4114 -0.9329  1.8162
  258Sol     HW 4057   0.291   2.606   6.181 -1.5159 -0.3493 -0.3875
  258Sol     MW 4058   0.275   2.691   6.160  0.0739  0.7422 -0.4657
  259Sol     OW 4059   3.036   2.446   9.675  0.0523 -0.4343 -0.1636
  259Sol     HW 4060   3.024   2.389   9.752  0.4825 -0.5824 -0.2090
  259Sol     HW 4061   2.948   2.480   9.658 -0.3998 -1.8450 -0.7297
  259Sol     MW 4062   3.027   2.444   9.681  0.6076 -0.2298 -0.5140
  260Sol     OW 4063   1.363   3.377   2.324 -0.2385 -0.0060  0.0350
  260Sol     HW 4064   1.442   3.391   2.272  0.7819 -0.3346  1.4626
  260Sol     HW 4065   1.367   3.444   2.392 -1.0278 -0.2150  0.2897
  260Sol     MW 4066   1.370   3.384   2.326  0.4332 -0.7623 -0.2631
  261Sol     OW 4067   2.871   0.810   8.530  0.3953  0.0764  0.0934
  261Sol     HW 4068   2.792   0.771   8.568  0.3883 -1.1377 -1.1089
  261Sol     HW 4069   2.847   0.828   8.439  2.0917 -2.1529 -0.8486
  261Sol     MW 4070   2.862   0.808   8.525 -0.0273  0.0844  0.2061
  262Sol     OW 4071   0.432   0.373   3.799  0.0632  0.3334  0.3468
  262Sol     HW 4072   0.496   0.351   3.867  2.9635  1.7547 -1.7948
  262Sol     HW 4073   0.383   0.448   3.835  1.0701  0.6114  1.1630
  262Sol     MW 4074   0.433   0.378   3.809  0.5748  0.2166  0.1033
  263Sol     OW 4075   0.461   2.773   4.979  0.3370 -0.5102 -0.2536
  263Sol     HW 4076   0.438   2.758   4.888 -0.5827 -1.3167  0.1066
  263Sol     HW 4077   0.379   2.759   5.027  1.1173 -1.3864  0.8350
  263Sol     MW 4078   0.451   2.771   4.975 -0.4949 -0.4200 -0.5412
  264Sol     OW 4079   1.388   2.552   5.934  0.6302 -0.5026 -0.1646
  264Sol     HW 4080   1.429   2.624   5.982 -0.1681 -0.0580 -0.1392
  264Sol     HW 4081   1.361   2.491   6.002 -0.2074 -0.0250 -0.0492
  264Sol     MW 4082   1.389   2.553   5.944 -0.1130  0.6735  0.7686
  265Sol     OW 4083   0.651   2.977   3.398 -0.2508 -0.2435  0.0141
  265Sol     HW 4084   0.576   2.919   3.410  0.5277 -1.3525 -0.4154
  265Sol     HW 4085   0.708   2.959   3.473 -0.2037  0.2813  0.1075
  265Sol     MW 4086   0.649   2.970   3.406  1.0085 -0.6963  0.8074
  266Sol     OW 4087   3.126   2.699   9.820  0.7934 -0.0092 -0.0625
  266Sol     HW 4088   3.084   2.739   9.744  1.4988  0.2392 -0.3268
  266Sol     HW 4089   3.107   2.606   9.812  2.3940 -0.2275 -1.5321
  266Sol     MW 4090   3.121   2.695   9.813 -0.0198 -0.7553  0.0225
  267Sol     OW 4091   0.616   0.326   8.418  0.7767 -0.3879 -0.1390
  267Sol     HW 4092   0.640   0.416   8.400 -1.0012  0.4006  1.2616
  267Sol     HW 4093   0.689   0.291   8.469  1.1857  0.4643 -0.1382
  267Sol     MW 4094   0.625   0.331   8.421 -0.4476  0.1490  0.9632
  268Sol     OW 4095   3.249   0.918   4.247  0.0070  0.5126  0.0810
  268Sol     HW 4096   3.196   0.994   4.224  1.0341  0.7531 -1.5443
  268Sol     HW 4097   3.334   0.934   4.206  0.4391 -1.2029  0.2586
  268Sol     MW 4098   3.252   0.926   4.241 -1.0850 -0.1363  0.5874
  269Sol     OW 4099   2.922   1.612   9.138 -1.2669  0.0586  0.0133
  269Sol     HW 4100   2.930   1.520   9.163 -0.2528 -0.2681 -1.4166
  269Sol     HW 4101   3.013   1.642   9.130 -1.5035  0.2544 -2.7005
  269Sol     MW 4102   2.931   1.606   9.139  0.4992  0.1580  0.0470
  270Sol     OW 4103   0.038   3.024   8.203 -0.6557 -0.4259 -0.5515
  270Sol     HW 4104   0.121   2.975   8.209 -0.2176  0.0326 -2.4930
  270Sol     HW 4105   0.047   3.094   8.267  0.7164 -0.0516 -1.1209
  270Sol     MW 4106   0.046   3.026   8.209 -0.0884  0.6987  0.3571
  271Sol     OW 4107   1.635   2.155   9.379 -0.0550  0.9725  0.1287
  271Sol     HW 4108   1.657   2.073   9.423  1.6509  1.2398 -0.2163
  271Sol     HW 4109   1.674   2.223   9.433 -0.2468  1.4759 -0.3571
  271Sol     MW 4110   1.640   2.154   9.388 -0.0785 -0.0402  0.2523
  272Sol     OW 4111   1.890   1.421   4.328 -0.2113  0.0350 -0.1640
  272Sol     HW 4112   1.860   1.338   4.291  0.9622 -0.0563 -0.9128
  272Sol     HW 4113   1.848   1.425   4.414 -2.9834  0.2607 -1.4853
  272Sol     MW 4114   1.883   1.414   4.333 -0.0684  0.7829  0.9174
  273Sol     OW 4115   1.191   0.819   7.420 -0.0847  0.0576  0.6058
  273Sol     HW 4116   1.123   0.814   7.353  0.8786  0.1743 -0.4106
  273Sol     HW 4117   1.149   0.859   7.495 -1.0765  0.3369 -0.0886
  273Sol     MW 4118   1.181   0.822   7.420 -0.4531  0.3943  0.8839
  274Sol     OW 4119   2.491   3.306   8.855 -0.2971  0.4627 -0.3400
  274Sol     HW 4120   2.562   3.264   8.904 -1.3029  2.6959  3.1844
  274Sol     HW 4121   2.417   3.246   8.864 -0.9122  1.5459  2.2728
  274Sol     MW 4122   2.491   3.297   8.860  0.1225 -0.2899 -0.5124
  275Sol     OW 4123   3.154   0.118   3.735 -0.0913  0.2465 -0.0642
  275Sol     HW 4124   3.205   0.176   3.790  0.6554 -1.0531  0.6478
  275Sol     HW 4125   3.124   0.049   3.794 -1.4098  0.1945 -0.7798
  275Sol     MW 4126   3.156   0.117   3.745  0.2562 -0.6912  0.7322
  276Sol     OW 4127   1.256   1.553   8.147 -0.3108 -0.8211 -0.2608
  276Sol     HW 4128   1.278   1.639   8.185 -0.9158 -1.4258  1.5169
  276Sol     HW 4129   1.339   1.522   8.110  0.9456 -1.2642  2.7439
  276Sol     MW 4130   1.266   1.558   8.147 -0.7008  0.1547 -0.6631
  277Sol     OW 4131   3.255   2.960   3.448  0.0070  0.0440  0.5168
  277Sol     HW 4132   3.230   3.041   3.403  1.6860  0.6231  0.6162
  277Sol     HW 4133   3.244   2.980   3.541  4.1588  1.4876  0.7729
  277Sol     MW 4134   3.252   2.969   3.452 -0.4433 -0.6348  0.2835
  278Sol     OW 4135   1.146   2.494   9.983  0.3995  0.1787  0.1901
  278Sol     HW 4136   1.193   2.411   9.996  0.4021  0.4537  2.0921
  278Sol     HW 4137   1.215   2.560   9.983  0.3190  0.2681 -0.5249
  278Sol     MW 4138   1.157   2.492   9.984  0.0602 -0.3018  0.3304
  279Sol     OW 4139   1.676   0.562   6.353  0.4833  0.2934 -0.1478
  279Sol     HW 4140   1.617   0.618   6.303 -0.8857  1.0808  2.2417
  279Sol     HW 4141   1.664   0.590   6.444  3.4197 -0.5659  0.5787
  279Sol     MW 4142   1.670   0.570   6.357 -0.5189 -0.0318 -0.2704
  280Sol     OW 4143   1.673   3.312   9.290 -0.5991 -0.8852  0.3248
  280Sol     HW 4144   1.652   3.239   9.348 -0.5646 -2.7948 -1.9952
  280Sol     HW 4145   1.598   3.317   9.230 -0.4411  0.7630  0.2514
  280Sol     MW 4146   1.664   3.306   9.290  0.2900 -0.4048 -0.0396
  281Sol     OW 4147   2.846   0.337   2.384  0.3585 -0.1292  0.2701
  281Sol     HW 4148   2.914   0.272   2.405  0.9177  0.7344  1.2195
  281Sol     HW 4149   2.873   0.373   2.300  1.2773  0.4548  0.8084
  281Sol     MW 4150   2.855   0.334   2.379  0.1839  0.1917 -0.4448
  282Sol     OW 4151   1.826   1.568   3.123 -0.0581  0.0195  0.0834
  282Sol     HW 4152   1.861   1.534   3.206 -1.4108  0.7970  0.9753
  282Sol     HW 4153   1.898   1.619   3.086  0.3829  0.1022  1.0368
  282Sol     MW 4154   1.836   1.569   3.127  0.0724 -0.7417  0.0895
  283Sol     OW 4155   2.392   1.171   8.971 -0.1761 -0.1609 -0.1192
  283Sol     HW 4156   2.330   1.168   9.044  0.2680  1.3391  0.3278
  283Sol     HW 4157   2.466   1.117   9.000 -0.9835 -1.4567 -0.4109
  283Sol     MW 4158   2.393   1.166   8.980  0.0821  0.5334  0.4063
  284Sol     OW 4159   1.471   2.182   4.499  0.2004 -0.4904  0.1605
  284Sol     HW 4160   1.447   2.213   4.586  0.8009 -0.8228  0.4494
  284Sol     HW 4161   1.560   2.147   4.510  0.9057  0.8974 -0.9179
  284Sol     MW 4162   1.477   2.181   4.508  0.6243 -0.3605 -1.0248
  285Sol     OW 4163   1.591   2.644   8.427  0.1328 -0.7305 -0.1966
  285Sol     HW 4164   1.634   2.588   8.363  1.8117  0.3272 -0.0123
  285Sol     HW 4165   1.660   2.670   8.488 -0.6931  1.2040 -0.0371
  285Sol     MW 4166   1.601   2.641   8.427  0.8821 -0.3793 -0.9931
  286Sol     OW 4167   0.672   0.668   3.574 -0.3752 -0.5751 -0.0756
  286Sol     HW 4168   0.697   0.619   3.652  1.4828  1.4032  0.6114
  286Sol     HW 4169   0.601   0.725   3.602 -0.8237 -1.0222 -0.2704
  286Sol     MW 4170   0.668   0.668   3.583 -0.4750  0.0715 -0.0014
  287Sol     OW 4171   1.102   1.237   8.036 -0.5254 -0.0453 -0.0713
  287Sol     HW 4172   1.063   1.276   8.114  0.3832  1.0697 -0.1552
  287Sol     HW 4173   1.153   1.308   7.997  1.4782 -1.4131 -0.0213
  287Sol     MW 4174   1.103   1.247   8.040 -0.5047  0.9637 -0.5525
  288Sol     OW 4175   1.385   2.376   9.707 -0.5751 -0.0538  0.2054
  288Sol     HW 4176   1.462   2.385   9.650  0.2900 -0.3435  1.3135
  288Sol     HW 4177   1.358   2.466   9.724 -0.1121  0.0708  0.2993
  288Sol     MW 4178   1.390   2.385   9.703  0.4156  0.4101  0.4911
  289Sol     OW 4179   2.217   0.696   2.326  0.0626  0.4420  0.3160
  289Sol     HW 4180   2.183   0.783   2.348  2.0339  1.3305 -0.0808
  289Sol     HW 4181   2.297   0.687   2.378 -0.2692 -1.2663  0.5639
  289Sol     MW 4182   2.221   0.703   2.333 -0.4228 -0.3674  0.4949
  290Sol     OW 4183   1.162   1.370   7.368 -0.2452 -0.3918 -0.0011
  290Sol     HW 4184   1.091   1.426   7.401 -0.5476 -1.5890  1.4184
  290Sol     HW 4185   1.242   1.418   7.390 -0.5461  0.1073  0.0193
  290Sol     MW 4186   1.163   1.380   7.373 -0.0438  0.3943  0.3504
  291Sol     OW 4187   1.478   1.554   9.323 -0.0138 -0.1207 -0.4758
  291Sol     HW 4188   1.407   1.491   9.310  0.2370 -0.6705  0.7549
  291Sol     HW 4189   1.553   1.501   9.349 -0.2614  0.7888  2.3035
  291Sol     MW 4190   1.478   1.544   9.324  0.9681  0.1602  0.3441
  292Sol     OW 4191   0.255   1.602   9.000 -0.6040  0.3953  0.0661
  292Sol     HW 4192   0.350   1.588   8.999 -0.7079 -0.3662 -1.3734
  292Sol     HW 4193   0.244   1.686   9.045  0.6224 -0.2951  1.7023
  292Sol     MW 4194   0.263   1.608   9.004 -0.6270 -0.0226 -0.5678
  293Sol     OW 4195   2.452   2.307   8.505  0.2250  0.0694 -0.4425
  293Sol     HW 4196   2.367   2.269   8.527 -0.4243  1.3433 -0.7049
  293Sol     HW 4197   2.464   2.287   8.413  0.3348 -0.3621 -0.3334
  293Sol     MW 4198   2.445   2.302   8.499  0.3042 -0.4577  1.2269
  294Sol     OW 4199   1.530   3.039   1.881 -0.1859  0.1028 -0.3582
  294Sol     HW 4200   1.527   3.016   1.789 -1.3603 -0.7865 -0.1128
  294Sol     HW 4201   1.489   2.965   1.926  1.5220 -0.0698  0.9978
  294Sol     MW 4202   1.526   3.030   1.877  0.4198  0.5611 -0.0242
  295Sol     OW 4203   1.948   2.233   9.346  0.1497  0.4099 -0.4065
  295Sol     HW 4204   1.897   2.306   9.309  0.3206  1.0436  0.5690
  295Sol     HW 4205   1.978   2.183   9.270 -0.9544  0.6953 -1.0423
  295Sol     MW 4206   1.946   2.235   9.336 -0.0730  0.2493  0.5036
  296Sol     OW 4207   2.399   2.289   9.000  0.1905 -0.3960 -0.8310
  296Sol     HW 4208   2.409   2.334   8.916 -1.8480 -0.5681 -1.1867
  296Sol     HW 4209   2.398   2.360   9.065 -3.2808  0.1547 -1.4088
  296Sol     MW 4210   2.400   2.300   8.998 -0.2723 -0.2275  0.3505
  297Sol     OW 4211   1.217   0.056   2.138 -0.1562  0.4809  0.2605
  297Sol     HW 4212   1.259  -0.004   2.199 -0.4669  0.5819  0.5769
  297Sol     HW 4213   1.131   0.074   2.177 -0.4277  0.4043 -0.2934
  297Sol     MW 4214   1.213   0.053   2.147  0.8676 -0.4700  0.3699
  298Sol     OW 4215   1.935   2.067   3.594 -0.3203 -0.5602  0.3642
  298Sol     HW 4216   1.989   2.129   3.546 -0.3608 -2.1830 -1.8455
  298Sol     HW 4217   1.975   2.062   3.681  0.2579  1.7821  0.2569
  298Sol     MW 4218   1.943   2.072   3.598 -1.0830  0.0093  0.7710
  299Sol     OW 4219   1.613   1.467   6.009  0.5381 -0.1186  0.3552
  299Sol     HW 4220   1.567   1.498   5.931  1.4782 -0.3337 -0.2911
  299Sol     HW 4221   1.557   1.494   6.082  0.6314  1.8515 -0.2746
  299Sol     MW 4222   1.604   1.472   6.009 -0.0989 -0.6029 -0.9896
  300Sol     OW 4223   0.398   2.288   3.114  0.3024  0.3864 -0.0861
  300Sol     HW 4224   0.454   2.354   3.072  1.2793 -0.2908  0.1326
  300Sol     HW 4225   0.356   2.242   3.041 -0.4989  1.3409 -0.2372
  300Sol     MW 4226   0.399   2.290   3.103 -0.1054  0.7383  0.1701
  301Sol     OW 4227   0.126   0.322   3.359  0.0015 -0.6005  0.1787
  301Sol     HW 4228   0.098   0.252   3.418 -1.1368 -0.6927 -0.4485
  301Sol     HW 4229   0.084   0.301   3.275  1.1878 -0.2012 -0.5307
  301Sol     MW 4230   0.119   0.314   3.357 -0.8250 -0.0452 -1.0582
  302Sol     OW 4231   2.762   0.858   2.189 -0.0764 -0.4361  0.3815
  302Sol     HW 4232   2.708   0.847   2.110  0.9942  0.9797 -0.5684
  302Sol     HW 4233   2.698   0.864   2.261 -1.1164 -0.5343 -0.5253
  302Sol     MW 4234   2.751   0.858   2.189  0.5986  0.5165  0.0977
  303Sol     OW 4235   0.919   0.222   5.923 -0.1904 -0.1213  0.6218
  303Sol     HW 4236   0.928   0.208   5.828  0.5653  0.1283  0.6544
  303Sol     HW 4237   1.007   0.207   5.958 -0.1765  1.0139  1.1199
  303Sol     MW 4238   0.928   0.220   5.917  0.2691  0.0184 -0.0945
  304Sol     OW 4239   0.681   0.682   2.577  0.3540  0.1532  0.2602
  304Sol     HW 4240   0.736   0.758   2.597  1.0733 -0.3343  0.1555
  304Sol     HW 4241   0.643   0.657   2.661  1.4030 -0.3624  0.5850
  304Sol     MW 4242   0.683   0.686   2.586 -0.4667 -0.3265  0.1739
  305Sol     OW 4243   2.676   0.338   5.360  0.7012  0.3855  0.3828
  305Sol     HW 4244   2.751   0.396   5.347  0.2759  0.9708  0.5640
  305Sol     HW 4245   2.680   0.314   5.452  0.1883  1.0741  0.5861
  305Sol     MW 4246   2.683   0.341   5.367  0.4271  0.8411  0.7020
  306Sol     OW 4247   2.788   2.483   2.197  0.2202  0.2176 -0.5151
  306Sol     HW 4248   2.842   2.407   2.217  0.2658  0.2261 -0.6049
  306Sol     HW 4249   2.850   2.556   2.196  0.5030 -0.0185 -2.3359
  306Sol     MW 4250   2.798   2.483   2.198  0.4544 -0.3657 -0.5533
  307Sol     OW 4251   0.250   0.150   2.867  0.3718 -0.3662 -0.3200
  307Sol     HW 4252   0.243   0.126   2.959  2.1661  1.7521  0.4196
  307Sol     HW 4253   0.268   0.068   2.821 -0.2888 -1.3909  1.2320
  307Sol     MW 4254   0.251   0.141   2.871  0.6693 -0.0962  0.8687
  308Sol     OW 4255   3.300   1.721   3.547  0.1991  0.3796  0.3065
  308Sol     HW 4256   3.326   1.804   3.587  0.8403  0.4625 -0.2685
  308Sol     HW 4257   3.366   1.707   3.479 -0.0864 -0.4506  0.2091
  308Sol     MW 4258   3.309   1.728   3.545 -0.7421  0.4804 -0.4275
  309Sol     OW 4259   2.569   2.367   2.087 -0.0294  0.5195  0.1919
  309Sol     HW 4260   2.635   2.412   2.140  0.0634  0.8535 -0.2072
  309Sol     HW 4261   2.492   2.361   2.144  0.2917  0.2846  0.5968
  309Sol     MW 4262   2.568   2.371   2.097 -0.5586  0.1963  0.0185
  310Sol     OW 4263   0.276   2.358   3.771 -0.3876 -0.0515 -0.1608
  310Sol     HW 4264   0.255   2.278   3.722  0.9658  0.0930 -0.9882
  310Sol     HW 4265   0.207   2.364   3.837 -1.4807 -0.9694 -1.1940
  310Sol     MW 4266   0.268   2.351   3.773  0.7383  0.3980 -0.7773
  311Sol     OW 4267   1.481   1.173   1.557  0.1893 -0.8990 -0.4666
  311Sol     HW 4268   1.511   1.263   1.544 -0.4132 -0.7206 -0.6137
  311Sol     HW 4269   1.559   1.119   1.542  0.7596 -0.3487  0.4665
  311Sol     MW 4270   1.491   1.176   1.555  0.3557  1.0035 -0.6353
  312Sol     OW 4271   1.553   2.518   2.965 -0.3046  0.4931  0.4739
  312Sol     HW 4272   1.569   2.551   2.877  0.7690 -0.5063  0.2812
  312Sol     HW 4273   1.571   2.424   2.959 -1.3647  0.2130  1.4828
  312Sol     MW 4274   1.556   2.512   2.957  0.4647  0.0168  0.1042
  313Sol     OW 4275   0.750   2.187   8.182 -0.0905  0.1930  0.1238
  313Sol     HW 4276   0.758   2.096   8.210  0.4814 -0.2229 -1.3396
  313Sol     HW 4277   0.741   2.236   8.264 -1.6280 -1.2827  0.8745
  313Sol     MW 4278   0.750   2.183   8.192  0.1414 -0.1007  0.4493
  314Sol     OW 4279   1.519   0.773   2.211  0.2588 -0.1674  0.7525
  314Sol     HW 4280   1.567   0.772   2.129  1.5396 -1.4236  1.4906
  314Sol     HW 4281   1.430   0.796   2.187  0.5184 -0.9783 -1.0387
  314Sol     MW 4282   1.515   0.775   2.202 -0.4544  0.7031  1.2557
  315Sol     OW 4283   1.748   3.399   9.996 -1.0762 -0.2269  0.5690
  315Sol     HW 4284   1.725   3.341  10.069 -3.5898 -0.3907 -0.3296
  315Sol     HW 4285   1.761   3.339   9.922 -1.7200  0.2101  0.1071
  315Sol     MW 4286   1.747   3.388   9.996 -0.1600 -0.6068  0.3208
  316Sol     OW 4287   0.202   1.475   4.618 -0.2624 -0.2007  0.1685
  316Sol     HW 4288   0.226   1.541   4.554 -0.8074  0.8662  1.0612
  316Sol     HW 4289   0.200   1.521   4.701 -1.2697 -1.1938  0.7116
  316Sol     MW 4290   0.204   1.485   4.619  0.2077 -0.7303 -0.1810
  317Sol     OW 4291   0.205   3.056   5.065 -0.4067 -0.2912  0.1317
  317Sol     HW 4292   0.291   3.097   5.072 -0.6244  0.8484 -2.8507
  317Sol     HW 4293   0.221   2.963   5.079  1.2078 -0.0156  0.2306
  317Sol     MW 4294   0.214   3.052   5.067 -0.3015  0.2849  0.7278
  318Sol     OW 4295   1.437   0.072   7.249  0.2047 -0.2758  0.0948
  318Sol     HW 4296   1.483   0.052   7.331 -0.2672 -0.7660  0.2472
  318Sol     HW 4297   1.436  -0.011   7.202 -2.0024 -0.7137  0.8475
  318Sol     MW 4298   1.441   0.062   7.252  0.5686 -0.4144 -0.2844
  319Sol     OW 4299   2.232   2.810   6.827 -0.3107  0.1188 -0.2209
  319Sol     HW 4300   2.150   2.825   6.876  0.9375 -0.2602  2.0633
  319Sol     HW 4301   2.284   2.888   6.845  1.3312 -1.3378  1.5395
  319Sol     MW 4302   2.229   2.819   6.833 -0.2799  0.7269  0.9523
  320Sol     OW 4303   2.293   2.050   9.467  0.1771  0.2894 -0.1389
  320Sol     HW 4304   2.297   1.986   9.538 -1.0185  0.2379 -0.1036
  320Sol     HW 4305   2.264   2.000   9.391 -0.8481  0.7944 -0.0917
  320Sol     MW 4306   2.291   2.040   9.466 -0.3698 -0.2773 -0.0674
  321Sol     OW 4307   1.946   1.251   7.571 -0.3528  0.3812 -0.0853
  321Sol     HW 4308   2.007   1.264   7.498 -0.2557  0.5911  0.0337
  321Sol     HW 4309   1.994   1.281   7.648 -0.9559  1.4818 -0.1235
  321Sol     MW 4310   1.956   1.255   7.571 -0.3903 -0.2732  0.4188
  322Sol     OW 4311   0.410   2.737   4.711  0.1655  0.1965 -0.1222
  322Sol     HW 4312   0.445   2.774   4.630  1.2205  1.1003  0.7406
  322Sol     HW 4313   0.325   2.780   4.721  1.2081  2.0981  0.6583
  322Sol     MW 4314   0.405   2.744   4.704  0.1085  0.2701  0.3235
  323Sol     OW 4315   2.575   2.748   3.410 -0.0511 -0.2632  0.5087
  323Sol     HW 4316   2.561   2.798   3.490  0.4563 -0.8986  1.0091
  323Sol     HW 4317   2.588   2.813   3.342 -1.5989  0.3001  0.7288
  323Sol     MW 4318   2.575   2.758   3.411 -0.4436 -0.5242  0.6882
  324Sol     OW 4319   2.120   0.924   5.418  0.4200  0.3992 -1.0392
  324Sol     HW 4320   2.027   0.918   5.440  0.7715 -0.0779  0.3401
  324Sol     HW 4321   2.165   0.878   5.489  1.7549  1.1556 -1.3829
  324Sol     MW 4322   2.116   0.919   5.426  0.0609 -0.7890 -0.3707
  325Sol     OW 4323   0.080   3.144   5.915  0.1892 -0.9319 -0.0381
  325Sol     HW 4324   0.011   3.135   5.981 -1.1289  1.4299 -1.0137
  325Sol     HW 4325   0.060   3.077   5.850 -0.3221 -1.2396  0.4390
  325Sol     MW 4326   0.072   3.137   5.915  0.7438 -0.2695  0.3134
  326Sol     OW 4327   1.298   0.943   3.128  0.4035  0.3253  0.2287
  326Sol     HW 4328   1.344   1.027   3.122 -0.6001  0.8558 -0.0601
  326Sol     HW 4329   1.260   0.930   3.041  0.6437 -0.4895  0.2390
  326Sol     MW 4330   1.299   0.949   3.120 -0.1364 -1.2956  0.3850
  327Sol     OW 4331   1.022   0.579   2.799  0.3576 -0.2662 -0.1766
  327Sol     HW 4332   1.049   0.659   2.755  1.4152 -0.7898 -0.5111
  327Sol     HW 4333   1.003   0.518   2.727  0.9475 -0.7508  0.0647
  327Sol     MW 4334   1.023   0.580   2.788  0.4873 -0.4892 -0.6536
  328Sol     OW 4335   1.098   1.375   3.732  0.5724  0.7069 -0.5311
  328Sol     HW 4336   1.105   1.403   3.641  0.2583 -0.1337 -0.8190
  328Sol     HW 4337   1.005   1.384   3.753  0.2921 -1.0874 -0.9519
  328Sol     MW 4338   1.091   1.378   3.726  0.0304  0.2449  0.1719
  329Sol     OW 4339   3.007   3.333   7.808  0.7579 -0.5191  0.3460
  329Sol     HW 4340   2.961   3.394   7.865 -1.3323  0.6967 -2.5159
  329Sol     HW 4341   3.063   3.389   7.754  1.8706 -1.5389  0.4112
  329Sol     MW 4342   3.008   3.343   7.808 -0.1153  0.4611  0.5146
  330Sol     OW 4343   2.981   1.981   9.332  0.0618 -0.5085 -0.1593
  330Sol     HW 4344   2.913   1.914   9.327 -0.1718 -0.2429 -0.5813
  330Sol     HW 4345   2.996   1.994   9.425 -1.7341  0.7347 -0.0309
  330Sol     MW 4346   2.976   1.976   9.340 -0.5282 -0.4939 -0.2744
  331Sol     OW 4347   0.182   1.762   4.097 -0.4040  0.4138 -0.8333
  331Sol     HW 4348   0.223   1.693   4.148 -0.2995  0.5233 -0.7693
  331Sol     HW 4349   0.148   1.717   4.019  2.1996  0.7180 -2.2197
  331Sol     MW 4350   0.183   1.752   4.094  0.2137  0.1581  0.4022
  332Sol     OW 4351   2.858   0.122   2.069  0.4183  0.4700 -0.3005
  332Sol     HW 4352   2.878   0.070   2.146 -1.1327  1.1195  0.5507
  332Sol     HW 4353   2.925   0.096   2.005  2.6316  0.9935  1.7252
  332Sol     MW 4354   2.866   0.115   2.070 -0.3656 -0.6014  0.2147
  333Sol     OW 4355   0.808   1.731   2.646  0.4925  0.2231 -0.0475
  333Sol     HW 4356   0.824   1.654   2.701  0.3415 -0.7523 -1.3475
  333Sol     HW 4357   0.817   1.699   2.556  0.8293  1.8155 -0.6031
  333Sol     MW 4358   0.810   1.721   2.643 -0.2170 -0.3214  0.5320
  334Sol     OW 4359   1.128   2.731   9.171 -0.1342 -0.3125  0.5509
  334Sol     HW 4360   1.106   2.646   9.134 -0.4710  0.1034 -0.2311
  334Sol     HW 4361   1.217   2.721   9.205 -0.5547 -1.2559  1.3545
  334Sol     MW 4362   1.134   2.723   9.171 -0.3340 -0.2515 -0.7939
  335Sol     OW 4363   1.767   1.745   5.521  0.1724 -0.2585 -0.0295
  335Sol     HW 4364   1.851   1.727   5.563  0.6268  1.2559 -0.2673
  335Sol     HW 4365   1.790   1.789   5.439 -0.9185  2.2016  0.9426
  335Sol     MW 4366   1.777   1.747   5.517  0.0097  0.4407 -0.5473
  336Sol     OW 4367   2.608   0.072   9.023 -0.0320  0.0201 -0.2521
  336Sol     HW 4368   2.557   0.010   8.971  1.5262 -0.7486 -0.9141
  336Sol     HW 4369   2.686   0.089   8.970  0.6820  0.6968  0.9938
  336Sol     MW 4370   2.611   0.068   9.014  0.1851  1.3343  0.4534
  337Sol     OW 4371   1.142   1.446   6.848 -0.2489 -0.0896 -0.0764
  337Sol     HW 4372   1.206   1.375   6.837 -0.6602 -0.5849  0.6152
  337Sol     HW 4373   1.104   1.430   6.935 -1.2626  0.2313 -0.4482
  337Sol     MW 4374   1.144   1.438   6.855  0.2440  0.1737  0.1835
  338Sol     OW 4375   2.144   0.962   8.573 -0.5248 -0.3870 -0.0097
  338Sol     HW 4376   2.152   0.900   8.645 -1.4452 -0.8221 -0.2655
  338Sol     HW 4377   2.118   0.909   8.498  0.7920  0.0085 -0.7646
  338Sol     MW 4378   2.142   0.952   8.572  0.2461  0.0318  0.5178
  339Sol     OW 4379   1.627   2.645   5.206 -0.0434  0.6668  0.1329
  339Sol     HW 4380   1.625   2.555   5.174 -0.8283  0.4029  0.9040
  339Sol     HW 4381   1.564   2.691   5.150 -2.9547 -0.2357  2.5237
  339Sol     MW 4382   1.621   2.641   5.198  0.4904  1.0152  0.4558
  340Sol     OW 4383   2.570   3.016   7.872  0.0403  0.6118 -0.0399
  340Sol     HW 4384   2.518   3.039   7.795 -1.0310  2.4096  1.1736
  340Sol     HW 4385   2.659   3.040   7.849 -0.0494 -0.0906 -1.1869
  340Sol     MW 4386   2.573   3.020   7.863 -0.1666  0.0719  0.0717
  341Sol     OW 4387   0.619   1.705   7.840 -0.0145 -0.0345 -0.3903
  341Sol     HW 4388   0.600   1.733   7.929  0.3259  0.7182 -0.5521
  341Sol     HW 4389   0.677   1.629   7.850 -2.9080 -2.2670  0.1086
  341Sol     MW 4390   0.623   1.700   7.849  0.0361  0.5724 -0.0136
  342Sol     OW 4391   0.036   2.742   5.293  0.1371 -0.4009  0.1142
  342Sol     HW 4392   0.084   2.790   5.361 -0.1719  0.5010 -0.2884
  342Sol     HW 4393  -0.036   2.801   5.270  0.0757 -0.8283 -0.7881
  342Sol     MW 4394   0.034   2.752   5.297 -0.5741  0.0565 -0.4619
  343Sol     OW 4395   1.536   1.175   5.906  0.0563 -0.4386 -0.1103
  343Sol     HW 4396   1.589   1.173   5.986  0.1823 -1.1705 -0.2144
  343Sol     HW 4397   1.473   1.246   5.921  0.6097 -0.0308  0.2990
  343Sol     MW 4398   1.535   1.181   5.914 -0.3145  0.0242 -0.9130
  344Sol     OW 4399   0.187   3.386   5.760  0.2978 -0.1438  0.2760
  344Sol     HW 4400   0.196   3.298   5.797 -0.8498  0.0282  0.9785
  344Sol     HW 4401   0.252   3.389   5.690  0.6574 -1.3951  0.5424
  344Sol     MW 4402   0.194   3.378   5.757  0.7692  0.0350 -0.6994
  345Sol     OW 4403   1.587   1.073   9.847  0.2892 -0.0551  0.4895
  345Sol     HW 4404   1.531   1.114   9.913  1.0687 -2.3327  2.6370
  345Sol     HW 4405   1.671   1.062   9.891  1.1360 -0.6729 -1.2513
  345Sol     MW 4406   1.590   1.076   9.857  0.8155 -0.5128  0.4017
  346Sol     OW 4407   3.321   2.004   9.564 -0.6586 -0.5118  0.0814
  346Sol     HW 4408   3.247   2.066   9.562 -2.2158 -2.3242 -0.3506
  346Sol     HW 4409   3.399   2.059   9.558 -1.9574  1.4837  0.9294
  346Sol     MW 4410   3.321   2.014   9.564 -0.0301  0.7161  1.1594
  347Sol     OW 4411   3.224   1.137   6.269 -0.3621  0.4416 -0.4402
  347Sol     HW 4412   3.207   1.221   6.311  0.2695  0.2728  0.1581
  347Sol     HW 4413   3.303   1.151   6.218  0.9981 -0.3873  1.3972
  347Sol     MW 4414   3.229   1.146   6.268  0.3104  0.6961 -0.2294
  348Sol     OW 4415   2.348   1.027   6.391 -0.1586 -0.2841  0.2764
  348Sol     HW 4416   2.307   0.954   6.439  0.3117 -0.2506  0.7251
  348Sol     HW 4417   2.275   1.087   6.373 -0.1858  0.1423  1.7418
  348Sol     MW 4418   2.338   1.026   6.394  0.0486  0.3568  0.3750
  349Sol     OW 4419   2.382   2.627   6.944 -0.6569 -0.3540 -0.3993
  349Sol     HW 4420   2.416   2.572   6.873  2.8692  1.9375 -0.6256
  349Sol     HW 4421   2.315   2.681   6.903 -1.7713 -2.1015 -0.9329
  349Sol     MW 4422   2.379   2.627   6.934  0.1234 -0.4080 -0.6699
  350Sol     OW 4423   0.160   0.601   2.428 -0.1425 -0.1386  0.0149
  350Sol     HW 4424   0.113   0.669   2.477  0.1768 -0.1890  0.3903
  350Sol     HW 4425   0.161   0.633   2.338 -0.5914  0.0309  0.0657
  350Sol     MW 4426   0.156   0.610   2.424 -0.0172  0.7600  0.2363
  351Sol     OW 4427   2.783   2.845   3.627  0.7184  0.2092 -0.7589
  351Sol     HW 4428   2.782   2.823   3.534  0.7764  0.5768 -0.8474
  351Sol     HW 4429   2.831   2.928   3.631  0.9528  0.0576 -0.3727
  351Sol     MW 4430   2.788   2.851   3.619 -0.4950  0.7812  0.0642
  352Sol     OW 4431   1.284   0.894   6.161  0.0510  0.3474 -0.2118
  352Sol     HW 4432   1.279   0.923   6.070 -0.6145 -0.2829 -0.3778
  352Sol     HW 4433   1.193   0.895   6.191 -0.1508 -2.6918 -0.5812
  352Sol     MW 4434   1.275   0.897   6.155  0.4310  0.1881  0.3870
  353Sol     OW 4435   2.404   0.467   1.687  0.7612 -0.5749  0.0858
  353Sol     HW 4436   2.359   0.419   1.757  0.3189 -0.7327 -0.3019
  353Sol     HW 4437   2.496   0.463   1.711  0.6917 -1.3018  0.2514
  353Sol     MW 4438   2.408   0.462   1.695 -0.5541 -0.4344  0.2152
  354Sol     OW 4439   1.514   1.330   9.061  0.3990  0.0970  0.3255
  354Sol     HW 4440   1.519   1.396   8.993  2.4924 -0.9178 -0.5265
  354Sol     HW 4441   1.574   1.360   9.129  2.5181 -1.6408 -0.7238
  354Sol     MW 4442   1.520   1.339   9.061 -0.7954 -0.3686  0.1755
  355Sol     OW 4443   2.415   2.654   4.247  0.2063 -0.0798 -0.3258
  355Sol     HW 4444   2.470   2.731   4.254  1.0498 -0.6992 -0.0305
  355Sol     HW 4445   2.388   2.650   4.156  1.0997 -0.0740 -0.5906
  355Sol     MW 4446   2.417   2.660   4.240 -1.1873  0.3474 -0.9074
  356Sol     OW 4447   2.803   1.943   5.452 -0.9605 -0.3018  0.7665
  356Sol     HW 4448   2.801   1.857   5.409 -0.2529  0.1865 -0.2566
  356Sol     HW 4449   2.896   1.959   5.469 -0.5905  2.1126 -2.8844
  356Sol     MW 4450   2.811   1.936   5.450  0.1941  0.2342 -0.9725
  357Sol     OW 4451   3.032   2.101   3.372  0.3653  0.7297  0.3634
  357Sol     HW 4452   3.099   2.067   3.432  0.4884 -0.6997 -0.5419
  357Sol     HW 4453   2.953   2.107   3.425  0.2091 -1.5422  0.4424
  357Sol     MW 4454   3.031   2.098   3.382  0.6949 -0.4403  0.2709
  358Sol     OW 4455   1.602   2.481   2.256  0.0014 -0.3367 -0.4792
  358Sol     HW 4456   1.520   2.503   2.213  0.5777  1.2160 -0.8132
  358Sol     HW 4457   1.659   2.557   2.241  1.6435 -1.5527 -0.6285
  358Sol     MW 4458   1.600   2.490   2.251 -0.0008  0.2717 -0.5730
  359Sol     OW 4459   2.056   0.433   3.733 -0.2755 -0.3634  0.7422
  359Sol     HW 4460   2.052   0.445   3.638  0.0055  1.1358  0.9083
  359Sol     HW 4461   2.005   0.354   3.749  1.7899 -2.0960 -0.9267
  359Sol     MW 4462   2.051   0.427   3.726  0.0617 -0.0697  0.0053
  360Sol     OW 4463   1.066   0.805   6.603 -0.2352  0.1251  0.2507
  360Sol     HW 4464   0.978   0.784   6.632  0.0017 -2.0903 -0.4881
  360Sol     HW 4465   1.111   0.720   6.601  1.4345  1.0073 -0.9148
  360Sol     MW 4466   1.063   0.795   6.605 -0.1585  0.3287  0.5528
  361Sol     OW 4467   1.739   1.768   7.907 -0.0376  0.5805  0.4898
  361Sol     HW 4468   1.656   1.779   7.954 -0.2155  0.3371  0.2368
  361Sol     HW 4469   1.723   1.694   7.848 -0.4482  2.0573 -1.3267
  361Sol     MW 4470   1.730   1.762   7.906 -0.6978 -0.3213  0.1011
  362Sol     OW 4471   0.602   3.415   7.527  0.4837  0.5872  0.1686
  362Sol     HW 4472   0.547   3.348   7.567  2.1912 -0.5777  0.6357
  362Sol     HW 4473   0.618   3.478   7.598  2.3402 -0.7349  0.9558
  362Sol     MW 4474   0.599   3.415   7.537  0.3574  0.0123  0.7564
  363Sol     OW 4475   2.073   3.212   2.004 -0.3368  0.5361  0.5136
  363Sol     HW 4476   2.089   3.140   1.943 -1.5367 -0.3827  1.2546
  363Sol     HW 4477   2.006   3.178   2.064  1.3120  1.1688  2.7786
  363Sol     MW 4478   2.068   3.203   2.004 -0.3603 -0.5370  0.3789
  364Sol     OW 4479   0.481   2.363   4.485  0.3366 -0.5129  0.5298
  364Sol     HW 4480   0.570   2.330   4.477  0.0027 -1.4980  0.7722
  364Sol     HW 4481   0.471   2.386   4.578  0.7163  0.7066  0.2711
  364Sol     MW 4482   0.488   2.362   4.493 -0.5322 -0.6359 -0.2569
  365Sol     OW 4483   0.869   3.065   8.320  0.3005  0.2691  0.0842
  365Sol     HW 4484   0.871   3.141   8.261  0.3165  1.1055  1.1495
  365Sol     HW 4485   0.878   3.103   8.408 -4.0762 -0.5988  0.9872
  365Sol     MW 4486   0.870   3.076   8.322  0.1935  0.0721  0.1671
  366Sol     OW 4487   0.219   0.492   8.427 -0.1385 -0.2911 -0.4068
  366Sol     HW 4488   0.159   0.534   8.488 -2.2220 -1.1697 -1.7832
  366Sol     HW 4489   0.259   0.564   8.379 -0.4978  0.2986  0.1719
  366Sol     MW 4490   0.217   0.502   8.428 -0.2592  0.0571  0.5412
  367Sol     OW 4491   2.110   1.745   8.462  0.3561  0.4244 -0.0172
  367Sol     HW 4492   2.180   1.681   8.460 -1.2553 -1.3824 -0.3719
  367Sol     HW 4493   2.073   1.738   8.550 -2.2538 -1.8981 -1.2267
  367Sol     MW 4494   2.113   1.739   8.470  0.0123 -0.1451  0.0925
  368Sol     OW 4495   0.702   2.735   7.686  0.0266  0.0859 -0.0451
  368Sol     HW 4496   0.770   2.792   7.650 -0.0957  0.5368  0.4258
  368Sol     HW 4497   0.647   2.794   7.738 -0.6032 -0.3093 -0.2556
  368Sol     MW 4498   0.703   2.746   7.687 -0.2593 -0.7840 -0.5822
  369Sol     OW 4499   2.402   0.994   4.657  0.6191  0.0609 -0.7267
  369Sol     HW 4500   2.433   1.036   4.577 -0.1886  0.1886 -0.9764
  369Sol     HW 4501   2.362   0.912   4.628 -2.5720  1.5875 -0.8352
  369Sol     MW 4502   2.401   0.990   4.647  0.1346 -1.2738  0.9580
  370Sol     OW 4503   2.018   0.871   6.308  0.3160 -0.3784  0.8163
  370Sol     HW 4504   2.069   0.908   6.381 -1.9739 -2.4405  3.5643
  370Sol     HW 4505   2.031   0.776   6.315 -1.3925 -0.7261 -0.3526
  370Sol     MW 4506   2.024   0.866   6.315 -0.1238 -0.5225  0.6499
  371Sol     OW 4507   0.567   3.018   4.746  0.4032  0.3207  0.1003
  371Sol     HW 4508   0.511   3.082   4.791 -0.0743  0.9213 -1.3177
  371Sol     HW 4509   0.645   3.012   4.801 -1.1556 -0.7303  2.2619
  371Sol     MW 4510   0.569   3.023   4.755 -0.1251  0.0045 -0.9865
  372Sol     OW 4511   2.390   1.219   3.588  0.1516  0.3233 -0.3741
  372Sol     HW 4512   2.480   1.223   3.619  0.0022  1.0306 -0.0328
  372Sol     HW 4513   2.379   1.129   3.559  0.9430  0.2112 -0.3412
  372Sol     MW 4514   2.397   1.211   3.588  0.0131 -0.6410 -0.0076
  373Sol     OW 4515   2.370   0.244   4.986  0.0398  0.4058 -0.1422
  373Sol     HW 4516   2.364   0.271   4.894 -0.3346 -1.3197 -0.6540
  373Sol     HW 4517   2.281   0.252   5.020  0.2425  1.3632  0.1693
  373Sol     MW 4518   2.362   0.247   4.981 -0.3856 -0.5938  0.2782
  374Sol     OW 4519   3.043   1.231   7.303  0.1899  1.1373  0.0060
  374Sol     HW 4520   3.108   1.233   7.232 -0.3536 -2.4567 -0.6878
  374Sol     HW 4521   3.095   1.225   7.383  0.7371  1.0335 -0.3563
  374Sol     MW 4522   3.054   1.231   7.304 -0.9782 -0.3458 -0.5899
  375Sol     OW 4523   0.791   2.883   3.592 -0.4446 -0.3143  0.0266
  375Sol     HW 4524   0.824   2.852   3.677 -1.6315 -1.5794  0.0476
  375Sol     HW 4525   0.866   2.878   3.534  0.5878  1.2938  1.1723
  375Sol     MW 4526   0.801   2.880   3.595 -0.0012  0.7003 -0.9624
  376Sol     OW 4527   0.238   1.728   1.621  0.3355  0.3091  0.2690
  376Sol     HW 4528   0.153   1.717   1.664 -0.5728  1.4552 -1.2039
  376Sol     HW 4529   0.231   1.678   1.540  0.1472  2.4270 -1.0651
  376Sol     MW 4530   0.230   1.722   1.618  0.8762 -0.7258 -0.2302
  377Sol     OW 4531   2.589   3.167   9.098 -0.0920 -0.0089 -0.2611
  377Sol     HW 4532   2.495   3.165   9.112  0.2328 -2.0560  1.9093
  377Sol     HW 4533   2.625   3.206   9.177  0.8787  1.0356 -1.1946
  377Sol     MW 4534   2.584   3.170   9.106 -0.3458 -0.9370  0.1193
  378Sol     OW 4535   2.460   2.903   1.493 -0.3773 -0.3228  0.1362
  378Sol     HW 4536   2.444   2.874   1.583  1.0100 -0.8402  0.2313
  378Sol     HW 4537   2.528   2.970   1.502 -1.2998  0.6977 -0.3889
  378Sol     MW 4538   2.465   2.907   1.502 -0.4728  0.4639 -0.1224
  379Sol     OW 4539   1.610   2.215   6.673 -0.0731  0.4375  0.0666
  379Sol     HW 4540   1.550   2.140   6.670 -0.3499  0.6905 -0.8604
  379Sol     HW 4541   1.693   2.177   6.702 -0.0180 -0.3598 -1.1114
  379Sol     MW 4542   1.612   2.205   6.676  0.0383  0.1446 -0.1562
  380Sol     OW 4543   0.034   0.790   9.877  0.1694  0.5826  0.0099
  380Sol     HW 4544  -0.042   0.732   9.878 -0.4914  1.4527 -0.2379
  380Sol     HW 4545   0.107   0.733   9.903 -0.6525 -0.1069  0.8300
  380Sol     MW 4546   0.034   0.779   9.879 -0.6497 -0.8222 -0.2875
  381Sol     OW 4547   1.112   3.350   6.561 -0.3047 -0.2606 -0.0360
  381Sol     HW 4548   1.159   3.311   6.635 -1.1428  1.3735  1.3931
  381Sol     HW 4549   1.169   3.421   6.532 -1.5602  1.3384  1.3124
  381Sol     MW 4550   1.121   3.353   6.565 -0.1953 -0.0237  0.0242
  382Sol     OW 4551   0.050   2.382   2.360  0.1038  0.4730 -0.1866
  382Sol     HW 4552   0.033   2.342   2.445  2.1501 -1.3338 -0.5899
  382Sol     HW 4553   0.080   2.471   2.381  0.2516  0.1600  0.9567
  382Sol     MW 4554   0.051   2.386   2.370 -0.0475  0.6720  0.0151
  383Sol     OW 4555   2.372   3.287   9.259  0.1587 -0.2813  0.4235
  383Sol     HW 4556   2.400   3.366   9.306  0.3856 -0.3062  0.3290
  383Sol     HW 4557   2.387   3.216   9.320  3.5193 -0.7145 -0.8420
  383Sol     MW 4558   2.375   3.288   9.268  0.9000  0.0927 -0.6462
  384Sol     OW 4559   3.142   1.559   7.513 -0.0439 -0.0760  0.2003
  384Sol     HW 4560   3.222   1.564   7.565 -0.9179 -2.5342  1.8242
  384Sol     HW 4561   3.086   1.629   7.548 -0.1700 -0.9660  1.8127
  384Sol     MW 4562   3.144   1.566   7.520 -0.1288  0.3604 -0.0163
  385Sol     OW 4563   1.945   0.106   4.049 -0.7276  0.3049 -0.0558
  385Sol     HW 4564   1.948   0.164   4.126 -2.2848 -1.4204  1.3545
  385Sol     HW 4565   1.855   0.075   4.046 -1.2841  2.0468 -3.9339
  385Sol     MW 4566   1.937   0.109   4.056 -0.7717  0.3468 -0.6157
  386Sol     OW 4567   0.851   0.189   3.955 -0.2194 -0.4766 -0.9430
  386Sol     HW 4568   0.855   0.132   4.032 -0.0036 -0.3745 -0.8786
  386Sol     HW 4569   0.761   0.221   3.954 -0.0772 -0.0423 -0.4167
  386Sol     MW 4570   0.843   0.187   3.962  0.1863  0.3154  0.0917
  387Sol     OW 4571   2.099   2.519   4.465  0.3452 -0.1797 -0.6116
  387Sol     HW 4572   2.072   2.604   4.501 -0.1504 -0.1075 -1.1425
  387Sol     HW 4573   2.195   2.524   4.461  0.3094  0.4203 -0.7926
  387Sol     MW 4574   2.105   2.527   4.468 -0.5813  0.8123 -0.1338
  388Sol     OW 4575   3.251   1.230   1.863 -0.2701 -0.3082 -0.1958
  388Sol     HW 4576   3.313   1.160   1.883 -1.2198 -1.1433 -0.1394
  388Sol     HW 4577   3.195   1.235   1.940  0.1473  0.9220  0.0446
  388Sol     MW 4578   3.252   1.224   1.872 -0.3051 -0.1992  0.5468
  389Sol     OW 4579   1.315   0.320   3.763  0.0146 -0.5247  0.3159
  389Sol     HW 4580   1.282   0.403   3.798 -0.4468 -0.3306 -0.5437
  389Sol     HW 4581   1.239   0.280   3.720  0.9038  0.0397 -1.8888
  389Sol     MW 4582   1.305   0.324   3.762  0.1746 -0.1699  0.1402
  390Sol     OW 4583   3.193   0.767   9.037  0.2820 -0.3637  0.3997
  390Sol     HW 4584   3.287   0.785   9.045  0.0550  0.3719  1.5122
  390Sol     HW 4585   3.179   0.688   9.090 -0.0043  0.4673  1.5759
  390Sol     MW 4586   3.201   0.761   9.042  1.2647 -0.6081 -1.2222
  391Sol     OW 4587   2.543   0.969   7.266 -0.0723 -0.0668  0.0694
  391Sol     HW 4588   2.604   0.907   7.226  0.3473  0.5027 -0.1901
  391Sol     HW 4589   2.596   1.047   7.282 -0.8525  0.6161 -0.6331
  391Sol     MW 4590   2.554   0.970   7.264  0.3085 -0.3688  0.5293
  392Sol     OW 4591   0.300   3.445   6.488 -0.2983 -0.0356  0.5547
  392Sol     HW 4592   0.356   3.522   6.482 -1.0152  0.3029 -2.8410
  392Sol     HW 4593   0.212   3.480   6.499 -0.5034 -0.3855  0.0407
  392Sol     MW 4594   0.297   3.455   6.488  0.9505 -0.1569  0.0100
  393Sol     OW 4595   0.925   1.884   6.860  0.2233 -0.2625  0.0074
  393Sol     HW 4596   1.009   1.836   6.861  0.1803 -0.3404 -0.0672
  393Sol     HW 4597   0.945   1.967   6.902  0.3629 -0.2427 -0.0953
  393Sol     MW 4598   0.935   1.887   6.864  0.1225 -0.0556  0.0858
  394Sol     OW 4599   2.894   2.337   3.160  0.2351  0.0021 -0.3776
  394Sol     HW 4600   2.826   2.395   3.194 -1.8827 -2.0877 -0.8962
  394Sol     HW 4601   2.896   2.264   3.222  0.5607 -0.9224 -1.4594
  394Sol     MW 4602   2.888   2.336   3.168 -0.9009  0.9997  0.5605
  395Sol     OW 4603   1.211   2.900   2.530 -0.0066  0.3193 -0.1209
  395Sol     HW 4604   1.248   2.857   2.452 -1.1583 -0.2016 -0.3876
  395Sol     HW 4605   1.167   2.978   2.495 -3.9273 -1.9386 -0.5558
  395Sol     MW 4606   1.211   2.903   2.520  0.5853  1.0618  0.7253
  396Sol     OW 4607   2.902   2.289   2.850 -0.3148 -0.1534 -0.1718
  396Sol     HW 4608   2.952   2.214   2.819  1.4434  0.9126 -0.0002
  396Sol     HW 4609   2.907   2.283   2.946  0.5751  0.6523 -0.1625
  396Sol     MW 4610   2.907   2.282   2.856  0.4074 -0.3575  0.4349
  397Sol     OW 4611   1.658   3.203   3.368 -0.0145 -0.4078 -0.6198
  397Sol     HW 4612   1.711   3.176   3.444 -0.9036 -0.1911  0.0847
  397Sol     HW 4613   1.588   3.256   3.406 -0.3125 -0.0806 -1.6318
  397Sol     MW 4614   1.657   3.205   3.379  0.1182 -0.3134 -0.1998
  398Sol     OW 4615   2.588   1.870   2.725 -0.3992  0.2784  0.4599
  398Sol     HW 4616   2.669   1.835   2.763 -0.2423  1.6841  1.4615
  398Sol     HW 4617   2.596   1.965   2.736 -0.9460  0.6356 -1.9137
  398Sol     MW 4618   2.596   1.875   2.729  0.6635 -0.4072 -0.5305
  399Sol     OW 4619   2.120   2.224   3.492  0.4156  0.3094  0.1625
  399Sol     HW 4620   2.167   2.173   3.426 -0.5871  0.4574 -0.6781
  399Sol     HW 4621   2.128   2.315   3.463 -0.5457  0.3196 -0.1047
  399Sol     MW 4622   2.125   2.227   3.484  0.3275 -0.0968 -0.5809
  400Sol     OW 4623   1.843   3.301   5.226 -0.6885 -0.5335  0.5312
  400Sol     HW 4624   1.810   3.214   5.251  0.5281 -1.7303 -1.8593
  400Sol     HW 4625   1.820   3.309   5.133  1.4628  0.6297  0.0787
  400Sol     MW 4626   1.838   3.294   5.220 -1.2906  0.1105 -0.0776
  401Sol     OW 4627   2.446   2.478   5.721 -0.1067 -0.2050 -0.0846
  401Sol     HW 4628   2.355   2.478   5.750  0.5936 -0.1686  2.1371
  401Sol     HW 4629   2.469   2.385   5.714  0.0558 -0.2163  0.5612
  401Sol     MW 4630   2.440   2.469   5.723  0.1052 -0.2127 -0.6308
  402Sol     OW 4631   2.416   3.432   7.622 -1.0176 -0.7244 -0.4529
  402Sol     HW 4632   2.332   3.392   7.597 -1.2653 -1.5400  1.6313
  402Sol     HW 4633   2.426   3.506   7.561 -3.6770 -0.0754 -0.1507
  402Sol     MW 4634   2.409   3.435   7.614  0.2771 -0.0078  0.6066
  403Sol     OW 4635   0.091   3.056   2.750  0.1444 -0.2307 -0.0800
  403Sol     HW 4636   0.167   3.112   2.731 -0.6203  0.3977 -1.4319
  403Sol     HW 4637   0.099   2.983   2.688  0.6215 -1.1254  1.0255
  403Sol     MW 4638   0.099   3.055   2.742 -0.0056  0.5595  0.0959
  404Sol     OW 4639   2.545   2.809   5.992  0.7568  0.2200 -0.7047
  404Sol     HW 4640   2.493   2.796   5.912  1.3939  0.5231 -1.1762
  404Sol     HW 4641   2.547   2.723   6.034 -1.7526  0.6272  0.3305
  404Sol     MW 4642   2.541   2.800   5.988 -0.9090  0.7421 -0.7446
  405Sol     OW 4643   0.733   0.802   8.698 -0.3438  0.2044  0.2295
  405Sol     HW 4644   0.736   0.778   8.790  1.5147 -1.2219 -0.1770
  405Sol     HW 4645   0.646   0.773   8.669 -0.1247 -1.3191  1.0230
  405Sol     MW 4646   0.725   0.797   8.703 -0.3961  0.0823  0.4331
  406Sol     OW 4647   3.161   3.063   7.339 -0.1513  0.0872 -0.1661
  406Sol     HW 4648   3.094   3.116   7.384 -0.3331 -0.4865  0.2462
  406Sol     HW 4649   3.133   3.061   7.248 -0.5391  0.0977 -0.0482
  406Sol     MW 4650   3.152   3.068   7.335  0.1907 -0.5988  0.1287
  407Sol     OW 4651   3.228   0.471   2.405  0.7771 -0.1140  0.2484
  407Sol     HW 4652   3.252   0.401   2.344  0.9516  0.0487  0.1320
  407Sol     HW 4653   3.311   0.514   2.426  0.5965  0.4300 -0.1339
  407Sol     MW 4654   3.238   0.468   2.401 -0.7410  0.8351  0.1315
  408Sol     OW 4655   0.944   2.830   9.760 -0.3072 -0.1355 -0.7543
  408Sol     HW 4656   0.887   2.900   9.726  0.8580  0.6599 -1.0965
  408Sol     HW 4657   0.885   2.774   9.811 -1.0125  1.8728  0.7017
  408Sol     MW 4658   0.934   2.832   9.762 -0.1131  0.1773 -0.3871
  409Sol     OW 4659   1.249   2.528   5.486 -0.0723  0.0874 -0.3423
  409Sol     HW 4660   1.157   2.543   5.510 -0.0955  0.9471 -0.9498
  409Sol     HW 4661   1.269   2.440   5.520 -1.4022 -0.5039 -1.0661
  409Sol     MW 4662   1.243   2.521   5.491  1.1275  0.4415  0.1696
  410Sol     OW 4663   0.541   1.414   8.814  0.5292 -0.0526 -0.4436
  410Sol     HW 4664   0.566   1.475   8.884  2.3980 -1.1840 -0.0979
  410Sol     HW 4665   0.565   1.328   8.847 -0.2557 -0.7940 -1.7470
  410Sol     MW 4666   0.546   1.412   8.823  0.5488 -0.7882 -0.1028
  411Sol     OW 4667   1.151   2.337   7.666 -0.0937  0.1082  0.0989
  411Sol     HW 4668   1.146   2.427   7.634 -0.0295  0.8878  2.2007
  411Sol     HW 4669   1.117   2.341   7.755  0.1058 -1.9206  0.2942
  411Sol     MW 4670   1.147   2.346   7.671  0.5517  0.3129 -0.0247
  412Sol     OW 4671   1.182   3.000   7.608 -0.0885 -0.5705  0.3203
  412Sol     HW 4672   1.244   2.960   7.546  0.7382 -0.2757  0.9411
  412Sol     HW 4673   1.172   3.089   7.576 -0.3192 -0.6640  0.1284
  412Sol     MW 4674   1.187   3.004   7.599  0.1149 -0.6882 -0.3130
  413Sol     OW 4675   1.964   1.296   8.183  0.3634  0.0658 -0.3277
  413Sol     HW 4676   1.956   1.355   8.258 -0.3980  0.0678 -0.3994
  413Sol     HW 4677   2.026   1.339   8.124  0.7192  0.2195  0.1548
  413Sol     MW 4678   1.968   1.305   8.184  0.9726  0.2726  0.2358
  414Sol     OW 4679   0.734   2.953   6.100 -0.4474 -0.5793  0.2102
  414Sol     HW 4680   0.815   2.960   6.151 -0.8450 -0.3963  0.8169
  414Sol     HW 4681   0.743   3.021   6.033  1.2240 -2.5037 -1.5907
  414Sol     MW 4682   0.742   2.960   6.099  0.4374 -0.5153  0.0195
  415Sol     OW 4683   1.855   0.769   7.272 -0.3481  0.0151  0.4600
  415Sol     HW 4684   1.896   0.851   7.243 -0.3564  0.0127  0.4418
  415Sol     HW 4685   1.923   0.703   7.260 -0.3206  0.0302  0.5343
  415Sol     MW 4686   1.865   0.771   7.268  0.3894  0.2294 -0.4111
  416Sol     OW 4687   0.577   0.614   1.465  0.2585 -0.1633  0.4750
  416Sol     HW 4688   0.555   0.669   1.540 -1.3678 -1.4482  0.9640
  416Sol     HW 4689   0.499   0.618   1.409  0.8935 -0.4031 -0.4328
  416Sol     MW 4690   0.568   0.619   1.466 -1.0869  0.3713 -0.4004
  417Sol     OW 4691   2.736   0.600   6.709  0.2274  0.3808  0.1272
  417Sol     HW 4692   2.658   0.547   6.693  0.6295 -1.0216  2.6218
  417Sol     HW 4693   2.710   0.688   6.683 -2.3969  0.0588  1.4335
  417Sol     MW 4694   2.726   0.603   6.705  0.6246  0.1495  0.3704
  418Sol     OW 4695   1.571   1.052   5.638  1.1334  0.2000 -0.0267
  418Sol     HW 4696   1.596   0.968   5.677  3.6806  1.8688  2.1290
  418Sol     HW 4697   1.561   1.111   5.712 -0.4105  1.8693 -1.5251
  418Sol     MW 4698   1.573   1.050   5.648  0.7866 -1.0285 -0.0156
  419Sol     OW 4699   0.733   0.134   7.050 -0.1665 -0.3174 -0.1309
  419Sol     HW 4700   0.730   0.091   7.135 -1.2351 -0.1200 -0.0670
  419Sol     HW 4701   0.787   0.076   6.996  0.3503 -0.5384  0.6175
  419Sol     MW 4702   0.738   0.125   7.052 -0.7245 -0.3271 -0.4127
  420Sol     OW 4703   2.463   0.514   2.997  0.2388  0.2061  0.0845
  420Sol     HW 4704   2.500   0.462   2.925  0.1507 -0.2729  0.3776
  420Sol     HW 4705   2.369   0.496   2.993  0.2354  0.1710  0.3244
  420Sol     MW 4706   2.458   0.507   2.990 -0.0626  0.5252 -0.3920
  421Sol     OW 4707   0.693   2.651   4.242  0.1767 -0.3216  0.4077
  421Sol     HW 4708   0.774   2.599   4.246 -0.0420 -0.6413  0.7614
  421Sol     HW 4709   0.623   2.586   4.246 -0.1117  0.0579  1.8904
  421Sol     MW 4710   0.694   2.640   4.243 -0.9715 -0.0615 -0.6056
  422Sol     OW 4711   1.934   2.974   1.568 -0.3559 -0.2622  0.6630
  422Sol     HW 4712   1.992   2.984   1.493 -2.7302  0.1842 -1.1651
  422Sol     HW 4713   1.988   3.001   1.643  1.6446  0.5802 -1.0087
  422Sol     MW 4714   1.944   2.978   1.568  0.1932 -0.1684 -0.2111
  423Sol     OW 4715   1.389   1.507   7.449 -0.3983  0.6215  0.3505
  423Sol     HW 4716   1.444   1.572   7.405  1.4873 -0.8172  0.4948
  423Sol     HW 4717   1.451   1.452   7.497 -1.9534 -1.2637  0.2670
  423Sol     MW 4718   1.400   1.508   7.450 -1.1167  0.7909 -0.1165
  424Sol     OW 4719   3.190   3.119   6.100 -0.5040 -0.1056  0.5387
  424Sol     HW 4720   3.179   3.024   6.104 -1.8198  0.0966  2.1675
  424Sol     HW 4721   3.109   3.151   6.062  0.4884  0.2749 -1.2909
  424Sol     MW 4722   3.182   3.113   6.097  0.1181  0.2104 -0.4045
  425Sol     OW 4723   0.744   0.473   3.768 -0.7753  0.4290  0.5591
  425Sol     HW 4724   0.704   0.480   3.855  0.3322 -1.0669  1.2033
  425Sol     HW 4725   0.691   0.407   3.723  0.8526 -1.5184  1.3952
  425Sol     MW 4726   0.735   0.468   3.772  0.1733  0.4220  0.6891
  426Sol     OW 4727   1.320   1.674   6.154  0.3184  0.0190 -0.6154
  426Sol     HW 4728   1.328   1.640   6.065 -1.4871  0.9479 -1.1706
  426Sol     HW 4729   1.347   1.602   6.210 -0.3376 -1.2292 -1.8674
  426Sol     MW 4730   1.323   1.665   6.151  0.4355 -0.2223 -0.2461
  427Sol     OW 4731   1.432   2.126   7.912  0.0810  0.3876  0.4697
  427Sol     HW 4732   1.490   2.157   7.982  0.2001 -0.1891  0.6281
  427Sol     HW 4733   1.421   2.202   7.855 -2.5306  1.8143  2.7802
  427Sol     MW 4734   1.436   2.136   7.913 -1.0860 -0.0084 -0.8544
  428Sol     OW 4735   3.069   0.702   2.374  0.3414  0.0681 -0.0822
  428Sol     HW 4736   3.098   0.612   2.358  0.3376  0.1506 -0.5649
  428Sol     HW 4737   2.983   0.692   2.414 -0.5691 -0.1253 -1.9899
  428Sol     MW 4738   3.064   0.693   2.376 -0.4616  0.5235 -0.1355
  429Sol     OW 4739   3.133   1.406   9.143 -0.1559  0.2033 -0.1176
  429Sol     HW 4740   3.171   1.341   9.201  0.4945 -2.1047 -2.9789
  429Sol     HW 4741   3.208   1.451   9.104 -0.5122  0.4983 -0.4756
  429Sol     MW 4742   3.143   1.404   9.144 -0.2106 -0.0172 -1.0714
  430Sol     OW 4743   2.876   0.012   5.978  0.0518 -0.2760  0.2979
  430Sol     HW 4744   2.854   0.057   6.060  0.7511  0.1063  0.2844
  430Sol     HW 4745   2.822   0.055   5.912  0.3954  0.2617  0.3586
  430Sol     MW 4746   2.869   0.020   5.979 -0.0232  0.5721  1.1761
  431Sol     OW 4747   0.065   3.163   7.038  0.0728  0.3968 -0.5882
  431Sol     HW 4748   0.143   3.205   7.074  1.0138 -0.4330 -1.6185
  431Sol     HW 4749   0.090   3.070   7.031 -1.4019 -0.0653  0.1350
  431Sol     MW 4750   0.075   3.158   7.041 -0.2608 -0.1880 -0.9861
  432Sol     OW 4751   1.333   3.151   1.349 -1.0039  0.2079  0.1161
  432Sol     HW 4752   1.406   3.165   1.409 -0.1639 -0.1991 -0.7992
  432Sol     HW 4753   1.317   3.237   1.310 -1.0008  0.2942  0.3054
  432Sol     MW 4754   1.338   3.160   1.351 -0.3590 -0.2080  0.0997
  433Sol     OW 4755   0.042   3.049   3.040  0.0014  0.3175 -0.3055
  433Sol     HW 4756  -0.002   3.056   2.955 -0.9188 -0.7354  0.0772
  433Sol     HW 4757   0.135   3.052   3.019 -0.1976  3.7237 -1.0449
  433Sol     MW 4758   0.046   3.050   3.030 -0.0978 -0.0478  0.5025
  434Sol     OW 4759   1.366   3.353   4.313 -0.0601 -0.1729 -0.0400
  434Sol     HW 4760   1.361   3.397   4.398 -0.8217  0.7832 -0.5679
  434Sol     HW 4761   1.454   3.372   4.281 -0.0559  0.1491  0.1628
  434Sol     MW 4762   1.373   3.359   4.318 -0.3246  1.1986  0.6030
  435Sol     OW 4763   1.206   0.966   4.889  0.5025  0.0473 -0.1353
  435Sol     HW 4764   1.167   1.051   4.908 -0.8579 -0.2293 -1.5641
  435Sol     HW 4765   1.194   0.955   4.795 -2.1677 -3.0882  0.4809
  435Sol     MW 4766   1.201   0.972   4.882  0.7210 -0.1404  0.5667
  436Sol     OW 4767   2.033   0.794   3.803 -0.1354  0.2419  0.3389
  436Sol     HW 4768   1.943   0.818   3.778 -0.9087 -2.2571  0.5527
  436Sol     HW 4769   2.047   0.709   3.760  2.7229  1.3372 -0.9971
  436Sol     MW 4770   2.026   0.788   3.797  0.0527 -0.3991  0.7801
  437Sol     OW 4771   2.497   0.374   7.867  0.8761 -0.4815  0.1610
  437Sol     HW 4772   2.458   0.299   7.822  1.5206 -0.9505  0.3816
  437Sol     HW 4773   2.434   0.395   7.937  0.5299 -0.5979 -0.1119
  437Sol     MW 4774   2.488   0.369   7.870 -0.5543 -0.4886  0.4817
  438Sol     OW 4775   1.722   0.103   7.954 -0.0295 -0.3556  0.0251
  438Sol     HW 4776   1.693   0.024   7.908  1.2349 -0.8885  0.1103
  438Sol     HW 4777   1.763   0.069   8.034 -1.1514  0.4975  0.9862
  438Sol     MW 4778   1.723   0.093   7.957 -0.7592 -0.6826  0.3197
  439Sol     OW 4779   0.563   2.425   3.756  0.4369 -0.0759  0.0280
  439Sol     HW 4780   0.471   2.399   3.753 -0.1985  1.6871  2.3859
  439Sol     HW 4781   0.589   2.434   3.664 -2.2458  1.0290 -0.6747
  439Sol     MW 4782   0.557   2.424   3.747 -0.4519 -0.8875 -0.8014
  440Sol     OW 4783   0.641   1.944   2.722 -0.5904 -0.2280  0.1364
  440Sol     HW 4784   0.697   1.873   2.690  0.5617  0.8003 -0.1852
  440Sol     HW 4785   0.561   1.936   2.671  0.0034 -0.5510 -0.7557
  440Sol     MW 4786   0.639   1.937   2.715 -0.1247  0.9065 -0.3582
  441Sol     OW 4787   1.759   3.005   5.944 -0.9363 -0.5529 -0.2165
  441Sol     HW 4788   1.783   3.051   5.864  0.8900 -2.2466 -0.6681
  441Sol     HW 4789   1.742   3.074   6.008  1.3306  0.7662 -1.0053
  441Sol     MW 4790   1.759   3.015   5.943  0.2854 -0.4323 -0.8103
  442Sol     OW 4791   1.165   1.050   6.543  0.5409 -0.1248  0.7218
  442Sol     HW 4792   1.214   1.091   6.615 -0.1235 -0.2493  1.2484
  442Sol     HW 4793   1.149   0.961   6.573  0.2415 -0.1725  0.4208
  442Sol     MW 4794   1.168   1.045   6.552  0.2671  0.3641  0.1497
  443Sol     OW 4795   0.532   0.605   6.417  0.3913 -0.3673  0.1086
  443Sol     HW 4796   0.558   0.674   6.478  2.0569 -0.2512 -0.6886
  443Sol     HW 4797   0.477   0.648   6.352  1.3985  0.2250 -0.3663
  443Sol     MW 4798   0.530   0.615   6.417  0.1154  0.5845 -0.3724
  444Sol     OW 4799   0.519   0.875   3.011  0.0227  0.6382 -0.3632
  444Sol     HW 4800   0.597   0.820   3.020  0.8409  1.7169 -0.7958
  444Sol     HW 4801   0.498   0.901   3.101  1.0024  1.5021 -0.3808
  444Sol     MW 4802   0.524   0.872   3.020  0.1075 -0.0972 -0.4185
  445Sol     OW 4803   1.699   2.821   1.596  0.0439 -0.6110  0.4707
  445Sol     HW 4804   1.723   2.753   1.659  0.0177 -0.6168  0.4744
  445Sol     HW 4805   1.776   2.879   1.593 -0.7710  0.6205  2.1701
  445Sol     MW 4806   1.708   2.820   1.602  0.8046  0.3187 -0.3893
  446Sol     OW 4807   1.920   1.066   8.030  0.7631 -0.1811 -0.0606
  446Sol     HW 4808   1.947   1.147   8.073  1.0222  0.1525 -0.8352
  446Sol     HW 4809   1.857   1.094   7.964  1.1799 -0.5620 -0.6197
  446Sol     MW 4810   1.917   1.076   8.028 -0.0695 -0.0511 -0.1489
  447Sol     OW 4811   0.944   1.607   1.874  0.2121 -0.3912  0.2615
  447Sol     HW 4812   0.970   1.584   1.785  1.1528  0.3607  0.3477
  447Sol     HW 4813   0.975   1.534   1.928  2.1465  0.4872  0.3650
  447Sol     MW 4814   0.949   1.598   1.871  0.0054 -0.3785  0.4221
  448Sol     OW 4815   2.677   1.141   3.047  0.3241 -0.3570  0.3045
  448Sol     HW 4816   2.583   1.158   3.039  0.5680  0.4631 -0.9115
  448Sol     HW 4817   2.684   1.046   3.055 -0.4597 -0.6214 -1.8648
  448Sol     MW 4818   2.669   1.134   3.047  0.8414 -0.0148 -0.2089
  449Sol     OW 4819   1.094   3.166   2.501 -0.1286 -0.1481  0.2262
  449Sol     HW 4820   1.117   3.254   2.531  0.0357  0.1557 -0.7766
  449Sol     HW 4821   1.100   3.171   2.405  0.2208 -1.3385  0.1821
  449Sol     MW 4822   1.097   3.174   2.495  0.2188 -0.8833  0.1619
  450Sol     OW 4823   3.279   3.004   7.951  0.0770  0.8088  0.5089
  450Sol     HW 4824   3.192   3.043   7.936  0.4177  1.3197 -0.1640
  450Sol     HW 4825   3.293   3.013   8.045 -1.0055 -0.1377  0.7769
  450Sol     MW 4826   3.272   3.009   7.958  0.0094 -0.1715 -0.3479
  451Sol     OW 4827   1.353   1.402   4.744  0.4335  0.6218  0.1136
  451Sol     HW 4828   1.395   1.423   4.661  0.6503 -0.5417 -0.0842
  451Sol     HW 4829   1.269   1.448   4.741  0.2953  0.3107 -0.8895
  451Sol     MW 4830   1.349   1.408   4.737  0.4368  0.6636  0.0246
  452Sol     OW 4831   0.956   1.375   6.008 -0.3006 -0.1193 -0.1324
  452Sol     HW 4832   1.003   1.457   6.025  0.3774 -0.5953  0.3347
  452Sol     HW 4833   0.868   1.391   6.041 -0.5462  0.8747 -1.2415
  452Sol     MW 4834   0.952   1.384   6.013  0.3283  0.1955  0.2445
  453Sol     OW 4835   2.813   2.678   6.023  0.2702 -0.4964 -0.0854
  453Sol     HW 4836   2.741   2.734   5.993 -0.1956 -0.1562  1.5512
  453Sol     HW 4837   2.789   2.591   5.993  0.2312 -0.0583 -1.3542
  453Sol     MW 4838   2.804   2.676   6.018  0.5577  0.3569  0.0038
  454Sol     OW 4839   2.009   1.531   3.758  0.2565  0.0681  0.1231
  454Sol     HW 4840   1.986   1.580   3.837  0.9325  0.8826 -0.1731
  454Sol     HW 4841   1.931   1.479   3.738  0.2099 -0.4097  1.5190
  454Sol     MW 4842   2.000   1.531   3.763  0.4018 -0.5134 -0.4016
  455Sol     OW 4843   1.127   1.234   7.609  0.6936 -0.6884 -0.7441
  455Sol     HW 4844   1.132   1.277   7.524 -0.1145  0.5734 -0.1750
  455Sol     HW 4845   1.188   1.282   7.664 -2.1162  1.4636  0.5947
  455Sol     MW 4846   1.133   1.242   7.606  0.0235  0.2741  0.3865
  456Sol     OW 4847   1.804   3.415   9.582  0.1956  0.0047  0.1896
  456Sol     HW 4848   1.883   3.447   9.539 -0.0297  0.3138  0.0087
  456Sol     HW 4849   1.754   3.373   9.511 -0.3319  0.8092  0.0873
  456Sol     MW 4850   1.807   3.414   9.571 -0.2506 -0.6186  0.0518
  457Sol     OW 4851   2.423   3.152   2.863 -0.0530 -0.0206 -0.3096
  457Sol     HW 4852   2.411   3.243   2.838  1.1402  0.3517  0.4282
  457Sol     HW 4853   2.387   3.102   2.789 -1.6332  1.0281 -0.2711
  457Sol     MW 4854   2.419   3.155   2.854  0.2810 -0.1311 -0.0821
  458Sol     OW 4855   2.627   2.757   5.669  0.3412 -0.4867  0.1143
  458Sol     HW 4856   2.576   2.797   5.599 -1.3703 -1.3021  0.8605
  458Sol     HW 4857   2.602   2.664   5.667  0.1800 -0.5032  1.8431
  458Sol     MW 4858   2.620   2.752   5.663  0.0873 -0.7511  0.3050
  459Sol     OW 4859   2.827   2.577   2.860 -0.0553  0.0656 -0.2871
  459Sol     HW 4860   2.844   2.487   2.830 -0.5684 -0.3668  0.6995
  459Sol     HW 4861   2.913   2.609   2.888 -0.0525 -0.4897  0.3484
  459Sol     MW 4862   2.837   2.571   2.859  0.7593 -0.3276 -0.1253
  460Sol     OW 4863   0.660   0.243   1.494  0.1716  0.0551 -0.0197
  460Sol     HW 4864   0.647   0.333   1.525  1.8282  0.5676 -0.7756
  460Sol     HW 4865   0.573   0.203   1.502  0.0893  0.7561  3.3545
  460Sol     MW 4866   0.651   0.248   1.497  0.4539  0.0803 -1.0582
  461Sol     OW 4867   2.855   2.210   2.239  0.6587  0.6912  0.0412
  461Sol     HW 4868   2.912   2.133   2.239 -1.9449 -1.3134  1.4342
  461Sol     HW 4869   2.827   2.219   2.148  0.1422 -0.6860  0.0483
  461Sol     MW 4870   2.858   2.204   2.231 -0.2194 -0.2517 -0.3551
  462Sol     OW 4871   1.342   2.285   5.600 -0.1241  0.0676  0.2511
  462Sol     HW 4872   1.399   2.336   5.657  0.3411  0.2970 -0.4136
  462Sol     HW 4873   1.334   2.200   5.643  0.0173  0.3267  0.7857
  462Sol     MW 4874   1.346   2.282   5.609 -0.7087 -0.5698  0.0816
  463Sol     OW 4875   1.588   1.405   1.530  0.1542  0.1221  0.0328
  463Sol     HW 4876   1.648   1.416   1.456  0.1272 -1.0780 -0.1700
  463Sol     HW 4877   1.645   1.412   1.607  0.1468  1.6141 -0.0761
  463Sol     MW 4878   1.599   1.407   1.530  0.1266  1.4010 -0.9315
  464Sol     OW 4879   1.940   1.059   7.209 -0.0374  0.0927 -0.4146
  464Sol     HW 4880   1.885   1.041   7.286  1.4129  0.2214  0.6550
  464Sol     HW 4881   1.913   1.147   7.181 -0.9682 -0.1805 -0.4086
  464Sol     MW 4882   1.932   1.065   7.213  0.6783  0.1772  0.3234
  465Sol     OW 4883   1.703   0.343   8.386 -0.6642 -0.7043  0.3650
  465Sol     HW 4884   1.694   0.430   8.349  1.4059 -0.8406 -0.5146
  465Sol     HW 4885   1.613   0.317   8.408 -1.5403  0.7992 -1.2736
  465Sol     MW 4886   1.694   0.348   8.385 -0.7004 -0.2039  0.7236
  466Sol     OW 4887   2.144   3.243   8.653  0.2210 -0.4006  0.0925
  466Sol     HW 4888   2.110   3.270   8.738 -0.7271 -0.0667 -0.3954
  466Sol     HW 4889   2.067   3.221   8.601  0.8451 -1.5801 -0.3557
  466Sol     MW 4890   2.134   3.243   8.656 -1.2835 -0.1162  0.0405
  467Sol     OW 4891   1.552   0.671   2.857 -0.3042 -0.1642 -0.2801
  467Sol     HW 4892   1.637   0.672   2.812 -0.1844 -0.4745 -0.0617
  467Sol     HW 4893   1.488   0.677   2.787 -0.1721 -2.6608 -0.6409
  467Sol     MW 4894   1.554   0.672   2.847  0.5604  0.3728 -0.4437
  468Sol     OW 4895   3.205   1.950   5.779  0.0589  0.4392 -0.1571
  468Sol     HW 4896   3.296   1.960   5.752 -0.1861  1.6851 -0.5367
  468Sol     HW 4897   3.209   1.887   5.851  1.4882  2.1352  1.2991
  468Sol     MW 4898   3.214   1.945   5.783  0.2081 -0.5548  0.3027
  469Sol     OW 4899   1.127   1.089   3.759 -0.2195 -0.8384  0.5023
  469Sol     HW 4900   1.101   1.059   3.846 -1.6293  0.5432  0.5954
  469Sol     HW 4901   1.108   1.183   3.760  0.0395 -0.7539 -1.1889
  469Sol     MW 4902   1.123   1.095   3.767 -0.1303  0.3729 -1.6152
  470Sol     OW 4903   3.021   1.392   4.637  0.5178 -0.3979  0.3514
  470Sol     HW 4904   2.962   1.317   4.632  1.4451 -1.0707 -0.7893
  470Sol     HW 4905   3.058   1.388   4.725  0.6285 -1.3495  0.2702
  470Sol     MW 4906   3.019   1.385   4.644 -0.4573  0.9667  0.2508
  471Sol     OW 4907   0.930   2.753   3.791 -0.4042 -0.5722 -0.3509
  471Sol     HW 4908   0.873   2.680   3.813 -1.7056 -0.7728 -4.0247
  471Sol     HW 4909   1.018   2.721   3.811 -1.1474 -2.3123  0.2385
  471Sol     MW 4910   0.933   2.743   3.794  0.1622  0.3150  0.7543
  472Sol     OW 4911   0.072   3.215   3.759  0.1618 -0.6261  0.0096
  472Sol     HW 4912   0.153   3.248   3.797 -0.2415 -0.8124  1.0508
  472Sol     HW 4913   0.078   3.239   3.667  1.0730  0.0044  0.2172
  472Sol     MW 4914   0.080   3.221   3.754 -0.3789 -0.6153 -0.0697
  473Sol     OW 4915   0.334   0.743   9.236 -0.3450 -0.4683  0.0058
  473Sol     HW 4916   0.279   0.748   9.158 -2.2949 -0.2606  1.3701
  473Sol     HW 4917   0.284   0.789   9.304  1.4625 -0.3658  1.3011
  473Sol     MW 4918   0.325   0.748   9.235  0.3413 -0.0252 -0.0294
  474Sol     OW 4919   1.765   1.500   7.788 -0.2201 -0.4498  0.3649
  474Sol     HW 4920   1.737   1.488   7.697  0.1203 -1.0645  0.3442
  474Sol     HW 4921   1.860   1.498   7.784 -0.2167 -1.3174  0.8542
  474Sol     MW 4922   1.771   1.499   7.779 -1.0382  0.4420  0.4776
  475Sol     OW 4923   2.965   1.468   7.828 -0.1179  0.1323 -0.2880
  475Sol     HW 4924   2.890   1.438   7.776 -0.3136  0.5700 -0.2599
  475Sol     HW 4925   2.943   1.558   7.852  0.5490  0.3587 -0.5244
  475Sol     MW 4926   2.956   1.473   7.826  0.2435 -0.2945 -0.7825
  476Sol     OW 4927   0.954   3.336   6.109  0.4296  0.1783  0.0244
  476Sol     HW 4928   1.016   3.406   6.088  0.0186  0.5598  0.0613
  476Sol     HW 4929   0.992   3.292   6.185  1.1243 -0.1950 -0.5363
  476Sol     MW 4930   0.963   3.338   6.114  0.4844  0.2971  0.9449
  477Sol     OW 4931   0.151   2.530   3.595 -0.5633  0.0814  0.1175
  477Sol     HW 4932   0.068   2.484   3.582 -0.7036  0.9188 -2.1106
  477Sol     HW 4933   0.201   2.472   3.653 -1.5666 -1.8829 -0.9185
  477Sol     MW 4934   0.148   2.520   3.599 -0.1444 -1.9050  0.2613
  478Sol     OW 4935   1.990   3.283   3.592 -0.3215  0.8674 -0.6306
  478Sol     HW 4936   2.021   3.203   3.551 -1.2732  0.0583  0.2191
  478Sol     HW 4937   1.931   3.254   3.661 -2.5705  2.3880 -1.8721
  478Sol     MW 4938   1.988   3.274   3.595 -0.7809 -0.5135  0.7830
  479Sol     OW 4939   0.493   2.696   7.466  0.4543  0.0796 -0.5143
  479Sol     HW 4940   0.561   2.724   7.527 -0.4080  0.4615  0.2917
  479Sol     HW 4941   0.531   2.709   7.379  1.4738  0.1039 -0.0614
  479Sol     MW 4942   0.502   2.700   7.464 -0.1122 -0.8127 -0.9119
  480Sol     OW 4943   0.851   0.235   8.775  0.0979  0.0746 -0.1712
  480Sol     HW 4944   0.782   0.292   8.808  0.9202  0.0390  1.6753
  480Sol     HW 4945   0.898   0.206   8.854  0.0349 -2.7320 -1.1143
  480Sol     MW 4946   0.849   0.237   8.785  0.5560  1.1753  0.8006
  481Sol     OW 4947   3.079   1.967   9.787  0.4250  0.1987 -0.4269
  481Sol     HW 4948   3.175   1.971   9.784  0.4623 -1.2459 -2.2509
  481Sol     HW 4949   3.060   1.875   9.805 -0.6119 -0.1253 -2.9506
  481Sol     MW 4950   3.086   1.959   9.788  0.1209 -0.1597 -0.7219
  482Sol     OW 4951   3.017   0.538   9.636  0.4803  0.0476  0.0426
  482Sol     HW 4952   2.955   0.606   9.611 -0.8898 -0.8229  1.0149
  482Sol     HW 4953   3.015   0.476   9.563  0.5253  0.2412 -0.1226
  482Sol     MW 4954   3.011   0.538   9.627  0.3628  0.3339  0.1189
  483Sol     OW 4955   2.814   1.299   5.382  0.2305 -0.2448 -0.2800
  483Sol     HW 4956   2.801   1.292   5.288 -0.6538 -1.8023 -0.0504
  483Sol     HW 4957   2.845   1.213   5.409 -1.8319 -0.5508  1.2170
  483Sol     MW 4958   2.816   1.291   5.376  0.6429  0.3181 -0.7483
  484Sol     OW 4959   1.626   0.465   1.653  0.0273 -0.3175 -0.0905
  484Sol     HW 4960   1.631   0.537   1.716  2.6966 -1.9375  1.6338
  484Sol     HW 4961   1.546   0.418   1.678 -0.2274  0.4373  0.5431
  484Sol     MW 4962   1.619   0.467   1.661 -0.8760 -0.1404 -0.6031
  485Sol     OW 4963   0.212   1.235   6.540 -0.1581 -0.0244  0.0562
  485Sol     HW 4964   0.278   1.264   6.603  0.9655 -0.6644 -0.8190
  485Sol     HW 4965   0.217   1.140   6.542 -2.2643 -0.1448  1.2383
  485Sol     MW 4966   0.218   1.229   6.546  0.1102 -0.0103 -0.4808
  486Sol     OW 4967   0.560   2.605   6.395  0.3953  0.2052 -0.2455
  486Sol     HW 4968   0.550   2.580   6.486  1.9660 -0.8883 -0.3577
  486Sol     HW 4969   0.496   2.551   6.348  0.8915 -0.6225  0.0087
  486Sol     MW 4970   0.554   2.598   6.399 -0.3118  0.2384 -0.3217
  487Sol     OW 4971   1.035   3.214   2.241  0.8237 -0.7153  0.2107
  487Sol     HW 4972   1.007   3.304   2.224 -2.1346 -1.5035  0.5174
  487Sol     HW 4973   1.105   3.197   2.178  1.6750  1.9055  0.4088
  487Sol     MW 4974   1.038   3.220   2.234  0.0737  0.3331  0.2325
  488Sol     OW 4975   1.051   1.993   6.063  0.3425 -0.3303  0.2864
  488Sol     HW 4976   1.000   2.009   6.142 -0.4746  1.4901 -0.5637
  488Sol     HW 4977   1.004   1.923   6.018 -0.3141 -0.0086  0.4607
  488Sol     MW 4978   1.042   1.988   6.066  0.4334 -0.9714 -0.1278
  489Sol     OW 4979   0.760   1.923   4.296  0.3668 -0.1323 -0.3841
  489Sol     HW 4980   0.840   1.951   4.253 -0.2902  1.2782 -0.6973
  489Sol     HW 4981   0.690   1.950   4.238 -0.4095 -0.3042  0.4572
  489Sol     MW 4982   0.761   1.928   4.287 -0.7500 -0.3184 -0.3454
  490Sol     OW 4983   1.374   3.349   4.824  0.2073 -0.1572 -0.5322
  490Sol     HW 4984   1.284   3.380   4.824  0.5260  0.7670 -1.3780
  490Sol     HW 4985   1.408   3.373   4.738 -0.3510 -5.1831 -2.3750
  490Sol     MW 4986   1.369   3.354   4.816  0.3004  0.3331  0.8881
  491Sol     OW 4987   0.113   2.562   1.971  0.4952 -0.0976  0.8719
  491Sol     HW 4988   0.054   2.489   1.987  2.1712 -1.3543  1.4968
  491Sol     HW 4989   0.193   2.521   1.939  1.0105  1.5705 -0.0283
  491Sol     MW 4990   0.115   2.551   1.970 -0.1425 -0.3184 -0.0429
  492Sol     OW 4991   0.871   2.232   3.225 -0.1753  0.1526 -0.0317
  492Sol     HW 4992   0.954   2.190   3.202 -0.4685 -0.2713 -0.3199
  492Sol     HW 4993   0.807   2.161   3.228 -0.7871  0.6440 -1.0513
  492Sol     MW 4994   0.872   2.222   3.223 -1.0456  0.2556  0.6036
  493Sol     OW 4995   0.241   1.682   1.937 -0.1622  0.2266 -0.2590
  493Sol     HW 4996   0.331   1.660   1.912 -0.4463 -2.4175  0.8491
  493Sol     HW 4997   0.188   1.609   1.905 -2.2600  2.7431 -2.7338
  493Sol     MW 4998   0.244   1.673   1.932  0.0855 -0.0394  0.8918
  494Sol     OW 4999   1.854   0.937   9.592  0.4616  0.0007  0.2457
  494Sol     HW 5000   1.947   0.918   9.604  0.3441 -1.6419 -1.3162
  494Sol     HW 5001   1.834   1.001   9.660  2.7328  0.3719  0.6067
  494Sol     MW 5002   1.861   0.941   9.599 -0.2206  0.3928 -0.6005
  495Sol     OW 5003   2.778   0.164   5.060  0.0732  0.0857  0.0080
  495Sol     HW 5004   2.865   0.193   5.087 -0.1762  1.6503 -0.7962
  495Sol     HW 5005   2.740   0.126   5.140  1.9941 -1.9431 -0.0009
  495Sol     MW 5006   2.782   0.163   5.070 -0.7029  0.2530 -0.4441
  496Sol     OW 5007   3.321   0.905   6.385  0.1181 -0.0066  0.3798
  496Sol     HW 5008   3.287   0.879   6.470 -0.5743  2.6066  0.9568
  496Sol     HW 5009   3.271   0.984   6.362 -0.3990 -1.2276 -2.9171
  496Sol     MW 5010   3.314   0.910   6.390  0.5289 -0.2590 -0.4406
  497Sol     OW 5011   1.461   1.022   6.649 -0.2586  0.1825 -0.0711
  497Sol     HW 5012   1.451   0.928   6.636 -0.2918  0.4829 -2.4394
  497Sol     HW 5013   1.549   1.042   6.617 -0.3104  0.9803  0.2703
  497Sol     MW 5014   1.468   1.015   6.645 -0.0932  0.4283  0.1950
  498Sol     OW 5015   1.494   0.109   7.722  0.0223 -0.0735 -0.2682
  498Sol     HW 5016   1.546   0.063   7.788 -0.0336 -0.4199 -0.4671
  498Sol     HW 5017   1.409   0.063   7.722  0.0141 -0.0586 -0.5625
  498Sol     MW 5018   1.491   0.101   7.728  0.3960 -0.6400 -0.0310
  499Sol     OW 5019   2.817   2.215   4.241 -0.0587  0.1066 -0.4389
  499Sol     HW 5020   2.832   2.172   4.325 -1.2448 -0.5802 -0.5646
  499Sol     HW 5021   2.796   2.306   4.263  0.8038  0.2120 -0.0647
  499Sol     MW 5022   2.816   2.219   4.250 -0.1682  0.3958  0.1926
  500Sol     OW 5023   3.000   1.131   6.720  0.0779 -0.3430 -0.1109
  500Sol     HW 5024   2.941   1.117   6.794  1.0640  1.6873  1.0962
  500Sol     HW 5025   3.087   1.134   6.759  0.7096 -0.4005 -1.5065
  500Sol     MW 5026   3.002   1.130   6.730  0.9174 -0.2098 -0.7454
  501Sol     OW 5027   1.088   1.185   4.327  0.2218 -0.4441 -0.7258
  501Sol     HW 5028   1.082   1.279   4.314  3.1729 -0.2818 -1.1511
  501Sol     HW 5029   1.017   1.149   4.273 -0.9986  1.5067 -0.4631
  501Sol     MW 5030   1.081   1.190   4.321  0.0718  0.4465 -0.3099
  502Sol     OW 5031   3.275   3.375   5.421  0.1391  0.5097  0.1606
  502Sol     HW 5032   3.341   3.440   5.394 -0.7501  0.6615 -1.7820
  502Sol     HW 5033   3.304   3.294   5.380  0.5970 -0.0686  1.6017
  502Sol     MW 5034   3.284   3.374   5.415  0.1775 -0.8183  0.8012
  503Sol     OW 5035   2.415   0.646   4.837  0.2666 -0.1859  0.2688
  503Sol     HW 5036   2.476   0.668   4.907 -0.3733  0.7025  0.5564
  503Sol     HW 5037   2.444   0.560   4.805 -0.0621 -1.0723  2.3037
  503Sol     MW 5038   2.423   0.640   4.840 -0.0857 -0.3433  0.0452
  504Sol     OW 5039   1.942   1.325   2.600 -0.5661 -0.3797 -0.5442
  504Sol     HW 5040   1.860   1.326   2.550 -1.5793  1.5233  1.1065
  504Sol     HW 5041   1.989   1.402   2.570 -0.2398 -0.3959 -0.0711
  504Sol     MW 5042   1.939   1.332   2.593 -0.4992 -1.0663  0.5476
  505Sol     OW 5043   0.681   2.863   1.571  0.1259  0.0617  0.1225
  505Sol     HW 5044   0.666   2.850   1.664 -0.9786 -0.8176 -0.1708
  505Sol     HW 5045   0.767   2.905   1.566  1.0728 -1.6449  1.4504
  505Sol     MW 5046   0.688   2.865   1.579  0.1467  0.9425 -0.0404
  506Sol     OW 5047   1.794   1.047   7.448 -0.0667 -0.2328  0.3982
  506Sol     HW 5048   1.702   1.058   7.472 -0.1215  0.9400 -0.3325
  506Sol     HW 5049   1.842   1.105   7.507  0.0069  0.8093 -0.6658
  506Sol     MW 5050   1.790   1.053   7.456  0.3983  0.5308 -0.0107
  507Sol     OW 5051   1.310   1.974   9.324  0.1856  0.3370 -0.3124
  507Sol     HW 5052   1.287   2.063   9.298  0.8973  1.2364  2.0705
  507Sol     HW 5053   1.358   1.984   9.406  1.1286 -2.1770 -0.5154
  507Sol     MW 5054   1.312   1.983   9.329  0.3257  0.3719  0.5582
  508Sol     OW 5055   3.067   0.856   4.597  0.3783  0.4245 -0.1741
  508Sol     HW 5056   3.010   0.919   4.640 -0.2850 -0.2335 -0.0925
  508Sol     HW 5057   3.149   0.904   4.583 -0.9054  2.0800 -2.2784
  508Sol     MW 5058   3.069   0.866   4.600 -0.3378  0.3704 -0.8021
  509Sol     OW 5059   1.359   3.046   9.908 -0.6326 -0.4061 -0.0346
  509Sol     HW 5060   1.380   3.001   9.826 -2.0810  2.6702 -2.1695
  509Sol     HW 5061   1.269   3.020   9.927 -0.8655  0.2084 -0.3089
  509Sol     MW 5062   1.353   3.039   9.903 -0.6027 -0.6738 -0.5024
  510Sol     OW 5063   0.983   1.752   5.402 -0.1039 -0.3604  0.0341
  510Sol     HW 5064   0.920   1.715   5.340 -0.3374  0.3975 -0.1898
  510Sol     HW 5065   1.049   1.794   5.347  1.9992 -3.3255  0.1862
  510Sol     MW 5066   0.983   1.752   5.391 -0.3399  0.3996  0.2524
  511Sol     OW 5067   3.248   0.668   5.006 -0.4337 -0.4447  0.6712
  511Sol     HW 5068   3.154   0.680   4.996 -0.4712 -0.1735  1.3215
  511Sol     HW 5069   3.283   0.756   5.019 -0.0215 -0.4894 -0.0610
  511Sol     MW 5070   3.243   0.677   5.006  0.2101 -0.6825  0.0883
  512Sol     OW 5071   1.345   2.983   3.535 -0.3272 -0.7720  0.0240
  512Sol     HW 5072   1.328   2.949   3.447 -1.3686 -1.0549  0.3363
  512Sol     HW 5073   1.355   3.078   3.521 -1.2885 -0.7126 -0.2831
  512Sol     MW 5074   1.345   2.989   3.526 -0.3799 -0.6150 -0.0391
  513Sol     OW 5075   0.802   2.374   1.591 -0.0246 -0.0094  0.2860
  513Sol     HW 5076   0.890   2.411   1.595 -0.4583  1.3234 -1.6736
  513Sol     HW 5077   0.752   2.436   1.538 -1.6966 -1.6085 -0.0731
  513Sol     MW 5078   0.806   2.383   1.586 -0.9303 -0.1827 -0.3837
  514Sol     OW 5079   1.552   1.133   7.562 -0.1858  0.3147 -0.6038
  514Sol     HW 5080   1.481   1.093   7.511  0.8853  0.8072 -2.5475
  514Sol     HW 5081   1.555   1.082   7.643 -0.9348 -1.5023 -1.6774
  514Sol     MW 5082   1.546   1.125   7.565 -0.3099 -0.5201  0.7451
  515Sol     OW 5083   0.447   2.379   2.208  0.1253 -0.2857  0.3325
  515Sol     HW 5084   0.476   2.378   2.299  0.5982  0.3089  0.1860
  515Sol     HW 5085   0.402   2.463   2.198  0.7510 -0.0168 -0.2011
  515Sol     MW 5086   0.445   2.386   2.215  0.1629 -2.0716 -0.0381
  516Sol     OW 5087   1.414   2.639   1.776 -0.4055 -0.2365  0.2422
  516Sol     HW 5088   1.343   2.644   1.840  0.6240  0.2749  1.3688
  516Sol     HW 5089   1.380   2.584   1.706 -2.2003  0.6721  0.3927
  516Sol     MW 5090   1.405   2.634   1.776  0.5449 -0.3152 -0.1081
  517Sol     OW 5091   1.731   2.379   1.536  0.1577 -0.1906 -0.2691
  517Sol     HW 5092   1.761   2.292   1.562 -0.7061  0.0272  1.5715
  517Sol     HW 5093   1.800   2.438   1.567 -0.1585 -0.0599  0.1930
  517Sol     MW 5094   1.740   2.376   1.541  0.1996  0.7128  0.6956
  518Sol     OW 5095   0.453   2.699   9.918 -0.4926 -0.1974 -0.1734
  518Sol     HW 5096   0.474   2.608   9.899 -1.7735 -0.4560 -0.3805
  518Sol     HW 5097   0.368   2.714   9.877 -1.1101  0.5903  1.3498
  518Sol     MW 5098   0.448   2.692   9.912  1.0279 -0.2592  0.7373
  519Sol     OW 5099   1.569   2.314   5.414  0.4466  0.1073 -0.0204
  519Sol     HW 5100   1.621   2.236   5.430  1.8378  0.8832 -0.6828
  519Sol     HW 5101   1.494   2.306   5.474 -0.0804 -2.3105 -0.9388
  519Sol     MW 5102   1.567   2.306   5.420  0.0629  0.2238  0.0236
  520Sol     OW 5103   0.705   2.797   2.217 -0.0000 -0.1360 -0.0600
  520Sol     HW 5104   0.618   2.836   2.208  0.2960  1.0965  2.1511
  520Sol     HW 5105   0.766   2.870   2.199  0.5570 -0.3520  0.9111
  520Sol     MW 5106   0.703   2.807   2.214  0.1187  0.1336  0.2747
  521Sol     OW 5107   0.164   0.412   1.577  0.3391 -0.4415 -0.0394
  521Sol     HW 5108   0.217   0.341   1.541  0.3842 -0.1579 -0.5311
  521Sol     HW 5109   0.076   0.375   1.584  0.2743 -0.4094 -0.6929
  521Sol     MW 5110   0.161   0.402   1.575  0.1274 -0.3403 -0.3740
  522Sol     OW 5111   3.087   1.924   9.041  0.5405  0.0582  0.1545
  522Sol     HW 5112   3.029   1.982   8.991 -0.6402 -0.6587  0.6784
  522Sol     HW 5113   3.042   1.911   9.124 -0.0578 -2.9616 -0.5967
  522Sol     MW 5114   3.078   1.928   9.044  0.3168 -0.0275 -0.0346
  523Sol     OW 5115   0.591   0.489   2.412  0.5157  0.7102 -0.2853
  523Sol     HW 5116   0.635   0.413   2.451 -0.3032 -1.0427 -2.6094
  523Sol     HW 5117   0.629   0.564   2.457  2.0647 -1.0183  1.4281
  523Sol     MW 5118   0.599   0.489   2.419  0.0353  0.1452  0.1054
  524Sol     OW 5119   0.985   2.201   4.917 -0.1000  0.3915  0.4349
  524Sol     HW 5120   0.958   2.123   4.869 -1.3646 -0.0457  1.8361
  524Sol     HW 5121   1.020   2.259   4.849 -0.0436 -0.9862 -0.7493
  524Sol     MW 5122   0.986   2.199   4.906  0.0038  0.4687 -0.1764
  525Sol     OW 5123   2.799   3.044   9.563 -0.0120  0.3282 -0.1781
  525Sol     HW 5124   2.793   3.139   9.576 -1.5994  0.4186 -1.5084
  525Sol     HW 5125   2.814   3.034   9.469 -1.0368 -0.7870 -0.2242
  525Sol     MW 5126   2.800   3.052   9.556 -0.7658 -0.6090 -0.5561
  526Sol     OW 5127   0.890   1.468   2.759  0.2032  0.1404 -0.1224
  526Sol     HW 5128   0.859   1.378   2.756 -0.0272  0.2053  0.2389
  526Sol     HW 5129   0.983   1.461   2.780 -0.5760  0.0833  3.7713
  526Sol     MW 5130   0.895   1.459   2.761 -0.2754 -0.1084  0.0458
  527Sol     OW 5131   3.164   2.770   4.325  0.4834 -0.4305 -0.4578
  527Sol     HW 5132   3.246   2.745   4.368  0.0227  0.2322  0.8195
  527Sol     HW 5133   3.096   2.721   4.371  0.1216 -0.7656 -1.3348
  527Sol     MW 5134   3.165   2.764   4.333 -0.0256  0.2218  0.0372
  528Sol     OW 5135   0.119   3.448   7.762 -0.1275  0.2194 -0.1196
  528Sol     HW 5136   0.122   3.395   7.842  1.3595  0.1761 -0.1776
  528Sol     HW 5137   0.124   3.384   7.691 -0.0835  0.3279 -0.2151
  528Sol     MW 5138   0.120   3.437   7.763 -0.2809 -0.1397  0.3759
  529Sol     OW 5139   1.529   1.139   2.450 -0.0195  0.2024  0.0305
  529Sol     HW 5140   1.460   1.135   2.385 -0.2818 -1.2951  0.3622
  529Sol     HW 5141   1.582   1.061   2.433 -0.1364 -0.2580  1.6341
  529Sol     MW 5142   1.528   1.131   2.443 -0.2066 -0.7066 -0.2909
  530Sol     OW 5143   1.526   3.432   5.045 -1.0815 -0.2220 -0.1045
  530Sol     HW 5144   1.478   3.385   4.977 -0.5901 -0.4235 -0.3212
  530Sol     HW 5145   1.517   3.379   5.123 -1.9371  0.1855  0.0720
  530Sol     MW 5146   1.521   3.423   5.046  0.3502 -0.9548 -0.7500
  531Sol     OW 5147   1.998   0.549   3.180 -0.1280 -0.2137  0.2583
  531Sol     HW 5148   1.929   0.616   3.188 -0.5063 -0.7504  1.8376
  531Sol     HW 5149   2.038   0.546   3.267  2.2262  0.4152 -0.7757
  531Sol     MW 5150   1.995   0.554   3.189  0.3414  0.5982  0.1208
  532Sol     OW 5151   3.248   0.871   6.642  0.1207 -0.2526  0.2695
  532Sol     HW 5152   3.239   0.779   6.666  0.6707 -0.9719 -2.1777
  532Sol     HW 5153   3.159   0.901   6.627 -0.0728 -0.3285  1.2502
  532Sol     MW 5154   3.240   0.865   6.643 -0.0835  0.3038 -0.6644
  533Sol     OW 5155   1.833   2.072   9.811  0.3329 -0.5834 -0.0647
  533Sol     HW 5156   1.853   2.079   9.718 -2.9173  0.5630 -0.7468
  533Sol     HW 5157   1.810   1.980   9.824 -0.2525 -0.5196 -0.6317
  533Sol     MW 5158   1.833   2.064   9.804  0.5042  0.5387  1.4301
  534Sol     OW 5159   2.966   2.846   7.382  0.1676  0.1715  0.2817
  534Sol     HW 5160   3.021   2.773   7.411 -0.1535  0.3223  1.3085
  534Sol     HW 5161   3.028   2.911   7.350  0.4494 -0.5705 -0.6956
  534Sol     MW 5162   2.977   2.846   7.382 -0.0114  0.0693  0.0725
  535Sol     OW 5163   1.412   2.256   4.756 -0.1874 -0.0131  0.0441
  535Sol     HW 5164   1.429   2.170   4.796 -1.0782 -0.0186  0.4367
  535Sol     HW 5165   1.462   2.317   4.810  1.2521 -0.3837 -0.8379
  535Sol     MW 5166   1.418   2.254   4.765  0.2921  0.3387 -0.2558
  536Sol     OW 5167   2.088   1.010   5.157  0.0414 -0.0137 -0.2131
  536Sol     HW 5168   2.088   0.951   5.232  0.3167  0.4500  0.1586
  536Sol     HW 5169   2.094   0.953   5.081  3.1862 -0.3866  0.2447
  536Sol     MW 5170   2.089   1.000   5.157 -0.2554 -0.5419 -0.0456
  537Sol     OW 5171   0.882   3.277   1.868  0.7447  0.4833  0.4929
  537Sol     HW 5172   0.868   3.372   1.862  0.7620  0.3929 -1.0886
  537Sol     HW 5173   0.974   3.265   1.846  0.6431  0.0574  0.3081
  537Sol     MW 5174   0.889   3.285   1.866 -0.0882  0.9774  0.6454
  538Sol     OW 5175   3.004   2.388   4.530 -0.1144 -0.2340  0.2289
  538Sol     HW 5176   2.953   2.400   4.450 -2.1287 -0.2791  1.4671
  538Sol     HW 5177   3.036   2.298   4.525  1.4245  0.3748 -1.4223
  538Sol     MW 5178   3.002   2.381   4.523  0.1902  0.4179 -1.1272
  539Sol     OW 5179   1.737   2.609   3.148  0.5216 -0.0518 -0.2765
  539Sol     HW 5180   1.684   2.590   3.071 -1.2328  3.4292 -0.0213
  539Sol     HW 5181   1.826   2.587   3.121 -0.0909  0.8304 -3.2345
  539Sol     MW 5182   1.740   2.605   3.139  1.2159 -0.6770 -0.7775
  540Sol     OW 5183   0.013   0.173   2.402 -0.1820 -0.1696  0.1424
  540Sol     HW 5184   0.038   0.083   2.420 -0.7982 -0.0944  1.4401
  540Sol     HW 5185   0.023   0.218   2.486  1.9651  1.4255 -0.9099
  540Sol     MW 5186   0.016   0.169   2.411  0.8112  0.7411 -0.3026
  541Sol     OW 5187   1.783   3.135   5.696 -0.4899  0.0409 -0.5776
  541Sol     HW 5188   1.808   3.101   5.610 -1.5282 -1.2316 -0.3812
  541Sol     HW 5189   1.785   3.230   5.685 -0.5184 -0.1074 -1.9836
  541Sol     MW 5190   1.786   3.141   5.687 -0.6486  0.0086 -0.8295
  542Sol     OW 5191   0.479   1.566   6.452 -0.0987 -0.4718 -0.0400
  542Sol     HW 5192   0.551   1.503   6.455  0.6629  0.3075 -1.6305
  542Sol     HW 5193   0.413   1.525   6.395 -0.4497 -0.6888  0.5144
  542Sol     MW 5194   0.479   1.557   6.447  0.9158 -0.0018  0.0136
  543Sol     OW 5195   2.482   2.581   8.857  0.6089 -0.2683  0.3064
  543Sol     HW 5196   2.539   2.657   8.845  0.7200 -0.2752  0.7672
  543Sol     HW 5197   2.525   2.511   8.807 -0.8306  0.6088 -2.2275
  543Sol     MW 5198   2.491   2.582   8.851 -0.0370  0.1265  0.6521
  544Sol     OW 5199   3.289   2.631   6.726 -0.4966 -0.2460  0.1261
  544Sol     HW 5200   3.285   2.682   6.645 -0.9748 -0.4536  0.0168
  544Sol     HW 5201   3.199   2.628   6.757 -0.1925  0.5617  1.1249
  544Sol     MW 5202   3.281   2.636   6.722  0.7162  0.1599 -0.0252
  545Sol     OW 5203   3.171   0.211   8.868 -0.1820  0.3721 -0.1748
  545Sol     HW 5204   3.133   0.134   8.826  0.2143 -0.5182  1.0641
  545Sol     HW 5205   3.263   0.208   8.844 -0.2577  0.7273 -0.5144
  545Sol     MW 5206   3.176   0.204   8.862 -0.6519 -0.4539 -0.0383
  546Sol     OW 5207   0.014   2.967   7.537  0.0229  0.3006  0.2307
  546Sol     HW 5208  -0.062   2.986   7.483 -1.4447 -0.1368  2.0756
  546Sol     HW 5209   0.067   2.908   7.484 -1.5375 -0.3817 -0.6098
  546Sol     MW 5210   0.012   2.964   7.528  0.3823  0.2739  0.3326
  547Sol     OW 5211   0.750   2.636   2.821  0.4256  0.1562 -0.6868
  547Sol     HW 5212   0.818   2.690   2.780 -1.1079  0.7282 -2.5548
  547Sol     HW 5213   0.792   2.551   2.835  1.5900  0.5524 -1.6295
  547Sol     MW 5214   0.760   2.634   2.819  0.4643  0.0818  0.1211
  548Sol     OW 5215   3.283   1.714   6.550  0.3396  0.4158 -0.4307
  548Sol     HW 5216   3.321   1.668   6.475 -0.9035  0.5858 -1.1808
  548Sol     HW 5217   3.349   1.780   6.573  1.4501 -0.7069 -0.3311
  548Sol     MW 5218   3.292   1.716   6.545  0.4635  0.3914 -0.1965
  549Sol     OW 5219   0.780   1.925   8.252  0.2325 -0.0799  0.2258
  549Sol     HW 5220   0.785   1.869   8.329  0.8590 -0.6546 -0.2179
  549Sol     HW 5221   0.857   1.901   8.200 -0.0921  0.4125 -0.4957
  549Sol     MW 5222   0.788   1.917   8.254  0.7466  0.4552 -0.2812
  550Sol     OW 5223   1.270   0.686   5.825 -0.5243 -0.2373  0.5431
  550Sol     HW 5224   1.316   0.768   5.845  0.1191  0.3780 -3.1644
  550Sol     HW 5225   1.325   0.617   5.863  0.7945  0.8157  0.5704
  550Sol     MW 5226   1.279   0.687   5.830 -0.3960 -0.6455  0.4695
  551Sol     OW 5227   0.361   3.361   1.820  0.4109 -0.4516  0.4490
  551Sol     HW 5228   0.309   3.441   1.808 -0.0660 -0.6026  1.4934
  551Sol     HW 5229   0.415   3.356   1.741 -0.1873  0.4334 -0.0246
  551Sol     MW 5230   0.361   3.368   1.812 -0.2586 -0.1187 -0.0318
  552Sol     OW 5231   0.463   3.140   8.139  0.2850  0.5708 -0.2912
  552Sol     HW 5232   0.476   3.122   8.045 -2.3208 -0.0102 -0.5809
  552Sol     HW 5233   0.518   3.075   8.183 -0.7714 -1.1456 -1.4251
  552Sol     MW 5234   0.469   3.133   8.134  1.3120  0.5089 -0.6643
  553Sol     OW 5235   3.130   1.901   5.225 -0.1188  0.3498  0.3059
  553Sol     HW 5236   3.134   1.866   5.136  3.7514 -1.2428  0.9821
  553Sol     HW 5237   3.127   1.996   5.214 -1.8396  0.1013 -1.5123
  553Sol     MW 5238   3.130   1.907   5.216  0.6331 -0.3991  0.0449
  554Sol     OW 5239   3.270   1.303   7.141  0.0023  0.0134  0.2839
  554Sol     HW 5240   3.324   1.248   7.198  1.2130  0.5071 -0.3757
  554Sol     HW 5241   3.261   1.385   7.188  1.8332  0.7775 -0.6427
  554Sol     MW 5242   3.274   1.305   7.150 -0.4478  0.0645  0.3799
  555Sol     OW 5243   2.125   1.252   5.747  0.4331 -0.4408 -0.5323
  555Sol     HW 5244   2.160   1.249   5.657  0.0462 -1.3577 -0.6650
  555Sol     HW 5245   2.100   1.161   5.765 -0.6201 -0.0352  0.0606
  555Sol     MW 5246   2.126   1.243   5.740  1.1943 -0.3550  0.6092
  556Sol     OW 5247   0.306   3.343   3.852  0.1233  0.6722 -0.0586
  556Sol     HW 5248   0.279   3.428   3.817 -2.6949 -0.7722 -1.5664
  556Sol     HW 5249   0.384   3.320   3.802  1.2343  2.5833  0.7375
  556Sol     MW 5250   0.311   3.348   3.845  0.1938 -1.2582  0.3879
  557Sol     OW 5251   0.550   1.153   2.664 -0.1830 -0.5003 -0.0702
  557Sol     HW 5252   0.478   1.107   2.621 -1.1211  0.4921  0.4124
  557Sol     HW 5253   0.562   1.233   2.612  0.0305 -0.2775  0.3198
  557Sol     MW 5254   0.545   1.156   2.655 -0.6136 -0.3654  0.2689
  558Sol     OW 5255   3.029   0.547   1.461 -0.7484 -0.2251  0.2662
  558Sol     HW 5256   3.045   0.529   1.368 -0.8477  1.4278 -0.0789
  558Sol     HW 5257   2.937   0.571   1.465 -1.0346 -1.4298  0.9788
  558Sol     MW 5258   3.022   0.548   1.453 -0.2644  0.9936  0.1590
  559Sol     OW 5259   2.141   0.607   7.997 -0.2564 -0.3537  0.0755
  559Sol     HW 5260   2.048   0.607   7.973 -0.3306  1.1678  0.3130
  559Sol     HW 5261   2.181   0.669   7.936  0.5230 -0.6314  0.3033
  559Sol     MW 5262   2.136   0.612   7.989 -0.2289  0.5199 -0.2840
  560Sol     OW 5263   2.304   1.672   2.345 -0.1964  0.1658 -0.3829
  560Sol     HW 5264   2.272   1.760   2.330 -0.1348 -0.0084 -1.5621
  560Sol     HW 5265   2.357   1.652   2.268 -0.2113 -0.8976 -0.1274
  560Sol     MW 5266   2.306   1.678   2.337 -0.3902  1.7270 -0.8213
  561Sol     OW 5267   2.479   3.426   2.862 -0.1856 -0.2110 -0.6234
  561Sol     HW 5268   2.472   3.447   2.955 -1.8370  1.4264 -1.0672
  561Sol     HW 5269   2.566   3.457   2.836 -0.1040  0.2432  0.1761
  561Sol     MW 5270   2.486   3.431   2.868  0.8859  0.3690 -0.2976
  562Sol     OW 5271   1.415   1.339   3.813  0.4051 -0.2209  0.7074
  562Sol     HW 5272   1.405   1.410   3.751  1.0060 -0.7391  0.0162
  562Sol     HW 5273   1.504   1.349   3.848  1.7444 -2.5982 -1.8751
  562Sol     MW 5274   1.422   1.346   3.811  0.1391  0.3755  0.0694
  563Sol     OW 5275   2.489   1.773   6.140 -0.4770 -0.0515  0.5479
  563Sol     HW 5276   2.400   1.806   6.153  0.1192  2.0194 -0.5309
  563Sol     HW 5277   2.510   1.729   6.223 -2.2635 -0.0255  1.0348
  563Sol     MW 5278   2.483   1.772   6.149 -0.1275 -0.7137  0.4423
  564Sol     OW 5279   2.763   0.766   4.744  0.1220 -0.5653  0.0107
  564Sol     HW 5280   2.757   0.689   4.800  1.6160 -0.1045  0.8500
  564Sol     HW 5281   2.854   0.768   4.716 -0.1218  0.3747 -0.7535
  564Sol     MW 5282   2.771   0.759   4.747 -0.5392 -0.0005 -0.7961
  565Sol     OW 5283   2.349   0.614   4.082 -0.5823 -0.0948 -0.5776
  565Sol     HW 5284   2.344   0.575   3.995 -0.3845 -1.0857 -0.1536
  565Sol     HW 5285   2.408   0.556   4.131 -0.0478  0.9041 -0.0205
  565Sol     MW 5286   2.354   0.605   4.079  0.5100 -0.0625  0.4941
  566Sol     OW 5287   1.292   2.620   9.616  0.2724  0.3138  0.3585
  566Sol     HW 5288   1.263   2.704   9.579 -1.2976 -0.2888  0.1947
  566Sol     HW 5289   1.364   2.593   9.559 -1.3577 -0.0300 -1.6191
  566Sol     MW 5290   1.296   2.625   9.607 -0.4505 -0.1896 -0.4792
  567Sol     OW 5291   3.284   0.878   3.193 -0.4425  0.2632  0.3495
  567Sol     HW 5292   3.245   0.832   3.268  0.6128 -1.0066  0.1385
  567Sol     HW 5293   3.223   0.861   3.121 -1.5621  1.6547  0.9550
  567Sol     MW 5294   3.275   0.872   3.193 -1.4040  0.3360 -0.0703
  568Sol     OW 5295   1.589   2.541   3.651 -0.0569 -0.4207  0.3481
  568Sol     HW 5296   1.507   2.501   3.682 -1.8660  1.7734 -1.4577
  568Sol     HW 5297   1.566   2.633   3.636  3.6529  1.0728  3.0957
  568Sol     MW 5298   1.579   2.545   3.653 -0.2813 -0.5991 -0.1699
  569Sol     OW 5299   1.136   1.892   6.602 -0.4748  0.4681 -0.0892
  569Sol     HW 5300   1.141   1.825   6.670 -1.5967  0.9935  0.5198
  569Sol     HW 5301   1.183   1.853   6.528 -0.2464 -0.5796  0.5862
  569Sol     MW 5302   1.141   1.882   6.601 -0.5581  0.0434 -0.7315
  570Sol     OW 5303   3.226   1.547   7.244  0.0066 -0.3492 -0.3959
  570Sol     HW 5304   3.179   1.566   7.325  1.1792  1.7615 -0.1880
  570Sol     HW 5305   3.202   1.619   7.185  1.4121 -0.3044 -0.9384
  570Sol     MW 5306   3.220   1.555   7.246 -0.3704 -0.2489 -0.6087
  571Sol     OW 5307   2.269   0.293   9.471  0.0377  0.9406 -0.3714
  571Sol     HW 5308   2.266   0.288   9.375  0.0565 -0.0838 -0.3232
  571Sol     HW 5309   2.221   0.373   9.492 -0.9993  0.5450 -1.1771
  571Sol     MW 5310   2.264   0.300   9.464  0.2839 -0.0347 -0.0940
  572Sol     OW 5311   1.047   3.192   9.782 -0.2643  0.2673 -0.1582
  572Sol     HW 5312   1.024   3.258   9.848 -0.7707 -1.7534  1.7331
  572Sol     HW 5313   0.965   3.175   9.737 -0.6034 -0.5489  0.7415
  572Sol     MW 5314   1.038   3.197   9.784  0.2721  0.4302 -0.0842
  573Sol     OW 5315   0.402   2.844   3.454 -0.0807 -1.1403 -0.0791
  573Sol     HW 5316   0.427   2.755   3.430 -1.1425 -1.7017  0.8915
  573Sol     HW 5317   0.307   2.844   3.451 -0.1656 -0.5882  1.8264
  573Sol     MW 5318   0.396   2.836   3.451 -0.7712 -0.6242  0.2244
  574Sol     OW 5319   2.806   1.710   7.882  0.0872 -0.9229  0.1473
  574Sol     HW 5320   2.865   1.760   7.938  0.9360 -1.6062 -0.1218
  574Sol     HW 5321   2.789   1.768   7.807 -0.3235 -0.3667  0.6685
  574Sol     MW 5322   2.809   1.720   7.880 -0.4465  0.1036  0.5402
  575Sol     OW 5323   0.415   0.481   6.100 -0.0921 -0.7270  0.7210
  575Sol     HW 5324   0.422   0.458   6.008 -1.6801  1.6799 -0.0473
  575Sol     HW 5325   0.505   0.501   6.127  0.2886 -0.8060 -0.4740
  575Sol     MW 5326   0.424   0.481   6.094 -0.4135 -0.7504 -0.1559
  576Sol     OW 5327   1.604   1.036   4.232  0.8471 -0.0754 -0.8349
  576Sol     HW 5328   1.530   1.042   4.172 -0.2230  0.2068  0.4907
  576Sol     HW 5329   1.593   1.110   4.292  0.6576 -1.5832  1.0603
  576Sol     MW 5330   1.596   1.043   4.232 -0.4597 -0.2404  1.3873
  577Sol     OW 5331   2.120   1.632   5.192  0.6057  0.0986 -0.1526
  577Sol     HW 5332   2.192   1.652   5.252  0.9454  3.1749 -1.5068
  577Sol     HW 5333   2.164   1.598   5.113  0.6332  2.1394 -1.0437
  577Sol     MW 5334   2.131   1.630   5.190 -0.3447  0.0941  0.6354
  578Sol     OW 5335   2.421   1.333   5.139  0.5403  0.0371 -0.1020
  578Sol     HW 5336   2.464   1.248   5.129  1.5100  0.6771 -1.6323
  578Sol     HW 5337   2.332   1.312   5.167  0.6726 -1.5025 -0.7690
  578Sol     MW 5338   2.417   1.324   5.140 -0.1448 -0.1842  0.0369
  579Sol     OW 5339   0.353   1.268   8.075  0.1850  0.0671  0.6978
  579Sol     HW 5340   0.443   1.297   8.064  0.1135 -0.3848 -1.2379
  579Sol     HW 5341   0.308   1.344   8.112  0.6008  1.5146 -1.6603
  579Sol     MW 5342   0.357   1.278   8.077  0.3157 -0.0814 -0.6473
  580Sol     OW 5343   1.143   0.302   4.676  0.0884  0.1131 -0.3486
  580Sol     HW 5344   1.088   0.280   4.751  0.0429  1.6369  0.0872
  580Sol     HW 5345   1.210   0.361   4.712  0.4831  0.3007 -1.3766
  580Sol     MW 5346   1.144   0.305   4.686  0.4875  0.9952  0.3993
  581Sol     OW 5347   1.513   2.237   2.999 -0.7272  0.0005  0.8645
  581Sol     HW 5348   1.494   2.147   3.025 -0.3129  0.3426  2.4212
  581Sol     HW 5349   1.432   2.285   3.017 -0.8123  0.0281  0.4218
  581Sol     MW 5350   1.504   2.233   3.003  0.5161 -0.7014 -0.4553
  582Sol     OW 5351   0.870   0.810   4.040 -0.5723  0.1882 -0.2421
  582Sol     HW 5352   0.871   0.719   4.069 -1.1624  0.3034  0.1549
  582Sol     HW 5353   0.912   0.809   3.954  0.3956 -0.2958  0.2282
  582Sol     MW 5354   0.874   0.802   4.035  0.6170  0.1278 -0.0968
  583Sol     OW 5355   1.445   1.801   3.957 -0.0344  0.0950  0.6125
  583Sol     HW 5356   1.455   1.734   4.025 -0.4726  0.5449  1.1252
  583Sol     HW 5357   1.392   1.869   3.998  0.4630  0.7882  0.1094
  583Sol     MW 5358   1.441   1.801   3.967 -0.4783 -0.5146 -0.0257
  584Sol     OW 5359   2.288   1.942   2.454  0.8336  0.2323  0.1606
  584Sol     HW 5360   2.267   1.932   2.547  0.7932  0.9001  0.2239
  584Sol     HW 5361   2.373   1.987   2.454  0.0525  1.7376 -0.1314
  584Sol     MW 5362   2.294   1.945   2.463  0.1644  0.3721 -0.0443
  585Sol     OW 5363   1.420   2.694   5.611  0.0258 -0.0296  0.3577
  585Sol     HW 5364   1.369   2.638   5.553 -0.3929  1.1589 -0.4355
  585Sol     HW 5365   1.365   2.708   5.688 -0.2967  0.1499  0.0924
  585Sol     MW 5366   1.411   2.690   5.613  0.1055 -1.6120  0.3389
  586Sol     OW 5367   2.890   2.037   4.446  0.3834  0.0042  0.4058
  586Sol     HW 5368   2.886   2.026   4.541  2.1850 -1.6225  0.3310
  586Sol     HW 5369   2.929   1.955   4.414 -1.3008  0.0397 -1.8430
  586Sol     MW 5370   2.893   2.029   4.451  0.0704 -0.5243  0.4750
  587Sol     OW 5371   2.766   2.656   1.435  0.4126  0.3834 -0.2871
  587Sol     HW 5372   2.694   2.716   1.418  1.0302  0.9538 -0.9800
  587Sol     HW 5373   2.840   2.713   1.458  0.7030 -0.1736  0.1702
  587Sol     MW 5374   2.766   2.667   1.435 -0.0128 -0.4108 -0.7125
  588Sol     OW 5375   1.224   2.136   3.847  0.1808  0.1806  0.0753
  588Sol     HW 5376   1.271   2.083   3.782  0.2753 -0.4076  0.6213
  588Sol     HW 5377   1.140   2.157   3.804 -0.4018 -1.5042  0.3440
  588Sol     MW 5378   1.220   2.133   3.837  0.1081  0.3794  0.2302
  589Sol     OW 5379   1.696   1.733   3.311  0.0286 -0.8068  0.5810
  589Sol     HW 5380   1.738   1.690   3.236 -1.6017  0.5646 -1.1502
  589Sol     HW 5381   1.754   1.806   3.332  1.0094 -1.7716  1.3494
  589Sol     MW 5382   1.705   1.735   3.307  0.0091  0.2027  0.2446
  590Sol     OW 5383   0.567   0.552   4.517 -0.2322 -0.2392 -0.1606
  590Sol     HW 5384   0.621   0.565   4.439 -0.5659  0.0808 -0.3413
  590Sol     HW 5385   0.621   0.500   4.576  0.1008 -0.3024 -0.5232
  590Sol     MW 5386   0.576   0.549   4.515 -0.1032  0.2863 -0.4382
  591Sol     OW 5387   2.421   1.032   2.037  0.4246 -0.1749  0.3947
  591Sol     HW 5388   2.349   1.096   2.042 -0.2853 -1.0582  1.7453
  591Sol     HW 5389   2.410   0.990   1.952 -0.8404 -0.5108  0.7144
  591Sol     MW 5390   2.414   1.034   2.030  0.3076 -0.6666  0.0201
  592Sol     OW 5391   0.600   0.144   7.749 -0.3416 -0.5656  0.0698
  592Sol     HW 5392   0.505   0.153   7.753 -0.0107  2.1405  3.0489
  592Sol     HW 5393   0.624   0.101   7.831  1.1526 -0.0702 -0.0952
  592Sol     MW 5394   0.594   0.141   7.756  0.9528 -0.4096 -0.2988
  593Sol     OW 5395   2.947   1.302   3.698  0.1134 -0.5123 -0.1461
  593Sol     HW 5396   2.918   1.291   3.608  1.8244  0.1706 -0.7957
  593Sol     HW 5397   2.874   1.346   3.742 -0.6379 -0.6642 -1.2343
  593Sol     MW 5398   2.938   1.305   3.694 -0.5402  0.5630 -0.2610
  594Sol     OW 5399   1.940   3.079   7.414  0.0132  0.3726 -0.0600
  594Sol     HW 5400   2.011   3.132   7.379  1.8972 -1.2720  1.1845
  594Sol     HW 5401   1.869   3.141   7.429  2.0184  2.4812  0.9549
  594Sol     MW 5402   1.940   3.089   7.412 -0.0979  0.5445 -0.4200
  595Sol     OW 5403   1.494   0.059   1.541 -0.1298 -0.5008  0.2504
  595Sol     HW 5404   1.568   0.120   1.544  1.0556 -1.7117 -2.7842
  595Sol     HW 5405   1.431   0.100   1.481 -0.0263 -1.4853 -0.5457
  595Sol     MW 5406   1.495   0.068   1.536  0.5367  0.7994  0.3819
  596Sol     OW 5407   2.419   1.663   7.544 -0.4832  0.7593  0.0673
  596Sol     HW 5408   2.376   1.748   7.535 -1.4291  0.0478 -2.9987
  596Sol     HW 5409   2.348   1.600   7.532  0.7636 -0.4251 -1.2919
  596Sol     MW 5410   2.409   1.665   7.542  0.4266 -0.5310  0.4675
  597Sol     OW 5411   1.073   2.424   5.770 -0.2389  0.0216 -0.0588
  597Sol     HW 5412   1.151   2.471   5.802  0.0411  0.1577 -0.9388
  597Sol     HW 5413   1.087   2.333   5.797  0.4535 -0.0447 -0.6189
  597Sol     MW 5414   1.081   2.420   5.775 -0.1292 -0.2197  0.1722
  598Sol     OW 5415   2.286   1.939   2.742  0.1120 -0.0898  0.0226
  598Sol     HW 5416   2.247   1.852   2.734 -1.6788  0.4836  1.9485
  598Sol     HW 5417   2.303   1.949   2.836  1.4915  1.1517 -0.3412
  598Sol     MW 5418   2.284   1.932   2.750 -0.4608 -0.0807 -0.4598
  599Sol     OW 5419   2.483   2.852   9.288  0.1496  0.4754  0.5498
  599Sol     HW 5420   2.529   2.770   9.276 -0.1729  0.1590  1.4185
  599Sol     HW 5421   2.453   2.877   9.200  0.7439 -0.0338  0.2029
  599Sol     MW 5422   2.484   2.847   9.279 -1.4550  0.5234 -0.7069
  600Sol     OW 5423   1.725   3.260   4.531  0.7992  0.4718  0.7160
  600Sol     HW 5424   1.767   3.341   4.562  1.9032  0.6190 -1.1131
  600Sol     HW 5425   1.797   3.198   4.522 -0.1706 -1.0599  3.0548
  600Sol     MW 5426   1.735   3.262   4.533 -0.5468  0.1725  0.8875
  601Sol     OW 5427   1.041   3.161   5.326 -0.0247  0.3160 -0.1362
  601Sol     HW 5428   1.087   3.084   5.359  1.3975  1.5102  0.7378
  601Sol     HW 5429   0.970   3.176   5.388  0.0351  0.0321  0.0007
  601Sol     MW 5430   1.039   3.156   5.335  0.2949 -0.9665  0.5381
  602Sol     OW 5431   1.318   0.442   9.157 -0.4399 -0.5958  0.2962
  602Sol     HW 5432   1.309   0.506   9.087  0.0772 -1.4609 -0.5792
  602Sol     HW 5433   1.372   0.373   9.120  0.0382 -0.9596  1.6321
  602Sol     MW 5434   1.322   0.441   9.148  0.0206 -0.4867  0.0745
  603Sol     OW 5435   1.570   2.890   4.837  0.4535 -0.3467  0.1253
  603Sol     HW 5436   1.547   2.861   4.748  1.4885  0.8044 -0.5306
  603Sol     HW 5437   1.496   2.944   4.864 -0.4721 -1.7594  0.4984
  603Sol     MW 5438   1.561   2.892   4.831  0.4823 -1.5964  0.5307
  604Sol     OW 5439   1.969   2.490   8.973  0.0518  0.2660 -0.3577
  604Sol     HW 5440   2.014   2.406   8.970 -2.3703 -1.0829 -0.3978
  604Sol     HW 5441   2.037   2.554   8.953  1.8030 -1.7203 -1.0143
  604Sol     MW 5442   1.979   2.488   8.971 -0.7118 -0.4185  0.3244
  605Sol     OW 5443   2.677   1.199   7.344  0.2172 -0.0803  0.7132
  605Sol     HW 5444   2.726   1.233   7.419  1.1635 -2.1648  1.0909
  605Sol     HW 5445   2.609   1.264   7.328  1.0483  1.2288  2.3117
  605Sol     MW 5446   2.676   1.208   7.349  0.1114  0.0841  1.0096
  606Sol     OW 5447   2.555   1.537   9.085  0.2436  0.3245 -0.0171
  606Sol     HW 5448   2.512   1.519   9.002  1.3126 -0.1715 -0.4652
  606Sol     HW 5449   2.594   1.624   9.074  2.2333 -0.6368 -0.8203
  606Sol     MW 5450   2.555   1.543   9.077  0.1380 -0.2816 -0.5584
  607Sol     OW 5451   0.259   0.116   6.793 -0.4548 -0.0678 -0.1182
  607Sol     HW 5452   0.169   0.130   6.823 -0.1550  0.2673  0.6217
  607Sol     HW 5453   0.252   0.114   6.697 -1.1058  0.9583 -0.0982
  607Sol     MW 5454   0.250   0.117   6.787  0.0708 -0.7619  0.1332
  608Sol     OW 5455   0.892   0.311   6.527  0.0289  0.0797 -0.0825
  608Sol     HW 5456   0.827   0.282   6.463 -0.5423  0.5758  0.2720
  608Sol     HW 5457   0.905   0.235   6.584 -0.3661  0.0407 -0.0459
  608Sol     MW 5458   0.887   0.302   6.526  0.0809 -0.6115 -0.1505
  609Sol     OW 5459   1.254   1.147   3.408  0.3097 -0.5587 -0.6103
  609Sol     HW 5460   1.278   1.113   3.494  1.9220 -0.2865 -0.9398
  609Sol     HW 5461   1.177   1.095   3.383  0.2238 -1.0901  0.7010
  609Sol     MW 5462   1.249   1.139   3.413 -0.1115  1.0769  0.1774
  610Sol     OW 5463   3.077   3.244   6.745 -0.3776 -0.0484 -0.3202
  610Sol     HW 5464   3.105   3.167   6.696 -1.4161 -0.1802 -0.7187
  610Sol     HW 5465   3.158   3.280   6.782 -0.0085 -1.8586  0.6382
  610Sol     MW 5466   3.087   3.241   6.744  0.2496 -0.0870 -1.2179
  611Sol     OW 5467   1.376   2.491   4.223 -0.1700 -0.0410  0.1130
  611Sol     HW 5468   1.414   2.422   4.168 -0.4291 -0.1298  0.0475
  611Sol     HW 5469   1.452   2.539   4.257 -0.0054 -0.0573 -0.2319
  611Sol     MW 5470   1.387   2.489   4.221 -0.3318  0.5812  0.2264
  612Sol     OW 5471   0.246   0.706   6.599  0.5176 -0.5431 -0.1118
  612Sol     HW 5472   0.197   0.669   6.526  0.0864 -0.1314 -0.0334
  612Sol     HW 5473   0.237   0.642   6.670 -0.0173 -0.4106 -0.0564
  612Sol     MW 5474   0.241   0.697   6.599  0.1099  0.1550 -1.0519
  613Sol     OW 5475   0.972   0.763   8.568 -0.2447  0.0183 -0.1102
  613Sol     HW 5476   1.020   0.722   8.640  0.2951  2.0898  0.7611
  613Sol     HW 5477   0.889   0.790   8.607  0.3820  1.8841 -0.0389
  613Sol     MW 5478   0.969   0.762   8.578 -0.6066 -0.0602  0.3144
  614Sol     OW 5479   0.738   3.063   1.974  0.1927  0.4713  0.2069
  614Sol     HW 5480   0.651   3.100   1.955  0.0142  1.1235  2.2428
  614Sol     HW 5481   0.797   3.138   1.969  0.6612  0.0206 -1.2044
  614Sol     MW 5482   0.735   3.073   1.972  0.0005 -0.8072 -0.0200
  615Sol     OW 5483   0.144   2.819   2.605  0.0312  0.5643  0.8430
  615Sol     HW 5484   0.207   2.777   2.663 -0.6267 -0.6393  0.6907
  615Sol     HW 5485   0.121   2.751   2.541  0.8440  1.8930 -0.9159
  615Sol     MW 5486   0.148   2.809   2.604 -0.5778  0.4868 -0.6530
  616Sol     OW 5487   1.846   0.997   8.558  0.0574 -0.2433  0.5859
  616Sol     HW 5488   1.813   1.087   8.556 -0.8745 -0.4964  2.9159
  616Sol     HW 5489   1.940   1.006   8.546 -0.1191  0.9630 -0.0441
  616Sol     MW 5490   1.851   1.006   8.556 -0.2301 -0.2434 -0.5560
  617Sol     OW 5491   3.175   3.118   2.294 -0.1482 -0.4204 -0.0450
  617Sol     HW 5492   3.262   3.158   2.290 -0.7235  0.8841  0.2634
  617Sol     HW 5493   3.144   3.120   2.203 -0.2629  0.0523  0.0009
  617Sol     MW 5494   3.180   3.122   2.286  0.9540 -1.2113  0.1998
  618Sol     OW 5495   1.202   1.713   6.789 -0.0838 -0.0630 -0.6889
  618Sol     HW 5496   1.176   1.621   6.793  0.1468 -0.2370 -2.5667
  618Sol     HW 5497   1.297   1.712   6.794 -0.1525  0.2109  0.9781
  618Sol     MW 5498   1.208   1.705   6.790  0.5561 -0.6756 -0.3251
  619Sol     OW 5499   3.076   0.595   8.680  0.5304 -0.4511 -0.6623
  619Sol     HW 5500   3.114   0.569   8.764  0.1666 -1.3289 -0.7545
  619Sol     HW 5501   3.040   0.682   8.695 -1.3937 -1.4368  0.7129
  619Sol     MW 5502   3.076   0.600   8.689  1.1069 -0.2057 -0.8597
  620Sol     OW 5503   0.557   1.028   6.763 -1.2838 -0.5237  0.3101
  620Sol     HW 5504   0.639   1.063   6.799  0.2168 -1.2671 -2.2487
  620Sol     HW 5505   0.501   1.104   6.754  0.5531  0.6754 -1.5307
  620Sol     MW 5506   0.560   1.038   6.765  0.0340  0.0470  0.1039
  621Sol     OW 5507   1.049   1.031   6.296 -0.6494  0.7131  0.3793
  621Sol     HW 5508   1.028   0.938   6.295  2.6197 -0.0635  0.0512
  621Sol     HW 5509   1.094   1.044   6.380  1.4912  1.3737 -0.8545
  621Sol     MW 5510   1.051   1.024   6.304  0.4434  0.3252 -1.0683
  622Sol     OW 5511   0.645   3.304   2.987  0.0047 -0.2610  0.8056
  622Sol     HW 5512   0.715   3.247   2.955 -1.2951 -1.7361  0.5015
  622Sol     HW 5513   0.659   3.388   2.944  2.6735  0.0563  2.1661
  622Sol     MW 5514   0.653   3.306   2.981 -0.5352  0.1905 -0.1931
  623Sol     OW 5515   2.237   2.665   8.917 -0.2902 -0.7745 -0.0615
  623Sol     HW 5516   2.324   2.625   8.927  0.1336  0.4971  1.4637
  623Sol     HW 5517   2.239   2.706   8.830  0.9351 -0.0301  0.3118
  623Sol     MW 5518   2.245   2.665   8.910  0.6013 -0.2120  0.5873
  624Sol     OW 5519   1.755   1.887   2.052  0.0015 -0.0263 -0.2165
  624Sol     HW 5520   1.709   1.909   2.133 -0.4608 -0.3761 -0.3777
  624Sol     HW 5521   1.846   1.912   2.068  0.1666 -1.2496  0.8836
  624Sol     MW 5522   1.759   1.891   2.061  0.2208  0.2204 -0.4657
  625Sol     OW 5523   1.400   2.866   2.073  0.0329  0.0635  0.4769
  625Sol     HW 5524   1.312   2.899   2.090  0.3354 -0.8641  4.2463
  625Sol     HW 5525   1.401   2.778   2.112  1.1892 -1.9290 -3.7762
  625Sol     MW 5526   1.393   2.861   2.078  0.3512 -0.0253  0.1651
  626Sol     OW 5527   1.530   0.177   7.013  0.9203 -0.5574  0.8573
  626Sol     HW 5528   1.471   0.148   7.083 -0.2778  1.2455  0.6331
  626Sol     HW 5529   1.616   0.145   7.039  1.1566  2.8836  4.9603
  626Sol     MW 5530   1.532   0.172   7.022 -0.1535  0.8106 -0.1399
  627Sol     OW 5531   2.658   3.044   5.576 -0.3295  0.3507 -0.0295
  627Sol     HW 5532   2.644   3.139   5.578 -0.7445  0.3044 -0.5939
  627Sol     HW 5533   2.674   3.020   5.668 -0.3119  0.9526  0.1245
  627Sol     MW 5534   2.658   3.050   5.585 -0.2635 -1.5393 -0.1277
  628Sol     OW 5535   3.010   2.316   1.860  0.1828  0.1750 -0.6498
  628Sol     HW 5536   3.011   2.410   1.879  1.0759 -0.0712  0.5588
  628Sol     HW 5537   2.927   2.285   1.897 -0.3777  0.5715 -1.5441
  628Sol     MW 5538   3.002   2.322   1.865  0.0746 -1.2432  1.3640
  629Sol     OW 5539   0.117   1.750   6.101  0.6332  0.4944  0.2818
  629Sol     HW 5540   0.201   1.708   6.084  1.0042  0.2069  2.6069
  629Sol     HW 5541   0.139   1.844   6.108  0.1190  0.9208 -2.8839
  629Sol     MW 5542   0.127   1.755   6.100 -0.0060  0.0499 -0.0930
  630Sol     OW 5543   1.439   1.959   5.453 -0.2144 -0.1294  0.1555
  630Sol     HW 5544   1.367   1.941   5.393  0.1613 -1.6907  0.1606
  630Sol     HW 5545   1.397   1.977   5.537 -0.8265  3.3853 -0.7968
  630Sol     MW 5546   1.429   1.959   5.455 -0.1731  0.4349  0.1398
  631Sol     OW 5547   1.523   1.715   7.292  0.3918  0.4739 -0.0111
  631Sol     HW 5548   1.569   1.650   7.238 -1.4505  0.1246 -1.2164
  631Sol     HW 5549   1.569   1.797   7.274  1.2753 -0.0669 -0.2955
  631Sol     MW 5550   1.531   1.716   7.285  0.0388  0.0487  0.5969
  632Sol     OW 5551   0.998   0.470   3.633  0.0236 -0.3530 -0.2133
  632Sol     HW 5552   1.003   0.531   3.559  0.0233 -1.4409 -1.1264
  632Sol     HW 5553   0.909   0.481   3.666  0.2574  0.6668  0.0900
  632Sol     MW 5554   0.990   0.476   3.629 -0.2122  0.0524  0.1768
  633Sol     OW 5555   1.279   1.814   8.235 -0.0023 -0.1530 -0.3577
  633Sol     HW 5556   1.235   1.898   8.250 -3.8697 -1.7217 -2.2643
  633Sol     HW 5557   1.272   1.768   8.319 -0.7412  0.1808 -0.2306
  633Sol     MW 5558   1.274   1.818   8.244 -0.1593 -0.5168  0.3778
  634Sol     OW 5559   2.686   1.365   6.891  0.1983 -0.6827  0.5675
  634Sol     HW 5560   2.739   1.425   6.838 -0.0820 -2.2706 -1.5648
  634Sol     HW 5561   2.750   1.317   6.943  0.5471  0.2434  1.0090
  634Sol     MW 5562   2.697   1.366   6.891  0.0715  0.2367 -0.5238
  635Sol     OW 5563   3.095   1.926   4.138  0.3658 -0.9239 -0.2016
  635Sol     HW 5564   3.099   1.969   4.053  0.8667 -0.4282  0.0703
  635Sol     HW 5565   3.183   1.934   4.174  0.3064 -1.6431  0.1173
  635Sol     MW 5566   3.103   1.931   4.134  0.4489 -0.3477 -0.8799
  636Sol     OW 5567   0.807   1.296   3.140 -0.4503 -0.6913  0.3080
  636Sol     HW 5568   0.858   1.337   3.211  0.2761 -0.3679 -0.3850
  636Sol     HW 5569   0.858   1.219   3.116  0.2983  0.2103 -1.1105
  636Sol     MW 5570   0.816   1.293   3.144  0.3081  0.4046  0.1990
  637Sol     OW 5571   2.341   3.167   2.101  0.2638  0.3419 -0.1045
  637Sol     HW 5572   2.250   3.179   2.074  0.3334 -0.8305 -0.8974
  637Sol     HW 5573   2.336   3.120   2.184  0.0602  3.5597  1.7987
  637Sol     MW 5574   2.332   3.164   2.106 -0.0565  0.7825 -1.1951
  638Sol     OW 5575   1.053   2.945   8.716 -0.3473 -0.2878 -0.5600
  638Sol     HW 5576   1.096   2.907   8.792  0.6667  1.0721 -0.4348
  638Sol     HW 5577   1.059   2.878   8.648 -1.4288 -1.5982  0.5809
  638Sol     MW 5578   1.057   2.936   8.717  0.0298 -0.3112  0.4828
  639Sol     OW 5579   2.706   2.613   7.629 -0.1198  0.1309 -0.4215
  639Sol     HW 5580   2.743   2.525   7.631  0.3209  0.2685 -2.1155
  639Sol     HW 5581   2.682   2.631   7.720  2.7221 -0.4930  0.4915
  639Sol     MW 5582   2.707   2.607   7.637  0.2231 -0.8691 -0.5451
  640Sol     OW 5583   2.694   0.692   5.676  0.0838 -0.4482  0.3182
  640Sol     HW 5584   2.679   0.699   5.770  1.2586  1.7988  0.3871
  640Sol     HW 5585   2.789   0.684   5.667  0.3038  2.7138 -0.7832
  640Sol     MW 5586   2.701   0.692   5.683 -0.4917 -0.3926 -0.7045
  641Sol     OW 5587   3.123   3.248   3.564 -0.4128  0.4552  0.0612
  641Sol     HW 5588   3.046   3.214   3.518 -0.7568  1.5142 -0.1667
  641Sol     HW 5589   3.122   3.204   3.649 -1.5613  0.8103  0.2468
  641Sol     MW 5590   3.116   3.241   3.567  0.1226 -1.0702  1.0206
  642Sol     OW 5591   0.985   0.444   7.614  0.3779  0.4441  0.0518
  642Sol     HW 5592   0.892   0.431   7.594  0.6707 -1.7654 -0.0175
  642Sol     HW 5593   1.027   0.452   7.528  0.4260  0.0826  0.0404
  642Sol     MW 5594   0.981   0.443   7.604  0.4337 -0.2589 -0.6287
  643Sol     OW 5595   1.131   1.376   2.281  0.2912  0.1641 -0.4172
  643Sol     HW 5596   1.169   1.463   2.284 -1.9312  1.1608 -0.5182
  643Sol     HW 5597   1.135   1.345   2.372  1.2322  0.2918 -0.4115
  643Sol     MW 5598   1.135   1.381   2.289  0.0362  0.4660  0.3924
  644Sol     OW 5599   1.204   0.946   5.653 -0.2868  0.2291  0.3098
  644Sol     HW 5600   1.112   0.936   5.629 -0.2976  2.0489 -0.4804
  644Sol     HW 5601   1.252   0.929   5.572  0.0574 -0.2905  0.6201
  644Sol     MW 5602   1.200   0.943   5.644 -0.5720  0.5373 -0.5192
  645Sol     OW 5603   0.472   0.187   9.932  0.0731 -0.1456  0.2783
  645Sol     HW 5604   0.434   0.109   9.892 -0.6942  0.1007  0.5094
  645Sol     HW 5605   0.402   0.252   9.929  0.0545 -0.0626  1.8451
  645Sol     MW 5606   0.462   0.186   9.928 -0.5599  0.4627  0.5834
  646Sol     OW 5607   2.763   2.052   8.913  0.0966 -0.3316  0.0527
  646Sol     HW 5608   2.735   2.100   8.991  0.9828  0.9164 -0.3642
  646Sol     HW 5609   2.854   2.080   8.900 -0.1766 -0.1747 -1.6628
  646Sol     MW 5610   2.769   2.059   8.919  0.5554  0.0950  0.1965
  647Sol     OW 5611   2.503   2.662   2.634 -0.2270  0.0504  0.1113
  647Sol     HW 5612   2.435   2.606   2.596  1.0640 -0.9267 -0.8168
  647Sol     HW 5613   2.482   2.665   2.727 -0.3998 -1.8981  0.1597
  647Sol     MW 5614   2.495   2.657   2.639 -0.1518 -0.5089  0.5185
  648Sol     OW 5615   1.962   2.722   7.189 -0.0966 -0.0985 -0.1227
  648Sol     HW 5616   1.953   2.628   7.178  0.5121  0.0945 -2.8057
  648Sol     HW 5617   2.038   2.732   7.247 -0.2731 -1.2506  0.3237
  648Sol     MW 5618   1.968   2.715   7.193  0.6282  0.3831  1.3618
  649Sol     OW 5619   2.219   1.215   2.051  0.3291  0.3884  0.1330
  649Sol     HW 5620   2.156   1.196   1.982  1.3098 -3.2945  0.1256
  649Sol     HW 5621   2.168   1.256   2.121 -2.0871 -2.5196  0.1418
  649Sol     MW 5622   2.209   1.217   2.051 -0.3493 -0.5067  0.1802
  650Sol     OW 5623   3.256   2.357   3.629 -0.1867  0.4478 -0.3440
  650Sol     HW 5624   3.232   2.265   3.624  0.6490  0.2260 -0.4067
  650Sol     HW 5625   3.175   2.402   3.653 -0.6436 -0.2775 -0.5109
  650Sol     MW 5626   3.247   2.353   3.631  0.0485 -1.2814  0.3232
  651Sol     OW 5627   0.687   3.346   6.449  0.1180  0.1674 -0.3655
  651Sol     HW 5628   0.621   3.286   6.416 -0.3279  0.0292  0.7868
  651Sol     HW 5629   0.686   3.419   6.387 -1.4687  0.4035 -0.0653
  651Sol     MW 5630   0.681   3.347   6.440 -0.2582 -0.1355  0.6343
  652Sol     OW 5631   2.060   0.314   4.632  0.4354 -0.7646  0.5550
  652Sol     HW 5632   2.076   0.387   4.693  0.2196 -0.2117 -0.0398
  652Sol     HW 5633   2.059   0.355   4.546 -0.2820 -1.3830  0.2597
  652Sol     MW 5634   2.061   0.325   4.630 -0.6076 -0.1838  0.0137
  653Sol     OW 5635   1.716   3.257   7.450 -0.4309  0.4345  0.0768
  653Sol     HW 5636   1.740   3.291   7.536 -0.0674  0.7972 -0.1688
  653Sol     HW 5637   1.657   3.184   7.469  0.0762  0.1717  0.6471
  653Sol     MW 5638   1.713   3.254   7.460  1.0208  0.2090  0.6876
  654Sol     OW 5639   0.864   1.931   6.532  0.5325  0.2436  1.0084
  654Sol     HW 5640   0.943   1.908   6.580  0.1185  0.3959  1.7660
  654Sol     HW 5641   0.804   1.859   6.548  0.4816  0.1764  0.5172
  654Sol     MW 5642   0.866   1.923   6.538  0.4178  0.0196 -0.4255
  655Sol     OW 5643   1.737   0.469   7.489  0.8100 -0.1405 -0.2222
  655Sol     HW 5644   1.673   0.403   7.515  1.0767 -0.5221 -0.5265
  655Sol     HW 5645   1.696   0.553   7.510  0.0020 -0.3633 -0.8902
  655Sol     MW 5646   1.728   0.471   7.493 -0.4107 -0.0580  0.9709
  656Sol     OW 5647   1.999   0.370   7.624 -0.4030  0.2860  0.1747
  656Sol     HW 5648   1.998   0.302   7.557  1.0181 -0.4742  0.8978
  656Sol     HW 5649   1.916   0.417   7.613 -1.6239 -1.8729 -0.0006
  656Sol     MW 5650   1.992   0.368   7.617 -0.5000 -1.2446 -0.8971
  657Sol     OW 5651   0.445   2.701   3.832 -0.2379  0.0919  0.1299
  657Sol     HW 5652   0.391   2.650   3.891  0.2508 -0.0327  0.4717
  657Sol     HW 5653   0.481   2.637   3.770 -2.7605  0.5407 -1.8959
  657Sol     MW 5654   0.443   2.691   3.832 -1.2010 -0.4090  0.2464
  658Sol     OW 5655   2.474   1.453   7.079 -0.3205 -0.8904 -0.0568
  658Sol     HW 5656   2.501   1.531   7.127 -0.4352 -0.4046 -0.7744
  658Sol     HW 5657   2.551   1.428   7.028 -0.0630 -1.6541  0.7015
  658Sol     MW 5658   2.483   1.458   7.078  0.4532  0.8086 -0.5205
  659Sol     OW 5659   1.143   0.569   3.056 -0.5224 -0.5239  0.3577
  659Sol     HW 5660   1.109   0.587   2.968 -0.0801 -1.9182 -0.1202
  659Sol     HW 5661   1.238   0.571   3.045 -0.4105  1.9418  1.3830
  659Sol     MW 5662   1.149   0.571   3.047  1.0257  0.3718  0.4742
  660Sol     OW 5663   1.499   1.003   7.046 -0.0789  0.0493 -0.4595
  660Sol     HW 5664   1.576   1.007   6.988 -0.2137  0.8688 -0.5807
  660Sol     HW 5665   1.535   0.983   7.132  0.0382 -2.1887 -1.0007
  660Sol     MW 5666   1.509   1.001   7.048 -0.8341 -0.1512  0.5070
  661Sol     OW 5667   1.819   1.677   7.190  0.0834  0.3485  0.0437
  661Sol     HW 5668   1.802   1.680   7.096  1.2477  0.7927 -0.1578
  661Sol     HW 5669   1.812   1.768   7.219 -3.7231 -0.1629  1.0435
  661Sol     MW 5670   1.817   1.685   7.184 -0.0764 -0.1204  0.7785
  662Sol     OW 5671   1.474   3.007   8.699 -0.1624 -0.2383  0.1052
  662Sol     HW 5672   1.445   2.949   8.629  1.8193 -1.2126  0.0388
  662Sol     HW 5673   1.421   3.086   8.690  0.6177 -0.0130 -2.9951
  662Sol     MW 5674   1.467   3.009   8.692 -0.7911  0.3310  0.2841
  663Sol     OW 5675   0.235   2.657   9.729 -0.1591  0.0708  0.3369
  663Sol     HW 5676   0.178   2.689   9.658  0.5018 -1.5267 -0.9397
  663Sol     HW 5677   0.219   2.563   9.732 -1.7452  0.3924  3.7567
  663Sol     MW 5678   0.228   2.652   9.723  0.8069 -0.9260  0.4480
  664Sol     OW 5679   0.641   2.184   6.306  0.0160 -0.3860  0.1631
  664Sol     HW 5680   0.707   2.123   6.273 -0.0158  0.0841 -0.8043
  664Sol     HW 5681   0.674   2.271   6.281 -0.6674 -0.1072  0.2127
  664Sol     MW 5682   0.650   2.187   6.301 -1.5337 -0.6852  2.0803
  665Sol     OW 5683   1.449   2.524   9.022 -0.2063  0.1163  0.1418
  665Sol     HW 5684   1.512   2.587   8.986  0.1722 -0.3269  0.0256
  665Sol     HW 5685   1.424   2.560   9.107 -0.6663  0.8795 -0.3130
  665Sol     MW 5686   1.453   2.533   9.026  0.5414 -1.3191  0.6705
  666Sol     OW 5687   1.115   1.638   9.685  0.4713  0.1209  0.0621
  666Sol     HW 5688   1.113   1.708   9.620  1.8425 -0.9512 -1.1857
  666Sol     HW 5689   1.196   1.590   9.665  1.1059 -0.0026  2.8026
  666Sol     MW 5690   1.122   1.640   9.677  0.1563  0.5571  0.1231
  667Sol     OW 5691   0.962   2.241   3.688 -0.1901  0.5226  0.2567
  667Sol     HW 5692   0.893   2.234   3.622 -0.2105 -1.7242  0.4726
  667Sol     HW 5693   0.918   2.224   3.771  0.2301  1.2365  0.6287
  667Sol     MW 5694   0.952   2.239   3.690 -0.7140  0.4630 -0.3823
  668Sol     OW 5695   0.176   2.719   3.104  0.0339 -0.4267  0.1642
  668Sol     HW 5696   0.176   2.706   3.198  0.0544 -0.7163  0.1249
  668Sol     HW 5697   0.087   2.697   3.076 -0.6436  1.8378  0.4063
  668Sol     MW 5698   0.168   2.716   3.110  0.4177  0.4082  0.3966
  669Sol     OW 5699   2.005   2.610   7.476  0.1788 -0.2128  0.2992
  669Sol     HW 5700   2.021   2.576   7.387  0.9244  0.3759  0.2004
  669Sol     HW 5701   1.910   2.615   7.483  0.1016 -0.7064 -0.3017
  669Sol     MW 5702   1.998   2.607   7.468  0.2865  0.2455 -0.4001
  670Sol     OW 5703   1.764   2.688   2.190  0.0413 -0.1495  0.0953
  670Sol     HW 5704   1.778   2.773   2.147 -1.9225  0.5471  0.8236
  670Sol     HW 5705   1.826   2.688   2.263 -1.2012  1.4288  1.1756
  670Sol     MW 5706   1.771   2.696   2.192 -0.5130  0.6456  0.4467
  671Sol     OW 5707   1.617   3.050   9.115 -0.1573  0.1494  0.3302
  671Sol     HW 5708   1.556   2.992   9.069  0.5064 -0.4899  0.2460
  671Sol     HW 5709   1.608   3.134   9.072 -0.3825 -0.1542 -0.2178
  671Sol     MW 5710   1.610   3.052   9.107 -0.3075 -0.7571 -0.0675
  672Sol     OW 5711   3.290   0.783   2.521 -0.4347  0.0458  0.4382
  672Sol     HW 5712   3.209   0.758   2.478 -1.0706  3.0207 -0.2522
  672Sol     HW 5713   3.270   0.779   2.615 -1.5949  1.2783  0.2635
  672Sol     MW 5714   3.281   0.781   2.526 -0.2394 -0.1371  0.7352
  673Sol     OW 5715   2.224   2.255   6.917 -0.2358 -0.4676  0.7115
  673Sol     HW 5716   2.138   2.219   6.897  0.6476 -2.8976  1.0218
  673Sol     HW 5717   2.269   2.259   6.833 -0.4224  0.1934  0.6390
  673Sol     MW 5718   2.221   2.252   6.908  0.1798  0.1144  0.6050
  674Sol     OW 5719   2.829   2.235   5.371  0.4357 -0.3278  0.0962
  674Sol     HW 5720   2.756   2.297   5.373  0.6296 -0.0958  2.7663
  674Sol     HW 5721   2.791   2.153   5.405  0.9611 -0.7201 -0.2629
  674Sol     MW 5722   2.819   2.233   5.375  0.1554 -0.0725 -0.5699
  675Sol     OW 5723   1.435   0.898   5.214 -0.5825  0.7027 -0.2339
  675Sol     HW 5724   1.497   0.825   5.215 -1.7909 -0.4347 -2.9183
  675Sol     HW 5725   1.458   0.947   5.135 -2.4397  0.8653 -0.6843
  675Sol     MW 5726   1.443   0.896   5.207 -0.1015  0.9450 -0.9633
  676Sol     OW 5727   2.308   2.009   3.380  0.4337 -0.1154 -0.3552
  676Sol     HW 5728   2.257   1.943   3.334 -0.2688  1.0917 -1.3256
  676Sol     HW 5729   2.297   1.987   3.473 -2.1186  0.3274 -0.5276
  676Sol     MW 5730   2.303   2.001   3.385  0.7585 -0.2517  0.7739
  677Sol     OW 5731   0.182   1.523   4.246  0.8298 -0.1634 -0.3792
  677Sol     HW 5732   0.167   1.439   4.291 -0.7574  0.9211  1.1844
  677Sol     HW 5733   0.236   1.573   4.306 -0.2365  0.8195 -0.2162
  677Sol     MW 5734   0.185   1.520   4.256  0.0983  0.1639 -0.2115
  678Sol     OW 5735   1.757   2.888   6.872 -0.2300 -0.0101  0.8662
  678Sol     HW 5736   1.705   2.807   6.876  0.0455 -0.2851 -0.6980
  678Sol     HW 5737   1.841   2.864   6.909  0.2605 -0.7967 -0.7013
  678Sol     MW 5738   1.760   2.878   6.876  0.6117 -0.0034 -0.3428
  679Sol     OW 5739   2.570   2.052   3.363 -0.5633 -0.2340 -0.0935
  679Sol     HW 5740   2.600   2.005   3.285 -1.4898 -0.5568 -0.2580
  679Sol     HW 5741   2.478   2.028   3.371 -1.0908  1.6448 -0.2711
  679Sol     MW 5742   2.564   2.046   3.356 -0.3963  0.1613  0.4772
  680Sol     OW 5743   0.989   0.459  10.022  0.2034  0.2971  0.2676
  680Sol     HW 5744   0.951   0.376  10.048 -2.4756  2.1483  2.5780
  680Sol     HW 5745   0.937   0.488   9.947  0.0118  0.6806  0.5439
  680Sol     MW 5746   0.981   0.454  10.018 -0.8697  0.1374  0.8721
  681Sol     OW 5747   0.743   2.151   7.513 -0.3232 -0.2483  0.3171
  681Sol     HW 5748   0.822   2.122   7.557  0.1834 -1.6559 -1.4573
  681Sol     HW 5749   0.671   2.126   7.571  0.5412  1.7361  2.3105
  681Sol     MW 5750   0.744   2.147   7.522 -0.3632  0.3825  0.4889
  682Sol     OW 5751   1.465   1.586   8.936  0.1274  0.0097 -0.1981
  682Sol     HW 5752   1.404   1.607   8.865  0.5723  1.5441 -0.1467
  682Sol     HW 5753   1.455   1.659   8.998  0.1255 -1.0510  1.0713
  682Sol     MW 5754   1.458   1.595   8.935  0.3681 -0.0037  0.1810
  683Sol     OW 5755   2.519   2.903   4.287 -0.0707  0.1608 -0.6390
  683Sol     HW 5756   2.436   2.945   4.308 -0.0263 -0.8319  1.7039
  683Sol     HW 5757   2.560   2.887   4.372  0.8614 -2.6772 -1.5614
  683Sol     MW 5758   2.515   2.905   4.296  0.3510 -0.1590  0.9938
  684Sol     OW 5759   2.299   0.282   1.506 -0.1791  0.3871  0.0638
  684Sol     HW 5760   2.319   0.347   1.572 -2.1412  1.5763 -0.4679
  684Sol     HW 5761   2.205   0.291   1.491 -0.6792 -3.2125  0.6527
  684Sol     MW 5762   2.292   0.289   1.510 -0.0900 -0.4193  0.5533
  685Sol     OW 5763   1.279   1.015   8.426  0.0846  0.5533 -0.0700
  685Sol     HW 5764   1.311   0.927   8.443 -2.4505 -0.2769  0.6297
  685Sol     HW 5765   1.208   1.028   8.489 -2.1972  1.5646 -2.7286
  685Sol     MW 5766   1.276   1.009   8.433 -0.2310 -0.2393 -0.3194
  686Sol     OW 5767   3.243   2.814   6.519 -0.1937  0.0229  0.3805
  686Sol     HW 5768   3.246   2.900   6.561 -1.3460  0.7726 -0.9832
  686Sol     HW 5769   3.304   2.821   6.446 -0.0330 -0.4360  0.4700
  686Sol     MW 5770   3.249   2.823   6.516 -0.6761 -0.2521  0.1357
  687Sol     OW 5771   0.884   1.415   3.373  0.7043  0.2535  0.0057
  687Sol     HW 5772   0.976   1.437   3.386  0.5914 -0.8072  3.1690
  687Sol     HW 5773   0.839   1.500   3.375  1.4100  0.6229  0.5422
  687Sol     MW 5774   0.888   1.425   3.374  0.1327  0.4308  0.8607
  688Sol     OW 5775   2.562   1.967   2.458  0.4505  0.3031  0.2183
  688Sol     HW 5776   2.573   2.062   2.458 -0.4719  0.4121 -0.4123
  688Sol     HW 5777   2.610   1.938   2.536 -0.2052  1.3960  1.0556
  688Sol     MW 5778   2.567   1.973   2.465  0.1044  0.5122  0.6406
  689Sol     OW 5779   2.420   0.915   6.137 -0.0616  0.3376 -0.0544
  689Sol     HW 5780   2.361   0.927   6.063  1.6880 -0.6696 -1.6462
  689Sol     HW 5781   2.363   0.920   6.214 -1.8851  1.5424 -1.4371
  689Sol     MW 5782   2.410   0.917   6.138  0.5577  0.1526  0.2458
  690Sol     OW 5783   2.190   2.514   3.503  0.3915 -0.4474 -0.4280
  690Sol     HW 5784   2.109   2.556   3.531  0.8518  1.4602 -1.8374
  690Sol     HW 5785   2.252   2.532   3.573  0.2262  0.0716 -0.4163
  690Sol     MW 5786   2.188   2.519   3.512 -0.3214 -0.5724 -0.1720
  691Sol     OW 5787   0.483   1.629   1.809 -0.7854  0.2840  0.3601
  691Sol     HW 5788   0.430   1.688   1.755 -0.8443  0.4232  0.5712
  691Sol     HW 5789   0.563   1.678   1.827 -0.3932 -0.0931 -0.3284
  691Sol     MW 5790   0.485   1.639   1.806  0.7889  0.7830  0.3653
  692Sol     OW 5791   0.930   1.224   7.816 -0.7449 -0.3287  0.5394
  692Sol     HW 5792   0.984   1.213   7.894 -1.9477 -0.1614  1.4182
  692Sol     HW 5793   0.992   1.237   7.745  0.3846 -0.9690  1.3936
  692Sol     MW 5794   0.940   1.224   7.817 -0.0774  0.1426  0.3609
  693Sol     OW 5795   1.500   2.901   9.311  0.6637 -0.2328  0.1397
  693Sol     HW 5796   1.543   2.960   9.249 -3.5320 -0.0310 -2.7740
  693Sol     HW 5797   1.498   2.951   9.393 -0.1842  2.5680 -1.4965
  693Sol     MW 5798   1.503   2.911   9.313 -0.1155 -1.2980  0.1265
  694Sol     OW 5799   2.795   2.417   3.519  0.3535 -0.3024  0.1539
  694Sol     HW 5800   2.881   2.442   3.552  0.6255 -2.3603  1.1018
  694Sol     HW 5801   2.736   2.434   3.592 -0.0770  1.1105 -0.4970
  694Sol     MW 5802   2.797   2.421   3.528 -0.3117 -0.1627  0.2118
  695Sol     OW 5803   0.764   0.691   4.832  0.4698  0.1432 -0.0820
  695Sol     HW 5804   0.670   0.697   4.853  0.4971 -1.7602  0.6938
  695Sol     HW 5805   0.774   0.742   4.752 -1.9681 -2.7891 -2.3709
  695Sol     MW 5806   0.756   0.696   4.827 -0.3884 -0.5248  0.0679
  696Sol     OW 5807   0.954   1.094   3.012 -0.0820 -0.2511 -0.0613
  696Sol     HW 5808   1.037   1.141   3.002  0.5600 -1.2634  0.4227
  696Sol     HW 5809   0.975   1.003   2.992 -0.9793 -0.5966  0.5187
  696Sol     MW 5810   0.963   1.090   3.009  0.4144  0.6072 -0.6329
  697Sol     OW 5811   2.284   1.847   9.693  0.9613 -0.0534 -1.0775
  697Sol     HW 5812   2.213   1.907   9.713  0.6867 -1.0127  0.9758
  697Sol     HW 5813   2.362   1.888   9.731  0.3762 -2.0582  2.4900
  697Sol     MW 5814   2.285   1.856   9.698 -0.7141 -0.7778 -0.6406
  698Sol     OW 5815   2.486   0.366   8.886  0.2673 -0.5909 -0.0032
  698Sol     HW 5816   2.470   0.399   8.974  1.0041 -1.9150  0.6549
  698Sol     HW 5817   2.471   0.271   8.894  1.5074 -0.8762 -1.0066
  698Sol     MW 5818   2.483   0.360   8.895  0.4678  0.2051  0.4528
  699Sol     OW 5819   1.414   2.708   1.454 -0.6318  0.0564  0.0905
  699Sol     HW 5820   1.418   2.754   1.370 -0.2897 -1.2367 -0.6180
  699Sol     HW 5821   1.481   2.750   1.507  0.7287 -0.6230 -1.0627
  699Sol     MW 5822   1.420   2.716   1.451  0.5354  0.4189 -0.4266
  700Sol     OW 5823   1.019   0.394   6.803 -0.6358 -0.7461 -0.1611
  700Sol     HW 5824   0.953   0.439   6.855 -0.2008 -0.8553  0.5009
  700Sol     HW 5825   0.975   0.371   6.722 -1.5208 -1.1415  0.4217
  700Sol     MW 5826   1.009   0.396   6.801  0.3462 -0.6454  1.3596
  701Sol     OW 5827   1.233   0.086   4.071 -0.1575 -0.2050 -0.2475
  701Sol     HW 5828   1.235   0.168   4.119 -0.4548  0.2081 -0.9366
  701Sol     HW 5829   1.212   0.020   4.138  0.3287  0.2353  0.3488
  701Sol     MW 5830   1.231   0.087   4.082 -0.4625  0.5499 -0.6360
  702Sol     OW 5831   3.046   0.403   1.894  0.2446  0.1686  0.9854
  702Sol     HW 5832   3.053   0.499   1.893  1.0480  0.1195  1.4046
  702Sol     HW 5833   2.986   0.384   1.967  1.4744  0.2756  2.0296
  702Sol     MW 5834   3.041   0.410   1.900 -0.6831 -1.0282  0.9538
  703Sol     OW 5835   2.941   0.113   2.637  0.2170 -0.0534 -0.3124
  703Sol     HW 5836   2.945   0.207   2.619  1.0941  0.1984  1.1511
  703Sol     HW 5837   2.853   0.099   2.673 -0.0556  0.1287 -0.8948
  703Sol     MW 5838   2.933   0.121   2.638  0.6901 -0.3383  0.0928
  704Sol     OW 5839   2.076   2.268   7.730 -0.0429 -0.3691 -0.1312
  704Sol     HW 5840   2.131   2.235   7.800  0.1149  0.9292  0.3676
  704Sol     HW 5841   1.987   2.264   7.765  0.1058  0.9757  0.4422
  704Sol     MW 5842   2.073   2.265   7.739 -0.2135  0.4947 -0.6452
  705Sol     OW 5843   1.791   2.346   2.742  0.1817 -0.1753 -0.2239
  705Sol     HW 5844   1.710   2.295   2.743  0.4938 -0.6663  0.9111
  705Sol     HW 5845   1.843   2.309   2.814  1.8059 -0.5177 -1.5374
  705Sol     MW 5846   1.789   2.338   2.748 -0.3170 -0.3029 -1.0186
  706Sol     OW 5847   0.268   1.829   7.044  0.1985  0.0274  0.2221
  706Sol     HW 5848   0.345   1.853   7.096 -0.1248  0.9811  0.2762
  706Sol     HW 5849   0.228   1.756   7.092  0.5585  0.1354  0.6892
  706Sol     MW 5850   0.271   1.824   7.053  0.1789 -0.4767  0.8767
  707Sol     OW 5851   1.306   2.962   5.149 -0.2578 -0.4826  0.0887
  707Sol     HW 5852   1.370   3.003   5.208 -2.4634 -0.0584  2.2399
  707Sol     HW 5853   1.325   3.001   5.064  1.9388  0.1282  0.8094
  707Sol     MW 5854   1.314   2.970   5.147  0.0562 -0.8308 -0.4877
  708Sol     OW 5855   2.623   1.410   5.564  0.2545  0.2925  0.2130
  708Sol     HW 5856   2.689   1.357   5.519  0.6704  0.5218  0.5430
  708Sol     HW 5857   2.607   1.363   5.646  2.2621  1.7984  1.5334
  708Sol     MW 5858   2.628   1.401   5.568  0.0309  0.1374 -0.1695
  709Sol     OW 5859   0.648   2.259   5.643  0.0863  0.1581  0.0072
  709Sol     HW 5860   0.693   2.343   5.639  0.7094 -0.1282  0.8337
  709Sol     HW 5861   0.717   2.195   5.627 -0.4492 -0.1836 -0.9714
  709Sol     MW 5862   0.659   2.261   5.641 -0.2101  0.6028 -0.2984
  710Sol     OW 5863   1.282   1.078   9.503  0.2586 -0.3513  0.2452
  710Sol     HW 5864   1.294   1.026   9.424 -0.1920 -1.7059  1.0520
  710Sol     HW 5865   1.336   1.035   9.569  1.1797  1.1734  0.4990
  710Sol     MW 5866   1.288   1.070   9.502 -0.6397 -0.2805  0.0858
  711Sol     OW 5867   2.424   1.490   2.815  0.2169  0.7200 -0.2246
  711Sol     HW 5868   2.514   1.511   2.837  1.1483 -1.3976 -1.8682
  711Sol     HW 5869   2.409   1.534   2.731  0.0779  0.1435 -0.5024
  711Sol     MW 5870   2.430   1.496   2.809 -0.1289  0.6589 -0.7396
  712Sol     OW 5871   0.400   2.101   3.352  0.0527 -0.5570 -0.8965
  712Sol     HW 5872   0.362   2.154   3.282  1.3335  0.4991 -0.8026
  712Sol     HW 5873   0.483   2.070   3.317  1.2075  0.8533  0.5135
  712Sol     MW 5874   0.404   2.103   3.343  0.3112 -0.6914  0.2533
  713Sol     OW 5875   1.146   2.165   9.186  0.4802  0.4851  0.2400
  713Sol     HW 5876   1.064   2.213   9.202 -0.1824 -0.4459 -0.3215
  713Sol     HW 5877   1.187   2.212   9.114  0.4668  0.9808  0.5498
  713Sol     MW 5878   1.142   2.174   9.181  0.1326  0.0210 -0.3190
  714Sol     OW 5879   0.861   0.049   3.739 -0.3508 -0.3526  0.2316
  714Sol     HW 5880   0.940   0.085   3.699 -0.8700 -0.2962 -0.7656
  714Sol     HW 5881   0.853   0.094   3.823  1.8735 -1.9153  1.3339
  714Sol     MW 5882   0.868   0.056   3.743 -0.1590  0.0810 -0.5070
  715Sol     OW 5883   0.842   3.395   6.883  0.3091 -0.5327  0.1066
  715Sol     HW 5884   0.862   3.446   6.804  0.6742 -0.0777  0.4937
  715Sol     HW 5885   0.764   3.345   6.859 -0.1300  0.3058 -0.2357
  715Sol     MW 5886   0.837   3.395   6.874  0.1281  0.2987 -0.2415
  716Sol     OW 5887   1.903   0.185   6.406  0.1286  0.2839  0.2383
  716Sol     HW 5888   1.994   0.159   6.396 -0.0971  0.4353 -2.9702
  716Sol     HW 5889   1.854   0.114   6.364 -1.1453  0.7344  0.9498
  716Sol     MW 5890   1.906   0.176   6.401 -1.1085  0.5986 -0.6633
  717Sol     OW 5891   1.755   0.941   3.836 -0.6593 -0.5399  0.2337
  717Sol     HW 5892   1.791   1.013   3.887  1.1416 -1.1823 -0.1009
  717Sol     HW 5893   1.729   0.876   3.901  2.0582 -1.5521  0.3545
  717Sol     MW 5894   1.756   0.942   3.846 -0.3601 -0.3932  0.2993
  718Sol     OW 5895   3.244   2.990   3.720 -0.3124  0.1256  0.3138
  718Sol     HW 5896   3.302   3.064   3.740  0.9450 -1.0724  1.1668
  718Sol     HW 5897   3.297   2.913   3.737 -1.5620 -0.9876 -0.7613
  718Sol     MW 5898   3.254   2.990   3.723 -0.0120 -0.4986  0.4596
  719Sol     OW 5899   0.199   1.121   5.328  0.2055 -0.0062  0.3589
  719Sol     HW 5900   0.236   1.044   5.284 -1.0227 -0.2082 -0.3437
  719Sol     HW 5901   0.172   1.088   5.414  0.7379 -0.0888  0.4964
  719Sol     MW 5902   0.200   1.111   5.332  0.1177 -0.5955  0.3040
  720Sol     OW 5903   0.844   2.464   5.634 -0.4250 -0.2772 -0.2304
  720Sol     HW 5904   0.927   2.455   5.680 -0.5307 -2.4871 -0.3921
  720Sol     HW 5905   0.865   2.513   5.555  1.0507 -2.1739 -1.0562
  720Sol     MW 5906   0.853   2.467   5.631 -0.3360  0.1095  0.1097
  721Sol     OW 5907   0.205   1.648   8.323 -0.3129 -0.0280  0.1659
  721Sol     HW 5908   0.148   1.652   8.399 -0.1523  1.2754  0.2248
  721Sol     HW 5909   0.192   1.559   8.288 -2.4961  0.3070  0.0705
  721Sol     MW 5910   0.199   1.640   8.326 -0.8937  0.3666 -0.0317
  722Sol     OW 5911   0.408   2.151   5.754 -0.0723 -0.0553 -0.4778
  722Sol     HW 5912   0.485   2.180   5.705 -0.1692  0.5174 -0.3054
  722Sol     HW 5913   0.379   2.230   5.801  0.0464 -0.6034  0.5373
  722Sol     MW 5914   0.412   2.161   5.754  0.8110  0.0340 -0.5323
  723Sol     OW 5915   1.047   2.528   1.620 -0.6757 -0.1213  0.1082
  723Sol     HW 5916   1.126   2.477   1.599 -0.6585 -0.2880  0.5677
  723Sol     HW 5917   1.054   2.607   1.566 -0.7200 -0.6242 -0.6389
  723Sol     MW 5918   1.055   2.530   1.613 -0.1230 -0.1385 -0.1143
  724Sol     OW 5919   1.143   2.107   8.012  0.0161  0.5000 -0.2671
  724Sol     HW 5920   1.127   2.197   7.984  2.0995  0.9025 -0.2835
  724Sol     HW 5921   1.228   2.085   7.973 -1.0217 -1.9017 -1.2429
  724Sol     MW 5922   1.149   2.113   8.006 -0.4583  0.3978  0.5897
  725Sol     OW 5923   0.723   0.010   7.974 -0.5868 -0.6024  0.5418
  725Sol     HW 5924   0.729  -0.080   8.004 -2.0868  0.0796  2.9741
  725Sol     HW 5925   0.811   0.046   7.988 -0.9414 -0.6444  3.0386
  725Sol     MW 5926   0.732   0.005   7.978 -0.1159 -0.0213 -0.1624
  726Sol     OW 5927   2.744   1.493   4.892 -0.1422  0.2205  0.7531
  726Sol     HW 5928   2.658   1.524   4.920 -1.1558 -3.2262  1.5902
  726Sol     HW 5929   2.728   1.408   4.852  2.8323 -0.2279  0.3721
  726Sol     MW 5930   2.735   1.488   4.891  0.0700 -0.3491  0.0237
  727Sol     OW 5931   0.619   1.692   4.349 -0.3642 -0.5928 -0.0211
  727Sol     HW 5932   0.672   1.769   4.331 -1.2328  0.3401  1.3364
  727Sol     HW 5933   0.620   1.642   4.268  1.2154  0.2383 -0.5245
  727Sol     MW 5934   0.624   1.694   4.340 -0.7069 -0.3387 -1.3202
  728Sol     OW 5935   0.780   2.853   4.402  0.7958 -0.2330  0.4488
  728Sol     HW 5936   0.731   2.785   4.357 -1.5438  2.6712 -1.5741
  728Sol     HW 5937   0.851   2.875   4.342 -0.1304  1.0547 -0.1941
  728Sol     MW 5938   0.782   2.849   4.393  0.4971 -0.8602  0.0302
  729Sol     OW 5939   1.278   0.588   7.030 -0.1160  1.0049 -0.3965
  729Sol     HW 5940   1.328   0.648   6.974 -0.0442  1.8239  0.5275
  729Sol     HW 5941   1.296   0.501   6.994  0.9367  1.4092 -0.8749
  729Sol     MW 5942   1.284   0.585   7.022  0.7230 -0.3949 -0.6220
  730Sol     OW 5943   2.831   1.029  10.004 -0.1626  0.1689 -0.2296
  730Sol     HW 5944   2.859   0.980   9.926  3.1971  0.8562  0.4551
  730Sol     HW 5945   2.874   0.984  10.077 -0.7144  1.4298  0.8935
  730Sol     MW 5946   2.837   1.020  10.003  1.1506 -0.2941  0.8258
  731Sol     OW 5947   1.473   3.003   6.846 -0.7228  0.4093  0.3908
  731Sol     HW 5948   1.559   3.044   6.858 -0.6655 -0.1918  2.1702
  731Sol     HW 5949   1.414   3.076   6.830 -0.6977  1.2896  3.9666
  731Sol     MW 5950   1.476   3.013   6.845 -0.2214  0.5742  0.1313
  732Sol     OW 5951   1.947   1.436   5.282  0.2633  0.0787  0.8158
  732Sol     HW 5952   1.988   1.522   5.275 -2.4332  1.3171 -0.5466
  732Sol     HW 5953   1.911   1.435   5.371  1.2552 -0.1183  1.2269
  732Sol     MW 5954   1.947   1.444   5.290 -0.3413 -0.8970 -0.6538
  733Sol     OW 5955   2.701   2.065   7.349 -0.4076  0.7664 -0.4340
  733Sol     HW 5956   2.700   2.158   7.327 -2.0630  0.5473 -1.3820
  733Sol     HW 5957   2.619   2.031   7.313  0.1055 -1.0303  0.0411
  733Sol     MW 5958   2.693   2.070   7.344 -0.7719 -0.5509 -0.3645
  734Sol     OW 5959   2.444   0.013   3.129 -0.1477 -0.1787 -0.5571
  734Sol     HW 5960   2.415  -0.037   3.205 -0.9907  0.3420 -0.5278
  734Sol     HW 5961   2.408   0.101   3.143 -1.4814 -0.4407 -2.2365
  734Sol     MW 5962   2.438   0.017   3.138 -0.2593  0.3115 -0.5515
  735Sol     OW 5963   0.883   2.771   2.433 -0.2243  0.4367  0.2376
  735Sol     HW 5964   0.803   2.755   2.384  0.0812  3.5098 -1.3705
  735Sol     HW 5965   0.953   2.768   2.367  0.5941  1.2105  1.0489
  735Sol     MW 5966   0.882   2.769   2.422  0.9268 -0.5390 -0.8889
  736Sol     OW 5967   2.394   0.470   2.338 -0.2625  0.5729 -0.1973
  736Sol     HW 5968   2.319   0.457   2.281 -1.3739 -0.7090  1.4919
  736Sol     HW 5969   2.443   0.388   2.332 -0.8996  0.0577  1.3888
  736Sol     MW 5970   2.392   0.462   2.333 -0.8543 -0.2268  0.1001
  737Sol     OW 5971   3.103   2.080   2.300 -0.1358  0.3013  0.1747
  737Sol     HW 5972   3.134   1.989   2.297 -1.3031 -0.0631 -1.7417
  737Sol     HW 5973   3.175   2.131   2.262 -1.2904 -0.3968 -3.0958
  737Sol     MW 5974   3.112   2.076   2.297 -0.3126 -0.1660 -0.6872
  738Sol     OW 5975   1.364   1.615   2.032 -0.5694  0.1134  0.5444
  738Sol     HW 5976   1.350   1.709   2.045 -2.1245  0.0656 -0.7257
  738Sol     HW 5977   1.453   1.610   1.995  0.0863  0.9557  1.9634
  738Sol     MW 5978   1.371   1.623   2.030  0.1011 -0.9196  0.1120
  739Sol     OW 5979   2.835   1.938   4.710 -0.0356  0.5413 -0.0729
  739Sol     HW 5980   2.851   1.849   4.742 -0.5733  0.6183  0.4261
  739Sol     HW 5981   2.888   1.994   4.765  0.8456  0.4791 -0.8388
  739Sol     MW 5982   2.841   1.935   4.717  0.4893  0.1268  0.6532
  740Sol     OW 5983   2.776   3.276   3.152  1.1043 -0.1408  0.0264
  740Sol     HW 5984   2.748   3.367   3.149  2.3498  0.2543  0.0942
  740Sol     HW 5985   2.772   3.252   3.244 -3.1246 -1.4342 -0.3604
  740Sol     MW 5986   2.773   3.282   3.160  0.2688  0.1002  0.0065
  741Sol     OW 5987   0.448   3.366   3.157 -0.2479  0.0980  0.3634
  741Sol     HW 5988   0.462   3.429   3.229 -0.7102  2.1528 -1.2853
  741Sol     HW 5989   0.536   3.338   3.133  0.3343  3.2109 -1.4956
  741Sol     MW 5990   0.457   3.369   3.162  0.2668  0.3111 -0.2161
  742Sol     OW 5991   0.263   2.131   9.548 -0.0718  0.1364  0.0834
  742Sol     HW 5992   0.300   2.092   9.469  0.2793  0.5134  0.0554
  742Sol     HW 5993   0.325   2.107   9.617 -0.4792 -0.3544  0.2811
  742Sol     MW 5994   0.272   2.126   9.547 -0.6347 -0.5582  0.1018
  743Sol     OW 5995   2.474   1.372   7.599  0.3622 -0.3315 -0.0446
  743Sol     HW 5996   2.426   1.378   7.516 -0.4335  1.3483  0.5144
  743Sol     HW 5997   2.436   1.295   7.643  2.0136 -2.3031 -1.9761
  743Sol     MW 5998   2.466   1.365   7.596  0.8514  0.4809  0.7971
  744Sol     OW 5999   2.194   0.986   3.303  0.5386  0.2962  0.2390
  744Sol     HW 6000   2.129   1.055   3.291  0.5554  0.1210 -0.9758
  744Sol     HW 6001   2.183   0.958   3.394 -1.0045  0.3503  0.0836
  744Sol     MW 6002   2.188   0.990   3.310 -0.5608 -0.5528 -0.4085
  745Sol     OW 6003   0.475   1.690   2.513 -0.0583  0.2913  0.0792
  745Sol     HW 6004   0.463   1.616   2.453  2.3021 -0.9261  1.0429
  745Sol     HW 6005   0.470   1.651   2.600  3.0038  0.8925  0.5931
  745Sol     MW 6006   0.474   1.680   2.515  0.5680  0.1689 -0.1006
  746Sol     OW 6007   1.272   0.869   7.810  1.0165 -0.6415  0.4775
  746Sol     HW 6008   1.225   0.928   7.751  0.6205 -1.6801 -0.2675
  746Sol     HW 6009   1.345   0.921   7.844  2.1517 -0.4863 -2.1261
  746Sol     MW 6010   1.274   0.879   7.808 -0.6843 -0.1042  0.4318
  747Sol     OW 6011   3.226   2.261   6.833  0.6669 -0.0861  0.0971
  747Sol     HW 6012   3.136   2.228   6.833  0.6355  0.0055  0.3700
  747Sol     HW 6013   3.236   2.307   6.916  0.7059  0.6220 -0.2924
  747Sol     MW 6014   3.219   2.262   6.840 -0.3481 -0.6726  0.2695
  748Sol     OW 6015   3.012   1.199   3.932  0.2526  0.2226  0.6351
  748Sol     HW 6016   2.926   1.161   3.951  0.6247  0.1882  2.3930
  748Sol     HW 6017   3.001   1.244   3.849 -0.7843 -1.9425 -0.4303
  748Sol     MW 6018   3.003   1.199   3.927 -0.3772  0.3233 -0.0326
  749Sol     OW 6019   0.707   0.331   7.557  0.2356 -0.2617  0.7799
  749Sol     HW 6020   0.658   0.413   7.553 -1.0896 -1.1189 -1.4488
  749Sol     HW 6021   0.682   0.292   7.641  0.2554  1.2242  1.4808
  749Sol     MW 6022   0.701   0.335   7.565 -0.0579 -0.1381  0.7164
  750Sol     OW 6023   2.942   3.200   6.330  0.0866  0.2997  0.6401
  750Sol     HW 6024   2.874   3.266   6.316 -1.1561 -1.0813 -0.0686
  750Sol     HW 6025   2.967   3.172   6.241 -1.1355 -1.8714  0.9445
  750Sol     MW 6026   2.938   3.203   6.321 -0.6708  0.5521 -0.1255
  751Sol     OW 6027   0.792   1.783   4.912 -0.6001  0.7215  0.1130
  751Sol     HW 6028   0.713   1.781   4.966 -0.6098  0.4139  0.0874
  751Sol     HW 6029   0.810   1.691   4.892 -0.8040  0.8574 -0.7095
  751Sol     MW 6030   0.786   1.775   4.915 -0.1257  0.6072  0.5212
  752Sol     OW 6031   1.557   0.628   5.966 -0.0816  0.1404  0.1613
  752Sol     HW 6032   1.594   0.666   6.045  0.3871  1.2032 -0.5629
  752Sol     HW 6033   1.478   0.582   5.996  1.1054 -1.0680  1.5212
  752Sol     MW 6034   1.553   0.627   5.976  0.2266 -0.3273 -0.0348
  753Sol     OW 6035   1.552   2.037   2.300  0.6165 -0.3698  0.2123
  753Sol     HW 6036   1.457   2.039   2.312  0.2734  0.4421 -2.2527
  753Sol     HW 6037   1.587   2.092   2.369 -0.8289  0.5492  0.2255
  753Sol     MW 6038   1.547   2.042   2.307 -0.1579  0.2619 -0.4723
  754Sol     OW 6039   0.716   2.246   4.884  0.4300 -0.0322  0.1386
  754Sol     HW 6040   0.810   2.236   4.896  0.5135 -0.7037 -1.0294
  754Sol     HW 6041   0.684   2.278   4.968  1.7380  0.4531  0.4602
  754Sol     MW 6042   0.721   2.248   4.892 -0.6626 -0.5635  0.3126
  755Sol     OW 6043   2.670   1.124   2.738  0.0522  0.8638 -0.7327
  755Sol     HW 6044   2.683   1.140   2.831  0.0864  0.6789 -0.7052
  755Sol     HW 6045   2.576   1.108   2.730  0.1346  0.3393 -0.6471
  755Sol     MW 6046   2.663   1.124   2.745 -0.1808  0.3946 -0.0818
  756Sol     OW 6047   1.346   0.956   5.903  0.2321  0.7378 -0.3036
  756Sol     HW 6048   1.276   0.965   5.838 -0.8082  0.1330  0.7095
  756Sol     HW 6049   1.421   1.000   5.864  0.0609 -0.8914 -2.5577
  756Sol     MW 6050   1.346   0.961   5.894  0.0644 -0.9162  0.4126
  757Sol     OW 6051   2.204   2.411   5.818  0.4302 -0.1412 -0.1490
  757Sol     HW 6052   2.200   2.380   5.908 -0.6869  0.7692  0.1372
  757Sol     HW 6053   2.175   2.337   5.765 -1.6970  0.2094  0.4768
  757Sol     MW 6054   2.201   2.402   5.821 -0.1116 -0.0512  0.1673
  758Sol     OW 6055   0.161   2.902   9.314  1.0292 -0.1408 -0.1125
  758Sol     HW 6056   0.205   2.986   9.297 -1.5874  0.9678 -1.8419
  758Sol     HW 6057   0.119   2.881   9.230  0.7914 -2.6702  0.6216
  758Sol     MW 6058   0.162   2.908   9.305 -0.8852 -0.2536  0.6419
  759Sol     OW 6059   2.647   1.593   3.162 -0.2724 -0.4295 -0.2157
  759Sol     HW 6060   2.677   1.507   3.193  0.4301  0.0615  0.4802
  759Sol     HW 6061   2.560   1.603   3.200 -1.2034 -1.6984 -1.9357
  759Sol     MW 6062   2.642   1.586   3.168  0.5194  0.1400 -0.2137
  760Sol     OW 6063   2.621   1.904   5.123  0.2102  0.5810  0.1567
  760Sol     HW 6064   2.639   1.909   5.029  0.2604 -0.0598  0.1321
  760Sol     HW 6065   2.694   1.853   5.158  0.3868  1.1298  0.6003
  760Sol     MW 6066   2.629   1.900   5.118 -0.1405 -1.0470  0.4061
  761Sol     OW 6067   2.736   3.441   6.396  0.0302 -0.4951  0.3650
  761Sol     HW 6068   2.656   3.449   6.344  0.8416 -2.3196 -1.2184
  761Sol     HW 6069   2.801   3.492   6.348 -0.6608  2.9195  2.8440
  761Sol     MW 6070   2.735   3.446   6.387  0.6539 -0.7172 -0.5306
  762Sol     OW 6071   0.285   0.980   6.369  0.4138 -0.0011  0.2313
  762Sol     HW 6072   0.203   0.941   6.397  0.8292 -0.0123  1.5056
  762Sol     HW 6073   0.330   0.911   6.320 -0.4889  0.1276 -0.7700
  762Sol     MW 6074   0.282   0.970   6.367 -0.3058 -0.1227 -0.5762
  763Sol     OW 6075   1.523   0.345   2.299 -0.2625  0.0432  0.2586
  763Sol     HW 6076   1.435   0.357   2.264  0.1029  1.3626 -0.2431
  763Sol     HW 6077   1.575   0.317   2.224  0.2517  1.6458 -0.0085
  763Sol     MW 6078   1.520   0.344   2.289 -0.0595  0.2172 -0.3088
  764Sol     OW 6079   0.781   0.892   6.059  0.4382 -0.0072 -0.5218
  764Sol     HW 6080   0.747   0.936   6.137  1.0394  0.4323 -0.5061
  764Sol     HW 6081   0.783   0.800   6.083 -2.1372 -0.2385 -1.0248
  764Sol     MW 6082   0.778   0.888   6.068 -0.3080 -1.1695 -0.2204
  765Sol     OW 6083   1.048   0.617   7.175  0.5069  0.6226 -0.3980
  765Sol     HW 6084   1.125   0.619   7.118  0.6367  0.6305 -0.2216
  765Sol     HW 6085   1.063   0.542   7.232 -0.2738 -0.2417 -1.2934
  765Sol     MW 6086   1.056   0.610   7.175 -0.0835  0.6551  0.1838
  766Sol     OW 6087   3.128   0.160   6.085  0.5820 -0.2397  0.2918
  766Sol     HW 6088   3.142   0.077   6.039  0.7296  0.0211 -0.1443
  766Sol     HW 6089   3.158   0.144   6.174  1.0714 -0.5115  0.0815
  766Sol     MW 6090   3.132   0.151   6.089 -0.7475  0.4642 -1.0095
  767Sol     OW 6091   2.154   1.034   7.524 -0.1924 -0.0278 -0.4510
  767Sol     HW 6092   2.143   1.042   7.619  1.2426  1.4750 -0.4073
  767Sol     HW 6093   2.244   1.004   7.512 -0.1596  0.4244 -1.3721
  767Sol     MW 6094   2.161   1.032   7.531  0.1435 -0.5680 -0.4825
  768Sol     OW 6095   0.907   2.826   5.214  0.1014  0.1198  0.3121
  768Sol     HW 6096   0.868   2.913   5.206  1.3213  0.6923  0.4839
  768Sol     HW 6097   0.838   2.766   5.188  0.0366  1.2769 -2.3212
  768Sol     MW 6098   0.898   2.829   5.211 -0.2636 -0.2837  0.6946
  769Sol     OW 6099   0.104   2.483   9.374 -0.0316  0.5539  0.2375
  769Sol     HW 6100   0.085   2.564   9.423  0.4961  0.5593  0.4393
  769Sol     HW 6101   0.192   2.496   9.340 -0.4573  0.6226 -0.8772
  769Sol     MW 6102   0.110   2.492   9.375  0.0991 -0.3623 -0.6644
  770Sol     OW 6103   0.194   0.535   9.432 -0.2187 -0.0187  0.5878
  770Sol     HW 6104   0.240   0.584   9.364 -2.4653  0.0279 -0.9433
  770Sol     HW 6105   0.163   0.602   9.493  0.4421  0.0741  0.8275
  770Sol     MW 6106   0.195   0.545   9.432 -0.1499 -0.2732  0.9609
  771Sol     OW 6107   1.282   1.544   5.222 -0.2302 -0.1436  0.0579
  771Sol     HW 6108   1.356   1.486   5.238 -0.7331 -0.7311  0.2808
  771Sol     HW 6109   1.209   1.503   5.269 -0.6286  0.5815  0.0829
  771Sol     MW 6110   1.282   1.535   5.228 -0.3956 -0.6659  0.0092
  772Sol     OW 6111   2.663   1.386   8.756 -0.3497  0.0818 -0.6102
  772Sol     HW 6112   2.725   1.442   8.803  0.4379 -0.1951 -1.3005
  772Sol     HW 6113   2.666   1.417   8.665 -2.1712  0.8833 -0.4133
  772Sol     MW 6114   2.669   1.393   8.752 -1.4633 -0.4292  0.1846
  773Sol     OW 6115   0.964   0.448   9.288  0.1816 -0.8227 -0.0223
  773Sol     HW 6116   1.056   0.470   9.277  0.5306 -1.9181  0.6504
  773Sol     HW 6117   0.943   0.478   9.377 -0.1566 -0.4253 -0.2347
  773Sol     MW 6118   0.970   0.453   9.295  0.6365 -0.4405  0.7431
  774Sol     OW 6119   1.298   1.424   6.581 -0.5476  0.1108 -0.2871
  774Sol     HW 6120   1.239   1.417   6.506  0.8217 -2.5597 -1.1704
  774Sol     HW 6121   1.271   1.353   6.640 -0.4725  1.0855  0.9490
  774Sol     MW 6122   1.290   1.417   6.580 -0.3449 -0.5190  0.5677
  775Sol     OW 6123   0.181   1.613   6.752  0.1201 -0.1581  0.1873
  775Sol     HW 6124   0.164   1.569   6.836  0.2828  1.3597  1.0397
  775Sol     HW 6125   0.133   1.561   6.688  0.5626 -1.7595  1.1220
  775Sol     MW 6126   0.175   1.605   6.754  0.4774 -0.6476 -0.3855
  776Sol     OW 6127   1.209   2.018   6.988 -0.0311 -0.0906 -0.5624
  776Sol     HW 6128   1.206   1.927   7.020 -0.8923 -0.0435 -0.4885
  776Sol     HW 6129   1.283   2.057   7.034 -1.6540  0.1580  1.9026
  776Sol     MW 6130   1.215   2.013   6.995  0.3774 -0.0629 -0.4494
  777Sol     OW 6131   1.551   0.811   1.592 -0.6568 -0.1911  0.3131
  777Sol     HW 6132   1.535   0.723   1.557  0.6267 -0.8547  1.3603
  777Sol     HW 6133   1.633   0.838   1.551  0.1799 -0.4453  1.7895
  777Sol     MW 6134   1.557   0.806   1.585 -0.3017 -0.8176  0.0086
  778Sol     OW 6135   1.255   1.728   5.656  0.6764  0.0714 -0.1448
  778Sol     HW 6136   1.228   1.820   5.656 -1.4700 -0.5346 -0.7648
  778Sol     HW 6137   1.316   1.721   5.582  0.4794  0.8861 -0.3968
  778Sol     MW 6138   1.258   1.736   5.649  0.0960 -1.0057  0.4561
  779Sol     OW 6139   2.909   2.586   8.120  0.1294 -0.3888  0.1075
  779Sol     HW 6140   2.893   2.668   8.073 -0.2643  0.2659  1.3578
  779Sol     HW 6141   2.923   2.521   8.051 -2.4621  0.1458 -0.9832
  779Sol     MW 6142   2.908   2.588   8.109  1.0688 -0.4112 -0.2232
  780Sol     OW 6143   3.220   1.202   8.471  0.6003 -0.4094 -0.3679
  780Sol     HW 6144   3.201   1.118   8.429  0.0166 -0.6931  0.4700
  780Sol     HW 6145   3.140   1.253   8.461  0.9446  0.0457 -0.8499
  780Sol     MW 6146   3.211   1.199   8.466  0.5761 -0.1962 -0.0083
  781Sol     OW 6147   0.510   0.578   2.787  0.0162 -0.2544  0.6113
  781Sol     HW 6148   0.467   0.558   2.870 -0.5342 -0.7868  0.1997
  781Sol     HW 6149   0.474   0.515   2.725 -0.4240  0.8686 -0.2961
  781Sol     MW 6150   0.503   0.571   2.789 -0.3742 -0.4481  0.0683
  782Sol     OW 6151   1.847   1.443   6.129 -0.1411  0.0442 -0.1402
  782Sol     HW 6152   1.764   1.444   6.081 -1.6528  1.2692  2.3574
  782Sol     HW 6153   1.889   1.526   6.106  0.3356 -0.5014 -1.2785
  782Sol     MW 6154   1.843   1.450   6.123  0.6396  0.1059  0.1526
  783Sol     OW 6155   0.159   3.131   4.803 -0.5288 -0.1740 -0.2077
  783Sol     HW 6156   0.157   3.103   4.894 -3.0989  1.7924  0.3782
  783Sol     HW 6157   0.151   3.049   4.753 -2.2729 -1.0141  1.3862
  783Sol     MW 6158   0.158   3.121   4.806 -0.3214  0.8265 -0.4886
  784Sol     OW 6159   0.330   2.741   8.680 -0.5654  0.3289  0.2918
  784Sol     HW 6160   0.311   2.691   8.601 -0.3236 -2.6669  2.0613
  784Sol     HW 6161   0.422   2.765   8.673  0.0191 -1.7576  0.6130
  784Sol     MW 6162   0.337   2.739   8.673 -0.3875 -1.1058 -0.4944
  785Sol     OW 6163   1.874   2.526   3.605  0.5262 -0.1010  0.2214
  785Sol     HW 6164   1.783   2.558   3.602 -0.0951 -1.9523 -2.1089
  785Sol     HW 6165   1.923   2.590   3.554  0.0288 -0.5772 -0.8697
  785Sol     MW 6166   1.870   2.535   3.601 -0.6889 -0.8219  0.5261
  786Sol     OW 6167   3.048   2.742   2.916  0.1018 -0.3093 -0.0184
  786Sol     HW 6168   3.106   2.812   2.885 -1.0491  0.7488  0.1803
  786Sol     HW 6169   3.106   2.670   2.936  1.3918  0.8708  0.5400
  786Sol     MW 6170   3.058   2.742   2.915 -0.5358 -0.2627 -1.0427
  787Sol     OW 6171   3.168   2.654   3.427 -0.5175 -0.1120  0.2219
  787Sol     HW 6172   3.164   2.593   3.353 -0.1554 -0.1379  0.2200
  787Sol     HW 6173   3.218   2.729   3.394 -0.2866 -0.1594  0.4631
  787Sol     MW 6174   3.172   2.655   3.418 -0.0004  0.5916  0.6158
  788Sol     OW 6175   1.134   2.815   9.540  0.0505 -0.1728 -0.3143
  788Sol     HW 6176   1.168   2.893   9.496  1.0512 -0.4347 -0.0244
  788Sol     HW 6177   1.100   2.847   9.623  1.5752 -0.2069  0.3410
  788Sol     MW 6178   1.134   2.825   9.543 -0.5701 -0.3056 -0.1242
  789Sol     OW 6179   0.140   0.273   8.176 -0.2451  0.0307 -0.1006
  789Sol     HW 6180   0.213   0.214   8.160  0.8597  1.6262 -1.0724
  789Sol     HW 6181   0.174   0.335   8.241 -1.2773 -0.1969  0.6627
  789Sol     MW 6182   0.150   0.273   8.181 -0.1224 -0.1280 -0.2796
  790Sol     OW 6183   1.454   2.995   5.844 -0.3806 -0.0389  0.2120
  790Sol     HW 6184   1.545   2.988   5.817  0.2533 -0.7587  2.4362
  790Sol     HW 6185   1.417   3.064   5.788  1.3706 -0.1220 -1.0614
  790Sol     MW 6186   1.458   3.001   5.837 -0.8213  0.1273  0.2598
  791Sol     OW 6187   2.517   0.350   2.738 -0.3824 -0.5064  0.2212
  791Sol     HW 6188   2.589   0.385   2.686  0.3489 -2.5441 -0.2095
  791Sol     HW 6189   2.439   0.370   2.686 -0.0325  0.7174  0.1432
  791Sol     MW 6190   2.516   0.355   2.729 -0.0773 -0.0543  0.5652
  792Sol     OW 6191   0.037   1.767   7.629  0.0971 -0.2000 -0.0441
  792Sol     HW 6192   0.084   1.817   7.562  1.6864 -1.7612 -0.1205
  792Sol     HW 6193   0.068   1.804   7.712 -0.5826  0.5811 -0.1331
  792Sol     MW 6194   0.044   1.775   7.630  0.3605 -0.0802 -0.1105
  793Sol     OW 6195   3.102   1.385   2.615  0.2101  0.0566 -0.2988
  793Sol     HW 6196   3.122   1.416   2.527  0.7056  1.1950  0.2028
  793Sol     HW 6197   3.006   1.381   2.619  0.1327  1.9235 -0.2384
  793Sol     MW 6198   3.095   1.387   2.608 -0.2279 -0.3494 -0.0886
  794Sol     OW 6199   2.988   2.816   9.607  0.1563  0.0536  0.1148
  794Sol     HW 6200   2.953   2.729   9.584 -0.1557 -0.2910  1.8333
  794Sol     HW 6201   2.911   2.872   9.613  0.1926  0.0363  0.7523
  794Sol     MW 6202   2.978   2.813   9.606 -0.2949  0.3499  0.0315
  795Sol     OW 6203   1.251   3.006   6.552 -0.2082  0.0407  0.1941
  795Sol     HW 6204   1.205   2.927   6.524  1.1750 -0.6047 -0.3119
  795Sol     HW 6205   1.221   3.021   6.641 -0.4982 -1.0354  0.2870
  795Sol     MW 6206   1.244   3.000   6.557  0.6435  0.4242  0.1413
  796Sol     OW 6207   2.958   1.428   2.026  0.1749 -0.4822  0.3935
  796Sol     HW 6208   3.022   1.499   2.017  0.2200 -0.7028 -1.0419
  796Sol     HW 6209   3.011   1.351   2.047  0.3383 -0.5526 -0.2663
  796Sol     MW 6210   2.969   1.427   2.027 -0.1141  0.3309  1.0956
  797Sol     OW 6211   0.109   1.237   7.356  0.7515  0.6833 -0.4134
  797Sol     HW 6212   0.169   1.170   7.321  1.3490  0.1439  1.5799
  797Sol     HW 6213   0.103   1.217   7.449 -1.2607  1.7486 -0.2908
  797Sol     MW 6214   0.114   1.229   7.361 -0.4685  0.2095  0.3240
  798Sol     OW 6215   2.366   2.483   3.704  0.2666 -0.1921 -0.3287
  798Sol     HW 6216   2.443   2.534   3.680 -0.3006  0.3097 -1.1021
  798Sol     HW 6217   2.402   2.404   3.746  1.1379  0.7554  0.7271
  798Sol     MW 6218   2.376   2.480   3.705  0.0396 -0.0776 -0.2893
  799Sol     OW 6219   0.062   2.893   7.065 -0.1185 -0.1595  0.3683
  799Sol     HW 6220   0.111   2.829   7.014 -0.2997 -1.4645  1.7805
  799Sol     HW 6221  -0.025   2.895   7.024  0.3687  0.3955 -0.6633
  799Sol     MW 6222   0.058   2.888   7.057  0.2451 -0.4414  0.0071
  800Sol     OW 6223   3.314   1.835   9.872  0.0110  0.0584  0.1888
  800Sol     HW 6224   3.373   1.791   9.811 -2.1884  0.2841 -2.1699
  800Sol     HW 6225   3.262   1.765   9.911  0.3404  0.0761  0.6782
  800Sol     MW 6226   3.315   1.825   9.870  0.2739  0.4902 -0.3091
  801Sol     OW 6227   2.993   1.824   6.086  0.4393  0.1312  0.6293
  801Sol     HW 6228   2.945   1.851   6.007  0.8793 -0.3152  0.2050
  801Sol     HW 6229   3.079   1.798   6.053  0.4571 -0.5171  1.2028
  801Sol     MW 6230   2.996   1.824   6.076  0.2690 -0.0934 -0.1844
  802Sol     OW 6231   3.078   0.155   9.115 -0.1177  0.4453 -0.3647
  802Sol     HW 6232   3.058   0.062   9.128 -0.0644  0.3998 -0.6074
  802Sol     HW 6233   3.128   0.157   9.033  1.9325  0.4189  0.8597
  802Sol     MW 6234   3.081   0.146   9.109 -0.6519  0.0435  0.6400
  803Sol     OW 6235   2.564   3.278   2.037  0.0490  0.1734  0.5681
  803Sol     HW 6236   2.472   3.256   2.052 -0.1752  1.0288  0.4993
  803Sol     HW 6237   2.567   3.374   2.044  0.4580  0.3836 -1.8599
  803Sol     MW 6238   2.556   3.285   2.039 -0.0970  0.2567 -0.1678
  804Sol     OW 6239   0.785   2.914   8.782  0.2930  0.3237  0.2825
  804Sol     HW 6240   0.874   2.935   8.755  0.7029 -2.5701 -0.8444
  804Sol     HW 6241   0.789   2.906   8.877  0.8824  1.6856  0.3772
  804Sol     MW 6242   0.793   2.915   8.788 -0.1604 -0.0296  0.2026
  805Sol     OW 6243   2.532   2.694   9.809 -0.5323  1.0417  0.2313
  805Sol     HW 6244   2.544   2.728   9.721 -1.3705 -0.6835 -0.5774
  805Sol     HW 6245   2.486   2.610   9.797  0.7562 -0.0023  2.1755
  805Sol     MW 6246   2.529   2.689   9.800  0.5166 -0.0668  0.5458
  806Sol     OW 6247   1.365   2.601   2.194 -0.2764  0.0602  0.2282
  806Sol     HW 6248   1.322   2.543   2.257 -1.8875 -0.6259 -1.4338
  806Sol     HW 6249   1.306   2.600   2.118  1.6019  0.8971 -1.2584
  806Sol     MW 6250   1.356   2.596   2.193 -0.7640  0.2747 -0.1944
  807Sol     OW 6251   1.520   2.087   4.231 -0.0111 -0.1901 -0.4806
  807Sol     HW 6252   1.504   2.138   4.310 -1.1286 -0.1590 -0.7172
  807Sol     HW 6253   1.576   2.143   4.177 -0.4995  0.4178 -0.3589
  807Sol     MW 6254   1.523   2.096   4.233  0.0083  0.7763  1.2629
  808Sol     OW 6255   0.076   2.106   4.907  0.3652  0.1437  0.2840
  808Sol     HW 6256   0.075   2.178   4.970  0.8884 -0.3433  0.8610
  808Sol     HW 6257   0.157   2.058   4.927  0.9895  0.4975 -1.3476
  808Sol     MW 6258   0.083   2.108   4.914  0.9158  0.2696 -0.7445
  809Sol     OW 6259   1.917   0.194   1.855  0.1892 -0.3066  0.0223
  809Sol     HW 6260   1.925   0.251   1.932 -1.8162 -0.7839  0.6164
  809Sol     HW 6261   1.904   0.107   1.892 -0.4792 -0.5835 -0.8631
  809Sol     MW 6262   1.916   0.192   1.865  0.3595 -0.7843  0.1176
  810Sol     OW 6263   1.757   2.380   4.696  0.4048 -0.0492 -0.1068
  810Sol     HW 6264   1.716   2.404   4.779 -1.4639  0.3392 -1.0939
  810Sol     HW 6265   1.851   2.385   4.712  0.0578  0.6490  1.7941
  810Sol     MW 6266   1.761   2.383   4.705 -0.5289 -0.8053  1.1179
  811Sol     OW 6267   2.782   1.443   8.132  0.0754 -0.3415 -0.3762
  811Sol     HW 6268   2.783   1.373   8.066  2.3206 -0.1557 -0.5924
  811Sol     HW 6269   2.875   1.465   8.144 -0.4747  1.2004  1.1825
  811Sol     MW 6270   2.791   1.438   8.127  0.1277 -0.8342  0.0793
  812Sol     OW 6271   3.249   1.529   2.785  0.1441 -0.0947  0.1162
  812Sol     HW 6272   3.201   1.475   2.723 -0.1950  0.6408 -0.2652
  812Sol     HW 6273   3.334   1.486   2.794 -0.0423 -0.5621 -0.3566
  812Sol     MW 6274   3.253   1.521   2.781  0.1284  0.1442 -0.5138
  813Sol     OW 6275   0.348   0.958   2.537 -0.2219  0.0801  0.7198
  813Sol     HW 6276   0.356   0.925   2.627 -0.5635  1.3471  1.2325
  813Sol     HW 6277   0.412   0.908   2.487  0.4217 -0.2007  1.8043
  813Sol     MW 6278   0.354   0.951   2.541 -0.4603  0.1211  0.0126
  814Sol     OW 6279   0.962   0.715   4.525  0.6161  0.0750 -0.5250
  814Sol     HW 6280   0.906   0.791   4.513  0.6998 -0.0537 -1.7488
  814Sol     HW 6281   1.008   0.705   4.442  0.0127 -1.8007 -0.6545
  814Sol     MW 6282   0.961   0.721   4.516  0.0155 -0.0003  0.2207
  815Sol     OW 6283   3.168   1.373   6.405  0.1059 -0.0668 -0.4883
  815Sol     HW 6284   3.214   1.446   6.362  0.4758  1.4917  2.4171
  815Sol     HW 6285   3.186   1.385   6.498 -1.0519 -3.0784  0.1780
  815Sol     MW 6286   3.174   1.381   6.410 -0.6709  0.4915  0.5389
  816Sol     OW 6287   1.746   2.152   4.520 -0.3899 -0.6065 -0.0917
  816Sol     HW 6288   1.804   2.165   4.445 -0.4388  1.9470  0.2759
  816Sol     HW 6289   1.758   2.231   4.574 -4.4005  0.1485 -0.1348
  816Sol     MW 6290   1.753   2.160   4.518 -0.2709 -0.7433  0.9796
  817Sol     OW 6291   1.742   1.832   9.187 -0.5195  0.2005  0.6766
  817Sol     HW 6292   1.748   1.927   9.174 -0.6149  0.4613  2.4369
  817Sol     HW 6293   1.649   1.813   9.176 -0.5831  0.3871  0.8929
  817Sol     MW 6294   1.734   1.839   9.184  0.4461 -0.7527 -0.2979
  818Sol     OW 6295   1.476   2.102   7.171 -0.6519 -0.1787 -0.1096
  818Sol     HW 6296   1.543   2.093   7.103 -0.2219  0.9055  0.1575
  818Sol     HW 6297   1.517   2.064   7.249  0.4554  2.2740  0.5594
  818Sol     MW 6298   1.486   2.098   7.172 -0.0087 -0.3447 -0.0721
  819Sol     OW 6299   2.738   2.534   3.279 -0.3807 -0.3471 -0.0012
  819Sol     HW 6300   2.729   2.627   3.301 -0.8376 -0.0625 -1.3408
  819Sol     HW 6301   2.756   2.491   3.363  0.0937  0.9804  0.5945
  819Sol     MW 6302   2.739   2.538   3.289 -0.1205 -0.2147 -0.5455
  820Sol     OW 6303   2.197   1.174   5.485  0.3933 -0.2239 -0.2017
  820Sol     HW 6304   2.176   1.082   5.469  2.7947 -0.9106  0.3603
  820Sol     HW 6305   2.216   1.209   5.399 -0.2534 -0.3317 -0.3887
  820Sol     MW 6306   2.197   1.169   5.476 -1.1134  0.1241  0.5441
  821Sol     OW 6307   2.872   1.178   7.616 -0.2723  0.3263  0.1585
  821Sol     HW 6308   2.938   1.185   7.685  0.9674  1.2507 -1.1029
  821Sol     HW 6309   2.838   1.089   7.624  3.7043 -1.4294 -1.4835
  821Sol     MW 6310   2.875   1.171   7.623  0.2102  0.4664  0.2275
  822Sol     OW 6311   2.000   2.084   9.135 -0.2968  0.1159 -0.3914
  822Sol     HW 6312   1.911   2.095   9.103 -0.0751  0.6627 -0.8343
  822Sol     HW 6313   2.048   2.159   9.099  0.1451  0.2921  0.5576
  822Sol     MW 6314   1.997   2.091   9.129  0.1661 -0.3118 -0.3824
  823Sol     OW 6315   1.191   0.161   7.186  0.4701  0.6146 -0.9054
  823Sol     HW 6316   1.273   0.122   7.214 -0.2166 -1.3633 -1.5477
  823Sol     HW 6317   1.144   0.089   7.142 -1.4815  1.7648 -0.7626
  823Sol     MW 6318   1.194   0.151   7.185 -0.0884  0.2335  0.6437
  824Sol     OW 6319   1.653   3.175   4.837 -0.4011 -0.0271  0.3373
  824Sol     HW 6320   1.636   3.096   4.888 -2.2840  1.8038  2.7027
  824Sol     HW 6321   1.632   3.150   4.747  2.2247 -3.1188  0.4930
  824Sol     MW 6322   1.649   3.166   4.834  0.1371  0.4726 -0.4184
  825Sol     OW 6323   2.707   0.084   3.199  0.5324  0.0120 -0.1276
  825Sol     HW 6324   2.732   0.129   3.119 -2.0091 -0.5126 -1.2337
  825Sol     HW 6325   2.615   0.063   3.188 -0.5755  2.1822  4.0246
  825Sol     MW 6326   2.701   0.086   3.191 -0.3029 -0.8276 -0.9940
  826Sol     OW 6327   0.143   0.252   8.907 -0.3304 -0.2154 -0.0727
  826Sol     HW 6328   0.158   0.214   8.994  0.2518  0.9255  0.3413
  826Sol     HW 6329   0.231   0.265   8.871 -0.5119  0.8870 -0.1338
  826Sol     MW 6330   0.152   0.250   8.912  0.4588 -0.6340  0.1174
  827Sol     OW 6331   3.283   1.705   9.161  0.4563  0.3001 -0.4163
  827Sol     HW 6332   3.268   1.749   9.077 -0.9444  0.7287  0.0575
  827Sol     HW 6333   3.303   1.776   9.222  0.4176  0.0785 -0.1456
  827Sol     MW 6334   3.284   1.715   9.159  1.1052  0.0629 -0.5997
  828Sol     OW 6335   2.039   0.284   8.505  0.4180  0.0473  0.0396
  828Sol     HW 6336   1.970   0.307   8.567 -1.0688 -0.1475 -1.5130
  828Sol     HW 6337   2.034   0.189   8.496  2.0493 -0.1767  1.2302
  828Sol     MW 6338   2.033   0.278   8.509  0.0023  0.3105  0.6484
  829Sol     OW 6339   1.595   2.526   7.167  0.0181 -0.0888  0.2659
  829Sol     HW 6340   1.550   2.443   7.151 -0.7708  0.3586  0.1515
  829Sol     HW 6341   1.590   2.573   7.084  1.0211 -0.1913  0.1471
  829Sol     MW 6342   1.591   2.523   7.158  0.2812 -0.1875  1.0039
  830Sol     OW 6343   1.706   0.966   2.334  0.1508 -0.8713  0.8368
  830Sol     HW 6344   1.671   0.901   2.273  0.8682 -0.2574 -0.2367
  830Sol     HW 6345   1.781   1.003   2.289  0.7714 -0.5034  2.1610
  830Sol     MW 6346   1.709   0.963   2.325  1.0120  0.1616  0.2694
  831Sol     OW 6347   0.276   1.684   4.803 -0.0855  0.5534  0.5162
  831Sol     HW 6348   0.348   1.743   4.780  0.5354  0.0363  1.1035
  831Sol     HW 6349   0.312   1.629   4.873 -0.2595 -1.3466 -0.8703
  831Sol     MW 6350   0.285   1.685   4.807 -0.7125 -0.2918  0.6124
  832Sol     OW 6351   2.187   1.568   6.334 -0.4853  0.2107 -0.2457
  832Sol     HW 6352   2.277   1.553   6.363 -1.3887 -0.4577  2.3089
  832Sol     HW 6353   2.189   1.656   6.296  0.9012  0.8668  1.2610
  832Sol     MW 6354   2.196   1.575   6.333  1.2547 -0.1632  0.6098
  833Sol     OW 6355   2.035   1.893   2.125 -0.2491  0.4233 -0.1941
  833Sol     HW 6356   2.022   1.896   2.220 -0.2704 -1.7722 -0.1067
  833Sol     HW 6357   2.051   1.984   2.100  0.7160  0.9080  2.0647
  833Sol     MW 6358   2.036   1.901   2.131  0.2735 -0.2063 -0.5308
  834Sol     OW 6359   0.190   1.456   5.841 -0.7245 -0.8962 -0.0535
  834Sol     HW 6360   0.224   1.536   5.801  0.4555 -1.1347  0.4444
  834Sol     HW 6361   0.095   1.460   5.827 -0.5623  0.0942 -0.9128
  834Sol     MW 6362   0.184   1.464   5.836 -0.5098 -0.3131  0.5245
  835Sol     OW 6363   1.737   2.286   2.072  0.2310 -0.0927 -0.1848
  835Sol     HW 6364   1.718   2.320   2.159 -1.9290 -0.4901 -0.4610
  835Sol     HW 6365   1.653   2.252   2.041  0.9091  0.2684 -2.5207
  835Sol     MW 6366   1.728   2.286   2.077  0.9487 -0.0202 -0.7791
  836Sol     OW 6367   0.650   1.730   5.992  0.7062  0.5098  0.7820
  836Sol     HW 6368   0.668   1.808   5.940  1.4328 -0.3395 -0.2586
  836Sol     HW 6369   0.695   1.745   6.075 -0.1359  1.7055  1.0333
  836Sol     MW 6370   0.656   1.738   5.994 -0.5510 -0.5658 -0.1782
  837Sol     OW 6371   1.619   1.679   6.376  1.2285 -0.4228  0.7307
  837Sol     HW 6372   1.681   1.736   6.331  0.2381  0.0937  0.0001
  837Sol     HW 6373   1.542   1.734   6.390  1.0444 -0.9599  1.9123
  837Sol     MW 6374   1.618   1.689   6.374 -1.4824  0.4601  0.1119
  838Sol     OW 6375   2.664   1.997   6.125  0.4748  0.5083 -0.0921
  838Sol     HW 6376   2.718   1.987   6.047  0.9497 -0.1732  0.3199
  838Sol     HW 6377   2.591   1.938   6.112  0.5902  0.3424  0.0085
  838Sol     MW 6378   2.663   1.991   6.117  0.7621  0.6416 -0.4941
  839Sol     OW 6379   0.782   0.649   4.339 -0.3076  0.0330 -0.9320
  839Sol     HW 6380   0.853   0.652   4.403 -0.1218  0.5187 -1.1672
  839Sol     HW 6381   0.824   0.629   4.256 -0.4267  0.4517 -1.0953
  839Sol     MW 6382   0.792   0.647   4.338  1.1765 -0.1851 -0.0090
  840Sol     OW 6383   0.933   1.870   8.026  0.1841  0.7888  0.5535
  840Sol     HW 6384   1.001   1.936   8.014 -1.6843  2.5900 -0.5437
  840Sol     HW 6385   0.893   1.861   7.939 -0.8233 -0.4323  1.1231
  840Sol     MW 6386   0.935   1.875   8.017  0.5247 -1.0851  0.5373
  841Sol     OW 6387   2.452   3.358   9.686  0.3008 -0.6881 -0.0091
  841Sol     HW 6388   2.502   3.340   9.765 -1.4888 -0.8819  1.1096
  841Sol     HW 6389   2.438   3.273   9.645 -0.2754 -0.8027  0.4134
  841Sol     MW 6390   2.455   3.349   9.689  0.4137  0.4970  0.5057
  842Sol     OW 6391   2.522   0.437   4.182  0.3083 -0.0852 -0.3044
  842Sol     HW 6392   2.578   0.401   4.113  0.5617 -1.4475  0.5937
  842Sol     HW 6393   2.477   0.361   4.218 -0.4624  0.7291  0.4627
  842Sol     MW 6394   2.523   0.427   4.179 -1.2395  0.3797 -0.1044
  843Sol     OW 6395   0.065   1.572   8.553 -0.2242  0.3477  0.1766
  843Sol     HW 6396  -0.014   1.571   8.607  0.5379 -0.4812  1.2941
  843Sol     HW 6397   0.137   1.572   8.616  0.6668  1.2007 -0.8343
  843Sol     MW 6398   0.064   1.572   8.564  0.9691  0.1787  0.1542
  844Sol     OW 6399   2.972   0.772   4.980 -0.0719 -0.2658  0.1903
  844Sol     HW 6400   2.996   0.845   4.924 -1.6392  0.6644  0.6805
  844Sol     HW 6401   2.911   0.810   5.044 -1.9273 -2.2587 -0.3411
  844Sol     MW 6402   2.969   0.782   4.981 -0.9693 -1.5861 -0.1693
  845Sol     OW 6403   1.740   1.105   6.572 -0.5558  0.0418 -0.1749
  845Sol     HW 6404   1.720   1.195   6.545 -0.0514  0.0495 -0.5156
  845Sol     HW 6405   1.750   1.057   6.491  1.7569  0.2420 -0.0418
  845Sol     MW 6406   1.739   1.109   6.563 -0.2856 -0.3484 -0.6127
  846Sol     OW 6407   0.528   0.452   7.799  0.1077 -0.0859 -0.6236
  846Sol     HW 6408   0.471   0.385   7.763 -0.9161  2.3507 -3.7650
  846Sol     HW 6409   0.497   0.534   7.760  2.4949  1.9884  1.6196
  846Sol     MW 6410   0.520   0.454   7.792  0.2388  0.7008  0.4446
  847Sol     OW 6411   1.840   3.445   5.656  0.3509 -0.6534 -0.6997
  847Sol     HW 6412   1.865   3.454   5.564  0.6058 -1.8718 -0.7553
  847Sol     HW 6413   1.744   3.454   5.655  0.3311 -0.8563 -1.1152
  847Sol     MW 6414   1.833   3.447   5.647  0.6626  0.3475 -0.3765
  848Sol     OW 6415   0.581   2.832   9.662 -0.8571  0.0408 -0.5081
  848Sol     HW 6416   0.594   2.782   9.581  0.8085 -0.9766  0.3514
  848Sol     HW 6417   0.508   2.789   9.705 -0.1013 -1.0326 -0.2666
  848Sol     MW 6418   0.576   2.824   9.658 -0.6009  0.6924 -1.3490
  849Sol     OW 6419   0.326   0.611   1.341 -0.0114 -0.5167  0.2395
  849Sol     HW 6420   0.262   0.620   1.411  1.6978  1.5077  1.6183
  849Sol     HW 6421   0.305   0.682   1.280  2.5109  1.9963  2.1084
  849Sol     MW 6422   0.319   0.619   1.342  0.8672  0.1388  0.0809
  850Sol     OW 6423   1.842   1.639   6.883 -0.6855  0.7258 -0.3839
  850Sol     HW 6424   1.799   1.655   6.799  1.5833 -0.1193 -1.7170
  850Sol     HW 6425   1.871   1.548   6.879 -1.4122  0.3683  1.7279
  850Sol     MW 6426   1.840   1.633   6.875  1.2684  0.5198 -0.0035
  851Sol     OW 6427   1.700   2.438   8.260 -0.1948  0.1402  0.2114
  851Sol     HW 6428   1.642   2.412   8.188  1.3927 -0.3670 -0.9087
  851Sol     HW 6429   1.718   2.357   8.307  0.5701  0.0912 -0.1634
  851Sol     MW 6430   1.696   2.429   8.257  0.5982 -0.1778 -0.1477
  852Sol     OW 6431   1.557   0.784   6.200  0.5571  0.2894 -0.5328
  852Sol     HW 6432   1.612   0.841   6.253  1.1257 -0.8543  0.1239
  852Sol     HW 6433   1.468   0.816   6.214  0.5715 -0.7502  2.0724
  852Sol     MW 6434   1.554   0.792   6.206  0.0905  0.0743  0.4211
  853Sol     OW 6435   3.296   0.925   5.045  0.3114 -0.3329 -0.2342
  853Sol     HW 6436   3.383   0.964   5.035  0.3515 -0.8443 -2.0144
  853Sol     HW 6437   3.239   0.981   4.992 -0.4904  0.0992  1.0558
  853Sol     MW 6438   3.299   0.934   5.040 -0.1073  0.4660 -0.0957
  854Sol     OW 6439   1.453   0.090   8.103  0.1321 -0.1462  0.3292
  854Sol     HW 6440   1.363   0.076   8.075 -0.6717  1.1132  2.2525
  854Sol     HW 6441   1.501   0.103   8.021 -1.3452 -1.2016 -0.7354
  854Sol     MW 6442   1.449   0.090   8.093 -0.2372  0.7302 -0.0072
  855Sol     OW 6443   1.983   0.448   8.890  0.3842 -0.3067  0.6771
  855Sol     HW 6444   2.062   0.499   8.876  0.5143 -1.0452 -1.4915
  855Sol     HW 6445   2.012   0.356   8.889 -0.5928 -0.6386 -1.2887
  855Sol     MW 6446   1.992   0.444   8.889 -0.5296  0.7677 -0.2252
  856Sol     OW 6447   1.743   1.142   4.579 -0.0580 -0.3952 -0.5471
  856Sol     HW 6448   1.744   1.196   4.659  0.3555 -2.1087  0.6455
  856Sol     HW 6449   1.659   1.161   4.538 -1.2694 -1.1289  1.4821
  856Sol     MW 6450   1.736   1.148   4.583  0.4010 -0.4179  0.4017
  857Sol     OW 6451   0.850   0.171   8.515  0.4129  0.0903  0.2621
  857Sol     HW 6452   0.930   0.206   8.475  1.6329 -1.2266  1.4725
  857Sol     HW 6453   0.860   0.190   8.609 -0.5749 -0.2960  0.4466
  857Sol     MW 6454   0.858   0.176   8.520  0.0374 -0.2377 -0.5275
  858Sol     OW 6455   1.932   1.940   2.839 -0.2004  0.4347 -0.1131
  858Sol     HW 6456   1.957   1.938   2.931 -1.5908 -0.3975  0.2596
  858Sol     HW 6457   1.928   2.034   2.817 -4.7386  0.8542  2.0730
  858Sol     MW 6458   1.934   1.949   2.845  0.7912  0.2085  0.1246
  859Sol     OW 6459   1.311   1.965   8.610 -0.5065  0.2265 -0.4192
  859Sol     HW 6460   1.259   1.889   8.583 -0.3838  0.0223 -0.0759
  859Sol     HW 6461   1.294   2.030   8.542 -2.0701  0.5444  0.2713
  859Sol     MW 6462   1.305   1.964   8.601 -0.3622  0.6404  0.4304
  860Sol     OW 6463   1.284   3.133   5.683  0.4280 -0.1195  0.4039
  860Sol     HW 6464   1.298   3.196   5.613  2.2473  0.7049  1.4838
  860Sol     HW 6465   1.200   3.159   5.721  1.0109  1.4671  0.6433
  860Sol     MW 6466   1.277   3.141   5.680  0.0134 -0.4176 -0.7619
  861Sol     OW 6467   2.384   2.895   9.037 -0.1852 -0.3097  0.9549
  861Sol     HW 6468   2.324   2.821   9.043 -1.9397  1.2263  3.0492
  861Sol     HW 6469   2.336   2.961   8.985  2.2941 -1.4447 -3.0006
  861Sol     MW 6470   2.374   2.895   9.033 -1.0998  0.0339  0.0335
  862Sol     OW 6471   0.518   3.020   5.096 -0.1074  0.3648 -0.7145
  862Sol     HW 6472   0.528   2.973   5.179  1.9232 -1.8550 -2.1406
  862Sol     HW 6473   0.492   2.952   5.034  0.2870  1.6428 -2.2847
  862Sol     MW 6474   0.517   3.009   5.098 -0.2726 -0.7914  0.6175
  863Sol     OW 6475   0.578   0.490   9.731 -0.2114 -1.1638  0.3301
  863Sol     HW 6476   0.527   0.570   9.719  1.1013 -0.3639  0.0155
  863Sol     HW 6477   0.542   0.429   9.667 -0.6995 -0.5709  0.0343
  863Sol     MW 6478   0.570   0.492   9.724 -0.2891  0.5360 -0.4060
  864Sol     OW 6479   0.897   1.636   2.385 -0.4328 -0.3658 -0.3673
  864Sol     HW 6480   0.821   1.641   2.326 -0.3030 -0.0743 -0.5100
  864Sol     HW 6481   0.921   1.543   2.384 -1.3811 -0.6231  0.4406
  864Sol     MW 6482   0.892   1.628   2.379 -1.2173  0.1091  0.5373
  865Sol     OW 6483   2.628   1.058   9.069  0.0320 -1.5268  0.1460
  865Sol     HW 6484   2.659   0.968   9.076  0.8528 -1.1444  1.5729
  865Sol     HW 6485   2.685   1.099   9.004  1.0283 -1.4577  1.0604
  865Sol     MW 6486   2.636   1.054   9.064 -0.2091 -0.3029 -0.1039
  866Sol     OW 6487   0.640   1.744   6.576  0.0140  0.4615  0.4120
  866Sol     HW 6488   0.580   1.734   6.502 -0.6510  0.4127  0.9498
  866Sol     HW 6489   0.599   1.693   6.646  1.4549 -0.8491  0.3329
  866Sol     MW 6490   0.631   1.738   6.575 -0.0033 -0.0433 -0.4730
  867Sol     OW 6491   2.518   0.119   1.783 -0.2138  0.7719 -0.3212
  867Sol     HW 6492   2.542   0.167   1.862 -0.5913 -2.1559  1.6056
  867Sol     HW 6493   2.601   0.111   1.735  0.2883  1.3466  0.4283
  867Sol     MW 6494   2.528   0.123   1.785  0.5683 -0.5362 -0.8921
  868Sol     OW 6495   2.095   3.096   5.779 -0.5872  0.0221  0.0372
  868Sol     HW 6496   2.042   3.162   5.824 -1.7327 -1.0592  0.2875
  868Sol     HW 6497   2.087   3.017   5.833  1.0167 -0.2638 -0.0948
  868Sol     MW 6498   2.090   3.095   5.788 -0.5422  0.1829  0.7831
  869Sol     OW 6499   0.686   1.233   5.596 -0.1412  0.0845  0.4490
  869Sol     HW 6500   0.761   1.278   5.633 -0.5923 -0.3429  1.9293
  869Sol     HW 6501   0.611   1.266   5.646 -0.9270  0.4577 -0.9633
  869Sol     MW 6502   0.686   1.240   5.604  0.4767 -0.3480 -0.3732
  870Sol     OW 6503   1.967   0.501   4.034 -0.6819  0.2929  0.0388
  870Sol     HW 6504   1.982   0.493   3.940 -1.2481  1.0735 -0.1300
  870Sol     HW 6505   1.999   0.589   4.056  2.3450 -1.0300  1.1794
  870Sol     MW 6506   1.971   0.508   4.028 -0.3969  0.2249 -0.3816
  871Sol     OW 6507   1.747   1.147   5.409 -0.0178  0.6778 -0.3807
  871Sol     HW 6508   1.782   1.221   5.459 -0.3133  0.1099  0.6871
  871Sol     HW 6509   1.653   1.163   5.405  0.3062  2.1943 -3.2367
  871Sol     MW 6510   1.741   1.155   5.413 -0.1293  0.0738 -0.2510
  872Sol     OW 6511   3.077   3.114   9.210  0.6833  0.3578 -0.3212
  872Sol     HW 6512   3.162   3.112   9.253  1.2487 -2.2871 -1.4849
  872Sol     HW 6513   3.026   3.046   9.255 -0.8068  1.8401  0.2994
  872Sol     MW 6514   3.080   3.108   9.218  0.0796 -0.0291  0.3434
  873Sol     OW 6515   2.049   2.088   1.822  0.2394 -0.1356  0.2985
  873Sol     HW 6516   2.109   2.118   1.753  0.4490 -0.3153  0.4005
  873Sol     HW 6517   2.051   1.992   1.815  1.1215 -0.1927  1.2800
  873Sol     MW 6518   2.055   2.082   1.815  0.0561 -0.1545 -1.0149
  874Sol     OW 6519   2.310   0.162   5.576  0.2874  0.2644  0.2371
  874Sol     HW 6520   2.265   0.163   5.492 -1.5018  0.7017  1.1695
  874Sol     HW 6521   2.322   0.254   5.598  0.0856  0.1551  0.8058
  874Sol     MW 6522   2.307   0.170   5.570 -0.2526  0.0757 -0.5031
  875Sol     OW 6523   2.903   0.571   2.850 -0.4831  0.4418  0.0111
  875Sol     HW 6524   2.867   0.652   2.815  3.7014  1.9068 -1.2629
  875Sol     HW 6525   2.925   0.591   2.941  0.5285  0.7991 -0.2970
  875Sol     MW 6526   2.902   0.580   2.855 -0.0123 -0.0704  0.8295
  876Sol     OW 6527   1.811   0.875   5.279  0.4811  0.7371  0.3129
  876Sol     HW 6528   1.806   0.960   5.323  0.6094  1.1333 -0.4290
  876Sol     HW 6529   1.804   0.896   5.186 -1.0360 -0.1947  0.2020
  876Sol     MW 6530   1.810   0.885   5.275 -0.1526  0.0148  0.5671
  877Sol     OW 6531   0.596   0.829   8.144 -0.4718 -0.0558  0.1835
  877Sol     HW 6532   0.627   0.800   8.058  0.8610 -2.1708  1.3487
  877Sol     HW 6533   0.646   0.910   8.161  0.5986 -0.6150 -0.2496
  877Sol     MW 6534   0.603   0.834   8.138  0.5070 -0.7365 -0.0277
  878Sol     OW 6535   1.688   1.629   1.982  0.1421  0.3421 -0.1526
  878Sol     HW 6536   1.721   1.584   2.061 -1.8686  0.2297  0.6555
  878Sol     HW 6537   1.707   1.721   1.997 -3.5741  0.8380  2.2807
  878Sol     MW 6538   1.693   1.633   1.991  0.2158  0.0218 -0.6846
  879Sol     OW 6539   1.601   2.336   7.993  0.3640  0.5953  0.2369
  879Sol     HW 6540   1.659   2.313   7.920  1.3876  1.4582  0.7509
  879Sol     HW 6541   1.525   2.377   7.952 -1.1376 -2.9234 -0.6345
  879Sol     MW 6542   1.600   2.338   7.983  0.4929 -0.3524  0.1414
  880Sol     OW 6543   2.772   2.180   1.685 -0.4933  0.5806 -0.1797
  880Sol     HW 6544   2.740   2.245   1.623 -1.2115  1.1614  0.7926
  880Sol     HW 6545   2.756   2.218   1.772  2.2153  0.6099  0.3456
  880Sol     MW 6546   2.768   2.189   1.688 -0.9713  0.7027 -0.2937
  881Sol     OW 6547   3.109   3.159   7.093 -0.6634  0.1314  0.3256
  881Sol     HW 6548   3.202   3.171   7.076 -0.8493 -0.3705 -1.1172
  881Sol     HW 6549   3.077   3.246   7.114 -0.0714  0.4779 -0.2053
  881Sol     MW 6550   3.114   3.167   7.093 -0.1381 -0.3511 -0.5243
  882Sol     OW 6551   0.730   3.426   2.451 -0.2400 -0.3843  0.0499
  882Sol     HW 6552   0.664   3.396   2.389 -1.9297 -0.5707  1.9250
  882Sol     HW 6553   0.772   3.346   2.483  0.1555 -0.3273 -0.3217
  882Sol     MW 6554   0.728   3.416   2.448  0.2605 -0.1703  0.5469
  883Sol     OW 6555   2.826   0.822   8.259 -0.4634 -0.3777 -0.4645
  883Sol     HW 6556   2.829   0.907   8.216  0.3508  0.0074  0.3170
  883Sol     HW 6557   2.740   0.787   8.238  0.0209 -0.3243 -2.6212
  883Sol     MW 6558   2.819   0.827   8.253  0.9667  0.0483 -0.1132
  884Sol     OW 6559   0.494   0.238   6.496  0.1802 -0.0963 -0.3723
  884Sol     HW 6560   0.431   0.287   6.443 -1.8272 -1.7916  0.3628
  884Sol     HW 6561   0.495   0.285   6.580 -0.6832 -0.4826 -0.1363
  884Sol     MW 6562   0.488   0.247   6.499  0.0727  0.1503 -0.2542
  885Sol     OW 6563   3.321   2.262   7.638 -0.1127 -0.0606  0.4284
  885Sol     HW 6564   3.241   2.225   7.600 -0.0261 -0.3696  0.5394
  885Sol     HW 6565   3.290   2.333   7.694 -0.3955 -0.7725  1.1965
  885Sol     MW 6566   3.311   2.265   7.640  0.4907  0.0970  0.2729
  886Sol     OW 6567   2.870   1.524   9.948 -0.3455 -0.1655  0.2665
  886Sol     HW 6568   2.842   1.524  10.040  1.2069 -0.5459  0.7603
  886Sol     HW 6569   2.880   1.432   9.925  2.1350 -0.0495  0.6622
  886Sol     MW 6570   2.869   1.516   9.954 -0.1898  0.0444 -0.0098
  887Sol     OW 6571   1.565   2.665   4.300 -0.6296 -0.0827 -0.0199
  887Sol     HW 6572   1.597   2.754   4.315 -0.5583  0.4428 -2.9606
  887Sol     HW 6573   1.621   2.610   4.356 -1.1166  1.7354  2.3547
  887Sol     MW 6574   1.573   2.668   4.307  1.0670 -0.6117  0.0587
  888Sol     OW 6575   0.893   1.624   6.557 -0.0708 -0.4850 -0.3320
  888Sol     HW 6576   0.802   1.655   6.555 -0.0049 -0.3200 -0.7424
  888Sol     HW 6577   0.895   1.561   6.629 -0.7189 -1.1410 -0.8787
  888Sol     MW 6578   0.885   1.621   6.564 -0.6088  0.6417  0.5776
  889Sol     OW 6579   0.929   0.036   2.240  0.4595  0.2340 -1.0701
  889Sol     HW 6580   0.929   0.132   2.245  2.4580  0.2569 -1.2395
  889Sol     HW 6581   0.855   0.010   2.295  1.2829  1.7934  0.8519
  889Sol     MW 6582   0.923   0.042   2.246  0.8101 -0.2332 -0.7707
  890Sol     OW 6583   0.791   1.738   7.580 -0.1573  0.0578  0.0945
  890Sol     HW 6584   0.738   1.752   7.501 -1.3347  0.1562  0.9005
  890Sol     HW 6585   0.728   1.739   7.652  0.7070 -1.6564  0.8978
  890Sol     MW 6586   0.781   1.739   7.579  0.0187 -0.4142  0.2319
  891Sol     OW 6587   3.160   1.787   2.208  0.5070 -0.2183  0.3273
  891Sol     HW 6588   3.154   1.767   2.114  2.9849 -1.8990  0.5031
  891Sol     HW 6589   3.131   1.707   2.252 -0.5694  0.5372  1.0240
  891Sol     MW 6590   3.156   1.778   2.203 -1.1023 -0.0066  0.6117
  892Sol     OW 6591   0.631   2.579   1.438 -0.0404 -0.3583  0.5903
  892Sol     HW 6592   0.659   2.664   1.473 -1.1876 -0.3735  1.5892
  892Sol     HW 6593   0.557   2.555   1.493 -1.5371 -0.6548 -1.5326
  892Sol     MW 6594   0.627   2.585   1.446 -0.3457  0.3090 -0.0245
  893Sol     OW 6595   2.073   3.043   3.443 -0.2663 -0.1154 -0.3887
  893Sol     HW 6596   2.015   2.988   3.495 -0.9870 -0.1201 -1.1857
  893Sol     HW 6597   2.161   3.014   3.467 -0.6222 -0.9035 -0.0243
  893Sol     MW 6598   2.076   3.035   3.450 -0.0397 -0.1707 -0.4273
  894Sol     OW 6599   2.056   0.818   8.366  0.4122 -0.3729 -0.0981
  894Sol     HW 6600   2.119   0.757   8.328  0.6449 -0.2932  0.1520
  894Sol     HW 6601   1.997   0.840   8.294  1.6734  0.8443 -0.7802
  894Sol     MW 6602   2.057   0.815   8.356 -0.1132  0.0890  1.3137
  895Sol     OW 6603   2.001   0.751   1.518 -0.5967  0.5946 -0.1226
  895Sol     HW 6604   1.991   0.656   1.508  1.9020 -0.1099  3.1585
  895Sol     HW 6605   2.095   0.767   1.511 -1.1653  3.2158 -2.9387
  895Sol     MW 6606   2.009   0.744   1.516 -0.4241  0.2586  0.3346
  896Sol     OW 6607   2.585   0.136   2.056 -0.2726  0.2810  0.1565
  896Sol     HW 6608   2.562   0.166   2.145  0.7732 -2.4692  1.4085
  896Sol     HW 6609   2.680   0.125   2.058 -0.6895 -3.9584  0.1074
  896Sol     MW 6610   2.591   0.138   2.065 -0.7630  0.3208  0.3062
  897Sol     OW 6611   1.584   3.030   2.228  0.0335  0.4583  0.2215
  897Sol     HW 6612   1.535   2.971   2.172 -0.1390  1.1285 -0.3346
  897Sol     HW 6613   1.581   2.989   2.315 -0.2139 -0.2642 -0.1272
  897Sol     MW 6614   1.580   3.021   2.231 -0.4024 -0.4757  0.4802
  898Sol     OW 6615   2.452   0.801   2.938  0.2770  0.1495  0.0372
  898Sol     HW 6616   2.528   0.835   2.985  0.5999 -0.9278  0.3195
  898Sol     HW 6617   2.470   0.707   2.929 -0.2918  0.1446 -1.2544
  898Sol     MW 6618   2.461   0.796   2.941  0.7044 -0.2199 -0.0334
  899Sol     OW 6619   2.404   1.544   5.661  0.2459 -0.1558  0.3381
  899Sol     HW 6620   2.468   1.496   5.609  0.1821  0.6814 -0.5356
  899Sol     HW 6621   2.379   1.483   5.731  2.1003 -0.4271  0.7851
  899Sol     MW 6622   2.408   1.534   5.663  0.6132  0.2438  0.2313
  900Sol     OW 6623   0.538   1.744   3.936  0.1448  0.7003 -0.4242
  900Sol     HW 6624   0.502   1.817   3.985  1.2172  1.7230 -1.1306
  900Sol     HW 6625   0.499   1.751   3.849 -1.0852 -0.5940  0.0092
  900Sol     MW 6626   0.532   1.751   3.932 -0.1067  0.3027 -0.4695
  901Sol     OW 6627   2.298   0.938   8.233  0.0529  0.6038 -0.3614
  901Sol     HW 6628   2.363   0.899   8.291 -0.0246  0.5201 -0.3302
  901Sol     HW 6629   2.219   0.945   8.287 -0.1626  0.0736 -0.5967
  901Sol     MW 6630   2.297   0.935   8.243  0.1499 -0.0225 -0.2592
  902Sol     OW 6631   0.570   3.001   2.971 -0.6761  0.5735  0.2856
  902Sol     HW 6632   0.626   3.010   3.048 -1.3136  1.3032  0.6706
  902Sol     HW 6633   0.617   3.047   2.901  0.9587 -1.9525 -0.3471
  902Sol     MW 6634   0.579   3.006   2.972  0.5705 -0.5831 -0.3408
  903Sol     OW 6635   0.512   2.048   3.884 -0.1526  0.3707 -0.1345
  903Sol     HW 6636   0.424   2.017   3.864  0.1722 -1.7853  1.5281
  903Sol     HW 6637   0.554   2.060   3.799 -1.1383 -1.4004 -0.8918
  903Sol     MW 6638   0.508   2.046   3.875 -0.1849 -0.6306  0.7163
  904Sol     OW 6639   1.001   3.126   5.700  0.1861  0.2962  0.2952
  904Sol     HW 6640   0.963   3.115   5.787 -0.8826 -0.3719 -0.2459
  904Sol     HW 6641   0.927   3.152   5.645  0.7085 -0.0213 -0.5617
  904Sol     MW 6642   0.991   3.127   5.703 -0.2071 -0.5069 -0.5841
  905Sol     OW 6643   2.265   0.767   1.559  0.2009  0.1389 -0.6612
  905Sol     HW 6644   2.331   0.704   1.585  0.1760  0.9333  1.4276
  905Sol     HW 6645   2.314   0.842   1.526  0.2213 -1.1317 -3.6382
  905Sol     MW 6646   2.275   0.768   1.558 -0.0665  0.1795  0.3005
  906Sol     OW 6647   3.119   1.556   6.730 -0.4613  0.0642  0.2537
  906Sol     HW 6648   3.159   1.627   6.681  0.0673  0.2263  0.9084
  906Sol     HW 6649   3.178   1.481   6.719 -0.5954 -0.0406  0.2349
  906Sol     MW 6650   3.128   1.555   6.725  0.4668 -0.1046  1.3119
  907Sol     OW 6651   2.434   0.223   7.497  0.0702 -0.1601 -0.1566
  907Sol     HW 6652   2.443   0.315   7.474 -0.0224 -0.3032 -0.7695
  907Sol     HW 6653   2.432   0.177   7.413 -0.7880 -0.6405  0.1202
  907Sol     MW 6654   2.435   0.227   7.487 -0.1685 -0.8063 -0.4841
  908Sol     OW 6655   1.516   2.752   7.472 -0.5014 -0.3316 -0.7704
  908Sol     HW 6656   1.495   2.845   7.481 -1.0877 -0.5832  0.6539
  908Sol     HW 6657   1.445   2.716   7.419 -1.2572 -0.3011  0.2004
  908Sol     MW 6658   1.508   2.757   7.468 -0.9956 -0.7883  0.6227
  909Sol     OW 6659   2.174   0.144   7.193  0.2937  0.7437 -0.4386
  909Sol     HW 6660   2.128   0.171   7.272  0.9112 -0.7174  0.4571
  909Sol     HW 6661   2.203   0.225   7.153  1.8614  1.4302  1.9944
  909Sol     MW 6662   2.172   0.153   7.197 -0.3768 -0.8412  0.0151
  910Sol     OW 6663   3.273   3.129   9.368 -0.4834 -0.1819  0.2906
  910Sol     HW 6664   3.285   3.079   9.449  0.9651  1.0920  0.8850
  910Sol     HW 6665   3.361   3.141   9.334 -1.0730 -0.5569 -1.4096
  910Sol     MW 6666   3.282   3.126   9.373  0.1829 -0.4768 -0.5005
  911Sol     OW 6667   3.155   1.265   2.124 -0.8457  0.0904 -0.3973
  911Sol     HW 6668   3.156   1.200   2.193 -0.6063 -0.1837 -0.6584
  911Sol     HW 6669   3.213   1.335   2.156 -0.5714 -0.1308 -0.4151
  911Sol     MW 6670   3.160   1.266   2.133 -0.0306  0.0870 -0.4875
  912Sol     OW 6671   0.880   0.042   6.619 -0.1104 -0.8357 -0.0072
  912Sol     HW 6672   0.965   0.003   6.596  0.0902 -0.1415 -0.4449
  912Sol     HW 6673   0.815  -0.015   6.577  0.1302 -1.3750  0.3357
  912Sol     MW 6674   0.882   0.033   6.613  1.0885 -0.5098  0.2178
  913Sol     OW 6675   2.209   2.200   8.553  0.5029  0.1403  0.1780
  913Sol     HW 6676   2.127   2.234   8.518  0.3469  0.1365  0.5412
  913Sol     HW 6677   2.218   2.113   8.513 -1.4845 -1.3804  2.9129
  913Sol     MW 6678   2.203   2.195   8.546 -0.7828 -0.3944  0.4391
  914Sol     OW 6679   1.158   3.265   8.187  0.4335  0.4160  0.2093
  914Sol     HW 6680   1.156   3.257   8.282 -2.1003 -0.0392  0.1589
  914Sol     HW 6681   1.177   3.176   8.156 -0.7844  0.1166  0.2738
  914Sol     MW 6682   1.160   3.256   8.193  0.2434  0.1211  0.2057
  915Sol     OW 6683   1.256   0.542   9.969  0.5575  0.7276 -0.2009
  915Sol     HW 6684   1.265   0.630   9.934  0.0427  0.9572  0.2445
  915Sol     HW 6685   1.163   0.534   9.991  0.3007 -0.4589 -1.6529
  915Sol     MW 6686   1.249   0.549   9.968 -0.0626  0.2482 -0.0308
  916Sol     OW 6687   1.121   3.409   2.633  0.0388 -0.0913  0.7435
  916Sol     HW 6688   1.116   3.490   2.582 -0.0035 -0.5482  0.0109
  916Sol     HW 6689   1.045   3.412   2.691 -1.7781 -1.0866 -1.5224
  916Sol     MW 6690   1.114   3.416   2.634  0.3458  0.2296  0.9895
  917Sol     OW 6691   1.308   2.840   7.004  0.5023  0.0846 -0.0188
  917Sol     HW 6692   1.366   2.895   6.951  1.5545 -0.6999  0.2768
  917Sol     HW 6693   1.241   2.810   6.943  0.7365  0.5541 -0.5138
  917Sol     MW 6694   1.307   2.842   6.994 -0.2384  0.3946  0.1091
  918Sol     OW 6695   0.914   1.343   5.694 -0.0921  0.1745  0.0428
  918Sol     HW 6696   0.938   1.335   5.786 -1.1027  1.4778  0.4300
  918Sol     HW 6697   0.992   1.314   5.647  0.5854 -0.0945  1.3025
  918Sol     MW 6698   0.923   1.340   5.698 -1.2331 -0.1330 -0.1207
  919Sol     OW 6699   2.616   2.947   9.966  0.4985 -0.1721 -0.0433
  919Sol     HW 6700   2.707   2.931   9.940  0.5115 -0.4041  0.1407
  919Sol     HW 6701   2.567   2.875   9.926  0.2205  0.6478 -1.1759
  919Sol     MW 6702   2.620   2.939   9.960  0.9713  0.5297 -0.6713
  920Sol     OW 6703   1.867   0.063   6.107 -0.0831 -0.2894 -0.5720
  920Sol     HW 6704   1.820   0.011   6.172  0.6624 -0.4231 -0.1322
  920Sol     HW 6705   1.800   0.119   6.067 -0.3967  0.4430  0.9529
  920Sol     MW 6706   1.857   0.064   6.109  0.3227 -0.5330  0.6956
  921Sol     OW 6707   1.699   2.091   5.441  0.3120  0.3236  0.0781
  921Sol     HW 6708   1.630   2.037   5.403  2.0476 -1.9006 -0.0081
  921Sol     HW 6709   1.680   2.091   5.535  0.0305 -0.0079  0.0219
  921Sol     MW 6710   1.691   2.086   5.446 -0.2538  0.5003  0.2172
  922Sol     OW 6711   0.209   2.878   5.456  0.8022 -0.1974  0.2523
  922Sol     HW 6712   0.219   2.792   5.495  0.5670 -0.5760 -0.5037
  922Sol     HW 6713   0.140   2.920   5.508 -1.1763 -1.5652 -1.1476
  922Sol     MW 6714   0.203   2.874   5.464 -0.6617 -0.0162  0.3458
  923Sol     OW 6715   1.426   0.001   9.118 -0.3872  0.0195 -0.0741
  923Sol     HW 6716   1.437   0.092   9.092 -1.3802  0.2853  0.3860
  923Sol     HW 6717   1.397   0.006   9.210  3.8653 -0.9309  1.4090
  923Sol     MW 6718   1.424   0.010   9.124  0.1409 -0.0574 -0.6293
  924Sol     OW 6719   1.698   1.745   7.583 -0.4837  0.4029 -0.2068
  924Sol     HW 6720   1.667   1.824   7.628  1.5393  0.9133  0.3340
  924Sol     HW 6721   1.624   1.718   7.528 -0.8032  3.3595 -1.3238
  924Sol     MW 6722   1.688   1.750   7.582  0.4097 -0.1574 -0.0981
  925Sol     OW 6723   2.814   3.297   1.643  0.2011  0.0390  0.0603
  925Sol     HW 6724   2.900   3.338   1.637 -0.2941  1.0306 -0.3324
  925Sol     HW 6725   2.754   3.370   1.657 -0.6768 -0.5687 -0.5257
  925Sol     MW 6726   2.816   3.307   1.644 -0.5519  0.4082  0.1969
  926Sol     OW 6727   2.576   1.023   9.337  0.2032  0.2115  0.0333
  926Sol     HW 6728   2.522   1.089   9.381 -0.0178  0.4071 -0.5186
  926Sol     HW 6729   2.594   1.061   9.251  0.7931 -0.0797  0.0267
  926Sol     MW 6730   2.572   1.033   9.333  0.1174 -0.2293  0.2566
  927Sol     OW 6731   0.643   1.334   8.087 -0.0423  0.6384 -0.4300
  927Sol     HW 6732   0.627   1.399   8.155  0.3416 -0.3440  0.6098
  927Sol     HW 6733   0.680   1.385   8.015 -1.7937  1.9267 -0.4877
  927Sol     MW 6734   0.645   1.345   8.087 -1.0958 -0.0150  0.7995
  928Sol     OW 6735   1.706   2.551   7.408  0.0353 -0.4629 -0.0029
  928Sol     HW 6736   1.692   2.530   7.315  0.1710  0.2029 -0.1728
  928Sol     HW 6737   1.639   2.616   7.428 -1.7328 -2.5374  1.0747
  928Sol     MW 6738   1.698   2.555   7.401 -0.0200 -0.7529 -0.0184
  929Sol     OW 6739   3.111   2.195   9.557 -0.2495 -0.2959 -0.1475
  929Sol     HW 6740   3.028   2.149   9.568 -0.6011  0.9354  2.8160
  929Sol     HW 6741   3.092   2.285   9.583  1.5930  0.4462 -1.2711
  929Sol     MW 6742   3.102   2.199   9.560 -0.0491 -0.2222  0.2271
  930Sol     OW 6743   0.702   1.388   6.547  0.6502  0.3213 -0.0856
  930Sol     HW 6744   0.765   1.393   6.619  0.5719  1.9083 -0.1063
  930Sol     HW 6745   0.744   1.331   6.482  0.5757 -1.3873  1.3309
  930Sol     MW 6746   0.711   1.383   6.548  0.4313 -0.7041 -0.0085
  931Sol     OW 6747   2.076   2.064   5.175 -0.0075  0.5303  0.2517
  931Sol     HW 6748   2.161   2.107   5.181 -0.5598  1.8230 -0.9990
  931Sol     HW 6749   2.012   2.134   5.189 -0.9051 -0.0486 -0.8378
  931Sol     MW 6750   2.077   2.074   5.177 -0.5193 -0.4052  0.0927
  932Sol     OW 6751   2.337   1.419   6.147 -0.2788  0.1130 -0.2598
  932Sol     HW 6752   2.260   1.456   6.190 -0.3000 -1.2177  0.8961
  932Sol     HW 6753   2.410   1.466   6.185 -0.2795 -1.2542  1.4997
  932Sol     MW 6754   2.336   1.426   6.154  0.1712  0.3447  0.6833
  933Sol     OW 6755   2.560   1.646   7.997  0.2339  0.4747 -0.1406
  933Sol     HW 6756   2.653   1.658   7.976  0.3257  0.3501  0.1802
  933Sol     HW 6757   2.559   1.634   8.092 -0.0880  0.2433 -0.1725
  933Sol     MW 6758   2.568   1.646   8.004 -0.2433 -0.3595  0.8725
  934Sol     OW 6759   1.386   1.808   6.471 -0.2414 -0.3695  0.5553
  934Sol     HW 6760   1.426   1.805   6.558 -2.5477 -0.7461  1.6230
  934Sol     HW 6761   1.394   1.899   6.444  0.5671 -0.2670  1.1237
  934Sol     MW 6762   1.391   1.816   6.476 -0.3531  0.6836  0.2159
  935Sol     OW 6763   3.295   0.936   9.268 -0.6092  0.1213 -0.5267
  935Sol     HW 6764   3.263   0.862   9.319 -1.2013  0.9449  0.2896
  935Sol     HW 6765   3.217   0.984   9.241 -0.2089  0.6975 -0.6900
  935Sol     MW 6766   3.285   0.934   9.270  0.3959  0.3508 -0.4000
  936Sol     OW 6767   2.416   1.263   3.007  0.9099 -0.4746  0.5439
  936Sol     HW 6768   2.324   1.255   2.980  1.3150 -0.7760 -0.8249
  936Sol     HW 6769   2.448   1.339   2.958  1.6811 -1.0705  0.1145
  936Sol     MW 6770   2.410   1.269   3.000 -0.0313  0.2869 -0.5594
  937Sol     OW 6771   2.579   3.393   8.352  0.2870 -0.2430  0.0567
  937Sol     HW 6772   2.538   3.407   8.437  1.8257  1.8467  0.4998
  937Sol     HW 6773   2.519   3.433   8.289 -0.0163 -0.2694  0.3280
  937Sol     MW 6774   2.570   3.398   8.354 -0.4882  0.6583  0.2872
  938Sol     OW 6775   1.442   0.609   4.037 -0.2725  0.2966 -0.1541
  938Sol     HW 6776   1.424   0.682   4.097 -0.3198  1.2429 -1.2976
  938Sol     HW 6777   1.519   0.637   3.988 -0.3025 -0.4228 -0.6183
  938Sol     MW 6778   1.447   0.618   4.038  0.8917 -0.1331  0.6920
  939Sol     OW 6779   3.307   1.357   6.644  0.2302 -0.9697  0.4859
  939Sol     HW 6780   3.279   1.310   6.723  0.1023 -2.0167 -0.1740
  939Sol     HW 6781   3.369   1.297   6.601  1.8653  0.4255  0.8209
  939Sol     MW 6782   3.310   1.347   6.647  1.0520  0.6907  0.4370
  940Sol     OW 6783   0.001   3.095   8.679 -0.4204 -0.0223  0.3081
  940Sol     HW 6784  -0.049   3.098   8.761 -1.1333  1.0313 -0.1654
  940Sol     HW 6785   0.085   3.136   8.701 -0.8202  0.7711  0.3687
  940Sol     MW 6786   0.004   3.099   8.688 -0.4309  0.7168  0.2591
  941Sol     OW 6787   1.071   2.983   9.970 -0.0706 -0.6552  0.0151
  941Sol     HW 6788   1.035   2.903   9.932 -0.7666 -0.4353  0.1891
  941Sol     HW 6789   1.040   3.053   9.913  0.1831 -0.4697  0.1017
  941Sol     MW 6790   1.065   2.982   9.962  0.1700 -0.9431  0.2142
  942Sol     OW 6791   0.879   1.365   8.959  0.3456 -0.1820 -0.0862
  942Sol     HW 6792   0.847   1.284   8.999 -0.4886  0.3991  0.4433
  942Sol     HW 6793   0.913   1.338   8.874  1.3568 -1.3040  0.6592
  942Sol     MW 6794   0.879   1.355   8.955  0.3811 -0.1192 -0.0737
  943Sol     OW 6795   1.902   2.057   9.553  0.0234 -0.4148 -0.5474
  943Sol     HW 6796   1.891   1.972   9.510  1.2379 -1.4245  1.0694
  943Sol     HW 6797   1.926   2.117   9.483 -0.5058 -1.4818 -1.6552
  943Sol     MW 6798   1.903   2.055   9.543  0.2877  0.1862 -0.1483
  944Sol     OW 6799   1.393   2.259   9.367  0.0300  0.3116  0.2719
  944Sol     HW 6800   1.353   2.268   9.280  1.2752  1.7986 -0.1771
  944Sol     HW 6801   1.481   2.226   9.350  0.5189  1.2625  0.8975
  944Sol     MW 6802   1.397   2.257   9.357 -0.6824  0.4141  0.7235
  945Sol     OW 6803   2.201   0.602   2.079 -0.0929 -0.1603  0.2172
  945Sol     HW 6804   2.249   0.662   2.022 -1.5958 -0.0623 -0.9730
  945Sol     HW 6805   2.205   0.644   2.165 -2.7987  2.7553 -0.9492
  945Sol     MW 6806   2.206   0.612   2.082  0.2220  0.4117  0.5713
  946Sol     OW 6807   2.845   1.949   5.888  0.1891 -0.4050  0.9201
  946Sol     HW 6808   2.821   1.910   5.804 -1.3080  0.3783  0.9544
  946Sol     HW 6809   2.823   2.042   5.878  2.8375  0.2810  1.1502
  946Sol     MW 6810   2.841   1.954   5.880 -1.2431 -0.4144 -0.8978
  947Sol     OW 6811   3.245   2.303   4.281 -0.5795 -0.3112 -0.2522
  947Sol     HW 6812   3.218   2.256   4.359  1.2273 -0.2731  0.4013
  947Sol     HW 6813   3.245   2.395   4.307 -0.3688 -0.2647 -0.4140
  947Sol     MW 6814   3.242   2.307   4.290 -0.1269  0.9281  0.0957
  948Sol     OW 6815   1.987   2.548   3.032  0.5916  0.0532 -0.1627
  948Sol     HW 6816   1.955   2.461   3.013 -0.0092  0.5172 -1.2985
  948Sol     HW 6817   2.078   2.547   3.002  0.1146  0.3003 -1.6133
  948Sol     MW 6818   1.993   2.540   3.028 -1.2239 -0.0222 -0.5088
  949Sol     OW 6819   1.266   2.812   5.813  0.5307 -0.2644 -0.0452
  949Sol     HW 6820   1.278   2.752   5.886  1.4807 -1.8906 -1.4742
  949Sol     HW 6821   1.336   2.877   5.823  0.1561 -0.0160  0.9327
  949Sol     MW 6822   1.274   2.813   5.820 -0.6923  0.1955  0.1453
  950Sol     OW 6823   2.480   0.724   6.958  0.1104  0.1222  0.0416
  950Sol     HW 6824   2.509   0.636   6.932  1.1325  0.1903  0.9398
  950Sol     HW 6825   2.385   0.715   6.972  0.2292 -0.8611  0.2387
  950Sol     MW 6826   2.474   0.715   6.957 -0.0894  0.4532  0.0857
  951Sol     OW 6827   1.791   1.591   9.573  0.3954  0.1642 -0.2475
  951Sol     HW 6828   1.746   1.507   9.566  0.9535 -0.0556 -1.2028
  951Sol     HW 6829   1.781   1.615   9.665  2.0260 -1.9285  0.5029
  951Sol     MW 6830   1.786   1.586   9.581 -0.1505  0.1628  0.4016
  952Sol     OW 6831   1.098   2.992   1.311 -0.2084  0.0552  0.0667
  952Sol     HW 6832   1.155   3.064   1.340 -1.3898  0.4406  1.4530
  952Sol     HW 6833   1.058   3.025   1.230 -1.0026  1.1094  0.8689
  952Sol     MW 6834   1.100   3.002   1.306 -0.5006  0.2131  0.6386
  953Sol     OW 6835   0.846   2.136   3.915 -0.0029 -0.2295  0.1193
  953Sol     HW 6836   0.800   2.054   3.931  0.2375 -0.4306 -0.2114
  953Sol     HW 6837   0.847   2.181   4.000 -2.3322  0.5560 -0.2186
  953Sol     MW 6838   0.842   2.133   3.924 -0.4169 -0.3126 -0.1305
  954Sol     OW 6839   2.070   1.700   9.359 -0.2520 -0.1190 -0.1337
  954Sol     HW 6840   1.989   1.739   9.390 -0.9930 -1.8863  0.1856
  954Sol     HW 6841   2.048   1.609   9.341  1.8648 -0.8289  0.7581
  954Sol     MW 6842   2.061   1.695   9.360 -0.3468  0.7134 -0.1521
  955Sol     OW 6843   1.045   0.731   1.774  0.1821  0.0468  0.0442
  955Sol     HW 6844   0.964   0.693   1.739  0.1566 -0.9334  1.1534
  955Sol     HW 6845   1.114   0.694   1.719  0.0629 -0.7839  0.4521
  955Sol     MW 6846   1.044   0.724   1.766 -0.3098 -1.1555 -0.3844
  956Sol     OW 6847   2.711   2.686   1.957  0.1826  0.2200 -0.1299
  956Sol     HW 6848   2.759   2.769   1.952  2.6790 -1.1744 -0.2945
  956Sol     HW 6849   2.711   2.665   2.050 -0.4153  0.3841 -0.0934
  956Sol     MW 6850   2.716   2.692   1.965  0.3783  0.1046 -0.1938
  957Sol     OW 6851   0.144   1.402   8.219  0.1254  0.0276  0.2687
  957Sol     HW 6852   0.056   1.390   8.184  0.6304 -1.1824 -0.6137
  957Sol     HW 6853   0.136   1.382   8.312  0.0003 -2.7287 -0.3103
  957Sol     MW 6854   0.136   1.399   8.224  1.1936 -0.4498 -0.1793
  958Sol     OW 6855   2.760   1.607   2.185  0.5261  0.2842 -0.0901
  958Sol     HW 6856   2.765   1.697   2.217 -0.7066  0.9696 -1.7364
  958Sol     HW 6857   2.834   1.598   2.125  0.1941  0.4618 -0.5300
  958Sol     MW 6858   2.767   1.614   2.182 -0.1442  0.1406 -0.1773
  959Sol     OW 6859   0.366   2.030   9.295  0.0111  0.1487  0.0817
  959Sol     HW 6860   0.458   2.039   9.269  0.8062 -1.2672  2.1993
  959Sol     HW 6861   0.322   1.995   9.218  1.4895 -0.2932 -0.5762
  959Sol     MW 6862   0.371   2.028   9.286  0.1114 -0.1172  0.4204
  960Sol     OW 6863   0.385   0.832   5.941 -0.2224  0.2181  0.3817
  960Sol     HW 6864   0.339   0.757   5.903 -1.8881  2.0077 -1.2617
  960Sol     HW 6865   0.473   0.827   5.906 -0.1712 -1.2380  0.6844
  960Sol     MW 6866   0.389   0.825   5.935  0.4411  0.1994 -0.7179
  961Sol     OW 6867   1.379   1.012   7.343  0.1778  0.4466 -0.0419
  961Sol     HW 6868   1.452   0.966   7.301  0.6281  0.2410  0.9649
  961Sol     HW 6869   1.324   0.942   7.379 -0.3460  0.6137 -0.5088
  961Sol     MW 6870   1.380   1.002   7.342  0.0752 -0.4290 -0.2953
  962Sol     OW 6871   0.265   3.233   5.466 -0.2566  0.0831 -0.3976
  962Sol     HW 6872   0.242   3.304   5.407 -2.5495 -0.4014 -0.1475
  962Sol     HW 6873   0.194   3.170   5.456 -0.0605 -0.5698  1.9769
  962Sol     MW 6874   0.257   3.233   5.460 -0.1547 -0.5000  0.5927
  963Sol     OW 6875   0.849   1.093   9.051 -0.2706 -0.1877  0.0911
  963Sol     HW 6876   0.863   1.031   8.978  0.8189 -0.4447  0.5082
  963Sol     HW 6877   0.845   1.037   9.129 -2.1047  0.0239  0.1812
  963Sol     MW 6878   0.850   1.082   9.051  0.0597  0.3200  0.2619
  964Sol     OW 6879   0.606   0.871   3.960  0.0909 -0.7690  0.0648
  964Sol     HW 6880   0.692   0.874   4.000 -1.0877  1.2328  2.6115
  964Sol     HW 6881   0.610   0.935   3.888  0.5226 -0.1408  0.6449
  964Sol     MW 6882   0.614   0.877   3.957 -0.1403  0.2044 -0.6424
  965Sol     OW 6883   0.151   1.880   7.847  0.3033 -0.5941  0.5594
  965Sol     HW 6884   0.244   1.883   7.822  0.2502 -1.8225  0.1752
  965Sol     HW 6885   0.150   1.829   7.928 -0.1236 -1.4293  0.0455
  965Sol     MW 6886   0.160   1.875   7.852 -1.1049 -0.2750 -0.5414
  966Sol     OW 6887   2.607   2.609   9.228  0.2980  0.5893  0.3050
  966Sol     HW 6888   2.622   2.536   9.287  2.1425  0.1504 -0.6649
  966Sol     HW 6889   2.665   2.592   9.154 -1.8815  1.1848 -1.5824
  966Sol     MW 6890   2.614   2.601   9.227  0.0825  0.1543  0.6744
  967Sol     OW 6891   0.348   0.414   2.977  0.1328 -0.1989  0.6319
  967Sol     HW 6892   0.328   0.341   2.918  1.4479 -0.0833  0.0125
  967Sol     HW 6893   0.355   0.372   3.064 -0.2260 -0.6303  0.4553
  967Sol     MW 6894   0.347   0.403   2.980  0.2176  0.2117  0.1029
  968Sol     OW 6895   2.564   0.238   2.325  0.4336 -0.4228 -0.2282
  968Sol     HW 6896   2.554   0.177   2.398  0.2087  0.6971  0.6931
  968Sol     HW 6897   2.626   0.304   2.356 -2.0064  1.7968  0.1568
  968Sol     MW 6898   2.568   0.239   2.334 -0.0920  0.4694  0.9359
  969Sol     OW 6899   0.007   1.429   2.251  0.2189 -0.2829 -0.0931
  969Sol     HW 6900   0.069   1.358   2.269  0.9033  0.8334  2.1147
  969Sol     HW 6901   0.062   1.503   2.225 -0.4276 -0.2353 -1.3750
  969Sol     MW 6902   0.018   1.429   2.250 -0.2089 -0.6331  0.1427
  970Sol     OW 6903   1.375   1.079   4.029  0.2660  0.1449  0.2899
  970Sol     HW 6904   1.422   1.086   3.946 -0.5805  0.8376 -0.1435
  970Sol     HW 6905   1.294   1.032   4.007 -0.3507  1.0685  0.5505
  970Sol     MW 6906   1.372   1.075   4.020  0.2385 -0.2823  0.6047
  971Sol     OW 6907   1.296   1.802   7.171  0.3329  0.2851 -0.7221
  971Sol     HW 6908   1.228   1.743   7.203 -0.4873  1.9335  0.6267
  971Sol     HW 6909   1.375   1.774   7.217 -0.0229  0.1459 -0.1929
  971Sol     MW 6910   1.297   1.794   7.178 -0.5770  0.1882 -0.9672
  972Sol     OW 6911   0.114   3.357   6.160  0.0650  0.1693  0.0726
  972Sol     HW 6912   0.090   3.287   6.221  0.4901  2.0467  2.4753
  972Sol     HW 6913   0.039   3.364   6.100 -0.0014 -2.2569 -0.1487
  972Sol     MW 6914   0.105   3.352   6.160 -0.3403  0.6124  0.1048
  973Sol     OW 6915   0.516   0.453   3.304 -0.4770 -0.4761 -0.2453
  973Sol     HW 6916   0.533   0.406   3.385 -2.8841 -1.8212 -0.4751
  973Sol     HW 6917   0.578   0.526   3.305  1.2814 -1.9446  1.5401
  973Sol     MW 6918   0.523   0.455   3.311 -0.1746  0.3904 -0.4019
  974Sol     OW 6919   2.334   2.505   9.204 -0.4442  0.1031 -0.0101
  974Sol     HW 6920   2.412   2.551   9.233 -0.0975 -0.5229  0.0439
  974Sol     HW 6921   2.262   2.565   9.224  0.0017  0.6047  0.0959
  974Sol     MW 6922   2.334   2.514   9.208 -0.0801 -0.6972  0.2208
  975Sol     OW 6923   0.268   2.618   7.625 -0.5326  0.3106 -0.7092
  975Sol     HW 6924   0.348   2.637   7.576  1.1052  0.5804  2.0186
  975Sol     HW 6925   0.291   2.631   7.716 -2.7775 -2.9108  0.3975
  975Sol     MW 6926   0.277   2.621   7.628  0.7445 -0.1411  0.1220
  976Sol     OW 6927   0.828   0.773   9.397 -0.0081 -0.4177  0.1081
  976Sol     HW 6928   0.811   0.866   9.414  0.2426 -0.1640 -1.0044
  976Sol     HW 6929   0.915   0.771   9.357 -0.1465 -1.1047 -0.1667
  976Sol     MW 6930   0.834   0.781   9.395 -0.2790 -0.4998 -0.3345
  977Sol     OW 6931   1.582   1.142   8.150  0.7130  0.2881 -0.2814
  977Sol     HW 6932   1.635   1.071   8.189  0.0168  1.3058  2.6681
  977Sol     HW 6933   1.493   1.108   8.149  0.8127  0.0373 -1.6317
  977Sol     MW 6934   1.579   1.133   8.154 -0.6395 -0.1490  0.9155
  978Sol     OW 6935   1.512   1.191   4.442 -0.4914  0.0102  0.7472
  978Sol     HW 6936   1.433   1.137   4.445 -0.7894  0.2466 -1.5536
  978Sol     HW 6937   1.481   1.281   4.449 -0.3628  0.0662  0.6120
  978Sol     MW 6938   1.502   1.194   4.443 -0.1117 -0.0115 -0.0149
  979Sol     OW 6939   2.544   3.257   7.256  0.6236 -0.2998  0.5180
  979Sol     HW 6940   2.622   3.269   7.309  0.9051 -1.1970  0.3112
  979Sol     HW 6941   2.493   3.191   7.303 -0.5267  1.0870  1.2319
  979Sol     MW 6942   2.546   3.252   7.265  0.2508 -0.0132  0.2436
  980Sol     OW 6943   2.949   2.130   4.887  0.1434 -0.0382 -0.1889
  980Sol     HW 6944   2.975   2.219   4.863  1.2765 -0.0583  0.9154
  980Sol     HW 6945   3.029   2.091   4.923 -0.9638 -0.7018  1.6149
  980Sol     MW 6946   2.959   2.134   4.888  0.4704  0.7300  0.4488
  981Sol     OW 6947   1.531   2.204   1.924  0.0756 -0.1587  0.0334
  981Sol     HW 6948   1.439   2.204   1.949 -0.1072  1.4053 -0.5967
  981Sol     HW 6949   1.531   2.222   1.830  1.0247  0.2596  0.1007
  981Sol     MW 6950   1.523   2.206   1.918 -0.1856 -0.2572 -0.0124
  982Sol     OW 6951   1.534   0.198   9.930 -0.0369 -0.8182  0.3453
  982Sol     HW 6952   1.571   0.227  10.013  0.3999 -0.8227  0.1550
  982Sol     HW 6953   1.608   0.197   9.870 -0.5067 -0.0393 -0.2515
  982Sol     MW 6954   1.544   0.200   9.932 -0.6318  0.3044 -0.5615
  983Sol     OW 6955   3.190   1.408   8.818 -0.1013 -0.4499 -0.7776
  983Sol     HW 6956   3.123   1.359   8.866 -0.1660 -0.4774 -0.8965
  983Sol     HW 6957   3.265   1.409   8.878  0.3846 -1.9254 -1.3243
  983Sol     MW 6958   3.191   1.403   8.828 -0.8218  0.0954 -0.5783
  984Sol     OW 6959   0.694   2.372   2.069 -0.1620 -0.4239 -0.1098
  984Sol     HW 6960   0.609   2.367   2.113  0.0108 -3.0308 -0.0115
  984Sol     HW 6961   0.674   2.353   1.977  0.1663  0.0412 -0.2753
  984Sol     MW 6962   0.684   2.370   2.065  0.6534 -0.9286  0.3225
  985Sol     OW 6963   1.910   2.752   4.635 -0.1327 -0.0339 -0.4249
  985Sol     HW 6964   1.881   2.728   4.723 -0.7358  1.0584 -0.3228
  985Sol     HW 6965   1.867   2.689   4.577 -0.2426 -0.3524 -0.0002
  985Sol     MW 6966   1.904   2.744   4.637  0.2705  0.3955 -0.7423
  986Sol     OW 6967   0.992   0.078   7.405  0.6433  0.6546  0.0102
  986Sol     HW 6968   1.055   0.126   7.350 -0.5759  1.7119 -0.4874
  986Sol     HW 6969   0.907   0.102   7.369 -0.0171 -1.3975  0.1799
  986Sol     MW 6970   0.990   0.085   7.397 -0.6222  0.3986 -0.1770
  987Sol     OW 6971   1.771   2.295   7.788 -0.2746 -0.1188  0.1547
  987Sol     HW 6972   1.736   2.298   7.699  3.3113  0.5343 -1.3160
  987Sol     HW 6973   1.786   2.202   7.804 -0.2648 -0.1824 -0.2137
  987Sol     MW 6974   1.770   2.287   7.781 -0.1364 -0.6411 -0.6169
  988Sol     OW 6975   2.896   1.025   5.428  0.0039  0.3726 -0.5746
  988Sol     HW 6976   2.811   0.982   5.419 -0.6774  1.2940  1.2014
  988Sol     HW 6977   2.953   0.977   5.368 -1.4992 -0.9720 -0.9811
  988Sol     MW 6978   2.894   1.017   5.422  0.7399  0.3467  0.6297
  989Sol     OW 6979   1.292   1.367   4.106 -0.1634  0.1058  0.1600
  989Sol     HW 6980   1.286   1.271   4.111  0.4928  0.0283 -0.5227
  989Sol     HW 6981   1.290   1.386   4.012 -0.9634  0.8099  0.3170
  989Sol     MW 6982   1.291   1.360   4.098 -0.5091 -0.6327 -0.3848
  990Sol     OW 6983   0.241   3.043   2.153  0.1179 -0.0617  0.0489
  990Sol     HW 6984   0.176   3.005   2.095 -0.1546  1.3586 -0.6043
  990Sol     HW 6985   0.195   3.115   2.197  1.1788  0.8436 -0.2827
  990Sol     MW 6986   0.231   3.046   2.152 -0.3023  0.2545 -0.3285
  991Sol     OW 6987   2.871   2.813   9.002 -0.1103  0.3049  0.6925
  991Sol     HW 6988   2.861   2.749   9.072  2.9358 -0.0045  0.9204
  991Sol     HW 6989   2.821   2.778   8.929 -0.3621 -1.1813  1.5776
  991Sol     MW 6990   2.866   2.804   9.002  0.1251  0.1509  0.8264
  992Sol     OW 6991   1.334   0.482   6.044  0.2040  0.2621 -0.1812
  992Sol     HW 6992   1.378   0.415   6.098  0.5824 -1.2159 -2.2460
  992Sol     HW 6993   1.244   0.482   6.075  0.2267 -1.1428 -0.0570
  992Sol     MW 6994   1.330   0.476   6.051 -0.0794 -0.9648 -0.1249
  993Sol     OW 6995   1.716   0.545   9.013  0.2279 -0.2415  0.2521
  993Sol     HW 6996   1.804   0.531   8.977  0.4501  1.0929  0.2481
  993Sol     HW 6997   1.713   0.487   9.090  1.1628 -0.2080  0.3300
  993Sol     MW 6998   1.724   0.538   9.017  0.5176  0.1811 -0.0247
  994Sol     OW 6999   1.730   1.646   6.632  0.3796 -0.6672  0.0735
  994Sol     HW 7000   1.691   1.665   6.547 -0.9928  1.0845  1.0581
  994Sol     HW 7001   1.760   1.556   6.625  0.1765 -0.5847 -2.2213
  994Sol     MW 7002   1.729   1.640   6.624  0.3925 -0.1404 -0.8133
  995Sol     OW 7003   1.739   2.710   9.599  0.6478  0.1384 -0.1028
  995Sol     HW 7004   1.730   2.695   9.505  0.8515  0.2957 -0.1472
  995Sol     HW 7005   1.822   2.668   9.622  0.0937 -0.7995  0.2001
  995Sol     MW 7006   1.746   2.705   9.593  0.0157 -0.2709  0.4100
  996Sol     OW 7007   1.272   2.540   5.211  0.4453  0.1873 -0.1036
  996Sol     HW 7008   1.260   2.534   5.306 -1.7421  0.2908 -0.3475
  996Sol     HW 7009   1.228   2.621   5.186  2.1084  0.8155 -1.0553
  996Sol     MW 7010   1.267   2.547   5.217 -0.0780 -0.4794  1.1274
  997Sol     OW 7011   1.111   2.147   6.699 -0.4232 -0.1057  0.2498
  997Sol     HW 7012   1.040   2.126   6.761 -0.3132  0.8686  0.7158
  997Sol     HW 7013   1.124   2.066   6.650 -2.2617 -0.1327 -0.2504
  997Sol     MW 7014   1.106   2.138   6.701  0.4029  0.0950 -0.1972
  998Sol     OW 7015   2.603   2.977   2.968 -0.4539  0.3049  0.2513
  998Sol     HW 7016   2.687   3.013   2.940 -0.5801  1.8187  1.7009
  998Sol     HW 7017   2.539   3.045   2.943 -0.9940  0.0450  0.9133
  998Sol     MW 7018   2.604   2.987   2.963 -0.5590 -0.0163 -0.1602
  999Sol     OW 7019   2.055   1.306   2.253 -0.0589 -0.1223  0.0889
  999Sol     HW 7020   1.985   1.247   2.280  1.3653 -1.9640 -0.1719
  999Sol     HW 7021   2.010   1.379   2.210 -1.6685 -2.7216 -2.7982
  999Sol     MW 7022   2.045   1.307   2.252 -0.2374 -0.3067  0.1104
 1000Sol     OW 7023   1.013   2.363   4.040 -0.2337  0.1853  0.3181
 1000Sol     HW 7024   1.058   2.285   4.007 -2.9949 -0.7415 -1.3787
 1000Sol     HW 7025   1.083   2.428   4.050  1.8753 -1.9835  0.2286
 1000Sol     MW 7026   1.024   2.362   4.038 -0.3189  0.6532  0.3792
 1001Sol     OW 7027   2.307   2.221   5.143  0.5808 -0.1735  0.4588
 1001Sol     HW 7028   2.394   2.193   5.114  0.7841  1.5645 -0.6438
 1001Sol     HW 7029   2.318   2.313   5.166 -0.8133 -0.1266  0.9698
 1001Sol     MW 7030   2.316   2.227   5.143  1.1265 -0.1430 -0.5734
 1002Sol     OW 7031   1.137   1.745   2.273  0.1233  0.2055 -0.8139
 1002Sol     HW 7032   1.057   1.702   2.303  0.6422  0.0260  0.3510
 1002Sol     HW 7033   1.110   1.796   2.197 -1.1481  0.3343 -0.2917
 1002Sol     MW 7034   1.127   1.745   2.269 -0.2247 -0.7052  0.7462
 1003Sol     OW 7035   0.562   1.804   5.318  0.0180 -0.1747  0.6509
 1003Sol     HW 7036   0.626   1.801   5.390 -0.6115 -1.7640  1.1816
 1003Sol     HW 7037   0.478   1.821   5.362  0.1623  2.6870 -0.1249
 1003Sol     MW 7038   0.560   1.805   5.329  1.0636 -0.7069 -0.4383
 1004Sol     OW 7039   1.837   2.906   5.484  0.1370 -0.8392 -0.7506
 1004Sol     HW 7040   1.900   2.836   5.500 -0.2597 -0.8140  1.0665
 1004Sol     HW 7041   1.752   2.864   5.490 -0.1492 -0.0198  1.5751
 1004Sol     MW 7042   1.835   2.896   5.486 -0.2370  0.2114 -0.0483
 1005Sol     OW 7043   2.216   3.027   1.499 -0.2713 -0.0603 -0.6448
 1005Sol     HW 7044   2.288   2.968   1.477 -0.0225  0.0310 -0.0868
 1005Sol     HW 7045   2.199   3.076   1.419  0.9262  0.6003 -0.5028
 1005Sol     MW 7046   2.220   3.026   1.490 -0.1610  0.3104 -1.0859
 1006Sol     OW 7047   1.012   2.487   9.040  0.0533  0.2426 -0.1230
 1006Sol     HW 7048   0.943   2.500   8.975  0.3695 -0.0410 -0.5107
 1006Sol     HW 7049   0.975   2.424   9.102 -0.1296  0.2833 -0.1919
 1006Sol     MW 7050   1.002   2.483   9.040 -0.1724  0.2445 -0.0258
 1007Sol     OW 7051   1.499   3.001   7.167  0.8335  0.4191  0.2421
 1007Sol     HW 7052   1.584   2.960   7.183  0.6222 -0.1111  0.0193
 1007Sol     HW 7053   1.442   2.929   7.139  0.0448  0.6081  1.3313
 1007Sol     MW 7054   1.501   2.991   7.166  0.7003  0.6845  0.5310
 1008Sol     OW 7055   2.841   3.310   9.533  0.5164 -0.0506  0.2792
 1008Sol     HW 7056   2.800   3.342   9.452 -0.0703  0.1421  0.6550
 1008Sol     HW 7057   2.929   3.349   9.531  1.3322 -1.8531 -1.3806
 1008Sol     MW 7058   2.845   3.316   9.525  0.6952  0.8999  0.4300
 1009Sol     OW 7059   0.838   2.180   2.685 -0.0910 -0.0354 -0.4329
 1009Sol     HW 7060   0.773   2.110   2.674 -0.0305  0.0469 -1.3113
 1009Sol     HW 7061   0.845   2.221   2.599  0.0817  0.8805  0.0014
 1009Sol     MW 7062   0.833   2.178   2.677  0.1006  0.1116 -0.2071
 1010Sol     OW 7063   2.663   0.445   4.433  0.0799 -0.6292 -0.1710
 1010Sol     HW 7064   2.586   0.480   4.478  1.0520  0.7559  0.4666
 1010Sol     HW 7065   2.640   0.448   4.340 -0.0516  1.3210 -0.1065
 1010Sol     MW 7066   2.654   0.448   4.429  1.1343  0.8006 -0.4900
 1011Sol     OW 7067   1.794   3.254   3.872 -0.1940  0.6639 -1.1946
 1011Sol     HW 7068   1.797   3.338   3.918  0.5299 -0.5269  1.0147
 1011Sol     HW 7069   1.710   3.216   3.897  0.6657 -0.4642  0.0873
 1011Sol     MW 7070   1.787   3.258   3.879 -0.8045 -0.6665 -0.2571
 1012Sol     OW 7071   2.955   2.896   3.136 -0.2576 -0.2784  0.5527
 1012Sol     HW 7072   3.047   2.886   3.161 -0.2259 -1.5214 -0.0376
 1012Sol     HW 7073   2.938   2.823   3.076 -1.4140  0.3929  0.0387
 1012Sol     MW 7074   2.962   2.889   3.133  0.6407  0.2656  0.3405
 1013Sol     OW 7075   1.101   2.753   6.856  0.0592  0.5120 -0.6133
 1013Sol     HW 7076   1.134   2.698   6.785  0.2115  0.1401 -0.2504
 1013Sol     HW 7077   1.031   2.805   6.815 -0.1776 -0.0476 -0.9209
 1013Sol     MW 7078   1.098   2.753   6.846 -0.6628  0.1335  0.4801
 1014Sol     OW 7079   0.374   1.924   2.645 -0.3738 -0.1353 -0.0207
 1014Sol     HW 7080   0.387   1.851   2.584 -0.2946 -0.4867  0.4087
 1014Sol     HW 7081   0.324   1.886   2.718  0.4043  0.0194  0.6104
 1014Sol     MW 7082   0.371   1.914   2.646 -0.2984 -0.7770 -0.4766
 1015Sol     OW 7083   2.739   1.419   7.665  0.3564 -0.2503 -0.1368
 1015Sol     HW 7084   2.768   1.331   7.639 -0.7677 -0.3021 -1.2387
 1015Sol     HW 7085   2.644   1.414   7.664  0.2206 -0.0591  3.4194
 1015Sol     MW 7086   2.733   1.410   7.663  1.3299 -0.3968  0.3704
 1016Sol     OW 7087   0.417   3.031   6.744 -0.3552  0.3149  0.2787
 1016Sol     HW 7088   0.411   2.961   6.808  1.2593  0.5140  0.6579
 1016Sol     HW 7089   0.400   3.111   6.794 -1.0153  0.3079  0.0734
 1016Sol     MW 7090   0.415   3.032   6.754 -0.4018 -0.0810  0.2172
 1017Sol     OW 7091   2.267   0.176   8.663  0.2622  0.0837 -0.0023
 1017Sol     HW 7092   2.233   0.252   8.615  0.0058  0.7789  1.2464
 1017Sol     HW 7093   2.198   0.155   8.726  1.5365  0.5918  1.5871
 1017Sol     MW 7094   2.257   0.181   8.664  0.5979 -0.3521  0.0899
 1018Sol     OW 7095   0.822   1.315   3.806  0.0091 -0.0173 -0.1378
 1018Sol     HW 7096   0.819   1.330   3.900 -0.3873  0.8833 -0.2913
 1018Sol     HW 7097   0.775   1.232   3.793  1.6610 -1.1063  0.6466
 1018Sol     MW 7098   0.818   1.309   3.813  0.6779  0.0471  0.0025
 1019Sol     OW 7099   2.616   1.603   8.266  0.6178 -0.6740 -0.1441
 1019Sol     HW 7100   2.538   1.548   8.259  0.2478 -0.4113  1.6774
 1019Sol     HW 7101   2.684   1.554   8.220 -1.2854  0.4798 -4.3964
 1019Sol     MW 7102   2.615   1.593   8.261  0.1372  0.0099 -0.4634
 1020Sol     OW 7103   1.331   2.956   3.256  0.4670  0.1630 -0.0779
 1020Sol     HW 7104   1.375   3.025   3.208  1.2547 -1.0783 -1.1607
 1020Sol     HW 7105   1.357   2.875   3.212 -2.4485 -0.6557 -0.4431
 1020Sol     MW 7106   1.337   2.955   3.248 -0.4014 -0.3446 -0.2793
 1021Sol     OW 7107   0.963   3.243   3.000 -0.2813 -0.6069 -0.0464
 1021Sol     HW 7108   0.968   3.335   2.972  3.5479 -0.4771  0.8950
 1021Sol     HW 7109   0.977   3.193   2.919 -1.6501 -0.3978 -0.4329
 1021Sol     MW 7110   0.964   3.247   2.990 -0.4941  0.4721 -0.0347
 1022Sol     OW 7111   2.668   2.875   5.366 -0.0028  0.2839  0.3921
 1022Sol     HW 7112   2.576   2.849   5.359  0.0731 -0.0746  0.7132
 1022Sol     HW 7113   2.668   2.945   5.432  0.0001  0.0619  0.6272
 1022Sol     MW 7114   2.660   2.879   5.371 -0.2437  0.9143 -0.3537
 1023Sol     OW 7115   0.129   0.738   2.210 -0.6007 -0.0656  0.0409
 1023Sol     HW 7116   0.115   0.715   2.118  1.4687 -0.1135 -0.2926
 1023Sol     HW 7117   0.063   0.804   2.229 -1.3403 -0.3927 -1.3599
 1023Sol     MW 7118   0.122   0.742   2.203  0.2904  0.1215  0.8384
 1024Sol     OW 7119   2.633   2.048   4.884 -0.3663  0.2283 -0.2337
 1024Sol     HW 7120   2.549   2.049   4.838  0.1100  0.2287 -1.1151
 1024Sol     HW 7121   2.696   2.018   4.818 -0.0131 -1.7718  0.9991
 1024Sol     MW 7122   2.631   2.046   4.874  0.0388 -0.3562  0.2972
 1025Sol     OW 7123   0.716   1.762   1.915  0.4931 -0.5487  0.6623
 1025Sol     HW 7124   0.723   1.844   1.867 -0.2198 -0.0724  1.3624
 1025Sol     HW 7125   0.804   1.725   1.911  0.6628 -0.0637 -0.2028
 1025Sol     MW 7126   0.725   1.766   1.911  0.1649 -0.0013 -0.3613
 1026Sol     OW 7127   0.710   2.121   6.654  0.0003  0.2228  0.3458
 1026Sol     HW 7128   0.631   2.107   6.602 -0.7947 -0.5265  1.7508
 1026Sol     HW 7129   0.779   2.078   6.604 -0.5312  0.5952 -0.7215
 1026Sol     MW 7130   0.709   2.116   6.645 -0.2868 -0.4129 -0.6061
 1027Sol     OW 7131   0.360   2.454   3.332 -0.0218 -0.3049  0.3203
 1027Sol     HW 7132   0.350   2.408   3.249  0.5344  2.0487 -1.1221
 1027Sol     HW 7133   0.410   2.533   3.309 -0.0255  0.4697  2.8553
 1027Sol     MW 7134   0.363   2.457   3.322 -0.7961 -0.1815  0.2469
 1028Sol     OW 7135   2.819   1.261   7.117 -0.0850 -0.1346 -0.1091
 1028Sol     HW 7136   2.748   1.233   7.174 -0.6304  0.6578 -0.3969
 1028Sol     HW 7137   2.886   1.294   7.177 -1.0836  1.6789  0.0377
 1028Sol     MW 7138   2.819   1.262   7.128 -0.7384 -0.1772  0.0650
 1029Sol     OW 7139   3.076   2.501   1.575  0.6460 -0.1478  0.2493
 1029Sol     HW 7140   3.056   2.409   1.559 -1.3202  0.3339 -0.3400
 1029Sol     HW 7141   3.018   2.527   1.646  0.6946  0.7885 -0.0338
 1029Sol     MW 7142   3.069   2.495   1.580  0.1267 -1.0066  0.2289
 1030Sol     OW 7143   0.289   3.291   7.085  0.2625  0.0480 -0.2130
 1030Sol     HW 7144   0.321   3.373   7.124  1.9105 -1.0063  0.7342
 1030Sol     HW 7145   0.321   3.293   6.995 -0.1216  0.6522 -0.3428
 1030Sol     MW 7146   0.295   3.299   7.080 -0.9866 -0.3450  0.0219
 1031Sol     OW 7147   2.450   1.651   2.579 -0.0897 -0.3909  0.1153
 1031Sol     HW 7148   2.406   1.677   2.499 -1.4302 -2.1515  0.2248
 1031Sol     HW 7149   2.469   1.733   2.625 -1.1996  0.5216 -1.0328
 1031Sol     MW 7150   2.448   1.660   2.576 -0.5172 -0.9797  0.5964
 1032Sol     OW 7151   0.091   2.428   2.825 -0.3689 -0.2415 -0.1521
 1032Sol     HW 7152   0.145   2.355   2.854  1.4902  1.2012  0.1212
 1032Sol     HW 7153   0.154   2.497   2.802 -2.0657  1.2470 -0.4669
 1032Sol     MW 7154   0.102   2.428   2.825 -0.6279 -0.1396 -0.0502
 1033Sol     OW 7155   1.385   3.105   2.679 -0.0382  0.1018 -0.5126
 1033Sol     HW 7156   1.323   3.056   2.626 -0.1545 -2.5338  1.9319
 1033Sol     HW 7157   1.331   3.149   2.745  0.4930 -0.4317  0.2882
 1033Sol     MW 7158   1.375   3.105   2.680  0.1902  0.0424 -0.1180
 1034Sol     OW 7159   0.662   2.066   4.686 -0.0989 -0.1839  0.1043
 1034Sol     HW 7160   0.679   2.120   4.609 -0.8265  0.8201  0.6262
 1034Sol     HW 7161   0.660   2.129   4.759 -0.4923 -0.9802  0.7882
 1034Sol     MW 7162   0.663   2.077   4.686  0.5528  0.1626  0.0906
 1035Sol     OW 7163   3.202   0.155   9.360  0.0005 -0.0609  0.4747
 1035Sol     HW 7164   3.179   0.170   9.268 -0.4586 -0.9351  0.4447
 1035Sol     HW 7165   3.286   0.198   9.370 -0.3067  0.7056 -0.1599
 1035Sol     MW 7166   3.207   0.160   9.353  0.3515  0.6881  0.2827
 1036Sol     OW 7167   3.135   1.849   4.948  0.2549 -0.5968 -0.3410
 1036Sol     HW 7168   3.143   1.913   4.878 -0.9306 -0.6473 -0.5298
 1036Sol     HW 7169   3.161   1.766   4.908  0.2093 -0.5165 -0.5361
 1036Sol     MW 7170   3.138   1.847   4.938 -0.6125 -0.4442 -0.6952
 1037Sol     OW 7171   1.325   0.934   2.081 -0.0959  0.1008 -0.0849
 1037Sol     HW 7172   1.375   0.949   2.001 -2.0144  1.7732 -1.0108
 1037Sol     HW 7173   1.237   0.911   2.051 -0.6981  0.1725  1.5388
 1037Sol     MW 7174   1.321   0.933   2.072  0.6364  0.2020  0.7010
 1038Sol     OW 7175   0.986   2.686   5.439  0.1010 -0.0299  0.6469
 1038Sol     HW 7176   0.988   2.750   5.510 -0.9303  1.0722 -0.3063
 1038Sol     HW 7177   0.938   2.729   5.369  0.4615 -1.3938 -0.4577
 1038Sol     MW 7178   0.982   2.696   5.439 -0.5526 -0.3763  0.4572
 1039Sol     OW 7179   2.156   1.896   6.489 -0.2418  0.3134  0.4583
 1039Sol     HW 7180   2.164   1.991   6.492  0.6348  0.3656 -2.1458
 1039Sol     HW 7181   2.159   1.875   6.396 -1.8487 -2.1593  0.9221
 1039Sol     MW 7182   2.157   1.903   6.481  0.4907 -0.1324 -0.8441
 1040Sol     OW 7183   0.100   3.290   3.491  0.5996 -0.5655 -0.3438
 1040Sol     HW 7184   0.184   3.266   3.454  0.1721 -2.5012 -0.1048
 1040Sol     HW 7185   0.035   3.256   3.430 -0.0336  0.5124 -0.2977
 1040Sol     MW 7186   0.102   3.285   3.482 -0.5762 -0.4670 -0.0023
 1041Sol     OW 7187   2.874   3.422   2.374 -0.0856 -0.3391  0.1448
 1041Sol     HW 7188   2.878   3.432   2.469  0.5643 -1.6824  0.2752
 1041Sol     HW 7189   2.931   3.490   2.340  2.5867 -2.1077  0.8862
 1041Sol     MW 7190   2.879   3.429   2.380 -0.4232  0.2450  0.5817
 1042Sol     OW 7191   2.891   0.172   8.595 -0.2551 -0.4840  0.2064
 1042Sol     HW 7192   2.855   0.123   8.521 -0.5752 -0.8959  0.6346
 1042Sol     HW 7193   2.878   0.264   8.572  0.5973 -0.5809 -0.7319
 1042Sol     MW 7194   2.887   0.176   8.586  0.0015 -0.9054  0.3467
 1043Sol     OW 7195   2.582   1.394   9.316  0.0344  0.0245 -0.2262
 1043Sol     HW 7196   2.550   1.443   9.241  1.6229 -0.1641 -1.0721
 1043Sol     HW 7197   2.507   1.343   9.346 -0.8287  0.7087 -1.2042
 1043Sol     MW 7198   2.573   1.393   9.312 -0.3691  0.5973  0.0428
 1044Sol     OW 7199   1.632   1.816   4.707 -0.3667  0.0930 -0.1785
 1044Sol     HW 7200   1.651   1.746   4.769  1.6802  0.7159 -0.0614
 1044Sol     HW 7201   1.708   1.874   4.712 -1.8442  2.1268 -0.5538
 1044Sol     MW 7202   1.640   1.815   4.713  0.4619  0.9074 -0.3776
 1045Sol     OW 7203   0.736   1.401   2.030  0.7173  0.5499  0.5378
 1045Sol     HW 7204   0.721   1.329   2.091  0.0089 -0.3939 -0.7247
 1045Sol     HW 7205   0.831   1.404   2.020  0.6923 -1.3220 -0.6526
 1045Sol     MW 7206   0.743   1.395   2.034  0.6435 -0.3295 -0.2186
 1046Sol     OW 7207   2.334   0.586   9.140  0.1971 -0.0424 -0.7657
 1046Sol     HW 7208   2.374   0.661   9.185 -0.8722 -0.3028  0.6746
 1046Sol     HW 7209   2.286   0.626   9.067  0.1054  0.6298 -0.3488
 1046Sol     MW 7210   2.333   0.596   9.137  0.1545  0.6697 -0.1746
 1047Sol     OW 7211   1.381   1.421   5.532  0.0007  0.3903  0.0899
 1047Sol     HW 7212   1.296   1.456   5.556 -1.2446 -3.0072  0.9266
 1047Sol     HW 7213   1.402   1.463   5.448 -1.7082  2.4758  0.6865
 1047Sol     MW 7214   1.376   1.428   5.526 -0.3100 -0.4096 -0.3028
 1048Sol     OW 7215   2.177   0.633   3.572  0.2166 -0.2591  0.5388
 1048Sol     HW 7216   2.259   0.655   3.529 -0.4135  1.0134 -0.0511
 1048Sol     HW 7217   2.144   0.557   3.524 -0.0582  0.6192 -0.6980
 1048Sol     MW 7218   2.181   0.628   3.564 -0.8549 -0.9771 -1.1212
 1049Sol     OW 7219   1.183   1.149   7.218  0.1610 -0.6495  0.2235
 1049Sol     HW 7220   1.177   1.235   7.261  0.1737  0.0353 -1.1028
 1049Sol     HW 7221   1.254   1.105   7.264 -1.0498 -0.6805  2.1471
 1049Sol     MW 7222   1.188   1.153   7.226  0.4823 -0.1112 -0.0219
 1050Sol     OW 7223   0.126   0.539   6.093 -0.5248  0.3733 -0.9453
 1050Sol     HW 7224   0.221   0.530   6.096 -0.2988  1.8584 -2.5409
 1050Sol     HW 7225   0.094   0.452   6.069  0.1876 -0.9161  2.5030
 1050Sol     MW 7226   0.132   0.530   6.091 -0.6083 -0.3392 -0.0953
 1051Sol     OW 7227   1.008   2.084   7.561 -0.5196 -0.2148 -0.7729
 1051Sol     HW 7228   1.037   2.042   7.480 -0.9063  0.8860 -1.4949
 1051Sol     HW 7229   1.061   2.164   7.567 -2.3711  1.0815 -1.3565
 1051Sol     MW 7230   1.016   2.087   7.554  0.0714  0.0431  0.4870
 1052Sol     OW 7231   0.153   1.472   7.025 -0.1870 -0.2519  0.9179
 1052Sol     HW 7232   0.159   1.522   7.107  0.1504 -2.1322  2.0668
 1052Sol     HW 7233   0.093   1.401   7.045 -1.7190  0.4352 -1.1171
 1052Sol     MW 7234   0.148   1.470   7.034  0.0872 -0.1906 -0.3039
 1053Sol     OW 7235   2.010   1.020   9.363  0.0810 -0.2546 -0.4347
 1053Sol     HW 7236   1.937   0.976   9.408 -0.6187 -0.2817 -1.5831
 1053Sol     HW 7237   2.086   0.967   9.384 -0.2170 -0.1901  0.8402
 1053Sol     MW 7238   2.010   1.011   9.369 -0.2273  0.4123  0.5352
 1054Sol     OW 7239   2.674   0.420   3.138 -0.0373  0.5416  0.1396
 1054Sol     HW 7240   2.687   0.349   3.076 -1.3749 -0.8096  1.3425
 1054Sol     HW 7241   2.590   0.459   3.113  0.3886  1.2915 -0.1322
 1054Sol     MW 7242   2.667   0.417   3.130 -1.7411 -0.7417 -0.2344
 1055Sol     OW 7243   2.567   2.985   6.658 -0.1066 -0.6657 -0.1940
 1055Sol     HW 7244   2.639   3.011   6.600 -0.6560 -1.6455 -1.3372
 1055Sol     HW 7245   2.497   2.957   6.599 -1.6815  0.8747  0.9029
 1055Sol     MW 7246   2.567   2.985   6.647 -0.5517 -0.0138 -0.8563
 1056Sol     OW 7247   1.544   0.676   1.827 -0.1914  0.0757 -0.2126
 1056Sol     HW 7248   1.591   0.728   1.892  2.3130 -0.9349 -1.1281
 1056Sol     HW 7249   1.550   0.727   1.746 -0.4510 -0.1854 -0.3971
 1056Sol     MW 7250   1.549   0.685   1.825 -0.9262  0.1556  0.0434
 1057Sol     OW 7251   1.826   2.444   5.093 -0.4109  0.2849 -0.5250
 1057Sol     HW 7252   1.912   2.447   5.052  0.0619  0.5480  0.4849
 1057Sol     HW 7253   1.817   2.354   5.124  0.2588  0.7159  0.9671
 1057Sol     MW 7254   1.833   2.436   5.092  0.9366 -0.5639  1.0679
 1058Sol     OW 7255   2.495   2.720   2.923 -0.4384  0.0371 -0.2315
 1058Sol     HW 7256   2.548   2.653   2.965  0.9454 -0.4778 -2.6900
 1058Sol     HW 7257   2.551   2.797   2.920 -0.6299  0.1582 -0.8385
 1058Sol     MW 7258   2.505   2.721   2.926  0.4912  0.0646  0.7482
 1059Sol     OW 7259   3.114   1.101   2.718  0.1977  0.5148  0.2809
 1059Sol     HW 7260   3.134   1.185   2.677  0.6952  0.0034 -0.5469
 1059Sol     HW 7261   3.199   1.058   2.727 -0.3598 -1.2725 -2.3452
 1059Sol     MW 7262   3.124   1.105   2.715  0.2129 -1.4480 -1.1787
 1060Sol     OW 7263   0.313   2.364   4.922 -0.1381 -0.1532 -0.3219
 1060Sol     HW 7264   0.370   2.413   4.862  0.0677 -0.5016 -0.4111
 1060Sol     HW 7265   0.228   2.407   4.913  0.2276  0.7006  0.1993
 1060Sol     MW 7266   0.311   2.373   4.916  0.4382  0.1685 -0.8289
 1061Sol     OW 7267   1.665   2.666   8.954 -0.1473  0.0524  0.0551
 1061Sol     HW 7268   1.745   2.700   8.995 -0.2030  0.7540 -0.3993
 1061Sol     HW 7269   1.697   2.613   8.881 -0.0202 -1.8737  1.4677
 1061Sol     MW 7270   1.675   2.665   8.951  0.1499  0.8992 -0.3263
 1062Sol     OW 7271   0.236   0.810   3.201  0.0837 -0.2491  0.1640
 1062Sol     HW 7272   0.148   0.840   3.179  0.2223  0.1569  0.1654
 1062Sol     HW 7273   0.225   0.757   3.281 -0.3935 -1.5766 -0.7663
 1062Sol     MW 7274   0.227   0.808   3.207  0.0883 -0.5700  0.2122
 1063Sol     OW 7275   2.072   2.681   6.141  0.4407  0.1971  0.5079
 1063Sol     HW 7276   2.025   2.616   6.090 -1.5432  0.1590  2.2983
 1063Sol     HW 7277   2.157   2.641   6.159  0.3348 -0.6644 -0.8645
 1063Sol     MW 7278   2.076   2.672   6.138 -0.1876 -0.3368  0.0124
 1064Sol     OW 7279   0.440   1.430   7.585  0.6549 -0.5769  0.4563
 1064Sol     HW 7280   0.438   1.490   7.660  0.2380  0.1133 -0.0933
 1064Sol     HW 7281   0.521   1.452   7.539 -0.8775  1.5885 -1.3356
 1064Sol     MW 7282   0.447   1.438   7.587 -0.3405 -0.1789 -0.0348
 1065Sol     OW 7283   1.386   0.155   2.912  0.6968 -0.1207 -0.0086
 1065Sol     HW 7284   1.443   0.086   2.878  0.3675 -0.0585 -0.6927
 1065Sol     HW 7285   1.328   0.110   2.973  0.6096 -0.4130 -0.3082
 1065Sol     MW 7286   1.386   0.145   2.914  0.3189  0.3909 -0.0581
 1066Sol     OW 7287   0.734   1.175   3.455  0.0688  0.4286  0.2290
 1066Sol     HW 7288   0.656   1.196   3.507 -1.0512 -2.0412 -0.3717
 1066Sol     HW 7289   0.783   1.257   3.451 -1.5955  1.5717  2.1561
 1066Sol     MW 7290   0.732   1.184   3.460  0.0282 -0.3948 -0.0714
 1067Sol     OW 7291   1.909   2.070   5.881 -0.1892  0.2170 -0.3018
 1067Sol     HW 7292   1.855   2.117   5.817  2.4830  2.2619 -1.1329
 1067Sol     HW 7293   1.901   1.978   5.856 -1.3552  0.7218 -1.8899
 1067Sol     MW 7294   1.903   2.066   5.873  0.1111 -0.2560  0.7794
 1068Sol     OW 7295   0.466   2.983   3.688  0.0119  0.3772  0.1089
 1068Sol     HW 7296   0.533   2.926   3.726 -0.9321 -0.9763 -0.2313
 1068Sol     HW 7297   0.434   2.936   3.611 -1.0978  1.1673  0.0668
 1068Sol     MW 7298   0.469   2.974   3.685  0.2386 -0.0081 -0.5093
 1069Sol     OW 7299   1.678   3.062   8.249 -0.0326 -0.4463 -0.0484
 1069Sol     HW 7300   1.666   3.045   8.343 -0.6174  1.3535  0.2299
 1069Sol     HW 7301   1.772   3.078   8.241  0.2947 -2.2840 -0.0798
 1069Sol     MW 7302   1.686   3.062   8.257  0.6146  0.2697 -0.6804
 1070Sol     OW 7303   2.201   0.763   5.608  0.4513 -0.3384  0.7921
 1070Sol     HW 7304   2.272   0.781   5.670  1.3578 -0.0409 -0.2984
 1070Sol     HW 7305   2.146   0.698   5.652  1.4310 -0.6017  1.6486
 1070Sol     MW 7306   2.203   0.759   5.618 -0.3056  0.0229 -0.3664
 1071Sol     OW 7307   1.723   0.459   3.551 -0.0526 -0.2460 -0.2499
 1071Sol     HW 7308   1.682   0.376   3.576  0.8364  0.1120  2.6926
 1071Sol     HW 7309   1.652   0.523   3.555 -0.5960 -0.7211 -1.8558
 1071Sol     MW 7310   1.713   0.457   3.554  0.5174  0.3308  0.1945
 1072Sol     OW 7311   2.878   2.804   9.948 -0.2665  0.4001 -0.6249
 1072Sol     HW 7312   2.971   2.780   9.948 -0.5974 -1.1098  1.9813
 1072Sol     HW 7313   2.833   2.726   9.980 -2.2643  1.7008 -0.1666
 1072Sol     MW 7314   2.883   2.795   9.951  0.2481 -0.1456 -0.4066
 1073Sol     OW 7315   0.424   0.743   1.699  0.1504 -0.5686 -0.7569
 1073Sol     HW 7316   0.342   0.779   1.665 -0.7647 -0.8981  1.0436
 1073Sol     HW 7317   0.428   0.774   1.790  0.8281 -2.5165 -0.0929
 1073Sol     MW 7318   0.417   0.749   1.704  0.5119 -0.3367  0.3456
 1074Sol     OW 7319   0.511   1.537   3.603  0.8419  0.5155  0.4359
 1074Sol     HW 7320   0.426   1.576   3.626  0.8509  0.9243 -0.2029
 1074Sol     HW 7321   0.507   1.523   3.508  0.5683 -1.7479  0.7549
 1074Sol     MW 7322   0.503   1.540   3.597 -0.2711 -0.2162  0.2203
 1075Sol     OW 7323   1.349   0.450   4.802 -0.3386 -0.2090 -0.3537
 1075Sol     HW 7324   1.349   0.536   4.844  0.3065 -0.8192  0.8764
 1075Sol     HW 7325   1.381   0.390   4.868 -0.7814 -1.4138 -1.2152
 1075Sol     MW 7326   1.352   0.453   4.811  0.3086  0.7589 -0.4189
 1076Sol     OW 7327   0.452   0.164   4.823  0.4246 -0.0375  0.1488
 1076Sol     HW 7328   0.542   0.153   4.853  0.6861  1.0159 -0.2320
 1076Sol     HW 7329   0.399   0.117   4.887  1.2498 -0.6481  0.3796
 1076Sol     MW 7330   0.455   0.159   4.832  0.2354  0.2997  0.2526
 1077Sol     OW 7331   0.051   2.598   7.459 -0.5509  0.1526 -0.1900
 1077Sol     HW 7332   0.086   2.651   7.388  2.7860 -1.9952 -0.2677
 1077Sol     HW 7333   0.121   2.598   7.525 -0.7060 -3.5076  0.0827
 1077Sol     MW 7334   0.061   2.603   7.459  0.1659  0.0306 -0.9022
 1078Sol     OW 7335   0.115   0.247   5.079 -0.3273 -0.4614 -0.0750
 1078Sol     HW 7336   0.108   0.244   4.984  0.4366 -1.2076 -0.1080
 1078Sol     HW 7337   0.106   0.340   5.101 -0.5179 -0.2911 -0.8650
 1078Sol     MW 7338   0.113   0.255   5.073 -0.2396 -0.1456 -0.4829
 1079Sol     OW 7339   3.069   0.924   5.260  0.2566  0.0400 -0.0672
 1079Sol     HW 7340   3.013   0.897   5.187 -0.7811 -0.4561  0.9003
 1079Sol     HW 7341   3.154   0.942   5.220 -0.3084 -0.2296 -1.3971
 1079Sol     MW 7342   3.072   0.923   5.250 -0.1617  0.5252 -0.2649
 1080Sol     OW 7343   3.112   2.173   5.918 -0.4689 -0.0922  0.7482
 1080Sol     HW 7344   3.129   2.099   5.860 -0.4697 -0.4333  1.1722
 1080Sol     HW 7345   3.116   2.135   6.006  1.8633  0.8610  1.0826
 1080Sol     MW 7346   3.113   2.163   5.921 -0.1521 -0.0309  0.0280
 1081Sol     OW 7347   3.129   1.650   1.941  0.3773 -0.6661  0.1741
 1081Sol     HW 7348   3.075   1.722   1.909  1.3432  0.9394  2.0869
 1081Sol     HW 7349   3.173   1.617   1.863 -1.5354 -0.4583 -1.0281
 1081Sol     MW 7350   3.128   1.653   1.931  0.3112  0.2274  0.1980
 1082Sol     OW 7351   1.081   1.475   5.396 -0.1348 -0.2085  0.6884
 1082Sol     HW 7352   1.008   1.426   5.358  0.2267 -0.1223 -0.1298
 1082Sol     HW 7353   1.048   1.564   5.406  0.6633  0.4321 -2.0590
 1082Sol     MW 7354   1.071   1.479   5.393 -0.0160  0.3552  0.1115
 1083Sol     OW 7355   2.412   1.423   8.858  0.0678  0.2384  0.2374
 1083Sol     HW 7356   2.487   1.418   8.798 -0.2312  0.6422 -0.1750
 1083Sol     HW 7357   2.406   1.335   8.895 -1.6817 -0.9809 -2.7494
 1083Sol     MW 7358   2.418   1.414   8.856  0.6437 -0.7806 -0.5447
 1084Sol     OW 7359   1.863   1.910   6.575 -0.1375 -0.4021 -0.4037
 1084Sol     HW 7360   1.945   1.877   6.539 -0.5315 -0.3159 -1.3998
 1084Sol     HW 7361   1.828   1.837   6.627 -0.9140 -1.5392 -2.4343
 1084Sol     MW 7362   1.867   1.900   6.576 -0.4778  1.3012  0.1912
 1085Sol     OW 7363   3.177   3.292   4.654 -0.3053 -0.0473  0.0353
 1085Sol     HW 7364   3.253   3.327   4.701 -1.2945  1.4517  0.5555
 1085Sol     HW 7365   3.191   3.318   4.563 -0.0926  0.0599  0.0983
 1085Sol     MW 7366   3.185   3.298   4.650  0.6991 -0.0111 -0.1186
 1086Sol     OW 7367   0.272   1.500   8.727  0.4240 -0.0351 -0.3038
 1086Sol     HW 7368   0.351   1.452   8.753  0.4676 -0.2621 -0.8421
 1086Sol     HW 7369   0.236   1.534   8.809  0.3875 -0.9958  0.0796
 1086Sol     MW 7370   0.276   1.499   8.737  0.2272  0.3282  1.1167
 1087Sol     OW 7371   1.785   0.913   1.503 -0.2699 -0.8973  0.8798
 1087Sol     HW 7372   1.837   0.992   1.517  0.0266 -1.0061  0.4067
 1087Sol     HW 7373   1.850   0.843   1.496 -0.4969 -1.0745  0.5606
 1087Sol     MW 7374   1.795   0.914   1.504 -0.1855  0.5812  0.2072
 1088Sol     OW 7375   0.420   3.277   6.311  0.3804  0.5054 -0.2188
 1088Sol     HW 7376   0.385   3.195   6.277  1.0836  0.3731 -0.6304
 1088Sol     HW 7377   0.356   3.305   6.376  0.1970 -0.4306  0.0097
 1088Sol     MW 7378   0.411   3.272   6.314  0.4941 -0.0803 -0.1697
 1089Sol     OW 7379   0.899   1.928   7.748 -0.0262 -0.1100  0.0034
 1089Sol     HW 7380   0.875   1.864   7.681  0.2959  0.2100 -0.4156
 1089Sol     HW 7381   0.953   1.993   7.702  1.1363 -0.4926  0.8120
 1089Sol     MW 7382   0.902   1.928   7.738 -0.4945  0.0011 -0.1684
 1090Sol     OW 7383   0.277   1.960   4.490  0.8383  0.5185 -0.3649
 1090Sol     HW 7384   0.272   2.004   4.574  1.1623  0.9182 -0.5545
 1090Sol     HW 7385   0.305   2.027   4.428  0.8008  0.1812 -0.7570
 1090Sol     MW 7386   0.279   1.970   4.492  0.2307 -0.1185  0.3248
 1091Sol     OW 7387   1.283   2.010   2.316 -0.0734  0.0142 -0.1398
 1091Sol     HW 7388   1.286   1.952   2.239 -1.7983 -0.9689  0.4996
 1091Sol     HW 7389   1.213   1.973   2.371 -1.2574  2.7399  0.2777
 1091Sol     MW 7390   1.277   2.001   2.314 -0.4638 -0.4142 -0.0482
 1092Sol     OW 7391   2.928   0.337   6.797  0.0384 -0.2494  0.3430
 1092Sol     HW 7392   2.912   0.284   6.719 -0.8620 -0.2676  0.5324
 1092Sol     HW 7393   2.914   0.276   6.870  0.6443 -0.1727  0.5239
 1092Sol     MW 7394   2.925   0.327   6.796  0.3220 -0.1706 -0.1519
 1093Sol     OW 7395   1.887   1.114   9.828  0.2270  0.4823  0.2746
 1093Sol     HW 7396   1.912   1.206   9.834 -0.0128  0.6551 -1.1896
 1093Sol     HW 7397   1.961   1.066   9.866 -0.3192  1.3370  2.4865
 1093Sol     MW 7398   1.896   1.118   9.832 -0.4850  0.4719  0.4202
 1094Sol     OW 7399   2.574   1.254   7.962 -0.0048 -0.6418  0.0649
 1094Sol     HW 7400   2.544   1.229   7.875  0.5247 -1.4113  0.1013
 1094Sol     HW 7401   2.518   1.328   7.986 -0.9184 -1.1577 -0.4547
 1094Sol     MW 7402   2.566   1.258   7.957  0.0489 -1.0300 -0.4537
 1095Sol     OW 7403   2.953   0.369   3.823 -0.4917  0.7250  0.1964
 1095Sol     HW 7404   2.972   0.427   3.749  0.0921 -0.4563 -0.6058
 1095Sol     HW 7405   2.986   0.416   3.899  1.6705  0.6491 -0.6641
 1095Sol     MW 7406   2.958   0.379   3.823  0.3947  0.6257 -0.5664
 1096Sol     OW 7407   2.774   0.665   2.436 -0.3036  0.1938 -0.1434
 1096Sol     HW 7408   2.745   0.593   2.492  0.7914  0.2785  0.5591
 1096Sol     HW 7409   2.743   0.744   2.481  0.7406  0.2713  0.4672
 1096Sol     MW 7410   2.769   0.665   2.445 -0.2570  0.3776  0.5326
 1097Sol     OW 7411   3.310   0.011   4.186 -0.0931 -0.0981 -0.3423
 1097Sol     HW 7412   3.398   0.027   4.220 -0.3798 -0.2768  0.5128
 1097Sol     HW 7413   3.319  -0.067   4.131  0.6963  1.1562 -2.0125
 1097Sol     MW 7414   3.319   0.005   4.184  0.2447  0.3897  0.1458
 1098Sol     OW 7415   2.139   2.040   6.052 -0.3333  0.1809  0.0158
 1098Sol     HW 7416   2.184   2.031   5.968 -1.5839  0.9109 -0.7469
 1098Sol     HW 7417   2.046   2.039   6.030 -0.6961 -0.5003  1.4892
 1098Sol     MW 7418   2.135   2.039   6.043  0.2983  0.5830  0.3776
 1099Sol     OW 7419   0.137   1.656   3.348  0.6330 -0.4929  0.2114
 1099Sol     HW 7420   0.100   1.600   3.280  1.2266  0.5640 -0.9968
 1099Sol     HW 7421   0.231   1.648   3.338  0.7199  0.8651 -0.0948
 1099Sol     MW 7422   0.142   1.650   3.341  0.8195 -0.2285  0.4549
 1100Sol     OW 7423   1.687   2.612   4.043  0.0099  0.0857  0.1711
 1100Sol     HW 7424   1.637   2.644   4.117 -0.7508  1.6576 -1.0122
 1100Sol     HW 7425   1.637   2.537   4.011 -0.4385  0.3141  0.3346
 1100Sol     MW 7426   1.678   2.608   4.047 -0.3597 -0.5493 -0.1634
 1101Sol     OW 7427   2.458   2.753   7.175  0.2689  0.3105  0.0676
 1101Sol     HW 7428   2.547   2.788   7.168  0.8498 -0.8527  1.2590
 1101Sol     HW 7429   2.439   2.718   7.089  0.8505  0.8306 -0.2802
 1101Sol     MW 7430   2.464   2.753   7.167  1.3036  0.1847 -0.5927
 1102Sol     OW 7431   0.857   0.393   5.314 -0.2632 -0.3638 -0.4286
 1102Sol     HW 7432   0.944   0.378   5.352  0.8664  0.5180 -2.5714
 1102Sol     HW 7433   0.859   0.484   5.284 -1.9593 -0.3058 -0.4281
 1102Sol     MW 7434   0.865   0.400   5.315  0.6630 -0.3917  0.2402
 1103Sol     OW 7435   1.571   2.599   2.674  0.1580  0.7032  0.3914
 1103Sol     HW 7436   1.534   2.670   2.621  0.0773 -0.0949 -0.6291
 1103Sol     HW 7437   1.560   2.521   2.621 -1.7533 -0.4675  2.3991
 1103Sol     MW 7438   1.567   2.598   2.665  0.3178 -0.3668 -0.0803
 1104Sol     OW 7439   1.254   2.755   4.609  0.0184  0.3590  0.2683
 1104Sol     HW 7440   1.344   2.776   4.634 -0.1214 -0.0941  1.1728
 1104Sol     HW 7441   1.262   2.674   4.558  0.1760  0.6143 -0.1161
 1104Sol     MW 7442   1.263   2.750   4.607 -0.4941  0.0425 -0.7676
 1105Sol     OW 7443   1.114   2.761   8.519  0.0890 -0.3429  0.4640
 1105Sol     HW 7444   1.205   2.789   8.529  0.1823  0.1654 -1.5917
 1105Sol     HW 7445   1.082   2.810   8.443 -2.2585  0.3592  1.8776
 1105Sol     MW 7446   1.119   2.768   8.513  1.1220  0.8409  0.1563
 1106Sol     OW 7447   1.491   0.269   4.953  0.1779 -0.0022 -0.1692
 1106Sol     HW 7448   1.511   0.347   5.004  0.1774 -0.3648  0.3952
 1106Sol     HW 7449   1.523   0.197   5.007  1.2005 -0.3185 -1.2023
 1106Sol     MW 7450   1.495   0.269   4.962 -0.5011  0.2928  0.0988
 1107Sol     OW 7451   0.944   3.313   4.936  0.1424 -0.5283  0.0812
 1107Sol     HW 7452   0.986   3.335   4.853 -1.7348  0.2112 -0.7074
 1107Sol     HW 7453   1.006   3.343   5.003 -0.2462  2.9526 -1.0206
 1107Sol     MW 7454   0.953   3.318   4.935  1.1730 -0.0655  0.2050
 1108Sol     OW 7455   0.890   1.722   4.592 -0.0961  0.4045 -0.2609
 1108Sol     HW 7456   0.806   1.685   4.621  0.3869 -1.0057 -0.6223
 1108Sol     HW 7457   0.870   1.814   4.574 -1.5553  0.1142 -0.2534
 1108Sol     MW 7458   0.880   1.727   4.593  0.2894 -0.4511 -0.4055
 1109Sol     OW 7459   0.300   0.015   5.014  0.6401  0.4798  0.1003
 1109Sol     HW 7460   0.219   0.043   5.056 -0.7049 -1.1917 -1.2852
 1109Sol     HW 7461   0.339  -0.047   5.075 -0.8112 -1.1924 -0.5977
 1109Sol     MW 7462   0.296   0.012   5.023  0.6730 -0.2519 -0.0430
 1110Sol     OW 7463   3.029   2.384   4.814 -0.4900  0.1616  0.0975
 1110Sol     HW 7464   3.026   2.406   4.721  0.8201 -0.8442 -0.1862
 1110Sol     HW 7465   3.059   2.464   4.856  1.5074 -0.1606 -0.6434
 1110Sol     MW 7466   3.031   2.393   4.809  0.5585  0.4573  0.5716
 1111Sol     OW 7467   3.003   3.162   2.517  0.3013 -0.3963 -0.5770
 1111Sol     HW 7468   3.013   3.067   2.512 -0.0310 -0.3841 -1.6497
 1111Sol     HW 7469   3.064   3.196   2.451  0.2571  0.1233 -0.3513
 1111Sol     MW 7470   3.010   3.157   2.510 -0.0367  0.6957  0.1184
 1112Sol     OW 7471   2.772   1.764   9.307 -0.6224 -0.2650 -0.2420
 1112Sol     HW 7472   2.699   1.784   9.248 -0.1445  0.6138 -0.5413
 1112Sol     HW 7473   2.824   1.699   9.260 -2.3718 -2.5597  0.8813
 1112Sol     MW 7474   2.770   1.760   9.297  0.3794 -0.2807 -0.4585
 1113Sol     OW 7475   2.080   2.121   3.839 -0.6767 -0.3658  0.5666
 1113Sol     HW 7476   2.048   2.210   3.824  0.4300  0.1339  1.0793
 1113Sol     HW 7477   2.144   2.131   3.910 -0.0617 -1.4641  0.1657
 1113Sol     MW 7478   2.083   2.130   3.844 -0.7373 -0.8913  0.6340
 1114Sol     OW 7479   2.558   1.816   4.228 -0.1869 -0.0235  0.3633
 1114Sol     HW 7480   2.634   1.874   4.218 -0.3037  0.2186  0.8771
 1114Sol     HW 7481   2.593   1.728   4.219  0.2404  0.0664  1.1250
 1114Sol     MW 7482   2.568   1.813   4.226  0.2873 -0.6624 -0.3460
 1115Sol     OW 7483   2.048   0.381   1.703 -0.0904 -0.1992 -0.2255
 1115Sol     HW 7484   2.000   0.308   1.742  0.5878  0.1579  1.3424
 1115Sol     HW 7485   2.124   0.393   1.761  0.7633  0.5878 -1.4787
 1115Sol     MW 7486   2.051   0.376   1.712  0.3121  0.2929  0.0396
 1116Sol     OW 7487   2.234   1.144   6.931  0.0810 -0.0237  0.3844
 1116Sol     HW 7488   2.235   1.125   7.024 -1.3929  0.1901  0.4612
 1116Sol     HW 7489   2.326   1.153   6.907  0.3953  2.2174  2.2755
 1116Sol     MW 7490   2.242   1.143   6.937  0.3109 -0.0050 -0.5027
 1117Sol     OW 7491   1.320   1.080   8.154 -0.1407  0.0320 -0.4699
 1117Sol     HW 7492   1.246   1.131   8.120  1.7230  2.0578 -1.5968
 1117Sol     HW 7493   1.295   1.060   8.244 -1.9037  1.0301 -0.7013
 1117Sol     MW 7494   1.311   1.083   8.159 -0.1335 -0.7047 -0.2910
 1118Sol     OW 7495   0.622   0.289   5.207 -0.3012 -0.4056 -0.3136
 1118Sol     HW 7496   0.712   0.302   5.236 -0.7311  2.6216 -0.1062
 1118Sol     HW 7497   0.616   0.338   5.125 -1.8591 -0.1783 -0.0808
 1118Sol     MW 7498   0.629   0.295   5.202 -0.4226 -0.9646  0.4889
 1119Sol     OW 7499   1.018   3.178   4.457 -0.1775 -0.4502  0.3681
 1119Sol     HW 7500   1.052   3.218   4.377  0.0678  1.7683  1.5417
 1119Sol     HW 7501   1.063   3.094   4.463 -1.7468 -1.6222 -2.9067
 1119Sol     MW 7502   1.025   3.174   4.450  0.8281 -0.4596  0.4705
 1120Sol     OW 7503   1.412   3.146   3.097  0.5237  0.1202  0.3471
 1120Sol     HW 7504   1.416   3.198   3.017 -1.3145  2.4625  1.7269
 1120Sol     HW 7505   1.503   3.128   3.120  1.0708 -0.8116 -2.3790
 1120Sol     MW 7506   1.420   3.149   3.092 -0.8384  1.0296 -1.0222
 1121Sol     OW 7507   3.117   1.251   9.477 -0.4295  0.4489  0.3477
 1121Sol     HW 7508   3.156   1.337   9.490 -1.7433  1.0397  0.5322
 1121Sol     HW 7509   3.022   1.267   9.483 -0.7279 -0.8138 -0.7205
 1121Sol     MW 7510   3.112   1.260   9.479 -0.7649 -0.6817 -0.6596
 1122Sol     OW 7511   1.052   1.041   8.579 -0.2173 -0.1715  0.1524
 1122Sol     HW 7512   1.033   1.058   8.672 -1.3452  0.9766 -0.2662
 1122Sol     HW 7513   1.021   0.952   8.565  0.0277 -0.3811  0.9085
 1122Sol     MW 7514   1.047   1.035   8.586 -0.0440  0.4055  0.7154
 1123Sol     OW 7515   2.238   3.352   2.619  0.4811 -0.8169  0.8430
 1123Sol     HW 7516   2.208   3.354   2.529 -1.0688 -1.0938  1.3298
 1123Sol     HW 7517   2.246   3.259   2.639  2.5519 -0.7429  0.4532
 1123Sol     MW 7518   2.236   3.344   2.613 -0.5900 -0.3575  0.2614
 1124Sol     OW 7519   1.738   1.442   2.176 -0.5126  0.2782 -0.1773
 1124Sol     HW 7520   1.695   1.383   2.114  1.2039 -1.2145  0.0005
 1124Sol     HW 7521   1.726   1.400   2.261  0.0433  0.5741  0.0529
 1124Sol     MW 7522   1.733   1.433   2.178  0.0728 -1.1256  0.0536
 1125Sol     OW 7523   2.131   2.723   4.838  0.5651 -0.2330 -0.1705
 1125Sol     HW 7524   2.079   2.747   4.761  0.8152 -1.1495 -0.6313
 1125Sol     HW 7525   2.068   2.682   4.897  0.6036 -0.5808 -0.3729
 1125Sol     MW 7526   2.121   2.722   4.837 -0.7663 -0.6373  0.4056
 1126Sol     OW 7527   0.895   1.285   9.348 -0.1908  0.2129  0.0653
 1126Sol     HW 7528   0.958   1.335   9.296 -1.7245  0.8359 -1.2691
 1126Sol     HW 7529   0.901   1.322   9.436  0.6564  0.8860 -0.2691
 1126Sol     MW 7530   0.901   1.293   9.351  0.3712  0.6615  0.5442
 1127Sol     OW 7531   0.914   2.848   1.873  0.0237 -0.3036 -0.3098
 1127Sol     HW 7532   0.849   2.918   1.875  1.3722  0.9261  0.9189
 1127Sol     HW 7533   0.867   2.771   1.905 -0.8180  0.5871  0.6178
 1127Sol     MW 7534   0.904   2.847   1.876  0.0930  0.5052  0.3092
 1128Sol     OW 7535   1.834   1.116   2.739  0.1193  0.1192 -0.3594
 1128Sol     HW 7536   1.909   1.066   2.771  0.0318  1.6730  2.4273
 1128Sol     HW 7537   1.871   1.198   2.707 -0.2227  0.1728 -0.6324
 1128Sol     MW 7538   1.844   1.119   2.739  0.3688 -0.2229  0.3479
 1129Sol     OW 7539   1.917   0.245   5.728  0.3247 -0.0839  0.1694
 1129Sol     HW 7540   1.940   0.263   5.819  1.9723  0.5225 -0.3556
 1129Sol     HW 7541   1.910   0.150   5.723 -0.8698 -0.0685  1.1663
 1129Sol     MW 7542   1.918   0.238   5.735 -0.2642 -0.3385  0.9984
 1130Sol     OW 7543   2.179   1.489   4.313  0.1048  0.7148 -0.3779
 1130Sol     HW 7544   2.089   1.458   4.319  0.3529  0.0629 -0.0408
 1130Sol     HW 7545   2.191   1.544   4.391 -0.4807  2.0656 -1.2164
 1130Sol     MW 7546   2.172   1.491   4.320  0.2063  0.2155 -0.1286
 1131Sol     OW 7547   2.241   1.504   3.029  0.0496 -0.0697  0.5966
 1131Sol     HW 7548   2.296   1.516   2.951 -2.0335  1.2519 -0.7094
 1131Sol     HW 7549   2.194   1.423   3.011 -0.9634  0.6144  0.1404
 1131Sol     MW 7550   2.242   1.498   3.020 -0.8903  0.5365  0.5084
 1132Sol     OW 7551   3.079   2.372   6.478  0.2281 -0.6308 -0.3170
 1132Sol     HW 7552   3.166   2.395   6.512  0.9243 -0.8664 -1.8862
 1132Sol     HW 7553   3.079   2.276   6.476 -0.6680 -0.6710  1.1628
 1132Sol     MW 7554   3.087   2.366   6.480 -0.6830  0.4782 -0.3859
 1133Sol     OW 7555   0.082   2.621   7.959  0.2348 -0.6526  0.0231
 1133Sol     HW 7556   0.050   2.676   7.887 -1.2918  0.5791  1.6065
 1133Sol     HW 7557   0.015   2.629   8.027  2.4155 -0.5625  2.2080
 1133Sol     MW 7558   0.073   2.626   7.958 -0.4403  0.0934 -0.3419
 1134Sol     OW 7559   1.654   2.318   7.550  0.1116  0.0594 -0.1131
 1134Sol     HW 7560   1.560   2.304   7.543 -0.3564  2.9708 -0.1556
 1134Sol     HW 7561   1.669   2.404   7.509  2.6871 -0.0846  0.4442
 1134Sol     MW 7562   1.647   2.324   7.545  0.1077  0.9634  0.4774
 1135Sol     OW 7563   1.291   3.154   9.006  0.3704  0.1455  0.2426
 1135Sol     HW 7564   1.265   3.069   8.972 -1.4092  0.7867 -0.0548
 1135Sol     HW 7565   1.228   3.173   9.076  0.7478  1.2213  0.3047
 1135Sol     MW 7566   1.283   3.148   9.009  0.2369 -0.0815  0.2455
 1136Sol     OW 7567   2.700   1.660   7.463 -0.3716  0.1623  0.0233
 1136Sol     HW 7568   2.730   1.585   7.514  0.5810  0.5861  0.0850
 1136Sol     HW 7569   2.608   1.670   7.487  0.0914  0.4071  1.7335
 1136Sol     MW 7570   2.694   1.654   7.469 -0.2345 -0.9159 -1.0087
 1137Sol     OW 7571   0.787   1.078   8.755  0.5316 -0.4504 -0.5558
 1137Sol     HW 7572   0.766   0.987   8.734  0.0443 -0.2451 -0.9679
 1137Sol     HW 7573   0.720   1.129   8.711 -0.9308 -0.0260  2.0865
 1137Sol     MW 7574   0.779   1.074   8.749  0.3510  0.7558  0.8470
 1138Sol     OW 7575   0.994   3.095   2.752  0.8948  0.4843  0.0547
 1138Sol     HW 7576   1.012   3.119   2.661  0.8844  1.0018  0.1862
 1138Sol     HW 7577   0.974   3.002   2.748  1.8147  0.2933 -0.3434
 1138Sol     MW 7578   0.994   3.089   2.743  0.0244  0.2554 -0.4300
 1139Sol     OW 7579   2.597   1.536   3.859 -0.1113 -0.1268 -0.0860
 1139Sol     HW 7580   2.545   1.606   3.821  0.3696 -0.1175 -0.7210
 1139Sol     HW 7581   2.545   1.506   3.934 -0.8342  0.1588 -0.4714
 1139Sol     MW 7582   2.588   1.539   3.863 -0.5719  0.8134 -0.4007
 1140Sol     OW 7583   2.854   3.365   5.498 -0.3664  0.3656 -0.3497
 1140Sol     HW 7584   2.770   3.357   5.452  0.1909 -0.5831 -1.2324
 1140Sol     HW 7585   2.915   3.397   5.432  0.9797 -3.2441 -0.9511
 1140Sol     MW 7586   2.852   3.367   5.488  0.1267 -0.1275 -0.2337
 1141Sol     OW 7587   1.700   0.936   8.353  0.2313 -0.1134  0.6097
 1141Sol     HW 7588   1.753   0.954   8.431 -0.0749  0.8305  0.6047
 1141Sol     HW 7589   1.763   0.903   8.289  0.6601  0.1255  0.9021
 1141Sol     MW 7590   1.710   0.935   8.354 -0.1555  0.5031 -0.9710
 1142Sol     OW 7591   0.552   0.346   3.564 -0.1646  0.1431  0.0121
 1142Sol     HW 7592   0.571   0.254   3.579  0.8916  0.2709 -0.4627
 1142Sol     HW 7593   0.505   0.375   3.642 -0.2153 -0.7171  0.3000
 1142Sol     MW 7594   0.550   0.341   3.572  0.5184  0.0895  0.3414
 1143Sol     OW 7595   0.903   0.104   9.543  0.1425 -0.8233 -0.4095
 1143Sol     HW 7596   0.831   0.168   9.538 -0.3467 -1.2914  0.6636
 1143Sol     HW 7597   0.893   0.062   9.628  0.9318 -1.8001 -0.7855
 1143Sol     MW 7598   0.896   0.106   9.550  0.5062 -0.1573  0.0248
 1144Sol     OW 7599   2.077   2.645   5.613 -0.2433  0.1953 -0.0256
 1144Sol     HW 7600   2.109   2.672   5.699  1.6962  0.1405 -0.7004
 1144Sol     HW 7601   2.093   2.551   5.610 -0.4089  0.1781 -0.4056
 1144Sol     MW 7602   2.081   2.639   5.621 -0.7959 -0.0586 -0.3709
 1145Sol     OW 7603   1.433   2.867   7.948 -0.1910 -0.2510 -0.0307
 1145Sol     HW 7604   1.493   2.818   7.891 -1.9232 -1.1847 -1.0728
 1145Sol     HW 7605   1.461   2.844   8.037  1.1893 -0.4475 -0.5055
 1145Sol     MW 7606   1.441   2.860   7.951  0.2220 -0.8190  0.4885
 1146Sol     OW 7607   0.440   2.956   7.549 -0.2139 -0.4696  0.8146
 1146Sol     HW 7608   0.438   2.879   7.493 -1.8329 -0.4072  0.7557
 1146Sol     HW 7609   0.465   2.922   7.635  0.7932 -0.7863  0.4074
 1146Sol     MW 7610   0.442   2.946   7.552 -0.9782  0.0062 -0.1733
 1147Sol     OW 7611   2.846   0.940   9.376 -1.3307 -0.3265 -0.0506
 1147Sol     HW 7612   2.841   0.905   9.287 -0.1409  0.2899 -0.3765
 1147Sol     HW 7613   2.761   0.984   9.389 -0.1684  2.7624 -2.2874
 1147Sol     MW 7614   2.838   0.941   9.369  0.1987 -0.9606 -0.5462
 1148Sol     OW 7615   2.698   3.216   2.260  0.2910 -0.2403 -0.8054
 1148Sol     HW 7616   2.666   3.241   2.174  0.4856  0.9203 -0.5522
 1148Sol     HW 7617   2.758   3.286   2.285  0.8335 -0.9582 -0.0621
 1148Sol     MW 7618   2.700   3.225   2.255  0.0706 -0.2837  1.0878
 1149Sol     OW 7619   2.666   2.188   9.612  0.2633 -0.2529  0.1299
 1149Sol     HW 7620   2.669   2.148   9.525  1.7549 -1.2862  0.6400
 1149Sol     HW 7621   2.747   2.160   9.654 -0.4058  0.2981  1.8305
 1149Sol     MW 7622   2.673   2.182   9.608  0.7734  0.4174 -1.0124
 1150Sol     OW 7623   1.918   0.911   5.594  0.0955  0.0892 -0.2034
 1150Sol     HW 7624   1.840   0.965   5.602 -0.0021 -0.0036 -0.5294
 1150Sol     HW 7625   1.887   0.821   5.604  0.1924  0.0662 -0.1075
 1150Sol     MW 7626   1.908   0.907   5.596  0.4995  0.2651  0.1625
 1151Sol     OW 7627   2.608   0.384   3.405 -0.1078  0.0623 -0.1788
 1151Sol     HW 7628   2.650   0.313   3.453  0.4762  0.3024 -0.3250
 1151Sol     HW 7629   2.647   0.380   3.317  0.4693  1.0199  0.0322
 1151Sol     MW 7630   2.615   0.377   3.401  0.7137  0.2239  0.0978
 1152Sol     OW 7631   3.168   2.261   9.088  0.4495  0.0427  0.1455
 1152Sol     HW 7632   3.211   2.243   9.172 -0.6152  1.0769  0.9198
 1152Sol     HW 7633   3.230   2.316   9.041  0.2653  0.9773  0.9892
 1152Sol     MW 7634   3.178   2.264   9.092  0.2472 -0.8386 -0.3160
 1153Sol     OW 7635   0.522   1.617   7.084 -0.0453 -0.9032 -0.1390
 1153Sol     HW 7636   0.502   1.623   6.991  1.5411 -0.7652 -0.4885
 1153Sol     HW 7637   0.511   1.706   7.117  1.2500 -0.5590 -0.6025
 1153Sol     MW 7638   0.519   1.625   7.079 -0.0684  0.4603  0.5850
 1154Sol     OW 7639   0.774   2.356   2.888  0.2861  0.1576 -0.2898
 1154Sol     HW 7640   0.798   2.303   2.812 -0.6752  0.3968 -0.7756
 1154Sol     HW 7641   0.784   2.297   2.962  1.7621  0.0877 -0.5383
 1154Sol     MW 7642   0.777   2.346   2.888 -1.1844  0.1070  0.3443
 1155Sol     OW 7643   1.409   0.473   3.014  0.2319  0.0433  0.2570
 1155Sol     HW 7644   1.468   0.527   2.962 -1.7977  1.6711 -0.4064
 1155Sol     HW 7645   1.466   0.405   3.051  2.8339  2.4729  0.9461
 1155Sol     MW 7646   1.419   0.472   3.013  0.3065  0.0854  0.3507
 1156Sol     OW 7647   2.622   2.407   9.399  0.3523  0.2293 -0.1887
 1156Sol     HW 7648   2.640   2.316   9.377  2.3979  0.7725 -0.9030
 1156Sol     HW 7649   2.595   2.405   9.491  0.1765 -1.1001 -0.2628
 1156Sol     MW 7650   2.621   2.399   9.405 -1.1076 -0.4486  0.6709
 1157Sol     OW 7651   0.400   0.982   8.770 -0.6325  0.2210  0.0333
 1157Sol     HW 7652   0.449   1.035   8.832 -1.6550 -0.3478  1.3644
 1157Sol     HW 7653   0.384   1.040   8.695  3.4233 -0.0723 -1.1557
 1157Sol     MW 7654   0.403   0.992   8.769 -0.2449  1.0486  0.3767
 1158Sol     OW 7655   1.682   1.321   9.650 -0.0710 -0.1574  0.6099
 1158Sol     HW 7656   1.689   1.286   9.738 -0.7922  1.3997  1.3102
 1158Sol     HW 7657   1.593   1.301   9.623 -0.3106  0.6432  0.8011
 1158Sol     MW 7658   1.675   1.316   9.655 -1.1824 -0.1824  0.3619
 1159Sol     OW 7659   0.139   1.306   8.488  0.2452 -0.3410 -0.3216
 1159Sol     HW 7660   0.048   1.280   8.476  0.0489  0.0883  0.1991
 1159Sol     HW 7661   0.134   1.383   8.545  1.0085 -1.0108  0.6702
 1159Sol     MW 7662   0.130   1.311   8.492 -0.2118 -0.7358 -0.2909
 1160Sol     OW 7663   2.294   3.073   7.708 -0.3410 -1.0757  0.2096
 1160Sol     HW 7664   2.271   3.144   7.648 -1.7802 -1.0115  0.8366
 1160Sol     HW 7665   2.299   2.996   7.651  0.5380 -0.6161 -0.3560
 1160Sol     MW 7666   2.293   3.072   7.697 -0.0132 -0.1216  0.0259
 1161Sol     OW 7667   2.601   2.838   9.563 -0.2373  0.0788 -0.0068
 1161Sol     HW 7668   2.557   2.854   9.480 -1.2055  0.0084  0.4798
 1161Sol     HW 7669   2.641   2.921   9.586  2.0058 -0.5128 -1.6738
 1161Sol     MW 7670   2.600   2.847   9.558  0.2354 -0.0897  0.5821
 1162Sol     OW 7671   2.753   0.317   4.023 -0.1492 -0.0309 -0.7673
 1162Sol     HW 7672   2.830   0.273   4.060  0.2506  1.2674  0.0197
 1162Sol     HW 7673   2.783   0.349   3.938 -0.7864 -2.2229 -1.8440
 1162Sol     MW 7674   2.763   0.316   4.019  0.3605 -0.3330  1.2408
 1163Sol     OW 7675   0.019   2.972   5.610 -0.4141 -0.3096 -0.0404
 1163Sol     HW 7676  -0.027   2.913   5.670 -0.5739 -0.9607 -0.7907
 1163Sol     HW 7677  -0.044   3.040   5.590 -1.2034 -1.4041 -1.3642
 1163Sol     MW 7678   0.009   2.973   5.614  0.0974  0.8651  0.4146
 1164Sol     OW 7679   2.852   0.120   6.978 -0.0523 -0.8845  0.2695
 1164Sol     HW 7680   2.773   0.161   7.013 -0.9316 -2.2009 -0.1507
 1164Sol     HW 7681   2.820   0.044   6.929  1.4368 -1.1554 -0.3021
 1164Sol     MW 7682   2.842   0.117   6.976  0.5939  0.1989  0.2847
 1165Sol     OW 7683   3.309   2.244   6.175  0.3780 -0.0326 -0.0668
 1165Sol     HW 7684   3.244   2.174   6.177  0.2719  0.0468 -0.5722
 1165Sol     HW 7685   3.267   2.313   6.123  0.7509  0.1338 -0.1429
 1165Sol     MW 7686   3.299   2.244   6.170 -0.2482  0.4818  0.1760
 1166Sol     OW 7687   1.451   1.962   2.995  0.5213 -0.4683 -0.2873
 1166Sol     HW 7688   1.362   1.940   2.967  0.9066 -2.2864 -0.1313
 1166Sol     HW 7689   1.506   1.896   2.954  1.7125  0.1574  0.2928
 1166Sol     MW 7690   1.448   1.955   2.989  0.6855  0.1324 -0.3079
 1167Sol     OW 7691   1.953   2.672   3.381  0.6406 -0.3868  0.0470
 1167Sol     HW 7692   1.922   2.746   3.329 -0.2792 -0.1718  0.8863
 1167Sol     HW 7693   1.918   2.595   3.336 -0.7048 -0.1713  0.6864
 1167Sol     MW 7694   1.947   2.672   3.373  0.0594 -0.2161  0.4323
 1168Sol     OW 7695   0.767   1.657   6.283  0.1358 -0.0710  0.3226
 1168Sol     HW 7696   0.839   1.701   6.239 -0.1962  0.4478  0.2929
 1168Sol     HW 7697   0.786   1.667   6.376  0.8033 -1.1106  0.3108
 1168Sol     MW 7698   0.775   1.661   6.288 -0.6634  0.1235 -0.3710
 1169Sol     OW 7699   0.069   0.668   1.952 -0.1866 -0.0050 -0.7890
 1169Sol     HW 7700   0.104   0.581   1.930 -1.0755 -0.4481 -0.5082
 1169Sol     HW 7701  -0.023   0.663   1.928 -0.7325  0.1399  1.2091
 1169Sol     MW 7702   0.064   0.659   1.948 -0.7759 -0.2888  0.4942
 1170Sol     OW 7703   0.616   2.970   8.305  0.1530  0.4919 -0.0039
 1170Sol     HW 7704   0.707   2.995   8.319  0.8673 -0.9532 -1.7789
 1170Sol     HW 7705   0.568   3.010   8.378  2.4851 -0.3265  2.0682
 1170Sol     MW 7706   0.620   2.976   8.313 -0.1193 -0.1182  0.2658
 1171Sol     OW 7707   0.862   0.041   9.834 -0.6844  0.1261  0.4184
 1171Sol     HW 7708   0.943   0.030   9.884 -0.4054  0.1968 -0.0212
 1171Sol     HW 7709   0.830   0.128   9.860 -1.7837 -0.8021  2.2723
 1171Sol     MW 7710   0.866   0.048   9.841  0.2440  0.1568 -0.0205
 1172Sol     OW 7711   2.176   2.655   9.618  0.2667  0.3657  0.4850
 1172Sol     HW 7712   2.202   2.716   9.550 -3.0908  0.2790 -0.9525
 1172Sol     HW 7713   2.253   2.601   9.632  1.6908  1.7365 -1.7331
 1172Sol     MW 7714   2.185   2.656   9.613 -0.1316 -0.3864  1.1112
 1173Sol     OW 7715   1.450   1.036   8.795  0.0977 -0.6843  0.2137
 1173Sol     HW 7716   1.418   1.107   8.738  2.4726  1.7398  1.7894
 1173Sol     HW 7717   1.418   1.059   8.882 -0.1886 -2.2722  0.5363
 1173Sol     MW 7718   1.445   1.045   8.797 -0.1933  0.4137  0.3266
 1174Sol     OW 7719   2.833   0.812   3.476  0.2125  0.0804  0.1895
 1174Sol     HW 7720   2.783   0.732   3.492  0.9369 -0.0958  1.6717
 1174Sol     HW 7721   2.826   0.861   3.558  1.2197  0.7476 -0.1159
 1174Sol     MW 7722   2.828   0.809   3.485  0.7332  0.2051 -0.5860
 1175Sol     OW 7723   3.323   0.163   6.876  0.1017  0.1707  0.2007
 1175Sol     HW 7724   3.291   0.222   6.944  0.4142  0.4157  0.1402
 1175Sol     HW 7725   3.323   0.216   6.796  0.9257  0.2680  0.2567
 1175Sol     MW 7726   3.320   0.173   6.875 -1.3526  0.1801 -0.2882
 1176Sol     OW 7727   3.004   0.380   9.393  0.0778 -0.1914 -0.8929
 1176Sol     HW 7728   3.063   0.308   9.415 -1.1435 -0.1557  2.8533
 1176Sol     HW 7729   2.920   0.338   9.374  0.1567  0.0561 -1.8230
 1176Sol     MW 7730   3.002   0.370   9.394 -0.5033 -0.2670  0.6643
 1177Sol     OW 7731   0.237   3.437   2.051 -0.4534 -0.0411 -0.0176
 1177Sol     HW 7732   0.281   3.406   1.972  0.1296  0.1632  0.2246
 1177Sol     HW 7733   0.264   3.528   2.060 -0.6318 -0.0224  0.3425
 1177Sol     MW 7734   0.243   3.442   2.045  0.7550  0.0916 -0.6391
 1178Sol     OW 7735   0.781   0.856   6.470  0.3987  0.0274 -0.1052
 1178Sol     HW 7736   0.826   0.924   6.521 -0.1500  1.7193 -1.8078
 1178Sol     HW 7737   0.703   0.836   6.522  0.4017  0.9290  0.2602
 1178Sol     MW 7738   0.778   0.860   6.480  0.3866 -0.3205  0.0983
 1179Sol     OW 7739   1.947   3.079   4.777 -0.2176 -0.1699 -0.0131
 1179Sol     HW 7740   1.919   3.036   4.858  0.6076  0.7921  0.8024
 1179Sol     HW 7741   2.043   3.076   4.781 -0.1683  0.3006 -0.7428
 1179Sol     MW 7742   1.953   3.075   4.784 -0.6685 -0.4020  0.2964
 1180Sol     OW 7743   0.003   2.394   6.607  0.1459  0.4460  0.3319
 1180Sol     HW 7744  -0.033   2.339   6.676  1.9585 -1.0523  0.1207
 1180Sol     HW 7745  -0.018   2.483   6.634 -1.1725 -0.2396  1.6395
 1180Sol     MW 7746  -0.002   2.397   6.615 -0.3496  0.1673  0.6234
 1181Sol     OW 7747   1.670   0.968   4.778 -0.0663  0.6949  0.7724
 1181Sol     HW 7748   1.616   0.896   4.745  0.3835  0.2865  0.9243
 1181Sol     HW 7749   1.706   1.010   4.699  0.9901 -0.2642  0.7417
 1181Sol     MW 7750   1.668   0.966   4.768 -0.3556 -0.4257 -0.1579
 1182Sol     OW 7751   3.106   0.982   3.807 -0.2246 -0.8256 -0.2256
 1182Sol     HW 7752   3.094   1.067   3.850 -1.9051 -1.1344 -0.0439
 1182Sol     HW 7753   3.163   1.000   3.733 -1.6371  0.7342 -0.9637
 1182Sol     MW 7754   3.110   0.991   3.804 -0.3724 -0.5477 -0.3949
 1183Sol     OW 7755   0.856   1.518   4.964  0.3320  0.6573  0.1700
 1183Sol     HW 7756   0.947   1.497   4.984  0.3234 -0.0354 -0.4977
 1183Sol     HW 7757   0.819   1.547   5.048  0.2002 -2.5747  1.2942
 1183Sol     MW 7758   0.861   1.519   4.973 -0.7449  0.3354  0.6622
 1184Sol     OW 7759   2.362   2.393   7.377 -0.2964 -0.0560 -0.4183
 1184Sol     HW 7760   2.343   2.414   7.285 -0.0351  0.7490 -0.2924
 1184Sol     HW 7761   2.397   2.474   7.413  0.9006 -0.7602  0.0425
 1184Sol     MW 7762   2.363   2.402   7.372  0.5876  0.7193  0.3230
 1185Sol     OW 7763   0.598   2.561   5.986 -0.0024 -0.3330 -0.2724
 1185Sol     HW 7764   0.570   2.622   6.053  2.0820 -1.3415  1.5835
 1185Sol     HW 7765   0.672   2.604   5.943  1.0099 -1.2098  0.5610
 1185Sol     MW 7766   0.602   2.570   5.988  0.3463  0.6608  0.1363
 1186Sol     OW 7767   2.279   0.176   4.576  0.1075  0.5658  0.1999
 1186Sol     HW 7768   2.269   0.145   4.486 -1.1632  1.5877 -0.0172
 1186Sol     HW 7769   2.198   0.224   4.595  0.6937  1.0318  1.6133
 1186Sol     MW 7770   2.271   0.178   4.570  0.1815 -0.0843 -0.8357
 1187Sol     OW 7771   0.130   0.913   8.773 -0.0095  0.5295  0.5091
 1187Sol     HW 7772   0.092   1.000   8.780 -0.5851  0.1887  1.7499
 1187Sol     HW 7773   0.224   0.927   8.783  0.0369  1.1520 -0.6633
 1187Sol     MW 7774   0.135   0.922   8.774  0.1531  0.3850 -0.6057
 1188Sol     OW 7775   1.932   2.345   3.835 -0.2878  0.7862 -0.1618
 1188Sol     HW 7776   1.917   2.403   3.760  0.2796  0.8358 -0.2418
 1188Sol     HW 7777   1.847   2.304   3.851 -0.7764  1.9176  0.1298
 1188Sol     MW 7778   1.923   2.346   3.829 -0.3397  0.1702 -0.4177
 1189Sol     OW 7779   1.293   0.458   8.292 -0.5590 -0.4555 -0.3975
 1189Sol     HW 7780   1.371   0.511   8.271 -0.6648 -0.5936 -1.1504
 1189Sol     HW 7781   1.250   0.444   8.207 -1.2388 -0.6411 -0.0225
 1189Sol     MW 7782   1.296   0.462   8.282  0.1358  0.1039  0.2791
 1190Sol     OW 7783   3.265   2.579   3.003 -0.1880 -0.7230 -0.0171
 1190Sol     HW 7784   3.224   2.545   3.083  0.8637 -0.0127  0.8275
 1190Sol     HW 7785   3.307   2.503   2.963  0.1939 -0.8678  0.6631
 1190Sol     MW 7786   3.265   2.569   3.006 -0.5767 -0.2129  0.0437
 1191Sol     OW 7787   2.682   0.224   2.932  0.2820 -0.5076  0.0815
 1191Sol     HW 7788   2.608   0.237   2.873 -0.2722 -0.4026  0.7883
 1191Sol     HW 7789   2.759   0.220   2.874 -0.1051  0.7941 -0.5453
 1191Sol     MW 7790   2.683   0.225   2.921  0.2213  0.1408 -0.2297
 1192Sol     OW 7791   1.073   3.000   3.836  0.3998 -0.2675  0.1588
 1192Sol     HW 7792   1.050   2.911   3.811  0.5841 -0.2202 -0.1759
 1192Sol     HW 7793   0.999   3.030   3.890  0.0561 -0.4025 -0.2391
 1192Sol     MW 7794   1.064   2.995   3.839 -0.0534  0.5874  0.4471
 1193Sol     OW 7795   2.548   1.183   1.614  0.1669 -0.6400 -0.6144
 1193Sol     HW 7796   2.561   1.199   1.708  0.0758 -2.5501 -0.2475
 1193Sol     HW 7797   2.629   1.214   1.573 -0.7282  2.4016 -0.2087
 1193Sol     MW 7798   2.557   1.187   1.619  0.2082 -0.3817 -0.0937
 1194Sol     OW 7799   3.056   0.872   8.798 -0.1420 -0.1592 -0.3244
 1194Sol     HW 7800   3.099   0.956   8.787 -0.4809 -0.0965 -1.2474
 1194Sol     HW 7801   3.096   0.834   8.876 -0.3224  1.0574  0.3711
 1194Sol     MW 7802   3.063   0.876   8.804  1.3782 -0.0033  0.6616
 1195Sol     OW 7803   0.078   1.489   7.677 -0.2250  0.3394 -0.3380
 1195Sol     HW 7804   0.172   1.470   7.680 -0.4580 -0.6506  1.0094
 1195Sol     HW 7805   0.072   1.581   7.701  0.3863  0.3792 -0.3275
 1195Sol     MW 7806   0.086   1.496   7.679 -0.0573 -0.2472  0.2600
 1196Sol     OW 7807   1.337   2.308   7.277 -0.4720 -0.1255  0.2406
 1196Sol     HW 7808   1.373   2.233   7.229  0.2014  0.7504 -0.6478
 1196Sol     HW 7809   1.246   2.313   7.249  0.0253  0.6336 -1.2856
 1196Sol     MW 7810   1.332   2.301   7.270 -1.4215 -0.2324 -0.4270
 1197Sol     OW 7811   3.073   3.377   3.904 -0.1876  0.3711 -0.4009
 1197Sol     HW 7812   3.010   3.313   3.871 -0.2745  0.0737  0.3184
 1197Sol     HW 7813   3.144   3.324   3.940 -0.0372  0.6900 -0.2254
 1197Sol     MW 7814   3.073   3.366   3.904 -0.7225 -0.6664 -0.4756
 1198Sol     OW 7815   0.727   0.272   9.844 -0.2279  0.7781  0.2773
 1198Sol     HW 7816   0.639   0.268   9.882  0.3519  0.0578  1.5911
 1198Sol     HW 7817   0.743   0.365   9.828 -1.3815  0.8738 -0.3513
 1198Sol     MW 7818   0.721   0.280   9.846  0.4477 -0.2909 -0.7536
 1199Sol     OW 7819   0.111   2.656   2.409 -0.7418  0.0630  0.5768
 1199Sol     HW 7820   0.042   2.714   2.378 -0.8778 -0.3641  0.0681
 1199Sol     HW 7821   0.186   2.676   2.352 -0.7170 -0.0975  0.5534
 1199Sol     MW 7822   0.112   2.663   2.401 -0.4859  0.6167  0.2543
 1200Sol     OW 7823   2.922   2.875   6.492  0.0961 -0.0424  0.4384
 1200Sol     HW 7824   2.858   2.807   6.471  0.1931 -0.1526  0.4980
 1200Sol     HW 7825   2.992   2.864   6.428  0.3590 -0.3355  0.7738
 1200Sol     MW 7826   2.923   2.868   6.485 -0.8151  1.0241 -0.7561
 1201Sol     OW 7827   1.492   2.995   1.590  0.5713 -0.0956 -0.3410
 1201Sol     HW 7828   1.562   2.931   1.598  0.2360 -0.4743 -0.3781
 1201Sol     HW 7829   1.536   3.079   1.581  1.0051 -0.0892  1.5964
 1201Sol     MW 7830   1.502   2.997   1.590 -0.2367 -1.3559  0.3106
 1202Sol     OW 7831   0.657   2.046   3.260  0.0088 -0.4074  0.3653
 1202Sol     HW 7832   0.716   1.989   3.309 -1.6262 -1.7421  0.8410
 1202Sol     HW 7833   0.657   2.010   3.171  1.8835  1.1663 -0.3184
 1202Sol     MW 7834   0.662   2.038   3.256  0.2789  0.8013  0.0913
 1203Sol     OW 7835   0.881   2.607   7.401  0.5641 -0.0902  0.5436
 1203Sol     HW 7836   0.856   2.524   7.360  0.1411  0.5976 -0.6109
 1203Sol     HW 7837   0.946   2.582   7.468  0.5808 -1.3225  0.0834
 1203Sol     MW 7838   0.885   2.597   7.404 -0.0506  0.7699  0.4546
 1204Sol     OW 7839   2.424   0.725   3.543  0.4909 -0.4710 -0.2759
 1204Sol     HW 7840   2.519   0.709   3.546  0.2578 -2.3628 -1.9635
 1204Sol     HW 7841   2.417   0.817   3.519  1.9148 -0.5186 -0.9411
 1204Sol     MW 7842   2.432   0.732   3.541 -0.4945  1.0179  0.6114
 1205Sol     OW 7843   1.556   1.431   7.949  0.2824  0.1594 -0.5606
 1205Sol     HW 7844   1.600   1.419   8.033 -0.9446  2.4896  0.4431
 1205Sol     HW 7845   1.624   1.465   7.891  1.2224 -1.7840 -0.6633
 1205Sol     MW 7846   1.566   1.433   7.951 -0.4721 -0.1690  0.7806
 1206Sol     OW 7847   1.934   1.515   1.435  0.2101 -0.1299 -0.1937
 1206Sol     HW 7848   1.934   1.564   1.352  0.5595 -1.5034 -1.0186
 1206Sol     HW 7849   2.022   1.529   1.470  0.3102 -0.1649 -0.4259
 1206Sol     MW 7850   1.942   1.521   1.430 -0.6603  0.5049  0.4810
 1207Sol     OW 7851   2.529   2.618   6.263 -0.0651  0.4467  0.2491
 1207Sol     HW 7852   2.442   2.583   6.245  0.9589 -1.3003 -1.5453
 1207Sol     HW 7853   2.586   2.541   6.265  1.6227  1.6551  0.2841
 1207Sol     MW 7854   2.527   2.608   6.261 -0.0893 -0.0779  0.1755
 1208Sol     OW 7855   0.128   0.795   5.594 -0.2005 -0.1685 -0.2281
 1208Sol     HW 7856   0.111   0.889   5.581  2.8521  0.7645  1.8143
 1208Sol     HW 7857   0.096   0.777   5.682  0.1774 -0.7731 -0.2160
 1208Sol     MW 7858   0.124   0.802   5.601  0.2400 -0.1635  0.4847
 1209Sol     OW 7859   1.979   0.399   5.983 -0.1696  0.3763  0.3267
 1209Sol     HW 7860   2.061   0.378   6.027  0.0677  0.6849  0.0316
 1209Sol     HW 7861   1.912   0.387   6.051  0.1148  0.1107  0.5634
 1209Sol     MW 7862   1.980   0.396   5.993  0.3876  0.7150  0.0352
 1210Sol     OW 7863   0.736   0.935   2.189  0.6313  0.0180 -0.2301
 1210Sol     HW 7864   0.807   0.872   2.173  1.1259  0.4831  0.1020
 1210Sol     HW 7865   0.696   0.948   2.103  2.4923  1.5674 -0.9070
 1210Sol     MW 7866   0.739   0.930   2.179  0.3608  0.3225  0.2324
 1211Sol     OW 7867   1.304   1.366   7.806  0.2127  0.5720  0.2881
 1211Sol     HW 7868   1.283   1.459   7.816  0.0265  0.5242  0.3414
 1211Sol     HW 7869   1.392   1.358   7.843 -0.0900  0.5796  1.0348
 1211Sol     MW 7870   1.310   1.374   7.810 -0.1733 -0.0096  0.7826
 1212Sol     OW 7871   0.757   2.370   6.731 -0.0819 -0.7608 -0.1829
 1212Sol     HW 7872   0.745   2.279   6.705 -0.6199 -0.5153 -0.8214
 1212Sol     HW 7873   0.764   2.367   6.826  1.4471 -1.6228 -0.3123
 1212Sol     MW 7874   0.756   2.362   6.737 -0.1356 -0.8925  0.0975
 1213Sol     OW 7875   3.145   0.250   8.474 -0.2687 -0.8961  0.1963
 1213Sol     HW 7876   3.067   0.283   8.518 -0.0643 -1.8016  1.2669
 1213Sol     HW 7877   3.163   0.166   8.517  1.1001 -0.8489 -0.2607
 1213Sol     MW 7878   3.140   0.245   8.482  0.1960 -0.1969 -0.2820
 1214Sol     OW 7879   0.275   1.725   5.785  0.4516  0.3324  0.3315
 1214Sol     HW 7880   0.223   1.805   5.790  1.2423  0.7310  2.7528
 1214Sol     HW 7881   0.361   1.753   5.756  0.2566  0.1209 -0.4601
 1214Sol     MW 7882   0.278   1.734   5.783 -0.4505 -0.0687  0.2075
 1215Sol     OW 7883   0.612   2.831   1.841  0.1724  0.6379 -0.3476
 1215Sol     HW 7884   0.589   2.880   1.920  1.1690  1.3997 -0.5150
 1215Sol     HW 7885   0.622   2.741   1.870  1.3229  1.0511  0.5578
 1215Sol     MW 7886   0.611   2.827   1.850 -0.0302 -0.3896 -1.0817
 1216Sol     OW 7887   0.628   0.879   5.804 -0.0847 -0.0935  0.0669
 1216Sol     HW 7888   0.669   0.901   5.887 -2.3582  1.2608  0.8626
 1216Sol     HW 7889   0.585   0.960   5.776 -2.3399 -1.4899 -0.6329
 1216Sol     MW 7890   0.628   0.888   5.809 -0.0561  0.5996  0.7437
 1217Sol     OW 7891   0.870   0.557   6.977 -0.1436 -0.3175 -0.4619
 1217Sol     HW 7892   0.801   0.497   7.008  1.4269 -1.1000  1.6315
 1217Sol     HW 7893   0.922   0.576   7.055  2.1108  0.1412 -2.0232
 1217Sol     MW 7894   0.868   0.553   6.987  0.7862 -0.2152 -0.2473
 1218Sol     OW 7895   1.904   1.729   4.551 -0.0627 -0.3547 -0.3524
 1218Sol     HW 7896   1.890   1.819   4.577  0.5970  0.4322 -2.5945
 1218Sol     HW 7897   1.822   1.702   4.509 -0.5452 -1.0742  1.0263
 1218Sol     MW 7898   1.896   1.734   4.549  0.2517  0.6582 -0.9019
 1219Sol     OW 7899   3.133   2.448   6.048  0.4492  0.2552 -0.4044
 1219Sol     HW 7900   3.091   2.395   5.979 -2.1473 -0.3731  1.5960
 1219Sol     HW 7901   3.124   2.538   6.018 -0.1002 -0.0481 -1.1686
 1219Sol     MW 7902   3.129   2.451   6.039  0.1396  0.2581 -0.1183
 1220Sol     OW 7903   0.919   1.081   4.107  0.2567 -0.0682  0.2766
 1220Sol     HW 7904   0.868   1.161   4.092 -0.4219 -0.9397 -2.4355
 1220Sol     HW 7905   0.855   1.018   4.141  0.5639  0.1946  1.3749
 1220Sol     MW 7906   0.909   1.082   4.109 -0.7086 -0.5745 -0.0648
 1221Sol     OW 7907   0.087   0.772   8.525 -0.6586  0.1565 -0.0308
 1221Sol     HW 7908   0.176   0.774   8.490 -0.6225 -0.9283 -0.0154
 1221Sol     HW 7909   0.092   0.819   8.608 -0.3443  1.0902 -0.5698
 1221Sol     MW 7910   0.095   0.777   8.529 -0.4610  0.6229  0.7604
 1222Sol     OW 7911   0.945   2.879   7.662  0.2310  0.0635  0.3610
 1222Sol     HW 7912   1.003   2.954   7.648  0.7378  0.3035  3.3764
 1222Sol     HW 7913   0.980   2.837   7.740 -2.3383 -1.1183  0.9039
 1222Sol     MW 7914   0.953   2.882   7.667 -0.6842 -0.5558  0.0923
 1223Sol     OW 7915   2.859   1.084   8.593  0.0126  0.1866  0.5061
 1223Sol     HW 7916   2.872   0.989   8.603 -1.4526  0.0168  0.9682
 1223Sol     HW 7917   2.833   1.114   8.680  0.4967  1.0261  0.3652
 1223Sol     MW 7918   2.857   1.078   8.601 -1.0997 -0.2443  0.4749
 1224Sol     OW 7919   0.132   0.796   7.331  0.3238 -0.2511 -0.1352
 1224Sol     HW 7920   0.179   0.806   7.414 -1.8903 -0.4260  1.1994
 1224Sol     HW 7921   0.172   0.859   7.272  2.2208 -0.4214  0.9343
 1224Sol     MW 7922   0.140   0.802   7.333  0.6965 -0.0038  0.0778
 1225Sol     OW 7923   2.333   1.282   4.243 -0.1494 -0.3225  0.6262
 1225Sol     HW 7924   2.342   1.322   4.157  3.0881  0.9487  1.4799
 1225Sol     HW 7925   2.266   1.335   4.287  0.8253  1.3383  0.1609
 1225Sol     MW 7926   2.328   1.290   4.239  0.2011 -0.3786  0.2587
 1226Sol     OW 7927   2.500   3.103   8.409 -0.2846 -0.6786  0.2008
 1226Sol     HW 7928   2.578   3.055   8.379 -0.2321 -0.2245 -0.3926
 1226Sol     HW 7929   2.525   3.195   8.402 -0.5082 -0.5548  1.0085
 1226Sol     MW 7930   2.510   3.107   8.406 -0.3299  0.1041  0.5958
 1227Sol     OW 7931   1.747   0.955   6.330 -0.6341 -0.9065  0.1647
 1227Sol     HW 7932   1.831   0.914   6.309  1.9797  3.3008  1.8190
 1227Sol     HW 7933   1.731   1.017   6.259 -1.0116  0.1528  1.1491
 1227Sol     MW 7934   1.753   0.957   6.322 -0.6795  0.6235 -0.1006
 1228Sol     OW 7935   2.578   1.989   6.579 -0.2880 -0.4494  0.1690
 1228Sol     HW 7936   2.660   1.967   6.536  0.5832  0.2333  1.4713
 1228Sol     HW 7937   2.603   2.036   6.658 -1.8948 -0.8944  0.9795
 1228Sol     MW 7938   2.587   1.991   6.582  0.6148  0.4554  0.3048
 1229Sol     OW 7939   0.898   2.040   6.279 -0.9720 -0.1510  0.0691
 1229Sol     HW 7940   0.937   2.119   6.317 -0.9612  0.4315 -1.1379
 1229Sol     HW 7941   0.883   1.982   6.354  1.0146  0.1304  0.7020
 1229Sol     MW 7942   0.900   2.042   6.290 -0.0121  0.5139 -0.0986
 1230Sol     OW 7943   1.689   3.182   6.377  0.3980 -0.2095 -0.2501
 1230Sol     HW 7944   1.636   3.147   6.448  2.4872 -0.5100  1.2261
 1230Sol     HW 7945   1.759   3.117   6.365  1.5340  1.0791 -0.7900
 1230Sol     MW 7946   1.691   3.173   6.382  0.7354 -0.7676 -0.1370
 1231Sol     OW 7947   3.049   2.949   3.909  0.6630  0.1434  0.0345
 1231Sol     HW 7948   3.087   2.887   3.972  0.1887 -0.5419 -0.3440
 1231Sol     HW 7949   3.123   2.973   3.853  0.9100  0.1312  0.3487
 1231Sol     MW 7950   3.059   2.946   3.910  0.0233  1.0059 -0.1626
 1232Sol     OW 7951   2.953   2.881   5.387  0.4936 -0.1335 -0.1057
 1232Sol     HW 7952   2.858   2.888   5.376  0.3201 -0.6361  1.0225
 1232Sol     HW 7953   2.978   2.964   5.427  0.7888  0.7102 -1.9766
 1232Sol     MW 7954   2.946   2.889   5.390 -0.4963 -0.2269 -0.3199
 1233Sol     OW 7955   0.962   2.086   9.462 -0.0408  0.3475 -0.2287
 1233Sol     HW 7956   1.025   2.133   9.516  1.3512 -1.0970 -0.5558
 1233Sol     HW 7957   0.950   2.142   9.386 -0.8168  1.6521  0.8294
 1233Sol     MW 7958   0.967   2.095   9.460  0.0751 -0.2969 -0.1530
 1234Sol     OW 7959   2.312   3.301   3.310 -0.1047 -0.2213  0.3960
 1234Sol     HW 7960   2.311   3.244   3.387 -1.0628 -0.6475  0.0803
 1234Sol     HW 7961   2.310   3.240   3.236  0.0106  0.2046  0.0448
 1234Sol     MW 7962   2.312   3.290   3.310 -0.5561 -0.4211  0.2355
 1235Sol     OW 7963   3.321   2.624   1.600 -0.1607 -0.2708 -0.2037
 1235Sol     HW 7964   3.362   2.603   1.684  0.2468 -1.6416 -0.7351
 1235Sol     HW 7965   3.229   2.601   1.613 -0.3367  0.6659  0.2523
 1235Sol     MW 7966   3.316   2.620   1.609 -0.5423  0.2611 -0.2541
 1236Sol     OW 7967   0.444   2.361   5.478 -0.3372 -0.1787  0.2688
 1236Sol     HW 7968   0.431   2.318   5.394  1.8219 -0.3103 -0.0309
 1236Sol     HW 7969   0.492   2.297   5.530 -0.6973  0.3205  1.2169
 1236Sol     MW 7970   0.448   2.351   5.475 -0.5405 -0.0056  0.0437
 1237Sol     OW 7971   0.643   0.406   7.029  0.0470 -0.0231 -0.2308
 1237Sol     HW 7972   0.602   0.428   7.112  0.8823  0.3598  0.0803
 1237Sol     HW 7973   0.658   0.311   7.034 -1.0359 -0.2072 -0.4545
 1237Sol     MW 7974   0.641   0.399   7.037 -0.5215  0.2645 -1.0380
 1238Sol     OW 7975   1.310   2.796   6.148 -0.3282  0.0037  0.1305
 1238Sol     HW 7976   1.238   2.734   6.156 -0.9540  0.9212  1.7052
 1238Sol     HW 7977   1.382   2.755   6.195 -0.5100  0.1329  0.5191
 1238Sol     MW 7978   1.310   2.786   6.153 -0.4294 -0.0069  0.8972
 1239Sol     OW 7979   2.856   2.787   3.361 -0.6960  0.1818  0.4458
 1239Sol     HW 7980   2.880   2.848   3.291 -0.8673  1.0649  1.1547
 1239Sol     HW 7981   2.940   2.760   3.399 -0.6855  1.3061  1.2527
 1239Sol     MW 7982   2.866   2.790   3.358  1.0124  0.3442  0.0139
 1240Sol     OW 7983   3.019   2.152   8.897 -0.6611  0.0195 -0.4349
 1240Sol     HW 7984   3.078   2.168   8.823 -1.1423  2.1691 -0.3809
 1240Sol     HW 7985   3.069   2.180   8.974 -1.1470  0.3598 -0.2376
 1240Sol     MW 7986   3.029   2.156   8.897  0.6505 -0.9760 -0.2823
 1241Sol     OW 7987   0.003   3.159   6.345 -0.6285 -0.4291  0.6425
 1241Sol     HW 7988  -0.050   3.128   6.271 -1.2060  0.9652  0.4531
 1241Sol     HW 7989   0.092   3.129   6.325 -0.9200 -0.7431 -0.2321
 1241Sol     MW 7990   0.006   3.153   6.336 -0.8053  1.3175  0.4963
 1242Sol     OW 7991   0.123   2.179   8.789  0.1707  0.7323 -0.6515
 1242Sol     HW 7992   0.049   2.191   8.729 -0.5670  0.6609  0.2397
 1242Sol     HW 7993   0.125   2.259   8.841  0.2201  0.3861 -0.1210
 1242Sol     MW 7994   0.117   2.187   8.788  0.3336 -0.3040 -0.0878
 1243Sol     OW 7995   2.423   1.633   2.115 -0.5142 -0.2687  0.0814
 1243Sol     HW 7996   2.467   1.555   2.081 -1.4959 -0.1903 -1.4354
 1243Sol     HW 7997   2.340   1.635   2.067 -1.1258  0.8882  1.1912
 1243Sol     MW 7998   2.419   1.626   2.107  0.2640 -0.7326 -0.6071
 1244Sol     OW 7999   0.917   1.399   6.717  0.1700 -0.2867 -0.2381
 1244Sol     HW 8000   0.867   1.330   6.761  1.3393 -0.6455  0.5593
 1244Sol     HW 8001   0.995   1.410   6.771  1.2756 -0.1868 -1.8198
 1244Sol     MW 8002   0.920   1.394   6.726 -0.4565  0.3379 -0.1893
 1245Sol     OW 8003   0.101   3.397   4.693 -0.5127  0.0741 -0.4647
 1245Sol     HW 8004   0.128   3.313   4.730  0.4940  0.7075  0.2775
 1245Sol     HW 8005   0.114   3.460   4.765  0.2702  1.1138 -1.5055
 1245Sol     MW 8006   0.104   3.395   4.703  0.5684  0.3646 -0.2616
 1246Sol     OW 8007   2.879   0.848   9.116  0.7020 -0.1401  0.1537
 1246Sol     HW 8008   2.955   0.796   9.139  0.4652 -0.2514  0.7099
 1246Sol     HW 8009   2.807   0.785   9.110  0.4100  0.1120  0.8536
 1246Sol     MW 8010   2.879   0.838   9.118 -0.4131  0.6818 -1.1699
 1247Sol     OW 8011   3.129   0.658   1.811 -0.0073  0.3308  0.1511
 1247Sol     HW 8012   3.073   0.718   1.860  0.1668  0.2432  0.4604
 1247Sol     HW 8013   3.134   0.696   1.724  0.5865  1.0970  0.5130
 1247Sol     MW 8014   3.125   0.667   1.808 -0.5045  1.1117  0.7565
 1248Sol     OW 8015   3.025   1.248   8.967 -0.3264 -0.0068 -0.1804
 1248Sol     HW 8016   3.038   1.307   9.041 -3.4180 -0.1797  0.5541
 1248Sol     HW 8017   3.061   1.164   8.996  2.1214  0.8998 -0.4333
 1248Sol     MW 8018   3.030   1.246   8.976  0.0398  0.2322  0.4112
 1249Sol     OW 8019   1.815   0.130   3.557  0.6578 -0.0125  0.2632
 1249Sol     HW 8020   1.724   0.157   3.545  0.7350 -0.6494 -2.1607
 1249Sol     HW 8021   1.840   0.165   3.642 -1.4876  1.1858  0.4342
 1249Sol     MW 8022   1.809   0.135   3.563 -0.5282 -0.6275 -0.0356
 1250Sol     OW 8023   1.012   1.401   2.039  0.0457 -0.4451  0.7825
 1250Sol     HW 8024   1.011   1.308   2.019 -0.6242 -0.6432  1.7188
 1250Sol     HW 8025   1.073   1.410   2.112  2.0846  0.2103 -0.9314
 1250Sol     MW 8026   1.018   1.394   2.044 -0.1824  0.2935 -0.6657
 1251Sol     OW 8027   0.856   0.058   1.515  0.3660 -0.4104 -0.6720
 1251Sol     HW 8028   0.777   0.112   1.512  0.8740  0.4265  0.3760
 1251Sol     HW 8029   0.827  -0.025   1.552  0.3035  0.5751  1.6117
 1251Sol     MW 8030   0.846   0.055   1.518  0.1168  0.4186  0.3792
 1252Sol     OW 8031   0.002   1.947   1.548  0.0586 -0.1993 -0.1455
 1252Sol     HW 8032   0.093   1.916   1.554 -0.1159 -0.6205  0.2661
 1252Sol     HW 8033   0.005   2.036   1.583  0.1020 -0.6122  0.8991
 1252Sol     MW 8034   0.011   1.952   1.552 -0.9891  0.3066  0.9538
 1253Sol     OW 8035   1.588   0.699   7.532 -0.6107  0.3058  0.7004
 1253Sol     HW 8036   1.501   0.679   7.567 -1.3891 -2.4199 -2.4722
 1253Sol     HW 8037   1.574   0.713   7.438  2.2188  1.0333  0.3278
 1253Sol     MW 8038   1.579   0.698   7.527  0.7690  0.2085 -0.0303
 1254Sol     OW 8039   1.431   0.767   6.893 -0.0991  0.0124 -0.5093
 1254Sol     HW 8040   1.454   0.838   6.953 -2.1118  1.0755 -0.9345
 1254Sol     HW 8041   1.400   0.812   6.814 -0.2424 -1.3472 -1.2450
 1254Sol     MW 8042   1.430   0.778   6.891  0.6564 -0.4104 -0.0429
 1255Sol     OW 8043   1.381   2.779   8.556 -0.1858 -0.2156  0.2539
 1255Sol     HW 8044   1.432   2.708   8.517 -0.2264 -0.6741  1.0091
 1255Sol     HW 8045   1.380   2.848   8.491 -0.7114 -1.1777 -0.7756
 1255Sol     MW 8046   1.385   2.779   8.547 -0.1157  0.2407 -0.6762
 1256Sol     OW 8047   1.968   2.575   2.353 -0.9052  0.4331  0.5499
 1256Sol     HW 8048   2.035   2.643   2.361 -0.8976  0.5079 -0.1373
 1256Sol     HW 8049   1.937   2.562   2.443 -1.5038  1.9343  0.5702
 1256Sol     MW 8050   1.971   2.580   2.362  0.0776 -0.1692 -0.0728
 1257Sol     OW 8051   0.445   0.765   3.721 -0.6282 -0.1662 -0.5361
 1257Sol     HW 8052   0.353   0.740   3.706 -0.3220 -0.6416 -1.6271
 1257Sol     HW 8053   0.447   0.791   3.814 -1.9233  0.1137 -0.5652
 1257Sol     MW 8054   0.437   0.765   3.728 -0.8098 -0.6557  0.1960
 1258Sol     OW 8055   3.162   2.871   8.327 -0.4968 -0.2617  0.4904
 1258Sol     HW 8056   3.236   2.912   8.283 -1.3788  0.2113 -0.5614
 1258Sol     HW 8057   3.084   2.906   8.283 -1.3749 -0.2493  2.0103
 1258Sol     MW 8058   3.161   2.878   8.319  0.2786 -0.0955 -0.3881
 1259Sol     OW 8059   2.021   0.946   6.964 -0.5363  0.5224  0.7269
 1259Sol     HW 8060   2.007   0.987   7.050  0.0074  0.5295  0.8161
 1259Sol     HW 8061   2.101   0.987   6.931 -0.3441 -0.0042  0.5356
 1259Sol     MW 8062   2.027   0.953   6.969  0.0812 -0.2975  0.6506
 1260Sol     OW 8063   2.113   0.236   5.088 -0.2103 -0.0381  0.0138
 1260Sol     HW 8064   2.087   0.148   5.062  1.2693 -0.2136 -0.9202
 1260Sol     HW 8065   2.041   0.292   5.059 -1.6921 -1.0407  1.6298
 1260Sol     MW 8066   2.104   0.233   5.083 -0.0608  0.3131 -0.1972
 1261Sol     OW 8067   0.327   1.712   4.390  0.0515  0.1091  0.3264
 1261Sol     HW 8068   0.307   1.799   4.424 -0.3241  0.0823  0.1767
 1261Sol     HW 8069   0.423   1.709   4.387  0.0552  0.8016 -0.4073
 1261Sol     MW 8070   0.334   1.720   4.393 -0.0758  0.5020 -0.2572
 1262Sol     OW 8071   2.084   1.757   7.001 -0.0826 -0.2615 -0.0567
 1262Sol     HW 8072   2.007   1.747   6.945 -1.4310 -0.1395  1.7168
 1262Sol     HW 8073   2.151   1.702   6.960 -0.6732  0.6694 -2.3632
 1262Sol     MW 8074   2.083   1.751   6.992 -0.5197  0.5714 -0.4625
 1263Sol     OW 8075   0.908   0.984   5.585  0.1820 -0.2074  0.0571
 1263Sol     HW 8076   0.918   0.982   5.680  1.2311 -1.8539 -0.0627
 1263Sol     HW 8077   0.814   0.983   5.571  0.0199 -0.1979  1.0735
 1263Sol     MW 8078   0.901   0.983   5.593  0.6212  1.1888  0.3896
 1264Sol     OW 8079   0.777   1.604   5.239 -0.1770 -0.8890  0.4660
 1264Sol     HW 8080   0.724   1.524   5.243 -0.3306 -0.7446  1.4284
 1264Sol     HW 8081   0.714   1.675   5.249 -0.1493 -0.6025 -1.2362
 1264Sol     MW 8082   0.767   1.603   5.240 -0.6523 -0.1615 -0.2340
 1265Sol     OW 8083   0.770   2.684   9.925 -0.1773 -0.5730 -0.2741
 1265Sol     HW 8084   0.780   2.686  10.020  0.2573  0.3485 -0.3276
 1265Sol     HW 8085   0.693   2.739   9.908  0.0891 -0.2633 -0.4896
 1265Sol     MW 8086   0.764   2.689   9.932 -0.1531 -0.3873 -0.3998
 1266Sol     OW 8087   1.564   1.172   9.421  0.6644 -0.0037  0.2743
 1266Sol     HW 8088   1.609   1.089   9.407  1.6967  0.3654  1.2658
 1266Sol     HW 8089   1.471   1.151   9.414  0.9571 -0.9340 -1.0161
 1266Sol     MW 8090   1.560   1.163   9.419  0.3029 -0.6939  0.8536
 1267Sol     OW 8091   0.168   1.989   5.816 -0.5065 -0.5138  0.2035
 1267Sol     HW 8092   0.243   2.033   5.776 -1.5294  1.2064  0.1264
 1267Sol     HW 8093   0.180   2.002   5.910  0.3811 -2.0732  0.3282
 1267Sol     MW 8094   0.176   1.994   5.821  0.5439 -0.3141 -0.4033
 1268Sol     OW 8095   1.709   3.242   6.077  0.2068 -0.0238  0.5122
 1268Sol     HW 8096   1.652   3.225   6.152 -0.6318  0.4984  0.0039
 1268Sol     HW 8097   1.654   3.290   6.015  0.5959 -1.2851 -0.8484
 1268Sol     MW 8098   1.699   3.245   6.078 -0.5831  0.0605  0.2147
 1269Sol     OW 8099   2.678   3.053   8.850  0.4688  0.1301 -0.5022
 1269Sol     HW 8100   2.748   3.117   8.833  0.9193 -0.4845 -0.9552
 1269Sol     HW 8101   2.675   3.046   8.945  1.2433 -0.0950 -0.4996
 1269Sol     MW 8102   2.684   3.058   8.857  0.3431  0.2389 -0.3224
 1270Sol     OW 8103   2.235   3.291   7.904  0.4075  0.0598 -0.1779
 1270Sol     HW 8104   2.243   3.210   7.854 -0.7544  0.3290 -0.8071
 1270Sol     HW 8105   2.234   3.263   7.996  0.9453 -0.5628 -0.3611
 1270Sol     MW 8106   2.236   3.281   7.908 -0.0920 -0.6297 -0.0269
 1271Sol     OW 8107   1.381   2.660   9.238  0.0886 -0.4901 -0.3041
 1271Sol     HW 8108   1.417   2.749   9.240 -3.4289  1.0163 -0.6425
 1271Sol     HW 8109   1.422   2.617   9.313  2.2425  1.2458 -0.4327
 1271Sol     MW 8110   1.388   2.664   9.245  0.9211  0.2424 -0.0230
 1272Sol     OW 8111   0.442   3.056   9.110 -0.4688 -0.1296 -0.8143
 1272Sol     HW 8112   0.495   3.120   9.157 -1.1370 -0.3094  0.1902
 1272Sol     HW 8113   0.465   3.069   9.018  1.0947 -0.0134 -0.4174
 1272Sol     MW 8114   0.449   3.063   9.106 -0.0744  0.3809 -0.0469
 1273Sol     OW 8115   3.282   2.198   9.342 -0.7986  0.0532 -0.3924
 1273Sol     HW 8116   3.326   2.278   9.369 -1.5426  0.4028 -0.1769
 1273Sol     HW 8117   3.204   2.194   9.398 -0.6581 -0.9276 -0.2643
 1273Sol     MW 8118   3.279   2.205   9.349  0.8387  0.7038  0.5009
 1274Sol     OW 8119   0.071   2.332   3.348 -0.7253  0.6589  0.5577
 1274Sol     HW 8120   0.139   2.400   3.354 -1.0099  0.8663  1.6201
 1274Sol     HW 8121   0.097   2.278   3.274 -0.1433  1.5524  0.0955
 1274Sol     MW 8122   0.079   2.334   3.342  0.2623  0.3357  0.1456
 1275Sol     OW 8123   0.933   1.674   9.328 -0.3050  0.0531 -0.8438
 1275Sol     HW 8124   1.002   1.727   9.368  0.7235 -0.0446 -2.4569
 1275Sol     HW 8125   0.876   1.737   9.284 -1.3891  0.1533  0.6720
 1275Sol     MW 8126   0.934   1.684   9.328 -0.1972  0.8089  0.1836
 1276Sol     OW 8127   1.019   2.880   3.417 -0.1275 -0.1797  0.0189
 1276Sol     HW 8128   1.051   2.931   3.343  0.3464  0.4805  0.6657
 1276Sol     HW 8129   1.036   2.789   3.393  1.7249  0.1198  0.0962
 1276Sol     MW 8130   1.024   2.877   3.409 -0.0421 -0.5926  1.1916
 1277Sol     OW 8131   0.771   1.055   7.347 -0.5551  0.0689 -0.2667
 1277Sol     HW 8132   0.841   1.007   7.303  1.4022  3.1564 -0.6675
 1277Sol     HW 8133   0.784   1.036   7.440  0.1173 -0.2798 -0.4290
 1277Sol     MW 8134   0.778   1.049   7.352  0.3221  0.2353  0.5749
 1278Sol     OW 8135   2.308   3.094   8.859 -0.4571 -0.1260  0.3817
 1278Sol     HW 8136   2.231   3.124   8.811 -0.0770  0.9174  0.4057
 1278Sol     HW 8137   2.364   3.054   8.792  0.6054  2.3649 -0.3184
 1278Sol     MW 8138   2.306   3.093   8.849  0.3961 -0.1369  0.2001
 1279Sol     OW 8139   1.575   3.114   9.479 -0.4858  0.1398 -0.2333
 1279Sol     HW 8140   1.484   3.141   9.492 -0.2589  0.7465  0.1470
 1279Sol     HW 8141   1.602   3.081   9.565 -1.2201 -2.7437 -1.0616
 1279Sol     MW 8142   1.569   3.114   9.488 -0.5923  0.3840  1.1963
 1280Sol     OW 8143   3.120   1.056   5.604 -0.5622  0.1922  0.3169
 1280Sol     HW 8144   3.090   1.029   5.691 -0.3525 -2.6446 -0.4484
 1280Sol     HW 8145   3.043   1.048   5.548 -0.6682  1.8970  0.1766
 1280Sol     MW 8146   3.111   1.053   5.607 -1.0429 -0.9038  0.1127
 1281Sol     OW 8147   2.559   3.360   9.937  0.1088 -0.5031 -0.3330
 1281Sol     HW 8148   2.525   3.293   9.996 -0.6332 -0.1676 -0.3715
 1281Sol     HW 8149   2.638   3.392   9.980 -0.1027 -0.6707  0.1861
 1281Sol     MW 8150   2.563   3.357   9.946 -0.4015 -0.4974 -0.8787
 1282Sol     OW 8151   0.179   3.361   8.663 -0.2520 -0.0883  0.4534
 1282Sol     HW 8152   0.238   3.370   8.738  1.4559 -2.1041 -0.6038
 1282Sol     HW 8153   0.231   3.392   8.588 -1.0483 -0.5120 -0.2787
 1282Sol     MW 8154   0.189   3.365   8.663  0.3434  0.2987 -0.4554
 1283Sol     OW 8155   3.048   2.142   8.409 -0.0390 -0.0897  0.1009
 1283Sol     HW 8156   3.067   2.231   8.379 -1.8125  0.4830  0.5963
 1283Sol     HW 8157   2.968   2.117   8.363  1.4186 -2.1587 -1.4126
 1283Sol     MW 8158   3.043   2.148   8.402 -0.3640 -0.7037  0.1318
 1284Sol     OW 8159   2.492   1.914   1.425 -0.7917 -0.6303 -0.6679
 1284Sol     HW 8160   2.485   1.953   1.512 -1.2604 -1.9465 -0.1190
 1284Sol     HW 8161   2.528   1.985   1.370  2.3075 -0.6548  1.1895
 1284Sol     MW 8162   2.495   1.924   1.428 -0.3310 -0.8761  0.4969
 1285Sol     OW 8163   1.111   1.839   9.484  0.3484  0.0074  0.3510
 1285Sol     HW 8164   1.170   1.850   9.410 -0.9665  0.5386 -0.6437
 1285Sol     HW 8165   1.066   1.924   9.491  0.5494 -0.0045  1.8272
 1285Sol     MW 8166   1.112   1.848   9.478  0.2460 -0.1966  0.2480
 1286Sol     OW 8167   2.683   1.903   8.555  0.8122  0.0544 -0.1955
 1286Sol     HW 8168   2.595   1.875   8.583 -1.0982  4.6933 -1.1154
 1286Sol     HW 8169   2.678   1.902   8.459  1.5552  0.9716 -0.2465
 1286Sol     MW 8170   2.674   1.900   8.549  0.6209 -0.5053  0.1197
 1287Sol     OW 8171   1.646   3.370   4.293 -0.0081  0.5169  0.2122
 1287Sol     HW 8172   1.651   3.315   4.372  1.1420  0.9664  0.4545
 1287Sol     HW 8173   1.696   3.448   4.315  1.1561  0.2205 -1.3232
 1287Sol     MW 8174   1.651   3.372   4.302 -0.4357  0.1472 -1.1867
 1288Sol     OW 8175   1.554   0.762   9.018  0.4534 -0.4538  0.7128
 1288Sol     HW 8176   1.615   0.690   9.008 -0.2883 -1.0489  0.4375
 1288Sol     HW 8177   1.567   0.816   8.939  0.2388 -0.8734  0.3880
 1288Sol     MW 8178   1.560   0.761   9.010 -0.2157 -0.1798 -0.3773
 1289Sol     OW 8179   1.279   2.877   4.138 -0.1962 -1.3720  0.2100
 1289Sol     HW 8180   1.186   2.869   4.160 -0.4372 -1.1201 -0.7124
 1289Sol     HW 8181   1.324   2.865   4.222 -1.0671 -1.2964  0.6991
 1289Sol     MW 8182   1.275   2.876   4.148  0.2425 -0.6887 -0.3429
 1290Sol     OW 8183   0.696   1.618   2.191  0.0770  0.3507  0.0557
 1290Sol     HW 8184   0.700   1.541   2.134  0.1416  0.1617  0.3153
 1290Sol     HW 8185   0.695   1.692   2.131  1.6792  0.2080 -0.1701
 1290Sol     MW 8186   0.696   1.618   2.181  0.3026  0.6523  0.0232
 1291Sol     OW 8187   2.286   0.247   3.176 -0.3802  0.0359 -0.4067
 1291Sol     HW 8188   2.280   0.298   3.257  0.1044 -1.2757  0.4821
 1291Sol     HW 8189   2.251   0.304   3.108  1.9563  2.2885  0.2243
 1291Sol     MW 8190   2.283   0.256   3.177  0.2475 -0.2378  0.3369
 1292Sol     OW 8191   1.687   2.085   3.741 -0.3019 -0.6601 -0.2265
 1292Sol     HW 8192   1.752   2.095   3.672  1.5566 -1.9297  1.2823
 1292Sol     HW 8193   1.653   1.996   3.729 -0.4606 -0.6397  0.0642
 1292Sol     MW 8194   1.690   2.078   3.734  0.3940  0.2351  0.2704
 1293Sol     OW 8195   2.680   0.590   8.557  0.4739  0.2424  0.1631
 1293Sol     HW 8196   2.608   0.527   8.555 -0.0136  0.8132 -2.2818
 1293Sol     HW 8197   2.759   0.536   8.554  0.0801 -0.3224 -0.3488
 1293Sol     MW 8198   2.680   0.579   8.556  0.1892  0.0610  0.8983
 1294Sol     OW 8199   1.367   1.539   3.619  0.1448  0.0456 -0.2691
 1294Sol     HW 8200   1.453   1.538   3.578 -0.0895 -0.9559 -0.7529
 1294Sol     HW 8201   1.337   1.629   3.609  1.0053  0.3289 -0.3621
 1294Sol     MW 8202   1.372   1.547   3.614 -0.2400 -1.3111  0.2276
 1295Sol     OW 8203   2.301   2.612   3.966 -0.3929  0.2596  0.4624
 1295Sol     HW 8204   2.274   2.555   3.895  1.3811 -1.8879  1.4539
 1295Sol     HW 8205   2.223   2.622   4.020 -0.6213 -1.6020  0.5074
 1295Sol     MW 8206   2.292   2.608   3.965  0.4321 -1.2948 -0.2749
 1296Sol     OW 8207   2.221   0.751   7.032  0.3099  0.7311  0.1371
 1296Sol     HW 8208   2.140   0.795   7.005  0.9915  1.8827 -0.0882
 1296Sol     HW 8209   2.203   0.720   7.121 -0.4010  0.9231  0.0630
 1296Sol     MW 8210   2.212   0.753   7.037  0.7142  0.6097  0.4305
 1297Sol     OW 8211   0.414   2.949   6.486 -0.2866  0.3519  0.3733
 1297Sol     HW 8212   0.501   2.931   6.450 -0.1162  1.2902  0.3182
 1297Sol     HW 8213   0.430   2.984   6.573 -0.6185  0.4240  0.4080
 1297Sol     MW 8214   0.423   2.950   6.490  0.1339  0.4849 -0.5194
 1298Sol     OW 8215   3.106   0.499   4.032  0.1526 -0.1099  0.1591
 1298Sol     HW 8216   3.195   0.471   4.050  1.1623  2.3544 -0.7407
 1298Sol     HW 8217   3.108   0.594   4.042 -3.2749 -0.3064  3.7302
 1298Sol     MW 8218   3.114   0.505   4.034  0.1505  0.5229  0.6071
 1299Sol     OW 8219   2.848   2.925   1.456  0.0755 -0.6051  1.0871
 1299Sol     HW 8220   2.904   2.940   1.532 -1.4657  0.4885  2.0366
 1299Sol     HW 8221   2.772   2.981   1.471  0.0564  0.1534 -1.6149
 1299Sol     MW 8222   2.846   2.931   1.464 -1.0038  0.4440 -0.1316
 1300Sol     OW 8223   1.791   2.410   5.692  0.2252 -0.0714 -0.2801
 1300Sol     HW 8224   1.803   2.470   5.619  2.4902  0.8311  0.7934
 1300Sol     HW 8225   1.859   2.344   5.681  0.1327 -0.3294  0.6179
 1300Sol     MW 8226   1.798   2.410   5.685  0.0786  0.3605  0.4167
 1301Sol     OW 8227   2.868   1.801   8.714 -0.2429 -0.5542  0.4269
 1301Sol     HW 8228   2.787   1.824   8.669 -2.0804 -2.8420  2.4286
 1301Sol     HW 8229   2.915   1.885   8.723 -1.6200  0.5551 -2.1076
 1301Sol     MW 8230   2.865   1.811   8.711  0.0500 -0.2145  0.2109
 1302Sol     OW 8231   1.789   1.380   3.674 -0.5011 -0.1893 -0.5751
 1302Sol     HW 8232   1.751   1.336   3.750 -1.1150 -0.4938 -1.0403
 1302Sol     HW 8233   1.837   1.311   3.628  1.1902  0.3469  0.3625
 1302Sol     MW 8234   1.790   1.369   3.676  0.3767  0.0317 -0.2065
 1303Sol     OW 8235   0.740   3.230   9.913 -0.3933  0.3412  0.2610
 1303Sol     HW 8236   0.757   3.319   9.883  1.5489  0.0408  0.4028
 1303Sol     HW 8237   0.781   3.226  10.000  2.8921 -1.7594 -1.2688
 1303Sol     MW 8238   0.746   3.238   9.918  0.2647  0.9723  0.1698
 1304Sol     OW 8239   2.374   0.761   1.886 -0.1131  0.5242  0.1715
 1304Sol     HW 8240   2.344   0.676   1.852 -1.1070  0.1725  1.8798
 1304Sol     HW 8241   2.320   0.825   1.839 -2.0005  0.0047  1.5775
 1304Sol     MW 8242   2.366   0.759   1.878  0.2063 -0.5630 -0.0010
 1305Sol     OW 8243   3.111   1.816   7.192  0.1286 -0.0271  0.1602
 1305Sol     HW 8244   3.026   1.819   7.237 -0.7574  0.4137 -1.5201
 1305Sol     HW 8245   3.096   1.759   7.117  0.9273  1.1988 -0.9410
 1305Sol     MW 8246   3.102   1.811   7.190 -0.4201 -1.7062  0.6372
 1306Sol     OW 8247   2.049   2.421   5.371 -0.4423 -0.3023  0.2568
 1306Sol     HW 8248   1.970   2.474   5.369 -0.7598 -0.7537  0.7356
 1306Sol     HW 8249   2.105   2.459   5.303 -0.8684  0.3241  0.2539
 1306Sol     MW 8250   2.047   2.429   5.364 -0.1046 -0.7902  1.0431
 1307Sol     OW 8251   0.799   0.915   3.660 -0.1602 -0.1805 -0.1429
 1307Sol     HW 8252   0.748   0.855   3.605  0.8201 -2.1937  1.0923
 1307Sol     HW 8253   0.889   0.904   3.631  0.1196  0.1523  0.5823
 1307Sol     MW 8254   0.802   0.909   3.653  0.5223 -0.1758  0.0774
 1308Sol     OW 8255   2.819   0.555   4.890  0.6436  0.0901  0.1381
 1308Sol     HW 8256   2.767   0.510   4.956  1.3454 -0.1859  0.5136
 1308Sol     HW 8257   2.879   0.610   4.940  2.0024 -1.0318 -0.2243
 1308Sol     MW 8258   2.820   0.556   4.900 -0.2706  0.8795 -0.7084
 1309Sol     OW 8259   1.574   0.927   3.609 -0.1080 -0.0765  0.3076
 1309Sol     HW 8260   1.514   0.994   3.643  0.0279  1.0419 -1.5925
 1309Sol     HW 8261   1.644   0.924   3.674 -0.4659  1.1253  0.7869
 1309Sol     MW 8262   1.574   0.933   3.618 -0.0514  0.1610  0.1556
 1310Sol     OW 8263   3.197   0.156   7.213  0.1075  0.1348  0.1085
 1310Sol     HW 8264   3.261   0.227   7.219 -0.3928  0.6941 -0.9815
 1310Sol     HW 8265   3.149   0.159   7.295  0.8618  0.3137  0.5461
 1310Sol     MW 8266   3.199   0.163   7.221  0.4266  0.6390 -1.4593
 1311Sol     OW 8267   0.817   2.453   9.426 -0.4769  0.5376 -0.0958
 1311Sol     HW 8268   0.898   2.462   9.477 -0.9457  1.0965  0.5533
 1311Sol     HW 8269   0.782   2.542   9.421 -2.4591 -0.0905  1.9186
 1311Sol     MW 8270   0.821   2.462   9.430  0.2609  0.3142  0.1016
 1312Sol     OW 8271   0.538   1.832   4.766  0.3563  0.2113  0.1064
 1312Sol     HW 8272   0.558   1.909   4.713 -1.1268  1.5243  1.3926
 1312Sol     HW 8273   0.586   1.846   4.848  0.1161 -0.2456  0.3286
 1312Sol     MW 8274   0.544   1.840   4.769  0.1878 -0.1228  0.4453
 1313Sol     OW 8275   2.278   3.037   7.176  0.4572 -0.3759 -0.2719
 1313Sol     HW 8276   2.240   2.949   7.187 -0.8129  0.2476  0.4291
 1313Sol     HW 8277   2.365   3.021   7.139 -0.7192 -1.8245 -2.5569
 1313Sol     MW 8278   2.282   3.027   7.173  0.1940  0.2511  0.5271
 1314Sol     OW 8279   2.793   1.970   6.370  0.4466 -0.2843  0.1368
 1314Sol     HW 8280   2.763   1.986   6.280  3.0404  0.3483 -0.6796
 1314Sol     HW 8281   2.819   1.878   6.371 -0.5175 -0.5500  0.5235
 1314Sol     MW 8282   2.793   1.963   6.362  0.0775  0.0318 -0.5206
 1315Sol     OW 8283   2.859   3.086   2.938  0.5064 -0.1828  0.1337
 1315Sol     HW 8284   2.903   3.022   2.994 -1.9454 -1.5177  0.5721
 1315Sol     HW 8285   2.828   3.154   2.999 -1.4489 -1.2269  0.3269
 1315Sol     MW 8286   2.860   3.087   2.948 -0.5232 -0.4113 -0.3148
 1316Sol     OW 8287   1.237   1.817   5.303  0.6351  0.0068 -0.1695
 1316Sol     HW 8288   1.263   1.725   5.312  1.1235  0.1674  0.1153
 1316Sol     HW 8289   1.281   1.847   5.223 -0.5603 -0.3561 -0.9697
 1316Sol     MW 8290   1.244   1.812   5.297 -0.8727 -0.1306 -0.5024
 1317Sol     OW 8291   1.345   0.674   7.627 -0.2043  0.6965 -0.0737
 1317Sol     HW 8292   1.323   0.727   7.703 -0.9449 -0.5583  0.6211
 1317Sol     HW 8293   1.292   0.710   7.556  1.7399  2.9367 -0.4326
 1317Sol     MW 8294   1.338   0.682   7.627 -0.0787 -1.0395  0.1473
 1318Sol     OW 8295   0.993   0.124   8.986  0.2465  0.1444  0.2128
 1318Sol     HW 8296   0.962   0.100   9.073  1.5053  0.5972  0.8099
 1318Sol     HW 8297   1.050   0.051   8.961  0.6987  0.4851  0.2253
 1318Sol     MW 8298   0.996   0.116   8.992  0.9186  0.4792  1.1275
 1319Sol     OW 8299   3.313   0.118   1.564 -0.0316 -0.5408 -0.2978
 1319Sol     HW 8300   3.253   0.193   1.572  0.4659 -0.2494  0.7194
 1319Sol     HW 8301   3.255   0.043   1.549 -0.5279  0.0543 -1.5062
 1319Sol     MW 8302   3.302   0.118   1.563 -0.0854  0.2043 -0.2952
 1320Sol     OW 8303   1.046   1.835   2.015 -0.0536 -0.2420 -0.1833
 1320Sol     HW 8304   1.020   1.759   1.962 -1.0018 -0.0007 -0.0755
 1320Sol     HW 8305   0.988   1.905   1.986  0.0620  0.1460  0.5128
 1320Sol     MW 8306   1.038   1.835   2.008  0.7078 -0.0742  0.1252
 1321Sol     OW 8307   2.165   1.757   3.292 -0.0561  0.2246 -0.2386
 1321Sol     HW 8308   2.254   1.721   3.300  0.0865  0.7999  0.9576
 1321Sol     HW 8309   2.121   1.729   3.372 -1.1573 -0.5841 -1.1223
 1321Sol     MW 8310   2.169   1.752   3.300 -0.3729  0.3641  1.4459
 1322Sol     OW 8311   1.038   0.745   3.826 -0.3009  0.0867 -0.1208
 1322Sol     HW 8312   1.107   0.680   3.838  0.3840  0.8875  0.3886
 1322Sol     HW 8313   1.054   0.781   3.739  0.9884  1.4684  0.6559
 1322Sol     MW 8314   1.046   0.743   3.820  0.6099 -0.0970  0.2401
 1323Sol     OW 8315   1.331   1.575   5.901 -0.3669  0.2489  0.6067
 1323Sol     HW 8316   1.309   1.483   5.889  2.3108 -0.2609 -0.5525
 1323Sol     HW 8317   1.288   1.620   5.828 -1.0544 -0.1529  0.7583
 1323Sol     MW 8318   1.325   1.571   5.894 -0.3257  0.0254 -0.5136
 1324Sol     OW 8319   0.702   1.392   6.164 -0.2167  0.0101  0.0086
 1324Sol     HW 8320   0.611   1.363   6.165 -1.0872  2.7017  0.0964
 1324Sol     HW 8321   0.699   1.484   6.189  2.1787  1.0646 -3.2165
 1324Sol     MW 8322   0.694   1.397   6.166 -0.8423  0.4061 -0.0923
 1325Sol     OW 8323   1.799   2.446   9.214 -0.1028 -0.6815  0.4341
 1325Sol     HW 8324   1.774   2.533   9.245 -1.9951 -0.7550 -0.8568
 1325Sol     HW 8325   1.863   2.462   9.145  0.6475 -0.3774  1.1886
 1325Sol     MW 8326   1.803   2.455   9.211 -0.1390 -0.0322  0.2538
 1326Sol     OW 8327   2.920   1.445   2.951 -0.0346 -0.2499  0.0294
 1326Sol     HW 8328   2.899   1.403   2.867 -0.7908  0.7117 -0.2725
 1326Sol     HW 8329   2.975   1.520   2.928 -0.4342  0.1510  0.3612
 1326Sol     MW 8330   2.923   1.448   2.941  0.1981 -0.6510 -0.2162
 1327Sol     OW 8331   0.128   3.355   2.524 -0.1740 -0.4370 -0.3982
 1327Sol     HW 8332   0.041   3.329   2.555 -0.5212  0.3692 -0.6805
 1327Sol     HW 8333   0.182   3.358   2.603 -0.1500 -1.8901 -0.3472
 1327Sol     MW 8334   0.125   3.353   2.534 -0.7557 -0.0477  0.0481
 1328Sol     OW 8335   3.095   1.540   2.345 -0.1421  0.2003  0.3212
 1328Sol     HW 8336   3.177   1.501   2.316 -1.0592 -0.1932 -1.8544
 1328Sol     HW 8337   3.032   1.467   2.343 -1.1659  1.0957 -0.7588
 1328Sol     MW 8338   3.097   1.530   2.343 -0.7150 -0.0076 -0.1491
 1329Sol     OW 8339   0.525   1.892   7.143 -0.1030  0.1606 -0.2312
 1329Sol     HW 8340   0.549   1.910   7.052 -0.6522  3.1772  0.1956
 1329Sol     HW 8341   0.537   1.975   7.189 -0.9721 -1.0105  2.2359
 1329Sol     MW 8342   0.528   1.901   7.139 -0.1412 -0.4808 -0.4401
 1330Sol     OW 8343   0.874   1.305   7.332 -0.0932 -0.1575  0.0869
 1330Sol     HW 8344   0.843   1.216   7.349  0.4229 -0.7709 -2.1067
 1330Sol     HW 8345   0.817   1.337   7.262  0.3436  0.9034  0.2080
 1330Sol     MW 8346   0.866   1.300   7.327  0.0931  0.1614 -0.4983
 1331Sol     OW 8347   1.613   1.808   8.571 -0.6030  0.1729  0.0631
 1331Sol     HW 8348   1.663   1.828   8.491 -0.0778  0.2010  0.3991
 1331Sol     HW 8349   1.647   1.869   8.636 -0.9647  0.0790  0.3412
 1331Sol     MW 8350   1.620   1.815   8.569  0.5241  0.5150 -0.0651
 1332Sol     OW 8351   1.775   1.638   4.879  0.0105 -0.4352 -0.0899
 1332Sol     HW 8352   1.839   1.697   4.920 -2.3832 -0.0665  3.2792
 1332Sol     HW 8353   1.750   1.577   4.948 -3.5151 -0.3624 -1.2087
 1332Sol     MW 8354   1.779   1.638   4.888 -0.2459  0.2152 -0.0090
 1333Sol     OW 8355   2.081   2.326   2.298 -0.2746 -0.0288 -0.2033
 1333Sol     HW 8356   2.059   2.289   2.212 -0.5114 -1.0691  0.3018
 1333Sol     HW 8357   2.056   2.418   2.291 -0.4302 -0.1403 -1.2065
 1333Sol     MW 8358   2.077   2.331   2.289  0.1576 -0.1474  0.0535
 1334Sol     OW 8359   2.467   0.088   7.275  0.1724  0.6192  0.2966
 1334Sol     HW 8360   2.377   0.088   7.241 -0.2869 -1.2094  1.4171
 1334Sol     HW 8361   2.490  -0.005   7.279  1.7712  1.0383  0.9145
 1334Sol     MW 8362   2.461   0.080   7.272  0.4381  0.1051 -0.7698
 1335Sol     OW 8363   0.179   0.398   1.935 -0.3003  0.7567 -0.1748
 1335Sol     HW 8364   0.223   0.381   2.019 -2.5629 -3.3948  0.3234
 1335Sol     HW 8365   0.249   0.422   1.876  1.4552  3.0838  2.7312
 1335Sol     MW 8366   0.189   0.398   1.938  0.3713 -0.9623 -0.4996
 1336Sol     OW 8367   0.037   0.185   4.812 -0.1789 -0.5049  0.1988
 1336Sol     HW 8368   0.043   0.274   4.777 -0.2781  0.1623  1.7891
 1336Sol     HW 8369  -0.056   0.166   4.813 -0.1349 -0.7503 -0.4410
 1336Sol     MW 8370   0.029   0.191   4.809  0.2562 -0.5369 -0.6512
 1337Sol     OW 8371   0.039   0.340   6.391  0.0547  0.1767  0.0195
 1337Sol     HW 8372   0.134   0.334   6.378  0.0912  0.7511  0.0294
 1337Sol     HW 8373   0.014   0.422   6.348 -0.2484  0.6558  1.0953
 1337Sol     MW 8374   0.045   0.347   6.386  0.6190 -0.1147  0.3481
 1338Sol     OW 8375   1.746   0.162   4.387 -0.2472  0.6748  0.8788
 1338Sol     HW 8376   1.806   0.232   4.361 -0.2006  0.8482  1.4358
 1338Sol     HW 8377   1.783   0.129   4.469 -0.8417  0.6867  1.1533
 1338Sol     MW 8378   1.755   0.165   4.392  0.3619 -0.1367  0.6515
 1339Sol     OW 8379   0.312   0.870   7.536  0.0150 -0.1494  0.1710
 1339Sol     HW 8380   0.366   0.820   7.598  1.0516  0.3075 -0.3455
 1339Sol     HW 8381   0.335   0.961   7.552  0.3408 -0.0322 -0.9164
 1339Sol     MW 8382   0.319   0.873   7.543  0.1235  0.8152  0.0001
 1340Sol     OW 8383   1.179   1.281   3.035  0.5113  0.6851  0.1959
 1340Sol     HW 8384   1.274   1.284   3.035  0.5229  0.3445  0.6614
 1340Sol     HW 8385   1.152   1.366   2.999  0.9698  1.5648  1.8621
 1340Sol     MW 8386   1.185   1.289   3.032  0.5288  0.3253  0.1926
 1341Sol     OW 8387   2.851   1.775   9.831 -0.5505  0.3634 -0.3030
 1341Sol     HW 8388   2.837   1.774   9.736 -2.9884  1.5272  0.0239
 1341Sol     HW 8389   2.846   1.683   9.857 -0.9031  0.1336 -1.1539
 1341Sol     MW 8390   2.850   1.767   9.825 -0.3028 -0.3387  0.1627
 1342Sol     OW 8391   1.227   0.133   8.489 -1.1291  0.3969 -0.0533
 1342Sol     HW 8392   1.312   0.148   8.449 -1.2331 -2.5051 -1.4767
 1342Sol     HW 8393   1.180   0.216   8.476  0.2539  0.8621 -2.3347
 1342Sol     MW 8394   1.230   0.142   8.485 -1.2406  0.0252 -0.3847
 1343Sol     OW 8395   1.987   2.306   8.446 -0.1716  0.0192 -0.2067
 1343Sol     HW 8396   1.923   2.334   8.512  0.6988  1.2960  0.1084
 1343Sol     HW 8397   1.989   2.378   8.383  0.8068 -0.1103 -0.3219
 1343Sol     MW 8398   1.981   2.315   8.446  1.1175  0.1892 -0.6083
 1344Sol     OW 8399   0.446   0.112   5.346 -0.3279  0.3364  0.2709
 1344Sol     HW 8400   0.512   0.046   5.369 -0.4303 -0.3021 -1.1851
 1344Sol     HW 8401   0.491   0.171   5.286 -0.5326  1.0286  0.7908
 1344Sol     MW 8402   0.456   0.111   5.343 -0.6567  0.7259  0.3165
 1345Sol     OW 8403   1.327   0.047   5.270  0.0659  0.3121 -0.6565
 1345Sol     HW 8404   1.345  -0.019   5.337  1.2291 -1.0301 -2.2785
 1345Sol     HW 8405   1.242   0.022   5.234 -0.7455  1.2616  0.5671
 1345Sol     MW 8406   1.321   0.039   5.273 -0.5202  0.8842  0.4110
 1346Sol     OW 8407   0.694   2.544   7.000 -0.1533  0.5527  0.0569
 1346Sol     HW 8408   0.658   2.613   6.945 -0.1733  0.4410 -0.0730
 1346Sol     HW 8409   0.785   2.569   7.014 -0.4513  1.1698  0.9195
 1346Sol     MW 8410   0.699   2.552   6.996 -0.1466  0.4950 -0.6935
 1347Sol     OW 8411   1.088   0.458   5.442 -0.1106  0.1684 -0.6461
 1347Sol     HW 8412   1.129   0.488   5.361  2.5328 -0.2621  0.4653
 1347Sol     HW 8413   1.066   0.537   5.490  0.0645  0.3965 -0.9451
 1347Sol     MW 8414   1.090   0.467   5.439  1.4929  1.2103  0.0367
 1348Sol     OW 8415   0.659   3.216   9.222  0.2456  0.7812  0.2114
 1348Sol     HW 8416   0.669   3.201   9.316 -0.9810 -0.8156  0.1112
 1348Sol     HW 8417   0.727   3.162   9.182 -0.2710  0.2028  0.1129
 1348Sol     MW 8418   0.666   3.210   9.227 -0.2131 -0.8467 -0.3381
 1349Sol     OW 8419   0.948   2.818   2.741 -0.1044  0.3095 -0.1929
 1349Sol     HW 8420   0.947   2.841   2.648 -2.0561 -1.1315 -0.5704
 1349Sol     HW 8421   1.031   2.774   2.754 -0.2240 -0.3295 -1.5013
 1349Sol     MW 8422   0.955   2.816   2.734 -0.8304  0.5016 -0.4083
 1350Sol     OW 8423   0.983   2.811   7.949  0.7751 -0.1747  0.0499
 1350Sol     HW 8424   0.965   2.735   8.005  2.8586 -0.6880  0.0803
 1350Sol     HW 8425   1.007   2.880   8.011 -0.2530  0.2537 -0.0279
 1350Sol     MW 8426   0.983   2.810   7.960  0.3300 -0.6197  0.9908
 1351Sol     OW 8427   0.500   2.672   3.248 -0.4994  0.8263 -0.8545
 1351Sol     HW 8428   0.572   2.670   3.185 -0.9510  2.3152 -1.4426
 1351Sol     HW 8429   0.434   2.727   3.207 -2.4460 -1.4123 -0.8025
 1351Sol     MW 8430   0.501   2.677   3.239  0.2116  0.3323  0.0984
 1352Sol     OW 8431   2.412   1.732   5.224  0.0909  0.1476 -0.3764
 1352Sol     HW 8432   2.476   1.789   5.181  0.6664 -0.5551 -0.4570
 1352Sol     HW 8433   2.456   1.647   5.229 -0.5953 -0.1742  0.1432
 1352Sol     MW 8434   2.422   1.730   5.221 -0.5208 -0.7862  0.0026
 1353Sol     OW 8435   0.356   2.388   5.910  0.1134  0.1890  0.1882
 1353Sol     HW 8436   0.285   2.432   5.863  0.4473  0.1516 -0.3526
 1353Sol     HW 8437   0.406   2.460   5.950  0.4103  0.2769 -0.3407
 1353Sol     MW 8438   0.354   2.399   5.909  0.0456  0.0329 -0.4813
 1354Sol     OW 8439   3.144   3.035   2.040 -0.3493  0.0806 -0.5432
 1354Sol     HW 8440   3.196   2.963   2.003  2.5005  1.3819  0.7378
 1354Sol     HW 8441   3.055   3.002   2.042  0.7493 -3.0660 -0.8819
 1354Sol     MW 8442   3.141   3.026   2.037  1.0621  0.3577  1.0498
 1355Sol     OW 8443   2.820   0.893   7.617  0.3289  0.1117 -0.5709
 1355Sol     HW 8444   2.835   0.837   7.692  0.4135 -0.0556 -0.7108
 1355Sol     HW 8445   2.834   0.836   7.541  2.3302  0.7667 -0.7425
 1355Sol     MW 8446   2.823   0.883   7.617  0.3199 -0.8411 -0.0201
 1356Sol     OW 8447   0.051   2.844   6.265 -0.1151 -0.1520  0.3010
 1356Sol     HW 8448   0.085   2.930   6.289 -0.7661  0.2463 -0.1825
 1356Sol     HW 8449   0.120   2.806   6.210 -0.1499  0.3634 -0.1006
 1356Sol     MW 8450   0.061   2.848   6.262 -0.0699  0.4937 -0.5994
 1357Sol     OW 8451   1.254   1.126   1.399 -0.3154  0.3205 -0.4454
 1357Sol     HW 8452   1.275   1.042   1.357 -0.5515  0.7065 -1.3430
 1357Sol     HW 8453   1.338   1.158   1.432 -0.1258  0.0301 -0.6441
 1357Sol     MW 8454   1.263   1.121   1.399  0.3042 -0.1140 -0.7791
 1358Sol     OW 8455   0.115   1.959   3.663  0.2698 -0.5076 -0.1443
 1358Sol     HW 8456   0.155   2.019   3.600  0.1011  0.4232  0.6180
 1358Sol     HW 8457   0.162   1.976   3.745 -0.8497 -0.2735  0.4610
 1358Sol     MW 8458   0.122   1.966   3.665 -0.2316 -0.1021  0.1502
 1359Sol     OW 8459   3.139   1.870   4.444 -0.3628 -0.0617 -0.2371
 1359Sol     HW 8460   3.222   1.887   4.400 -0.3864  3.2739  0.9058
 1359Sol     HW 8461   3.152   1.786   4.489  3.5033  1.8832  2.5184
 1359Sol     MW 8462   3.147   1.864   4.444  0.4521 -1.3257 -0.9430
 1360Sol     OW 8463   2.849   1.088   2.351 -0.4946  0.1364  0.3415
 1360Sol     HW 8464   2.862   1.034   2.428 -1.1229 -1.9997 -1.0107
 1360Sol     HW 8465   2.826   1.026   2.282  2.1202  1.7599 -2.0847
 1360Sol     MW 8466   2.848   1.078   2.352  0.7836  0.8491 -0.6802
 1361Sol     OW 8467   0.844   2.306   2.428 -0.6373  0.3466  0.6957
 1361Sol     HW 8468   0.876   2.290   2.339 -0.9525  0.3056  0.5889
 1361Sol     HW 8469   0.887   2.387   2.455  0.8950 -0.6237  1.1986
 1361Sol     MW 8470   0.851   2.312   2.422 -0.5320  0.5590  0.2733
 1362Sol     OW 8471   0.394   1.268   4.577 -0.0339 -0.3496 -0.5754
 1362Sol     HW 8472   0.341   1.347   4.588 -0.4014 -0.4040 -1.7780
 1362Sol     HW 8473   0.377   1.216   4.655  1.9140  1.7014  1.2662
 1362Sol     MW 8474   0.387   1.270   4.585  0.2135  0.0301 -0.2955
 1363Sol     OW 8475   1.480   2.505   9.443 -0.3998 -0.3438  0.9754
 1363Sol     HW 8476   1.413   2.437   9.452 -0.1040 -0.6656  0.6884
 1363Sol     HW 8477   1.562   2.463   9.468 -0.0560 -0.3738 -0.1793
 1363Sol     MW 8478   1.481   2.495   9.446 -0.3580  0.3235  0.1846
 1364Sol     OW 8479   1.359   0.350   6.607  0.4990  0.1734  0.6742
 1364Sol     HW 8480   1.421   0.351   6.534  0.9639  1.0803  1.0670
 1364Sol     HW 8481   1.414   0.333   6.684 -0.0842 -1.5453  0.7457
 1364Sol     MW 8482   1.370   0.348   6.607  1.1249  0.1422  0.7307
 1365Sol     OW 8483   1.787   1.252   1.704 -0.3339 -0.5287  0.1445
 1365Sol     HW 8484   1.750   1.188   1.765  0.0295  0.0860  1.0071
 1365Sol     HW 8485   1.769   1.337   1.744 -0.0301 -0.1264 -0.5659
 1365Sol     MW 8486   1.782   1.253   1.713  0.1708 -0.3924 -0.0935
 1366Sol     OW 8487   1.654   0.157   5.999  0.2693 -0.1068  0.0668
 1366Sol     HW 8488   1.650   0.240   5.952  0.2002  0.3546  0.8920
 1366Sol     HW 8489   1.584   0.163   6.065  0.6440 -0.5870  0.5092
 1366Sol     MW 8490   1.647   0.165   6.000  1.0970  0.5918 -0.5078
 1367Sol     OW 8491   0.820   1.155   6.810  0.2466  0.0331 -0.0553
 1367Sol     HW 8492   0.839   1.128   6.720  0.1965 -0.1046 -0.0260
 1367Sol     HW 8493   0.856   1.085   6.864  1.2846  0.6616  0.0888
 1367Sol     MW 8494   0.825   1.146   6.806  0.7092  0.1362 -0.1536
 1368Sol     OW 8495   1.688   0.433   4.551  0.1603  0.0245  0.0604
 1368Sol     HW 8496   1.686   0.400   4.461 -1.2203 -0.6163  0.3164
 1368Sol     HW 8497   1.648   0.365   4.603  1.1013  0.3308  1.2099
 1368Sol     MW 8498   1.684   0.424   4.547 -0.0653 -1.8977 -0.3482
 1369Sol     OW 8499   0.229   2.971   8.500  0.0551  0.0957  0.1417
 1369Sol     HW 8500   0.139   3.003   8.513 -0.5898 -1.0589 -1.3426
 1369Sol     HW 8501   0.230   2.885   8.541  0.6755  0.3611  0.6907
 1369Sol     MW 8502   0.221   2.966   8.505 -0.2056 -0.4451 -0.5321
 1370Sol     OW 8503   1.791   2.798   6.329  0.4225 -0.2087  0.5439
 1370Sol     HW 8504   1.777   2.840   6.414 -0.0065  0.2092  0.2708
 1370Sol     HW 8505   1.875   2.832   6.298  0.1700  0.2985  0.4137
 1370Sol     MW 8506   1.797   2.805   6.334  0.4656  0.6066  0.4070
 1371Sol     OW 8507   1.610   1.501   3.483  0.1135 -0.4199  0.0671
 1371Sol     HW 8508   1.659   1.554   3.420 -1.8220 -0.9526 -1.9655
 1371Sol     HW 8509   1.668   1.493   3.558  1.7365  1.8440 -0.8862
 1371Sol     MW 8510   1.620   1.505   3.484 -0.6857 -0.4571 -0.2015
 1372Sol     OW 8511   0.321   0.503   4.372  0.0237  0.1389 -0.3932
 1372Sol     HW 8512   0.403   0.512   4.420  0.7137 -1.1638 -1.3042
 1372Sol     HW 8513   0.253   0.516   4.439  0.9066  2.8784  0.0739
 1372Sol     MW 8514   0.322   0.505   4.383  0.5182 -0.4896 -0.7861
 1373Sol     OW 8515   0.780   2.322   8.481  0.3060 -0.2365  0.4980
 1373Sol     HW 8516   0.738   2.401   8.447  0.6501 -0.0912  0.4029
 1373Sol     HW 8517   0.724   2.294   8.553  0.2445  0.1621  0.6068
 1373Sol     MW 8518   0.771   2.327   8.485  1.0371  0.7255 -0.0165
 1374Sol     OW 8519   1.504   1.999   7.420 -0.2606  0.1874  0.1370
 1374Sol     HW 8520   1.583   1.968   7.465  1.5773  0.3827 -2.8489
 1374Sol     HW 8521   1.463   2.059   7.482  2.0357  0.2254  1.6865
 1374Sol     MW 8522   1.507   2.001   7.430  0.0762  0.2766  0.8386
 1375Sol     OW 8523   0.887   3.138   6.537  0.4203  0.5891  0.0098
 1375Sol     HW 8524   0.971   3.175   6.563  0.5287  0.0235  0.4757
 1375Sol     HW 8525   0.856   3.196   6.468  1.7159  0.1662 -0.9418
 1375Sol     MW 8526   0.892   3.147   6.533  0.4323  0.3635 -0.6695
 1376Sol     OW 8527   2.026   1.955   2.406  0.0760  0.1884  0.3727
 1376Sol     HW 8528   2.005   2.047   2.423 -0.7054  0.1179 -0.1601
 1376Sol     HW 8529   2.121   1.950   2.409  0.0434  0.6665  2.1886
 1376Sol     MW 8530   2.032   1.963   2.407  0.2031 -0.1265 -0.0182
 1377Sol     OW 8531   2.008   0.214   7.399 -0.0567  0.6378  0.3837
 1377Sol     HW 8532   1.973   0.298   7.370 -2.0367 -0.0794  0.6295
 1377Sol     HW 8533   1.936   0.152   7.385  1.2352 -0.9337  0.5989
 1377Sol     MW 8534   1.998   0.216   7.395 -0.1552 -0.5127 -0.7205
 1378Sol     OW 8535   2.921   1.467   1.715 -0.1222  0.2144 -0.2680
 1378Sol     HW 8536   2.866   1.417   1.655  0.0494 -0.2284 -0.0571
 1378Sol     HW 8537   2.922   1.416   1.796  0.4978  0.2805 -0.2295
 1378Sol     MW 8538   2.916   1.458   1.717 -0.2531  0.0438 -1.1269
 1379Sol     OW 8539   1.266   2.209   1.991 -0.0256 -0.5706 -0.5773
 1379Sol     HW 8540   1.218   2.237   2.069  1.2131 -1.2771  0.4546
 1379Sol     HW 8541   1.208   2.232   1.918 -2.4879 -2.5415  0.6900
 1379Sol     MW 8542   1.256   2.214   1.992 -0.0034  0.1169  0.2768
 1380Sol     OW 8543   3.092   2.171   7.502  0.6261  0.0811 -0.2683
 1380Sol     HW 8544   3.057   2.099   7.554  1.4452 -0.3532 -0.3137
 1380Sol     HW 8545   3.161   2.132   7.449  2.4541  1.2620  1.1915
 1380Sol     MW 8546   3.095   2.161   7.502 -0.3038 -0.3264 -0.3761
 1381Sol     OW 8547   1.533   2.789   3.565 -0.0914 -0.1284  0.2560
 1381Sol     HW 8548   1.460   2.851   3.564  0.3504  0.4672  2.4044
 1381Sol     HW 8549   1.573   2.798   3.479  0.8953  3.7263  1.0259
 1381Sol     MW 8550   1.530   2.795   3.557  0.4116 -0.1474  0.0095
 1382Sol     OW 8551   2.545   1.173   6.184  0.2046 -0.2626 -0.4709
 1382Sol     HW 8552   2.488   1.245   6.211 -0.2734 -1.0169  0.5655
 1382Sol     HW 8553   2.492   1.095   6.197  0.9909 -0.8585 -0.8498
 1382Sol     MW 8554   2.536   1.173   6.188  0.5067  0.1276 -0.6617
 1383Sol     OW 8555   1.955   0.474   1.460 -0.3230 -0.8404  0.0044
 1383Sol     HW 8556   1.965   0.420   1.539  1.5461 -3.3416 -1.8455
 1383Sol     HW 8557   1.882   0.433   1.412  0.3674 -1.0627 -0.8718
 1383Sol     MW 8558   1.949   0.465   1.463  0.4433  0.8430  0.1321
 1384Sol     OW 8559   0.109   2.344   1.457 -0.0559 -0.5844  0.2564
 1384Sol     HW 8560   0.066   2.423   1.490  1.4309  0.3149  0.0790
 1384Sol     HW 8561   0.083   2.275   1.518  1.2772  0.7131  2.3150
 1384Sol     MW 8562   0.103   2.345   1.465 -0.9667 -0.5990 -0.5142
 1385Sol     OW 8563   2.393   2.172   9.967 -0.6573  0.0364  0.0452
 1385Sol     HW 8564   2.434   2.191  10.051 -1.2769 -1.1170  0.6015
 1385Sol     HW 8565   2.323   2.236   9.959 -0.1606  0.5935  0.0808
 1385Sol     MW 8566   2.391   2.180   9.974  1.1298  0.8251  0.0590
 1386Sol     OW 8567   2.129   0.637   7.247  0.3564 -0.4461 -0.4183
 1386Sol     HW 8568   2.146   0.645   7.340 -0.2836 -1.8638 -0.1576
 1386Sol     HW 8569   2.075   0.558   7.239  0.4135 -0.3531 -1.9796
 1386Sol     MW 8570   2.126   0.630   7.254 -0.4885 -0.2899  0.8520
 1387Sol     OW 8571   1.238   0.120   6.472 -0.4511  0.4223 -0.0425
 1387Sol     HW 8572   1.288   0.189   6.515  0.2908  0.5404 -1.0601
 1387Sol     HW 8573   1.171   0.167   6.421  0.5332  0.4596 -1.3433
 1387Sol     MW 8574   1.237   0.130   6.471  0.7286 -0.2094  0.7432
 1388Sol     OW 8575   0.493   2.301   7.727  0.2163 -0.4915 -0.4953
 1388Sol     HW 8576   0.400   2.282   7.739  0.2239 -0.6472 -0.6783
 1388Sol     HW 8577   0.538   2.220   7.751  0.3380 -0.2504  0.0960
 1388Sol     MW 8578   0.489   2.292   7.730  0.1566 -0.4621 -0.0676
 1389Sol     OW 8579   0.895   1.087   6.559  0.0341  0.7830  0.6057
 1389Sol     HW 8580   0.990   1.083   6.556 -0.0515 -0.8109 -0.3410
 1389Sol     HW 8581   0.871   1.144   6.486  0.1648 -0.7358 -0.6472
 1389Sol     MW 8582   0.901   1.092   6.553  0.2365  0.3034 -0.8063
 1390Sol     OW 8583   2.344   2.390   4.286 -0.2854  0.3572  0.1097
 1390Sol     HW 8584   2.348   2.393   4.382  3.5389 -0.3242  0.0280
 1390Sol     HW 8585   2.385   2.471   4.257  1.2204 -0.7562 -0.9620
 1390Sol     MW 8586   2.348   2.397   4.292 -0.3263  0.8603  0.1785
 1391Sol     OW 8587   0.889   0.525   8.441 -0.0476 -0.6476  0.2962
 1391Sol     HW 8588   0.936   0.601   8.475  0.6604 -1.5529  1.3712
 1391Sol     HW 8589   0.799   0.557   8.428  0.3275  0.4713  0.3901
 1391Sol     MW 8590   0.885   0.535   8.443 -0.4990 -0.7097 -0.1374
 1392Sol     OW 8591   0.823   1.842   9.153  0.7452 -0.1239  0.3086
 1392Sol     HW 8592   0.840   1.768   9.095  0.0012  0.9967 -1.3595
 1392Sol     HW 8593   0.838   1.919   9.099 -0.9866  0.9446  1.3092
 1392Sol     MW 8594   0.826   1.842   9.143  0.0640  0.2769 -0.0023
 1393Sol     OW 8595   0.267   2.689   2.833  0.1267  0.1323 -0.7286
 1393Sol     HW 8596   0.238   2.722   2.919 -0.4689  2.2713 -1.7114
 1393Sol     HW 8597   0.359   2.714   2.828  0.4362 -0.8916 -0.3126
 1393Sol     MW 8598   0.272   2.694   2.841  0.2220 -0.2539  0.5752
 1394Sol     OW 8599   3.211   1.094   8.763  0.2350 -0.9169 -0.4240
 1394Sol     HW 8600   3.162   1.163   8.807  0.7196 -1.3033  0.7571
 1394Sol     HW 8601   3.207   1.116   8.670  0.0010  0.4354 -0.0949
 1394Sol     MW 8602   3.206   1.102   8.759  0.1462  0.2626  0.5486
 1395Sol     OW 8603   1.118   1.136   6.049 -0.0629 -0.0785 -0.1732
 1395Sol     HW 8604   1.085   1.226   6.045 -2.5022 -0.9241  0.6834
 1395Sol     HW 8605   1.092   1.104   6.135 -2.0879 -2.6870 -1.6982
 1395Sol     MW 8606   1.113   1.141   6.056 -0.0076  0.7990  0.0592
 1396Sol     OW 8607   2.335   1.870   4.062 -0.3430 -0.0185 -0.1399
 1396Sol     HW 8608   2.302   1.781   4.048 -0.6617  0.2908 -1.4207
 1396Sol     HW 8609   2.410   1.859   4.120  0.6865 -1.3179 -1.6833
 1396Sol     MW 8610   2.339   1.861   4.066  0.6934 -0.6847 -0.1233
 1397Sol     OW 8611   0.459   1.497   2.329 -0.0668  0.3277  0.5462
 1397Sol     HW 8612   0.378   1.504   2.279  0.1537  2.5458  0.4498
 1397Sol     HW 8613   0.520   1.555   2.284  1.4300 -0.9068  0.9378
 1397Sol     MW 8614   0.457   1.502   2.321  0.4135  0.2378 -0.2005
 1398Sol     OW 8615   0.230   2.182   2.877  0.3916 -0.7495 -0.8942
 1398Sol     HW 8616   0.166   2.155   2.943  1.6867 -0.3982  0.5355
 1398Sol     HW 8617   0.213   2.124   2.803 -1.1930 -1.0554 -0.3181
 1398Sol     MW 8618   0.223   2.174   2.876 -0.0777 -0.1845  0.5754
 1399Sol     OW 8619   1.726   3.150   6.813 -0.2940  0.1032  0.0267
 1399Sol     HW 8620   1.722   3.226   6.872  0.4842 -0.4360  0.7858
 1399Sol     HW 8621   1.770   3.083   6.865 -0.5703 -0.7193 -0.8102
 1399Sol     MW 8622   1.729   3.151   6.823  0.3802 -0.7698 -1.1291
 1400Sol     OW 8623   2.870   2.182   1.360  0.3129 -0.1771 -0.3917
 1400Sol     HW 8624   2.837   2.169   1.271  1.3113 -0.5088 -0.7110
 1400Sol     HW 8625   2.820   2.257   1.392 -0.2676 -0.2392 -1.1179
 1400Sol     MW 8626   2.862   2.188   1.355  0.5270 -0.4513  0.5037
 1401Sol     OW 8627   2.182   2.509   6.463  0.4175  0.4405 -0.5100
 1401Sol     HW 8628   2.087   2.501   6.460  0.3005  0.4048  2.1220
 1401Sol     HW 8629   2.197   2.596   6.501  1.4723  1.0714 -2.2942
 1401Sol     MW 8630   2.175   2.516   6.466 -0.3133  0.8421 -0.4603
 1402Sol     OW 8631   1.643   0.145   9.290  0.1204  0.1933  0.2089
 1402Sol     HW 8632   1.615   0.177   9.376 -1.5053 -1.7342  0.4283
 1402Sol     HW 8633   1.678   0.058   9.307  0.9971  0.3021 -0.9229
 1402Sol     MW 8634   1.644   0.140   9.299 -0.3517  0.0720 -0.5867
 1403Sol     OW 8635   2.254   0.982   1.778  0.0749  0.1279 -0.3735
 1403Sol     HW 8636   2.174   1.035   1.769  1.0511  1.5172 -1.1651
 1403Sol     HW 8637   2.304   1.003   1.699  0.9611 -1.1746 -0.1564
 1403Sol     MW 8638   2.251   0.989   1.770  0.0574 -0.0396  0.2425
 1404Sol     OW 8639   3.089   2.185   5.207 -0.8226  0.0179 -0.4823
 1404Sol     HW 8640   3.072   2.227   5.291 -0.2882 -0.9664  0.1374
 1404Sol     HW 8641   3.002   2.167   5.171 -1.0581 -0.0594  0.1214
 1404Sol     MW 8642   3.080   2.187   5.212  0.2912 -0.4784  0.3895
 1405Sol     OW 8643   2.483   1.510   4.944  0.4257  0.3557 -1.4138
 1405Sol     HW 8644   2.477   1.442   5.012  1.4835  0.3910 -1.2816
 1405Sol     HW 8645   2.397   1.509   4.903 -0.3044  0.4705  0.0618
 1405Sol     MW 8646   2.475   1.504   4.947  0.6797  0.4947 -0.9774
 1406Sol     OW 8647   1.283   1.023   4.406 -0.0063  0.1707  0.2977
 1406Sol     HW 8648   1.244   0.976   4.479  1.6594 -0.5796  0.7224
 1406Sol     HW 8649   1.213   1.079   4.373 -1.1858 -0.5518  1.5519
 1406Sol     MW 8650   1.274   1.024   4.409 -0.0513 -0.8544 -0.0684
 1407Sol     OW 8651   0.147   2.753   3.406 -0.1825 -0.0069 -0.1743
 1407Sol     HW 8652   0.150   2.688   3.476 -0.3624  1.4945  1.2684
 1407Sol     HW 8653   0.097   2.826   3.443  0.2234  1.0546 -1.6517
 1407Sol     MW 8654   0.143   2.754   3.416 -0.6698  0.1797 -0.0234
 1408Sol     OW 8655   2.047   1.164   1.826  0.0022  0.0853  0.1125
 1408Sol     HW 8656   1.982   1.106   1.864  0.8192  0.3991  2.0520
 1408Sol     HW 8657   1.997   1.235   1.786 -0.8510 -0.0684  0.9166
 1408Sol     MW 8658   2.037   1.165   1.826  0.6909 -0.9279 -1.0996
 1409Sol     OW 8659   1.482   1.684   5.462 -0.2244 -0.5470  0.4041
 1409Sol     HW 8660   1.467   1.778   5.474 -0.5372 -0.7618  1.7880
 1409Sol     HW 8661   1.576   1.672   5.473 -0.1714 -0.3855  0.1303
 1409Sol     MW 8662   1.489   1.691   5.464 -1.0665 -0.9601  0.0708
 1410Sol     OW 8663   1.161   2.064   9.827  0.2018 -0.0737  1.0331
 1410Sol     HW 8664   1.167   2.099   9.738 -1.2488 -2.0851  0.1195
 1410Sol     HW 8665   1.069   2.041   9.838  0.8444 -2.2195  2.1251
 1410Sol     MW 8666   1.153   2.065   9.820  0.4540  0.1667  1.1075
 1411Sol     OW 8667   2.079   0.257   7.853  0.2547  0.1092  0.9308
 1411Sol     HW 8668   2.077   0.294   7.764 -0.3320  0.5412  1.1231
 1411Sol     HW 8669   2.173   0.250   7.873  0.3729  1.8070  1.0235
 1411Sol     MW 8670   2.088   0.260   7.847 -0.5610  0.8237 -0.8065
 1412Sol     OW 8671   3.189   2.750   4.057  0.0227  0.4664  0.1638
 1412Sol     HW 8672   3.194   2.661   4.024 -1.7686  0.1387  0.7231
 1412Sol     HW 8673   3.164   2.741   4.149  0.3457  1.5290  0.3712
 1412Sol     MW 8674   3.187   2.742   4.062  1.0280  0.1210  0.3076
 1413Sol     OW 8675   0.391   2.913   7.219 -0.6935 -0.2751  0.1070
 1413Sol     HW 8676   0.464   2.851   7.215 -0.3818 -0.1026  2.5070
 1413Sol     HW 8677   0.430   2.997   7.198 -0.0537 -0.0993  1.8892
 1413Sol     MW 8678   0.401   2.915   7.217  0.0721 -0.3391  0.8649
 1414Sol     OW 8679   0.058   3.390  10.016  0.0853 -0.2570 -0.6006
 1414Sol     HW 8680   0.087   3.307  10.054 -0.8084  0.6111  2.0633
 1414Sol     HW 8681  -0.038   3.385  10.017  0.0314  0.6716 -0.7747
 1414Sol     MW 8682   0.052   3.382  10.019 -0.0605  0.7391  0.1591
 1415Sol     OW 8683   1.010   3.145   6.941  0.8519  0.1514 -0.4779
 1415Sol     HW 8684   0.916   3.127   6.942  0.8289  0.1438 -2.0991
 1415Sol     HW 8685   1.046   3.090   7.011 -0.5282  1.2332  1.1035
 1415Sol     MW 8686   1.005   3.138   6.948 -0.8876  0.2633  0.0788
 1416Sol     OW 8687   3.220   0.612   6.674  0.3158  0.2709  0.5451
 1416Sol     HW 8688   3.159   0.598   6.601 -0.4985  0.4262  1.1795
 1416Sol     HW 8689   3.172   0.582   6.751  1.0566  0.3835  1.0555
 1416Sol     MW 8690   3.210   0.608   6.674  0.4725  0.4711  0.4122
 1417Sol     OW 8691   2.784   1.164   8.850 -0.2478  0.1597 -0.1041
 1417Sol     HW 8692   2.861   1.198   8.896  0.6601 -0.7890 -0.8944
 1417Sol     HW 8693   2.735   1.242   8.824  0.2625  0.7589  0.7270
 1417Sol     MW 8694   2.787   1.174   8.852 -0.3254  0.7438  0.0824
 1418Sol     OW 8695   1.404   3.445   3.298 -0.3304  0.3059  0.5353
 1418Sol     HW 8696   1.481   3.446   3.242  0.7237  0.2960  1.9747
 1418Sol     HW 8697   1.411   3.525   3.350  0.5905 -1.4475  3.1995
 1418Sol     MW 8698   1.411   3.453   3.298 -0.1802 -0.8923 -0.2352
 1419Sol     OW 8699   2.079   0.767   4.076  0.3743  0.6248 -0.4322
 1419Sol     HW 8700   2.173   0.754   4.064  0.5502  0.7084  0.7729
 1419Sol     HW 8701   2.045   0.782   3.988  1.3699 -0.1920 -0.9627
 1419Sol     MW 8702   2.085   0.767   4.067 -0.1291  0.0654 -0.2349
 1420Sol     OW 8703   0.231   1.413   6.336 -0.2978 -0.1097  0.6019
 1420Sol     HW 8704   0.205   1.352   6.405  2.8909 -0.5140  1.5154
 1420Sol     HW 8705   0.260   1.356   6.264  0.8260  0.2876  0.7267
 1420Sol     MW 8706   0.231   1.402   6.335  0.4513 -0.6797 -0.2106
 1421Sol     OW 8707   3.202   1.226   3.619 -0.6745  0.0256 -0.8020
 1421Sol     HW 8708   3.244   1.141   3.606  0.6159  1.0288 -3.4569
 1421Sol     HW 8709   3.109   1.205   3.623 -0.3430 -1.5785 -0.8370
 1421Sol     MW 8710   3.197   1.216   3.618  0.3608 -0.3508 -0.0348
 1422Sol     OW 8711   1.488   1.491   6.245  0.2070 -0.0174  0.6401
 1422Sol     HW 8712   1.534   1.563   6.288  1.2711 -0.3057  0.0228
 1422Sol     HW 8713   1.493   1.419   6.308 -0.1222  0.1985  0.9136
 1422Sol     MW 8714   1.493   1.491   6.255  1.1987 -0.2146 -0.4513
 1423Sol     OW 8715   0.272   1.206   1.805  0.1677  0.0094  0.1892
 1423Sol     HW 8716   0.275   1.186   1.711  1.1634 -0.9922  0.4323
 1423Sol     HW 8717   0.358   1.242   1.824 -0.5392  1.6629  0.4215
 1423Sol     MW 8718   0.280   1.208   1.798 -0.8464 -1.1266 -0.2904
 1424Sol     OW 8719   0.177   1.140   5.044  0.2439 -0.0334 -0.5126
 1424Sol     HW 8720   0.167   1.164   5.136  0.2507  1.5183 -0.9035
 1424Sol     HW 8721   0.257   1.087   5.041  0.1671 -0.2087  0.3852
 1424Sol     MW 8722   0.183   1.137   5.052  0.6355  0.2434 -0.1058
 1425Sol     OW 8723   3.301   2.186   1.646  0.2194  0.2767 -0.2814
 1425Sol     HW 8724   3.208   2.188   1.627  0.3338  0.0166 -0.8632
 1425Sol     HW 8725   3.306   2.183   1.742 -0.3801 -1.4340 -0.3015
 1425Sol     MW 8726   3.293   2.186   1.653  0.2705  0.3847  0.0952
 1426Sol     OW 8727   2.122   1.253   2.937 -0.4137 -0.2818 -0.6393
 1426Sol     HW 8728   2.071   1.223   3.012 -0.7546 -0.4648 -0.9459
 1426Sol     HW 8729   2.133   1.175   2.883 -0.9627  0.0580 -1.2376
 1426Sol     MW 8730   2.118   1.243   2.939 -0.2485  0.9999 -0.1952
 1427Sol     OW 8731   2.648   0.193   4.501 -0.5831  0.3279  0.2574
 1427Sol     HW 8732   2.625   0.212   4.592  1.4557 -2.0999  1.3537
 1427Sol     HW 8733   2.646   0.278   4.457 -2.1847  1.4554  2.4328
 1427Sol     MW 8734   2.646   0.202   4.505  0.0451 -0.0396 -0.1155
 1428Sol     OW 8735   3.210   1.355   7.864  0.2406 -0.3906  0.5649
 1428Sol     HW 8736   3.124   1.395   7.859  0.7515  0.5732 -1.2837
 1428Sol     HW 8737   3.268   1.416   7.818  1.5626 -1.8622  0.1941
 1428Sol     MW 8738   3.208   1.364   7.859  0.4576  0.1512  0.2655
 1429Sol     OW 8739   3.076   1.143   4.201  0.3980 -0.1427  0.1281
 1429Sol     HW 8740   3.092   1.189   4.119  1.2530 -1.4068 -0.4434
 1429Sol     HW 8741   3.106   1.203   4.269 -0.3892  0.9476 -0.4711
 1429Sol     MW 8742   3.080   1.152   4.200 -0.2234 -0.0436 -0.4337
 1430Sol     OW 8743   2.234   2.168   3.138 -0.6353 -0.3153  0.2136
 1430Sol     HW 8744   2.288   2.197   3.211 -0.5849  1.9975 -0.6962
 1430Sol     HW 8745   2.296   2.148   3.068 -0.7437 -1.4827  0.4445
 1430Sol     MW 8746   2.244   2.169   3.138 -0.6629 -0.4215 -0.5392
 1431Sol     OW 8747   1.778   0.626   4.963 -0.0733  0.0939  0.0799
 1431Sol     HW 8748   1.784   0.717   4.992  1.5693 -0.4417  1.5250
 1431Sol     HW 8749   1.791   0.630   4.868  0.0779  1.3692  0.1463
 1431Sol     MW 8750   1.780   0.635   4.957  0.2158  0.5331  0.5125
 1432Sol     OW 8751   3.296   0.505   4.801  0.4407 -0.5450  0.0672
 1432Sol     HW 8752   3.222   0.535   4.747  0.9131  2.4084  1.0097
 1432Sol     HW 8753   3.301   0.568   4.873  2.5359 -1.9659  1.2224
 1432Sol     MW 8754   3.289   0.513   4.802 -0.2224  0.1744  0.2349
 1433Sol     OW 8755   1.977   1.481   9.017  0.0372  0.5684  0.2790
 1433Sol     HW 8756   1.984   1.450   9.108 -1.6549 -0.4072  0.1083
 1433Sol     HW 8757   2.065   1.510   8.995  0.8071 -0.5301  1.7626
 1433Sol     MW 8758   1.985   1.480   9.023 -0.3425 -0.2838  0.5004
 1434Sol     OW 8759   3.032   0.043   5.349  0.2006 -0.4585 -0.5265
 1434Sol     HW 8760   3.066   0.085   5.269  1.0150  2.6821  1.3892
 1434Sol     HW 8761   3.106  -0.007   5.382  1.2802  1.7563  0.5417
 1434Sol     MW 8762   3.042   0.042   5.345 -0.3930  0.1451 -0.1276
 1435Sol     OW 8763   1.212   3.161   2.029 -0.2740  0.0077  0.3728
 1435Sol     HW 8764   1.303   3.192   2.026 -0.1272 -0.5318 -1.2451
 1435Sol     HW 8765   1.182   3.166   1.938 -1.7685 -0.1158  0.8467
 1435Sol     MW 8766   1.218   3.164   2.020  1.0161  0.5586  0.2523
 1436Sol     OW 8767   1.941   0.779   3.430 -0.3814 -0.2856 -0.2048
 1436Sol     HW 8768   1.881   0.710   3.404 -0.7820 -0.7186  1.7432
 1436Sol     HW 8769   1.998   0.738   3.496  0.3656  0.8233 -0.1309
 1436Sol     MW 8770   1.941   0.770   3.434  0.2923  0.2766 -0.5368
 1437Sol     OW 8771   3.192   2.827   2.347  0.3377 -0.4869 -0.4870
 1437Sol     HW 8772   3.144   2.811   2.427 -0.6470  1.7027 -0.5825
 1437Sol     HW 8773   3.187   2.922   2.335  2.6570 -0.4889 -1.7699
 1437Sol     MW 8774   3.187   2.834   2.353 -0.3991 -0.3345  0.4959
 1438Sol     OW 8775   2.857   2.594   1.734  0.1531  0.3627 -0.1276
 1438Sol     HW 8776   2.802   2.604   1.812  1.7893  1.0448  0.9593
 1438Sol     HW 8777   2.794   2.587   1.662 -1.3682  0.8506  1.1067
 1438Sol     MW 8778   2.846   2.594   1.735  0.3537 -0.2529  0.0136
 1439Sol     OW 8779   2.574   0.262   9.221  0.3163  0.3815 -0.6741
 1439Sol     HW 8780   2.587   0.205   9.145 -1.8054 -0.1441 -0.7004
 1439Sol     HW 8781   2.661   0.277   9.256  0.9667 -2.8056 -0.7573
 1439Sol     MW 8782   2.583   0.258   9.218  0.1355  0.2677  0.4836
 1440Sol     OW 8783   2.863   1.721   5.061 -0.2468 -0.1137  0.6389
 1440Sol     HW 8784   2.942   1.758   5.021 -0.0208 -0.6466  0.5929
 1440Sol     HW 8785   2.824   1.667   4.992 -0.4251 -0.1916  0.8008
 1440Sol     MW 8786   2.867   1.720   5.051  0.2791  0.5949 -1.2290
 1441Sol     OW 8787   0.385   3.283   6.838  0.0647  0.3341 -0.1823
 1441Sol     HW 8788   0.322   3.338   6.792 -1.5686  0.1718  1.7769
 1441Sol     HW 8789   0.470   3.323   6.820 -0.8387  1.9683 -0.8997
 1441Sol     MW 8790   0.387   3.291   6.833  0.0648 -0.5434  0.0557
 1442Sol     OW 8791   0.023   0.046   6.548  0.2660 -0.5618  0.5433
 1442Sol     HW 8792  -0.027   0.065   6.469 -0.7635  1.4781  1.6312
 1442Sol     HW 8793  -0.029  -0.019   6.595 -0.8591  0.7467  1.1457
 1442Sol     MW 8794   0.014   0.042   6.545  0.5562  0.0722  0.0149
 1443Sol     OW 8795   1.518   1.337   4.958  0.2924 -0.2056  0.9301
 1443Sol     HW 8796   1.517   1.242   4.964 -0.6916 -0.4239 -2.0219
 1443Sol     HW 8797   1.454   1.358   4.890  1.7906  2.4628  0.2582
 1443Sol     MW 8798   1.512   1.331   4.952 -0.2297  0.5967 -0.8475
 1444Sol     OW 8799   1.944   3.184   8.238 -0.5582 -0.5592  0.6842
 1444Sol     HW 8800   1.958   3.164   8.330  0.6293  0.7964  0.8121
 1444Sol     HW 8801   2.030   3.173   8.197 -1.1152 -1.3419 -0.2984
 1444Sol     MW 8802   1.953   3.181   8.242 -0.0142 -0.0950  0.4536
 1445Sol     OW 8803   0.155   0.366   7.916 -0.0535  0.0744  0.1102
 1445Sol     HW 8804   0.206   0.294   7.879  1.0534  0.5530  0.6739
 1445Sol     HW 8805   0.142   0.341   8.008  2.8964  1.9173  1.1185
 1445Sol     MW 8806   0.158   0.358   7.921 -0.2331 -0.8212  0.3384
 1446Sol     OW 8807   1.210   1.363   8.434  0.3087 -0.2158 -0.1521
 1446Sol     HW 8808   1.126   1.331   8.402  1.1482 -1.7666 -0.8533
 1446Sol     HW 8809   1.256   1.395   8.356  0.7050 -0.1392  0.1095
 1446Sol     MW 8810   1.207   1.363   8.424  0.8300 -0.0660 -0.3740
 1447Sol     OW 8811   3.140   0.740   5.450  0.1016 -0.4761  0.2579
 1447Sol     HW 8812   3.120   0.783   5.367  2.5437  0.7403  0.2727
 1447Sol     HW 8813   3.196   0.802   5.497  1.3144 -2.4509  1.5141
 1447Sol     MW 8814   3.143   0.749   5.447 -0.1581  1.0048  0.3548
 1448Sol     OW 8815   2.546   0.559   5.486 -0.2613 -0.0686  0.3998
 1448Sol     HW 8816   2.617   0.502   5.455 -0.7358 -1.8446  2.4936
 1448Sol     HW 8817   2.587   0.614   5.552 -0.6497 -0.5965  1.0885
 1448Sol     MW 8818   2.556   0.559   5.489 -0.0943 -0.8023 -0.3059
 1449Sol     OW 8819   2.527   1.104   6.583  0.0399  0.1326  0.1140
 1449Sol     HW 8820   2.478   1.076   6.506  1.3910 -0.6480 -0.4772
 1449Sol     HW 8821   2.576   1.027   6.610  0.4843  0.7328  1.0565
 1449Sol     MW 8822   2.527   1.095   6.578  0.6092 -0.3172  0.2467
 1450Sol     OW 8823   0.191   0.198   3.785 -0.5394  0.2984 -0.2242
 1450Sol     HW 8824   0.164   0.166   3.699  0.7671  0.3600 -0.6730
 1450Sol     HW 8825   0.254   0.268   3.766  0.0586  0.0486  0.7717
 1450Sol     MW 8826   0.194   0.201   3.775 -0.0415  0.7625 -0.3637
 1451Sol     OW 8827   2.950   0.082   4.438  0.2733 -0.3186 -0.3025
 1451Sol     HW 8828   2.858   0.106   4.432  0.2713 -0.4054 -0.6222
 1451Sol     HW 8829   2.998   0.161   4.413  0.3014 -0.0664  0.5140
 1451Sol     MW 8830   2.946   0.091   4.435  0.0670  1.1782 -0.9569
 1452Sol     OW 8831   0.968   0.403   3.185 -0.2885  0.2996 -0.0541
 1452Sol     HW 8832   0.948   0.453   3.264  0.0113 -0.0576  0.2511
 1452Sol     HW 8833   1.047   0.444   3.150  0.5330 -0.5755  0.7423
 1452Sol     MW 8834   0.974   0.411   3.189 -1.3672  0.1776 -0.1768
 1453Sol     OW 8835   2.643   3.175   3.916 -0.2982 -0.2474  0.1619
 1453Sol     HW 8836   2.661   3.251   3.972 -1.5882  0.6809 -0.6622
 1453Sol     HW 8837   2.566   3.200   3.865 -0.6966 -2.0819 -0.1837
 1453Sol     MW 8838   2.638   3.184   3.917 -0.5392 -0.0629 -1.0480
 1454Sol     OW 8839   1.480   1.372   5.245 -0.1230 -0.0176 -0.0169
 1454Sol     HW 8840   1.481   1.351   5.151  0.0261 -1.7304  0.3548
 1454Sol     HW 8841   1.498   1.289   5.288 -0.2100  0.7625  1.5437
 1454Sol     MW 8842   1.482   1.363   5.240 -0.2471  0.6900  0.2865
 1455Sol     OW 8843   1.957   0.005   2.844  0.3025  0.3589 -0.1500
 1455Sol     HW 8844   2.031   0.046   2.889 -0.0498 -0.1291  0.8867
 1455Sol     HW 8845   1.897   0.078   2.826 -0.1817  0.3621  1.4048
 1455Sol     MW 8846   1.958   0.016   2.846 -0.7915  0.1959 -0.3680
 1456Sol     OW 8847   0.877   0.143   9.265 -0.0118  0.8458 -0.2825
 1456Sol     HW 8848   0.887   0.234   9.294  0.3741  0.1127  1.9933
 1456Sol     HW 8849   0.880   0.092   9.346  1.0641 -1.3074 -1.6465
 1456Sol     MW 8850   0.878   0.147   9.275 -0.9501  0.1913  0.2644
 1457Sol     OW 8851   2.820   1.684   5.340  0.6927  0.7242 -0.0792
 1457Sol     HW 8852   2.852   1.725   5.260  1.3503 -1.5041 -1.0015
 1457Sol     HW 8853   2.745   1.632   5.312 -0.4290  1.6377  1.1515
 1457Sol     MW 8854   2.816   1.683   5.331  0.6739  0.2280  0.6233
 1458Sol     OW 8855   1.231   1.329   9.489  0.0775  0.1749 -0.5171
 1458Sol     HW 8856   1.246   1.235   9.502 -0.0882  0.0878 -0.9350
 1458Sol     HW 8857   1.267   1.347   9.402  1.8363  0.8960  0.3288
 1458Sol     MW 8858   1.236   1.322   9.482  0.0887 -0.5933 -0.0614
 1459Sol     OW 8859   2.909   0.440   8.547 -0.0772  0.2312  0.4824
 1459Sol     HW 8860   2.903   0.477   8.459  0.0811  0.2691  0.4849
 1459Sol     HW 8861   2.974   0.496   8.591  0.1047 -0.0028  0.5121
 1459Sol     MW 8862   2.915   0.449   8.543  0.2082  0.2013  0.5183
 1460Sol     OW 8863   2.066   1.824   1.725 -0.0716 -0.0717 -0.8295
 1460Sol     HW 8864   1.990   1.815   1.668 -0.5179  1.0821 -0.4160
 1460Sol     HW 8865   2.140   1.829   1.664 -0.4523  0.2016 -1.2740
 1460Sol     MW 8866   2.066   1.824   1.714 -0.5965  0.4247  0.0332
 1461Sol     OW 8867   1.399   2.426   7.813  0.3963 -0.0172 -0.2750
 1461Sol     HW 8868   1.311   2.396   7.790  0.4054 -0.8648  0.7851
 1461Sol     HW 8869   1.403   2.515   7.776 -0.9645  0.1058 -0.1761
 1461Sol     MW 8870   1.391   2.432   7.807  0.6403  0.0833 -0.1658
 1462Sol     OW 8871   0.195   2.764   5.073 -0.5122 -0.0057  0.2951
 1462Sol     HW 8872   0.154   2.751   5.159 -1.2356  0.1201 -0.0294
 1462Sol     HW 8873   0.122   2.758   5.011 -0.3230  1.9934 -0.1502
 1462Sol     MW 8874   0.185   2.762   5.075 -0.7464 -0.3859 -0.5063
 1463Sol     OW 8875   0.627   0.962   6.279 -0.6187  0.2986  0.5823
 1463Sol     HW 8876   0.676   0.922   6.351 -0.5311 -0.2815  0.2003
 1463Sol     HW 8877   0.615   1.053   6.307 -0.2233  0.1854  1.1439
 1463Sol     MW 8878   0.631   0.967   6.288  0.2932  0.6030  1.3476
 1464Sol     OW 8879   2.738   0.457   2.620  0.4705  0.4412 -0.0907
 1464Sol     HW 8880   2.819   0.468   2.671  0.1546  0.0192  0.5097
 1464Sol     HW 8881   2.765   0.408   2.542  0.9958  1.2701 -0.4318
 1464Sol     MW 8882   2.748   0.453   2.618 -0.6704  0.4938 -0.0484
 1465Sol     OW 8883   0.898   3.148   8.589 -0.2725 -0.6672  0.4079
 1465Sol     HW 8884   0.921   3.227   8.638 -1.2451 -0.7293  0.9657
 1465Sol     HW 8885   0.959   3.082   8.621  2.0036  0.3531 -1.5972
 1465Sol     MW 8886   0.906   3.149   8.596  0.0545  0.0111 -0.0445
 1466Sol     OW 8887   1.789   3.224   9.789 -0.3886  0.0301  0.4398
 1466Sol     HW 8888   1.800   3.295   9.726  0.5744 -1.8080 -1.5555
 1466Sol     HW 8889   1.705   3.185   9.767 -0.4282 -0.1028  0.8289
 1466Sol     MW 8890   1.783   3.227   9.782 -0.4114  0.7312 -0.9024
 1467Sol     OW 8891   2.848   1.697   4.034  0.0315  0.1678  0.2426
 1467Sol     HW 8892   2.796   1.633   4.082  0.1734  0.6554  1.0529
 1467Sol     HW 8893   2.805   1.781   4.052  1.0564  0.5674  0.8572
 1467Sol     MW 8894   2.839   1.699   4.040 -0.3356  0.2515  0.7940
 1468Sol     OW 8895   3.181   3.224   5.669 -0.4226 -0.1124  0.1391
 1468Sol     HW 8896   3.107   3.272   5.707 -0.8974  0.6830 -1.7010
 1468Sol     HW 8897   3.228   3.290   5.617  0.2818 -1.1235 -0.5218
 1468Sol     MW 8898   3.178   3.235   5.667  0.9913  0.1441  0.5456
 1469Sol     OW 8899   0.788   2.491   3.293  0.4493  0.2484  0.0300
 1469Sol     HW 8900   0.773   2.557   3.225  0.4541 -0.7104 -0.9087
 1469Sol     HW 8901   0.803   2.409   3.245  2.9009  0.0231  1.1121
 1469Sol     MW 8902   0.788   2.489   3.283  0.6081  0.4332  0.7650
 1470Sol     OW 8903   0.804   2.684   3.103 -0.3711 -0.0293 -0.8162
 1470Sol     HW 8904   0.799   2.664   3.010 -2.5204 -1.1326 -0.5014
 1470Sol     HW 8905   0.813   2.779   3.108 -2.6873  0.2859 -2.1173
 1470Sol     MW 8906   0.804   2.691   3.095 -0.9166  0.0102 -0.1286
 1471Sol     OW 8907   3.080   1.091   3.219  0.2316  0.3323 -0.3578
 1471Sol     HW 8908   3.045   1.068   3.133 -0.1505  0.9988 -0.3807
 1471Sol     HW 8909   3.156   1.034   3.230 -0.7521 -1.0100 -0.3840
 1471Sol     MW 8910   3.084   1.084   3.213  0.1292  0.1489 -0.5845
 1472Sol     OW 8911   2.461   2.977   8.673 -0.4922 -0.6477 -0.4107
 1472Sol     HW 8912   2.478   2.993   8.580 -1.0319 -0.7651 -0.5282
 1472Sol     HW 8913   2.537   3.016   8.718 -0.7310  0.3178 -0.8272
 1472Sol     MW 8914   2.470   2.982   8.669  0.3331 -0.4431  0.8050
 1473Sol     OW 8915   1.538   3.266   8.954 -0.3267  0.5355 -0.0424
 1473Sol     HW 8916   1.461   3.215   8.930 -1.0741  1.9723 -0.7685
 1473Sol     HW 8917   1.504   3.337   9.009  0.6544  0.4379  0.7012
 1473Sol     MW 8918   1.528   3.268   8.957  0.4168  0.4306 -0.2996
 1474Sol     OW 8919   0.116   2.165   1.923  0.8063 -0.0803  0.3079
 1474Sol     HW 8920   0.161   2.173   2.007  2.4838  1.8839 -0.7543
 1474Sol     HW 8921   0.118   2.071   1.904  4.0669 -0.1019  0.5223
 1474Sol     MW 8922   0.120   2.157   1.929 -0.0238  1.0051  0.2654
 1475Sol     OW 8923   1.769   0.582   4.209  0.0355  0.1445  0.8010
 1475Sol     HW 8924   1.702   0.514   4.212 -1.2386  1.2932 -0.6830
 1475Sol     HW 8925   1.845   0.541   4.167 -0.0302 -0.9074  1.7069
 1475Sol     MW 8926   1.770   0.573   4.206  0.0226  0.7595 -0.2397
 1476Sol     OW 8927   1.884   3.031   9.177  0.3311 -0.1303  0.0227
 1476Sol     HW 8928   1.907   3.124   9.172  0.5106 -0.0697  1.7516
 1476Sol     HW 8929   1.788   3.031   9.178  0.3227 -0.0017 -0.5495
 1476Sol     MW 8930   1.877   3.040   9.176 -0.2764 -0.6305 -1.1011
 1477Sol     OW 8931   1.365   1.601   2.318  0.2843 -0.0654  0.3039
 1477Sol     HW 8932   1.371   1.564   2.230  2.9369 -1.4808  1.0336
 1477Sol     HW 8933   1.306   1.676   2.308  0.7565 -0.0287 -2.7159
 1477Sol     MW 8934   1.360   1.604   2.309  0.0020 -0.2534 -0.2149
 1478Sol     OW 8935   0.629   1.503   7.408 -0.3134 -0.2896 -0.3252
 1478Sol     HW 8936   0.620   1.594   7.378  3.1203  0.1676 -0.0850
 1478Sol     HW 8937   0.601   1.451   7.333 -1.3153  0.9440 -0.8364
 1478Sol     MW 8938   0.625   1.507   7.398 -0.3321 -0.1424  0.5167
 1479Sol     OW 8939   1.482   1.730   8.046 -0.3644  0.2140 -0.1659
 1479Sol     HW 8940   1.420   1.788   8.091  0.9111  1.5028  0.0026
 1479Sol     HW 8941   1.526   1.683   8.117 -0.0635  0.4620 -0.1835
 1479Sol     MW 8942   1.480   1.731   8.056  0.3164  0.5304 -0.0180
 1480Sol     OW 8943   2.422   3.404   8.584 -0.1868 -0.7501  0.6053
 1480Sol     HW 8944   2.366   3.475   8.615  2.6534  1.9905 -0.2016
 1480Sol     HW 8945   2.470   3.375   8.662  0.2752 -0.2023  0.5303
 1480Sol     MW 8946   2.422   3.408   8.594  0.0342  0.5031 -0.7337
 1481Sol     OW 8947   1.063   2.017   3.560  0.4997 -0.2733  0.2280
 1481Sol     HW 8948   1.023   2.098   3.594  0.4506 -0.7705  1.3742
 1481Sol     HW 8949   0.996   1.980   3.503  0.8733  0.9624 -1.0271
 1481Sol     MW 8950   1.053   2.021   3.558  0.7707 -0.2862  0.1038
 1482Sol     OW 8951   1.109   2.232   2.266 -0.4626 -0.0031 -0.2449
 1482Sol     HW 8952   1.172   2.160   2.272 -0.6568 -0.2189 -0.8332
 1482Sol     HW 8953   1.028   2.191   2.235 -0.1358  0.7225 -2.1091
 1482Sol     MW 8954   1.107   2.222   2.264  0.1530  0.0367 -0.0881
 1483Sol     OW 8955   0.022   1.922   4.247 -0.4327  0.8128 -0.0953
 1483Sol     HW 8956   0.073   1.862   4.191  0.3217  1.8168 -0.5005
 1483Sol     HW 8957   0.088   1.965   4.301 -0.8188  2.2728 -0.7660
 1483Sol     MW 8958   0.033   1.920   4.247  0.5540  0.9236 -0.7595
 1484Sol     OW 8959   1.036   2.375   5.288 -0.2817  0.2150 -0.3163
 1484Sol     HW 8960   1.095   2.448   5.267 -0.1346  0.1047 -0.2908
 1484Sol     HW 8961   0.948   2.411   5.278 -0.2078  0.4348 -0.1687
 1484Sol     MW 8962   1.034   2.385   5.285  0.2284 -0.4204 -0.3068
 1485Sol     OW 8963   0.502   0.397   6.753  0.0701  0.0854  0.2125
 1485Sol     HW 8964   0.526   0.348   6.831 -0.1373 -0.8236 -0.2964
 1485Sol     HW 8965   0.580   0.447   6.730  0.4553 -0.4455  0.3880
 1485Sol     MW 8966   0.511   0.397   6.758 -1.3887  0.0548  0.5543
 1486Sol     OW 8967   0.233   0.949   9.401 -0.1479 -0.5414  0.1948
 1486Sol     HW 8968   0.273   1.036   9.401 -0.1047 -0.5497 -2.0794
 1486Sol     HW 8969   0.150   0.960   9.355  0.3270 -1.8973 -1.0132
 1486Sol     MW 8970   0.229   0.958   9.397 -0.6150 -0.4791  0.4183
 1487Sol     OW 8971   0.739   2.631   2.015 -0.1651  0.0103 -0.0623
 1487Sol     HW 8972   0.710   2.670   2.098  0.2648 -2.2793  1.2171
 1487Sol     HW 8973   0.720   2.538   2.025 -0.1087 -0.2885 -2.5664
 1487Sol     MW 8974   0.735   2.626   2.024  0.0323 -0.1807 -0.1850
 1488Sol     OW 8975   2.155   1.159   9.168  0.5814  0.8158  0.4313
 1488Sol     HW 8976   2.116   1.104   9.235  0.8207 -0.5927 -0.5594
 1488Sol     HW 8977   2.084   1.176   9.106  1.3662 -1.3867 -1.1417
 1488Sol     MW 8978   2.145   1.156   9.168 -0.8350  0.5256  1.0108
 1489Sol     OW 8979   0.465   2.258   7.458  0.2124 -0.3690  0.1050
 1489Sol     HW 8980   0.375   2.288   7.448  0.2151 -0.5165 -0.3982
 1489Sol     HW 8981   0.495   2.296   7.540  0.6060  2.0005 -1.1078
 1489Sol     MW 8982   0.460   2.264   7.464 -0.5718 -0.5583 -0.0221
 1490Sol     OW 8983   2.971   2.404   7.404 -0.2361 -0.5546  0.6264
 1490Sol     HW 8984   3.016   2.483   7.437  1.2239 -0.4042 -1.6242
 1490Sol     HW 8985   3.026   2.331   7.435  1.1026 -0.4161 -1.3126
 1490Sol     MW 8986   2.980   2.405   7.410 -0.0456  1.0585 -0.2011
 1491Sol     OW 8987   2.667   3.083   1.571  0.1799 -0.6699  0.4007
 1491Sol     HW 8988   2.710   3.168   1.578 -0.0903 -0.4997  0.0073
 1491Sol     HW 8989   2.632   3.067   1.659 -0.2640 -0.1098  0.3262
 1491Sol     MW 8990   2.668   3.089   1.579 -0.2020 -0.0027 -0.8500
 1492Sol     OW 8991   0.804   1.980   7.282  0.4728 -0.3462  0.6288
 1492Sol     HW 8992   0.759   2.025   7.210  1.5993 -0.1907  0.0077
 1492Sol     HW 8993   0.776   2.026   7.361 -1.1924 -0.8510  0.3576
 1492Sol     MW 8994   0.797   1.988   7.282 -0.8028  0.3689  0.7053
 1493Sol     OW 8995   0.570   1.820   8.123  0.1236  0.0830  0.0938
 1493Sol     HW 8996   0.502   1.887   8.126 -0.8178 -0.7967 -1.4802
 1493Sol     HW 8997   0.647   1.864   8.161 -0.3807  2.1776 -1.2047
 1493Sol     MW 8998   0.571   1.830   8.127  0.5351 -0.3324 -0.2643
 1494Sol     OW 8999   1.805   2.693   4.877  0.9302  0.4133  0.1594
 1494Sol     HW 9000   1.772   2.626   4.938  0.8935  0.4569  0.1874
 1494Sol     HW 9001   1.735   2.758   4.874  0.0209 -0.5992 -1.5021
 1494Sol     MW 9002   1.795   2.693   4.882  0.3523 -0.5836  0.4306
 1495Sol     OW 9003   0.534   0.198   8.179 -0.0416  0.2993 -0.0957
 1495Sol     HW 9004   0.571   0.244   8.254  2.8530 -0.2129 -1.1717
 1495Sol     HW 9005   0.567   0.109   8.187 -1.2912 -0.2570 -0.9477
 1495Sol     MW 9006   0.540   0.194   8.187 -0.4737 -0.1818 -0.5889
 1496Sol     OW 9007   1.640   1.390   7.551 -0.1878  0.4568  0.2989
 1496Sol     HW 9008   1.594   1.308   7.566  0.1407  0.2737  0.3042
 1496Sol     HW 9009   1.720   1.365   7.505 -0.7656  0.9183 -0.9684
 1496Sol     MW 9010   1.643   1.381   7.548 -0.2803 -0.6861 -0.9586
 1497Sol     OW 9011   2.993   3.122   5.492  0.1561  0.4128 -0.0909
 1497Sol     HW 9012   3.054   3.127   5.566 -1.1410 -0.9351  1.1104
 1497Sol     HW 9013   2.958   3.210   5.483 -0.4625  0.3476  1.5863
 1497Sol     MW 9014   2.996   3.130   5.498  0.3154  0.3261 -0.0682
 1498Sol     OW 9015   0.128   1.062   1.977  0.1525 -0.1305  0.1290
 1498Sol     HW 9016   0.170   0.976   1.979 -0.7773 -0.6205 -0.8691
 1498Sol     HW 9017   0.175   1.110   1.909 -0.2019 -0.3120 -0.2451
 1498Sol     MW 9018   0.136   1.059   1.971 -0.3837 -0.4146  0.0976
 1499Sol     OW 9019   1.327   3.331   6.095  0.5210  0.0723 -0.1272
 1499Sol     HW 9020   1.317   3.237   6.082  1.4245  0.2828 -2.5917
 1499Sol     HW 9021   1.373   3.339   6.179  2.5488 -1.7921 -0.9950
 1499Sol     MW 9022   1.330   3.324   6.102  0.1304  0.8118  0.3033
 1500Sol     OW 9023   1.723   0.229   9.726 -0.0855  0.4064  0.0736
 1500Sol     HW 9024   1.791   0.243   9.792 -1.5725  1.5446  1.3952
 1500Sol     HW 9025   1.733   0.137   9.702  1.9477  0.5588  0.2006
 1500Sol     MW 9026   1.730   0.222   9.730 -0.0425  0.1479  0.2548
 1501Sol     OW 9027   1.511   2.387   2.492 -0.0559 -0.3127  0.4473
 1501Sol     HW 9028   1.547   2.406   2.406  0.7748 -0.2088  0.8165
 1501Sol     HW 9029   1.416   2.378   2.477 -0.0053  0.4235 -0.3475
 1501Sol     MW 9030   1.505   2.388   2.483 -0.0597  0.0494  0.1632
 1502Sol     OW 9031   2.687   0.957   4.491 -0.3149  0.5893  1.0116
 1502Sol     HW 9032   2.701   0.878   4.440  1.0387  2.4949 -1.6901
 1502Sol     HW 9033   2.712   0.934   4.580 -0.4402 -2.1350  0.3673
 1502Sol     MW 9034   2.690   0.948   4.494  0.1152 -0.6609  0.1767
 1503Sol     OW 9035   0.394   1.347   6.968  0.6178 -0.1165 -0.2198
 1503Sol     HW 9036   0.312   1.396   6.969  0.1854 -0.8265 -0.2125
 1503Sol     HW 9037   0.447   1.385   7.039 -0.3154 -0.6901  0.7890
 1503Sol     MW 9038   0.392   1.355   6.974  1.1036  0.4740  0.2807
 1504Sol     OW 9039   2.380   0.957   5.275 -0.5922 -0.1061  0.0532
 1504Sol     HW 9040   2.286   0.940   5.281 -0.4278 -0.1637  3.3118
 1504Sol     HW 9041   2.419   0.870   5.270 -0.6360 -0.1475  0.3896
 1504Sol     MW 9042   2.375   0.948   5.275  0.2353  0.0871  0.1898
 1505Sol     OW 9043   1.845   1.427   7.273  0.1732  0.1399 -0.1239
 1505Sol     HW 9044   1.842   1.520   7.250 -0.3708  0.3652  0.8532
 1505Sol     HW 9045   1.822   1.381   7.192  1.9447  0.7856 -1.0391
 1505Sol     MW 9046   1.843   1.431   7.264  1.2291  0.4164 -1.0080
 1506Sol     OW 9047   2.908   0.479   5.308  0.0580 -0.5050  0.2289
 1506Sol     HW 9048   2.971   0.549   5.290 -1.2979  1.3309  2.3686
 1506Sol     HW 9049   2.956   0.418   5.364 -0.4944  1.7492  3.2902
 1506Sol     MW 9050   2.918   0.480   5.312  0.1146  0.7398  0.1675
 1507Sol     OW 9051   2.924   2.584   8.408 -0.1030 -0.0346  0.1855
 1507Sol     HW 9052   2.882   2.670   8.418 -0.7687 -0.5124  1.5470
 1507Sol     HW 9053   2.925   2.569   8.313 -2.7893  0.1054  0.1043
 1507Sol     MW 9054   2.921   2.591   8.400 -0.1536  0.6547  0.2229
 1508Sol     OW 9055   2.831   2.001   3.003  0.6080 -0.1076  0.0501
 1508Sol     HW 9056   2.775   1.963   3.071  1.2650 -0.4362  0.4177
 1508Sol     HW 9057   2.830   1.936   2.933  0.9339 -0.3485  0.2675
 1508Sol     MW 9058   2.826   1.991   3.003 -0.1478 -0.3784  0.1445
 1509Sol     OW 9059   1.191   2.602   4.868  0.0917  0.2530  0.5862
 1509Sol     HW 9060   1.220   2.673   4.811 -2.0100  1.6259  1.1961
 1509Sol     HW 9061   1.146   2.646   4.940 -1.0134 -1.6863  1.1139
 1509Sol     MW 9062   1.190   2.612   4.869  0.1202 -0.7262  0.2496
 1510Sol     OW 9063   1.750   2.541   5.459  0.4306 -0.1290 -0.0465
 1510Sol     HW 9064   1.724   2.620   5.412 -0.6084  0.5997  1.6984
 1510Sol     HW 9065   1.687   2.474   5.430 -0.7848  0.5514  0.9630
 1510Sol     MW 9066   1.742   2.542   5.453  0.1082  0.6856  0.0218
 1511Sol     OW 9067   2.627   2.163   2.730  0.2825  0.0655  0.0754
 1511Sol     HW 9068   2.629   2.197   2.641 -0.3610  0.8878  0.3676
 1511Sol     HW 9069   2.709   2.193   2.770  1.1177 -1.2908 -0.5870
 1511Sol     MW 9070   2.634   2.168   2.726 -0.4093  0.9650  0.1580
 1512Sol     OW 9071   2.932   2.354   6.719 -0.2138 -0.2854 -0.1101
 1512Sol     HW 9072   2.943   2.438   6.765  1.1685 -1.6769  2.2047
 1512Sol     HW 9073   2.999   2.356   6.651  0.2986  0.2091  0.3960
 1512Sol     MW 9074   2.939   2.362   6.717  0.0779  0.3181 -0.4461
 1513Sol     OW 9075   2.061   1.560   2.514 -0.2048 -0.3460  0.1301
 1513Sol     HW 9076   2.050   1.559   2.419 -2.5425 -0.9470  0.3831
 1513Sol     HW 9077   2.022   1.642   2.543  1.0822  0.1352  0.5098
 1513Sol     MW 9078   2.057   1.567   2.508  0.0236 -0.9891 -0.1287
 1514Sol     OW 9079   2.472   3.016   4.891  0.2098 -0.1469 -0.4154
 1514Sol     HW 9080   2.491   2.944   4.831 -1.2164  0.0689 -1.1248
 1514Sol     HW 9081   2.513   2.989   4.974  1.6357 -0.7324 -1.2848
 1514Sol     MW 9082   2.478   3.007   4.893  0.3541 -0.6247  0.4761
 1515Sol     OW 9083   2.406   1.767   6.562 -0.1011  0.0934  0.1566
 1515Sol     HW 9084   2.462   1.830   6.608 -0.3421 -0.5319  1.3318
 1515Sol     HW 9085   2.322   1.812   6.552 -0.1699  0.0870  0.6938
 1515Sol     MW 9086   2.403   1.776   6.565 -0.4310  0.6416  0.5573
 1516Sol     OW 9087   2.832   1.021   6.518  0.1309  0.3042 -0.2616
 1516Sol     HW 9088   2.829   1.081   6.444  0.2388  0.9915  0.2870
 1516Sol     HW 9089   2.897   1.059   6.578  1.2148 -1.0828 -0.5361
 1516Sol     MW 9090   2.837   1.029   6.517 -0.7671 -0.0685  0.1879
 1517Sol     OW 9091   0.480   3.379   8.259  0.0294 -0.4938  0.1837
 1517Sol     HW 9092   0.476   3.292   8.218  1.4275 -0.8517  0.7874
 1517Sol     HW 9093   0.573   3.396   8.269 -0.2126  1.5203 -0.8347
 1517Sol     MW 9094   0.488   3.372   8.256 -0.4556  0.2174 -0.2003
 1518Sol     OW 9095   0.602   2.322   4.023  0.5727  0.6120  0.0277
 1518Sol     HW 9096   0.619   2.228   4.011 -1.1357  0.3396 -0.3725
 1518Sol     HW 9097   0.570   2.351   3.937  1.4837  1.6592  0.0318
 1518Sol     MW 9098   0.601   2.316   4.014 -0.7889  0.0713  0.2577
 1519Sol     OW 9099   2.810   2.059   8.271 -0.7843 -0.2483  0.2378
 1519Sol     HW 9100   2.822   2.069   8.176 -0.0089 -1.4159  0.1963
 1519Sol     HW 9101   2.767   1.974   8.280 -2.5967  0.7212  0.8311
 1519Sol     MW 9102   2.807   2.052   8.263  0.5481 -0.1977  0.0727
 1520Sol     OW 9103   0.405   1.671   3.328  0.1996  0.5458 -0.2964
 1520Sol     HW 9104   0.418   1.704   3.239 -1.9685  0.8619 -0.5219
 1520Sol     HW 9105   0.405   1.750   3.383  0.0745  0.4861 -0.2098
 1520Sol     MW 9106   0.406   1.681   3.325  0.5643  0.2773  0.1016
 1521Sol     OW 9107   0.545   1.983   4.146  0.4781  1.0110  0.3034
 1521Sol     HW 9108   0.481   2.009   4.212 -2.0158 -1.5885 -1.0307
 1521Sol     HW 9109   0.521   2.032   4.068 -0.0198 -0.1251 -0.2617
 1521Sol     MW 9110   0.537   1.990   4.145 -0.6429  0.3884  0.5925
 1522Sol     OW 9111   1.493   0.283   4.386  0.2503 -0.1652 -0.1391
 1522Sol     HW 9112   1.566   0.221   4.398 -0.3020 -0.6349  0.7902
 1522Sol     HW 9113   1.508   0.319   4.298  2.0064  0.2733  0.3161
 1522Sol     MW 9114   1.501   0.280   4.379 -0.2849 -0.2615  0.1122
 1523Sol     OW 9115   0.935   2.533   4.598  0.1573  0.1854  0.5466
 1523Sol     HW 9116   0.962   2.543   4.507  0.6576 -2.0367  0.4299
 1523Sol     HW 9117   0.959   2.617   4.639 -1.3087  1.7210 -1.6250
 1523Sol     MW 9118   0.939   2.542   4.594 -0.3338 -0.1717 -1.1899
 1524Sol     OW 9119   1.675   2.060   6.978  0.4257 -0.0122 -0.1661
 1524Sol     HW 9120   1.704   2.110   6.901 -2.7562 -0.8758 -2.0032
 1524Sol     HW 9121   1.621   1.990   6.942 -3.4209  1.1456  3.0015
 1524Sol     MW 9122   1.673   2.059   6.967  0.0271 -0.1885 -0.0059
 1525Sol     OW 9123   2.206   0.965   8.892 -1.0856 -0.0494  0.6722
 1525Sol     HW 9124   2.272   1.029   8.921  0.5854 -0.9563 -0.9962
 1525Sol     HW 9125   2.122   1.006   8.914 -0.0112  1.7688  1.5607
 1525Sol     MW 9126   2.204   0.974   8.897 -0.4341 -1.1045 -0.1713
 1526Sol     OW 9127   2.389   1.037   2.715  0.7193  0.1038  0.3627
 1526Sol     HW 9128   2.318   1.089   2.676  1.6416  0.7719 -0.4753
 1526Sol     HW 9129   2.356   1.012   2.801 -0.8077 -0.1795 -0.2848
 1526Sol     MW 9130   2.379   1.040   2.719  0.4613 -0.2031 -0.7919
 1527Sol     OW 9131   0.817   3.253   3.635 -0.1685 -0.0968 -0.1946
 1527Sol     HW 9132   0.851   3.334   3.675 -1.9688  2.0967 -2.9247
 1527Sol     HW 9133   0.893   3.196   3.629  1.0676  1.2174  2.1885
 1527Sol     MW 9134   0.827   3.255   3.638  0.1999  1.0170 -1.4140
 1528Sol     OW 9135   0.597   0.857   9.192 -0.5939 -0.0819  0.0236
 1528Sol     HW 9136   0.645   0.822   9.267 -0.1122  1.6131  0.5134
 1528Sol     HW 9137   0.511   0.815   9.197 -0.9490  0.8462  2.1783
 1528Sol     MW 9138   0.594   0.850   9.199 -0.3858 -0.2718 -0.3484
 1529Sol     OW 9139   2.494   0.177   9.773  0.0621  0.1432 -0.0667
 1529Sol     HW 9140   2.565   0.189   9.835  0.9236  0.4569 -1.1073
 1529Sol     HW 9141   2.464   0.087   9.789 -1.2963  0.9975  2.3985
 1529Sol     MW 9142   2.498   0.170   9.780 -0.1835  0.3686 -0.8021
 1530Sol     OW 9143   1.556   3.367   5.905  0.1857  0.4501 -0.3284
 1530Sol     HW 9144   1.477   3.360   5.959 -0.3197 -0.4635 -1.1622
 1530Sol     HW 9145   1.599   3.447   5.936 -0.6244  0.5045  0.7108
 1530Sol     MW 9146   1.552   3.373   5.913  0.3515  0.2285 -0.3132
 1531Sol     OW 9147   2.519   1.653   9.464  0.2382 -0.0245  0.0844
 1531Sol     HW 9148   2.556   1.579   9.417 -1.0786 -0.9586  0.4909
 1531Sol     HW 9149   2.424   1.646   9.450 -0.0182  0.7174  1.3528
 1531Sol     MW 9150   2.513   1.646   9.459 -0.2316  0.1890  0.0260
 1532Sol     OW 9151   0.951   1.779   5.919 -0.3162 -0.4078  0.1478
 1532Sol     HW 9152   0.938   1.721   5.843  1.5596 -1.5256  0.6568
 1532Sol     HW 9153   0.972   1.719   5.991  0.1859  0.8116  1.0176
 1532Sol     MW 9154   0.952   1.768   5.918  0.2707  0.0535 -0.1288
 1533Sol     OW 9155   0.299   1.188   9.737  0.0769 -0.0372 -0.1131
 1533Sol     HW 9156   0.211   1.160   9.761 -0.0994 -0.0728 -0.7916
 1533Sol     HW 9157   0.299   1.282   9.752 -0.8601  0.3744 -2.4226
 1533Sol     MW 9158   0.291   1.194   9.741  0.4720 -1.0111 -0.0495
 1534Sol     OW 9159   2.595   0.591   9.451  0.0833  0.5688 -0.2962
 1534Sol     HW 9160   2.563   0.503   9.472  1.2555  0.1262 -0.3506
 1534Sol     HW 9161   2.619   0.586   9.359  0.2564  0.9163 -0.2701
 1534Sol     MW 9162   2.594   0.583   9.445 -0.3467 -0.4882  0.8486
 1535Sol     OW 9163   2.688   1.579   2.869  0.2356 -0.2088  0.5194
 1535Sol     HW 9164   2.752   1.584   2.940 -1.4275 -2.9023  2.3397
 1535Sol     HW 9165   2.740   1.572   2.789  2.2154 -1.2337  1.8632
 1535Sol     MW 9166   2.698   1.579   2.868  0.3416  0.8855  0.0146
 1536Sol     OW 9167   2.687   0.019   6.661 -0.1413 -0.1929 -0.5123
 1536Sol     HW 9168   2.669  -0.002   6.569 -1.0437  0.0685 -0.3957
 1536Sol     HW 9169   2.750   0.091   6.657  0.2583 -0.5614 -0.9227
 1536Sol     MW 9170   2.691   0.023   6.652  2.0513 -0.2677 -0.0035
 1537Sol     OW 9171   0.428   0.546   8.801 -0.4548 -0.1724  0.6360
 1537Sol     HW 9172   0.438   0.610   8.731 -0.4741 -0.9962 -0.1151
 1537Sol     HW 9173   0.346   0.570   8.844  0.9417  2.0942  2.2081
 1537Sol     MW 9174   0.422   0.554   8.799  0.6739  0.0992 -0.8737
 1538Sol     OW 9175   1.350   0.362   9.789 -0.3170 -0.3250  0.8889
 1538Sol     HW 9176   1.392   0.302   9.852 -0.3269  0.7350  1.9329
 1538Sol     HW 9177   1.326   0.438   9.842 -1.5183  0.0318 -0.1652
 1538Sol     MW 9178   1.352   0.364   9.800 -0.6821  0.2989 -0.6561
 1539Sol     OW 9179   0.336   1.214   9.464 -0.7900 -0.3051  0.5378
 1539Sol     HW 9180   0.304   1.202   9.553 -0.1718 -1.3534  0.6213
 1539Sol     HW 9181   0.333   1.309   9.450 -1.2799 -0.1747  1.5243
 1539Sol     MW 9182   0.333   1.222   9.470 -1.1495  0.2821 -0.5198
 1540Sol     OW 9183   1.541   1.296   3.280 -0.3650 -0.0100 -0.7855
 1540Sol     HW 9184   1.496   1.244   3.346 -0.5412  0.6792 -0.3511
 1540Sol     HW 9185   1.575   1.371   3.328 -1.1032  0.8608 -1.5855
 1540Sol     MW 9186   1.540   1.298   3.290  0.4780 -1.1025  0.9322
 1541Sol     OW 9187   2.837   2.920   1.994  0.0032  0.5156  0.0391
 1541Sol     HW 9188   2.846   2.929   2.089  0.3540  0.9309 -0.0308
 1541Sol     HW 9189   2.781   2.994   1.969  1.4425  1.4935 -0.3173
 1541Sol     MW 9190   2.833   2.928   2.001 -0.6097 -0.1197 -0.0874
 1542Sol     OW 9191   0.290   0.360   6.306 -0.0550 -0.9108 -0.3925
 1542Sol     HW 9192   0.327   0.431   6.253  0.2236  1.0061  2.2755
 1542Sol     HW 9193   0.283   0.286   6.245  1.9749  0.6417 -2.6273
 1542Sol     MW 9194   0.293   0.360   6.296 -0.7837  0.6250 -0.2617
 1543Sol     OW 9195   2.493   1.855   5.868 -0.3726 -0.1603  0.3367
 1543Sol     HW 9196   2.500   1.813   5.954 -2.3653 -1.6230 -0.1957
 1543Sol     HW 9197   2.563   1.815   5.816 -0.8611 -1.2283  0.4904
 1543Sol     MW 9198   2.500   1.848   5.871  0.1775 -0.6480 -0.1573
 1544Sol     OW 9199   1.770   2.557   4.461 -0.5155 -0.3045 -0.0148
 1544Sol     HW 9200   1.857   2.539   4.425 -1.8160 -0.5395 -3.1409
 1544Sol     HW 9201   1.753   2.482   4.519  0.6156 -1.1689 -0.7748
 1544Sol     MW 9202   1.776   2.549   4.463  0.2691  0.2145  0.7507
 1545Sol     OW 9203   1.347   0.431   5.522 -0.1513  0.1159 -0.3405
 1545Sol     HW 9204   1.253   0.439   5.510 -0.2729  0.0009  0.5541
 1545Sol     HW 9205   1.375   0.515   5.557 -0.0182 -0.0862  0.0392
 1545Sol     MW 9206   1.341   0.439   5.524 -0.5010  0.4531 -0.1466
 1546Sol     OW 9207   2.703   0.595   9.183  0.1125  0.3164  0.0410
 1546Sol     HW 9208   2.656   0.597   9.100 -0.5655 -0.9604  0.3764
 1546Sol     HW 9209   2.774   0.533   9.169 -0.4473 -0.4634  0.6399
 1546Sol     MW 9210   2.705   0.590   9.175  0.7692  0.4671  0.7106
 1547Sol     OW 9211   1.536   2.839   8.200  0.5074  0.3935  0.0402
 1547Sol     HW 9212   1.568   2.788   8.274  0.0979  1.8338  1.2338
 1547Sol     HW 9213   1.594   2.914   8.195  2.3339 -1.1000 -2.9507
 1547Sol     MW 9214   1.544   2.841   8.206 -0.4232 -0.0786 -0.4148
 1548Sol     OW 9215   2.878   2.110   8.009  0.0279 -0.2622  0.1892
 1548Sol     HW 9216   2.837   2.079   7.928  0.3493 -0.9853  0.2950
 1548Sol     HW 9217   2.918   2.193   7.986  0.2386 -0.5350 -0.4313
 1548Sol     MW 9218   2.878   2.114   8.000 -0.4716 -0.2454  0.4949
 1549Sol     OW 9219   1.931   0.704   4.420  0.1268  0.0503 -0.1062
 1549Sol     HW 9220   1.875   0.713   4.343 -0.9299  0.8728  0.7527
 1549Sol     HW 9221   1.879   0.739   4.492  1.8308  1.0192  0.6744
 1549Sol     MW 9222   1.921   0.708   4.420 -0.4862 -0.6679 -1.0530
 1550Sol     OW 9223   1.042   0.392   3.906  0.2379  0.6193  0.1146
 1550Sol     HW 9224   0.989   0.314   3.923 -0.4027  0.9684 -0.2329
 1550Sol     HW 9225   1.024   0.415   3.815 -1.0319  2.2261  0.7329
 1550Sol     MW 9226   1.035   0.387   3.900  0.3614 -0.7013  0.2306
 1551Sol     OW 9227   0.947   0.559   9.540  0.2001  0.0376  0.5491
 1551Sol     HW 9228   1.038   0.579   9.565  0.2569  0.0520  0.3338
 1551Sol     HW 9229   0.910   0.643   9.514  0.3650 -0.0985 -0.1184
 1551Sol     MW 9230   0.952   0.568   9.540 -0.3205  0.3573 -0.5505
 1552Sol     OW 9231   0.938   1.827   3.101 -0.2059 -0.0653 -0.0555
 1552Sol     HW 9232   0.932   1.732   3.092 -1.5755 -0.0422  0.4039
 1552Sol     HW 9233   1.027   1.849   3.073  0.4584 -1.5946  0.7971
 1552Sol     MW 9234   0.945   1.821   3.098  0.5073  0.6488  1.3319
 1553Sol     OW 9235   0.553   0.848   2.396 -0.3514 -0.1300 -0.1285
 1553Sol     HW 9236   0.602   0.790   2.455 -0.1133 -0.1568 -0.3503
 1553Sol     HW 9237   0.618   0.878   2.333 -0.1972  1.4143  0.7559
 1553Sol     MW 9238   0.563   0.845   2.396  0.6810 -0.7575  0.8922
 1554Sol     OW 9239   3.091   0.189   3.243 -0.3019  0.5438 -0.2883
 1554Sol     HW 9240   3.049   0.163   3.325 -1.6503  0.6175 -0.9446
 1554Sol     HW 9241   3.124   0.108   3.206 -1.6555  0.1957 -0.7544
 1554Sol     MW 9242   3.090   0.179   3.247  1.0543 -0.2789 -0.0035
 1555Sol     OW 9243   1.385   3.016   7.411 -0.2253 -0.2386 -0.1476
 1555Sol     HW 9244   1.425   3.022   7.324  0.0790 -0.9660 -0.0553
 1555Sol     HW 9245   1.455   3.041   7.472 -0.3646  0.0177 -0.0891
 1555Sol     MW 9246   1.394   3.019   7.409 -0.0977  0.0998 -0.3826
 1556Sol     OW 9247   1.644   3.313   2.196  0.5113 -0.1576  0.0723
 1556Sol     HW 9248   1.614   3.224   2.214  2.1208 -0.6303  0.4795
 1556Sol     HW 9249   1.594   3.340   2.119  2.1739 -2.5326 -1.9115
 1556Sol     MW 9250   1.637   3.307   2.191  0.1780  1.5026 -0.2506
 1557Sol     OW 9251   2.112   3.414   4.685  0.6077  0.5723 -0.3010
 1557Sol     HW 9252   2.111   3.394   4.779  1.3215 -1.0640 -0.6284
 1557Sol     HW 9253   2.182   3.478   4.675  0.1593  1.1815  0.3476
 1557Sol     MW 9254   2.118   3.418   4.693 -0.6209 -0.0336  0.7451
 1558Sol     OW 9255   2.801   2.148   3.499  0.5254 -0.3685  0.4524
 1558Sol     HW 9256   2.718   2.107   3.472 -1.0648  0.9507  3.1232
 1558Sol     HW 9257   2.786   2.241   3.485  2.7794 -0.3520 -2.1026
 1558Sol     MW 9258   2.792   2.152   3.495 -0.0417 -0.4613 -0.1055
 1559Sol     OW 9259   1.664   1.942   8.859 -0.2561  0.4462  0.0263
 1559Sol     HW 9260   1.726   2.007   8.824  0.3689  0.4530  1.1400
 1559Sol     HW 9261   1.718   1.880   8.907 -0.9727 -0.3157 -0.1472
 1559Sol     MW 9262   1.674   1.943   8.860 -0.4947  1.1775 -1.4417
 1560Sol     OW 9263   1.434   2.151   3.631 -0.1928  0.0162 -0.7392
 1560Sol     HW 9264   1.423   2.146   3.536 -0.7774 -1.9691 -0.5868
 1560Sol     HW 9265   1.523   2.119   3.646 -1.1747 -2.5809 -0.3785
 1560Sol     MW 9266   1.441   2.148   3.624  0.6483 -0.1605 -0.1607
 1561Sol     OW 9267   0.367   1.129   8.546  0.1372  0.5548 -0.2484
 1561Sol     HW 9268   0.302   1.195   8.521 -2.4910 -2.1062 -0.5839
 1561Sol     HW 9269   0.378   1.075   8.468  2.2636  0.5525  0.0255
 1561Sol     MW 9270   0.362   1.130   8.537 -0.6656  0.2487  0.3487
 1562Sol     OW 9271   3.204   2.026   4.751 -0.6931 -0.4252  0.0546
 1562Sol     HW 9272   3.275   2.058   4.806 -0.2862 -0.2238 -0.5800
 1562Sol     HW 9273   3.244   1.959   4.696 -0.9180 -0.0848 -0.5269
 1562Sol     MW 9274   3.214   2.023   4.751 -0.8910 -1.3220  0.3527
 1563Sol     OW 9275   1.553   1.002   7.815  0.1647 -0.2093  0.5935
 1563Sol     HW 9276   1.607   0.925   7.797  0.3028  0.5417 -2.5472
 1563Sol     HW 9277   1.614   1.071   7.839  0.3468 -0.2082  0.1343
 1563Sol     MW 9278   1.563   1.001   7.815 -0.1402  0.1656 -0.7986
 1564Sol     OW 9279   0.254   1.031   3.924 -0.7480  0.4381 -0.6046
 1564Sol     HW 9280   0.338   1.066   3.954 -0.3331 -0.5306 -0.6114
 1564Sol     HW 9281   0.202   1.108   3.903  0.2670  1.0425 -0.9459
 1564Sol     MW 9282   0.257   1.041   3.925  0.4449  0.1740 -0.0341
 1565Sol     OW 9283   2.767   1.892   2.300  0.7148  0.5429 -0.0459
 1565Sol     HW 9284   2.842   1.907   2.357  0.4768  0.9079  0.1728
 1565Sol     HW 9285   2.692   1.923   2.350  0.3207 -0.5403  0.0463
 1565Sol     MW 9286   2.767   1.896   2.309 -0.4316 -0.4887  0.2287
 1566Sol     OW 9287   3.196   1.974   8.114  0.0855 -0.6837  0.4494
 1566Sol     HW 9288   3.228   1.951   8.201  1.8548  0.2293  0.0857
 1566Sol     HW 9289   3.138   2.049   8.128  0.4953 -0.4355  0.8395
 1566Sol     MW 9290   3.194   1.979   8.123 -0.0944 -0.3290 -0.0315
 1567Sol     OW 9291   0.776   3.037   9.706 -0.8932 -0.2533  0.3275
 1567Sol     HW 9292   0.751   3.088   9.783 -0.2577 -2.4987  2.0880
 1567Sol     HW 9293   0.705   2.975   9.693 -0.2619 -0.9359  0.0755
 1567Sol     MW 9294   0.768   3.036   9.711 -0.1752 -0.4937  0.1744
 1568Sol     OW 9295   0.305   0.746   4.214 -0.5945 -0.6216  0.6960
 1568Sol     HW 9296   0.396   0.758   4.239  0.3810 -2.4530 -1.7676
 1568Sol     HW 9297   0.279   0.663   4.254  0.0008 -1.9568 -1.5854
 1568Sol     MW 9298   0.311   0.740   4.220  0.6899 -0.1334 -0.3506
 1569Sol     OW 9299   1.694   1.365   8.179  0.3490 -0.4044  0.0126
 1569Sol     HW 9300   1.634   1.292   8.193  1.2710 -0.8505  1.7821
 1569Sol     HW 9301   1.779   1.323   8.165  0.8484  0.3204  0.8386
 1569Sol     MW 9302   1.696   1.354   8.179 -0.2292 -0.2316  0.7370
 1570Sol     OW 9303   2.665   0.867   6.682 -0.6200  0.0375  0.2543
 1570Sol     HW 9304   2.649   0.916   6.762 -1.8899  0.8998 -0.5079
 1570Sol     HW 9305   2.735   0.914   6.638 -0.4326 -0.0078  0.5072
 1570Sol     MW 9306   2.670   0.875   6.685  0.8243  0.5833  0.9230
 1571Sol     OW 9307   0.794   0.745   6.782 -1.0794 -0.1974  0.4405
 1571Sol     HW 9308   0.756   0.678   6.725 -2.0079 -0.5397  1.4458
 1571Sol     HW 9309   0.802   0.702   6.867 -0.3188  0.5154  0.7367
 1571Sol     MW 9310   0.791   0.735   6.785  0.7258  0.7104  0.1595
 1572Sol     OW 9311   1.778   0.383   5.543 -0.0388  0.3510  0.2786
 1572Sol     HW 9312   1.693   0.347   5.567  0.3959  0.2421  1.6707
 1572Sol     HW 9313   1.841   0.336   5.597  1.0742 -0.5970 -1.7930
 1572Sol     MW 9314   1.776   0.376   5.550 -0.3044  0.8300  0.0193
 1573Sol     OW 9315   2.612   2.590   3.662  0.4089 -0.3199  0.6980
 1573Sol     HW 9316   2.656   2.627   3.585 -1.0923 -0.6447 -0.3246
 1573Sol     HW 9317   2.598   2.665   3.719 -0.7397  0.3509 -0.4515
 1573Sol     MW 9318   2.615   2.600   3.660  0.8460 -0.1395 -0.0205
 1574Sol     OW 9319   1.077   0.954   7.612 -0.5115  0.3534 -0.3253
 1574Sol     HW 9320   1.104   1.044   7.594 -1.4072  0.0796 -3.2101
 1574Sol     HW 9321   0.984   0.962   7.635 -0.6475  0.1553 -0.7985
 1574Sol     MW 9322   1.071   0.963   7.613 -0.0583 -0.3850 -0.0927
 1575Sol     OW 9323   2.313   0.386   3.422 -0.0934  0.4125 -0.3310
 1575Sol     HW 9324   2.398   0.425   3.401 -0.3043  0.2028 -1.6224
 1575Sol     HW 9325   2.333   0.293   3.436  0.3397  0.8603  2.3187
 1575Sol     MW 9326   2.322   0.381   3.421  0.4567  0.0249  0.0391
 1576Sol     OW 9327   0.377   2.521   9.303  0.3489 -0.2367  0.3810
 1576Sol     HW 9328   0.439   2.584   9.267  1.2108 -0.5546  1.2778
 1576Sol     HW 9329   0.410   2.502   9.390 -1.5462  0.2918  1.2413
 1576Sol     MW 9330   0.385   2.525   9.307 -0.4473 -0.6726  0.1261
 1577Sol     OW 9331   1.960   0.198   3.336 -0.3519 -0.4554  0.2434
 1577Sol     HW 9332   1.994   0.115   3.303 -2.7901 -0.6296 -1.9603
 1577Sol     HW 9333   1.916   0.174   3.418  1.1667 -0.8672  0.9688
 1577Sol     MW 9334   1.959   0.188   3.341  0.4816  0.0791  0.5876
 1578Sol     OW 9335   0.921   2.537   4.294  0.0620 -0.0352  0.0636
 1578Sol     HW 9336   0.997   2.562   4.242  0.0344 -0.4439 -0.1672
 1578Sol     HW 9337   0.941   2.449   4.326 -0.0042  0.1368  0.5862
 1578Sol     MW 9338   0.929   2.532   4.292 -0.3060  0.4930 -0.0621
 1579Sol     OW 9339   2.188   1.172   2.545 -0.5156 -0.1811  0.0321
 1579Sol     HW 9340   2.095   1.188   2.563 -0.4329  0.6521 -0.2793
 1579Sol     HW 9341   2.215   1.245   2.490  0.4905 -0.0818  0.6506
 1579Sol     MW 9342   2.182   1.180   2.542  0.5823  0.1226 -0.1055
 1580Sol     OW 9343   2.749   1.762   9.588 -0.3687  0.3530  0.6348
 1580Sol     HW 9344   2.657   1.755   9.614 -0.6971  0.6542 -0.3991
 1580Sol     HW 9345   2.747   1.759   9.492  0.7639 -0.3601  0.6259
 1580Sol     MW 9346   2.741   1.761   9.582  1.0204  0.2188  0.2917
 1581Sol     OW 9347   1.954   2.659   9.769  0.6580  0.1203  0.0470
 1581Sol     HW 9348   2.039   2.665   9.724  0.5675 -0.5694 -0.2105
 1581Sol     HW 9349   1.954   2.734   9.829  1.6763 -0.1781  0.4355
 1581Sol     MW 9350   1.962   2.667   9.770 -0.1903  0.1887 -0.0730
 1582Sol     OW 9351   2.848   0.732   9.564  0.3928  0.0135  0.0354
 1582Sol     HW 9352   2.784   0.672   9.526 -1.7167  2.1695  0.0539
 1582Sol     HW 9353   2.855   0.804   9.500  1.4903  0.6601  0.8521
 1582Sol     MW 9354   2.843   0.733   9.555 -0.4347 -1.0373 -0.1005
 1583Sol     OW 9355   0.145   2.378   6.375  0.7393 -0.0622 -0.1167
 1583Sol     HW 9356   0.109   2.376   6.463  0.5895 -0.0466 -0.1770
 1583Sol     HW 9357   0.085   2.326   6.323  0.0139  1.1430 -0.5107
 1583Sol     MW 9358   0.137   2.374   6.378 -0.3543 -0.1138  0.9125
 1584Sol     OW 9359   2.171   0.029   5.822 -0.3827 -0.1425 -0.1994
 1584Sol     HW 9360   2.222  -0.049   5.799  0.3766 -0.2766  1.8405
 1584Sol     HW 9361   2.201   0.096   5.761  1.1026 -0.6550 -0.0440
 1584Sol     MW 9362   2.178   0.028   5.814 -0.3190  0.1535 -0.3614
 1585Sol     OW 9363   0.431   0.313   5.540  0.0388  0.0899  0.2795
 1585Sol     HW 9364   0.464   0.397   5.507 -0.0327  0.5680  1.4002
 1585Sol     HW 9365   0.450   0.250   5.470  1.3410  0.7780  0.0008
 1585Sol     MW 9366   0.436   0.315   5.531  0.2642 -0.4778 -0.1457
 1586Sol     OW 9367   2.459   1.819   2.967 -0.3900 -0.2594 -0.3373
 1586Sol     HW 9368   2.400   1.748   2.942  1.6002 -1.4485 -1.8093
 1586Sol     HW 9369   2.500   1.847   2.885  0.8551  0.7209  0.5927
 1586Sol     MW 9370   2.458   1.815   2.957  0.1859  0.9974  0.4329
 1587Sol     OW 9371   0.146   1.783   9.644  0.4666  0.1068 -0.0533
 1587Sol     HW 9372   0.086   1.856   9.631 -0.2896 -0.4889  0.1167
 1587Sol     HW 9373   0.224   1.807   9.593  0.2109  1.0127 -0.0234
 1587Sol     MW 9374   0.148   1.792   9.638 -0.9170  0.1188 -0.6020
 1588Sol     OW 9375   0.896   0.062   4.190  0.3043 -0.0452  0.0444
 1588Sol     HW 9376   0.947  -0.003   4.141  0.6375  0.7768 -0.7135
 1588Sol     HW 9377   0.816   0.016   4.215 -0.7466  0.0570 -2.9334
 1588Sol     MW 9378   0.894   0.052   4.188  1.3809 -0.0380  0.6220
 1589Sol     OW 9379   0.304   2.294   9.163  0.3171 -0.3578 -0.2961
 1589Sol     HW 9380   0.333   2.377   9.200  0.4839 -0.0702 -1.0511
 1589Sol     HW 9381   0.286   2.238   9.238 -3.6759  1.6414  0.3528
 1589Sol     MW 9382   0.305   2.296   9.173 -0.1152  0.3333  0.3417
 1590Sol     OW 9383   0.449   1.285   6.706 -0.4234  0.0930  0.5199
 1590Sol     HW 9384   0.530   1.323   6.671  0.3085 -1.7397  0.1903
 1590Sol     HW 9385   0.441   1.322   6.794 -0.0905  1.5301 -0.0452
 1590Sol     MW 9386   0.456   1.292   6.711  0.4590 -0.8793 -0.7635
 1591Sol     OW 9387   1.978   3.017   4.268 -0.1582 -0.1589  0.1297
 1591Sol     HW 9388   1.909   3.057   4.215 -0.1849  1.8639  1.6442
 1591Sol     HW 9389   1.940   3.009   4.355  0.7268 -1.2100  0.4305
 1591Sol     MW 9390   1.968   3.020   4.271  0.0459 -1.1972  0.2764
 1592Sol     OW 9391   2.792   3.301   6.848 -0.6513  0.1527 -0.3492
 1592Sol     HW 9392   2.746   3.320   6.767  0.2534 -1.2607 -1.2263
 1592Sol     HW 9393   2.881   3.277   6.820 -0.0747  0.5131  1.1234
 1592Sol     MW 9394   2.796   3.300   6.838 -0.0876 -0.0388  0.2598
 1593Sol     OW 9395   2.045   2.666   5.155  0.1355 -0.1743  0.4627
 1593Sol     HW 9396   1.950   2.656   5.150  0.1350 -1.8200  2.9553
 1593Sol     HW 9397   2.059   2.719   5.234  1.3714 -1.7275  1.3059
 1593Sol     MW 9398   2.038   2.670   5.161 -0.5363 -0.3708 -0.0550
 1594Sol     OW 9399   2.201   1.931   9.251 -0.3469 -0.3183  0.1193
 1594Sol     HW 9400   2.132   1.960   9.191  0.3385 -2.8006 -1.9362
 1594Sol     HW 9401   2.172   1.846   9.282  0.0299  0.2751  2.2021
 1594Sol     MW 9402   2.192   1.926   9.248  0.3190 -0.5836 -0.4371
 1595Sol     OW 9403   0.955   2.069   1.915  0.6912  0.4468  0.4894
 1595Sol     HW 9404   0.908   2.098   1.992  0.2728 -1.2125  0.8780
 1595Sol     HW 9405   0.889   2.067   1.846  0.4305 -0.8151  0.7713
 1595Sol     MW 9406   0.945   2.071   1.915  0.2880  0.4461 -0.5817
 1596Sol     OW 9407   1.932   1.789   2.620  0.2298  0.4100  0.3828
 1596Sol     HW 9408   1.947   1.828   2.706  0.1602  1.6214 -0.1463
 1596Sol     HW 9409   1.956   1.857   2.558 -1.4521  0.1771 -0.5509
 1596Sol     MW 9410   1.936   1.798   2.622 -0.5292 -0.5050 -0.0571
 1597Sol     OW 9411   0.410   1.826   6.365  0.2599 -0.1029  0.9876
 1597Sol     HW 9412   0.460   1.845   6.285 -0.0813  1.4573  1.1420
 1597Sol     HW 9413   0.417   1.731   6.374 -0.5399 -0.4434 -1.4661
 1597Sol     MW 9414   0.415   1.819   6.358 -0.6880 -0.4698 -0.5542
 1598Sol     OW 9415   0.679   2.929   6.445 -0.0033 -0.2444  0.4960
 1598Sol     HW 9416   0.704   2.939   6.353 -1.0117 -1.6903  0.0544
 1598Sol     HW 9417   0.761   2.942   6.493  0.0052  3.4926 -0.3673
 1598Sol     MW 9418   0.689   2.931   6.441  0.2337  0.5542  0.4904
 1599Sol     OW 9419   2.521   3.171   5.181 -0.5109 -0.1970 -0.4653
 1599Sol     HW 9420   2.515   3.222   5.262 -0.6032 -0.6528 -0.1847
 1599Sol     HW 9421   2.448   3.203   5.128 -1.5291 -1.1540  0.3447
 1599Sol     MW 9422   2.514   3.179   5.184 -0.6739  0.9155  0.6820
 1600Sol     OW 9423   2.346   3.124   3.529  0.2597 -0.6267 -0.1066
 1600Sol     HW 9424   2.379   3.037   3.553  1.0002  0.4454  3.0339
 1600Sol     HW 9425   2.367   3.179   3.604 -1.9550  1.8382 -1.2023
 1600Sol     MW 9426   2.351   3.121   3.538 -0.4646 -0.7716 -1.0862
 1601Sol     OW 9427   1.064   1.221   2.587  0.1642  0.0456  0.1671
 1601Sol     HW 9428   1.001   1.189   2.652 -0.7113 -0.7347 -1.0565
 1601Sol     HW 9429   1.149   1.203   2.627 -0.3595  0.2458  1.4214
 1601Sol     MW 9430   1.066   1.216   2.597  0.3929  0.2830  0.6417
 1602Sol     OW 9431   2.251   1.353   3.784 -0.3467  0.2571  0.5169
 1602Sol     HW 9432   2.182   1.411   3.751 -0.7392 -0.7655 -0.5165
 1602Sol     HW 9433   2.300   1.328   3.705  2.6227  2.7497  1.4871
 1602Sol     MW 9434   2.249   1.356   3.774  0.5917 -0.4557  0.1606
 1603Sol     OW 9435   1.156   0.792   2.657  0.0960  0.1394 -0.1401
 1603Sol     HW 9436   1.143   0.841   2.576 -0.0592  0.8601  0.3136
 1603Sol     HW 9437   1.240   0.749   2.646 -0.0625 -0.0115 -0.8064
 1603Sol     MW 9438   1.162   0.792   2.649 -0.6186 -0.4019  0.4130
 1604Sol     OW 9439   1.708   2.659   1.821  0.9072  0.7437 -0.0143
 1604Sol     HW 9440   1.735   2.570   1.798  2.0425  1.3121 -0.9759
 1604Sol     HW 9441   1.613   2.658   1.814  0.8840 -0.4997  0.3881
 1604Sol     MW 9442   1.702   2.651   1.818  0.4162  0.4026 -0.1494
 1605Sol     OW 9443   2.149   1.746   7.287  0.3765  0.2470 -0.1966
 1605Sol     HW 9444   2.071   1.726   7.338 -0.0743 -0.9928 -1.3783
 1605Sol     HW 9445   2.121   1.742   7.196  1.3634  1.7226 -0.5900
 1605Sol     MW 9446   2.140   1.744   7.284 -0.5882 -0.0933  0.0751
 1606Sol     OW 9447   2.472   1.031   9.633  0.4108 -0.6907 -0.0279
 1606Sol     HW 9448   2.508   0.949   9.667  0.8844  0.4639  2.3390
 1606Sol     HW 9449   2.413   1.061   9.701  0.0212  0.8049 -1.0110
 1606Sol     MW 9450   2.470   1.026   9.642  1.0258  0.6546 -0.8902
 1607Sol     OW 9451   0.389   1.812   8.446 -0.4246 -0.2098 -0.1284
 1607Sol     HW 9452   0.326   1.780   8.381 -0.4605  0.5116 -0.4566
 1607Sol     HW 9453   0.360   1.900   8.466  1.2993  0.6817 -1.3713
 1607Sol     MW 9454   0.381   1.817   8.442 -0.8265 -0.5371 -0.0723
 1608Sol     OW 9455   1.729   1.205   7.859 -0.1310 -0.2039 -0.1613
 1608Sol     HW 9456   1.797   1.236   7.800  0.2214  0.0287  0.3629
 1608Sol     HW 9457   1.672   1.281   7.873 -0.9797 -0.6208 -1.2579
 1608Sol     MW 9458   1.730   1.214   7.855 -0.2984  0.4486 -0.0442
 1609Sol     OW 9459   2.588   3.367   5.373 -0.3221 -0.1801  0.4715
 1609Sol     HW 9460   2.575   3.449   5.327  0.7565  0.2529  0.9220
 1609Sol     HW 9461   2.542   3.378   5.456 -0.0233  0.0325  0.6067
 1609Sol     MW 9462   2.583   3.375   5.377  0.7956  0.7270  0.0685
 1610Sol     OW 9463   2.901   3.441   9.776 -0.5213 -0.0208  0.5166
 1610Sol     HW 9464   2.962   3.481   9.715  1.7076 -3.2709  0.5081
 1610Sol     HW 9465   2.833   3.403   9.720  0.9071 -1.9917  0.0841
 1610Sol     MW 9466   2.900   3.441   9.766  0.6624 -0.2156  0.5376
 1611Sol     OW 9467   0.056   0.448   9.117 -0.2960  0.3158  0.0800
 1611Sol     HW 9468   0.134   0.395   9.133 -0.2586  0.5962  0.8320
 1611Sol     HW 9469   0.009   0.448   9.201 -1.8875 -1.1272 -0.7735
 1611Sol     MW 9470   0.059   0.443   9.126  0.1964 -1.1814 -0.4445
 1612Sol     OW 9471   0.810   3.170   5.496 -0.0969 -0.2677  0.3199
 1612Sol     HW 9472   0.745   3.237   5.476 -0.4123 -0.9691 -1.1161
 1612Sol     HW 9473   0.758   3.095   5.526  0.2321  0.0452  1.6595
 1612Sol     MW 9474   0.799   3.169   5.496 -0.0515 -0.0919  0.6437
 1613Sol     OW 9475   2.090   0.734   9.270 -0.2759 -0.0678 -0.1682
 1613Sol     HW 9476   1.994   0.731   9.266 -0.2152 -0.9415 -1.4612
 1613Sol     HW 9477   2.117   0.730   9.178  0.9610  2.4576  0.0461
 1613Sol     MW 9478   2.083   0.733   9.261  0.0247 -0.2049 -0.3279
 1614Sol     OW 9479   0.344   3.158   2.985  0.0600 -0.5730 -0.2208
 1614Sol     HW 9480   0.399   3.081   3.000  0.6200 -0.0367  0.5293
 1614Sol     HW 9481   0.365   3.217   3.057 -0.9518 -0.0433 -0.3437
 1614Sol     MW 9482   0.351   3.156   2.993 -0.1861 -0.1555 -0.4770
 1615Sol     OW 9483   2.028   3.069   2.431  0.3231 -0.1577 -0.1167
 1615Sol     HW 9484   2.035   3.119   2.512 -2.8932 -0.8631  0.6634
 1615Sol     HW 9485   1.984   3.128   2.369  0.3071 -0.5573 -0.4951
 1615Sol     MW 9486   2.024   3.078   2.432  0.0493  0.3637 -0.0595
 1616Sol     OW 9487   1.566   0.291   3.155  0.1825  0.1127  0.3463
 1616Sol     HW 9488   1.657   0.313   3.173  0.3245 -1.2648  1.3871
 1616Sol     HW 9489   1.569   0.204   3.116 -0.6250  0.4480 -0.4796
 1616Sol     MW 9490   1.574   0.286   3.153  0.1113 -0.4871  0.1634
 1617Sol     OW 9491   2.678   1.447   8.498  0.3193  0.1528  0.1814
 1617Sol     HW 9492   2.627   1.374   8.462  0.5928 -0.4803  1.0508
 1617Sol     HW 9493   2.646   1.524   8.452 -0.4848 -0.4244 -0.2311
 1617Sol     MW 9494   2.671   1.447   8.491  0.0852 -0.7540 -0.6809
 1618Sol     OW 9495   2.070   0.344   2.833  0.1141  0.3659 -0.6462
 1618Sol     HW 9496   1.987   0.309   2.800 -0.0683 -0.5392  0.7564
 1618Sol     HW 9497   2.137   0.288   2.794 -0.0444 -0.1366 -0.1911
 1618Sol     MW 9498   2.068   0.336   2.826 -0.8282  0.6912 -0.8474
 1619Sol     OW 9499   2.702   0.427   5.094  0.0660  0.0898 -0.3769
 1619Sol     HW 9500   2.707   0.414   5.189 -0.4084 -0.0146 -0.3625
 1619Sol     HW 9501   2.719   0.340   5.057 -0.7534 -0.0933 -0.3509
 1619Sol     MW 9502   2.704   0.418   5.099  0.4964  0.6578  0.2938
 1620Sol     OW 9503   0.438   1.390   6.092  0.1219 -0.0751  0.3330
 1620Sol     HW 9504   0.371   1.322   6.085 -0.2874  0.3803 -0.1921
 1620Sol     HW 9505   0.397   1.468   6.055  1.3271 -0.0655 -1.0213
 1620Sol     MW 9506   0.428   1.390   6.088 -0.3805  1.3204 -0.5938
 1621Sol     OW 9507   1.450   0.545   4.560  0.7492  0.0862 -0.4791
 1621Sol     HW 9508   1.413   0.488   4.627  1.8480 -0.3193 -0.2150
 1621Sol     HW 9509   1.530   0.502   4.532  1.5968  1.4850 -0.2803
 1621Sol     MW 9510   1.454   0.536   4.563  0.1595  0.3164 -1.2100
 1622Sol     OW 9511   2.964   2.311   5.626 -0.0008  0.6445  0.3655
 1622Sol     HW 9512   2.935   2.291   5.537  0.8231  1.0436  0.0049
 1622Sol     HW 9513   2.995   2.401   5.621  3.3099 -0.4542  0.2448
 1622Sol     MW 9514   2.964   2.317   5.618  0.3534 -0.2992  0.7058
 1623Sol     OW 9515   0.513   1.113   9.232 -0.0010 -0.3463  0.4434
 1623Sol     HW 9516   0.466   1.127   9.314 -0.2659 -0.6132  0.3372
 1623Sol     HW 9517   0.550   1.025   9.240 -0.6624 -0.6719 -0.0328
 1623Sol     MW 9518   0.512   1.106   9.240 -0.5312 -0.3710 -0.0255
 1624Sol     OW 9519   0.135   2.175   4.128  0.7133 -0.2149  0.5488
 1624Sol     HW 9520   0.116   2.251   4.073 -0.4706 -1.9519 -1.5410
 1624Sol     HW 9521   0.062   2.170   4.190  0.4791 -0.0055  0.2860
 1624Sol     MW 9522   0.127   2.181   4.129 -0.4223  0.0869  0.9905
 1625Sol     OW 9523   3.088   0.007   9.569  0.1611  0.0920  0.1169
 1625Sol     HW 9524   3.114   0.046   9.486 -0.3613 -0.5863 -0.3688
 1625Sol     HW 9525   3.169  -0.002   9.618  0.3804  1.1180 -0.0554
 1625Sol     MW 9526   3.097   0.010   9.566 -0.5076 -0.7579  0.6227
 1626Sol     OW 9527   3.031   2.620   5.718 -0.3914  0.4985  0.1010
 1626Sol     HW 9528   2.972   2.695   5.706 -0.3995  0.4400 -0.2237
 1626Sol     HW 9529   3.112   2.659   5.751  0.3996  0.9257 -2.2595
 1626Sol     MW 9530   3.033   2.630   5.720 -0.4076  0.6369  0.1919
 1627Sol     OW 9531   1.833   2.017   7.826  0.4562  0.1576 -0.3789
 1627Sol     HW 9532   1.822   1.942   7.885 -0.1568  0.6763  0.1839
 1627Sol     HW 9533   1.891   1.985   7.757  1.5613 -0.3241  0.7492
 1627Sol     MW 9534   1.837   2.007   7.825  0.2585  0.1930  0.0079
 1628Sol     OW 9535   1.892   1.966   3.958 -0.3162  0.0178  0.6455
 1628Sol     HW 9536   1.934   2.043   3.918 -0.1651  0.5299  1.7820
 1628Sol     HW 9537   1.807   1.960   3.914  0.7554 -0.7639 -1.3601
 1628Sol     MW 9538   1.888   1.972   3.950  0.1150  0.3317 -0.3902
 1629Sol     OW 9539   1.051   1.670   7.220  0.3553 -0.1022  0.4059
 1629Sol     HW 9540   0.995   1.646   7.293 -3.0446  1.9107 -1.4164
 1629Sol     HW 9541   1.056   1.591   7.166  0.3125 -0.6499  1.1925
 1629Sol     MW 9542   1.046   1.661   7.221 -0.2751 -0.4089 -0.7265
 1630Sol     OW 9543   2.895   1.686   4.769  0.2496 -0.3106  0.0400
 1630Sol     HW 9544   2.977   1.644   4.746  1.1981  0.3483  2.0832
 1630Sol     HW 9545   2.831   1.615   4.773  0.9897 -0.9970 -0.3356
 1630Sol     MW 9546   2.896   1.676   4.767  0.0798  1.4575  0.1143
 1631Sol     OW 9547   0.252   1.091   6.938  0.0028 -0.3024 -0.4335
 1631Sol     HW 9548   0.310   1.166   6.949 -2.6026  1.5854  1.1161
 1631Sol     HW 9549   0.262   1.066   6.846  1.1032  1.7872 -0.9140
 1631Sol     MW 9550   0.258   1.096   6.930 -0.3766  0.1797 -0.2972
 1632Sol     OW 9551   0.318   0.136   6.143  0.5241  0.0255 -0.0148
 1632Sol     HW 9552   0.393   0.091   6.105 -1.0425 -0.9510 -2.0204
 1632Sol     HW 9553   0.267   0.066   6.186 -0.4506  0.2863 -0.7176
 1632Sol     MW 9554   0.320   0.125   6.144 -0.3520 -0.2832  0.0364
 1633Sol     OW 9555   0.814   2.528   3.885 -0.2697  0.0751  0.1303
 1633Sol     HW 9556   0.735   2.474   3.879 -1.7645  1.9524  2.4757
 1633Sol     HW 9557   0.878   2.473   3.930 -1.3324 -0.2325  1.2601
 1633Sol     MW 9558   0.813   2.518   3.888 -0.5706 -0.2580 -0.8361
 1634Sol     OW 9559   0.207   2.247   2.192  0.6241  0.0855 -0.1479
 1634Sol     HW 9560   0.156   2.287   2.262  0.0599 -1.4093  0.3175
 1634Sol     HW 9561   0.297   2.276   2.208  0.4121  0.1832  0.8824
 1634Sol     MW 9562   0.211   2.253   2.200 -0.2991  0.0872 -0.0633
 1635Sol     OW 9563   2.668   3.044   2.456 -0.1076  0.4453 -0.6194
 1635Sol     HW 9564   2.659   3.111   2.388  0.1008  0.5630 -0.5320
 1635Sol     HW 9565   2.695   3.093   2.534  0.6008  0.1872 -0.7002
 1635Sol     MW 9566   2.669   3.054   2.457  0.2094  0.6000  0.9466
 1636Sol     OW 9567   2.427   0.948   7.515  0.5928  0.5948  0.4272
 1636Sol     HW 9568   2.487   0.971   7.444  0.5373 -1.2366 -0.2405
 1636Sol     HW 9569   2.444   0.855   7.532 -1.2846  0.3343  0.9836
 1636Sol     MW 9570   2.434   0.942   7.510  0.2691  0.8297 -1.0585
 1637Sol     OW 9571   1.283   0.515   2.490 -0.1869  0.0674 -0.2581
 1637Sol     HW 9572   1.298   0.465   2.570 -0.6799 -0.0374 -0.2289
 1637Sol     HW 9573   1.370   0.547   2.464 -0.2827  1.7980  1.4362
 1637Sol     MW 9574   1.292   0.513   2.495  0.5548 -0.1375 -0.4044
 1638Sol     OW 9575   2.365   0.258   4.310  0.5989  0.0363  0.9033
 1638Sol     HW 9576   2.413   0.232   4.388 -0.2744  0.4285  1.5842
 1638Sol     HW 9577   2.318   0.179   4.283  0.5109  0.0323  1.0683
 1638Sol     MW 9578   2.365   0.248   4.314  0.5337  0.0607  0.0315
 1639Sol     OW 9579   2.594   0.487   3.795  0.1560 -0.1729  0.2990
 1639Sol     HW 9580   2.600   0.392   3.783 -1.4888 -0.3603  0.8337
 1639Sol     HW 9581   2.500   0.506   3.788  0.5079  1.4466 -0.0765
 1639Sol     MW 9582   2.586   0.480   3.794  0.7349  0.1577  0.0517
 1640Sol     OW 9583   0.447   1.665   6.803  0.0344 -0.0633  0.0732
 1640Sol     HW 9584   0.358   1.642   6.777 -0.1401  0.4456  0.2163
 1640Sol     HW 9585   0.448   1.760   6.802  0.6703 -0.0718 -0.2394
 1640Sol     MW 9586   0.439   1.671   6.800  0.1649  0.8614  0.0370
 1641Sol     OW 9587   0.847   1.628   8.951 -0.6066 -0.2996  0.0027
 1641Sol     HW 9588   0.834   1.533   8.950  1.2461 -0.5844  0.8234
 1641Sol     HW 9589   0.906   1.645   8.877  0.2355  0.0078  0.7305
 1641Sol     MW 9590   0.851   1.621   8.944 -0.0928 -1.4473 -0.1299
 1642Sol     OW 9591   0.736   0.255   2.496  0.1946  0.1100  0.4600
 1642Sol     HW 9592   0.804   0.281   2.558 -0.1187  0.0990  0.8045
 1642Sol     HW 9593   0.736   0.159   2.498 -1.1166  0.1166  1.8599
 1642Sol     MW 9594   0.742   0.249   2.501 -0.9714  0.4480 -0.0639
 1643Sol     OW 9595   0.161   0.526   4.613 -0.3028 -0.0688 -0.0855
 1643Sol     HW 9596   0.218   0.450   4.624 -0.0409  0.0058 -0.8527
 1643Sol     HW 9597   0.093   0.516   4.679  0.7696 -0.0072  1.0356
 1643Sol     MW 9598   0.160   0.518   4.620 -0.3197  0.2617  0.4218
 1644Sol     OW 9599   2.840   0.161   8.868 -0.0661 -0.3611  0.1180
 1644Sol     HW 9600   2.882   0.164   8.782  1.0680 -1.1566  0.6337
 1644Sol     HW 9601   2.876   0.236   8.915  0.4435 -0.7897  0.4113
 1644Sol     MW 9602   2.847   0.168   8.864 -0.5198  0.7436  0.3747
 1645Sol     OW 9603   1.089   0.246   2.897 -0.2278 -0.5264 -0.0844
 1645Sol     HW 9604   1.077   0.210   2.984  2.5153 -2.4700 -0.4395
 1645Sol     HW 9605   1.158   0.313   2.908 -1.3227  0.6784 -0.4192
 1645Sol     MW 9606   1.094   0.249   2.906  0.8185  0.0142  0.8371
 1646Sol     OW 9607   2.845   1.117   8.253  0.2552  0.0341  0.1333
 1646Sol     HW 9608   2.848   1.186   8.319  1.4587  0.4193 -0.3028
 1646Sol     HW 9609   2.936   1.109   8.224  0.0169 -1.2991 -0.2662
 1646Sol     MW 9610   2.854   1.122   8.256  0.3753 -0.4581 -0.0008
 1647Sol     OW 9611   2.297   0.350   8.376 -0.0139 -0.4450 -0.4876
 1647Sol     HW 9612   2.363   0.363   8.444  0.6514  1.8486 -1.5488
 1647Sol     HW 9613   2.216   0.334   8.424  0.8079 -0.7800  0.8212
 1647Sol     MW 9614   2.296   0.349   8.386  0.0558  1.4792 -0.3681
 1648Sol     OW 9615   1.025   2.312   4.454 -0.4029 -0.1981  0.5168
 1648Sol     HW 9616   1.071   2.228   4.449 -1.7580 -0.8654 -0.9313
 1648Sol     HW 9617   1.019   2.330   4.548  2.3793 -0.3175  0.7479
 1648Sol     MW 9618   1.028   2.306   4.462 -0.0406 -0.1278  0.3604
 1649Sol     OW 9619   1.948   2.456   9.953  0.1288  0.2918  0.3241
 1649Sol     HW 9620   1.961   2.515   9.878  0.4624 -0.3572 -0.1445
 1649Sol     HW 9621   1.953   2.513  10.030  0.1552  0.9138 -0.1326
 1649Sol     MW 9622   1.950   2.466   9.953  0.1247  0.2647 -1.1740
 1650Sol     OW 9623   1.734   2.959   2.890  0.1523 -0.1391 -0.2651
 1650Sol     HW 9624   1.707   2.980   2.979  0.5313 -0.8034  0.0153
 1650Sol     HW 9625   1.802   2.893   2.901 -0.8437 -1.3277 -1.1025
 1650Sol     MW 9626   1.738   2.955   2.899 -0.5964  0.4800  0.4893
 1651Sol     OW 9627   2.010   2.866   6.971 -0.1811  0.6041  0.4540
 1651Sol     HW 9628   1.987   2.796   7.031 -0.9341 -0.0929 -0.6223
 1651Sol     HW 9629   1.968   2.944   7.008 -1.0994  0.0796  0.5486
 1651Sol     MW 9630   2.004   2.867   6.979  0.4171 -0.1561  0.1576
 1652Sol     OW 9631   0.726   1.068   8.144  0.2329  0.3677  0.1215
 1652Sol     HW 9632   0.783   1.086   8.218  0.5008  0.4552 -0.1048
 1652Sol     HW 9633   0.686   1.152   8.123  0.5607  0.4484 -0.1705
 1652Sol     MW 9634   0.727   1.077   8.149  0.4852 -0.7953  0.3844
 1653Sol     OW 9635   2.621   2.394   5.287 -0.1647 -0.2989 -0.5907
 1653Sol     HW 9636   2.627   2.314   5.235 -1.0089  0.5145 -1.9777
 1653Sol     HW 9637   2.615   2.464   5.223  2.6612  1.0953  0.5767
 1653Sol     MW 9638   2.621   2.393   5.277 -0.9742  0.2951 -0.7559
 1654Sol     OW 9639   2.512   2.433   6.777 -0.3681  0.3831 -0.0462
 1654Sol     HW 9640   2.591   2.446   6.726  0.3481  0.4343  1.0513
 1654Sol     HW 9641   2.446   2.407   6.713  0.2271  1.5009 -1.1376
 1654Sol     MW 9642   2.513   2.432   6.767  1.7143  0.2221  0.1544
 1655Sol     OW 9643   2.044   2.002   4.403 -0.5259  0.0942  0.4541
 1655Sol     HW 9644   1.973   1.940   4.384 -0.0646  0.3076 -2.0659
 1655Sol     HW 9645   2.091   2.011   4.320  1.2178  1.5368  1.5743
 1655Sol     MW 9646   2.041   1.997   4.394 -0.6732 -1.4363  0.6667
 1656Sol     OW 9647   2.446   2.885   3.599 -0.4315 -0.0345 -0.0523
 1656Sol     HW 9648   2.357   2.850   3.592  0.8721 -3.8375  1.0712
 1656Sol     HW 9649   2.472   2.866   3.690  1.0021  2.4148  0.0978
 1656Sol     MW 9650   2.440   2.880   3.607 -0.6082  0.2361  0.7839
 1657Sol     OW 9651   0.587   1.300   4.394 -0.3750  0.1511 -0.0295
 1657Sol     HW 9652   0.503   1.279   4.436  0.4372 -0.1225  1.4629
 1657Sol     HW 9653   0.564   1.367   4.329 -2.2530 -2.0321 -1.7363
 1657Sol     MW 9654   0.577   1.304   4.392  0.4594 -0.0750 -0.4845
 1658Sol     OW 9655   1.039   1.632   6.134  0.5850  0.4002 -0.1947
 1658Sol     HW 9656   1.129   1.664   6.129  0.2682  1.2641 -0.5346
 1658Sol     HW 9657   1.037   1.579   6.213  1.0615  1.4407  0.5276
 1658Sol     MW 9658   1.047   1.630   6.141 -0.2920 -0.1740 -0.7795
 1659Sol     OW 9659   3.096   2.103   2.742 -0.3770 -0.3652 -0.0473
 1659Sol     HW 9660   3.138   2.171   2.688 -1.2265  0.7777  0.7061
 1659Sol     HW 9661   3.153   2.027   2.732  0.8365  0.5797 -0.5782
 1659Sol     MW 9662   3.105   2.103   2.736  0.5947  0.0444 -0.4906
 1660Sol     OW 9663   0.058   1.896   1.925 -0.1297  0.3676  0.6837
 1660Sol     HW 9664   0.123   1.828   1.945  0.2296  1.1966  2.4120
 1660Sol     HW 9665  -0.010   1.850   1.874  1.2613 -0.7451 -0.2175
 1660Sol     MW 9666   0.058   1.886   1.922  0.5121 -0.1735 -0.2973
 1661Sol     OW 9667   2.698   2.242   9.131 -0.4058  0.5189  0.3108
 1661Sol     HW 9668   2.782   2.255   9.175  0.5086 -0.2274 -1.1526
 1661Sol     HW 9669   2.678   2.327   9.092 -0.5918  0.8404  1.1003
 1661Sol     MW 9670   2.704   2.251   9.132  0.3652 -0.2437  0.6270
 1662Sol     OW 9671   3.006   2.680   2.202  0.5644 -0.5896 -0.0230
 1662Sol     HW 9672   3.069   2.738   2.245 -0.8709 -0.0717  1.4282
 1662Sol     HW 9673   3.047   2.594   2.205  1.7965 -0.0160 -0.2945
 1662Sol     MW 9674   3.015   2.678   2.206  0.2903 -0.0532  0.7589
 1663Sol     OW 9675   1.126   2.336   4.735  0.1745 -0.9467  0.6600
 1663Sol     HW 9676   1.167   2.418   4.763 -0.1059 -0.5175 -0.1812
 1663Sol     HW 9677   1.197   2.272   4.735  0.7506 -0.3103 -0.3473
 1663Sol     MW 9678   1.136   2.338   4.738  0.0029 -0.5720  0.0078
 1664Sol     OW 9679   2.837   0.338   7.812  0.1313  0.1085 -0.1028
 1664Sol     HW 9680   2.766   0.359   7.872  0.7038  1.2012  0.2046
 1664Sol     HW 9681   2.851   0.418   7.762 -0.4463 -0.8312 -1.8307
 1664Sol     MW 9682   2.832   0.347   7.813  0.7349  0.2809  0.5703
 1665Sol     OW 9683   1.248   3.031   9.440 -1.0049  0.1995  0.2142
 1665Sol     HW 9684   1.230   3.069   9.354  0.8565 -1.8483 -1.1262
 1665Sol     HW 9685   1.286   3.103   9.491 -0.4072  0.9538 -1.2678
 1665Sol     MW 9686   1.250   3.041   9.437  0.8112  0.2214  0.1239
 1666Sol     OW 9687   2.576   2.597   8.409  0.3332 -0.3126 -0.2448
 1666Sol     HW 9688   2.485   2.567   8.408  0.9654 -2.2992 -2.9672
 1666Sol     HW 9689   2.626   2.524   8.444  0.9951  0.4595  0.4467
 1666Sol     MW 9690   2.572   2.588   8.412  0.5363 -0.4476 -0.5581
 1667Sol     OW 9691   0.831   0.534   9.790  0.6553 -0.1062 -0.4296
 1667Sol     HW 9692   0.738   0.535   9.766  0.1073 -0.0531  1.5934
 1667Sol     HW 9693   0.877   0.513   9.708 -1.2777 -2.2481 -1.0219
 1667Sol     MW 9694   0.827   0.532   9.780  0.0909 -0.5840  0.8862
 1668Sol     OW 9695   0.289   2.627   2.201 -0.0300 -0.3414  0.4205
 1668Sol     HW 9696   0.319   2.718   2.197 -0.9473 -0.0423  0.3550
 1668Sol     HW 9697   0.225   2.620   2.131 -0.2365 -0.9401  0.6716
 1668Sol     MW 9698   0.286   2.635   2.194 -0.2331 -0.6914 -0.1894
 1669Sol     OW 9699   1.561   0.362   6.796  0.7165  0.4813 -1.0295
 1669Sol     HW 9700   1.638   0.332   6.749  0.0110 -0.5170 -1.5681
 1669Sol     HW 9701   1.547   0.296   6.864 -0.4486 -0.0855 -1.7988
 1669Sol     MW 9702   1.566   0.353   6.798 -0.1858 -0.4382 -0.4683
 1670Sol     OW 9703   1.606   1.108   2.888  0.3225  0.2728 -0.3718
 1670Sol     HW 9704   1.643   1.082   2.972  0.5611 -0.1952 -0.6195
 1670Sol     HW 9705   1.682   1.133   2.835  0.3289 -1.1891 -1.0532
 1670Sol     MW 9706   1.616   1.108   2.891 -0.8230  0.1329 -0.2758
 1671Sol     OW 9707   1.082   2.963   4.850  0.1802  0.1799 -0.4123
 1671Sol     HW 9708   1.112   2.886   4.898  0.4608  0.3571 -0.3010
 1671Sol     HW 9709   0.987   2.964   4.862  0.2089  0.0152 -0.1756
 1671Sol     MW 9710   1.076   2.956   4.855 -0.4150 -0.5085 -0.0842
 1672Sol     OW 9711   3.050   2.532   3.622  0.0776  0.7576 -0.6692
 1672Sol     HW 9712   3.103   2.579   3.557  0.0806 -0.4381 -1.5559
 1672Sol     HW 9713   2.996   2.599   3.663 -0.2472  1.4635 -2.2405
 1672Sol     MW 9714   3.050   2.542   3.620 -0.8860 -0.3153  0.4735
 1673Sol     OW 9715   2.786   0.880   8.834  0.0671  0.3921 -0.0476
 1673Sol     HW 9716   2.766   0.971   8.856 -0.2093  0.7990 -1.8813
 1673Sol     HW 9717   2.881   0.877   8.825  0.1061  0.4193  0.3792
 1673Sol     MW 9718   2.792   0.888   8.835  1.2168 -0.7204 -0.3679
 1674Sol     OW 9719   2.093   0.472   4.418  0.6304 -0.7501  0.2190
 1674Sol     HW 9720   2.170   0.480   4.362 -0.7161 -0.8110 -1.6910
 1674Sol     HW 9721   2.065   0.562   4.435  0.8895 -0.7376  0.5770
 1674Sol     MW 9722   2.097   0.481   4.414  0.1421 -0.3306 -0.0767
 1675Sol     OW 9723   3.139   1.618   9.937 -0.0319  0.1715  0.6004
 1675Sol     HW 9724   3.053   1.575   9.940 -0.3509  0.8501  1.7184
 1675Sol     HW 9725   3.196   1.555   9.894 -1.2054 -0.0818 -0.6550
 1675Sol     MW 9726   3.136   1.609   9.933 -0.1090 -0.9615 -0.7660
 1676Sol     OW 9727   1.417   0.758   8.504 -0.2911  0.0727 -0.0272
 1676Sol     HW 9728   1.456   0.724   8.423 -0.3347 -0.6708  0.2615
 1676Sol     HW 9729   1.491   0.777   8.561 -0.2346  1.0341 -0.3993
 1676Sol     MW 9730   1.427   0.757   8.502 -0.6438  0.3003 -0.0991
 1677Sol     OW 9731   1.230   3.194   6.780  0.2280  0.1402  0.3320
 1677Sol     HW 9732   1.260   3.275   6.823  0.3451 -0.4291  1.3538
 1677Sol     HW 9733   1.147   3.174   6.824  0.4002 -0.5072  0.3647
 1677Sol     MW 9734   1.225   3.199   6.788  0.5380 -0.7099 -0.1965
 1678Sol     OW 9735   2.066   0.975   2.805  0.3611 -0.1187 -0.3776
 1678Sol     HW 9736   2.074   0.910   2.735 -0.2626 -0.0616 -0.5033
 1678Sol     HW 9737   2.111   0.935   2.880  0.0824 -0.6442 -0.4876
 1678Sol     MW 9738   2.071   0.965   2.805  0.8110 -0.3566 -0.1445
 1679Sol     OW 9739   0.075   1.069   5.578  0.3694  0.0838  0.2064
 1679Sol     HW 9740   0.095   1.140   5.640 -0.9191  1.6031 -1.0699
 1679Sol     HW 9741  -0.021   1.066   5.576  0.3886  0.2635 -1.9308
 1679Sol     MW 9742   0.068   1.075   5.584 -0.1372  0.7133 -0.4968
 1680Sol     OW 9743   1.074   0.917   3.306  0.2224 -0.0779 -0.7522
 1680Sol     HW 9744   0.998   0.929   3.249 -0.1600  0.7655 -0.0849
 1680Sol     HW 9745   1.149   0.927   3.247 -0.1637  0.9350 -1.0920
 1680Sol     MW 9746   1.074   0.919   3.295 -0.0942 -0.2178 -0.4842
 1681Sol     OW 9747   3.218   2.195   2.982 -0.2089  0.0097 -0.4214
 1681Sol     HW 9748   3.166   2.138   3.039 -2.2734  1.2997 -0.9446
 1681Sol     HW 9749   3.174   2.189   2.897  0.5236  1.1057 -0.8895
 1681Sol     MW 9750   3.209   2.189   2.979  0.2325  0.3719  0.3256
 1682Sol     OW 9751   2.261   0.396   6.134 -0.4331  0.3175 -0.3261
 1682Sol     HW 9752   2.321   0.392   6.060  0.8611  0.8745  0.6764
 1682Sol     HW 9753   2.207   0.317   6.126 -0.2837  0.3569 -1.8246
 1682Sol     MW 9754   2.261   0.389   6.127  0.0309  0.3397  0.2975
 1683Sol     OW 9755   2.240   3.083   2.649 -0.4262  0.0529  0.8569
 1683Sol     HW 9756   2.299   3.018   2.612 -1.3056  0.2790 -1.0427
 1683Sol     HW 9757   2.161   3.034   2.671 -0.7391  0.2905  0.2958
 1683Sol     MW 9758   2.238   3.073   2.648 -0.0932 -0.4310  0.1049
 1684Sol     OW 9759   0.935   0.937   6.932  0.2937 -0.0434 -0.4677
 1684Sol     HW 9760   0.894   0.883   6.864 -0.5641 -0.1735  0.1428
 1684Sol     HW 9761   1.029   0.919   6.923  0.1388 -0.5231 -1.2189
 1684Sol     MW 9762   0.940   0.931   6.925 -0.1369 -0.0448 -0.1965
 1685Sol     OW 9763   2.379   3.051   6.843 -0.0206 -0.5101  0.0032
 1685Sol     HW 9764   2.419   3.050   6.930 -0.5503  2.1146  0.3085
 1685Sol     HW 9765   2.446   3.016   6.785  0.4866 -1.8873  1.3988
 1685Sol     MW 9766   2.388   3.048   6.845 -0.3961 -0.1100  0.0281
 1686Sol     OW 9767   3.293   0.966   3.605 -0.9345  0.2367  0.3522
 1686Sol     HW 9768   3.261   0.897   3.546  1.8696  0.1460 -1.1340
 1686Sol     HW 9769   3.366   0.926   3.651  1.5470  2.5464 -1.4327
 1686Sol     MW 9770   3.296   0.956   3.604  0.7987 -0.2825 -0.4978
 1687Sol     OW 9771   2.448   0.798   8.430  0.1978  0.0200 -0.3385
 1687Sol     HW 9772   2.476   0.851   8.504  1.0394 -0.7504 -0.1018
 1687Sol     HW 9773   2.529   0.766   8.391 -0.2938 -1.1469 -0.4414
 1687Sol     MW 9774   2.458   0.800   8.433 -0.6933  0.0105 -0.6186
 1688Sol     OW 9775   0.171   1.163   6.170  0.4780  0.4993  0.4363
 1688Sol     HW 9776   0.203   1.098   6.233  0.8513  1.5342  1.3367
 1688Sol     HW 9777   0.166   1.116   6.087 -0.6049 -1.0650  1.3638
 1688Sol     MW 9778   0.173   1.153   6.168 -0.0875  0.0090  0.2450
 1689Sol     OW 9779   2.899   0.534   7.615 -0.0514  0.0135 -0.3258
 1689Sol     HW 9780   2.979   0.502   7.575  0.3712  0.5043  0.1117
 1689Sol     HW 9781   2.863   0.595   7.551 -0.7660 -1.1899 -1.0840
 1689Sol     MW 9782   2.903   0.537   7.606  0.6559 -1.0512 -0.1704
 1690Sol     OW 9783   2.640   2.929   4.037  0.6351  0.3917  0.4496
 1690Sol     HW 9784   2.572   2.951   4.100  1.1665 -0.5660  1.3729
 1690Sol     HW 9785   2.657   3.010   3.990 -1.9149  0.4017 -0.5602
 1690Sol     MW 9786   2.636   2.938   4.038 -0.6614 -0.3683  0.6483
 1691Sol     OW 9787   0.503   3.186   5.901  0.3842  0.2078  0.0947
 1691Sol     HW 9788   0.464   3.118   5.956  0.0938 -0.4747 -0.9251
 1691Sol     HW 9789   0.477   3.162   5.812  1.1386  1.0889 -0.3724
 1691Sol     MW 9790   0.497   3.178   5.898  0.4059  0.5001 -0.1195
 1692Sol     OW 9791   0.223   2.971   8.820 -0.0950 -0.8454 -0.3318
 1692Sol     HW 9792   0.299   3.018   8.855 -0.6374  0.0661 -0.3871
 1692Sol     HW 9793   0.262   2.903   8.764  0.6833 -0.4030 -0.3444
 1692Sol     MW 9794   0.234   2.969   8.818 -0.5117 -0.4910 -0.8747
 1693Sol     OW 9795   1.975   1.689   7.527  0.5171 -0.0355  0.3625
 1693Sol     HW 9796   1.882   1.693   7.551  0.4537  0.1961  0.0839
 1693Sol     HW 9797   2.012   1.770   7.563  0.2880  0.6318 -0.8603
 1693Sol     MW 9798   1.970   1.697   7.533 -0.1253  0.6884 -1.1379
 1694Sol     OW 9799   2.183   1.605   9.591  0.5690  0.3627  0.3533
 1694Sol     HW 9800   2.137   1.632   9.512 -0.4216 -0.2483  0.7056
 1694Sol     HW 9801   2.220   1.686   9.627  0.2181  0.7801 -0.2287
 1694Sol     MW 9802   2.182   1.615   9.587 -0.5685 -0.1097  0.5949
 1695Sol     OW 9803   0.144   1.661   7.230  0.6276  0.5975 -0.4926
 1695Sol     HW 9804   0.061   1.615   7.240  0.9410  0.1338  0.0460
 1695Sol     HW 9805   0.207   1.605   7.277  0.7351  2.3906  1.5647
 1695Sol     MW 9806   0.142   1.652   7.235 -0.2828  0.4336  0.1766
 1696Sol     OW 9807   3.187   0.994   9.611 -0.7425  0.1518  0.4021
 1696Sol     HW 9808   3.263   1.011   9.667 -0.5350  1.9036 -0.3913
 1696Sol     HW 9809   3.164   1.080   9.576 -1.9355 -0.6707 -0.8425
 1696Sol     MW 9810   3.192   1.003   9.613  0.1612  0.3502 -1.0164
 1697Sol     OW 9811   1.894   0.737   8.828 -0.3134  0.1051 -1.0087
 1697Sol     HW 9812   1.815   0.782   8.797  0.9260  2.1743 -1.2137
 1697Sol     HW 9813   1.939   0.710   8.748 -0.4866 -0.5446 -0.8949
 1697Sol     MW 9814   1.891   0.739   8.818 -0.4861  0.2828 -0.4052
 1698Sol     OW 9815   2.265   3.421   6.221  0.3753  0.0103 -0.6415
 1698Sol     HW 9816   2.226   3.478   6.155 -0.8880  1.3005  1.1709
 1698Sol     HW 9817   2.359   3.441   6.217  0.1943  0.7161 -1.4341
 1698Sol     MW 9818   2.270   3.428   6.215  0.1228 -0.3877 -0.7589
 1699Sol     OW 9819   2.295   2.432   7.109  0.3651  0.1148  0.3970
 1699Sol     HW 9820   2.310   2.504   7.048  1.3351 -0.7104 -0.3760
 1699Sol     HW 9821   2.273   2.358   7.053  1.1747 -0.6336  1.0476
 1699Sol     MW 9822   2.294   2.432   7.099  0.5478 -0.0498  0.3163
 1700Sol     OW 9823   3.112   1.035   8.172  0.2382 -0.2193  0.2436
 1700Sol     HW 9824   3.120   0.979   8.095 -0.0076 -0.8110  0.6373
 1700Sol     HW 9825   3.138   0.978   8.245 -1.6103 -0.3417  0.8459
 1700Sol     MW 9826   3.115   1.025   8.172 -0.4998  0.5919 -0.5572
 1701Sol     OW 9827   1.077   1.363   8.722 -0.0288 -0.1362  0.1089
 1701Sol     HW 9828   1.154   1.420   8.732 -1.5176  2.4391 -2.3889
 1701Sol     HW 9829   1.085   1.329   8.633 -1.6422 -0.0379 -0.0772
 1701Sol     MW 9830   1.085   1.365   8.715  0.8145  0.4987  0.1648
 1702Sol     OW 9831   2.258   2.121   7.351  0.1174 -0.5934  0.2717
 1702Sol     HW 9832   2.269   2.214   7.368 -0.1652 -0.5605  0.2741
 1702Sol     HW 9833   2.333   2.098   7.295  0.0965 -0.3327  0.1381
 1702Sol     MW 9834   2.266   2.127   7.347  0.2757  0.2849  0.6442
 1703Sol     OW 9835   0.282   1.440   7.350 -0.2990  0.7321  0.3062
 1703Sol     HW 9836   0.224   1.365   7.361  0.0263  0.2459 -1.1989
 1703Sol     HW 9837   0.329   1.447   7.434 -0.5315 -0.5693  0.5529
 1703Sol     MW 9838   0.281   1.434   7.359 -0.3791 -0.6416 -0.2898
 1704Sol     OW 9839   0.481   2.584   8.243  0.6330  0.8183  0.6785
 1704Sol     HW 9840   0.457   2.639   8.170  2.4620  1.1102  0.2624
 1704Sol     HW 9841   0.499   2.498   8.204 -0.4694  0.3988  1.0790
 1704Sol     MW 9842   0.481   2.581   8.233 -0.0623  0.5168  0.7348
 1705Sol     OW 9843   1.658   2.819   3.309 -0.0652  0.2044  0.1013
 1705Sol     HW 9844   1.668   2.733   3.268  1.9571  0.3956  0.1286
 1705Sol     HW 9845   1.686   2.882   3.242 -2.3969  0.9451 -0.2432
 1705Sol     MW 9846   1.661   2.817   3.300 -0.3683 -0.5368  0.5277
 1706Sol     OW 9847   3.031   0.763   4.344  0.0541 -0.2993  0.0292
 1706Sol     HW 9848   3.111   0.775   4.292  1.0527 -0.0014  1.5772
 1706Sol     HW 9849   3.042   0.824   4.418 -2.0900  0.4948 -0.2860
 1706Sol     MW 9850   3.039   0.770   4.346  0.1503 -0.6440 -0.1086
 1707Sol     OW 9851   1.428   0.743   2.629  0.5389  0.1156 -0.2999
 1707Sol     HW 9852   1.485   0.820   2.617 -0.7692  1.0341 -0.6720
 1707Sol     HW 9853   1.464   0.678   2.568  2.4185 -0.0241  0.9082
 1707Sol     MW 9854   1.437   0.744   2.622  0.1130  0.2140 -0.0779
 1708Sol     OW 9855   1.340   2.333   6.095  0.0571  0.4268 -0.1379
 1708Sol     HW 9856   1.302   2.334   6.182 -1.0893  0.7106 -0.6365
 1708Sol     HW 9857   1.433   2.314   6.110 -0.2332 -0.0906  1.0948
 1708Sol     MW 9858   1.345   2.331   6.104  0.5315 -0.4078 -0.4154
 1709Sol     OW 9859   1.908   1.512   8.392  0.6185 -0.1305 -0.0059
 1709Sol     HW 9860   1.972   1.511   8.463  0.4790  2.0292  0.1900
 1709Sol     HW 9861   1.828   1.477   8.432  0.7575  0.3135  0.6790
 1709Sol     MW 9862   1.907   1.509   8.402 -0.4509 -0.1099  0.6559
 1710Sol     OW 9863   1.321   0.583   4.324  0.2515  0.0608 -0.8495
 1710Sol     HW 9864   1.363   0.667   4.308 -1.1433  0.5804 -1.9420
 1710Sol     HW 9865   1.361   0.550   4.405  1.4121  1.3632 -0.8830
 1710Sol     MW 9866   1.328   0.587   4.330  0.0077  0.3451  0.0661
 1711Sol     OW 9867   2.458   1.060   5.589  0.1886 -0.0177  0.2372
 1711Sol     HW 9868   2.489   1.134   5.641 -0.9126  0.4567  0.2464
 1711Sol     HW 9869   2.409   1.099   5.517  2.7006 -0.6317 -1.8867
 1711Sol     MW 9870   2.456   1.070   5.587 -0.3308  0.0121  0.7207
 1712Sol     OW 9871   0.607   0.083   3.637 -0.2152  0.3472 -0.3063
 1712Sol     HW 9872   0.564   0.029   3.703  0.3057  1.3488  0.8827
 1712Sol     HW 9873   0.700   0.071   3.653 -0.0920  1.2647 -0.2999
 1712Sol     MW 9874   0.611   0.077   3.644 -0.1148 -0.6351 -0.2465
 1713Sol     OW 9875   2.046   1.408   9.281 -0.1224 -0.0551 -0.2224
 1713Sol     HW 9876   2.116   1.348   9.254  1.0832  0.9655  0.5882
 1713Sol     HW 9877   1.999   1.360   9.349 -0.5137 -0.9261 -1.0848
 1713Sol     MW 9878   2.048   1.398   9.284  0.3883 -0.6833 -0.4522
 1714Sol     OW 9879   1.918   0.599   2.037  0.1173  0.3746 -0.2540
 1714Sol     HW 9880   2.004   0.612   2.076 -0.0153  1.1649 -0.2278
 1714Sol     HW 9881   1.936   0.589   1.943  0.2640  0.1964 -0.2083
 1714Sol     MW 9882   1.927   0.599   2.032 -0.1281 -0.5859  0.1275
 1715Sol     OW 9883   1.245   1.998   5.642 -0.3600 -0.4602  0.1180
 1715Sol     HW 9884   1.166   2.026   5.595 -0.0141  0.8881  0.3249
 1715Sol     HW 9885   1.230   2.022   5.733 -0.0235 -0.8911  0.2933
 1715Sol     MW 9886   1.237   2.003   5.646  0.9055 -0.0182 -0.1641
 1716Sol     OW 9887   1.098   2.388   7.936  0.2298 -0.5601 -0.1417
 1716Sol     HW 9888   1.009   2.398   7.972 -1.0557  0.6245 -3.4909
 1716Sol     HW 9889   1.142   2.470   7.958 -0.3189 -0.1341 -0.6153
 1716Sol     MW 9890   1.094   2.396   7.941  0.6120  1.2868 -0.4452
 1717Sol     OW 9891   0.482   1.162   2.934  0.0274  0.2019 -0.1277
 1717Sol     HW 9892   0.494   1.158   2.839  2.3125  0.0788  0.1283
 1717Sol     HW 9893   0.518   1.079   2.966 -3.7762 -1.2772  0.6210
 1717Sol     MW 9894   0.486   1.154   2.928 -0.0593  0.3168 -0.2392
 1718Sol     OW 9895   0.687   1.199   2.225  0.3367 -0.4372 -0.4797
 1718Sol     HW 9896   0.701   1.105   2.237  0.0021 -0.3586  0.5576
 1718Sol     HW 9897   0.593   1.211   2.231  0.4313  0.0538  0.0219
 1718Sol     MW 9898   0.680   1.192   2.226 -0.6710  0.1970 -0.3278
 1719Sol     OW 9899   1.531   2.650   6.214  0.0342  0.4668  0.5416
 1719Sol     HW 9900   1.560   2.664   6.305 -2.3231  1.9719  1.1071
 1719Sol     HW 9901   1.600   2.688   6.161 -0.5217  3.4253  1.8433
 1719Sol     MW 9902   1.540   2.654   6.218  0.0274  1.2242  0.4695
 1720Sol     OW 9903   3.171   2.153   8.698 -0.0176  0.2139 -0.0244
 1720Sol     HW 9904   3.147   2.232   8.649  0.2138  0.4451  0.2341
 1720Sol     HW 9905   3.118   2.084   8.659 -1.4361  0.7921  0.7972
 1720Sol     MW 9906   3.164   2.154   8.690 -0.1338 -0.2967  0.1971
 1721Sol     OW 9907   1.279   3.235   7.257 -0.3369  0.2292  0.0262
 1721Sol     HW 9908   1.225   3.161   7.233 -0.0258 -0.1925  0.6189
 1721Sol     HW 9909   1.281   3.234   7.353  0.3441  0.5081  0.0198
 1721Sol     MW 9910   1.275   3.229   7.263 -0.6261 -0.0290 -0.1552
 1722Sol     OW 9911   1.483   2.496   4.570 -0.7416  0.0117  0.8721
 1722Sol     HW 9912   1.401   2.469   4.529  0.0176 -2.9531  1.1850
 1722Sol     HW 9913   1.472   2.475   4.663  0.6080 -1.1211  0.7965
 1722Sol     MW 9914   1.475   2.492   4.575  0.1764  0.8371 -1.1406
 1723Sol     OW 9915   0.734   0.036   6.215  0.1867 -0.0472 -0.7306
 1723Sol     HW 9916   0.804  -0.019   6.180 -1.1909 -1.8985 -0.6760
 1723Sol     HW 9917   0.663   0.027   6.151 -0.3042  1.1095 -0.3504
 1723Sol     MW 9918   0.734   0.030   6.206  0.2595 -0.3944  1.2225
 1724Sol     OW 9919   1.755   3.099   4.152  0.3697  0.3673  0.5873
 1724Sol     HW 9920   1.744   3.193   4.166 -0.3567  0.3196  0.3832
 1724Sol     HW 9921   1.686   3.077   4.089 -0.9312 -0.7329  2.3495
 1724Sol     MW 9922   1.748   3.105   4.147  0.1468  0.4744 -0.1207
 1725Sol     OW 9923   2.238   2.854   7.907  0.3207  0.2761  0.2792
 1725Sol     HW 9924   2.154   2.864   7.951 -0.1629  0.7046 -0.7197
 1725Sol     HW 9925   2.247   2.933   7.853  0.4545 -0.6596 -1.1158
 1725Sol     MW 9926   2.231   2.862   7.906 -0.8527 -0.3180 -0.5668
 1726Sol     OW 9927   2.737   1.972   2.035 -0.7704 -0.6623 -0.2352
 1726Sol     HW 9928   2.650   1.939   2.011 -1.3574  1.3088 -0.9093
 1726Sol     HW 9929   2.745   1.953   2.128 -2.5696  0.4876  0.1856
 1726Sol     MW 9930   2.730   1.968   2.041 -0.3357  0.1625  0.0584
 1727Sol     OW 9931   0.155   0.735   9.022 -0.4026 -0.8281 -0.0825
 1727Sol     HW 9932   0.137   0.652   8.979  2.1776 -1.4545 -0.0263
 1727Sol     HW 9933   0.155   0.800   8.952 -0.2169 -1.2154 -0.4363
 1727Sol     MW 9934   0.154   0.734   9.012 -1.1764 -0.8564  0.4671
 1728Sol     OW 9935   0.626   2.737   6.831  0.2402  0.1108  0.2229
 1728Sol     HW 9936   0.600   2.678   6.761 -1.2466 -0.3804  1.1651
 1728Sol     HW 9937   0.545   2.780   6.858  1.0183  1.2918  0.7248
 1728Sol     MW 9938   0.617   2.735   6.827  0.5853 -0.0459  0.4143
 1729Sol     OW 9939   0.789   1.007   7.830 -0.2574 -0.7357  0.5242
 1729Sol     HW 9940   0.806   0.977   7.920  2.7818 -0.7766 -0.0122
 1729Sol     HW 9941   0.830   1.093   7.826 -0.2825 -0.7886 -0.8865
 1729Sol     MW 9942   0.794   1.012   7.838  0.3561 -0.0632  1.0753
 1730Sol     OW 9943   1.845   0.390   7.922  0.1602  0.1454  0.1452
 1730Sol     HW 9944   1.929   0.362   7.886  0.3797  1.8434 -0.7455
 1730Sol     HW 9945   1.801   0.309   7.949  0.8712 -1.0000 -2.0391
 1730Sol     MW 9946   1.849   0.380   7.921 -1.0103 -0.2094  0.2474
 1731Sol     OW 9947   3.187   0.750   3.929  0.4478  0.1584 -0.3273
 1731Sol     HW 9948   3.277   0.747   3.962  0.0916  1.1955  0.7728
 1731Sol     HW 9949   3.177   0.837   3.892  0.9810 -1.1345 -3.7230
 1731Sol     MW 9950   3.194   0.757   3.929  0.6409 -0.6381  0.8591
 1732Sol     OW 9951   0.318   1.513   9.416 -0.4212 -0.2936  0.6310
 1732Sol     HW 9952   0.373   1.591   9.419 -0.8546  0.0778 -0.6857
 1732Sol     HW 9953   0.234   1.544   9.382 -0.6856 -1.2898  0.3493
 1732Sol     MW 9954   0.315   1.523   9.414 -0.6325  1.0084 -0.5957
 1733Sol     OW 9955   2.936   0.413   4.487 -0.0173 -0.1330  0.1200
 1733Sol     HW 9956   2.844   0.409   4.460  0.1115  0.1053 -0.3678
 1733Sol     HW 9957   2.984   0.384   4.410  0.2882 -0.9335  0.6019
 1733Sol     MW 9958   2.932   0.410   4.478  0.0203  0.1610 -0.7306
 1734Sol     OW 9959   0.405   2.839   6.937 -0.1856 -0.8781  0.1069
 1734Sol     HW 9960   0.327   2.788   6.919 -0.9202  0.4807 -0.6961
 1734Sol     HW 9961   0.395   2.870   7.027 -0.8388 -0.2748 -0.1680
 1734Sol     MW 9962   0.397   2.837   6.943  0.2615 -1.3236 -0.0488
 1735Sol     OW 9963   2.837   1.160   4.654  0.2216 -0.1565  0.1318
 1735Sol     HW 9964   2.764   1.189   4.708  0.3290  0.3837 -0.0076
 1735Sol     HW 9965   2.805   1.168   4.564  0.7765  1.0337  0.0221
 1735Sol     MW 9966   2.828   1.164   4.651  0.2475 -0.3209  0.0202
 1736Sol     OW 9967   0.583   2.799   8.612 -0.2602 -0.4164 -0.2350
 1736Sol     HW 9968   0.546   2.879   8.574 -2.2596 -0.4822  1.5267
 1736Sol     HW 9969   0.656   2.829   8.665  0.7537 -0.0553 -1.7938
 1736Sol     MW 9970   0.586   2.809   8.613 -0.6980 -0.7096 -0.8242
 1737Sol     OW 9971   1.227   0.949   2.863 -0.3648  0.2956 -0.0986
 1737Sol     HW 9972   1.202   0.882   2.800  0.8598 -0.4406  0.1747
 1737Sol     HW 9973   1.289   1.004   2.815 -0.8074  0.8061 -0.0904
 1737Sol     MW 9974   1.231   0.948   2.853 -0.6690  0.6868  0.4363
 1738Sol     OW 9975   3.300   0.454   8.610 -0.2042  0.0116  0.3175
 1738Sol     HW 9976   3.228   0.514   8.627 -0.9727 -1.6982  3.5490
 1738Sol     HW 9977   3.257   0.376   8.573  0.4014  0.1559 -0.7184
 1738Sol     MW 9978   3.289   0.452   8.608 -0.8974  0.4151 -0.0891
 1739Sol     OW 9979   1.657   0.880   8.728  0.1866 -0.3043 -0.2373
 1739Sol     HW 9980   1.710   0.920   8.659 -0.1589 -0.8690 -0.8286
 1739Sol     HW 9981   1.591   0.947   8.749  2.8073  1.5385  2.4748
 1739Sol     MW 9982   1.656   0.890   8.723  0.0481  0.2957  0.8029
 1740Sol     OW 9983   1.856   2.805   8.429  0.9520  0.1845 -0.5973
 1740Sol     HW 9984   1.861   2.837   8.519 -0.4220 -1.0741 -0.0730
 1740Sol     HW 9985   1.933   2.843   8.387  1.2835  1.2815  0.9379
 1740Sol     MW 9986   1.864   2.812   8.433  0.0529 -0.1280  0.5452
 1741Sol     OW 9987   2.503   1.685   7.257  0.1258  0.3113 -0.3608
 1741Sol     HW 9988   2.432   1.671   7.320 -0.5227  0.4581 -1.0609
 1741Sol     HW 9989   2.582   1.692   7.312 -0.1860 -1.3073  0.3199
 1741Sol     MW 9990   2.504   1.684   7.268 -0.6407 -0.0090  0.0713
 1742Sol     OW 9991   2.451   2.814   4.721  0.1537  0.0132 -0.5557
 1742Sol     HW 9992   2.372   2.842   4.675  0.3067  0.7666 -0.3638
 1742Sol     HW 9993   2.428   2.729   4.758 -0.6594  0.3485 -0.2793
 1742Sol     MW 9994   2.442   2.809   4.721  0.9909  0.2374  0.2084
 1743Sol     OW 9995   0.325   1.600   7.857  0.3705 -0.3821 -0.1711
 1743Sol     HW 9996   0.419   1.610   7.876  0.7968 -0.6218 -2.0426
 1743Sol     HW 9997   0.281   1.636   7.934  2.0042 -0.7424  0.9655
 1743Sol     MW 9998   0.330   1.604   7.865  0.7607 -0.7313 -0.6235
 1744Sol     OW 9999   1.582   2.906   2.488 -0.0635 -0.0171  0.2473
 1744Sol     HW10000   1.612   2.977   2.544  0.7739  1.0634 -1.5060
 1744Sol     HW10001   1.654   2.842   2.489  0.5778  0.6627 -0.6787
 1744Sol     MW10002   1.591   2.906   2.493  0.0756 -1.0429 -0.8967
 1745Sol     OW10003   3.145   3.137   8.940 -0.1325  0.4985 -0.1582
 1745Sol     HW10004   3.111   3.139   9.030 -2.0560  1.2581 -0.8770
 1745Sol     HW10005   3.148   3.044   8.917 -0.4723  0.3521  0.3776
 1745Sol     MW10006   3.143   3.129   8.946 -0.0689  0.0113  0.3937
 1746Sol     OW10007   1.111   1.998   7.284  0.3665 -0.5603  0.1130
 1746Sol     HW10008   1.043   1.933   7.268  1.0867 -1.5106  0.8446
 1746Sol     HW10009   1.193   1.953   7.261  0.7523  0.6323 -0.9582
 1746Sol     MW10010   1.112   1.988   7.280 -0.2733 -0.7633  0.1742
 1747Sol     OW10011   1.735   0.295   6.598  0.1248  0.7773  0.4794
 1747Sol     HW10012   1.825   0.313   6.572 -0.4278  0.2951 -1.8580
 1747Sol     HW10013   1.738   0.206   6.634  0.4185  0.4156 -0.4357
 1747Sol     MW10014   1.743   0.289   6.599 -0.0957 -0.1552  0.9057
 1748Sol     OW10015   0.550   2.769   6.160 -0.2754 -0.0848 -0.3557
 1748Sol     HW10016   0.567   2.754   6.253  1.8032 -0.3503 -0.7591
 1748Sol     HW10017   0.616   2.833   6.134 -2.1897  1.6295 -1.1765
 1748Sol     MW10018   0.557   2.774   6.166 -0.4401  0.0482 -0.0317
 1749Sol     OW10019   3.224   0.360   7.768 -0.7032 -0.8557  0.3295
 1749Sol     HW10020   3.302   0.353   7.823 -1.1226  1.0881  1.2125
 1749Sol     HW10021   3.247   0.423   7.701 -1.0629 -1.3007 -0.2155
 1749Sol     MW10022   3.233   0.365   7.767 -0.5462  0.2100 -0.7255
 1750Sol     OW10023   2.282   1.084   7.216 -0.7274 -0.0043  0.5994
 1750Sol     HW10024   2.350   1.017   7.226 -1.4609 -0.8469 -0.0793
 1750Sol     HW10025   2.213   1.058   7.277  0.0638  1.5148  2.1748
 1750Sol     MW10026   2.282   1.076   7.222 -0.5487 -0.4794  0.4294
 1751Sol     OW10027   0.441   3.156   2.007 -0.2547 -0.0346 -0.0435
 1751Sol     HW10028   0.357   3.131   2.045  0.7985 -1.9043  1.1110
 1751Sol     HW10029   0.418   3.211   1.932 -2.4293  1.6556  1.8057
 1751Sol     MW10030   0.431   3.159   2.004 -0.1956 -0.5150 -0.5303
 1752Sol     OW10031   1.003   1.098   4.580  0.3372 -0.2938  0.3752
 1752Sol     HW10032   1.035   1.127   4.495 -0.3941  2.0214  0.8610
 1752Sol     HW10033   0.908   1.106   4.575  0.2926  0.0092  1.4505
 1752Sol     MW10034   0.997   1.102   4.572  0.9021  0.7280  0.0234
 1753Sol     OW10035   3.118   1.280   1.604 -0.4188 -0.5225  0.1999
 1753Sol     HW10036   3.167   1.261   1.684 -2.0138 -1.2202  1.0386
 1753Sol     HW10037   3.087   1.370   1.616  1.4701  0.2864 -0.7822
 1753Sol     MW10038   3.119   1.287   1.612  0.1434 -0.4393  0.4687
 1754Sol     OW10039   0.645   1.577   5.754 -0.0127  0.5267 -0.0836
 1754Sol     HW10040   0.627   1.623   5.836  1.6411  1.3068 -0.1291
 1754Sol     HW10041   0.740   1.571   5.750 -0.1489 -1.5640 -0.8442
 1754Sol     MW10042   0.652   1.581   5.761 -0.0369  0.3703 -1.3447
 1755Sol     OW10043   1.116   0.881   5.137 -0.5951 -0.0193  0.0477
 1755Sol     HW10044   1.122   0.924   5.051 -0.0505 -1.1826 -0.5085
 1755Sol     HW10045   1.074   0.946   5.193  0.3159  1.2781 -0.7447
 1755Sol     MW10046   1.113   0.891   5.134 -1.4393 -0.6475  0.4592
 1756Sol     OW10047   3.095   0.468   3.238  0.0680  0.1929 -0.3688
 1756Sol     HW10048   3.084   0.373   3.235 -1.6126  0.3229  0.7149
 1756Sol     HW10049   3.105   0.488   3.331  1.1025  1.0179 -0.6465
 1756Sol     MW10050   3.095   0.461   3.246 -1.1450 -0.4805  0.3373
 1757Sol     OW10051   3.055   0.041   1.872  0.4868  0.3120 -0.3638
 1757Sol     HW10052   3.104  -0.039   1.891  0.9115  0.0489 -2.4107
 1757Sol     HW10053   3.113   0.112   1.901  0.5607 -0.1015  0.4885
 1757Sol     MW10054   3.065   0.040   1.876  0.0739  0.4234  0.0605
 1758Sol     OW10055   0.328   1.857   5.479  0.4649  0.2262  0.0324
 1758Sol     HW10056   0.249   1.803   5.476  0.4463  0.1095  2.0274
 1758Sol     HW10057   0.299   1.944   5.450 -0.1097 -0.1096 -0.4250
 1758Sol     MW10058   0.318   1.860   5.476  0.9894  0.5818 -0.8643
 1759Sol     OW10059   3.148   0.613   9.867 -0.1003 -0.3976 -0.3039
 1759Sol     HW10060   3.119   0.547   9.929  0.7292 -0.5892 -0.1175
 1759Sol     HW10061   3.097   0.595   9.787 -0.1696 -1.0059 -0.1255
 1759Sol     MW10062   3.140   0.606   9.865 -0.5079  0.4425  0.8049
 1760Sol     OW10063   2.919   2.005   3.719 -0.0823  0.2374 -0.3188
 1760Sol     HW10064   2.859   1.934   3.740  2.1553 -1.7235 -0.3112
 1760Sol     HW10065   2.876   2.053   3.649 -1.4391 -1.4473 -0.6702
 1760Sol     MW10066   2.910   2.003   3.714 -0.2926 -0.7863  0.5918
 1761Sol     OW10067   1.873   3.094   7.074 -0.3570 -0.3565 -0.1281
 1761Sol     HW10068   1.873   3.108   7.168  1.3518  1.4899 -0.3740
 1761Sol     HW10069   1.930   3.162   7.039 -1.3511 -0.6995 -2.5517
 1761Sol     MW10070   1.878   3.101   7.079  0.1000 -1.5805  0.5150
 1762Sol     OW10071   3.103   0.148   2.234 -0.5545  0.4736 -0.3552
 1762Sol     HW10072   3.171   0.141   2.301 -0.8381  1.2245  0.0204
 1762Sol     HW10073   3.151   0.159   2.153 -0.2039 -0.5972 -0.3000
 1762Sol     MW10074   3.114   0.148   2.233 -1.0973 -1.3324 -0.3626
 1763Sol     OW10075   2.529   2.598   5.095  0.2805 -0.5205  0.0797
 1763Sol     HW10076   2.486   2.601   5.010 -0.1345  1.9056  0.3406
 1763Sol     HW10077   2.561   2.687   5.109 -1.1348 -0.4339  3.1981
 1763Sol     MW10078   2.528   2.607   5.089 -0.2805  0.8109 -0.6463
 1764Sol     OW10079   0.708   0.955   3.314 -0.0485 -0.4805 -0.7373
 1764Sol     HW10080   0.731   1.036   3.360 -0.8771  0.7475 -2.4384
 1764Sol     HW10081   0.613   0.947   3.325  0.1992 -1.9051  0.4881
 1764Sol     MW10082   0.702   0.962   3.319 -0.3025 -0.2220  0.1229
 1765Sol     OW10083   1.230   2.512   4.446 -0.2684  0.0744 -0.1198
 1765Sol     HW10084   1.272   2.495   4.362  0.6205 -3.4308  0.9578
 1765Sol     HW10085   1.162   2.445   4.453 -0.8021  0.7665  1.6687
 1765Sol     MW10086   1.227   2.504   4.439  0.5283 -0.0331 -0.4180
 1766Sol     OW10087   2.176   1.353   8.011  0.4200  0.6996 -0.0317
 1766Sol     HW10088   2.245   1.407   7.973  1.7442 -0.0457  1.2606
 1766Sol     HW10089   2.220   1.273   8.038 -0.8041  0.5137  1.5076
 1766Sol     MW10090   2.186   1.351   8.010  0.0618  0.1761  0.5742
 1767Sol     OW10091   3.254   0.037   8.597  0.4679  0.5921 -0.3277
 1767Sol     HW10092   3.201  -0.015   8.657 -0.0092 -1.4342 -2.4124
 1767Sol     HW10093   3.344   0.026   8.628  0.3210 -1.1759 -0.4964
 1767Sol     MW10094   3.257   0.031   8.605  0.7242 -0.1198  0.5549
 1768Sol     OW10095   2.222   3.406   1.886 -0.3520  0.0182  0.0801
 1768Sol     HW10096   2.273   3.349   1.828  1.0350  2.5619 -1.2926
 1768Sol     HW10097   2.165   3.346   1.934 -0.4834 -2.3421 -2.8439
 1768Sol     MW10098   2.221   3.395   1.885  0.2974 -0.6119 -0.2779
 1769Sol     OW10099   1.249   0.474   5.198  0.4632 -0.5911 -0.4786
 1769Sol     HW10100   1.335   0.438   5.176  0.4849  0.0174 -1.4108
 1769Sol     HW10101   1.230   0.536   5.128  0.2318  0.8973  0.8644
 1769Sol     MW10102   1.255   0.476   5.190  0.4981 -0.1490 -0.3380
 1770Sol     OW10103   1.829   0.309   3.137 -0.4758  0.1399 -0.1969
 1770Sol     HW10104   1.885   0.384   3.117 -0.7955  0.5501  0.4422
 1770Sol     HW10105   1.876   0.262   3.206 -0.6108  0.1385 -0.1055
 1770Sol     MW10106   1.838   0.311   3.141 -0.2068 -0.6296 -0.5474
 1771Sol     OW10107   2.462   0.056   4.011 -0.0173 -0.6151 -0.2864
 1771Sol     HW10108   2.518  -0.002   4.063 -0.3906  0.9768  1.9390
 1771Sol     HW10109   2.520   0.128   3.986 -0.3237 -0.4459 -0.4965
 1771Sol     MW10110   2.473   0.057   4.014  0.7047  0.8220 -0.3377
 1772Sol     OW10111   0.901   0.459   4.623  0.5328  0.5505  0.1708
 1772Sol     HW10112   0.988   0.420   4.624  0.7044  0.8308 -2.0896
 1772Sol     HW10113   0.916   0.554   4.622  0.2190  0.5963 -0.6872
 1772Sol     MW10114   0.910   0.464   4.623  0.1769  0.2990  0.2889
 1773Sol     OW10115   2.660   1.483   2.509  0.1412 -0.0916  0.7957
 1773Sol     HW10116   2.722   1.533   2.456  1.6988 -1.8074  0.9449
 1773Sol     HW10117   2.590   1.545   2.528  1.4405  1.6848 -0.0169
 1773Sol     MW10118   2.660   1.493   2.506  0.9050  0.1307 -0.4725
 1774Sol     OW10119   2.290   2.542   2.467 -0.0352  0.4743 -0.6078
 1774Sol     HW10120   2.253   2.504   2.547  1.7639  1.8370  0.9341
 1774Sol     HW10121   2.236   2.619   2.450  0.4653  1.0109  0.1685
 1774Sol     MW10122   2.282   2.546   2.473  0.4224  0.7414  1.0280
 1775Sol     OW10123   2.717   0.421   1.988 -0.1717 -0.2790  0.2591
 1775Sol     HW10124   2.757   0.461   2.066 -0.3571  0.3868  0.0154
 1775Sol     HW10125   2.687   0.335   2.018  1.8813 -0.9972  0.3339
 1775Sol     MW10126   2.718   0.417   1.998 -0.0257 -0.0111 -0.8002
 1776Sol     OW10127   1.968   1.570   2.219 -0.1199  0.3518 -0.4224
 1776Sol     HW10128   1.978   1.652   2.170 -0.0977  0.6202  0.0273
 1776Sol     HW10129   1.874   1.552   2.218 -0.1261  0.3859 -0.5108
 1776Sol     MW10130   1.961   1.576   2.215 -0.0474  0.5977  0.4750
 1777Sol     OW10131   0.775   0.416   6.072 -0.0258  0.6789 -0.4023
 1777Sol     HW10132   0.758   0.367   6.153  0.6240 -0.0483 -0.6932
 1777Sol     HW10133   0.802   0.348   6.010  1.2649  1.4651 -0.7079
 1777Sol     MW10134   0.775   0.405   6.074 -0.2197 -0.4514  0.1219
 1778Sol     OW10135   0.360   0.451   1.751  0.7969  0.0238 -0.2101
 1778Sol     HW10136   0.296   0.444   1.680  1.0900 -1.7961 -0.3377
 1778Sol     HW10137   0.399   0.537   1.740 -1.7321  1.2488 -0.0476
 1778Sol     MW10138   0.357   0.458   1.744  0.2981  0.0215 -0.3825
 1779Sol     OW10139   2.098   1.354   7.026 -0.4350  0.3898 -0.5710
 1779Sol     HW10140   2.135   1.433   6.988  0.3117  0.4552  0.2839
 1779Sol     HW10141   2.154   1.283   6.994  1.6397  0.6844  2.2522
 1779Sol     MW10142   2.106   1.355   7.020 -0.3179 -0.8262 -0.4960
 1780Sol     OW10143   3.044   2.647   4.568 -0.0596 -0.0780 -0.7051
 1780Sol     HW10144   3.031   2.552   4.557 -0.3482 -0.4338  2.2014
 1780Sol     HW10145   2.957   2.685   4.554 -1.0752 -0.8180  3.0507
 1780Sol     MW10146   3.035   2.641   4.566 -0.1720 -0.5361  0.0386
 1781Sol     OW10147   2.761   1.303   3.906  1.1398 -0.6863 -0.1303
 1781Sol     HW10148   2.777   1.302   4.000  2.0901 -0.0789 -0.2795
 1781Sol     HW10149   2.705   1.380   3.892  0.9351 -0.8215 -0.0502
 1781Sol     MW10150   2.757   1.310   3.913  0.6164 -0.4647  0.7155
 1782Sol     OW10151   2.696   2.445   6.563 -0.5095 -0.6732  0.2972
 1782Sol     HW10152   2.768   2.390   6.592 -1.0190 -1.7953 -0.5537
 1782Sol     HW10153   2.738   2.525   6.531  0.5239 -2.0552 -1.9436
 1782Sol     MW10154   2.706   2.448   6.563  0.0921 -1.3825 -0.3483
 1783Sol     OW10155   0.709   3.419   8.816 -0.7282  0.4324 -0.5350
 1783Sol     HW10156   0.669   3.403   8.731  0.0674  1.7019 -1.1571
 1783Sol     HW10157   0.733   3.512   8.815  1.8123 -0.1658 -0.0341
 1783Sol     MW10158   0.708   3.426   8.808 -0.1086 -0.2245  0.0438
 1784Sol     OW10159   1.412   2.026   6.769 -0.2887 -0.2409 -0.0811
 1784Sol     HW10160   1.324   2.062   6.760 -0.0425  0.3933 -0.0127
 1784Sol     HW10161   1.403   1.954   6.832 -0.6315  0.2797  0.4715
 1784Sol     MW10162   1.403   2.023   6.774 -0.2162 -0.8761  0.2509
 1785Sol     OW10163   2.199   1.627   4.079 -0.4830  0.6872  0.1735
 1785Sol     HW10164   2.114   1.665   4.058 -0.1255  3.1312  2.7939
 1785Sol     HW10165   2.184   1.576   4.159 -0.0439 -1.2519 -0.9375
 1785Sol     MW10166   2.190   1.626   4.085  0.9528  1.2998 -0.1253
 1786Sol     OW10167   0.119   2.450   5.331 -0.0257 -0.2427 -0.6154
 1786Sol     HW10168   0.179   2.476   5.400 -0.6006  0.9540 -0.5581
 1786Sol     HW10169   0.082   2.532   5.298 -1.8935 -0.9522 -0.3889
 1786Sol     MW10170   0.121   2.460   5.334  0.3539 -0.4513 -0.4779
 1787Sol     OW10171   0.165   0.056   5.294  0.3369 -0.0986 -0.0234
 1787Sol     HW10172   0.133   0.121   5.232  1.7823  1.6406  0.9823
 1787Sol     HW10173   0.259   0.073   5.299  0.5347 -1.4775  1.1811
 1787Sol     MW10174   0.171   0.063   5.289  0.4779  0.2270  0.8977
 1788Sol     OW10175   1.053   3.317   4.690  0.3504 -0.1202  0.6016
 1788Sol     HW10176   1.025   3.242   4.637 -0.0311  0.5556 -0.1758
 1788Sol     HW10177   1.093   3.377   4.627  0.7659  0.2703  1.2344
 1788Sol     MW10178   1.054   3.316   4.679 -0.5210 -0.4724 -1.2264
 1789Sol     OW10179   1.663   0.193   2.106  0.2203 -0.0341  0.6051
 1789Sol     HW10180   1.734   0.257   2.106 -0.2901  0.5443  0.8892
 1789Sol     HW10181   1.707   0.108   2.114  0.9548  0.2123 -0.6143
 1789Sol     MW10182   1.673   0.191   2.107 -0.6185 -0.2359  0.2150
 1790Sol     OW10183   2.155   2.533   7.692 -0.1255  0.5687  0.4968
 1790Sol     HW10184   2.148   2.437   7.696  0.2002  0.5719  1.1741
 1790Sol     HW10185   2.098   2.558   7.619  0.3195 -0.1980 -0.1204
 1790Sol     MW10186   2.149   2.526   7.686 -0.4059  0.8167  0.1844
 1791Sol     OW10187   0.252   0.683   5.359  0.7390  0.2933  0.9048
 1791Sol     HW10188   0.318   0.617   5.379  0.1675 -0.1923  1.1967
 1791Sol     HW10189   0.218   0.710   5.444  0.4534  0.4349  0.7483
 1791Sol     MW10190   0.255   0.680   5.368 -0.8618 -0.8214 -0.5092
 1792Sol     OW10191   1.160   2.639   7.589 -0.4662 -0.3772 -0.4796
 1792Sol     HW10192   1.191   2.685   7.511 -2.8961 -0.1389 -1.3541
 1792Sol     HW10193   1.126   2.708   7.646  1.9781 -0.4745  1.1635
 1792Sol     MW10194   1.160   2.649   7.587  0.3231 -0.0699  0.7264
 1793Sol     OW10195   2.850   2.860   4.189 -0.5570 -0.3402 -0.0296
 1793Sol     HW10196   2.765   2.871   4.146 -0.3123 -0.8515 -0.6612
 1793Sol     HW10197   2.871   2.946   4.225 -0.3841  0.3182 -1.6583
 1793Sol     MW10198   2.844   2.868   4.188 -0.2644 -0.2910 -0.2526
 1794Sol     OW10199   0.639   1.935   6.906 -0.5066 -0.4373  0.2926
 1794Sol     HW10200   0.580   1.936   6.831 -0.4568  0.7765  0.2636
 1794Sol     HW10201   0.721   1.900   6.871 -0.1143  1.2368 -0.5105
 1794Sol     MW10202   0.641   1.932   6.896  0.7501 -0.3290  0.2252
 1795Sol     OW10203   1.264   3.117   4.006  0.0241  0.3043 -0.3497
 1795Sol     HW10204   1.279   3.038   4.057 -0.2254 -0.5412 -1.5580
 1795Sol     HW10205   1.210   3.088   3.932  1.3070  1.2803 -1.6991
 1795Sol     MW10206   1.260   3.108   4.004 -1.2573 -0.5256  0.4575
 1796Sol     OW10207   0.883   2.872   6.733  0.2246 -0.2701  0.2196
 1796Sol     HW10208   0.793   2.843   6.748  0.0833  0.2080  0.3021
 1796Sol     HW10209   0.874   2.960   6.698  0.6103 -0.6877 -0.9879
 1796Sol     MW10210   0.874   2.877   6.731  0.1534  0.6143 -0.5975
 1797Sol     OW10211   2.304   0.360   8.094 -0.4093 -0.0192  0.1074
 1797Sol     HW10212   2.227   0.404   8.059 -0.2052  1.0490  0.9604
 1797Sol     HW10213   2.279   0.337   8.184 -0.2049 -0.8734 -0.0520
 1797Sol     MW10214   2.295   0.362   8.099 -0.3825  0.3674 -0.1540
 1798Sol     OW10215   2.482   1.254   8.427  0.5678 -0.8154 -0.8300
 1798Sol     HW10216   2.418   1.241   8.496 -0.4310  2.6318 -1.0318
 1798Sol     HW10217   2.437   1.227   8.347  0.6824 -1.9320 -0.5248
 1798Sol     MW10218   2.473   1.250   8.426  0.1958  0.4800 -0.2031
 1799Sol     OW10219   1.426   3.414   6.350 -0.2761 -0.0390 -0.1597
 1799Sol     HW10220   1.350   3.457   6.390 -0.8207 -0.0807 -1.1297
 1799Sol     HW10221   1.461   3.357   6.418 -1.9453 -1.0702 -0.1452
 1799Sol     MW10222   1.422   3.413   6.359  0.3155 -0.3588 -0.0042
 1800Sol     OW10223   1.793   3.393   1.971  0.2929  0.1625 -0.0247
 1800Sol     HW10224   1.793   3.339   2.050 -2.0375 -0.5649 -0.4783
 1800Sol     HW10225   1.819   3.333   1.901  0.8916  0.4319 -0.0310
 1800Sol     MW10226   1.795   3.383   1.972  0.4912 -0.1135  0.4765
 1801Sol     OW10227   1.750   1.519   4.106 -0.2631 -0.5103  0.0130
 1801Sol     HW10228   1.658   1.533   4.130  0.5374  0.9637  2.4442
 1801Sol     HW10229   1.794   1.505   4.190  2.0838  1.0654 -0.9057
 1801Sol     MW10230   1.746   1.519   4.116 -0.1680  0.4066  0.5792
 1802Sol     OW10231   1.055   0.175   7.677 -0.0169  0.3127 -0.3933
 1802Sol     HW10232   1.020   0.137   7.596  0.0633 -0.9096  0.1271
 1802Sol     HW10233   1.032   0.267   7.672 -3.9828 -0.5395  0.2638
 1802Sol     MW10234   1.050   0.180   7.669  0.0077  0.4792 -0.4434
 1803Sol     OW10235   1.754   1.286   4.806  0.4609 -0.1567 -0.2153
 1803Sol     HW10236   1.833   1.262   4.855 -0.0862  0.0829  0.8007
 1803Sol     HW10237   1.683   1.279   4.870 -0.3378 -0.3224 -1.1070
 1803Sol     MW10238   1.755   1.283   4.816 -0.0951 -0.3554 -0.6344
 1804Sol     OW10239   0.565   2.593   5.419 -0.2358  0.0272  0.2056
 1804Sol     HW10240   0.634   2.558   5.363 -1.3414 -0.3859 -0.9190
 1804Sol     HW10241   0.513   2.517   5.445 -0.9278  0.4599  0.1187
 1804Sol     MW10242   0.566   2.583   5.416  0.3488 -0.3906 -0.3370
 1805Sol     OW10243   0.672   2.003   5.853  0.3545  0.0699  0.2345
 1805Sol     HW10244   0.750   2.029   5.806 -0.4852  4.6093  1.1286
 1805Sol     HW10245   0.615   1.964   5.787  1.4919  1.1016 -1.3739
 1805Sol     MW10246   0.674   2.002   5.843 -0.3631  0.7219 -0.1005
 1806Sol     OW10247   0.961   1.008   5.858 -0.2022  0.0144 -0.4591
 1806Sol     HW10248   1.023   1.048   5.919 -1.5348  1.6434 -0.1501
 1806Sol     HW10249   0.907   0.951   5.913 -0.0284 -0.1540 -0.4634
 1806Sol     MW10250   0.962   1.006   5.868  0.9601 -0.1875 -0.4568
 1807Sol     OW10251   1.467   1.057   4.972  0.2828 -0.2919  0.1284
 1807Sol     HW10252   1.541   1.022   4.922 -0.1455 -0.1601 -0.6109
 1807Sol     HW10253   1.390   1.032   4.920 -0.2558 -1.2656  1.3779
 1807Sol     MW10254   1.467   1.051   4.963  0.3382  0.3666 -0.2977
 1808Sol     OW10255   0.623   2.329   1.797  0.0237 -0.6618  0.5166
 1808Sol     HW10256   0.591   2.245   1.765  0.1212 -0.4737 -0.0781
 1808Sol     HW10257   0.688   2.356   1.733 -0.7229  0.3484  0.1797
 1808Sol     MW10258   0.626   2.324   1.789  0.7859 -0.0615  0.9354
 1809Sol     OW10259   0.436   1.759   9.444 -0.0596  0.6465  0.2281
 1809Sol     HW10260   0.412   1.820   9.374  1.3397 -0.0764 -0.9029
 1809Sol     HW10261   0.530   1.746   9.433 -0.1555 -0.9034  1.1208
 1809Sol     MW10262   0.442   1.763   9.437 -0.4261  0.1202  0.1046
 1810Sol     OW10263   3.135   1.660   6.990 -0.0176  0.0336  0.3707
 1810Sol     HW10264   3.087   1.598   6.935  0.4469 -1.0502  1.1538
 1810Sol     HW10265   3.163   1.728   6.930 -1.8677  0.2924 -0.2249
 1810Sol     MW10266   3.134   1.660   6.980  0.1242 -0.1300 -0.6009
 1811Sol     OW10267   2.970   2.980   8.158  0.2727  0.0672  0.3529
 1811Sol     HW10268   3.006   3.062   8.122  1.1865  0.9798  3.2482
 1811Sol     HW10269   2.952   2.927   8.080  0.1641  2.7832 -1.5869
 1811Sol     MW10270   2.972   2.983   8.148  0.4619 -0.5137 -0.2991
 1812Sol     OW10271   2.316   0.138   7.867 -0.8415  0.1061  0.1656
 1812Sol     HW10272   2.325   0.094   7.782 -2.9588  0.7482 -0.4210
 1812Sol     HW10273   2.344   0.072   7.931  4.0200  0.6855 -1.1495
 1812Sol     MW10274   2.320   0.128   7.865 -0.5113  0.4687  1.4022
 1813Sol     OW10275   1.366   0.455   7.470  0.2448  0.6571  0.9234
 1813Sol     HW10276   1.426   0.498   7.408 -0.5903 -0.1863 -0.5076
 1813Sol     HW10277   1.365   0.512   7.546  0.4100  2.3272 -0.3023
 1813Sol     MW10278   1.371   0.464   7.471 -0.5011 -0.9741  0.3921
 1814Sol     OW10279   0.995   3.307   9.418 -0.0719 -0.0320  0.1449
 1814Sol     HW10280   0.962   3.377   9.475  1.7892 -0.0747  1.2997
 1814Sol     HW10281   0.933   3.236   9.430 -2.3265  1.5651 -1.4731
 1814Sol     MW10282   0.986   3.307   9.424  1.3260  0.4348  0.8427
 1815Sol     OW10283   0.510   1.361   1.889 -0.2252 -0.7296  0.1914
 1815Sol     HW10284   0.495   1.447   1.850 -0.5600  0.0418  1.9658
 1815Sol     HW10285   0.591   1.372   1.940 -1.1421 -0.9882  1.7387
 1815Sol     MW10286   0.516   1.369   1.890  0.2472 -0.0087 -0.6776
 1816Sol     OW10287   2.960   2.473   6.251 -0.1276 -0.0450  0.1356
 1816Sol     HW10288   3.032   2.465   6.188  0.2810 -0.0256  0.6025
 1816Sol     HW10289   2.997   2.447   6.335 -0.7295 -0.2749  0.3391
 1816Sol     MW10290   2.969   2.470   6.252  0.2875  0.2834  0.5943
 1817Sol     OW10291   1.392   3.314   5.496  0.1200  0.3498 -0.4703
 1817Sol     HW10292   1.446   3.240   5.471  0.2474  0.7020 -1.2540
 1817Sol     HW10293   1.451   3.370   5.548  0.0529 -0.0399  0.0286
 1817Sol     MW10294   1.402   3.313   5.498 -0.6855  0.7385 -0.0119
 1818Sol     OW10295   1.497   3.322   1.962 -0.5156 -0.7233 -0.1734
 1818Sol     HW10296   1.505   3.393   1.898 -3.4699 -0.5202 -0.3573
 1818Sol     HW10297   1.525   3.244   1.915  1.7433  0.1099 -0.2857
 1818Sol     MW10298   1.500   3.322   1.952  0.6671 -0.3109 -0.3092
 1819Sol     OW10299   1.331   2.615   7.329  0.0121  0.3399 -0.2337
 1819Sol     HW10300   1.277   2.651   7.259  1.0032  0.3214 -1.0132
 1819Sol     HW10301   1.343   2.523   7.307  0.0334  0.2502  0.1410
 1819Sol     MW10302   1.328   2.610   7.321 -1.3639  0.0701 -0.3223
 1820Sol     OW10303   2.361   0.429   5.644  0.3187  0.3352  0.5308
 1820Sol     HW10304   2.419   0.469   5.579  1.0541 -2.3325 -0.5356
 1820Sol     HW10305   2.274   0.434   5.605  0.3106  1.4764  0.6960
 1820Sol     MW10306   2.359   0.433   5.634  0.2180  1.2809  0.5856
 1821Sol     OW10307   2.036   2.022   6.968 -0.1445 -0.0586 -0.4984
 1821Sol     HW10308   2.067   1.937   6.999  0.8661  0.6304  0.4121
 1821Sol     HW10309   2.024   2.074   7.047 -1.6188  0.3723 -0.9937
 1821Sol     MW10310   2.038   2.019   6.978 -0.2961 -0.1197 -0.3513
 1822Sol     OW10311   1.283   1.790   3.501  0.1428  0.2648 -0.2121
 1822Sol     HW10312   1.233   1.865   3.533 -0.8085  0.2073 -1.5524
 1822Sol     HW10313   1.321   1.820   3.419  0.9727 -0.2406 -0.0124
 1822Sol     MW10314   1.282   1.799   3.497  0.0966 -0.1935  0.2929
 1823Sol     OW10315   2.872   1.048   6.962 -0.0595  0.1371  0.4601
 1823Sol     HW10316   2.850   1.128   7.011  0.9762  0.6870  0.0504
 1823Sol     HW10317   2.791   0.999   6.959 -0.7767  1.3000  0.5072
 1823Sol     MW10318   2.863   1.051   6.966 -1.2408  0.0616 -0.4286
 1824Sol     OW10319   2.514   2.814   1.772 -0.0266  0.3043  0.0314
 1824Sol     HW10320   2.476   2.888   1.819 -0.5473 -1.2069  2.0509
 1824Sol     HW10321   2.543   2.754   1.840  0.5235 -1.3131 -1.5710
 1824Sol     MW10322   2.514   2.815   1.782 -0.2843  0.1544  0.2327
 1825Sol     OW10323   0.033   0.435   4.115 -0.5944  0.0263 -0.0606
 1825Sol     HW10324   0.030   0.359   4.056 -0.8660 -0.1099  0.1262
 1825Sol     HW10325   0.054   0.398   4.201  1.2459  0.3835 -0.3312
 1825Sol     MW10326   0.035   0.425   4.118 -0.4176  0.9378 -0.4527
 1826Sol     OW10327   3.209   0.579   7.543 -0.8869  0.3097  0.1633
 1826Sol     HW10328   3.241   0.647   7.603  2.8038 -1.6502  0.6015
 1826Sol     HW10329   3.199   0.624   7.459  0.0883  1.7290  0.7907
 1826Sol     MW10330   3.211   0.589   7.541  0.7931  0.2429 -0.1850
 1827Sol     OW10331   0.902   2.281   8.816  0.2913  0.2532  0.4359
 1827Sol     HW10332   0.902   2.221   8.890 -1.3677 -1.5592 -0.9738
 1827Sol     HW10333   0.961   2.240   8.752 -0.3379  0.4473 -0.2760
 1827Sol     MW10334   0.908   2.272   8.817  0.4903  0.2679 -0.8804
 1828Sol     OW10335   1.577   2.829   5.433  0.0556  0.2843 -0.5143
 1828Sol     HW10336   1.597   2.768   5.362 -0.2732 -0.4816  0.0527
 1828Sol     HW10337   1.527   2.778   5.496 -0.7681  1.2993 -0.3260
 1828Sol     MW10338   1.575   2.819   5.432 -0.1528  0.4994 -0.7514
 1829Sol     OW10339   2.704   2.990   8.265 -0.0830  0.0744 -0.0026
 1829Sol     HW10340   2.784   3.016   8.219 -0.2829  1.3883  0.3516
 1829Sol     HW10341   2.637   2.990   8.197 -0.4201  2.2217  0.2803
 1829Sol     MW10342   2.705   2.992   8.255 -0.1340  0.4073 -0.0488
 1830Sol     OW10343   0.504   0.083   3.358  0.5174  0.0797 -0.2015
 1830Sol     HW10344   0.595   0.072   3.331  0.5225 -0.6581  0.0909
 1830Sol     HW10345   0.502   0.050   3.448  0.7223  3.4578  1.1310
 1830Sol     MW10346   0.512   0.079   3.364 -0.2837 -0.1262 -0.8983
 1831Sol     OW10347   1.394   0.273   3.354 -0.4780 -0.6331 -0.1279
 1831Sol     HW10348   1.305   0.260   3.322 -0.7092 -2.2454  1.0541
 1831Sol     HW10349   1.449   0.273   3.276 -1.4352 -0.5042 -0.8005
 1831Sol     MW10350   1.391   0.272   3.344  0.1916 -1.1654  0.5722
 1832Sol     OW10351   1.083   2.262   7.215 -0.3838  0.2845 -0.4237
 1832Sol     HW10352   1.000   2.292   7.253 -0.7373 -1.1991  0.0149
 1832Sol     HW10353   1.086   2.169   7.235  0.9359  0.1252 -1.3007
 1832Sol     MW10354   1.076   2.257   7.220 -0.1274 -0.1975  0.2154
 1833Sol     OW10355   3.181   3.250   1.879  0.0399 -0.2971 -0.0982
 1833Sol     HW10356   3.157   3.202   1.800 -2.6438  2.3022 -0.9655
 1833Sol     HW10357   3.163   3.189   1.950 -1.9475 -1.1213 -1.2583
 1833Sol     MW10358   3.177   3.240   1.878 -0.3192 -0.3859  1.0068
 1834Sol     OW10359   2.025   2.454   7.170 -0.1328  0.2066 -0.3306
 1834Sol     HW10360   2.119   2.440   7.155 -0.3035  0.9908 -2.1454
 1834Sol     HW10361   1.992   2.367   7.192  1.1358  0.0390  1.0440
 1834Sol     MW10362   2.031   2.445   7.171 -1.0442 -0.2259  0.1976
 1835Sol     OW10363   2.238   0.404   1.890  0.3359  0.2050 -0.2442
 1835Sol     HW10364   2.230   0.460   1.966 -0.0976 -1.7163  1.1754
 1835Sol     HW10365   2.281   0.325   1.923 -1.1519 -1.2422 -1.6661
 1835Sol     MW10366   2.242   0.402   1.899  0.1807 -0.1822  0.4390
 1836Sol     OW10367   0.590   1.577   3.006 -0.2513 -0.4980  0.3332
 1836Sol     HW10368   0.685   1.562   3.012 -0.4579 -1.7062  0.5399
 1836Sol     HW10369   0.552   1.514   3.067 -1.3660 -1.9519 -1.8437
 1836Sol     MW10370   0.595   1.570   3.012  0.0095 -0.4089  0.5548
 1837Sol     OW10371   1.293   2.155   5.877  0.4891  0.2513 -0.0254
 1837Sol     HW10372   1.346   2.075   5.886  0.3035  0.0813 -0.4307
 1837Sol     HW10373   1.316   2.207   5.954  1.6442  0.4119 -0.4702
 1837Sol     MW10374   1.300   2.152   5.885 -0.0272 -0.3040 -0.0087
 1838Sol     OW10375   1.452   0.911   9.656 -0.3844  0.1454  0.7266
 1838Sol     HW10376   1.516   0.840   9.652 -0.5558  0.0333 -0.0358
 1838Sol     HW10377   1.484   0.969   9.725  1.0443  0.5663 -0.2614
 1838Sol     MW10378   1.461   0.910   9.662  0.7552 -0.3406  0.5845
 1839Sol     OW10379   0.661   0.581   8.281  0.2471  0.8395 -0.1075
 1839Sol     HW10380   0.609   0.653   8.246  0.3875  0.4544 -1.1232
 1839Sol     HW10381   0.677   0.524   8.206  0.8549  0.1806  0.5109
 1839Sol     MW10382   0.657   0.582   8.271 -0.5408 -0.2224  0.6859
 1840Sol     OW10383   2.269   0.006   8.240  0.0868  0.3302 -0.2630
 1840Sol     HW10384   2.219   0.054   8.174 -0.5064  0.9267  0.6060
 1840Sol     HW10385   2.219   0.019   8.321  1.0563 -0.0048  0.3882
 1840Sol     MW10386   2.260   0.012   8.241 -0.1447 -0.2364 -0.3401
 1841Sol     OW10387   3.132   3.096   1.653 -0.3793 -0.3011 -0.7143
 1841Sol     HW10388   3.083   3.024   1.693 -0.2365 -0.5742 -1.0207
 1841Sol     HW10389   3.204   3.053   1.607  2.4299  0.3462  2.8880
 1841Sol     MW10390   3.134   3.086   1.652  0.1943 -0.3565 -0.1895
 1842Sol     OW10391   0.599   3.360   8.582  0.2783 -0.1241  0.1144
 1842Sol     HW10392   0.516   3.403   8.563 -1.5334 -3.4240  0.0968
 1842Sol     HW10393   0.633   3.334   8.496  0.6715  0.0711  0.2100
 1842Sol     MW10394   0.594   3.361   8.573 -1.0647  0.0980 -0.0795
 1843Sol     OW10395   3.242   1.638   4.831  0.3828 -0.4060  0.7694
 1843Sol     HW10396   3.296   1.636   4.752  0.9503  0.9194  1.1000
 1843Sol     HW10397   3.204   1.550   4.836 -0.1643 -0.3355 -1.3145
 1843Sol     MW10398   3.244   1.630   4.824  0.6271  0.2722  0.0681
 1844Sol     OW10399   1.570   2.556   9.843 -0.1512  0.4954 -1.0757
 1844Sol     HW10400   1.601   2.467   9.860 -0.4348  0.2696 -1.7298
 1844Sol     HW10401   1.632   2.591   9.779  1.2423  1.5361  0.7972
 1844Sol     MW10402   1.578   2.552   9.839 -0.7308  0.1734  0.0934
 1845Sol     OW10403   2.932   1.962   7.609  0.0060 -0.0870  0.0568
 1845Sol     HW10404   2.911   1.918   7.528  0.2663 -0.0580 -0.0283
 1845Sol     HW10405   3.007   1.914   7.644  0.8243  0.7846 -0.4534
 1845Sol     MW10406   2.937   1.954   7.605  0.0762 -1.2355 -1.2091
 1846Sol     OW10407   2.359   1.030   4.316  0.3185 -0.4625  0.1840
 1846Sol     HW10408   2.418   0.969   4.272 -0.6379 -1.7759  0.6785
 1846Sol     HW10409   2.365   1.111   4.265  2.3133 -0.6683  0.0673
 1846Sol     MW10410   2.364   1.032   4.308 -0.4423 -0.2691  0.0720
 1847Sol     OW10411   0.526   1.354   3.139  0.4376  0.3864 -0.8032
 1847Sol     HW10412   0.493   1.299   3.067 -0.8529 -0.8454  0.6827
 1847Sol     HW10413   0.617   1.327   3.149  0.0552 -0.8961 -0.6542
 1847Sol     MW10414   0.531   1.346   3.133 -0.1502  1.0299  1.1173
 1848Sol     OW10415   0.332   0.266   3.195 -0.2053 -0.3091 -0.1055
 1848Sol     HW10416   0.406   0.240   3.250 -0.6507 -2.3369 -0.4407
 1848Sol     HW10417   0.272   0.310   3.255  0.8855  0.6070  0.3296
 1848Sol     MW10418   0.333   0.268   3.205 -0.2048  0.4271 -0.1639
 1849Sol     OW10419   0.764   0.705   5.413  0.2796  0.1108  0.5661
 1849Sol     HW10420   0.831   0.681   5.348  0.1325 -1.5774  1.0173
 1849Sol     HW10421   0.809   0.694   5.497 -0.1198  0.4007  0.8132
 1849Sol     MW10422   0.774   0.702   5.414  1.1549  1.1420  0.1330
 1850Sol     OW10423   1.930   1.210   3.506 -0.0834 -0.4462  0.1487
 1850Sol     HW10424   1.865   1.153   3.465 -1.1009  0.5374  0.3706
 1850Sol     HW10425   1.987   1.150   3.554 -0.4271 -1.3786 -0.5860
 1850Sol     MW10426   1.929   1.200   3.507 -0.3668 -1.1782  1.3674
 1851Sol     OW10427   2.091   3.357   9.358 -0.3746 -0.2168  0.5257
 1851Sol     HW10428   2.082   3.436   9.411 -1.7671 -1.4416  2.2056
 1851Sol     HW10429   2.185   3.341   9.354 -0.0344  1.9342 -0.4933
 1851Sol     MW10430   2.099   3.362   9.362 -0.9435  0.4292  0.0107
 1852Sol     OW10431   0.773   1.670   3.455  0.2798 -0.3238 -0.0234
 1852Sol     HW10432   0.762   1.626   3.539 -0.7302  0.1582  0.1003
 1852Sol     HW10433   0.684   1.685   3.424  0.6494 -0.2492 -1.0452
 1852Sol     MW10434   0.764   1.668   3.460 -0.4106 -0.3397 -0.1150
 1853Sol     OW10435   0.604   1.072   4.242 -0.5187 -0.2660  0.5181
 1853Sol     HW10436   0.604   1.158   4.286  0.6197  0.1886 -0.3368
 1853Sol     HW10437   0.556   1.087   4.161 -0.3273 -0.4423  0.3730
 1853Sol     MW10438   0.600   1.081   4.239 -0.2818  0.5714  0.3582
 1854Sol     OW10439   1.054   1.457   9.172  0.4356  0.2243  0.0797
 1854Sol     HW10440   0.993   1.440   9.100  1.1717 -1.3427 -0.1994
 1854Sol     HW10441   1.013   1.527   9.222 -0.7779  0.3526 -1.0517
 1854Sol     MW10442   1.045   1.461   9.170 -0.9450  0.0440 -0.2478
 1855Sol     OW10443   0.785   1.840   3.856 -0.3871 -0.0299  0.2812
 1855Sol     HW10444   0.706   1.790   3.876 -0.5590 -0.0552 -0.4480
 1855Sol     HW10445   0.857   1.782   3.880 -0.5917  0.3301  1.7736
 1855Sol     MW10446   0.784   1.830   3.860 -0.2228  0.7823  0.8214
 1856Sol     OW10447   0.486   3.059   8.539  0.0178 -0.4075  0.1659
 1856Sol     HW10448   0.494   3.121   8.612  1.5538 -1.9238  1.3063
 1856Sol     HW10449   0.392   3.040   8.534 -0.8355  3.6498 -1.6224
 1856Sol     MW10450   0.478   3.063   8.545  0.3501  0.1655 -0.6759
 1857Sol     OW10451   1.976   2.878   8.021 -0.1173  0.2572  0.5801
 1857Sol     HW10452   2.030   2.887   8.099 -1.0565 -1.8072  1.5076
 1857Sol     HW10453   1.933   2.793   8.031 -0.8767  0.3172 -1.7983
 1857Sol     MW10454   1.977   2.871   8.029  0.1876 -0.0166 -0.4542
 1858Sol     OW10455   2.292   0.168   2.033 -0.0764  0.2196 -0.5115
 1858Sol     HW10456   2.257   0.113   1.963  0.1416  0.1700 -0.5811
 1858Sol     HW10457   2.380   0.135   2.049 -0.2368  0.0371  0.0004
 1858Sol     MW10458   2.296   0.160   2.028 -0.1403  0.0209  0.6259
 1859Sol     OW10459   2.307   3.204   1.691 -0.3396 -0.3342 -0.1750
 1859Sol     HW10460   2.306   3.294   1.659 -0.9432  0.7422  2.6529
 1859Sol     HW10461   2.251   3.156   1.630 -0.8129  1.4176 -1.1555
 1859Sol     MW10462   2.302   3.208   1.683  1.2092 -0.1639 -0.3350
 1860Sol     OW10463   0.162   2.852   4.695 -0.1185  0.3098  0.3454
 1860Sol     HW10464   0.188   2.886   4.610 -1.2597 -1.7604 -0.8827
 1860Sol     HW10465   0.071   2.827   4.684  0.0206 -0.9700  1.8588
 1860Sol     MW10466   0.156   2.853   4.686  0.0309  0.6124 -1.2571
 1861Sol     OW10467   1.275   1.290   5.866 -0.8870  0.0449  0.2278
 1861Sol     HW10468   1.261   1.266   5.774 -0.6609 -1.6289  0.6149
 1861Sol     HW10469   1.240   1.216   5.916  1.6251 -0.4002  1.3983
 1861Sol     MW10470   1.271   1.281   5.862 -0.1161 -0.1047  0.7343
 1862Sol     OW10471   1.696   2.170   3.262  0.4843 -0.1106  0.6373
 1862Sol     HW10472   1.689   2.236   3.332  3.7291  0.1639  0.7924
 1862Sol     HW10473   1.674   2.218   3.182 -5.2661 -0.8933  1.5116
 1862Sol     MW10474   1.694   2.180   3.261  0.3285 -0.2550  0.2202
 1863Sol     OW10475   2.722   2.775   8.777 -0.6420  0.5413 -0.5596
 1863Sol     HW10476   2.725   2.870   8.787  0.4278  0.4824 -0.2339
 1863Sol     HW10477   2.739   2.761   8.683  1.2673  0.6025 -0.2500
 1863Sol     MW10478   2.724   2.782   8.769 -0.1571  0.8170  0.1569
 1864Sol     OW10479   1.961   2.459   9.495  0.6668  0.3738  0.1187
 1864Sol     HW10480   1.982   2.376   9.452  0.2309  0.2917  0.0648
 1864Sol     HW10481   2.042   2.483   9.540  0.7037 -0.2450  0.4022
 1864Sol     MW10482   1.970   2.453   9.495  0.7281 -0.3315 -0.2413
 1865Sol     OW10483   2.904   0.235   8.157  0.4526 -0.0783 -0.4105
 1865Sol     HW10484   2.998   0.222   8.172  0.5383  1.4117  0.4806
 1865Sol     HW10485   2.886   0.322   8.193 -1.4130 -0.6277  0.0414
 1865Sol     MW10486   2.911   0.242   8.162  0.4248 -0.5519  0.3526
 1866Sol     OW10487   0.037   0.276   2.653 -0.2324 -0.4428  0.6183
 1866Sol     HW10488  -0.001   0.323   2.727  1.7606  0.6334  1.0078
 1866Sol     HW10489   0.105   0.221   2.692  1.8615  1.2592 -0.5284
 1866Sol     MW10490   0.040   0.275   2.663  0.5629  0.1597 -0.1173
 1867Sol     OW10491   1.226   2.465   2.372  0.3848  0.1992  0.0575
 1867Sol     HW10492   1.164   2.533   2.346 -0.1084 -0.5251 -0.6921
 1867Sol     HW10493   1.191   2.385   2.333  1.7252 -0.2410 -0.2721
 1867Sol     MW10494   1.218   2.464   2.366  0.6687 -0.6847  0.3162
 1868Sol     OW10495   2.996   0.576   6.537  0.8255 -0.5770 -0.4843
 1868Sol     HW10496   2.991   0.654   6.482  0.4982  0.0533  0.4280
 1868Sol     HW10497   2.914   0.576   6.585  1.8281 -0.1671  1.2654
 1868Sol     MW10498   2.988   0.583   6.536  0.2770 -0.3213 -0.4643
 1869Sol     OW10499   0.353   0.028   8.492  0.2398  0.3078  0.1166
 1869Sol     HW10500   0.391   0.006   8.407 -0.3048 -0.5129  0.0827
 1869Sol     HW10501   0.348   0.124   8.491 -0.0435  0.2920 -0.9031
 1869Sol     MW10502   0.356   0.035   8.484 -0.2921 -0.1673 -0.3227
 1870Sol     OW10503   0.513   2.800   9.199  0.3618 -0.1622 -0.5818
 1870Sol     HW10504   0.485   2.740   9.130  1.2713 -1.0071 -0.2360
 1870Sol     HW10505   0.489   2.887   9.167 -0.6122 -0.6788 -1.2701
 1870Sol     MW10506   0.509   2.802   9.190 -0.5018  0.7163 -0.1206
 1871Sol     OW10507   1.974   2.203   2.518 -0.5212  0.1906 -0.0306
 1871Sol     HW10508   1.878   2.203   2.518 -0.5284 -0.8004 -0.5058
 1871Sol     HW10509   1.998   2.252   2.439 -0.6559 -0.8490 -0.7323
 1871Sol     MW10510   1.967   2.207   2.511 -0.1260 -0.8782  0.4774
 1872Sol     OW10511   1.928   1.152   3.949  0.3543 -0.0376 -0.6932
 1872Sol     HW10512   2.015   1.124   3.922  0.6446  1.3536 -1.2256
 1872Sol     HW10513   1.925   1.132   4.043  1.9503  1.5713 -0.2547
 1872Sol     MW10514   1.935   1.148   3.955 -0.2908 -0.3920  0.1586
 1873Sol     OW10515   0.743   2.968   7.185  0.0051  0.5992 -0.1205
 1873Sol     HW10516   0.727   3.007   7.099  0.2566 -0.5740 -0.7111
 1873Sol     HW10517   0.752   3.043   7.244 -2.0992  1.3793 -0.7643
 1873Sol     MW10518   0.743   2.978   7.182 -0.2213  0.2205  0.4645
 1874Sol     OW10519   3.060   1.865   6.577 -0.4491 -0.6878  0.4415
 1874Sol     HW10520   3.135   1.812   6.551  0.5563  1.5835 -1.4519
 1874Sol     HW10521   3.079   1.892   6.667  0.8078 -0.4627  0.1046
 1874Sol     MW10522   3.068   1.863   6.583 -0.1801 -0.2410  0.7655
 1875Sol     OW10523   1.156   2.203   9.594 -0.0460  0.3194 -0.3290
 1875Sol     HW10524   1.147   2.297   9.608 -1.8501  0.2491 -0.8206
 1875Sol     HW10525   1.225   2.195   9.528 -0.1010  1.3302 -0.5208
 1875Sol     MW10526   1.161   2.211   9.589 -0.9759 -0.3146  0.1846
 1876Sol     OW10527   2.523   3.059   7.058 -0.0754  0.4809 -0.3063
 1876Sol     HW10528   2.527   3.128   7.124  2.5373  0.8643 -0.7925
 1876Sol     HW10529   2.602   3.008   7.072 -1.7348 -2.1538 -0.2810
 1876Sol     MW10530   2.530   3.061   7.065 -0.3407 -0.2133 -0.5660
 1877Sol     OW10531   0.290   2.685   8.413  0.4589 -0.2955 -0.3923
 1877Sol     HW10532   0.361   2.650   8.359 -0.6410 -1.5428 -1.0694
 1877Sol     HW10533   0.227   2.613   8.419 -0.9686  0.9406 -0.1886
 1877Sol     MW10534   0.290   2.675   8.409  0.1664 -0.5029  0.5365
 1878Sol     OW10535   1.353   1.433   2.546  0.2943  0.3899  0.1213
 1878Sol     HW10536   1.433   1.397   2.585  0.2135  1.8260  1.6467
 1878Sol     HW10537   1.378   1.451   2.455  0.7249 -2.2060 -0.3222
 1878Sol     MW10538   1.363   1.431   2.541  0.8355 -0.2738  0.6327
 1879Sol     OW10539   0.640   1.104   3.793  0.2050 -0.0904  0.0712
 1879Sol     HW10540   0.616   1.162   3.721 -1.2019  0.0287  0.6285
 1879Sol     HW10541   0.692   1.035   3.752  0.6699  0.7785 -0.8211
 1879Sol     MW10542   0.643   1.103   3.783 -0.2794  0.6890  0.3769
 1880Sol     OW10543   2.242   0.154   2.755  0.4655  0.1828 -0.2777
 1880Sol     HW10544   2.324   0.143   2.803 -0.6915 -1.5205  1.4000
 1880Sol     HW10545   2.229   0.070   2.711  0.1875  0.8363 -1.4680
 1880Sol     MW10546   2.248   0.145   2.755 -0.1643 -0.0435  0.5745
 1881Sol     OW10547   1.514   0.757   9.325 -0.0960  0.2227  0.4657
 1881Sol     HW10548   1.490   0.668   9.352 -0.9019  0.7350  1.4964
 1881Sol     HW10549   1.524   0.751   9.230  0.0407 -1.0089  0.5406
 1881Sol     MW10550   1.513   0.748   9.319  0.8858  0.2908  0.5284
 1882Sol     OW10551   1.396   0.316   1.688 -0.7197 -0.3281  0.2192
 1882Sol     HW10552   1.427   0.248   1.746  0.9575 -0.9411 -1.3570
 1882Sol     HW10553   1.353   0.269   1.616 -1.9254  0.3775  0.4617
 1882Sol     MW10554   1.395   0.306   1.686  0.2306  1.2462  0.2914
 1883Sol     OW10555   2.264   0.036   9.022 -0.2768 -0.6489  0.2023
 1883Sol     HW10556   2.299   0.041   9.110  0.2010 -1.1291  0.0425
 1883Sol     HW10557   2.253  -0.058   9.005 -1.8310 -0.5081  0.3265
 1883Sol     MW10558   2.266   0.028   9.028  0.4463 -0.4038  0.1514
 1884Sol     OW10559   2.942   0.640   8.110 -0.1577  0.0932  0.0150
 1884Sol     HW10560   3.037   0.649   8.099 -0.2015  0.8511  0.2507
 1884Sol     HW10561   2.916   0.717   8.161 -0.9480  0.0532 -0.3202
 1884Sol     MW10562   2.948   0.648   8.114  0.2691  0.4025 -0.5055
 1885Sol     OW10563   2.984   0.601   3.656 -0.7627  0.2036  0.2526
 1885Sol     HW10564   2.961   0.662   3.727 -3.3768 -0.7621  0.3066
 1885Sol     HW10565   2.902   0.590   3.607  0.6008 -0.4220 -1.9464
 1885Sol     MW10566   2.974   0.606   3.658  0.7125  0.1037  0.0788
 1886Sol     OW10567   1.582   0.818   7.266 -0.7212 -0.0580  0.4447
 1886Sol     HW10568   1.529   0.739   7.254 -0.3224 -0.5657  1.9236
 1886Sol     HW10569   1.672   0.788   7.257 -0.6041  0.4129  0.0321
 1886Sol     MW10570   1.585   0.809   7.264 -0.6653  0.4098  1.2606
 1887Sol     OW10571   1.828   1.266   7.063 -0.1533  0.2282 -0.3634
 1887Sol     HW10572   1.804   1.219   6.983 -0.4693 -0.9848  0.4274
 1887Sol     HW10573   1.906   1.316   7.039  0.6299 -1.2717 -1.0521
 1887Sol     MW10574   1.833   1.266   7.054 -0.1014 -0.8457  0.0619
 1888Sol     OW10575   1.604   0.797   5.731  0.3218  0.7119 -0.3826
 1888Sol     HW10576   1.671   0.753   5.679 -1.2199  0.4320 -2.1653
 1888Sol     HW10577   1.587   0.737   5.804 -0.7397 -0.9959 -2.0108
 1888Sol     MW10578   1.609   0.788   5.733  1.4168  0.6327  0.0537
 1889Sol     OW10579   2.921   1.348   2.340 -0.3281  0.7014 -0.0471
 1889Sol     HW10580   2.883   1.365   2.254  2.7496 -2.0750 -2.0987
 1889Sol     HW10581   2.895   1.258   2.360  1.4686  0.2744  0.4908
 1889Sol     MW10582   2.916   1.341   2.334  0.0145 -0.1109 -0.1093
 1890Sol     OW10583   2.821   2.362   7.646 -0.3331  0.2908  0.1978
 1890Sol     HW10584   2.873   2.345   7.568 -0.9756 -0.2979 -0.0961
 1890Sol     HW10585   2.746   2.304   7.640 -0.4432  0.3054  1.2054
 1890Sol     MW10586   2.819   2.355   7.639 -0.7658  1.2379  0.7697
 1891Sol     OW10587   2.713   0.574   3.557 -0.2676  0.5488 -0.1773
 1891Sol     HW10588   2.681   0.521   3.484 -1.1614  1.2590 -0.3191
 1891Sol     HW10589   2.684   0.529   3.635 -0.9769  0.7972 -0.2962
 1891Sol     MW10590   2.708   0.565   3.557 -0.3328 -0.6475 -0.6194
 1892Sol     OW10591   1.603   1.448   2.683 -0.1364  0.2391 -0.5143
 1892Sol     HW10592   1.651   1.414   2.759 -1.6050 -0.6514  0.0335
 1892Sol     HW10593   1.638   1.536   2.670 -0.2246  0.6010  1.5123
 1892Sol     MW10594   1.611   1.452   2.689  1.0195  0.3138 -0.8917
 1893Sol     OW10595   0.175   2.744   6.863  0.1169 -0.3749 -0.9841
 1893Sol     HW10596   0.094   2.702   6.834 -1.1537  2.4773 -1.7261
 1893Sol     HW10597   0.219   2.769   6.781  0.2083  0.9379 -0.5276
 1893Sol     MW10598   0.172   2.742   6.853 -0.1678 -0.3856 -0.0676
 1894Sol     OW10599   1.006   2.843   5.687  0.0132  0.3405  0.0672
 1894Sol     HW10600   0.986   2.937   5.691  0.1643  0.5770 -2.9854
 1894Sol     HW10601   1.096   2.836   5.720  1.1264  1.7605 -2.4574
 1894Sol     MW10602   1.013   2.851   5.690 -0.1510 -0.0419 -0.4097
 1895Sol     OW10603   2.807   1.586   8.879 -0.3602  0.6440  0.1842
 1895Sol     HW10604   2.804   1.670   8.834 -0.0148  1.1322  1.0661
 1895Sol     HW10605   2.852   1.604   8.961  0.4918 -0.5815  0.0046
 1895Sol     MW10606   2.811   1.595   8.882 -0.1975 -0.3608  0.9100
 1896Sol     OW10607   0.047   2.888   9.039 -1.1040  0.8161  0.1125
 1896Sol     HW10608   0.098   2.949   8.985  0.1692 -1.7220 -1.6833
 1896Sol     HW10609  -0.036   2.878   8.993 -1.1878  0.9533  0.2338
 1896Sol     MW10610   0.044   2.892   9.030  0.4328  1.1391  0.7547
 1897Sol     OW10611   0.510   1.241   3.584  1.0717 -0.3456 -0.1433
 1897Sol     HW10612   0.458   1.208   3.511  2.6172  1.3458 -2.0512
 1897Sol     HW10613   0.487   1.334   3.591  1.8042 -0.2133  0.7623
 1897Sol     MW10614   0.503   1.247   3.578 -0.1901  0.3539  0.6318
 1898Sol     OW10615   0.525   0.552   5.375  0.2770 -0.4229 -0.1348
 1898Sol     HW10616   0.555   0.491   5.308  1.4032 -0.2505  0.1957
 1898Sol     HW10617   0.605   0.598   5.402 -0.1221 -0.6546  1.4700
 1898Sol     MW10618   0.535   0.550   5.372  0.2077  0.2307  0.0062
 1899Sol     OW10619   1.841   3.093   2.122  0.2179 -0.3324 -0.0111
 1899Sol     HW10620   1.758   3.078   2.169  0.5090  1.2523  1.0443
 1899Sol     HW10621   1.841   3.026   2.053 -1.1255 -1.4798  1.0449
 1899Sol     MW10622   1.833   3.085   2.120  0.2956 -0.2390  0.1367
 1900Sol     OW10623   2.025   1.695   5.628 -0.1357 -0.0724  0.0062
 1900Sol     HW10624   2.025   1.606   5.662 -0.0629  0.4107  1.2994
 1900Sol     HW10625   2.107   1.702   5.578  0.0660 -0.5925  0.2644
 1900Sol     MW10626   2.032   1.688   5.626  0.9635  0.5955 -0.1119
 1901Sol     OW10627   3.184   0.904   8.415  0.0506 -0.1318  0.0622
 1901Sol     HW10628   3.109   0.869   8.464  0.3068 -4.7368 -2.5235
 1901Sol     HW10629   3.260   0.858   8.451  0.7583 -0.4282 -1.7857
 1901Sol     MW10630   3.184   0.896   8.423  0.6441  0.7087  0.2633
 1902Sol     OW10631   2.215   1.845   4.874  0.5122  0.0831 -0.1025
 1902Sol     HW10632   2.175   1.804   4.797  0.1708  0.3540 -0.0743
 1902Sol     HW10633   2.283   1.784   4.902  0.4554 -0.1432 -0.4591
 1902Sol     MW10634   2.217   1.836   4.870  0.0015 -0.2330  0.3354
 1903Sol     OW10635   2.026   0.148   8.091 -0.0571  0.4448  0.0671
 1903Sol     HW10636   1.954   0.089   8.113  0.6971 -0.0071  1.4151
 1903Sol     HW10637   2.015   0.166   7.998 -3.1664  2.1108  0.7093
 1903Sol     MW10638   2.019   0.144   8.085  0.9004  0.4018  0.1216
 1904Sol     OW10639   1.928   1.849   4.983 -0.5218  0.2249  0.1715
 1904Sol     HW10640   2.022   1.868   4.985 -0.3014 -0.8861  0.9580
 1904Sol     HW10641   1.906   1.830   5.075 -1.7631  1.6374  0.1892
 1904Sol     MW10642   1.934   1.849   4.992 -0.3397  0.7970  0.5436
 1905Sol     OW10643   1.832   1.818   9.443 -0.3153 -0.0642 -0.0572
 1905Sol     HW10644   1.794   1.742   9.486 -0.2377 -0.3070 -0.4160
 1905Sol     HW10645   1.792   1.820   9.356  2.4183 -1.8557 -1.4230
 1905Sol     MW10646   1.825   1.812   9.439  0.1699  0.3322  0.0631
 1906Sol     OW10647   2.905   3.084   3.544  0.3157 -0.0102  0.3225
 1906Sol     HW10648   2.897   3.136   3.624  0.5213  1.4550 -0.5920
 1906Sol     HW10649   2.825   3.102   3.495  1.0300  0.5716 -0.6476
 1906Sol     MW10650   2.897   3.090   3.547 -0.7572  0.5541  0.3650
 1907Sol     OW10651   1.686   3.082   3.141  0.1184  0.2582  0.0358
 1907Sol     HW10652   1.676   3.115   3.230  0.8245  0.1520  0.1498
 1907Sol     HW10653   1.737   3.149   3.096 -0.5630  0.4981 -0.3957
 1907Sol     MW10654   1.689   3.091   3.145  0.9863 -0.1980  0.6541
 1908Sol     OW10655   1.225   0.595   9.549 -0.3690  0.6676  0.1152
 1908Sol     HW10656   1.241   0.646   9.629 -1.7884  0.1812  0.7351
 1908Sol     HW10657   1.311   0.560   9.525 -0.0512  0.1710  1.8937
 1908Sol     MW10658   1.234   0.596   9.554  0.6126  0.1731 -0.1741
 1909Sol     OW10659   1.183   1.884   3.018  0.6306 -0.1558  0.0599
 1909Sol     HW10660   1.200   1.802   3.066  0.3115  0.7228  1.6964
 1909Sol     HW10661   1.141   1.856   2.936 -0.2917 -1.5662  1.0026
 1909Sol     MW10662   1.181   1.874   3.015  0.2166  0.5173  0.9776
 1910Sol     OW10663   0.142   0.770   9.592  0.3771  0.1826  0.1103
 1910Sol     HW10664   0.188   0.838   9.542  1.9818 -0.0519  1.2387
 1910Sol     HW10665   0.099   0.817   9.663 -1.1209  0.3926 -0.9048
 1910Sol     MW10666   0.142   0.781   9.594 -0.0389 -0.1302 -0.8552
 1911Sol     OW10667   3.152   1.298   4.401  0.6921 -0.3600 -0.3407
 1911Sol     HW10668   3.191   1.379   4.370  2.0728 -0.6937  0.4974
 1911Sol     HW10669   3.117   1.320   4.487 -0.6897 -0.1568 -0.9334
 1911Sol     MW10670   3.152   1.307   4.406 -0.3745 -0.4046  0.0099
 1912Sol     OW10671   1.099   0.384   8.959 -0.4650 -0.0527  0.4367
 1912Sol     HW10672   1.174   0.417   9.009  0.1834 -1.0704  0.1475
 1912Sol     HW10673   1.100   0.289   8.974 -0.1873 -0.3943 -1.5961
 1912Sol     MW10674   1.105   0.378   8.965 -0.2767 -0.7033  0.3914
 1913Sol     OW10675   2.837   0.050   8.354  0.4551 -0.2334  0.3071
 1913Sol     HW10676   2.857   0.118   8.290 -1.2255 -0.9296 -1.0096
 1913Sol     HW10677   2.742   0.036   8.344  0.8426 -3.0227  0.2676
 1913Sol     MW10678   2.830   0.055   8.347 -0.5554 -0.1004  0.9202
 1914Sol     OW10679   2.316   0.108   3.458 -0.2443  0.0152 -0.6971
 1914Sol     HW10680   2.277   0.049   3.394  0.9157 -0.3684 -1.0758
 1914Sol     HW10681   2.271   0.090   3.540 -1.6648  0.4274 -1.3850
 1914Sol     MW10682   2.309   0.101   3.459  0.7787 -0.1725  0.4238
 1915Sol     OW10683   3.030   2.201   1.579  0.0190  0.0230  0.0535
 1915Sol     HW10684   2.986   2.194   1.494 -0.0084  2.5733 -0.1916
 1915Sol     HW10685   2.959   2.220   1.641  0.3514  0.8299  0.1943
 1915Sol     MW10686   3.019   2.202   1.576  1.2052  0.0883 -0.0627
 1916Sol     OW10687   1.944   1.038   2.228 -0.4607 -0.1006 -0.1771
 1916Sol     HW10688   2.009   1.011   2.293  0.5033 -1.4515 -1.6896
 1916Sol     HW10689   1.981   1.011   2.144 -0.9060  3.1084 -1.4768
 1916Sol     MW10690   1.953   1.034   2.227  0.0466  0.3991  0.2712
 1917Sol     OW10691   0.366   0.438   2.575 -0.2339 -0.3195  0.1603
 1917Sol     HW10692   0.274   0.455   2.554 -0.2205 -0.7338 -0.2212
 1917Sol     HW10693   0.415   0.475   2.501 -0.1127 -0.4331  0.1827
 1917Sol     MW10694   0.362   0.443   2.567 -0.3041 -0.6000  1.0255
 1918Sol     OW10695   0.948   2.633   7.051 -0.4053  0.1653  0.4740
 1918Sol     HW10696   1.008   2.666   6.984 -2.0267  1.2022 -0.4769
 1918Sol     HW10697   0.957   2.694   7.124 -1.9948  1.6821 -0.5610
 1918Sol     MW10698   0.954   2.642   7.052  1.0676  0.5620 -0.4304
 1919Sol     OW10699   0.838   2.416   8.047 -0.2173  0.0424 -0.6967
 1919Sol     HW10700   0.768   2.430   7.983  0.8884 -1.7682 -2.3443
 1919Sol     HW10701   0.819   2.330   8.084  0.2195  0.2652  0.0497
 1919Sol     MW10702   0.830   2.410   8.044 -0.9542  0.3690 -0.2604
 1920Sol     OW10703   0.051   1.054   9.805 -0.4220 -0.3772  0.0866
 1920Sol     HW10704   0.063   0.964   9.834  2.4589  0.1201  0.6079
 1920Sol     HW10705  -0.010   1.093   9.868  0.1633 -1.3133  1.2369
 1920Sol     MW10706   0.047   1.050   9.813 -0.1144  0.6637  0.1983
 1921Sol     OW10707   2.820   3.354   7.357  0.0088  0.2817  0.2458
 1921Sol     HW10708   2.887   3.387   7.297  1.1344  0.9946  1.8475
 1921Sol     HW10709   2.811   3.423   7.423 -2.3178  0.1997  0.0596
 1921Sol     MW10710   2.825   3.363   7.358 -0.0228 -0.1835  1.1894
 1922Sol     OW10711   0.642   0.777   7.880  0.0552 -0.9465 -0.4645
 1922Sol     HW10712   0.683   0.855   7.841 -1.4424  1.3751  2.3649
 1922Sol     HW10713   0.698   0.704   7.852  3.9738  1.6237  0.1951
 1922Sol     MW10714   0.651   0.778   7.874  0.1277  0.6516  0.6362
 1923Sol     OW10715   3.220   2.819   4.686  0.4996 -0.2187 -0.0356
 1923Sol     HW10716   3.169   2.899   4.670  0.5167 -0.3709 -0.8859
 1923Sol     HW10717   3.175   2.752   4.635  0.2635 -0.8427  0.9826
 1923Sol     MW10718   3.211   2.820   4.680  0.4543 -0.0470 -0.2681
 1924Sol     OW10719   2.169   2.807   3.556  0.6001  0.1418 -0.5643
 1924Sol     HW10720   2.132   2.773   3.475  0.7932  0.6614 -0.8729
 1924Sol     HW10721   2.094   2.823   3.613  0.4216  0.3103 -0.8466
 1924Sol     MW10722   2.159   2.805   3.554  0.4381  0.3070  0.1152
 1925Sol     OW10723   2.643   1.863   8.286  0.6553 -0.3296  0.0647
 1925Sol     HW10724   2.566   1.919   8.275  1.0577  0.7539  2.2982
 1925Sol     HW10725   2.612   1.775   8.265 -0.5691  0.4242 -1.3829
 1925Sol     MW10726   2.633   1.860   8.283 -0.1384  0.5253  0.7395
 1926Sol     OW10727   2.712   2.413   1.522  0.5915  0.2794 -0.3194
 1926Sol     HW10728   2.747   2.490   1.479  0.5996  0.4347 -0.0343
 1926Sol     HW10729   2.617   2.427   1.524  0.3810 -0.7535 -2.2946
 1926Sol     MW10730   2.707   2.421   1.519  0.8137 -0.2516  0.8630
 1927Sol     OW10731   1.878   1.151   4.233  0.1219 -0.3968 -0.3334
 1927Sol     HW10732   1.797   1.101   4.221 -0.5774  0.6736 -0.1714
 1927Sol     HW10733   1.944   1.085   4.254 -0.6866 -1.2954 -0.5850
 1927Sol     MW10734   1.876   1.140   4.234 -0.2160 -0.1913 -0.0227
 1928Sol     OW10735   1.950   3.255   2.649 -0.1493 -0.2364 -0.1183
 1928Sol     HW10736   1.870   3.217   2.683  0.0145 -0.3543  0.1365
 1928Sol     HW10737   1.982   3.311   2.719 -0.4957  0.5300 -0.5699
 1928Sol     MW10738   1.946   3.256   2.658 -0.0849  0.5528 -0.1335
 1929Sol     OW10739   1.065   0.885   1.986 -0.5284  0.0916 -0.5456
 1929Sol     HW10740   1.043   0.820   1.919 -3.6218  0.0640  0.4363
 1929Sol     HW10741   1.037   0.845   2.068 -0.3390  1.7299  0.3301
 1929Sol     MW10742   1.061   0.876   1.987  0.4680  0.0245 -0.6554
 1930Sol     OW10743   0.002   3.437   9.702 -0.2428 -0.3857 -0.2923
 1930Sol     HW10744   0.075   3.405   9.649 -0.7276 -0.9214 -0.6430
 1930Sol     HW10745  -0.016   3.366   9.764  1.6433  1.0334  1.9747
 1930Sol     MW10746   0.007   3.428   9.703 -0.6175 -0.4871  0.2378
 1931Sol     OW10747   2.527   0.697   7.508 -0.1369 -0.2518  0.4006
 1931Sol     HW10748   2.576   0.703   7.426 -0.0288 -0.6044  0.4384
 1931Sol     HW10749   2.474   0.618   7.498 -0.2822 -0.1790  0.5884
 1931Sol     MW10750   2.526   0.691   7.499 -0.1766 -0.5324  0.3532
 1932Sol     OW10751   0.977   0.335   2.659 -0.2148 -0.4935 -0.3549
 1932Sol     HW10752   1.040   0.293   2.601 -1.0495 -1.4972 -0.5582
 1932Sol     HW10753   1.008   0.315   2.748 -0.7360 -1.7767 -0.4460
 1932Sol     MW10754   0.985   0.329   2.662  0.4662 -0.4983 -0.0738
 1933Sol     OW10755   2.092   1.381   7.354  0.0758 -0.0201 -0.0290
 1933Sol     HW10756   2.012   1.407   7.309 -1.0703 -3.5631 -0.2049
 1933Sol     HW10757   2.142   1.333   7.288  1.2787  0.2240  0.7072
 1933Sol     MW10758   2.089   1.379   7.344 -0.1155 -0.4425  0.1393
 1934Sol     OW10759   0.831   1.206   2.774  0.5546  0.1333 -0.8996
 1934Sol     HW10760   0.738   1.198   2.754 -0.0126  2.3648  0.5478
 1934Sol     HW10761   0.841   1.166   2.860  0.7700  0.5250 -0.7373
 1934Sol     MW10762   0.824   1.202   2.780  0.0544  0.0694  0.0389
 1935Sol     OW10763   2.381   2.572   4.866  0.2851 -0.6898  0.1212
 1935Sol     HW10764   2.374   2.478   4.879  0.3034 -0.7296 -0.1516
 1935Sol     HW10765   2.293   2.606   4.879  0.5011 -0.5826  1.4827
 1935Sol     MW10766   2.373   2.567   4.869  0.5018  0.1295  0.2265
 1936Sol     OW10767   0.714   0.884   4.526 -0.1239 -0.4328 -0.6049
 1936Sol     HW10768   0.715   0.979   4.522 -0.9936 -0.2505  2.3229
 1936Sol     HW10769   0.668   0.857   4.446 -0.1720  1.5930 -1.2848
 1936Sol     MW10770   0.710   0.890   4.518  0.4722  0.4192  0.0903
 1937Sol     OW10771   1.908   0.068   5.373 -0.6938  0.5001 -0.4667
 1937Sol     HW10772   1.892  -0.007   5.316 -1.3297 -1.7851  2.5983
 1937Sol     HW10773   1.845   0.134   5.346  0.1646  0.1349 -3.4996
 1937Sol     MW10774   1.901   0.067   5.366 -0.2114  0.1968 -0.5408
 1938Sol     OW10775   1.651   2.121   5.715 -0.2366 -0.0474 -0.5030
 1938Sol     HW10776   1.622   2.211   5.732  0.0502 -0.2099  0.8859
 1938Sol     HW10777   1.602   2.068   5.777 -0.0666 -0.8058 -1.0105
 1938Sol     MW10778   1.644   2.124   5.722 -0.5602 -0.0652 -0.4134
 1939Sol     OW10779   2.498   0.042   2.521 -0.6295 -0.2770  0.0904
 1939Sol     HW10780   2.471  -0.022   2.455  0.8907 -0.5293 -0.3227
 1939Sol     HW10781   2.435   0.031   2.592 -1.2246 -1.2626 -0.5704
 1939Sol     MW10782   2.490   0.035   2.522  0.4434 -0.7945  0.1542
 1940Sol     OW10783   2.836   2.242   5.871 -0.0412 -0.1583 -0.2974
 1940Sol     HW10784   2.848   2.244   5.777 -1.2603  0.4347 -0.4518
 1940Sol     HW10785   2.924   2.234   5.907  0.3211 -1.7295 -1.5112
 1940Sol     MW10786   2.845   2.242   5.866 -0.8057 -1.3204  0.3132
 1941Sol     OW10787   1.002   2.588   3.423 -0.3009  0.6978  0.3995
 1941Sol     HW10788   0.937   2.554   3.362 -0.1383  2.0421 -0.5439
 1941Sol     HW10789   0.953   2.606   3.503 -1.0683  1.5727 -0.2588
 1941Sol     MW10790   0.992   2.586   3.425  0.4097  0.5067 -0.3246
 1942Sol     OW10791   2.776   3.200   2.677 -0.7985  0.1625  0.2471
 1942Sol     HW10792   2.798   3.158   2.760  2.8566  0.3569 -0.5488
 1942Sol     HW10793   2.857   3.195   2.626 -2.7107  0.8760 -2.9595
 1942Sol     MW10794   2.785   3.196   2.680  0.5200  0.1451  0.3852
 1943Sol     OW10795   2.717   2.313   8.390  0.1499  0.0195  0.6219
 1943Sol     HW10796   2.689   2.269   8.470 -0.7281  0.9873  0.8588
 1943Sol     HW10797   2.760   2.245   8.339  1.2737 -0.4685  2.1768
 1943Sol     MW10798   2.718   2.303   8.392 -0.0611 -0.6687  0.1932
 1944Sol     OW10799   1.839   3.429   8.182 -0.5025 -1.1607  0.2361
 1944Sol     HW10800   1.878   3.344   8.201  0.4278 -0.6617  0.5590
 1944Sol     HW10801   1.828   3.470   8.268  0.3994 -0.3657 -0.0179
 1944Sol     MW10802   1.841   3.425   8.192 -0.5876  0.0210  0.4594
 1945Sol     OW10803   0.639   1.390   9.269  0.6872  0.2152 -0.6982
 1945Sol     HW10804   0.726   1.361   9.297 -0.5528 -0.5710  2.5564
 1945Sol     HW10805   0.594   1.310   9.243  0.5952  0.4866 -1.3645
 1945Sol     MW10806   0.643   1.381   9.269  0.2393 -0.8322  0.1340
 1946Sol     OW10807   2.484   1.191   6.834 -0.1720  0.0740  0.7932
 1946Sol     HW10808   2.501   1.164   6.744  1.1994 -1.6194  1.5374
 1946Sol     HW10809   2.539   1.268   6.847 -0.5959  0.4982  0.1009
 1946Sol     MW10810   2.490   1.195   6.827  0.2261  0.4294  0.2862
 1947Sol     OW10811   0.434   3.217   7.611 -0.5427  0.1253  0.0332
 1947Sol     HW10812   0.449   3.137   7.561  0.0812 -0.1993  0.7360
 1947Sol     HW10813   0.340   3.234   7.601 -0.8258 -1.1126  0.4957
 1947Sol     MW10814   0.427   3.211   7.605 -0.4685 -1.0892  0.2947
 1948Sol     OW10815   0.862   1.141   8.405  0.3722  0.2791 -0.2334
 1948Sol     HW10816   0.922   1.108   8.472  0.2739  0.6105  0.0192
 1948Sol     HW10817   0.777   1.141   8.447  0.6359  2.5675  0.3843
 1948Sol     MW10818   0.860   1.138   8.415  0.6826 -0.9314  0.2805
 1949Sol     OW10819   1.703   2.711   9.315  0.4386 -0.0235 -0.1486
 1949Sol     HW10820   1.743   2.728   9.230 -2.6340 -0.4416 -1.7561
 1949Sol     HW10821   1.636   2.779   9.323 -0.6815 -1.2257  0.9616
 1949Sol     MW10822   1.700   2.719   9.308 -0.4244 -0.1271  0.0029
 1950Sol     OW10823   1.887   1.382   6.767 -0.7739 -0.2155 -0.0442
 1950Sol     HW10824   1.839   1.367   6.686  0.3862  1.1783 -1.0087
 1950Sol     HW10825   1.977   1.356   6.748 -0.2993  1.0009  0.4957
 1950Sol     MW10826   1.891   1.378   6.758 -0.1653 -0.3554 -0.4808
 1951Sol     OW10827   3.199   1.873   8.647  0.0135  0.4118 -0.5618
 1951Sol     HW10828   3.244   1.895   8.729  0.8744  1.0962 -1.2111
 1951Sol     HW10829   3.167   1.784   8.661  0.9121  0.1961  0.2001
 1951Sol     MW10830   3.201   1.867   8.656 -1.1188  0.0067  0.4042
 1952Sol     OW10831   0.600   2.741   7.212 -0.1434 -0.2166 -0.0553
 1952Sol     HW10832   0.613   2.673   7.146 -2.1823 -0.8024  0.1262
 1952Sol     HW10833   0.671   2.803   7.196  1.2101 -1.9195 -0.7923
 1952Sol     MW10834   0.607   2.741   7.205  0.0372 -0.4631 -0.2905
 1953Sol     OW10835   2.437   2.923   2.551  0.1243 -0.5071  0.2756
 1953Sol     HW10836   2.429   2.833   2.580  0.9004 -0.6569  0.0284
 1953Sol     HW10837   2.526   2.930   2.517  0.4062  0.6086  1.2033
 1953Sol     MW10838   2.444   2.916   2.551  1.5157 -0.2315  0.2847
 1954Sol     OW10839   2.274   2.505   2.952  0.3140  0.0552 -0.4261
 1954Sol     HW10840   2.342   2.572   2.949 -0.6477  1.1801  1.7570
 1954Sol     HW10841   2.322   2.423   2.963  1.3924  0.6433 -0.6832
 1954Sol     MW10842   2.285   2.504   2.953 -1.3333  0.3277  0.5764
 1955Sol     OW10843   2.142   2.942   5.086 -0.9106  0.6920  0.2115
 1955Sol     HW10844   2.230   2.921   5.116 -0.5467  1.4326 -0.3209
 1955Sol     HW10845   2.094   2.859   5.091  0.2969 -0.1059 -1.1827
 1955Sol     MW10846   2.146   2.933   5.089 -0.5885 -0.5343  0.0457
 1956Sol     OW10847   1.901   0.329   2.096 -0.3173 -0.4177  0.1713
 1956Sol     HW10848   1.914   0.423   2.095  0.6159 -0.5415 -1.0459
 1956Sol     HW10849   1.970   0.296   2.154  0.6659 -0.5089 -1.0225
 1956Sol     MW10850   1.908   0.334   2.101  0.5092 -0.2670 -0.3602
 1957Sol     OW10851   1.237   1.062   6.962  0.2368  0.7325  0.1819
 1957Sol     HW10852   1.325   1.052   6.999  0.1030  2.2246  0.9152
 1957Sol     HW10853   1.181   1.079   7.037 -0.6523  0.0315 -0.3122
 1957Sol     MW10854   1.240   1.062   6.972  0.1030 -0.2387  0.0192
 1958Sol     OW10855   1.515   0.298   9.565 -0.0590  0.3514  0.5529
 1958Sol     HW10856   1.588   0.305   9.627  0.7663  0.0078 -0.3742
 1958Sol     HW10857   1.437   0.312   9.619  0.4757 -2.3482  2.1473
 1958Sol     MW10858   1.515   0.300   9.576 -0.2014 -0.4020  0.6900
 1959Sol     OW10859   2.873   2.814   7.940  0.2374 -0.2929  0.2485
 1959Sol     HW10860   2.780   2.801   7.921 -0.4610  1.8593  2.0735
 1959Sol     HW10861   2.910   2.841   7.856 -1.6379  3.0664  0.4215
 1959Sol     MW10862   2.868   2.815   7.931  0.2148 -0.0330 -0.1015
 1960Sol     OW10863   2.779   1.312   5.094  0.0576  0.0837 -0.0970
 1960Sol     HW10864   2.786   1.396   5.048 -0.7512 -0.1554 -0.6719
 1960Sol     HW10865   2.703   1.270   5.055 -0.1178 -0.5067  0.8673
 1960Sol     MW10866   2.773   1.316   5.086 -0.1177  0.9364  0.1293
 1961Sol     OW10867   3.161   0.356   1.630  0.6752  0.0898 -0.2042
 1961Sol     HW10868   3.116   0.419   1.574 -0.7319  0.5092  1.3510
 1961Sol     HW10869   3.119   0.366   1.716 -0.9236 -4.3419 -0.3699
 1961Sol     MW10870   3.153   0.363   1.633  0.5619 -0.4172  0.4186
 1962Sol     OW10871   2.156   1.291   6.698 -0.5707  0.0394 -0.0997
 1962Sol     HW10872   2.169   1.224   6.765  2.1118  0.8525  0.2749
 1962Sol     HW10873   2.243   1.330   6.686 -1.8193  2.6759 -1.1060
 1962Sol     MW10874   2.165   1.289   6.703  0.0396  0.5037 -0.4215
 1963Sol     OW10875   0.370   2.710   8.033  0.5320 -0.2175  0.0068
 1963Sol     HW10876   0.304   2.645   8.011  0.8605  0.0693 -1.9194
 1963Sol     HW10877   0.322   2.782   8.074 -0.3454 -0.0630 -1.2741
 1963Sol     MW10878   0.360   2.711   8.034 -0.3080 -0.8914  0.3786
 1964Sol     OW10879   2.067   2.998   1.816 -0.2968  0.2955  0.5934
 1964Sol     HW10880   2.157   2.967   1.804 -0.0521  1.2302 -0.0052
 1964Sol     HW10881   2.025   2.928   1.866  0.2262 -1.0780 -0.8265
 1964Sol     MW10882   2.071   2.989   1.819  0.0293 -0.2033  0.0933
 1965Sol     OW10883   2.695   2.395   6.302  0.1092  0.0362  0.3043
 1965Sol     HW10884   2.698   2.409   6.396 -0.3248  0.8714  0.1964
 1965Sol     HW10885   2.777   2.434   6.270  0.9719 -1.5874  0.5025
 1965Sol     MW10886   2.703   2.400   6.307  0.3148  0.0271 -1.0535
 1966Sol     OW10887   1.968   1.469   5.763  0.2152 -0.1374 -0.0549
 1966Sol     HW10888   2.038   1.406   5.749  0.5712  0.1878  0.2515
 1966Sol     HW10889   1.940   1.455   5.854 -0.0613 -0.2095 -0.1491
 1966Sol     MW10890   1.971   1.462   5.770  0.0137  0.8644 -0.2583
 1967Sol     OW10891   0.437   0.273   4.256  0.1647  0.0560  0.1076
 1967Sol     HW10892   0.499   0.264   4.328 -0.0878  0.0498  0.3271
 1967Sol     HW10893   0.372   0.335   4.288  0.1340  0.1706 -0.1736
 1967Sol     MW10894   0.436   0.278   4.265 -0.0838 -0.2325  0.3738
 1968Sol     OW10895   0.645   2.799   4.018  0.0062 -0.9033  0.4068
 1968Sol     HW10896   0.667   2.740   4.090 -2.1928  0.5589  2.3294
 1968Sol     HW10897   0.590   2.747   3.960  3.6577 -2.8295 -1.5501
 1968Sol     MW10898   0.642   2.789   4.019 -0.8338 -0.5728  0.4356
 1969Sol     OW10899   1.126   0.194   2.505  0.4799  0.2316 -0.4533
 1969Sol     HW10900   1.220   0.177   2.516  0.7352  1.8023 -0.0957
 1969Sol     HW10901   1.116   0.215   2.412  0.3752 -0.5567 -0.6226
 1969Sol     MW10902   1.134   0.194   2.497  0.8688  0.1393  0.2781
 1970Sol     OW10903   1.735   0.030   6.630 -0.8368  0.5473 -0.0608
 1970Sol     HW10904   1.772   0.025   6.542 -0.2505  2.0181  0.0879
 1970Sol     HW10905   1.658  -0.027   6.627 -0.7616  0.5093 -1.4990
 1970Sol     MW10906   1.731   0.025   6.622 -1.1661  0.0593 -0.1359
 1971Sol     OW10907   2.814   0.473   8.266  0.2081  0.1016  0.2250
 1971Sol     HW10908   2.839   0.544   8.206  1.3737 -1.8784 -1.7014
 1971Sol     HW10909   2.718   0.472   8.263  0.2498 -0.0327 -1.7174
 1971Sol     MW10910   2.807   0.480   8.260 -0.0490 -0.4553 -0.4553
 1972Sol     OW10911   3.108   2.613   7.505 -0.1222 -0.2118 -0.8954
 1972Sol     HW10912   3.200   2.628   7.486 -0.3888  1.8020 -0.6930
 1972Sol     HW10913   3.098   2.635   7.597 -0.4332 -2.3247 -0.3908
 1972Sol     MW10914   3.115   2.616   7.511  0.6748 -0.2692 -0.0471
 1973Sol     OW10915   0.426   1.941   6.738  0.1081  0.1331 -0.4757
 1973Sol     HW10916   0.331   1.932   6.746  0.3134  1.1271  3.9263
 1973Sol     HW10917   0.437   2.018   6.682 -1.6690  1.0046  0.3235
 1973Sol     MW10918   0.418   1.947   6.733  0.3678 -0.5082 -0.0684
 1974Sol     OW10919   1.455   2.709   5.002 -0.2867 -0.1364 -0.4094
 1974Sol     HW10920   1.373   2.749   5.028 -0.2807 -0.4409  0.0814
 1974Sol     HW10921   1.496   2.773   4.944  0.7790  1.5735  2.1565
 1974Sol     MW10922   1.452   2.718   4.999 -0.0423 -0.0753  0.8469
 1975Sol     OW10923   1.461   0.255   9.011  0.4280 -0.2403  0.4151
 1975Sol     HW10924   1.556   0.268   9.011  0.2721  0.9638  0.7764
 1975Sol     HW10925   1.441   0.225   8.922  0.8700  1.7022 -0.3611
 1975Sol     MW10926   1.467   0.254   9.003  0.0408 -0.3991  0.2465
 1976Sol     OW10927   2.223   2.416   2.700  0.1955 -0.3653  0.2603
 1976Sol     HW10928   2.220   2.479   2.772  4.8143  0.8957 -0.5188
 1976Sol     HW10929   2.191   2.335   2.738  0.1802  0.8980  3.0412
 1976Sol     MW10930   2.220   2.415   2.710  0.1255 -0.5193 -0.5877
 1977Sol     OW10931   1.356   0.160   8.762 -0.0093  0.1696 -0.4449
 1977Sol     HW10932   1.293   0.162   8.690  0.4149  1.6719 -0.7971
 1977Sol     HW10933   1.430   0.211   8.730  0.0686  1.1077  1.1586
 1977Sol     MW10934   1.357   0.165   8.753  0.7012  0.7831 -0.5469
 1978Sol     OW10935   0.543   2.174   7.211 -0.1421  0.8492  0.3385
 1978Sol     HW10936   0.535   2.196   7.304 -0.4586  0.8381  0.3154
 1978Sol     HW10937   0.472   2.222   7.168 -1.0377 -0.4490  0.3340
 1978Sol     MW10938   0.536   2.180   7.215 -0.5933  1.1891  0.0350
 1979Sol     OW10939   2.293   2.834   3.103  0.0143  0.6114 -0.3388
 1979Sol     HW10940   2.366   2.809   3.046  1.1665 -0.3332  1.5292
 1979Sol     HW10941   2.296   2.773   3.176 -2.4486  0.7868 -0.0348
 1979Sol     MW10942   2.300   2.827   3.104  1.0331  0.2161  1.0478
 1980Sol     OW10943   1.986   0.399   8.235 -0.6953 -0.0411  0.8979
 1980Sol     HW10944   1.991   0.363   8.324  1.6514 -2.8277 -0.2921
 1980Sol     HW10945   2.001   0.324   8.178 -1.3211  1.8597 -1.8627
 1980Sol     MW10946   1.988   0.389   8.238  0.0907  0.1687  0.3520
 1981Sol     OW10947   2.376   3.019   1.872 -0.3501 -0.7017 -0.0745
 1981Sol     HW10948   2.363   3.079   1.799 -0.3723 -0.3935  0.1861
 1981Sol     HW10949   2.365   3.072   1.950  1.5135 -0.6351  0.1576
 1981Sol     MW10950   2.374   3.029   1.872 -0.8914  0.6557 -0.4109
 1982Sol     OW10951   1.854   1.956   3.342 -0.1455 -0.1902  0.5358
 1982Sol     HW10952   1.883   1.960   3.433 -2.2300 -0.4585  1.2567
 1982Sol     HW10953   1.802   2.035   3.329 -1.1562 -0.9062  0.0751
 1982Sol     MW10954   1.852   1.963   3.349  0.1049 -0.5380 -0.3462
 1983Sol     OW10955   1.440   1.804   9.157  0.1075  0.2691 -0.4053
 1983Sol     HW10956   1.391   1.880   9.189 -0.5322 -0.2811 -0.0599
 1983Sol     HW10957   1.435   1.741   9.229 -0.4923 -0.6022 -1.2116
 1983Sol     MW10958   1.435   1.805   9.166 -0.0111 -0.2232  0.0420
 1984Sol     OW10959   1.201   1.492   2.803  0.4784 -0.2827 -0.0951
 1984Sol     HW10960   1.269   1.510   2.868  0.0708  2.5587 -0.4130
 1984Sol     HW10961   1.243   1.433   2.741  2.3471  0.6607  0.2377
 1984Sol     MW10962   1.211   1.488   2.804  0.1136  0.1166  0.2311
 1985Sol     OW10963   1.551   0.323   6.405 -0.0233  0.1179 -0.0550
 1985Sol     HW10964   1.617   0.292   6.468 -1.1526 -1.9515  0.1877
 1985Sol     HW10965   1.570   0.416   6.394  1.4510  0.0893  1.8280
 1985Sol     MW10966   1.558   0.328   6.410 -0.2567  0.1056  0.6572
 1986Sol     OW10967   0.770   2.586   4.838 -0.4267 -0.3641 -0.0373
 1986Sol     HW10968   0.804   2.515   4.783 -0.3800 -0.6160  0.3165
 1986Sol     HW10969   0.796   2.666   4.793  2.2576 -0.5056  1.1769
 1986Sol     MW10970   0.775   2.587   4.829 -0.6585  1.0660 -0.0943
 1987Sol     OW10971   2.409   0.036   9.439  0.1648  0.5184 -0.4737
 1987Sol     HW10972   2.351   0.111   9.446  2.0784  2.1637 -1.6654
 1987Sol     HW10973   2.421   0.006   9.529 -1.1288  1.2421 -0.0602
 1987Sol     MW10974   2.405   0.040   9.448  0.2096  0.4655  0.3306
 1988Sol     OW10975   2.814   1.312   9.442  0.5982 -0.2070 -0.2746
 1988Sol     HW10976   2.772   1.291   9.525  1.5819  1.4244  0.6674
 1988Sol     HW10977   2.743   1.347   9.388  0.5909  2.0626  1.1364
 1988Sol     MW10978   2.804   1.313   9.444 -0.2161  0.0399  0.7672
 1989Sol     OW10979   1.425   3.130   7.846 -0.6695  0.0608 -0.8739
 1989Sol     HW10980   1.335   3.136   7.814 -1.1602  0.2341  0.4843
 1989Sol     HW10981   1.431   3.042   7.883 -0.1974 -0.0396 -1.1839
 1989Sol     MW10982   1.418   3.123   7.847 -0.2790 -0.1830 -0.6040
 1990Sol     OW10983   2.309   0.541   3.806 -0.0080 -0.4844  0.1625
 1990Sol     HW10984   2.312   0.604   3.734 -0.5599 -1.4967 -0.7610
 1990Sol     HW10985   2.233   0.486   3.787  1.2564 -2.2842  0.2366
 1990Sol     MW10986   2.302   0.542   3.798  0.4722 -0.8492  0.8848
 1991Sol     OW10987   1.003   1.583   8.036  0.5232 -0.6137  0.1059
 1991Sol     HW10988   0.966   1.671   8.024  1.4647 -0.5330 -2.6440
 1991Sol     HW10989   1.097   1.599   8.048  0.7459 -1.2635 -0.7667
 1991Sol     MW10990   1.008   1.592   8.036 -0.4615  0.1274  0.3845
 1992Sol     OW10991   3.272   0.523   3.772 -0.4038  0.4367 -0.0922
 1992Sol     HW10992   3.232   0.603   3.804  0.6238  0.0853  2.1360
 1992Sol     HW10993   3.230   0.453   3.822  0.4793 -0.2202 -0.2466
 1992Sol     MW10994   3.264   0.524   3.779 -0.3493  0.7207  0.7640
 1993Sol     OW10995   2.803   0.846   2.765  0.0595  0.2591  0.2190
 1993Sol     HW10996   2.737   0.915   2.766 -1.0368 -0.7441 -1.0768
 1993Sol     HW10997   2.829   0.840   2.673  1.3153  0.0291  0.5744
 1993Sol     MW10998   2.800   0.852   2.757 -0.2452  0.3704  0.7714
 1994Sol     OW10999   0.238   1.039   7.227  0.1821 -0.2133  0.4605
 1994Sol     HW11000   0.258   1.054   7.135  1.5926  0.2614  0.8242
 1994Sol     HW11001   0.321   1.012   7.266 -0.1472  0.5920  1.7892
 1994Sol     MW11002   0.247   1.038   7.223  0.9212 -0.4456 -0.4470
 1995Sol     OW11003   0.708   1.360   4.794 -0.6134 -0.2450  0.2393
 1995Sol     HW11004   0.770   1.411   4.847 -1.1129  0.6866 -0.0540
 1995Sol     HW11005   0.685   1.419   4.721 -2.1319 -0.4294  0.5537
 1995Sol     MW11006   0.712   1.370   4.792 -0.5672 -0.0293 -0.7053
 1996Sol     OW11007   1.112   2.148   5.156 -0.2418 -0.4756 -0.1549
 1996Sol     HW11008   1.054   2.160   5.082 -1.4299 -1.2439  0.6301
 1996Sol     HW11009   1.100   2.227   5.209 -0.8127 -0.7741  0.1640
 1996Sol     MW11010   1.106   2.156   5.154 -0.1577  0.0943 -0.5558
 1997Sol     OW11011   0.431   0.360   7.242  0.2345 -0.2061 -0.0163
 1997Sol     HW11012   0.377   0.433   7.272 -1.0572 -0.8307 -0.8098
 1997Sol     HW11013   0.393   0.335   7.157  1.7886 -0.6130 -0.6184
 1997Sol     MW11014   0.423   0.364   7.237  0.4724 -0.6638  0.2518
 1998Sol     OW11015   0.154   0.692   1.564 -0.1772  0.1825 -0.3015
 1998Sol     HW11016   0.122   0.604   1.584  2.8078 -1.3983 -2.0135
 1998Sol     HW11017   0.075   0.746   1.559 -2.0345 -2.3013  1.2300
 1998Sol     MW11018   0.144   0.689   1.565  0.1259  0.1782  0.2006
 1999Sol     OW11019   1.411   0.744   6.597  0.3370  0.4928  0.4980
 1999Sol     HW11020   1.478   0.677   6.599 -0.1498  0.0166  1.0043
 1999Sol     HW11021   1.329   0.697   6.611  0.0954  1.3303  1.9921
 1999Sol     MW11022   1.409   0.734   6.598  0.5610  0.1286  0.0774
 2000Sol     OW11023   2.084   0.800   9.682  0.0602 -0.3128  0.0959
 2000Sol     HW11024   2.134   0.837   9.609 -0.1844 -0.6410 -0.2416
 2000Sol     HW11025   2.106   0.707   9.681  1.6877  0.0285  1.7589
 2000Sol     MW11026   2.090   0.795   9.675 -0.1022 -0.5492  0.5693
 2001Sol     OW11027   0.418   2.202   6.091  0.4546 -0.5554 -0.0164
 2001Sol     HW11028   0.512   2.221   6.098  0.0581  1.5831 -0.1593
 2001Sol     HW11029   0.392   2.243   6.009 -1.3196  2.0114  1.7580
 2001Sol     MW11030   0.424   2.207   6.084 -0.4949 -0.6136 -0.5071
 2002Sol     OW11031   1.278   1.573   8.714 -0.1633 -0.1639 -0.0831
 2002Sol     HW11032   1.203   1.616   8.755 -0.3587 -0.7105  0.1364
 2002Sol     HW11033   1.300   1.629   8.640  0.6373  1.2319  1.1825
 2002Sol     MW11034   1.273   1.582   8.711  0.5308  1.0434  0.6071
 2003Sol     OW11035   3.026   2.626   6.796  0.3557 -0.0454  0.4564
 2003Sol     HW11036   3.006   2.719   6.803 -0.9076 -0.3320  0.8468
 2003Sol     HW11037   3.026   2.594   6.886 -1.1370 -0.7895  0.2154
 2003Sol     MW11038   3.024   2.632   6.805 -0.1848 -0.0443 -0.2278
 2004Sol     OW11039   1.271   1.221   6.754  0.2179  0.5306  0.1135
 2004Sol     HW11040   1.342   1.176   6.709 -1.2926 -0.3093 -1.4882
 2004Sol     HW11041   1.244   1.160   6.823 -0.2414  0.0058 -0.5277
 2004Sol     MW11042   1.275   1.211   6.756  0.2799  0.8009 -0.6434
 2005Sol     OW11043   2.457   0.479   5.096 -0.1536 -0.0668 -0.0593
 2005Sol     HW11044   2.552   0.483   5.105 -0.0752  1.0869 -1.2258
 2005Sol     HW11045   2.440   0.390   5.063  0.2606 -1.2278  2.7445
 2005Sol     MW11046   2.464   0.471   5.094  0.4380 -0.4682  0.0246
 2006Sol     OW11047   3.041   0.347   6.404  0.3958  0.2688 -0.5121
 2006Sol     HW11048   3.043   0.430   6.453  2.5621  0.4427 -0.8273
 2006Sol     HW11049   2.986   0.365   6.328 -0.5010  0.9210  0.2903
 2006Sol     MW11050   3.036   0.356   6.401 -0.2486 -0.4619 -0.7237
 2007Sol     OW11051   0.977   3.345   8.768 -0.4156 -0.5334  0.1287
 2007Sol     HW11052   0.908   3.393   8.814  0.1385  0.8009 -0.4274
 2007Sol     HW11053   1.058   3.371   8.810  0.0078 -0.0189 -0.9965
 2007Sol     MW11054   0.978   3.351   8.776 -0.5860 -0.1248  0.3866
 2008Sol     OW11055   2.219   3.104   8.418 -0.1954 -0.0937  0.3603
 2008Sol     HW11056   2.315   3.106   8.422 -0.1485 -0.1095 -0.5631
 2008Sol     HW11057   2.190   3.148   8.497  0.5747 -0.6609  0.9608
 2008Sol     MW11058   2.225   3.108   8.425 -0.0781  0.2869  0.1434
 2009Sol     OW11059   0.092   2.939   4.059  0.0875 -0.0142 -0.7427
 2009Sol     HW11060   0.018   2.885   4.033 -0.5460  0.8974 -0.8799
 2009Sol     HW11061   0.147   2.944   3.980  0.8123 -1.5141 -0.3418
 2009Sol     MW11062   0.090   2.935   4.049 -0.1673 -0.0086 -0.1313
 2010Sol     OW11063   1.751   3.103   3.627 -0.1940  0.3180  0.7695
 2010Sol     HW11064   1.756   3.170   3.695 -0.5321 -0.8257  1.9630
 2010Sol     HW11065   1.666   3.061   3.640 -1.7171  2.2607 -2.5212
 2010Sol     MW11066   1.744   3.105   3.635  0.8481  0.2464  0.2188
 2011Sol     OW11067   2.050   1.712   3.024 -0.2946  0.1022  0.1098
 2011Sol     HW11068   2.079   1.764   3.099 -2.5309  0.1679  0.9894
 2011Sol     HW11069   2.119   1.647   3.011  0.6391  0.7919  1.5297
 2011Sol     MW11070   2.059   1.711   3.029  0.4923  0.1854 -0.2690
 2012Sol     OW11071   3.096   1.667   4.098 -0.2247  0.5718 -0.0067
 2012Sol     HW11072   3.009   1.664   4.059 -1.0078  2.0626  1.5324
 2012Sol     HW11073   3.104   1.757   4.131  0.5752 -0.4495  2.7360
 2012Sol     MW11074   3.089   1.675   4.098  0.4923  0.4462 -0.0338
 2013Sol     OW11075   1.525   2.760   4.611  1.4581 -0.1580 -0.6490
 2013Sol     HW11076   1.547   2.670   4.587  1.3909 -0.3453 -0.0194
 2013Sol     HW11077   1.569   2.814   4.545  0.4288 -0.6985 -1.8031
 2013Sol     MW11078   1.531   2.757   4.603 -0.5917 -0.0763  0.4397
 2014Sol     OW11079   1.478   3.284   7.094 -0.0689  0.2417 -0.2812
 2014Sol     HW11080   1.521   3.198   7.091  0.6414  0.5392  0.7422
 2014Sol     HW11081   1.403   3.271   7.151 -1.0446 -0.1498 -1.6431
 2014Sol     MW11082   1.475   3.275   7.099 -0.3275 -0.8090  0.3120
 2015Sol     OW11083   2.643   0.821   1.946  0.5340  0.0739  0.0842
 2015Sol     HW11084   2.555   0.783   1.946  0.8250 -0.6231  0.4804
 2015Sol     HW11085   2.630   0.913   1.923 -0.0414 -0.6107 -2.4969
 2015Sol     MW11086   2.634   0.826   1.944  0.4772 -0.2954  0.3633
 2016Sol     OW11087   1.352   3.049   4.895  0.5373  0.3324 -0.1700
 2016Sol     HW11088   1.263   3.024   4.870  1.7698 -2.5339 -1.9134
 2016Sol     HW11089   1.366   3.133   4.853 -1.0297  0.3658 -0.6529
 2016Sol     MW11090   1.345   3.054   4.889 -0.3884 -0.6781  0.3049
 2017Sol     OW11091   0.696   0.310   4.653  0.3753  0.2966 -0.0081
 2017Sol     HW11092   0.728   0.271   4.734 -0.1338  0.1958  0.1456
 2017Sol     HW11093   0.762   0.376   4.630  0.9900 -0.3092 -0.0082
 2017Sol     MW11094   0.705   0.312   4.658 -0.1085 -0.0263  0.6801
 2018Sol     OW11095   2.893   2.939   9.303 -0.1651  0.3635 -0.1298
 2018Sol     HW11096   2.912   2.846   9.304  1.5930  0.7151  0.9670
 2018Sol     HW11097   2.860   2.957   9.215  2.0705 -0.7761 -1.2167
 2018Sol     MW11098   2.891   2.933   9.295  0.5825  0.9637  0.1685
 2019Sol     OW11099   0.246   2.589   5.521 -0.7077 -0.1591 -0.1881
 2019Sol     HW11100   0.331   2.546   5.536 -0.6792  0.3180  1.0587
 2019Sol     HW11101   0.195   2.568   5.599 -2.2833 -1.6966 -1.5960
 2019Sol     MW11102   0.249   2.583   5.529  0.3883 -0.2865 -0.2342
 2020Sol     OW11103   1.840   3.303   3.058  0.3540  0.3743  0.2871
 2020Sol     HW11104   1.888   3.319   3.139 -0.3578  1.5070  0.4841
 2020Sol     HW11105   1.899   3.334   2.989  0.9366 -0.5406  0.3568
 2020Sol     MW11106   1.850   3.307   3.059 -0.1660  0.2582 -0.1760
 2021Sol     OW11107   1.949   0.300   4.254  0.7361  0.0819 -0.1512
 2021Sol     HW11108   1.926   0.366   4.188 -0.6842  1.8425  2.0109
 2021Sol     HW11109   1.985   0.351   4.326 -1.3803 -1.3631  1.9922
 2021Sol     MW11110   1.950   0.311   4.254  0.4124 -0.8463 -0.9318
 2022Sol     OW11111   3.077   2.632   7.784  0.7611 -0.2898 -0.3962
 2022Sol     HW11112   3.109   2.562   7.841  0.0609 -0.7634 -0.5973
 2022Sol     HW11113   3.148   2.696   7.785  2.1306 -1.7496 -1.5583
 2022Sol     MW11114   3.087   2.632   7.789  0.0154 -0.6820 -0.5457
 2023Sol     OW11115   2.809   0.881   5.175  0.4102  0.0344 -0.1470
 2023Sol     HW11116   2.743   0.942   5.144 -0.8538 -0.8492  0.7637
 2023Sol     HW11117   2.775   0.849   5.259  1.1879 -1.6731 -0.4588
 2023Sol     MW11118   2.800   0.883   5.180 -0.1039  0.2541 -0.0093
 2024Sol     OW11119   2.377   0.565   4.430 -0.0772 -0.4995 -0.0347
 2024Sol     HW11120   2.350   0.543   4.519 -0.4501  0.0994  0.0001
 2024Sol     HW11121   2.368   0.660   4.425 -1.2289 -0.6519 -1.0915
 2024Sol     MW11122   2.374   0.572   4.437  1.1017  0.2815  1.1126
 2025Sol     OW11123   1.216   0.289   4.397  0.4400 -0.0390  0.3383
 2025Sol     HW11124   1.206   0.293   4.493 -0.4088 -1.8830  0.3474
 2025Sol     HW11125   1.310   0.293   4.383  0.6717 -1.4930  1.3595
 2025Sol     MW11126   1.223   0.290   4.405 -1.2317 -0.2781  0.5311
 2026Sol     OW11127   2.645   0.658   8.918 -0.1771 -0.2245  0.5572
 2026Sol     HW11128   2.628   0.597   8.847  0.1952 -0.3865  0.6018
 2026Sol     HW11129   2.705   0.722   8.881  0.5374 -0.6766  0.8998
 2026Sol     MW11130   2.649   0.658   8.909 -0.3960  1.3817  0.6867
 2027Sol     OW11131   1.337   3.255   8.657 -0.3992  0.9976  0.2896
 2027Sol     HW11132   1.284   3.279   8.733  0.5641  1.8237  0.7074
 2027Sol     HW11133   1.285   3.284   8.581 -0.2813  2.3534  0.7138
 2027Sol     MW11134   1.328   3.260   8.657 -0.3587 -0.8741 -0.3342
 2028Sol     OW11135   0.738   0.137   4.894  0.0105 -0.0152  0.1459
 2028Sol     HW11136   0.724   0.089   4.813  0.9107  2.9027 -1.8369
 2028Sol     HW11137   0.827   0.171   4.887 -0.9092  2.7190  1.0066
 2028Sol     MW11138   0.745   0.136   4.886 -1.2751  0.7857 -0.1756
 2029Sol     OW11139   0.328   0.177   7.829  0.5092 -0.2557 -1.0068
 2029Sol     HW11140   0.335   0.172   7.925  0.9634 -1.4293 -1.0971
 2029Sol     HW11141   0.266   0.108   7.806 -1.6838  1.7396 -1.3426
 2029Sol     MW11142   0.323   0.170   7.836  0.0694  0.2989  0.3187
 2030Sol     OW11143   1.943   1.417   6.387 -0.2163  0.0587 -0.3465
 2030Sol     HW11144   1.912   1.433   6.298 -1.1268  0.2770  0.0090
 2030Sol     HW11145   2.031   1.455   6.388  0.3467 -1.1639 -1.5531
 2030Sol     MW11146   1.949   1.422   6.379  0.9892  0.0742  0.5179
 2031Sol     OW11147   1.068   0.288   2.249 -0.1241  0.2747 -0.2427
 2031Sol     HW11148   1.048   0.366   2.301 -0.5742 -0.1024  0.1424
 2031Sol     HW11149   1.148   0.312   2.202  1.6575 -0.2266  2.4107
 2031Sol     MW11150   1.074   0.298   2.249  0.2395 -0.2923 -0.5057
 2032Sol     OW11151   2.452   3.284   2.353 -0.2962  0.2381  0.6421
 2032Sol     HW11152   2.425   3.195   2.376 -0.8943  0.2555  0.0291
 2032Sol     HW11153   2.547   3.279   2.342 -0.2121 -0.1222  1.4986
 2032Sol     MW11154   2.458   3.276   2.354 -0.7222  0.6580 -0.3317
 2033Sol     OW11155   2.186   1.696   2.765 -0.4841  0.0512  0.4040
 2033Sol     HW11156   2.117   1.702   2.831 -2.7164  0.9878 -1.9548
 2033Sol     HW11157   2.153   1.633   2.701  0.9562  0.3318 -0.6377
 2033Sol     MW11158   2.177   1.691   2.765  0.0303 -0.5399 -0.6162
 2034Sol     OW11159   2.380   2.119   6.430  0.5163  0.7260 -0.0342
 2034Sol     HW11160   2.408   2.165   6.351 -0.6050 -0.1937 -0.9804
 2034Sol     HW11161   2.458   2.072   6.459  0.4418 -0.3890 -1.6285
 2034Sol     MW11162   2.390   2.119   6.426  0.6672 -1.6515  0.2282
 2035Sol     OW11163   0.974   0.800   3.016 -0.5262  0.4279 -0.3812
 2035Sol     HW11164   0.907   0.746   2.976 -0.6105 -0.4536  0.9111
 2035Sol     HW11165   1.036   0.737   3.054  0.1728  1.2331 -0.1751
 2035Sol     MW11166   0.974   0.789   3.016 -0.9833  0.1679  1.6432
 2036Sol     OW11167   2.097   1.997   5.606 -0.1473 -0.1064  0.2558
 2036Sol     HW11168   2.152   2.001   5.528 -0.9555 -0.2989 -0.3287
 2036Sol     HW11169   2.025   1.938   5.582 -0.8403  0.4848  0.8560
 2036Sol     MW11170   2.095   1.992   5.597 -0.6672 -0.5677  0.2159
 2037Sol     OW11171   2.953   2.249   9.253 -0.2643  0.1815  0.3201
 2037Sol     HW11172   3.032   2.267   9.202  0.2864  0.4559  1.2615
 2037Sol     HW11173   2.961   2.157   9.277 -0.9228 -0.1711 -0.7589
 2037Sol     MW11174   2.961   2.242   9.250  0.4479 -0.4363 -1.4168
 2038Sol     OW11175   0.812   3.147   5.938 -0.3765  0.0299  0.2483
 2038Sol     HW11176   0.853   3.203   6.004  0.3910 -0.3765  0.1195
 2038Sol     HW11177   0.729   3.190   5.919  1.1095  2.3341 -1.4231
 2038Sol     MW11178   0.808   3.156   5.942 -0.6649  0.2854  0.1320
 2039Sol     OW11179   2.748   2.144   8.649 -0.3579  0.2808 -0.0883
 2039Sol     HW11180   2.711   2.069   8.604  0.1419  0.0513 -0.1239
 2039Sol     HW11181   2.739   2.124   8.742  2.4451 -1.1836 -0.0819
 2039Sol     MW11182   2.744   2.136   8.653  0.1661 -1.5085  0.1438
 2040Sol     OW11183   2.110   2.526   8.313  0.2901 -0.3353  0.8807
 2040Sol     HW11184   2.043   2.589   8.286  0.4727 -0.8209 -0.7759
 2040Sol     HW11185   2.170   2.521   8.238  0.9960 -1.5007  1.5060
 2040Sol     MW11186   2.110   2.531   8.304 -0.1732  0.2738  0.1386
 2041Sol     OW11187   1.888   2.506   5.970 -0.0043 -0.3668  0.2465
 2041Sol     HW11188   1.840   2.586   5.988  0.5715 -0.1452  0.7774
 2041Sol     HW11189   1.873   2.490   5.876  2.7988  2.3111 -0.7413
 2041Sol     MW11190   1.882   2.512   5.963 -0.3738 -0.7486  0.2004
 2042Sol     OW11191   1.478   2.880   8.948 -0.0247  0.1216 -0.1547
 2042Sol     HW11192   1.477   2.942   8.876  0.0592 -0.4602 -0.6552
 2042Sol     HW11193   1.553   2.823   8.931 -0.5693 -0.6113 -0.1156
 2042Sol     MW11194   1.485   2.880   8.940  0.5393 -0.3003  0.1036
 2043Sol     OW11195   2.462   1.316   1.892  0.4301 -0.2984 -1.1029
 2043Sol     HW11196   2.405   1.291   1.965 -0.2442  2.3836 -0.6488
 2043Sol     HW11197   2.539   1.354   1.934  1.5560 -1.7920 -1.7698
 2043Sol     MW11198   2.464   1.317   1.903 -0.0341 -0.8410 -0.6125
 2044Sol     OW11199   0.487   1.203   6.344  0.2862 -0.0644  0.1244
 2044Sol     HW11200   0.410   1.146   6.339  0.3516 -0.0631 -1.0159
 2044Sol     HW11201   0.471   1.258   6.421 -0.3126 -0.8362  0.5618
 2044Sol     MW11202   0.478   1.203   6.351  0.1732  0.2132 -0.0272
 2045Sol     OW11203   0.428   1.187   2.178  0.1304 -0.1336 -0.0187
 2045Sol     HW11204   0.369   1.245   2.130  1.3458  1.1113 -0.0351
 2045Sol     HW11205   0.381   1.167   2.259  0.3295  2.1253  0.6785
 2045Sol     MW11206   0.418   1.191   2.181 -0.7123  0.1205 -0.5193
 2046Sol     OW11207   1.478   1.932   5.861  0.1986 -0.6377 -0.2814
 2046Sol     HW11208   1.519   1.848   5.838  3.0347  0.1916  1.5043
 2046Sol     HW11209   1.451   1.920   5.952 -0.5456 -0.0117 -0.4187
 2046Sol     MW11210   1.479   1.923   5.867  0.5695  0.1641 -0.4564
 2047Sol     OW11211   2.598   2.126   9.370 -0.1911  0.7252 -0.0492
 2047Sol     HW11212   2.600   2.133   9.274 -1.6630  0.7861 -0.0770
 2047Sol     HW11213   2.520   2.074   9.389  0.8106 -0.3961  1.0687
 2047Sol     MW11214   2.591   2.122   9.363 -0.0029  0.1680  0.2093
 2048Sol     OW11215   1.218   1.803   9.917 -0.4436  0.4166  0.6876
 2048Sol     HW11216   1.167   1.755   9.852  3.5977 -0.4464 -1.9938
 2048Sol     HW11217   1.200   1.895   9.898  0.7774  0.1794 -1.7671
 2048Sol     MW11218   1.212   1.807   9.909  0.0916 -0.8145  0.5901
 2049Sol     OW11219   1.296   0.585   1.698  0.5092  0.2435  0.1015
 2049Sol     HW11220   1.360   0.607   1.765  0.8087 -1.8595  0.5423
 2049Sol     HW11221   1.295   0.489   1.696 -1.2878  0.2587 -1.1741
 2049Sol     MW11222   1.301   0.578   1.704  0.8815 -0.0474 -0.5677
 2050Sol     OW11223   1.870   0.821   8.139 -0.2081 -0.2033 -0.2181
 2050Sol     HW11224   1.897   0.751   8.079 -0.2285  0.5072 -1.0628
 2050Sol     HW11225   1.887   0.902   8.091 -1.6038  0.3261  0.1542
 2050Sol     MW11226   1.874   0.822   8.129  0.3034 -0.7514 -0.2080
 2051Sol     OW11227   1.770   0.674   4.676  0.2081  0.6054  0.8610
 2051Sol     HW11228   1.767   0.590   4.630  2.2513  0.9712  0.0079
 2051Sol     HW11229   1.694   0.722   4.643 -0.7447 -0.7536  1.0528
 2051Sol     MW11230   1.763   0.671   4.669 -0.6612  0.4994 -0.3893
 2052Sol     OW11231   2.977   1.509   5.461  0.1901  0.5739 -0.1906
 2052Sol     HW11232   2.928   1.427   5.458  0.4319  0.4807 -1.7342
 2052Sol     HW11233   2.916   1.575   5.429  0.5305  0.7295 -0.5202
 2052Sol     MW11234   2.967   1.507   5.458 -0.4168  1.0858  0.7972
 2053Sol     OW11235   2.599   0.692   8.183 -0.3628 -0.3763 -0.0256
 2053Sol     HW11236   2.553   0.614   8.214  0.7450 -0.9351  0.2367
 2053Sol     HW11237   2.595   0.685   8.087 -0.5468 -0.5958 -0.0030
 2053Sol     MW11238   2.595   0.684   8.177 -1.2924 -0.3824  0.1480
 2054Sol     OW11239   2.804   0.383   5.637 -0.2849  0.0468  0.0630
 2054Sol     HW11240   2.878   0.362   5.579  1.3248  0.2737  1.9754
 2054Sol     HW11241   2.825   0.470   5.672 -1.2096 -0.1112  1.0231
 2054Sol     MW11242   2.813   0.389   5.635 -0.2611 -0.2685  0.2987
 2055Sol     OW11243   2.127   2.774   2.431 -0.4398  0.2766 -0.0359
 2055Sol     HW11244   2.126   2.844   2.497 -1.3207  0.4817 -0.2716
 2055Sol     HW11245   2.147   2.820   2.349 -0.6924  0.2060 -0.1359
 2055Sol     MW11246   2.129   2.785   2.430  0.1162  0.0601 -0.4360
 2056Sol     OW11247   2.604   0.679   7.208 -0.2395  0.1428 -0.3689
 2056Sol     HW11248   2.685   0.688   7.157 -0.0680  3.4167  0.3620
 2056Sol     HW11249   2.536   0.714   7.151 -0.9260 -1.2105 -0.4011
 2056Sol     MW11250   2.605   0.683   7.198  0.0678  0.1794 -0.1166
 2057Sol     OW11251   2.063   0.169   8.884 -0.2323  0.0311 -0.3647
 2057Sol     HW11252   2.017   0.088   8.862  0.0169 -0.7820  1.9580
 2057Sol     HW11253   2.135   0.140   8.940  0.6937  1.7354 -0.6534
 2057Sol     MW11254   2.066   0.159   8.887  0.9423 -0.1136  0.4042
 2058Sol     OW11255   0.780   0.654   6.222 -0.1725 -0.1524  0.3684
 2058Sol     HW11256   0.702   0.626   6.270 -1.7951  2.5931 -0.5295
 2058Sol     HW11257   0.800   0.582   6.162 -3.0350 -0.1922 -0.5783
 2058Sol     MW11258   0.775   0.645   6.221  0.2726  0.1394  0.0113
 2059Sol     OW11259   0.548   1.946   6.151 -0.3415 -0.5080  0.3975
 2059Sol     HW11260   0.594   1.958   6.068  0.1871 -0.0494  0.7514
 2059Sol     HW11261   0.478   2.010   6.149  0.2580  0.1695  0.7115
 2059Sol     MW11262   0.546   1.953   6.143 -0.4270  0.0218 -0.3705
 2060Sol     OW11263   1.488   1.447   4.477 -0.3009 -0.7779 -0.3766
 2060Sol     HW11264   1.580   1.449   4.504 -0.6647 -2.0159  1.0157
 2060Sol     HW11265   1.473   1.532   4.435  1.2864 -0.2960  0.0183
 2060Sol     MW11266   1.495   1.455   4.475 -0.5853  0.2307  0.7806
 2061Sol     OW11267   2.401   1.493   6.700 -0.3691 -0.4675 -0.3490
 2061Sol     HW11268   2.469   1.452   6.646 -1.1784 -2.7007  0.2804
 2061Sol     HW11269   2.382   1.575   6.656  1.3923 -0.6990 -1.5917
 2061Sol     MW11270   2.405   1.496   6.692 -0.2936 -1.0254  0.5314
 2062Sol     OW11271   2.103   1.160   6.427 -0.1134  0.4962  0.1193
 2062Sol     HW11272   2.057   1.183   6.346 -0.3938  0.4225  0.2543
 2062Sol     HW11273   2.091   1.237   6.483 -1.4018 -0.1307  0.7200
 2062Sol     MW11274   2.098   1.169   6.425 -0.1201  0.6026  0.1414
 2063Sol     OW11275   2.752   0.231   9.445  0.1413  0.2761  0.0369
 2063Sol     HW11276   2.727   0.138   9.442  0.6614 -0.0433  3.4050
 2063Sol     HW11277   2.677   0.275   9.483  0.1652  1.1684 -0.9220
 2063Sol     MW11278   2.743   0.226   9.448 -0.3362  0.5267 -0.0954
 2064Sol     OW11279   1.514   3.071   6.554 -0.4083  0.0574  0.3983
 2064Sol     HW11280   1.570   3.004   6.592  0.3448  0.4970  0.0732
 2064Sol     HW11281   1.425   3.036   6.564  0.0868 -1.8211 -1.3532
 2064Sol     MW11282   1.511   3.062   6.558  1.1074  0.1157 -0.2508
 2065Sol     OW11283   1.697   2.244   4.079  0.3733 -1.1737  0.0657
 2065Sol     HW11284   1.748   2.180   4.030  1.9464  0.0208  0.0808
 2065Sol     HW11285   1.737   2.245   4.166  1.8987  1.4571 -0.5904
 2065Sol     MW11286   1.705   2.239   4.083 -0.1011  0.0882 -0.4024
 2066Sol     OW11287   1.050   2.862   8.279 -0.4181 -0.2513 -0.0041
 2066Sol     HW11288   1.007   2.783   8.245 -1.5040 -0.9099  2.7695
 2066Sol     HW11289   0.978   2.924   8.292  0.2830  0.8047 -1.0533
 2066Sol     MW11290   1.039   2.861   8.277  0.1565  0.7652  0.3591
 2067Sol     OW11291   2.296   1.846   8.850  0.7272 -0.2797 -0.3036
 2067Sol     HW11292   2.343   1.911   8.901 -0.4854 -0.6462  1.3029
 2067Sol     HW11293   2.352   1.830   8.774  2.3373  0.5858  0.6835
 2067Sol     MW11294   2.305   1.851   8.847 -0.2025 -0.4693  0.1416
 2068Sol     OW11295   1.016   2.864   4.185  0.7492 -0.1337 -0.2996
 2068Sol     HW11296   1.014   2.778   4.143 -0.7946  0.7361 -2.1020
 2068Sol     HW11297   0.963   2.919   4.127  0.6523  1.7096  1.5167
 2068Sol     MW11298   1.011   2.861   4.176 -0.7732  0.2020  0.2675
 2069Sol     OW11299   2.204   0.637   8.255 -0.1311  0.6519  0.4439
 2069Sol     HW11300   2.172   0.629   8.165  1.8775  0.9167 -0.3257
 2069Sol     HW11301   2.239   0.551   8.275  0.1037  0.8115  0.7059
 2069Sol     MW11302   2.204   0.629   8.248  0.7288 -0.2260  0.0213
 2070Sol     OW11303   3.194   2.061   3.605  0.0700  0.2807  0.9147
 2070Sol     HW11304   3.139   2.076   3.682  1.1977 -0.4573  1.8670
 2070Sol     HW11305   3.280   2.040   3.640  0.8675  0.9957 -0.5707
 2070Sol     MW11306   3.197   2.061   3.615  0.2935 -0.4406  0.2487
 2071Sol     OW11307   3.020   0.415   7.384 -0.3070 -0.0568  0.3358
 2071Sol     HW11308   3.105   0.457   7.396 -0.2814 -0.3052  1.0690
 2071Sol     HW11309   3.013   0.401   7.290 -0.5144  2.0013  0.0314
 2071Sol     MW11310   3.027   0.417   7.377  0.3550 -0.4303  0.6596
 2072Sol     OW11311   0.219   1.544   2.884  0.2941 -0.4630  0.0250
 2072Sol     HW11312   0.305   1.530   2.845  1.2967  1.8908  1.2835
 2072Sol     HW11313   0.200   1.636   2.868 -1.9860 -0.9242 -0.1470
 2072Sol     MW11314   0.225   1.551   2.879 -0.3683 -0.7118 -0.3902
 2073Sol     OW11315   1.204   3.389   8.893 -0.5056  0.0265 -0.0167
 2073Sol     HW11316   1.238   3.322   8.951 -0.1276 -0.6022 -0.9520
 2073Sol     HW11317   1.265   3.463   8.904  0.6914 -0.7873 -1.0497
 2073Sol     MW11318   1.213   3.390   8.899  0.0901  1.3043 -0.1242
 2074Sol     OW11319   2.556   0.145   5.974 -0.1085 -0.2797 -0.4496
 2074Sol     HW11320   2.512   0.227   5.948  1.3756  1.4390  2.2138
 2074Sol     HW11321   2.632   0.140   5.916 -0.6001 -0.1338 -1.1086
 2074Sol     MW11322   2.559   0.152   5.967  0.2542 -0.3095 -1.0256
 2075Sol     OW11323   1.080   0.493   6.154 -0.6943 -0.0720 -0.2175
 2075Sol     HW11324   1.078   0.577   6.200  0.7928 -0.3990  0.4497
 2075Sol     HW11325   1.028   0.508   6.075 -0.4626  1.4642 -0.0841
 2075Sol     MW11326   1.075   0.502   6.151 -0.5535  0.9955 -0.5368
 2076Sol     OW11327   0.738   0.530   6.600  0.2624  0.5694 -0.2731
 2076Sol     HW11328   0.800   0.465   6.566  0.3345  0.6682 -0.3352
 2076Sol     HW11329   0.689   0.558   6.523  0.2480  0.6054 -0.2510
 2076Sol     MW11330   0.740   0.527   6.590  0.7739  0.3540 -0.7762
 2077Sol     OW11331   2.097   2.174   2.766 -0.0644  0.2414 -0.4307
 2077Sol     HW11332   2.056   2.186   2.681 -1.0568 -0.2154 -0.0214
 2077Sol     HW11333   2.163   2.106   2.752 -1.4876 -1.1602 -0.4289
 2077Sol     MW11334   2.099   2.169   2.757 -0.2558 -0.0961 -0.0966
 2078Sol     OW11335   3.048   1.917   1.604  0.2021  0.3331 -0.1109
 2078Sol     HW11336   3.136   1.908   1.568  0.3082 -1.0066  0.4866
 2078Sol     HW11337   3.031   2.011   1.602  2.0111  0.6787  0.6630
 2078Sol     MW11338   3.054   1.925   1.600  0.0335  0.6619 -0.5425
 2079Sol     OW11339   0.499   2.866   5.336 -0.2850 -0.1849  0.2452
 2079Sol     HW11340   0.405   2.887   5.328 -0.4202 -0.3844  1.3397
 2079Sol     HW11341   0.501   2.772   5.354  0.1168 -0.0989  0.6352
 2079Sol     MW11342   0.490   2.860   5.337 -0.8233 -0.2268  0.6499
 2080Sol     OW11343   1.804   1.393   5.513  0.2836  0.7577 -0.1002
 2080Sol     HW11344   1.711   1.389   5.537  0.1229 -1.6208 -0.9783
 2080Sol     HW11345   1.851   1.389   5.596 -0.3738  0.0560  0.2418
 2080Sol     MW11346   1.800   1.392   5.523 -0.7524  0.6933 -0.2444
 2081Sol     OW11347   1.668   1.952   1.799  0.1633  0.4905 -0.7241
 2081Sol     HW11348   1.693   1.957   1.891  0.1318 -0.5435 -0.6460
 2081Sol     HW11349   1.574   1.969   1.799 -0.5952 -3.1626 -0.0850
 2081Sol     MW11350   1.662   1.954   1.807 -0.5277  0.4382 -0.6005
 2082Sol     OW11351   2.953   0.926   2.533  0.3831  0.7398 -0.4742
 2082Sol     HW11352   2.988   0.969   2.611 -0.2277 -1.1924  0.9188
 2082Sol     HW11353   3.017   0.857   2.514  0.4794  1.1452 -1.6239
 2082Sol     MW11354   2.962   0.924   2.538 -0.6690 -0.4303  0.2699
 2083Sol     OW11355   2.376   1.483   8.211  0.4610  0.1630 -0.4336
 2083Sol     HW11356   2.349   1.413   8.152 -0.8422 -1.2414  1.7638
 2083Sol     HW11357   2.309   1.551   8.201 -1.3446 -1.2606  1.4167
 2083Sol     MW11358   2.368   1.483   8.205 -0.1208 -0.8286 -0.4498
 2084Sol     OW11359   1.549   0.322   8.670  0.4861 -0.3849 -0.0542
 2084Sol     HW11360   1.627   0.369   8.643  0.9500 -0.4101  1.2017
 2084Sol     HW11361   1.480   0.388   8.673  1.2811  0.3755  2.3496
 2084Sol     MW11362   1.550   0.332   8.668 -0.1689 -0.0113  0.0712
 2085Sol     OW11363   3.015   1.052   4.845  0.3756  0.2783  0.2115
 2085Sol     HW11364   2.940   1.082   4.793 -0.3288  0.0552  1.0882
 2085Sol     HW11365   3.039   1.128   4.897 -0.7400 -0.3387  1.6576
 2085Sol     MW11366   3.010   1.062   4.845 -1.2643 -0.6649 -0.2690
 2086Sol     OW11367   2.045   2.967   6.507 -0.3904 -0.4032  0.0621
 2086Sol     HW11368   2.087   2.889   6.543  1.5133  0.9209  0.8507
 2086Sol     HW11369   2.048   2.955   6.412 -0.8555 -1.6448  0.1936
 2086Sol     MW11370   2.049   2.959   6.502 -0.5108  0.2852 -0.2261
 2087Sol     OW11371   0.320   0.574   3.973 -0.6036  0.0194  0.1403
 2087Sol     HW11372   0.252   0.634   3.943 -0.6391 -0.0059  0.1696
 2087Sol     HW11373   0.307   0.568   4.067 -1.2292 -0.8013  0.0128
 2087Sol     MW11374   0.313   0.579   3.978  0.5915 -0.9868 -0.3557
 2088Sol     OW11375   2.422   3.433   6.792  0.6900  0.4626 -0.0787
 2088Sol     HW11376   2.479   3.403   6.721 -1.0208 -0.3265 -1.1564
 2088Sol     HW11377   2.475   3.423   6.871  2.1008 -0.0769 -1.0731
 2088Sol     MW11378   2.432   3.429   6.792  0.7657 -0.2580  0.5197
 2089Sol     OW11379   3.180   1.895   6.820  0.1955 -0.0001  0.8041
 2089Sol     HW11380   3.266   1.931   6.842  0.5703  0.4400 -1.2763
 2089Sol     HW11381   3.117   1.960   6.851  0.7266  0.8482  0.1017
 2089Sol     MW11382   3.182   1.904   6.825 -0.2470  0.6099  0.8477
 2090Sol     OW11383   1.272   3.289   2.868  0.1838 -0.0276  0.6005
 2090Sol     HW11384   1.226   3.341   2.802 -1.6380 -2.1055  0.1849
 2090Sol     HW11385   1.247   3.329   2.951 -0.0436  0.6407  0.2190
 2090Sol     MW11386   1.266   3.297   2.869 -0.3395 -0.8104  0.2285
 2091Sol     OW11387   0.454   1.051   5.636  0.0713  0.4199 -0.0268
 2091Sol     HW11388   0.502   1.108   5.576  0.5299  0.1682  0.0998
 2091Sol     HW11389   0.440   0.970   5.586  0.9145  0.0126  0.3760
 2091Sol     MW11390   0.457   1.049   5.626 -0.0952 -0.5750 -0.3551
 2092Sol     OW11391   2.536   3.441   3.562  0.3010  0.2309  0.3773
 2092Sol     HW11392   2.611   3.486   3.522  0.4899 -0.8076 -0.4625
 2092Sol     HW11393   2.459   3.483   3.524  0.4740  0.0311 -0.1912
 2092Sol     MW11394   2.536   3.448   3.555  0.2057 -0.0021  0.1611
 2093Sol     OW11395   2.169   0.555   6.363 -0.0156 -0.8982  0.6009
 2093Sol     HW11396   2.130   0.492   6.424 -0.2841 -1.9414 -0.6226
 2093Sol     HW11397   2.214   0.501   6.298  0.4444  0.1995 -0.0029
 2093Sol     MW11398   2.169   0.545   6.363 -0.8788  0.9186 -0.8516
 2094Sol     OW11399   0.240   0.583   3.382  0.6950  0.1785  0.5439
 2094Sol     HW11400   0.197   0.497   3.387 -1.8545  1.4154  1.1760
 2094Sol     HW11401   0.330   0.564   3.357 -0.0716 -2.6059 -0.2718
 2094Sol     MW11402   0.244   0.574   3.380 -0.3298 -0.6562  0.3413
 2095Sol     OW11403   1.244   0.303   6.938 -0.4473  0.0789  0.1362
 2095Sol     HW11404   1.216   0.260   7.019  1.2924 -0.0430  0.7033
 2095Sol     HW11405   1.165   0.307   6.884 -1.8151  0.8127  2.1229
 2095Sol     MW11406   1.235   0.300   6.940  0.4862  0.7807 -0.0114
 2096Sol     OW11407   2.746   0.331   7.392  0.0481 -0.2562  0.2422
 2096Sol     HW11408   2.841   0.342   7.403  0.0631 -0.6651  0.5498
 2096Sol     HW11409   2.722   0.264   7.456 -0.4001 -0.3782 -0.0475
 2096Sol     MW11410   2.752   0.326   7.399 -1.1256  0.0325 -0.5099
 2097Sol     OW11411   3.023   3.383   6.497  0.3640  0.1708  0.2191
 2097Sol     HW11412   3.031   3.330   6.577  1.8082 -1.1732 -0.7661
 2097Sol     HW11413   3.013   3.318   6.427  1.5987  1.2265 -0.9493
 2097Sol     MW11414   3.023   3.372   6.498 -0.2949 -0.0101 -0.4913
 2098Sol     OW11415   1.458   1.311   3.000 -0.0724 -0.0563 -0.3660
 2098Sol     HW11416   1.491   1.318   3.090  0.3289  2.2604 -0.6542
 2098Sol     HW11417   1.518   1.250   2.957  0.4899 -0.1892  0.5904
 2098Sol     MW11418   1.466   1.306   3.005  0.0247  0.1014 -0.0738
 2099Sol     OW11419   2.157   1.022   7.788 -0.5624  0.9237 -0.3282
 2099Sol     HW11420   2.099   1.018   7.864  0.4070  0.3914  0.3899
 2099Sol     HW11421   2.200   0.936   7.786 -0.5907  0.9261 -1.4887
 2099Sol     MW11422   2.156   1.014   7.795  0.2998 -0.1816  0.4253
 2100Sol     OW11423   1.733   2.845   7.253  0.0817  0.1411  0.2761
 2100Sol     HW11424   1.742   2.840   7.348  0.4243 -1.7914  0.1695
 2100Sol     HW11425   1.817   2.817   7.219 -0.7408 -1.3572 -0.5922
 2100Sol     MW11426   1.741   2.842   7.258  0.2520 -0.3501 -0.3833
 2101Sol     OW11427   0.980   0.148   3.136 -0.1703  0.2072  0.0785
 2101Sol     HW11428   0.960   0.242   3.143  1.2977  0.5018  0.3898
 2101Sol     HW11429   0.900   0.105   3.167 -0.6337  1.3598  0.5347
 2101Sol     MW11430   0.971   0.153   3.139 -1.3728  0.2584  0.1448
 2102Sol     OW11431   0.276   2.600   4.045  0.0659  0.2605  0.1118
 2102Sol     HW11432   0.337   2.548   4.098 -0.7784 -0.5687  0.2853
 2102Sol     HW11433   0.266   2.682   4.093  1.0491  0.4087  0.0756
 2102Sol     MW11434   0.280   2.602   4.054 -0.1095  0.3026  0.1520
 2103Sol     OW11435   2.273   0.818   4.480  0.0766  0.2103 -0.5462
 2103Sol     HW11436   2.187   0.785   4.455 -1.4657  1.6794  2.5340
 2103Sol     HW11437   2.286   0.895   4.424 -0.7326  0.1005 -0.8991
 2103Sol     MW11438   2.266   0.822   4.473 -0.9952 -0.3762 -0.1023
 2104Sol     OW11439   2.677   2.479   5.877  0.5254 -0.3136 -0.4700
 2104Sol     HW11440   2.593   2.468   5.832 -0.8910  1.9134  1.4871
 2104Sol     HW11441   2.711   2.390   5.884 -1.5880 -1.2564 -1.4789
 2104Sol     MW11442   2.672   2.470   5.874 -0.3353  0.9771  0.6317
 2105Sol     OW11443   0.247   1.998   3.933  0.0503 -0.0123 -0.4236
 2105Sol     HW11444   0.193   2.054   3.988  0.9653  1.1156 -0.6696
 2105Sol     HW11445   0.243   1.912   3.975  0.6791  0.8247  1.3523
 2105Sol     MW11446   0.242   1.995   3.941 -0.3988 -1.5930  0.4244
 2106Sol     OW11447   0.421   2.431   9.827  0.4188 -0.1756 -0.6621
 2106Sol     HW11448   0.410   2.438   9.732 -0.4180  2.0600 -0.4305
 2106Sol     HW11449   0.332   2.430   9.862  0.7343  0.4266  0.1805
 2106Sol     MW11450   0.412   2.432   9.821 -0.1921  0.0047  0.6213
 2107Sol     OW11451   3.166   0.103   6.339  0.5271 -0.1246  0.0219
 2107Sol     HW11452   3.144   0.189   6.376  0.6898 -0.0000 -0.1744
 2107Sol     HW11453   3.111   0.041   6.389 -0.1152  0.1652 -0.3202
 2107Sol     MW11454   3.159   0.105   6.347  0.3671  0.2459  0.1938
 2108Sol     OW11455   1.487   2.394   3.975 -0.0342  0.2856  0.3193
 2108Sol     HW11456   1.460   2.388   3.883  0.3880  3.1696 -0.0177
 2108Sol     HW11457   1.558   2.329   3.982  0.0877  0.1850 -1.4513
 2108Sol     MW11458   1.491   2.387   3.967 -0.3504 -0.4231 -0.3135
 2109Sol     OW11459   0.856   1.352   2.433  0.1577  0.6213 -0.5755
 2109Sol     HW11460   0.935   1.310   2.468 -0.0833  1.2131  0.6894
 2109Sol     HW11461   0.817   1.286   2.375  0.5482 -0.3708  0.2858
 2109Sol     MW11462   0.860   1.343   2.431 -0.6373  0.4765  0.7298
 2110Sol     OW11463   2.975   1.030   6.225  0.7288  0.1531 -0.0450
 2110Sol     HW11464   2.919   1.107   6.236 -0.4454 -0.2251 -2.8944
 2110Sol     HW11465   3.064   1.063   6.241  0.3135  2.2653 -1.7303
 2110Sol     MW11466   2.978   1.040   6.227  0.1846  0.9504 -0.3864
 2111Sol     OW11467   2.240   0.012   4.342 -0.0627  0.7302 -0.7762
 2111Sol     HW11468   2.181  -0.040   4.287  0.2678 -1.0281  0.4951
 2111Sol     HW11469   2.279  -0.051   4.402 -0.6235  2.6476  1.6833
 2111Sol     MW11470   2.239   0.002   4.342 -0.2427  0.4184  0.4658
 2112Sol     OW11471   0.023   2.292   5.118 -0.1227 -0.3715 -0.3543
 2112Sol     HW11472  -0.061   2.252   5.140  0.4876 -1.2568  0.3789
 2112Sol     HW11473   0.053   2.331   5.200  0.0961  0.1077 -0.6593
 2112Sol     MW11474   0.018   2.292   5.127  0.2641  0.0388  0.4386
 2113Sol     OW11475   0.417   1.811   3.041  0.4107 -0.1946  0.0295
 2113Sol     HW11476   0.475   1.742   3.010  0.1762 -0.3844  0.0144
 2113Sol     HW11477   0.469   1.891   3.034  0.5710 -0.3249 -0.2651
 2113Sol     MW11478   0.427   1.812   3.037  0.2604 -0.0563  0.3703
 2114Sol     OW11479   0.388   3.405   8.876 -0.0088 -0.1349 -0.5154
 2114Sol     HW11480   0.370   3.426   8.967 -2.3111  0.5864 -1.1034
 2114Sol     HW11481   0.420   3.487   8.838  0.0368 -0.1853 -0.5875
 2114Sol     MW11482   0.389   3.414   8.880  0.6982 -0.3477 -1.1405
 2115Sol     OW11483   3.222   2.852   3.193 -0.5609 -0.3647 -0.4969
 2115Sol     HW11484   3.263   2.898   3.121  1.2682  0.0095  0.7454
 2115Sol     HW11485   3.248   2.901   3.271 -3.3418 -0.1626  0.3522
 2115Sol     MW11486   3.228   2.860   3.194  0.4887 -0.6009  0.3567
 2116Sol     OW11487   0.807   2.689   5.809  0.1053  0.4686 -0.6431
 2116Sol     HW11488   0.821   2.615   5.751 -0.5200  0.3694 -0.6696
 2116Sol     HW11489   0.869   2.756   5.778 -0.6165  0.6238 -1.7761
 2116Sol     MW11490   0.814   2.689   5.801 -0.3932 -0.1489  0.0301
 2117Sol     OW11491   0.261   0.304   7.035 -0.6611  0.3074  0.1584
 2117Sol     HW11492   0.238   0.365   6.965 -2.0090  0.0046  0.3272
 2117Sol     HW11493   0.190   0.311   7.098 -1.1480 -1.8728 -0.1030
 2117Sol     MW11494   0.253   0.310   7.035  0.2851 -0.4085  0.3706
 2118Sol     OW11495   0.686   3.062   6.915  0.0272 -0.4342  0.6827
 2118Sol     HW11496   0.668   3.105   6.831  0.1251 -2.4035 -0.3795
 2118Sol     HW11497   0.617   3.093   6.973 -1.2117 -0.5593 -0.6926
 2118Sol     MW11498   0.678   3.068   6.913  0.4417  0.5482 -0.4495
 2119Sol     OW11499   0.305   2.744   6.616  0.3563 -0.1605  0.1045
 2119Sol     HW11500   0.330   2.811   6.553  0.0755  2.0683  2.3117
 2119Sol     HW11501   0.373   2.677   6.608  0.3565  0.0913 -2.4883
 2119Sol     MW11502   0.313   2.744   6.610 -0.5534  0.6574 -0.3001
 2120Sol     OW11503   1.858   0.022   4.620  0.8696 -0.4387  0.1056
 2120Sol     HW11504   1.945  -0.014   4.634  1.4109  1.5427  2.0214
 2120Sol     HW11505   1.838   0.070   4.700 -1.9334 -0.7638 -0.3574
 2120Sol     MW11506   1.864   0.023   4.628  0.0456 -0.9344  0.6943
 2121Sol     OW11507   0.188   1.011   5.948  0.1807 -0.2925 -0.5709
 2121Sol     HW11508   0.214   1.073   5.880 -0.7382 -2.7329 -3.2175
 2121Sol     HW11509   0.258   0.946   5.950 -0.2363 -0.7228  0.2245
 2121Sol     MW11510   0.197   1.011   5.942  0.2028 -0.2772 -0.5109
 2122Sol     OW11511   0.553   2.719   5.681 -0.6234  0.6874 -0.5914
 2122Sol     HW11512   0.566   2.683   5.594  1.7490 -0.2072  0.0868
 2122Sol     HW11513   0.636   2.704   5.726 -1.6660  1.4904  1.7005
 2122Sol     MW11514   0.562   2.715   5.678  0.9226 -0.2341  0.2897
 2123Sol     OW11515   0.144   1.195   2.242  0.3395 -0.5496  0.1425
 2123Sol     HW11516   0.136   1.129   2.310 -0.3366  0.4121  1.0069
 2123Sol     HW11517   0.125   1.149   2.161  0.4110 -1.5315  0.6827
 2123Sol     MW11518   0.142   1.185   2.241  0.0118  0.7122  0.3795
 2124Sol     OW11519   2.333   2.679   3.314 -0.0064  0.5077 -0.3428
 2124Sol     HW11520   2.277   2.644   3.383  0.9555 -0.4189 -0.0152
 2124Sol     HW11521   2.419   2.687   3.354  0.1588  1.6749 -0.9170
 2124Sol     MW11522   2.336   2.676   3.324  1.0125 -0.3470  0.4900
 2125Sol     OW11523   0.791   1.333   4.093 -0.3750  0.1064  0.1985
 2125Sol     HW11524   0.866   1.366   4.143 -0.8850 -1.6581  2.2190
 2125Sol     HW11525   0.719   1.392   4.117 -0.0955  0.6306 -0.2381
 2125Sol     MW11526   0.791   1.342   4.100  0.6784 -0.9616  0.0656
 2126Sol     OW11527   1.600   1.832   3.700  0.0135  0.4294  0.1154
 2126Sol     HW11528   1.595   1.749   3.653  1.2430  0.2927  0.1956
 2126Sol     HW11529   1.529   1.829   3.764 -0.1435 -0.4288 -0.1016
 2126Sol     MW11530   1.594   1.824   3.702  0.2309 -0.3139 -0.1862
 2127Sol     OW11531   1.279   1.114   2.279 -0.4748 -0.4342 -0.6914
 2127Sol     HW11532   1.253   1.196   2.238 -1.2056 -0.1180  0.3868
 2127Sol     HW11533   1.296   1.055   2.206 -2.8370 -0.2246 -1.4313
 2127Sol     MW11534   1.278   1.116   2.269  0.2159  0.1190  0.4177
 2128Sol     OW11535   1.242   2.355   8.990 -0.3495  0.0966  0.1632
 2128Sol     HW11536   1.168   2.413   9.005 -1.6542 -1.5557  0.2472
 2128Sol     HW11537   1.319   2.408   9.010 -1.5384  1.6542  0.6465
 2128Sol     MW11538   1.243   2.365   8.993 -0.9967 -0.4293 -0.1231
 2129Sol     OW11539   0.514   0.491   2.152 -0.4336 -0.0297  0.4020
 2129Sol     HW11540   0.534   0.474   2.244 -0.0954 -0.4758  0.2477
 2129Sol     HW11541   0.466   0.574   2.153 -0.0764  0.1747  0.9435
 2129Sol     MW11542   0.512   0.497   2.160 -0.2044 -0.4120  1.2505
 2130Sol     OW11543   1.826   0.931   4.997  0.4486 -0.1039 -0.2685
 2130Sol     HW11544   1.767   0.976   4.937  1.2620 -1.1021 -1.8405
 2130Sol     HW11545   1.904   0.912   4.945  1.8182  0.4351  1.5431
 2130Sol     MW11546   1.828   0.933   4.987  0.0616 -0.0333  0.1899
 2131Sol     OW11547   1.581   0.700   5.281 -0.3834  0.0594 -0.5682
 2131Sol     HW11548   1.542   0.681   5.367 -1.6066  0.2583 -1.0613
 2131Sol     HW11549   1.660   0.749   5.300 -0.1231 -0.7477  0.4917
 2131Sol     MW11550   1.584   0.702   5.290  0.5420 -0.7272  0.5884
 2132Sol     OW11551   1.398   2.050   8.865  0.6136 -0.1306 -0.2377
 2132Sol     HW11552   1.471   1.991   8.884  0.4976 -0.0681  0.4144
 2132Sol     HW11553   1.364   2.020   8.781  0.7390 -0.8144 -0.0484
 2132Sol     MW11554   1.401   2.042   8.859  0.3551  0.0296  0.0623
 2133Sol     OW11555   2.097   0.977   9.915 -0.0180 -0.4401 -0.1510
 2133Sol     HW11556   2.159   1.048   9.895  0.0547 -0.3662  0.3283
 2133Sol     HW11557   2.094   0.925   9.835 -0.1323  0.1529 -0.5338
 2133Sol     MW11558   2.103   0.979   9.906  0.9781 -0.4748  0.2166
 2134Sol     OW11559   1.541   3.103   3.975  0.0391  0.0112 -0.4155
 2134Sol     HW11560   1.521   3.055   3.895 -0.5096  1.2789 -1.0634
 2134Sol     HW11561   1.455   3.132   4.008  0.4814  2.3094 -1.1888
 2134Sol     MW11562   1.531   3.102   3.971 -0.1161 -0.2792  0.4956
 2135Sol     OW11563   2.306   3.212   5.029  0.3777 -0.3172  0.5700
 2135Sol     HW11564   2.370   3.167   4.973 -0.0168 -1.3954  0.9646
 2135Sol     HW11565   2.254   3.141   5.067 -1.0072  0.5589  0.3160
 2135Sol     MW11566   2.307   3.201   5.028  0.2863  0.3234 -0.3428
 2136Sol     OW11567   2.369   2.002   6.966  0.0889 -0.0331 -0.4652
 2136Sol     HW11568   2.428   2.066   6.927 -1.5418  2.7244  1.4657
 2136Sol     HW11569   2.282   2.026   6.934 -0.4427 -1.9662 -0.5599
 2136Sol     MW11570   2.366   2.010   6.959  0.2165 -0.1424  0.8092
 2137Sol     OW11571   1.382   1.699   8.480  0.3159 -0.1770 -0.0398
 2137Sol     HW11572   1.425   1.621   8.444  0.2469  0.2901 -1.1376
 2137Sol     HW11573   1.454   1.749   8.519  0.3463 -0.8289  0.7783
 2137Sol     MW11574   1.393   1.696   8.480 -0.6886  0.7015 -0.2834
 2138Sol     OW11575   2.397   2.247   2.902  0.2091 -0.4527 -0.0834
 2138Sol     HW11576   2.418   2.256   2.809 -0.1082 -0.6581 -0.1758
 2138Sol     HW11577   2.481   2.234   2.945  0.4261  0.3376 -0.2591
 2138Sol     MW11578   2.406   2.246   2.898 -1.1178 -0.5244 -0.1617
 2139Sol     OW11579   2.631   0.968   4.825 -0.6325 -0.1419 -0.1645
 2139Sol     HW11580   2.691   0.898   4.801 -0.3790 -0.7364  2.1006
 2139Sol     HW11581   2.552   0.950   4.773 -0.5062 -2.0268  0.2333
 2139Sol     MW11582   2.629   0.960   4.818 -0.5704 -0.8761 -0.0436
 2140Sol     OW11583   2.978   3.045   4.352  0.5807  0.0404  0.1071
 2140Sol     HW11584   3.046   2.980   4.372 -0.5684 -1.0543  0.5008
 2140Sol     HW11585   3.023   3.129   4.358  1.2145 -0.4700  3.4755
 2140Sol     MW11586   2.988   3.047   4.354 -0.1877 -0.3809 -0.0359
 2141Sol     OW11587   2.132   0.012   6.440 -0.7861 -0.0441 -0.3007
 2141Sol     HW11588   2.112  -0.066   6.491  2.5444 -0.1041  1.0398
 2141Sol     HW11589   2.184  -0.020   6.367 -2.8113  0.4745 -2.0353
 2141Sol     MW11590   2.135   0.002   6.438 -0.2708 -0.5263 -0.2141
 2142Sol     OW11591   1.195   1.970   4.738 -0.0698 -0.1456  0.4601
 2142Sol     HW11592   1.102   1.952   4.751 -0.0427 -0.6088  0.0545
 2142Sol     HW11593   1.227   1.999   4.823 -0.0669 -2.2761  1.2045
 2142Sol     MW11594   1.190   1.971   4.747  0.2371  0.5176 -0.1361
 2143Sol     OW11595   2.789   1.958   4.141  0.3793 -0.1044 -0.0523
 2143Sol     HW11596   2.882   1.938   4.151  0.1985 -0.6463  0.5645
 2143Sol     HW11597   2.781   2.048   4.175  1.3989  1.5569 -3.9662
 2143Sol     MW11598   2.796   1.965   4.145  0.3518 -1.1482  1.0562
 2144Sol     OW11599   0.794   2.538   8.839  0.0664 -0.9353  0.5607
 2144Sol     HW11600   0.795   2.444   8.818 -1.0925 -0.9375  0.4753
 2144Sol     HW11601   0.819   2.581   8.758  1.5218 -1.2055  0.8550
 2144Sol     MW11602   0.796   2.533   8.830 -0.6387  0.0743 -0.0313
 2145Sol     OW11603   0.256   2.792   4.231  0.5637  0.3771  0.4364
 2145Sol     HW11604   0.244   2.814   4.323 -0.7123  0.3205  0.2857
 2145Sol     HW11605   0.191   2.843   4.185  0.9185  0.0813 -0.4026
 2145Sol     MW11606   0.249   2.798   4.235  0.5586  0.7338  0.4042
 2146Sol     OW11607   0.856   1.288   5.363 -0.3572 -0.1005 -0.8700
 2146Sol     HW11608   0.812   1.284   5.447  0.7824  2.4394 -0.0981
 2146Sol     HW11609   0.786   1.284   5.298 -1.4537  0.6629  0.2582
 2146Sol     MW11610   0.846   1.287   5.364 -0.5298 -0.6914  0.1948
 2147Sol     OW11611   0.998   2.152   8.525  0.1570 -0.1694  0.9106
 2147Sol     HW11612   1.061   2.212   8.566  1.0501  0.6913 -1.6194
 2147Sol     HW11613   0.921   2.205   8.509  1.0101  0.4130 -1.4898
 2147Sol     MW11614   0.997   2.162   8.527 -0.7802  0.2185  0.0766
 2148Sol     OW11615   0.045   0.370   7.194 -0.1870  0.1924  0.2264
 2148Sol     HW11616   0.082   0.395   7.279  0.3091 -0.3155  0.1640
 2148Sol     HW11617   0.034   0.453   7.147 -2.2324  0.6681  1.4797
 2148Sol     MW11618   0.048   0.379   7.197  0.1288  0.4032 -0.2435
 2149Sol     OW11619   0.740   3.161   8.889 -0.0870  0.2227 -0.0896
 2149Sol     HW11620   0.756   3.109   8.810 -1.8945 -0.5197  0.0227
 2149Sol     HW11621   0.726   3.250   8.856 -0.9055 -0.0983 -0.6010
 2149Sol     MW11622   0.741   3.165   8.879 -0.2591 -0.4377  0.4990
 2150Sol     OW11623   1.811   0.300   9.142  0.1919 -0.5150  0.1330
 2150Sol     HW11624   1.781   0.253   9.065 -0.5781  2.2001 -1.2731
 2150Sol     HW11625   1.760   0.263   9.214 -1.8282 -0.5062 -1.2495
 2150Sol     MW11626   1.804   0.293   9.142 -0.1292 -0.1933  0.6907
 2151Sol     OW11627   3.293   2.000   8.402 -0.0914 -0.2756 -0.6353
 2151Sol     HW11628   3.219   2.059   8.390 -0.1572 -0.2470 -0.0941
 2151Sol     HW11629   3.263   1.938   8.469  0.4506 -0.1368 -0.2664
 2151Sol     MW11630   3.283   2.000   8.407  0.0190 -1.0427  0.3775
 2152Sol     OW11631   0.474   1.265   4.920  0.0691  0.0884 -0.0217
 2152Sol     HW11632   0.435   1.200   4.862  2.5446 -0.2769 -1.3453
 2152Sol     HW11633   0.553   1.293   4.875  0.3453  2.2008  1.6943
 2152Sol     MW11634   0.477   1.261   4.911  0.9802  0.4215  1.1007
 2153Sol     OW11635   1.138   2.606   4.113 -0.1584  0.1516  0.2975
 2153Sol     HW11636   1.151   2.620   4.019 -1.0052 -0.6702  0.0485
 2153Sol     HW11637   1.225   2.585   4.146  0.1860  0.6675 -0.2625
 2153Sol     MW11638   1.147   2.605   4.107 -0.6845 -0.0067 -0.0587
 2154Sol     OW11639   0.200   0.191   9.160 -0.8398 -0.2471  0.2224
 2154Sol     HW11640   0.241   0.105   9.158  0.4075  0.3119  0.7930
 2154Sol     HW11641   0.186   0.208   9.253 -0.2649  0.5369  0.1688
 2154Sol     MW11642   0.203   0.185   9.168 -0.0278 -0.1650  0.5406
 2155Sol     OW11643   1.692   0.949   9.380 -0.3186 -0.5844 -0.2724
 2155Sol     HW11644   1.627   0.881   9.361 -1.2332 -0.8361  3.3338
 2155Sol     HW11645   1.751   0.909   9.444  0.4555  1.2420  0.2012
 2155Sol     MW11646   1.691   0.940   9.384  0.2814 -0.2694  0.3488
 2156Sol     OW11647   2.556   0.128   5.220 -0.2153  0.2299 -0.1368
 2156Sol     HW11648   2.583   0.207   5.268  0.6440  0.2672 -0.6755
 2156Sol     HW11649   2.492   0.160   5.156 -0.0023  0.4638 -0.2334
 2156Sol     MW11650   2.553   0.138   5.218 -0.2654  0.3162 -1.1209
 2157Sol     OW11651   3.128   2.085   3.902 -0.3732 -0.0742  0.3213
 2157Sol     HW11652   3.103   2.163   3.951 -0.0884 -0.4111  1.0170
 2157Sol     HW11653   3.051   2.062   3.850 -0.4809  0.6198  0.1733
 2157Sol     MW11654   3.119   2.090   3.902 -0.4003 -0.3235  0.4299
 2158Sol     OW11655   2.246   0.911   9.478  0.7054  0.2410 -0.1412
 2158Sol     HW11656   2.308   0.968   9.524  0.6864  0.0654  0.1064
 2158Sol     HW11657   2.301   0.854   9.424  0.8070 -0.3777  0.6011
 2158Sol     MW11658   2.256   0.911   9.478 -0.1312 -0.1180  0.3909
 2159Sol     OW11659   2.178   3.292   7.546  0.4153  0.2215 -0.3820
 2159Sol     HW11660   2.125   3.365   7.578 -1.4989 -1.7240  1.0796
 2159Sol     HW11661   2.156   3.286   7.453  1.2070  1.9956 -0.6939
 2159Sol     MW11662   2.171   3.298   7.540 -0.4281 -0.6354  0.9330
 2160Sol     OW11663   2.599   0.878   2.536 -0.5408  0.9861 -0.0494
 2160Sol     HW11664   2.538   0.892   2.609 -1.1970  0.3765 -0.4865
 2160Sol     HW11665   2.567   0.936   2.467 -0.2602  1.1251 -0.0632
 2160Sol     MW11666   2.591   0.885   2.537  0.1670  0.5573 -0.2183
 2161Sol     OW11667   2.440   1.347   7.311 -0.4989  0.0740  0.6071
 2161Sol     HW11668   2.454   1.378   7.221  0.3849 -0.3603  0.5896
 2161Sol     HW11669   2.395   1.263   7.301  0.0443 -0.2117  0.5535
 2161Sol     MW11670   2.437   1.342   7.302 -0.5820 -0.0206 -0.1485
 2162Sol     OW11671   2.885   0.155   6.199  0.2075  0.2606 -0.1219
 2162Sol     HW11672   2.847   0.243   6.201  0.9208  0.5600  0.6047
 2162Sol     HW11673   2.972   0.167   6.163 -0.1333 -0.3315 -1.1561
 2162Sol     MW11674   2.889   0.164   6.196  0.8427  0.2736  0.1300
 2163Sol     OW11675   1.934   1.699   6.073  0.0782  0.1497 -0.2857
 2163Sol     HW11676   1.923   1.751   5.993  0.2141  0.6678  0.0340
 2163Sol     HW11677   1.878   1.741   6.137  1.1225  0.6385  0.3252
 2163Sol     MW11678   1.928   1.707   6.071 -0.5763 -0.3043 -1.0682
 2164Sol     OW11679   2.771   1.302   1.521  0.1244  0.3063 -0.2145
 2164Sol     HW11680   2.744   1.383   1.479  0.2347 -0.0426 -0.9521
 2164Sol     HW11681   2.835   1.263   1.462 -0.5558 -0.7391 -0.2854
 2164Sol     MW11682   2.774   1.306   1.512 -0.4987 -0.1514  1.0984
 2165Sol     OW11683   1.028   1.430   4.195  0.1345 -0.2549  0.4464
 2165Sol     HW11684   1.111   1.428   4.147 -1.8205 -0.3901 -3.0558
 2165Sol     HW11685   1.025   1.518   4.233  0.9974  0.4369 -1.0439
 2165Sol     MW11686   1.035   1.438   4.194  0.0194  0.4984  0.9400
 2166Sol     OW11687   2.607   2.180   5.123 -0.0275  0.5798  0.4611
 2166Sol     HW11688   2.631   2.092   5.151  0.6986  1.1710  1.7194
 2166Sol     HW11689   2.622   2.180   5.028  0.1791 -0.5773  0.4959
 2166Sol     MW11690   2.611   2.172   5.117  0.4138  0.2353  0.3306
 2167Sol     OW11691   2.732   0.169   7.621  0.7226 -0.1901  0.0602
 2167Sol     HW11692   2.780   0.240   7.665 -0.8929 -0.2395  1.9943
 2167Sol     HW11693   2.652   0.159   7.673 -1.2850 -0.2857 -2.9378
 2167Sol     MW11694   2.729   0.174   7.630 -0.4891  0.4743 -0.0187
 2168Sol     OW11695   1.083   2.136   5.440 -0.4496  0.1821 -0.0908
 2168Sol     HW11696   1.067   2.227   5.413  1.2308  0.3111 -0.7222
 2168Sol     HW11697   1.132   2.098   5.367 -0.1330 -0.8992  0.6739
 2168Sol     MW11698   1.086   2.141   5.431  0.1927  0.6175 -0.2948
 2169Sol     OW11699   3.205   1.712   5.972 -0.2724 -0.0245 -0.5903
 2169Sol     HW11700   3.290   1.711   6.015 -0.5260 -2.3278 -0.0940
 2169Sol     HW11701   3.186   1.621   5.953 -2.6924  0.4328 -0.5965
 2169Sol     MW11702   3.211   1.704   5.974  0.2239 -0.7606 -0.0876
 2170Sol     OW11703   2.961   2.876   6.757 -0.3228  0.5348  0.4987
 2170Sol     HW11704   2.962   2.880   6.662 -3.5733 -1.1665  0.3319
 2170Sol     HW11705   2.895   2.940   6.783 -0.5518 -0.1132  1.5331
 2170Sol     MW11706   2.955   2.882   6.751 -0.3022 -0.2483  0.2338
 2171Sol     OW11707   2.338   2.516   8.137  0.1799  0.3706  0.2050
 2171Sol     HW11708   2.360   2.600   8.177 -0.0044  0.6921 -0.3608
 2171Sol     HW11709   2.331   2.535   8.043 -3.2871  0.4988  0.3981
 2171Sol     MW11710   2.339   2.525   8.132 -0.4984  0.6743  0.1894
 2172Sol     OW11711   1.918   2.129   4.897  0.3817  1.1476  0.1489
 2172Sol     HW11712   1.891   2.060   4.957 -1.5633  1.3833 -0.4142
 2172Sol     HW11713   1.979   2.182   4.948  0.8405 -0.2027  1.0268
 2172Sol     MW11714   1.921   2.128   4.907 -0.2559 -0.2850  0.6650
 2173Sol     OW11715   1.783   0.054   7.358 -0.2012 -0.2134 -0.2784
 2173Sol     HW11716   1.764  -0.038   7.374  0.1708  0.0204  1.5331
 2173Sol     HW11717   1.707   0.101   7.390 -1.2452  0.0273 -2.9485
 2173Sol     MW11718   1.775   0.050   7.362  0.2289  0.1426  0.5974
 2174Sol     OW11719   2.426   2.009   8.201  0.0464  0.7741 -0.2812
 2174Sol     HW11720   2.459   2.097   8.182 -0.8450  1.1566 -0.0954
 2174Sol     HW11721   2.421   1.967   8.115 -1.5829  1.6514 -0.6371
 2174Sol     MW11722   2.428   2.013   8.191  0.3833  0.6365  1.0038
 2175Sol     OW11723   3.130   0.580   4.608 -0.0683  0.5055 -0.0027
 2175Sol     HW11724   3.107   0.667   4.575  0.1733  0.7962  0.5985
 2175Sol     HW11725   3.082   0.520   4.551  0.5280  1.0004 -1.0502
 2175Sol     MW11726   3.123   0.583   4.600  0.2844  0.3295 -0.0458
 2176Sol     OW11727   1.991   3.351   8.873 -0.1007 -0.0270  0.1896
 2176Sol     HW11728   1.967   3.334   8.964 -1.3129  2.1163  0.2995
 2176Sol     HW11729   1.908   3.361   8.827  0.5007 -0.8067 -1.1218
 2176Sol     MW11730   1.982   3.350   8.877  0.1431  0.4761  0.7960
 2177Sol     OW11731   3.142   2.723   8.574 -0.2515 -0.0304  0.1841
 2177Sol     HW11732   3.108   2.668   8.503 -0.7806  0.9348 -0.3300
 2177Sol     HW11733   3.161   2.807   8.531 -0.4148  0.5024  1.1580
 2177Sol     MW11734   3.141   2.726   8.564 -0.1757 -0.4501  0.2961
 2178Sol     OW11735   2.760   2.693   6.383 -0.4046  0.0391  1.1149
 2178Sol     HW11736   2.782   2.694   6.290  0.1009 -0.5975  1.2233
 2178Sol     HW11737   2.665   2.681   6.386 -0.1131 -2.9541  0.6898
 2178Sol     MW11738   2.753   2.692   6.375  0.4631  0.2661 -0.4702
 2179Sol     OW11739   1.648   3.115   8.525  0.3041  1.0779  0.0595
 2179Sol     HW11740   1.624   3.208   8.525  0.2589  1.0681  0.5757
 2179Sol     HW11741   1.598   3.078   8.596  0.8341  0.7861  0.2812
 2179Sol     MW11742   1.642   3.120   8.531 -0.8913 -0.1010 -0.4328
 2180Sol     OW11743   0.832   2.802   4.665 -0.1039  0.2194  0.0740
 2180Sol     HW11744   0.805   2.825   4.576 -1.2760  0.6714  0.5484
 2180Sol     HW11745   0.827   2.884   4.714  2.4360  0.4149  0.1235
 2180Sol     MW11746   0.829   2.811   4.661 -0.8290  0.2587 -0.2522
 2181Sol     OW11747   1.155   3.279   7.529  0.2673  0.0179  0.5455
 2181Sol     HW11748   1.181   3.326   7.608 -2.6110 -0.8969  2.1354
 2181Sol     HW11749   1.094   3.338   7.485  0.8118 -0.0237 -0.2588
 2181Sol     MW11750   1.152   3.288   7.533 -0.0463 -0.1768 -0.0035
 2182Sol     OW11751   1.892   2.716   3.865  0.2872 -0.3489  0.0851
 2182Sol     HW11752   1.809   2.686   3.901 -0.6238 -0.0274 -1.6849
 2182Sol     HW11753   1.949   2.639   3.869  0.0672 -0.4439  1.7432
 2182Sol     MW11754   1.890   2.706   3.869 -0.0981 -0.1055  0.5091
 2183Sol     OW11755   1.216   1.661   3.155 -0.1351  0.1484 -0.0328
 2183Sol     HW11756   1.252   1.672   3.243  1.3378  0.9351 -0.7209
 2183Sol     HW11757   1.289   1.625   3.104 -0.1883  2.1496 -1.5520
 2183Sol     MW11758   1.226   1.658   3.158  0.2444  0.0341 -0.6440
 2184Sol     OW11759   1.682   1.715   2.620  0.4949  0.3909 -0.0444
 2184Sol     HW11760   1.670   1.724   2.525  2.2799 -1.6967 -0.5047
 2184Sol     HW11761   1.772   1.744   2.636  1.9090 -3.7872  0.2428
 2184Sol     MW11762   1.689   1.719   2.613  0.5160 -0.5832 -0.4845
 2185Sol     OW11763   2.992   1.907   1.869 -0.0196 -0.8696 -0.3552
 2185Sol     HW11764   2.904   1.938   1.890  0.2936  1.6077 -2.4785
 2185Sol     HW11765   2.995   1.903   1.774  1.7760 -2.1143 -0.2796
 2185Sol     MW11766   2.985   1.910   1.862  0.4518  0.1344 -0.1718
 2186Sol     OW11767   2.366   1.187   8.150 -0.3477  0.0104 -0.0734
 2186Sol     HW11768   2.440   1.180   8.089  0.8077  0.6099  1.2312
 2186Sol     HW11769   2.359   1.100   8.189 -1.3344 -0.4857 -1.3035
 2186Sol     MW11770   2.372   1.179   8.148 -0.0343 -0.2904 -1.2725
 2187Sol     OW11771   1.618   1.445   5.727  0.5240  0.1998  0.4065
 2187Sol     HW11772   1.534   1.455   5.683  1.3010 -0.8818 -1.4037
 2187Sol     HW11773   1.608   1.365   5.779  1.0322 -1.0577 -1.3593
 2187Sol     MW11774   1.610   1.438   5.727  0.3576  0.3261  0.6133
 2188Sol     OW11775   1.029   0.545   2.387  0.9061 -0.0797 -0.0764
 2188Sol     HW11776   1.115   0.537   2.429  1.4417  0.0916 -1.1234
 2188Sol     HW11777   0.967   0.518   2.454  1.9703 -3.4117 -0.3450
 2188Sol     MW11778   1.031   0.542   2.397 -1.1743 -0.0222 -0.2033
 2189Sol     OW11779   2.161   2.059   4.170  0.0669 -0.0742 -0.5185
 2189Sol     HW11780   2.206   2.137   4.138 -0.5662 -0.6431 -2.8814
 2189Sol     HW11781   2.207   1.986   4.129 -0.3110 -0.8715  0.4559
 2189Sol     MW11782   2.169   2.059   4.163  0.5765 -0.3825 -0.0256
 2190Sol     OW11783   0.921   2.811   9.338 -0.0091 -0.0891  0.2095
 2190Sol     HW11784   0.971   2.806   9.419  0.1490  1.6962  0.2507
 2190Sol     HW11785   0.979   2.775   9.271  0.8470  0.7912  0.4689
 2190Sol     MW11786   0.930   2.808   9.340 -0.0113 -0.3431  0.3214
 2191Sol     OW11787   0.460   3.122   9.990 -0.2430 -0.1252 -0.0626
 2191Sol     HW11788   0.554   3.132   9.976  0.3488  0.0301  3.5036
 2191Sol     HW11789   0.427   3.212   9.999 -0.4668 -0.2233  0.1067
 2191Sol     MW11790   0.466   3.131   9.990 -0.1703  0.1803 -0.6604
 2192Sol     OW11791   1.988   3.286   5.949 -0.1780 -0.3081  0.2729
 2192Sol     HW11792   1.921   3.335   5.998 -1.9766 -2.7613  0.3808
 2192Sol     HW11793   2.019   3.347   5.882 -1.8615  1.1886  0.8226
 2192Sol     MW11794   1.985   3.296   5.948  0.9798 -0.5187  0.0164
 2193Sol     OW11795   0.588   1.509   4.134  0.2173  0.6546  0.4142
 2193Sol     HW11796   0.588   1.579   4.069 -0.4356  1.3002  1.0811
 2193Sol     HW11797   0.518   1.450   4.106  1.1740 -0.0623 -0.4851
 2193Sol     MW11798   0.582   1.510   4.126  0.9346 -0.3135  0.3422
 2194Sol     OW11799   0.079   1.789   2.389 -0.0645  0.4192  0.5316
 2194Sol     HW11800   0.084   1.878   2.354  0.9747 -0.5126 -1.7723
 2194Sol     HW11801   0.006   1.749   2.343 -0.0620 -0.1488  1.0204
 2194Sol     MW11802   0.073   1.794   2.382  0.1080  0.2027 -0.2307
 2195Sol     OW11803   0.622   0.046   9.254  0.0800 -0.2123 -0.5109
 2195Sol     HW11804   0.643  -0.045   9.237 -1.7706 -0.2324 -2.9659
 2195Sol     HW11805   0.706   0.090   9.262  0.9774 -2.1577  0.9954
 2195Sol     MW11806   0.631   0.042   9.253  0.7372 -0.7202  0.0553
 2196Sol     OW11807   0.349   0.291   2.110 -0.1532  0.1637 -0.5556
 2196Sol     HW11808   0.343   0.285   2.205 -0.1770  0.7770 -0.5162
 2196Sol     HW11809   0.424   0.348   2.093 -1.0676  1.2942 -0.8697
 2196Sol     MW11810   0.355   0.295   2.117  0.3261 -0.6012 -0.6063
 2197Sol     OW11811   2.134   0.497   4.812 -0.3217  0.4254  0.4742
 2197Sol     HW11812   2.129   0.481   4.906  0.1949  1.7707  0.7344
 2197Sol     HW11813   2.221   0.536   4.799 -0.2860  0.0115 -0.5999
 2197Sol     MW11814   2.142   0.499   4.819  0.5588  0.6347  0.1674
 2198Sol     OW11815   2.217   2.765   7.321 -0.5970  0.7397 -0.3960
 2198Sol     HW11816   2.254   2.790   7.405  1.6286 -0.9497 -0.8262
 2198Sol     HW11817   2.292   2.737   7.269 -2.3199 -1.6335 -1.7261
 2198Sol     MW11818   2.227   2.765   7.324 -0.0574  0.0627 -0.8634
 2199Sol     OW11819   1.280   0.690   4.963  0.4502 -0.0266  0.0203
 2199Sol     HW11820   1.303   0.707   5.054 -2.6305 -1.8005  1.1933
 2199Sol     HW11821   1.272   0.776   4.923  0.9731  0.7861  1.6423
 2199Sol     MW11822   1.282   0.699   4.967 -1.1113 -0.0325  0.4966
 2200Sol     OW11823   1.080   3.317   3.385  0.1951 -0.0395 -0.2341
 2200Sol     HW11824   1.066   3.258   3.311 -0.2342  1.1766 -1.1488
 2200Sol     HW11825   1.058   3.265   3.462 -0.5627 -0.9386 -1.0424
 2200Sol     MW11826   1.077   3.307   3.385 -0.7902  0.3554 -0.6903
 2201Sol     OW11827   0.928   2.646   8.181  0.0746 -0.1496 -0.8248
 2201Sol     HW11828   0.858   2.642   8.246  0.7785 -1.0271 -0.1206
 2201Sol     HW11829   0.918   2.566   8.129  0.9951 -0.6091 -0.2796
 2201Sol     MW11830   0.920   2.639   8.182  0.0766 -0.6286  0.2782
 2202Sol     OW11831   2.259   0.776   7.769  0.2384 -0.2880  0.0172
 2202Sol     HW11832   2.227   0.713   7.704 -0.0024  0.3724 -0.5072
 2202Sol     HW11833   2.344   0.741   7.796 -0.2746 -1.2874  0.3569
 2202Sol     MW11834   2.264   0.767   7.765  0.3878  0.1218  0.0957
 2203Sol     OW11835   1.752   2.747   6.051  0.0344  0.5607 -0.6202
 2203Sol     HW11836   1.784   2.760   6.141 -2.5288 -0.3200  0.4775
 2203Sol     HW11837   1.743   2.836   6.016  3.0762  0.8378 -0.7784
 2203Sol     MW11838   1.754   2.756   6.056 -0.9701  0.7609  0.3072
 2204Sol     OW11839   0.478   3.108   8.840  0.0817  0.6013  0.0307
 2204Sol     HW11840   0.453   3.198   8.821 -1.2923  0.5388  1.3770
 2204Sol     HW11841   0.572   3.111   8.854 -0.0966  2.0288  1.0661
 2204Sol     MW11842   0.484   3.116   8.840 -0.1923 -0.5274 -0.9579
 2205Sol     OW11843   0.434   3.125   5.648 -0.4409  0.2479  0.1401
 2205Sol     HW11844   0.505   3.081   5.601 -0.7180 -0.0530 -0.0020
 2205Sol     HW11845   0.387   3.173   5.580 -1.4572 -1.0162 -0.0615
 2205Sol     MW11846   0.436   3.126   5.638 -0.0616  0.8287 -0.0710
 2206Sol     OW11847   0.278   2.911   9.963  0.4673 -0.4828  0.5087
 2206Sol     HW11848   0.339   2.985   9.954 -1.3651  1.0660  0.5903
 2206Sol     HW11849   0.334   2.836   9.982  2.5325  0.5217 -1.3885
 2206Sol     MW11850   0.289   2.911   9.964 -0.2736 -0.0798  0.5369
 2207Sol     OW11851   1.321   3.105   2.308 -0.4193  0.2752  0.1400
 2207Sol     HW11852   1.407   3.094   2.268 -0.0149 -2.4521  1.6178
 2207Sol     HW11853   1.311   3.200   2.319  1.2689  0.7830 -2.3911
 2207Sol     MW11854   1.327   3.113   2.306  0.7804 -0.9083 -0.0222
 2208Sol     OW11855   3.033   0.764   2.069  0.3602 -0.0833 -0.6842
 2208Sol     HW11856   3.087   0.822   2.122  1.0875 -1.4086  0.0646
 2208Sol     HW11857   2.944   0.798   2.077  0.7493  0.7793 -0.0800
 2208Sol     MW11858   3.030   0.772   2.074 -0.6236 -0.4256  0.2137
 2209Sol     OW11859   1.111   3.297   4.212  0.5024  0.1535 -0.7440
 2209Sol     HW11860   1.198   3.311   4.249  0.5321 -2.5631  0.3350
 2209Sol     HW11861   1.128   3.253   4.128  0.1641 -0.7630 -0.3339
 2209Sol     MW11862   1.120   3.294   4.207  0.8265 -0.7526  0.6770
 2210Sol     OW11863   2.384   1.013   1.505 -0.5810 -0.1879  0.1868
 2210Sol     HW11864   2.456   1.071   1.530 -2.1263  2.5849 -1.4466
 2210Sol     HW11865   2.313   1.073   1.478 -2.0627 -2.8227 -2.1251
 2210Sol     MW11866   2.384   1.024   1.505  0.2993  0.2159  0.2359
 2211Sol     OW11867   1.034   0.751   6.327 -0.4291 -0.4426 -0.1884
 2211Sol     HW11868   1.047   0.773   6.419  1.0194  0.9818 -0.7112
 2211Sol     HW11869   0.940   0.734   6.319 -0.6014 -0.2812  1.4892
 2211Sol     MW11870   1.026   0.751   6.334 -0.1001 -0.8390  0.7586
 2212Sol     OW11871   3.009   0.377   7.123  0.3745 -0.5414 -0.1313
 2212Sol     HW11872   3.040   0.293   7.089  0.0310 -0.3272 -1.0040
 2212Sol     HW11873   3.040   0.441   7.059  0.0704 -0.0783  0.1808
 2212Sol     MW11874   3.014   0.375   7.114 -0.2464  0.3539  0.7657
 2213Sol     OW11875   1.256   0.748   9.791 -0.1766  0.3812 -0.5935
 2213Sol     HW11876   1.326   0.805   9.759 -0.7978  2.3339  1.4242
 2213Sol     HW11877   1.176   0.799   9.779 -1.0855 -1.1372 -1.2300
 2213Sol     MW11878   1.255   0.758   9.787  0.1885  0.3322  0.2340
 2214Sol     OW11879   2.380   0.089   6.536  0.6056 -0.3405 -0.1216
 2214Sol     HW11880   2.391   0.049   6.623 -1.0559 -2.2043 -0.7346
 2214Sol     HW11881   2.296   0.056   6.505  1.4511 -0.1681 -2.6865
 2214Sol     MW11882   2.374   0.082   6.541 -0.5855  0.3701 -0.5982
 2215Sol     OW11883   2.946   1.987   2.492  0.2039 -0.0398  0.5020
 2215Sol     HW11884   2.999   2.032   2.426 -0.4673 -0.6154 -0.4446
 2215Sol     HW11885   2.979   2.020   2.576  1.4852  0.2401 -0.0982
 2215Sol     MW11886   2.954   1.994   2.494 -1.1832 -0.3899 -0.4665
 2216Sol     OW11887   3.044   0.948   2.971  0.6656 -0.0370  0.6804
 2216Sol     HW11888   2.956   0.916   2.955  0.1378  0.9210  1.5996
 2216Sol     HW11889   3.058   1.014   2.903  0.3910  0.3346  0.9818
 2216Sol     MW11890   3.038   0.951   2.964 -0.1596  0.8986 -0.5691
 2217Sol     OW11891   1.698   1.297   3.922 -0.5681  0.1488 -0.1279
 2217Sol     HW11892   1.774   1.239   3.933 -0.3336 -0.0018 -2.2653
 2217Sol     HW11893   1.716   1.371   3.980  0.7348 -0.3647  0.1520
 2217Sol     MW11894   1.707   1.298   3.928 -0.6041  0.7283 -1.0593
 2218Sol     OW11895   3.232   1.527   4.295  0.0856 -0.3190 -0.0009
 2218Sol     HW11896   3.173   1.587   4.249  0.0257 -0.5351 -0.2030
 2218Sol     HW11897   3.315   1.535   4.250 -0.0148 -0.6478 -0.2434
 2218Sol     MW11898   3.234   1.533   4.287 -0.3931  0.1677 -0.5568
 2219Sol     OW11899   2.331   0.008   1.622  0.2116 -0.0633 -0.5778
 2219Sol     HW11900   2.397   0.050   1.676  0.1752  0.7154 -1.1225
 2219Sol     HW11901   2.308   0.074   1.556 -1.0053 -0.3625 -0.4772
 2219Sol     MW11902   2.335   0.018   1.621  0.4359 -0.5712 -0.2701
 2220Sol     OW11903   2.044   3.386   7.071  0.6280 -0.6362  0.2557
 2220Sol     HW11904   2.076   3.461   7.123 -0.0828  0.5435 -0.9804
 2220Sol     HW11905   2.105   3.380   6.998 -0.7264  0.2973 -0.9755
 2220Sol     MW11906   2.052   3.392   7.070 -0.2650 -0.2577  0.1396
 2221Sol     OW11907   2.113   2.871   8.274  0.0300  0.0350 -0.2711
 2221Sol     HW11908   2.187   2.813   8.259 -0.0822 -0.4944  1.1958
 2221Sol     HW11909   2.147   2.942   8.327  0.1142  1.2255 -1.8794
 2221Sol     MW11910   2.122   2.872   8.277 -0.1625  0.0882  0.2651
 2222Sol     OW11911   0.323   2.864   5.757 -0.3451 -0.1691  0.5537
 2222Sol     HW11912   0.329   2.937   5.695  0.5026 -0.3795  0.3772
 2222Sol     HW11913   0.402   2.812   5.739 -1.4691 -1.6921 -0.0321
 2222Sol     MW11914   0.331   2.866   5.750 -0.0887 -0.2614 -0.0479
 2223Sol     OW11915   1.428   0.621   1.464  0.8939 -0.1712 -0.3826
 2223Sol     HW11916   1.467   0.535   1.478 -0.1778 -0.7127 -0.6788
 2223Sol     HW11917   1.360   0.627   1.531 -0.3951 -0.3945 -1.6667
 2223Sol     MW11918   1.425   0.614   1.472 -0.3595 -0.2335  0.1553
 2224Sol     OW11919   0.763   3.444   3.228  0.4544  0.2355  0.0298
 2224Sol     HW11920   0.753   3.408   3.140 -1.1493 -2.1950  1.1819
 2224Sol     HW11921   0.745   3.371   3.287  0.3812  2.1020  2.4012
 2224Sol     MW11922   0.761   3.435   3.225 -0.7591  0.5795  0.5892
 2225Sol     OW11923   3.072   0.130   4.863  0.3162 -0.1306 -0.5372
 2225Sol     HW11924   3.013   0.205   4.854  0.1006 -0.2388 -0.0410
 2225Sol     HW11925   3.017   0.054   4.846  0.1791 -0.2645  0.4877
 2225Sol     MW11926   3.062   0.130   4.861  0.0790  0.7386  0.8314
 2226Sol     OW11927   1.298   0.239   1.422  0.2251 -0.9318  0.2763
 2226Sol     HW11928   1.292   0.291   1.342 -0.8015 -1.9011 -0.2875
 2226Sol     HW11929   1.207   0.218   1.444  0.6119 -2.1963  0.6963
 2226Sol     MW11930   1.289   0.242   1.417 -0.4805 -0.1695  0.3148
 2227Sol     OW11931   1.230   2.906   1.638 -0.0699 -0.6776  0.5711
 2227Sol     HW11932   1.249   2.833   1.698 -0.7306 -0.6936  0.7651
 2227Sol     HW11933   1.316   2.943   1.618  0.2114 -1.0643  1.0379
 2227Sol     MW11934   1.240   2.902   1.642 -0.0476 -0.8807  0.0218
 2228Sol     OW11935   2.546   0.431   8.256  0.2733 -0.3102  0.0517
 2228Sol     HW11936   2.540   0.365   8.325 -0.8527 -0.8576 -0.5618
 2228Sol     HW11937   2.481   0.404   8.191  0.4452  0.8961 -0.6326
 2228Sol     MW11938   2.539   0.423   8.256  0.0681  0.2960  0.3103
 2229Sol     OW11939   0.167   2.104   7.250 -0.2474  0.6381 -0.2532
 2229Sol     HW11940   0.208   2.178   7.294  0.0850  0.8639 -0.9368
 2229Sol     HW11941   0.209   2.101   7.164 -0.3812 -0.2411 -0.2877
 2229Sol     MW11942   0.174   2.110   7.246 -1.3444 -0.0165  0.2456
 2230Sol     OW11943   0.503   1.545   8.511  0.1724 -0.2857 -0.0223
 2230Sol     HW11944   0.425   1.601   8.506 -0.8680 -1.6897  0.2032
 2230Sol     HW11945   0.504   1.513   8.602  0.5300 -0.9579 -0.2575
 2230Sol     MW11946   0.496   1.547   8.519  0.0598  0.0934  0.7580
 2231Sol     OW11947   2.237   3.185   4.569 -0.3924  0.1187  0.6857
 2231Sol     HW11948   2.190   3.255   4.615 -0.5780 -0.1783  0.9436
 2231Sol     HW11949   2.232   3.110   4.627 -1.3376 -0.5004 -0.1751
 2231Sol     MW11950   2.232   3.185   4.578  0.2390 -0.0154 -0.5741
 2232Sol     OW11951   0.720   2.668   5.089  0.3093 -0.1847 -0.1222
 2232Sol     HW11952   0.748   2.642   5.001 -0.1423 -3.1048  0.5552
 2232Sol     HW11953   0.628   2.694   5.078  1.1191  2.3918 -1.0300
 2232Sol     MW11954   0.714   2.668   5.080  0.7028  0.6172 -0.2754
 2233Sol     OW11955   0.639   1.217   8.549  0.2717  0.5225  0.5061
 2233Sol     HW11956   0.548   1.194   8.565  0.0751  0.0535 -1.2365
 2233Sol     HW11957   0.637   1.306   8.515  0.6557  1.3198  2.4657
 2233Sol     MW11958   0.631   1.223   8.548 -0.3661 -1.2437 -0.7346
 2234Sol     OW11959   0.013   0.976   4.520 -0.5018  0.2458  0.0784
 2234Sol     HW11960  -0.010   0.925   4.443 -0.7588  0.9982 -0.3394
 2234Sol     HW11961   0.092   0.933   4.554 -0.4416 -0.1399 -0.5465
 2234Sol     MW11962   0.018   0.968   4.517 -0.0709  0.7687 -0.0156
 2235Sol     OW11963   0.805   2.963   3.150 -0.2346  0.1399  0.1134
 2235Sol     HW11964   0.762   2.974   3.235 -0.8376 -2.4137  0.2036
 2235Sol     HW11965   0.893   2.998   3.163 -0.8014  1.1340  1.3551
 2235Sol     MW11966   0.809   2.967   3.159 -0.6576 -0.1075 -0.5669
 2236Sol     OW11967   3.240   2.366   1.996  0.7316 -0.0524 -0.1444
 2236Sol     HW11968   3.314   2.305   2.004  0.9767  0.0146 -1.7594
 2236Sol     HW11969   3.171   2.314   1.956 -0.1552 -0.1467  1.4787
 2236Sol     MW11970   3.241   2.356   1.993 -0.2392 -0.1249 -0.8762
 2237Sol     OW11971   0.334   2.316   6.605  0.1302  0.5329 -0.4426
 2237Sol     HW11972   0.373   2.239   6.563  1.3511  1.1295 -0.4091
 2237Sol     HW11973   0.260   2.281   6.654  1.4508 -0.8095  0.6401
 2237Sol     MW11974   0.331   2.306   6.605 -0.2969 -0.4730 -0.4078
 2238Sol     OW11975   0.763   2.468   5.281  0.6103  0.1123 -0.3859
 2238Sol     HW11976   0.747   2.526   5.207  2.1926 -0.2888 -1.0689
 2238Sol     HW11977   0.707   2.391   5.264  0.4114  0.3432 -0.7847
 2238Sol     MW11978   0.757   2.466   5.273  0.1725 -0.3899  1.1323
 2239Sol     OW11979   1.304   2.258   9.979  0.4009  0.4956  0.2700
 2239Sol     HW11980   1.341   2.295   9.898 -2.0585  4.1776  0.6970
 2239Sol     HW11981   1.246   2.188   9.949  0.2635  1.1615 -1.0814
 2239Sol     MW11982   1.302   2.255   9.969 -0.8913  1.1748  0.7294
 2240Sol     OW11983   1.391   2.901   9.701 -0.1205 -0.3306 -0.1356
 2240Sol     HW11984   1.339   2.913   9.622  0.5917 -0.6316 -0.6558
 2240Sol     HW11985   1.374   2.811   9.729 -3.1799  0.8520  2.1100
 2240Sol     MW11986   1.385   2.894   9.697 -0.1745 -0.8563 -0.2871
 2241Sol     OW11987   1.607   0.009   3.072 -0.4094 -0.2501  0.0267
 2241Sol     HW11988   1.686  -0.044   3.072  1.4345  2.3964 -1.0208
 2241Sol     HW11989   1.562  -0.013   2.990  1.0483  0.7839 -1.0699
 2241Sol     MW11990   1.610   0.003   3.065  0.1972 -0.5573  0.7652
 2242Sol     OW11991   1.377   1.122   2.700 -0.1109 -0.2193  0.4475
 2242Sol     HW11992   1.423   1.134   2.617  0.4995 -2.6813  0.3828
 2242Sol     HW11993   1.444   1.138   2.767 -0.4360  1.0957  0.4780
 2242Sol     MW11994   1.387   1.124   2.699  0.6223  0.8219 -0.0777
 2243Sol     OW11995   2.220   1.587   8.928  0.4020  0.5432 -0.2526
 2243Sol     HW11996   2.286   1.529   8.890  1.4219  0.1374  2.0560
 2243Sol     HW11997   2.262   1.673   8.930 -0.2244  0.8846 -1.4513
 2243Sol     MW11998   2.230   1.589   8.925  0.2608 -0.6918  0.0007
 2244Sol     OW11999   3.180   2.526   3.892  0.2714 -0.2791  0.7741
 2244Sol     HW12000   3.137   2.456   3.942 -0.5659 -0.0495  0.3873
 2244Sol     HW12001   3.122   2.542   3.818 -0.3675  1.9237  1.6952
 2244Sol     MW12002   3.171   2.521   3.890  0.2801  0.5698  0.3740
 2245Sol     OW12003   2.829   2.456   4.345 -0.2520  0.1364  0.0364
 2245Sol     HW12004   2.860   2.499   4.266 -0.2913  2.5490  1.3031
 2245Sol     HW12005   2.755   2.508   4.374 -0.8786 -1.3094  1.1135
 2245Sol     MW12006   2.825   2.464   4.341 -0.7455 -0.2796 -1.0336
 2246Sol     OW12007   1.880   2.231   4.262 -0.2325  0.3019  0.0724
 2246Sol     HW12008   1.950   2.176   4.226 -0.2255  1.6782 -2.1511
 2246Sol     HW12009   1.919   2.319   4.267 -1.2462  0.7357  0.4909
 2246Sol     MW12010   1.890   2.234   4.259 -0.7650 -0.6271 -0.4428
 2247Sol     OW12011   2.821   1.258   4.180 -0.1205  0.5922  0.4281
 2247Sol     HW12012   2.893   1.199   4.200 -1.0939 -0.2202  1.6818
 2247Sol     HW12013   2.746   1.221   4.229 -1.0912  2.0362  0.0612
 2247Sol     MW12014   2.820   1.249   4.186 -0.1236  0.4457  0.9248
 2248Sol     OW12015   1.378   2.231   7.531  0.3998  0.3509 -0.2075
 2248Sol     HW12016   1.372   2.270   7.444  0.9891  2.1283  0.5372
 2248Sol     HW12017   1.297   2.257   7.575  0.4647  0.1358  0.0417
 2248Sol     MW12018   1.370   2.237   7.527 -0.3844 -0.4229  0.7192
 2249Sol     OW12019   0.026   2.910   9.884 -0.1316  0.3280 -0.2771
 2249Sol     HW12020  -0.010   2.822   9.872  0.4072  0.2373 -1.2817
 2249Sol     HW12021   0.113   2.896   9.922 -0.1001  0.4339 -0.3105
 2249Sol     MW12022   0.030   2.901   9.886 -1.2012  0.2396 -0.7076
 2250Sol     OW12023   1.206   2.640   1.965  0.8011 -0.5508 -0.2274
 2250Sol     HW12024   1.178   2.729   1.987  0.8993 -0.5405 -0.1411
 2250Sol     HW12025   1.125   2.595   1.939  1.0369  0.1679 -2.3665
 2250Sol     MW12026   1.196   2.644   1.964 -0.4821  0.1878  0.2726
 2251Sol     OW12027   0.904   1.626   5.669 -0.3220 -0.0616  0.3914
 2251Sol     HW12028   0.970   1.671   5.616  0.1750  1.2287  2.0672
 2251Sol     HW12029   0.931   1.534   5.669  1.3276  0.4158  0.8420
 2251Sol     MW12030   0.912   1.622   5.664  0.2200  0.3083 -0.3738
 2252Sol     OW12031   2.511   2.209   5.782 -0.5965 -0.2033  0.5393
 2252Sol     HW12032   2.434   2.154   5.795 -1.1265  0.7800  1.6421
 2252Sol     HW12033   2.552   2.214   5.868 -1.3619  2.2870  0.8184
 2252Sol     MW12034   2.508   2.205   5.791  0.1675  0.0306 -0.0894
 2253Sol     OW12035   1.412   2.762   3.882 -0.4974 -0.2547  0.5198
 2253Sol     HW12036   1.457   2.693   3.931 -1.4855 -1.2445  0.0433
 2253Sol     HW12037   1.387   2.826   3.949  0.3125 -0.4161  0.9797
 2253Sol     MW12038   1.414   2.762   3.893  0.1425  0.4458 -0.2017
 2254Sol     OW12039   0.889   3.084   9.093 -0.1163 -0.0345  0.5783
 2254Sol     HW12040   0.832   3.115   9.023  0.6036 -0.3072 -0.1402
 2254Sol     HW12041   0.855   2.998   9.115 -0.4516  0.1234  0.6892
 2254Sol     MW12042   0.881   3.079   9.089  1.3318 -1.3475  0.2660
 2255Sol     OW12043   1.259   1.993   4.070 -0.1152 -0.1039 -0.2333
 2255Sol     HW12044   1.344   2.032   4.087 -0.8381  1.1866  0.4425
 2255Sol     HW12045   1.223   2.042   3.996 -2.1187  2.2806  2.2350
 2255Sol     MW12046   1.263   2.001   4.065  0.2825 -0.0453  0.5585
 2256Sol     OW12047   3.175   0.488   8.909  0.4316 -0.6139 -0.2987
 2256Sol     HW12048   3.193   0.408   8.860  1.8703  0.2756 -1.2498
 2256Sol     HW12049   3.247   0.495   8.972  0.5238  0.1234 -0.4743
 2256Sol     MW12050   3.183   0.482   8.910 -0.0809 -0.6258  0.0736
 2257Sol     OW12051   0.891   2.635   8.593  0.2772 -0.0128 -0.1172
 2257Sol     HW12052   0.974   2.675   8.570  0.8051 -0.8611  0.2941
 2257Sol     HW12053   0.853   2.607   8.510  1.2961 -1.3575 -0.1442
 2257Sol     MW12054   0.895   2.636   8.584  0.2608  0.5943 -0.0664
 2258Sol     OW12055   2.569   2.357   8.748 -0.1659 -0.0272 -0.6389
 2258Sol     HW12056   2.653   2.320   8.777 -0.1992  0.6979  0.4168
 2258Sol     HW12057   2.555   2.320   8.661  1.5469  0.3324 -1.0740
 2258Sol     MW12058   2.575   2.350   8.743  0.4842  0.3683 -0.4668
 2259Sol     OW12059   1.677   1.606   8.760  0.3188  0.6742  0.5492
 2259Sol     HW12060   1.606   1.616   8.823  0.7288  0.3471  1.0717
 2259Sol     HW12061   1.656   1.667   8.689 -1.0683 -0.2208  0.1636
 2259Sol     MW12062   1.669   1.612   8.759 -1.3217 -0.5767 -0.2132
 2260Sol     OW12063   1.276   2.294   6.347  0.2415 -0.0536 -0.5243
 2260Sol     HW12064   1.187   2.263   6.362  0.3571 -1.6448 -2.8831
 2260Sol     HW12065   1.331   2.218   6.364  0.8937  0.0801 -1.9729
 2260Sol     MW12066   1.273   2.284   6.350 -0.1607  0.4658 -0.1042
 2261Sol     OW12067   1.094   1.148   1.958  0.3206 -0.2469 -0.2096
 2261Sol     HW12068   1.095   1.069   2.011  0.5500 -0.4872 -0.5734
 2261Sol     HW12069   1.099   1.117   1.867  3.8028  0.2794 -0.2801
 2261Sol     MW12070   1.095   1.138   1.954 -0.8589  0.1968 -0.0189
 2262Sol     OW12071   3.102   2.722   6.280  0.6263  0.0935 -0.0110
 2262Sol     HW12072   3.052   2.641   6.294 -1.4577  1.2991 -0.3888
 2262Sol     HW12073   3.149   2.735   6.363 -0.0573 -0.7875  0.5220
 2262Sol     MW12074   3.102   2.716   6.289  0.0422  0.0217  0.4567
 2263Sol     OW12075   1.476   0.800   4.681  0.1609  0.0583 -0.0137
 2263Sol     HW12076   1.470   0.705   4.666  0.7083  0.4319 -2.8788
 2263Sol     HW12077   1.388   0.832   4.663 -0.0170  0.1134  0.9331
 2263Sol     MW12078   1.468   0.794   4.678 -0.1378 -0.5745  0.6789
 2264Sol     OW12079   2.672   0.880   3.122  0.2273 -0.0459  0.6535
 2264Sol     HW12080   2.715   0.796   3.139  0.0263  0.1995  2.4675
 2264Sol     HW12081   2.691   0.933   3.199 -1.4767  0.8166  0.5057
 2264Sol     MW12082   2.677   0.877   3.131  0.5574 -0.7498  0.6025
 2265Sol     OW12083   1.808   3.381   4.966  0.9552  0.4765  0.3965
 2265Sol     HW12084   1.717   3.411   4.975  0.6108  1.8342 -5.3327
 2265Sol     HW12085   1.803   3.310   4.902  4.0170  1.5001 -1.0666
 2265Sol     MW12086   1.799   3.377   4.961  0.2404  0.4437  0.5857
 2266Sol     OW12087   1.387   3.000   8.381 -0.3598 -0.2375  0.0463
 2266Sol     HW12088   1.421   3.088   8.365 -0.0194 -0.2192  0.8422
 2266Sol     HW12089   1.431   2.945   8.316  0.8126 -0.1269  0.7292
 2266Sol     MW12090   1.394   3.003   8.374 -0.5378  0.1225 -0.1132
 2267Sol     OW12091   0.392   0.344   9.531 -0.1184  1.0521 -0.3076
 2267Sol     HW12092   0.438   0.363   9.450  0.6343  0.3154 -0.0563
 2267Sol     HW12093   0.333   0.418   9.543  1.7045  2.5103 -0.1086
 2267Sol     MW12094   0.391   0.352   9.525 -0.0935  0.3180  0.7587
 2268Sol     OW12095   2.396   2.901   5.192  0.0033  0.2852  0.6508
 2268Sol     HW12096   2.430   2.986   5.218 -0.4691  0.6360  0.1116
 2268Sol     HW12097   2.366   2.861   5.274  1.3572  0.1207  1.0825
 2268Sol     MW12098   2.396   2.905   5.202 -0.0760 -0.0118  0.0579
 2269Sol     OW12099   2.720   2.851   7.112 -0.0218  0.0618 -0.1025
 2269Sol     HW12100   2.760   2.921   7.164 -0.4474  0.7287 -0.6595
 2269Sol     HW12101   2.736   2.877   7.021  3.3872 -2.6255 -0.3533
 2269Sol     MW12102   2.725   2.860   7.109  0.0139 -0.4490  0.2262
 2270Sol     OW12103   1.787   1.421   2.872  0.2411  1.0993 -0.2450
 2270Sol     HW12104   1.804   1.483   2.944 -0.9192 -0.4690  1.4140
 2270Sol     HW12105   1.871   1.379   2.856  0.7574  2.2368 -0.5584
 2270Sol     MW12106   1.796   1.423   2.877 -0.9861 -0.6356 -0.1634
 2271Sol     OW12107   1.607   3.325   7.841  0.5892  0.4577  0.5363
 2271Sol     HW12108   1.543   3.254   7.833  1.1004  0.1228 -0.5567
 2271Sol     HW12109   1.683   3.295   7.793  0.7545  1.8325 -0.0839
 2271Sol     MW12110   1.608   3.316   7.836 -0.8810 -0.0769  0.3372
 2272Sol     OW12111   2.291   2.776   7.593  0.1766  0.2030  0.2339
 2272Sol     HW12112   2.229   2.732   7.652  0.7754 -1.6740 -0.5097
 2272Sol     HW12113   2.342   2.705   7.554  0.1149  1.4507 -2.1994
 2272Sol     MW12114   2.290   2.766   7.595  0.1238 -0.4189  0.4157
 2273Sol     OW12115   1.669   0.796   4.072 -0.9204 -0.2929  0.2581
 2273Sol     HW12116   1.707   0.717   4.110 -0.4330  0.0798  0.5473
 2273Sol     HW12117   1.653   0.854   4.147  0.0333  0.4405 -0.1024
 2273Sol     MW12118   1.671   0.794   4.083  0.3681  0.0166 -0.1341
 2274Sol     OW12119   1.686   1.349   2.444 -0.1001 -0.0722 -0.3211
 2274Sol     HW12120   1.660   1.397   2.523 -1.8410  0.5013 -1.2375
 2274Sol     HW12121   1.635   1.268   2.447  2.2268 -1.5648  0.7937
 2274Sol     MW12122   1.679   1.346   2.452 -0.1147 -0.5174  0.6463
 2275Sol     OW12123   0.504   3.002   4.116  0.4902  0.4260  0.0318
 2275Sol     HW12124   0.419   2.958   4.111  0.4085  0.7842 -2.0331
 2275Sol     HW12125   0.567   2.931   4.103  0.6006 -0.0391  2.6995
 2275Sol     MW12126   0.502   2.991   4.115  0.1389 -0.0739  0.3449
 2276Sol     OW12127   1.228   0.004   3.076 -0.3341  0.2296  0.4889
 2276Sol     HW12128   1.275   0.002   3.160 -0.0336  1.9863  0.3739
 2276Sol     HW12129   1.139   0.029   3.099  0.1071  2.2277  0.1624
 2276Sol     MW12130   1.224   0.006   3.086 -1.4203 -0.0559 -0.5804
 2277Sol     OW12131   0.859   0.515   9.053 -0.7113  0.0605  0.1872
 2277Sol     HW12132   0.882   0.522   9.145 -0.4049  0.4429  0.0803
 2277Sol     HW12133   0.936   0.479   9.011 -1.4212 -1.6716  0.3365
 2277Sol     MW12134   0.868   0.513   9.057  0.3337  0.4547 -0.0581
 2278Sol     OW12135   1.855   2.848   9.952 -0.4092  0.3624  0.3566
 2278Sol     HW12136   1.819   2.792  10.021 -0.3778 -1.4692 -1.0594
 2278Sol     HW12137   1.781   2.863   9.893  0.1139  0.0274 -0.3891
 2278Sol     MW12138   1.845   2.844   9.953  0.2748  0.3400  0.2329
 2279Sol     OW12139   2.783   3.115   6.566  0.2998 -0.0961 -0.2120
 2279Sol     HW12140   2.800   3.177   6.496 -0.7591  0.3286 -0.0984
 2279Sol     HW12141   2.833   3.037   6.542  2.3565  1.0930  0.1139
 2279Sol     MW12142   2.789   3.113   6.558 -0.2456  0.3727 -0.3913
 2280Sol     OW12143   3.018   2.112   6.480 -0.2353  0.3004 -0.1007
 2280Sol     HW12144   2.943   2.108   6.421 -2.3780  2.2772  2.3920
 2280Sol     HW12145   3.027   2.023   6.514 -1.7943  0.1767 -0.0024
 2280Sol     MW12146   3.012   2.104   6.478  0.2278  0.2083 -0.1167
 2281Sol     OW12147   1.090   0.292   6.330 -0.2589  0.3118  0.5174
 2281Sol     HW12148   1.096   0.365   6.268 -1.4854  0.9782  1.1586
 2281Sol     HW12149   1.024   0.320   6.394  1.2784 -0.2045  2.3606
 2281Sol     MW12150   1.084   0.301   6.330 -0.0247  0.0254  0.3425
 2282Sol     OW12151   0.440   0.088   9.473  0.5166 -0.3376 -0.6272
 2282Sol     HW12152   0.511   0.080   9.409  1.6144 -0.5200  0.5826
 2282Sol     HW12153   0.449   0.176   9.508  0.3935 -0.4973 -0.1914
 2282Sol     MW12154   0.447   0.095   9.470  0.1925  0.1028  0.4502
 2283Sol     OW12155   3.046   0.154   7.472 -0.3194 -0.1541 -0.1743
 2283Sol     HW12156   3.091   0.133   7.553 -0.8902  1.0587  0.4655
 2283Sol     HW12157   3.069   0.245   7.454  0.5870 -0.6854 -1.9003
 2283Sol     MW12158   3.052   0.160   7.477 -0.7165  0.3364  0.2079
 2284Sol     OW12159   0.014   2.214   8.057 -0.1650  0.2469  0.3350
 2284Sol     HW12160  -0.003   2.123   8.031 -0.7458 -0.1639  2.0616
 2284Sol     HW12161   0.109   2.220   8.063 -0.0289  0.2486 -1.4170
 2284Sol     MW12162   0.021   2.206   8.055 -0.1529 -0.0832 -0.0802
 2285Sol     OW12163   2.794   1.488   6.386 -0.2811 -0.1475 -0.1323
 2285Sol     HW12164   2.847   1.503   6.464  0.3072 -1.7480 -0.1952
 2285Sol     HW12165   2.825   1.553   6.323 -0.5075  0.9147  0.8397
 2285Sol     MW12166   2.802   1.495   6.387 -0.0259  0.2116 -0.9364
 2286Sol     OW12167   3.108   0.778   2.741  0.2813 -0.2691 -0.0538
 2286Sol     HW12168   3.104   0.688   2.771 -2.0250  0.1969  1.1749
 2286Sol     HW12169   3.128   0.829   2.820  1.0976  0.3459 -0.6476
 2286Sol     MW12170   3.109   0.775   2.751  0.0684  0.7217 -0.1771
 2287Sol     OW12171   0.410   3.234   4.881 -0.1754 -0.3846  0.0353
 2287Sol     HW12172   0.330   3.204   4.838 -1.0415  0.7782  0.7982
 2287Sol     HW12173   0.381   3.308   4.936  1.0785 -1.1351  1.7535
 2287Sol     MW12174   0.400   3.238   4.882 -0.5062  0.3103  0.2016
 2288Sol     OW12175   0.152   2.078   2.616 -0.4646 -0.2292 -0.3265
 2288Sol     HW12176   0.084   2.011   2.604 -1.0417 -0.2974  3.0167
 2288Sol     HW12177   0.234   2.031   2.599 -1.0288 -0.9764 -1.0805
 2288Sol     MW12178   0.153   2.068   2.613 -0.0486  0.0245 -0.7848
 2289Sol     OW12179   1.936   3.042   7.790  0.0263 -0.4593  0.1166
 2289Sol     HW12180   1.928   2.969   7.729  0.8002 -0.1124 -0.4067
 2289Sol     HW12181   1.945   3.001   7.876 -1.9685 -0.9339  0.1220
 2289Sol     MW12182   1.936   3.032   7.792  0.5175  0.0257 -0.2119
 2290Sol     OW12183   0.423   1.160   7.615  0.6859 -0.7052  0.4488
 2290Sol     HW12184   0.363   1.152   7.689 -0.6106 -0.6414 -0.5579
 2290Sol     HW12185   0.418   1.253   7.590  0.6247 -0.8463 -0.0862
 2290Sol     MW12186   0.417   1.168   7.619  0.3370  0.2662  0.5267
 2291Sol     OW12187   1.763   1.914   4.238  0.2091 -0.3024  0.4882
 2291Sol     HW12188   1.796   1.910   4.148 -1.0354  0.7784 -0.0402
 2291Sol     HW12189   1.673   1.944   4.228  0.8913  2.5248  2.2732
 2291Sol     MW12190   1.758   1.917   4.229  0.5942  0.1363 -0.4324
 2292Sol     OW12191   0.056   2.740   9.500 -0.8716  0.2373 -0.4284
 2292Sol     HW12192   0.092   2.801   9.436 -0.6987 -1.9446 -2.4804
 2292Sol     HW12193  -0.015   2.788   9.542 -1.0821  1.6730 -2.3682
 2292Sol     MW12194   0.053   2.750   9.498  0.3087  0.4805  1.2805
 2293Sol     OW12195   2.793   3.323   8.813  0.4904 -0.4409 -0.6170
 2293Sol     HW12196   2.797   3.418   8.813 -0.6388 -0.3566  1.7711
 2293Sol     HW12197   2.793   3.299   8.721 -0.5219  1.9255 -1.2698
 2293Sol     MW12198   2.793   3.329   8.805 -1.2688  0.0956 -0.4781
 2294Sol     OW12199   1.383   1.116   3.662 -0.1886 -0.9877 -0.2510
 2294Sol     HW12200   1.400   1.207   3.687 -0.8272 -0.1100 -2.8923
 2294Sol     HW12201   1.303   1.093   3.710  0.3522 -0.4169  0.9536
 2294Sol     MW12202   1.377   1.122   3.669  0.2104  0.1981  0.5393
 2295Sol     OW12203   0.978   0.884   7.232 -0.3590 -1.0048 -0.1751
 2295Sol     HW12204   0.985   0.791   7.210  0.1511 -0.3146 -3.1141
 2295Sol     HW12205   0.981   0.929   7.148 -2.5420  1.5869  1.0543
 2295Sol     MW12206   0.979   0.880   7.223  0.2644 -0.2169 -1.1086
 2296Sol     OW12207   1.841   2.238   5.275  0.2338  0.5192  0.0182
 2296Sol     HW12208   1.886   2.303   5.329 -1.1315  1.3976  0.1076
 2296Sol     HW12209   1.798   2.181   5.338  0.7698 -0.0080 -0.0853
 2296Sol     MW12210   1.842   2.239   5.285 -1.0170  1.1348  0.1957
 2297Sol     OW12211   1.400   3.108   4.417 -0.4164  0.0073 -0.1704
 2297Sol     HW12212   1.311   3.074   4.418 -0.3550 -0.3459 -2.3709
 2297Sol     HW12213   1.391   3.199   4.389 -0.1836  0.3850  0.9496
 2297Sol     MW12214   1.391   3.113   4.414  0.7173 -0.0147  0.2484
 2298Sol     OW12215   0.206   0.042   3.111  0.0236  0.1990  0.5136
 2298Sol     HW12216   0.279  -0.017   3.130 -0.0527  0.2514  0.9899
 2298Sol     HW12217   0.240   0.129   3.131 -0.0368  0.2638  0.3331
 2298Sol     MW12218   0.215   0.044   3.115  0.4778  0.2577  0.5225
 2299Sol     OW12219   0.660   2.237   9.539 -0.4087  0.1619  0.6579
 2299Sol     HW12220   0.671   2.225   9.633 -0.5340  1.4505  0.8486
 2299Sol     HW12221   0.722   2.307   9.517 -2.4811  1.9399  0.3148
 2299Sol     MW12222   0.667   2.242   9.546  0.4315 -0.4538  0.3861
 2300Sol     OW12223   0.401   0.364   5.830  0.1624 -0.2565 -0.4698
 2300Sol     HW12224   0.326   0.305   5.841 -3.0770  3.4452 -1.7014
 2300Sol     HW12225   0.428   0.351   5.739 -1.1486  0.7565 -1.0251
 2300Sol     MW12226   0.397   0.357   5.823 -0.0905  0.2713 -0.1615
 2301Sol     OW12227   3.306   0.335   5.959 -0.2922 -0.4441  0.4141
 2301Sol     HW12228   3.365   0.270   5.920  1.1580  0.4575  1.0678
 2301Sol     HW12229   3.241   0.282   6.006 -0.1880 -1.4622 -0.5661
 2301Sol     MW12230   3.306   0.324   5.960  0.2161  0.2335  0.5397
 2302Sol     OW12231   0.110   3.267   7.995 -0.7737  0.5161  0.2711
 2302Sol     HW12232   0.051   3.191   7.997 -1.2356  0.7586 -1.9919
 2302Sol     HW12233   0.108   3.302   8.084 -3.6419  0.1678  0.3934
 2302Sol     MW12234   0.104   3.264   8.003 -0.0330 -0.0368 -0.2335
 2303Sol     OW12235   2.747   2.804   8.468 -0.0764  0.1450  0.4772
 2303Sol     HW12236   2.745   2.877   8.406 -1.4218  1.0468  1.5476
 2303Sol     HW12237   2.676   2.747   8.441 -0.4471  0.3655  0.9849
 2303Sol     MW12238   2.741   2.806   8.460  0.4917 -0.3822  0.4646
 2304Sol     OW12239   2.845   3.057   7.228 -0.1177  0.0574 -0.6294
 2304Sol     HW12240   2.847   3.130   7.289  1.6452 -1.1752  0.8606
 2304Sol     HW12241   2.910   3.080   7.161 -2.5464  1.7308 -2.5124
 2304Sol     MW12242   2.851   3.065   7.227 -0.7898 -0.5491  0.6594
 2305Sol     OW12243   1.724   1.492   5.102 -0.0434  0.1014  0.3185
 2305Sol     HW12244   1.647   1.459   5.148 -1.0700  3.7086  1.3822
 2305Sol     HW12245   1.797   1.472   5.160  0.0694 -4.2669 -1.1554
 2305Sol     MW12246   1.724   1.488   5.111  1.0202 -0.7964  0.4401
 2306Sol     OW12247   3.127   2.430   2.237  0.2518  0.4898 -0.1654
 2306Sol     HW12248   3.155   2.399   2.150 -0.9067 -0.9911 -0.0361
 2306Sol     HW12249   3.201   2.412   2.294  0.8833  1.1340 -0.7747
 2306Sol     MW12250   3.136   2.426   2.234  0.0036  0.7031  0.3555
 2307Sol     OW12251   1.326   3.249   9.599 -0.0638 -0.6548  0.3110
 2307Sol     HW12252   1.388   3.253   9.672 -0.5495  0.2924  0.6815
 2307Sol     HW12253   1.240   3.252   9.641 -0.3439  2.5412 -0.4156
 2307Sol     MW12254   1.324   3.249   9.609  0.4501  0.0300 -0.0075
 2308Sol     OW12255   1.727   3.403   8.777 -0.1263 -0.1629 -0.0351
 2308Sol     HW12256   1.670   3.362   8.842 -1.1964  2.2739  0.6170
 2308Sol     HW12257   1.667   3.432   8.708  0.4488  1.2997  0.0583
 2308Sol     MW12258   1.716   3.402   8.777 -0.7096  0.3555  0.2006
 2309Sol     OW12259   2.034   0.566   5.758  1.0958  0.0298 -0.3871
 2309Sol     HW12260   2.035   0.527   5.845 -1.2749 -0.7642 -0.7086
 2309Sol     HW12261   2.049   0.493   5.698 -2.0761 -0.2371 -0.9087
 2309Sol     MW12262   2.036   0.556   5.761  0.7755 -0.0710  0.0988
 2310Sol     OW12263   1.377   0.838   4.207  0.0797 -0.0491  0.0228
 2310Sol     HW12264   1.324   0.893   4.265  0.2004  0.3460 -0.2361
 2310Sol     HW12265   1.375   0.883   4.123  1.6530  0.5150  0.2747
 2310Sol     MW12266   1.372   0.847   4.205 -1.2321  0.6008 -0.2015
 2311Sol     OW12267   2.257   3.167  10.027 -0.3137  0.2568 -0.4191
 2311Sol     HW12268   2.167   3.146  10.002 -0.0853 -0.7942 -0.3785
 2311Sol     HW12269   2.249   3.244  10.083 -1.1749  0.2575 -0.5375
 2311Sol     MW12270   2.249   3.172  10.030 -0.4537  0.7390  0.5857
 2312Sol     OW12271   2.945   1.690   1.518 -0.3895  0.2687 -0.1901
 2312Sol     HW12272   2.957   1.784   1.531  1.7752 -0.0812  0.5963
 2312Sol     HW12273   2.941   1.654   1.607  1.0519 -0.6117 -0.4657
 2312Sol     MW12274   2.946   1.695   1.527 -0.3909 -0.2918 -0.6266
 2313Sol     OW12275   2.687   3.169   3.401  0.1728 -0.3241 -0.5925
 2313Sol     HW12276   2.636   3.105   3.351 -2.9038  0.6903  1.1458
 2313Sol     HW12277   2.624   3.236   3.426  2.8687  2.2331 -0.3620
 2313Sol     MW12278   2.677   3.169   3.398  0.1657 -0.2676 -0.3174
 2314Sol     OW12279   0.841   0.574   7.853  0.0083 -0.4027 -0.6468
 2314Sol     HW12280   0.915   0.620   7.894 -0.4617 -0.7582  0.6448
 2314Sol     HW12281   0.880   0.520   7.785  0.8506 -0.0372 -0.4538
 2314Sol     MW12282   0.851   0.574   7.851  0.8047 -0.1219 -0.4743
 2315Sol     OW12283   2.889   2.848   5.656 -0.7464 -0.0351  0.0313
 2315Sol     HW12284   2.800   2.820   5.636 -0.5252 -1.5606  1.1204
 2315Sol     HW12285   2.937   2.831   5.575 -1.0754 -0.8530 -0.0033
 2315Sol     MW12286   2.885   2.844   5.647  0.0485 -0.0414 -0.7590
 2316Sol     OW12287   2.128   0.417   5.546 -0.6825 -0.4115  0.0370
 2316Sol     HW12288   2.143   0.356   5.473  0.0598 -1.3085  0.9179
 2316Sol     HW12289   2.087   0.493   5.506 -0.9026 -1.1761 -1.2142
 2316Sol     MW12290   2.126   0.418   5.536  0.8040  0.3427  0.0219
 2317Sol     OW12291   3.273   2.891   1.498 -0.3352 -0.3398  0.0813
 2317Sol     HW12292   3.291   2.804   1.534  1.0263 -0.3447 -0.5683
 2317Sol     HW12293   3.206   2.875   1.431 -0.4052 -0.8299  0.2618
 2317Sol     MW12294   3.268   2.882   1.495  0.0573  0.3722  0.0438
 2318Sol     OW12295   1.826   0.381   6.215 -0.3313  0.4324  0.3200
 2318Sol     HW12296   1.773   0.441   6.268 -0.9464 -0.1962  0.4347
 2318Sol     HW12297   1.847   0.310   6.276  1.3624  1.0776  0.5150
 2318Sol     MW12298   1.823   0.380   6.225  0.7517 -0.6462 -0.3760
 2319Sol     OW12299   2.375   1.437   4.001  0.0554  0.2985  0.1236
 2319Sol     HW12300   2.363   1.427   3.907 -0.0204  0.3160  0.1315
 2319Sol     HW12301   2.308   1.501   4.027  1.2008  1.6288 -0.1043
 2319Sol     MW12302   2.368   1.442   3.995 -0.1475 -1.3251  0.2135
 2320Sol     OW12303   2.512   2.015   9.772 -0.3935  0.1361 -0.2268
 2320Sol     HW12304   2.553   2.085   9.721  0.3306 -0.3725 -0.3305
 2320Sol     HW12305   2.460   2.062   9.838  1.7240  0.7829  1.0365
 2320Sol     MW12306   2.511   2.026   9.774  0.6239 -0.2611  0.0008
 2321Sol     OW12307   1.529   0.132   1.855 -0.0988  0.3448  0.5379
 2321Sol     HW12308   1.573   0.148   1.939  0.2643  2.1104  0.0405
 2321Sol     HW12309   1.597   0.149   1.789 -0.3394 -1.1793 -0.1259
 2321Sol     MW12310   1.539   0.135   1.856  0.2646  1.0840  0.0195
 2322Sol     OW12311   0.741   1.814   5.520  0.3995  0.5671 -0.8532
 2322Sol     HW12312   0.817   1.756   5.514  0.0158  0.0459 -0.7602
 2322Sol     HW12313   0.775   1.895   5.557  0.8994  0.3177 -0.7614
 2322Sol     MW12314   0.751   1.816   5.523  0.5142 -0.1165  0.1512
 2323Sol     OW12315   2.847   0.435   6.238  0.4840  0.0430 -0.1962
 2323Sol     HW12316   2.870   0.485   6.160  1.2217 -0.7451 -0.4845
 2323Sol     HW12317   2.761   0.470   6.264  0.9642  1.4134 -0.4203
 2323Sol     MW12318   2.841   0.443   6.233  0.0230  0.1699  0.2724
 2324Sol     OW12319   0.231   1.734   8.072 -0.0425 -0.7483  0.0677
 2324Sol     HW12320   0.289   1.808   8.089  0.0907 -0.7518 -0.3612
 2324Sol     HW12321   0.194   1.712   8.158 -0.0894 -0.1832  0.1904
 2324Sol     MW12322   0.233   1.738   8.082  0.2863  0.4671 -0.0266
 2325Sol     OW12323   0.496   3.319   2.241 -0.2930 -0.3676  0.2625
 2325Sol     HW12324   0.482   3.248   2.178  0.0391 -0.0345 -0.1893
 2325Sol     HW12325   0.415   3.370   2.238 -0.9974 -1.3801  1.4418
 2325Sol     MW12326   0.488   3.317   2.235  0.1799 -0.0257 -0.2997
 2326Sol     OW12327   2.455   0.411   8.579  0.4787 -0.0751  0.3803
 2326Sol     HW12328   2.390   0.476   8.604 -0.3234 -1.0214  0.8062
 2326Sol     HW12329   2.465   0.356   8.658 -1.3068 -2.4646 -0.9811
 2326Sol     MW12330   2.450   0.412   8.589  0.1881 -0.2251 -0.2115
 2327Sol     OW12331   1.172   1.242   5.599 -0.3864  0.6223  0.0009
 2327Sol     HW12332   1.211   1.256   5.513  1.1327  1.5666  0.8189
 2327Sol     HW12333   1.157   1.147   5.603  0.4642  0.4410 -0.9101
 2327Sol     MW12334   1.174   1.235   5.592  0.2563 -0.0083  0.4543
 2328Sol     OW12335   2.064   0.973   4.290 -0.5176  0.3895 -0.0439
 2328Sol     HW12336   2.148   1.017   4.278  0.4610 -0.6009  2.9167
 2328Sol     HW12337   2.063   0.905   4.223  1.2002  0.1596  0.1579
 2328Sol     MW12338   2.071   0.971   4.283 -0.3541 -0.0142 -0.5341
 2329Sol     OW12339   3.017   3.449   5.719  0.4106  0.7906 -0.1889
 2329Sol     HW12340   2.995   3.514   5.786  0.2524 -1.6075  2.1612
 2329Sol     HW12341   2.937   3.440   5.667 -0.1890  1.0861  0.6677
 2329Sol     MW12342   3.008   3.454   5.720 -0.0170 -0.0573 -0.0596
 2330Sol     OW12343   1.206   3.001   8.091 -0.4090 -0.8546 -0.0885
 2330Sol     HW12344   1.290   2.970   8.058 -0.3711 -1.3287  0.4549
 2330Sol     HW12345   1.187   2.945   8.166 -0.4746  0.2296  0.7279
 2330Sol     MW12346   1.212   2.993   8.095 -0.2788  0.1873  0.7051
 2331Sol     OW12347   2.525   0.022   6.224  0.0310  0.1875  0.8443
 2331Sol     HW12348   2.549   0.044   6.134 -1.3062  0.8736  0.6461
 2331Sol     HW12349   2.510   0.107   6.267 -0.7224 -0.1885  1.3272
 2331Sol     MW12350   2.526   0.032   6.220  0.3566  0.1687  0.6479
 2332Sol     OW12351   2.157   1.265   5.220 -0.0746 -0.2351  0.2047
 2332Sol     HW12352   2.084   1.315   5.256  0.0274 -0.1916  0.3490
 2332Sol     HW12353   2.119   1.179   5.200  0.0613 -0.5199  1.1601
 2332Sol     MW12354   2.147   1.262   5.222 -0.4666  0.0128 -0.1920
 2333Sol     OW12355   3.267   1.859   2.641 -0.6623  0.4495  0.0649
 2333Sol     HW12356   3.305   1.817   2.564 -1.0017  1.2559 -0.5547
 2333Sol     HW12357   3.227   1.788   2.690 -2.2372  0.1817 -1.5670
 2333Sol     MW12358   3.267   1.849   2.638  0.3246 -0.3602  0.4007
 2334Sol     OW12359   0.231   2.201   3.542  0.4119  0.1991  0.1325
 2334Sol     HW12360   0.305   2.186   3.483 -0.6548  0.3767 -1.2640
 2334Sol     HW12361   0.176   2.265   3.496 -0.2090  0.6687  1.5146
 2334Sol     MW12362   0.233   2.205   3.533  0.6804  0.7266  0.1379
 2335Sol     OW12363   3.313   3.192   8.415 -0.4826 -0.6839 -0.4026
 2335Sol     HW12364   3.229   3.230   8.391 -0.9072 -1.8737 -0.8057
 2335Sol     HW12365   3.311   3.187   8.511 -1.0808 -1.1850 -0.4404
 2335Sol     MW12366   3.305   3.195   8.422 -0.6307  0.1097 -0.9261
 2336Sol     OW12367   2.236   1.219   8.622  0.4461 -0.6432 -0.4808
 2336Sol     HW12368   2.202   1.131   8.608  0.7874 -0.7275 -0.7965
 2336Sol     HW12369   2.298   1.210   8.695 -1.1169 -0.2580  0.9285
 2336Sol     MW12370   2.239   1.210   8.627 -0.1834  1.5238  0.5051
 2337Sol     OW12371   0.323   0.901   5.215  0.1435  0.1222 -0.3732
 2337Sol     HW12372   0.414   0.913   5.244  0.1221  0.0410 -0.2780
 2337Sol     HW12373   0.292   0.825   5.263  0.1883 -0.1578 -0.7876
 2337Sol     MW12374   0.329   0.896   5.222  0.7981  0.1651 -0.6594
 2338Sol     OW12375   2.507   2.230   6.198 -0.1801 -0.3852  0.1148
 2338Sol     HW12376   2.558   2.154   6.171 -1.5524 -1.6938  1.0962
 2338Sol     HW12377   2.569   2.286   6.244  0.4651 -1.7536  0.9299
 2338Sol     MW12378   2.517   2.228   6.200  0.3768 -0.2258  1.0450
 2339Sol     OW12379   2.278   1.720   5.465  0.6640  0.0261  0.4805
 2339Sol     HW12380   2.329   1.665   5.525  1.6005  0.2994 -0.0716
 2339Sol     HW12381   2.337   1.740   5.393 -0.4123 -0.1795 -0.4832
 2339Sol     MW12382   2.288   1.717   5.464 -0.1625  0.1913 -0.4956
 2340Sol     OW12383   0.293   2.260   8.014  0.4299  0.1701 -0.1975
 2340Sol     HW12384   0.374   2.305   8.037 -0.2658  1.6954 -0.6717
 2340Sol     HW12385   0.295   2.253   7.919 -0.3072  0.8627 -0.2788
 2340Sol     MW12386   0.300   2.263   8.008 -0.2607 -0.2511  0.3852
 2341Sol     OW12387   2.879   2.598   4.110 -0.0166 -0.5330  0.3415
 2341Sol     HW12388   2.891   2.691   4.132 -1.6571 -0.2903  0.3060
 2341Sol     HW12389   2.894   2.593   4.016 -1.4403 -0.0004  0.0670
 2341Sol     MW12390   2.881   2.606   4.104  0.2077  0.2905  0.0380
 2342Sol     OW12391   0.977   2.320   6.367 -0.4112  0.1506 -0.1736
 2342Sol     HW12392   0.920   2.386   6.327  0.9373  1.4774  0.0588
 2342Sol     HW12393   0.997   2.356   6.454 -0.6333 -1.1502  0.4325
 2342Sol     MW12394   0.973   2.330   6.372 -0.5537 -0.3589 -0.1875
 2343Sol     OW12395   1.132   0.403   7.311 -0.1536  0.0468 -0.4415
 2343Sol     HW12396   1.212   0.416   7.362  1.3234  1.5524 -3.0620
 2343Sol     HW12397   1.143   0.316   7.272  1.5365  1.3335 -2.9842
 2343Sol     MW12398   1.140   0.396   7.312 -0.4919 -0.4283  0.4131
 2344Sol     OW12399   1.812   2.543   8.711  0.8656  0.1805 -0.0693
 2344Sol     HW12400   1.870   2.517   8.783  0.3255  0.9145  0.6504
 2344Sol     HW12401   1.774   2.461   8.680  1.0142 -0.1310  0.5632
 2344Sol     MW12402   1.814   2.533   8.715  0.7409 -0.8462 -0.4571
 2345Sol     OW12403   0.457   2.472   4.204  0.1003  0.0534  0.1077
 2345Sol     HW12404   0.511   2.420   4.144  1.7881  1.2378  0.5673
 2345Sol     HW12405   0.443   2.415   4.280  1.6565  0.1297  0.4699
 2345Sol     MW12406   0.461   2.462   4.205  0.4908  0.4552  0.3688
 2346Sol     OW12407   2.206   1.221   1.477 -0.6222  0.7045 -0.1814
 2346Sol     HW12408   2.225   1.292   1.416  0.6841 -0.9116 -1.6655
 2346Sol     HW12409   2.111   1.226   1.490 -0.4545  3.2718  0.4626
 2346Sol     MW12410   2.199   1.228   1.473 -0.1038  0.0598 -1.2099
 2347Sol     OW12411   0.057   2.454   4.896  0.0715  0.0575 -0.5149
 2347Sol     HW12412   0.039   2.413   4.981  0.0786 -0.9195 -0.9753
 2347Sol     HW12413   0.014   2.539   4.902  0.5991  0.2584  0.6937
 2347Sol     MW12414   0.051   2.458   4.904  1.0377  0.2389 -1.1713
 2348Sol     OW12415   0.024   1.945   9.285 -0.7611  0.2524 -0.1029
 2348Sol     HW12416   0.006   2.036   9.262 -0.2374  0.5167  0.5101
 2348Sol     HW12417   0.027   1.944   9.380 -2.6810 -0.7933 -0.0219
 2348Sol     MW12418   0.023   1.953   9.291  0.3455  0.1938 -0.1779
 2349Sol     OW12419   0.540   2.574   8.985  0.2867  0.6403  0.1011
 2349Sol     HW12420   0.610   2.575   8.920  0.4040  0.1380  0.2202
 2349Sol     HW12421   0.465   2.534   8.940  0.7465 -0.8911  0.6545
 2349Sol     MW12422   0.539   2.570   8.975  0.2849  0.1945  0.3416
 2350Sol     OW12423   0.113   0.540   8.850 -0.1374  0.4008 -0.4782
 2350Sol     HW12424   0.067   0.523   8.768  0.3032  1.8548 -1.0463
 2350Sol     HW12425   0.101   0.460   8.901  0.0227 -0.7352 -2.1689
 2350Sol     MW12426   0.108   0.531   8.847 -0.3624 -0.3396 -0.9276
 2351Sol     OW12427   1.813   2.387   1.812  0.3044  0.1903 -0.1364
 2351Sol     HW12428   1.798   2.312   1.755 -0.5678 -0.0763  0.4358
 2351Sol     HW12429   1.809   2.351   1.901 -0.4443  0.9592  0.1490
 2351Sol     MW12430   1.812   2.377   1.815  0.0289 -0.4922 -0.1356
 2352Sol     OW12431   0.748   3.227   7.295  0.4956  0.2976  0.4637
 2352Sol     HW12432   0.684   3.241   7.365  0.8136 -0.1944  0.8636
 2352Sol     HW12433   0.822   3.284   7.318  1.9431 -2.2277  2.2949
 2352Sol     MW12434   0.749   3.233   7.304  0.7016 -0.3800  0.1575
 2353Sol     OW12435   1.357   2.693   9.949  0.4305  0.9777  0.0272
 2353Sol     HW12436   1.427   2.639   9.914  0.2437  0.2745  0.7302
 2353Sol     HW12437   1.393   2.731  10.030  0.0537  0.7167  0.3243
 2353Sol     MW12438   1.366   2.692   9.953 -0.1386  0.0862 -0.9759
 2354Sol     OW12439   0.737   1.416   7.118  0.2840  0.0218  0.1558
 2354Sol     HW12440   0.711   1.508   7.113 -0.3356 -0.0052  2.3658
 2354Sol     HW12441   0.657   1.370   7.145  0.6784 -1.1065 -0.5905
 2354Sol     MW12442   0.728   1.420   7.120 -0.0133  0.6439 -0.3179
 2355Sol     OW12443   1.661   0.442   7.059 -0.0711 -0.5047  0.3319
 2355Sol     HW12444   1.630   0.463   6.971  0.5997 -0.0845  0.1932
 2355Sol     HW12445   1.648   0.347   7.068 -2.8057 -0.1124  0.8383
 2355Sol     MW12446   1.657   0.435   7.052 -0.0861 -1.0871 -0.1262
 2356Sol     OW12447   1.398   1.046   6.340  0.2949 -0.3384  0.0895
 2356Sol     HW12448   1.389   0.992   6.418  0.0674 -0.8765 -0.3016
 2356Sol     HW12449   1.347   1.000   6.273  0.8234 -0.0955 -0.4852
 2356Sol     MW12450   1.393   1.037   6.341 -0.2843  0.1544  0.4236
 2357Sol     OW12451   1.146   2.757   5.094  0.4337 -0.6765 -0.1728
 2357Sol     HW12452   1.194   2.835   5.122 -0.4469 -0.6558  1.3624
 2357Sol     HW12453   1.057   2.771   5.125  0.1648 -2.0969 -0.2533
 2357Sol     MW12454   1.143   2.765   5.100  0.0337 -0.1442  0.2625
 2358Sol     OW12455   3.048   3.049   4.626 -0.0479  0.1971  0.3235
 2358Sol     HW12456   2.992   3.064   4.549 -1.9853 -0.3569  1.6088
 2358Sol     HW12457   3.078   3.136   4.650 -0.9415  0.5838  0.0619
 2358Sol     MW12458   3.046   3.058   4.621  0.0810  0.2009  0.1772
 2359Sol     OW12459   2.827   1.716   6.260 -0.5315  0.2779 -0.0589
 2359Sol     HW12460   2.897   1.751   6.205 -0.0527 -0.4795  0.0651
 2359Sol     HW12461   2.751   1.713   6.202  0.3231 -1.8791 -1.1011
 2359Sol     MW12462   2.826   1.719   6.250 -0.0512  0.0591  0.0876
 2360Sol     OW12463   1.119   0.163   3.358  0.2553  0.1174 -0.0962
 2360Sol     HW12464   1.066   0.203   3.289 -3.3748  0.2231  2.6282
 2360Sol     HW12465   1.106   0.069   3.346  0.7708  0.0870 -0.4207
 2360Sol     MW12466   1.113   0.158   3.351 -0.1475 -0.2874  0.0153
 2361Sol     OW12467   0.530   2.513   6.644 -0.1299 -0.3465  0.0104
 2361Sol     HW12468   0.608   2.459   6.655  0.5067  0.3995 -0.7092
 2361Sol     HW12469   0.458   2.451   6.635  0.6115 -1.0863 -0.9768
 2361Sol     MW12470   0.531   2.503   6.644  0.4026  0.5604  0.7229
 2362Sol     OW12471   0.666   0.215   4.397 -0.0906 -0.1425 -0.5769
 2362Sol     HW12472   0.734   0.267   4.355  0.5266  0.0569  0.6447
 2362Sol     HW12473   0.687   0.220   4.491 -1.0807 -1.0816 -0.3029
 2362Sol     MW12474   0.674   0.220   4.402 -0.7357  0.0340 -0.2722
 2363Sol     OW12475   0.796   3.060   2.241  0.8209  0.8030 -0.6133
 2363Sol     HW12476   0.766   3.053   2.151  2.0789  1.2280 -1.0733
 2363Sol     HW12477   0.877   3.111   2.236  0.5317  1.4528  0.8236
 2363Sol     MW12478   0.801   3.064   2.233  0.2345  0.4887 -0.3977
 2364Sol     OW12479   1.422   1.581   2.993  0.0472 -0.0744  0.2184
 2364Sol     HW12480   1.451   1.492   2.974  0.5004  0.0610  0.2683
 2364Sol     HW12481   1.500   1.635   2.980 -0.5534  0.4930 -1.0974
 2364Sol     MW12482   1.432   1.578   2.990 -0.3982 -1.1995  0.4523
 2365Sol     OW12483   1.575   0.201   7.471  0.2158  0.2419  0.2086
 2365Sol     HW12484   1.503   0.263   7.456  1.0891  1.5282  1.1399
 2365Sol     HW12485   1.570   0.181   7.564  1.2557  0.6026  0.3501
 2365Sol     MW12486   1.568   0.205   7.478 -0.2365  0.6115 -0.1683
 2366Sol     OW12487   0.474   3.257   2.544  0.0554 -0.0049 -0.0358
 2366Sol     HW12488   0.474   3.301   2.459 -1.6999  1.2752  0.5866
 2366Sol     HW12489   0.427   3.175   2.529 -1.7232  0.9584  0.0040
 2366Sol     MW12490   0.469   3.254   2.535  0.5769  0.0135 -0.2063
 2367Sol     OW12491   2.368   2.470   9.701  0.0877  0.0027 -0.5234
 2367Sol     HW12492   2.344   2.397   9.643 -1.2005  0.4771 -0.6149
 2367Sol     HW12493   2.327   2.449   9.785 -0.6779  0.8246 -0.6780
 2367Sol     MW12494   2.362   2.462   9.703 -0.4062  0.6638 -0.4467
 2368Sol     OW12495   1.951   2.280   2.967 -0.7496 -0.3544  0.1718
 2368Sol     HW12496   1.941   2.220   3.041 -2.2915 -1.8192 -1.1416
 2368Sol     HW12497   2.023   2.243   2.916 -1.9314 -1.3605 -0.8259
 2368Sol     MW12498   1.957   2.271   2.969 -0.3862  0.1201 -0.6233
 2369Sol     OW12499   2.081   1.487   1.816 -0.1117 -0.3436  0.0186
 2369Sol     HW12500   2.123   1.554   1.870  1.3399  0.2880 -1.8558
 2369Sol     HW12501   2.152   1.448   1.766 -1.4102 -0.9777 -1.3920
 2369Sol     MW12502   2.091   1.490   1.816 -0.3288 -0.7716  0.1078
 2370Sol     OW12503   1.922   3.293   9.140  0.1503 -0.4771 -0.0920
 2370Sol     HW12504   1.851   3.321   9.198  0.7731 -1.9219  1.3826
 2370Sol     HW12505   2.002   3.323   9.183  0.4759  0.7978 -1.5547
 2370Sol     MW12506   1.923   3.298   9.149 -0.4977  0.5411 -0.0493
 2371Sol     OW12507   2.807   1.361   3.201 -0.0275  0.0543 -0.1471
 2371Sol     HW12508   2.860   1.396   3.129  1.0121  0.4562  0.7893
 2371Sol     HW12509   2.773   1.279   3.168  1.7387 -0.5407 -0.5651
 2371Sol     MW12510   2.809   1.357   3.192  0.1717  0.6226  0.3253
 2372Sol     OW12511   1.427   0.499   9.404  0.0065 -0.3680 -0.3244
 2372Sol     HW12512   1.475   0.422   9.433 -0.6665 -0.5635  0.2646
 2372Sol     HW12513   1.392   0.475   9.318  0.0852 -0.5959 -0.2915
 2372Sol     MW12514   1.428   0.490   9.399  0.3769  0.2786 -0.2472
 2373Sol     OW12515   1.707   0.216   8.899 -0.0067  0.1244 -0.0486
 2373Sol     HW12516   1.720   0.272   8.822  1.5259  1.2066  0.9755
 2373Sol     HW12517   1.738   0.130   8.870 -1.3108  0.0343 -1.2624
 2373Sol     MW12518   1.711   0.213   8.889  0.2630 -0.0954  0.2668
 2374Sol     OW12519   3.153   2.149   4.496 -0.8464 -0.7844  0.1197
 2374Sol     HW12520   3.129   2.065   4.458 -0.7379 -0.4368 -0.7321
 2374Sol     HW12521   3.163   2.132   4.590 -0.9817 -1.6810 -0.0318
 2374Sol     MW12522   3.152   2.140   4.501 -0.3738  0.2132  0.2901
 2375Sol     OW12523   1.009   0.644   3.403  0.2060 -0.0544  0.0146
 2375Sol     HW12524   0.923   0.663   3.367 -0.5462 -0.9213  1.3260
 2375Sol     HW12525   1.057   0.727   3.395 -1.1561  0.7920  0.4206
 2375Sol     MW12526   1.006   0.654   3.399 -0.3509  0.0070  0.0848
 2376Sol     OW12527   2.990   2.887   1.760  0.0310 -0.3146 -0.1652
 2376Sol     HW12528   2.926   2.868   1.829  0.7470  0.6132  0.7582
 2376Sol     HW12529   3.045   2.809   1.756 -0.4492 -0.6580 -0.1952
 2376Sol     MW12530   2.989   2.878   1.766 -0.1499  0.7076  0.4804
 2377Sol     OW12531   2.572   1.366   6.490  0.2310  0.2086  0.1268
 2377Sol     HW12532   2.558   1.275   6.515 -0.1837  0.3698  0.4840
 2377Sol     HW12533   2.663   1.368   6.460 -0.3696 -0.7460 -1.8595
 2377Sol     MW12534   2.579   1.358   6.490 -0.1655 -0.6065  0.1188
 2378Sol     OW12535   2.748   3.001   5.864  0.5369 -0.4912 -0.2141
 2378Sol     HW12536   2.805   2.944   5.813 -0.5027 -0.8538 -0.9790
 2378Sol     HW12537   2.684   2.942   5.904  0.4244 -0.0405  0.2790
 2378Sol     MW12538   2.747   2.991   5.863  1.1547 -0.4573  0.3408
 2379Sol     OW12539   0.613   0.964   7.617  0.1408 -0.0003  0.0530
 2379Sol     HW12540   0.666   0.981   7.695  1.2750 -0.4807 -0.5996
 2379Sol     HW12541   0.555   1.039   7.610  2.2235  1.5884 -0.4504
 2379Sol     MW12542   0.613   0.972   7.623 -1.0425 -0.1653  0.0468
 2380Sol     OW12543   1.719   2.353   9.547  0.1331 -0.2175  0.3527
 2380Sol     HW12544   1.792   2.409   9.521 -2.4177  3.0405  0.0049
 2380Sol     HW12545   1.722   2.352   9.643  1.1642 -0.8821  0.3233
 2380Sol     MW12546   1.726   2.358   9.553 -0.2102  0.5309 -0.6210
 2381Sol     OW12547   0.089   1.027   2.458  0.4339 -0.4064  0.2764
 2381Sol     HW12548   0.053   0.942   2.481  0.4198 -0.7483 -0.9784
 2381Sol     HW12549   0.181   1.023   2.487  0.2654 -0.6149  0.7816
 2381Sol     MW12550   0.094   1.019   2.463 -0.2807 -1.5164 -0.5541
 2382Sol     OW12551   3.091   3.381   1.606 -0.0145  0.3784 -0.2086
 2382Sol     HW12552   3.106   3.286   1.605  0.3454  0.4021  1.8698
 2382Sol     HW12553   3.086   3.404   1.698  1.2779  2.6141 -0.6604
 2382Sol     MW12554   3.092   3.374   1.614  0.4214 -0.1651  0.2716
 2383Sol     OW12555   0.986   0.566   4.941 -0.1828 -0.4903  0.2767
 2383Sol     HW12556   0.911   0.622   4.919 -0.3803 -0.9680 -0.2887
 2383Sol     HW12557   1.061   0.625   4.943 -0.4560 -0.1354  0.1113
 2383Sol     MW12558   0.986   0.576   4.940  0.1845  0.7820 -0.0241
 2384Sol     OW12559   1.066   0.675   5.613 -0.5056  0.5373 -0.4671
 2384Sol     HW12560   0.986   0.694   5.662 -0.8561  0.3526 -0.9606
 2384Sol     HW12561   1.134   0.663   5.680 -0.6950  1.6091 -0.0878
 2384Sol     MW12562   1.065   0.675   5.624 -0.1001 -1.3203  0.7492
 2385Sol     OW12563   0.046   1.222   4.683 -0.3557 -0.3670 -0.4880
 2385Sol     HW12564   0.017   1.152   4.624 -1.3576 -0.7322  0.4090
 2385Sol     HW12565   0.114   1.268   4.634  0.2086 -1.8774 -1.1462
 2385Sol     MW12566   0.049   1.220   4.673 -0.6035  0.3242 -0.1845
 2386Sol     OW12567   0.402   3.283   4.114  0.3983 -0.0427 -0.1974
 2386Sol     HW12568   0.428   3.191   4.123 -0.5838 -0.2616  0.5665
 2386Sol     HW12569   0.365   3.289   4.026 -0.6269 -0.6671  0.1825
 2386Sol     MW12570   0.401   3.275   4.107 -0.1985 -0.3951 -0.1239
 2387Sol     OW12571   0.936   2.975   6.278  0.0507 -0.2805  0.2004
 2387Sol     HW12572   0.993   3.051   6.292 -1.0465  0.8838 -1.5522
 2387Sol     HW12573   0.957   2.917   6.351  1.7161  1.2034  0.9570
 2387Sol     MW12574   0.943   2.977   6.286 -0.7140  0.3078  0.3131
 2388Sol     OW12575   2.359   2.630   7.845  0.0512  0.4011  0.3999
 2388Sol     HW12576   2.323   2.715   7.871 -0.9673 -0.5489  2.1645
 2388Sol     HW12577   2.296   2.597   7.780  0.2535  0.8341 -0.0182
 2388Sol     MW12578   2.350   2.635   7.842 -0.1673  0.0953  0.8768
 2389Sol     OW12579   2.817   0.637   7.033  0.0334 -0.1943  0.8076
 2389Sol     HW12580   2.803   0.545   7.051  0.2488 -0.4395 -0.2424
 2389Sol     HW12581   2.781   0.650   6.945 -0.3326  0.7994  1.0963
 2389Sol     MW12582   2.813   0.630   7.026  0.3703  0.0863  0.2260
 2390Sol     OW12583   0.028   1.604   6.313  0.0729 -0.4987  0.0074
 2390Sol     HW12584   0.100   1.545   6.336 -0.3639 -1.2884 -0.6128
 2390Sol     HW12585   0.061   1.655   6.239  0.5944  0.3199  0.8004
 2390Sol     MW12586   0.037   1.603   6.309  0.0195 -0.3092 -0.1527
 2391Sol     OW12587   0.508   1.339   5.782 -0.1954  1.1076  0.0811
 2391Sol     HW12588   0.494   1.330   5.876  0.3642  1.6236  0.2095
 2391Sol     HW12589   0.545   1.427   5.771 -1.2576  1.4733 -0.7224
 2391Sol     MW12590   0.510   1.346   5.789 -0.7159 -0.4595  0.3221
 2392Sol     OW12591   2.267   1.558   6.927 -0.1481  0.1376 -0.1982
 2392Sol     HW12592   2.308   1.547   6.842  0.5957 -1.3517  0.3257
 2392Sol     HW12593   2.337   1.541   6.990 -1.0583 -0.3635  0.7074
 2392Sol     MW12594   2.277   1.555   6.925  0.2918  0.5946 -0.1144
 2393Sol     OW12595   1.529   2.378   5.146  0.5426 -0.0121  0.5931
 2393Sol     HW12596   1.443   2.420   5.149 -0.4165 -1.9414  0.8767
 2393Sol     HW12597   1.544   2.346   5.235  1.4987  0.1852  0.5109
 2393Sol     MW12598   1.522   2.379   5.154 -0.8416  0.5865 -0.4248
 2394Sol     OW12599   1.470   1.119   5.375  0.6282 -0.1851  0.0271
 2394Sol     HW12600   1.459   1.033   5.336  2.5006 -0.5412  0.2380
 2394Sol     HW12601   1.468   1.103   5.469  0.5070  0.0576  0.0652
 2394Sol     MW12602   1.469   1.110   5.380 -0.3032 -0.9277  0.2285
 2395Sol     OW12603   1.861   2.113   6.763  0.1272  0.5759  0.4307
 2395Sol     HW12604   1.852   2.048   6.694 -0.0362  1.2773 -0.2172
 2395Sol     HW12605   1.930   2.079   6.820 -1.5668 -1.2996  1.4073
 2395Sol     MW12606   1.867   2.104   6.762  0.3280 -0.5329 -0.0159
 2396Sol     OW12607   2.058   0.007   7.738 -0.0259 -0.6619  0.7983
 2396Sol     HW12608   2.046   0.089   7.785  1.1550  0.5244 -0.8978
 2396Sol     HW12609   2.120  -0.043   7.792  0.3250  0.1349  1.1324
 2396Sol     MW12610   2.063   0.010   7.747  0.2325 -0.6689  0.4269
 2397Sol     OW12611   1.186   2.887   8.943 -0.0868 -0.6466  0.2222
 2397Sol     HW12612   1.158   2.836   9.019 -0.3119  0.8087  1.1238
 2397Sol     HW12613   1.275   2.855   8.925  0.0834 -0.7735  1.2790
 2397Sol     MW12614   1.192   2.879   8.948 -0.2725 -0.4872 -0.5601
 2398Sol     OW12615   2.260   2.337   9.442  0.3857 -0.2088  0.3991
 2398Sol     HW12616   2.271   2.369   9.352 -1.2150  0.2988  0.3539
 2398Sol     HW12617   2.276   2.243   9.436 -0.4093 -0.2981 -0.5638
 2398Sol     MW12618   2.262   2.332   9.433  0.9053 -0.4775 -0.7127
 2399Sol     OW12619   2.199   3.444   3.944 -0.7023 -0.0239 -0.7733
 2399Sol     HW12620   2.288   3.453   3.978 -0.6935  1.1368 -1.0757
 2399Sol     HW12621   2.145   3.492   4.007 -1.3866 -2.3268  0.4704
 2399Sol     MW12622   2.202   3.449   3.953  0.6158 -0.2373  0.1573
 2400Sol     OW12623   2.690   3.090   1.853  0.1579 -0.3390 -0.1104
 2400Sol     HW12624   2.633   3.127   1.921 -0.1211  0.7683 -0.9293
 2400Sol     HW12625   2.742   3.164   1.822  0.7863 -0.9808 -0.6047
 2400Sol     MW12626   2.689   3.100   1.856  0.5545  0.8666 -0.3837
 2401Sol     OW12627   2.576   1.514   5.315 -0.3781  0.4605  0.6305
 2401Sol     HW12628   2.607   1.489   5.402 -0.7455 -1.8794  0.1256
 2401Sol     HW12629   2.533   1.435   5.281 -1.2485  1.6859 -1.2195
 2401Sol     MW12630   2.575   1.505   5.320 -0.1489 -0.0941 -0.0747
 2402Sol     OW12631   0.037   1.158   7.631  0.1275  0.0729  0.1981
 2402Sol     HW12632   0.076   1.175   7.716 -0.4519  1.0676  0.2670
 2402Sol     HW12633  -0.035   1.220   7.624 -0.2036 -0.4058 -0.7640
 2402Sol     MW12634   0.034   1.165   7.638  0.2156  0.2746  0.1706
 2403Sol     OW12635   1.130   2.458   3.631 -0.6883 -0.7160  0.2516
 2403Sol     HW12636   1.062   2.393   3.649 -3.1577  1.5340 -0.7007
 2403Sol     HW12637   1.107   2.495   3.546  1.6436  0.2318 -0.0169
 2403Sol     MW12638   1.122   2.455   3.625 -0.7976 -0.3994 -0.1168
 2404Sol     OW12639   2.844   0.075   7.936 -0.0509  0.6260 -0.4269
 2404Sol     HW12640   2.886   0.107   8.016  2.0645 -0.4912 -1.0713
 2404Sol     HW12641   2.825   0.154   7.886  0.8763  1.1658  0.0608
 2404Sol     MW12642   2.846   0.085   7.939  0.7042  0.4321 -1.1276
 2405Sol     OW12643   0.163   2.162   6.791 -0.2422 -0.4634 -0.6815
 2405Sol     HW12644   0.073   2.193   6.804  0.0314 -0.0698  0.3845
 2405Sol     HW12645   0.161   2.070   6.818 -0.5458 -0.7302 -1.6186
 2405Sol     MW12646   0.155   2.157   6.795 -0.7873  0.0930  0.0800
 2406Sol     OW12647   1.656   1.636   8.238 -0.2610 -0.8140 -0.1207
 2406Sol     HW12648   1.710   1.696   8.289 -1.7422 -0.6449  1.2801
 2406Sol     HW12649   1.719   1.586   8.186  1.4034 -1.7501  2.6655
 2406Sol     MW12650   1.666   1.637   8.238 -0.5602  0.2842  0.0971
 2407Sol     OW12651   1.979   0.815   7.556  0.1884  0.5800 -0.0526
 2407Sol     HW12652   2.036   0.891   7.545 -1.5187  1.9722  0.4158
 2407Sol     HW12653   1.922   0.816   7.479 -0.0111 -0.0616  0.0817
 2407Sol     MW12654   1.979   0.822   7.548  0.6960  0.2620 -0.8258
 2408Sol     OW12655   3.130   3.027   2.881  0.4368 -0.3227  0.4211
 2408Sol     HW12656   3.036   3.048   2.876  0.8749  1.4840 -1.0403
 2408Sol     HW12657   3.169   3.076   2.808  2.6288 -0.4490  1.4722
 2408Sol     MW12658   3.125   3.033   2.874  0.1371 -0.6082 -0.1030
 2409Sol     OW12659   0.630   3.417   4.206  0.1687  1.2328  0.4105
 2409Sol     HW12660   0.552   3.368   4.177  0.4515  0.5428  0.7969
 2409Sol     HW12661   0.595   3.497   4.245 -0.3160  1.2144  0.0250
 2409Sol     MW12662   0.620   3.420   4.207  0.2672 -0.1149  0.1666
 2410Sol     OW12663   0.851   1.547   3.008 -0.1237 -0.1487  0.0656
 2410Sol     HW12664   0.861   1.528   2.915  1.8256  0.4567  0.1349
 2410Sol     HW12665   0.841   1.461   3.050 -0.1994 -0.4677 -0.6092
 2410Sol     MW12666   0.851   1.538   3.004  0.2565 -0.2715  0.0515
 2411Sol     OW12667   2.861   0.555   2.190  0.2873  0.4085  0.2929
 2411Sol     HW12668   2.924   0.621   2.160 -0.0056 -0.0268 -1.3311
 2411Sol     HW12669   2.835   0.585   2.277  3.3143  0.1919  1.3329
 2411Sol     MW12670   2.864   0.564   2.195  0.5762  0.1343 -0.3375
 2412Sol     OW12671   1.460   0.310   5.279 -0.4862 -0.4660 -0.9501
 2412Sol     HW12672   1.422   0.367   5.346  0.1903  0.4797 -1.3704
 2412Sol     HW12673   1.423   0.223   5.298 -0.1957 -0.2320  0.7266
 2412Sol     MW12674   1.453   0.307   5.287  0.5758  0.0998  0.0871
 2413Sol     OW12675   0.251   0.022   4.256 -0.2418 -0.0550 -0.0506
 2413Sol     HW12676   0.313   0.090   4.230 -0.1330 -0.0155  0.3129
 2413Sol     HW12677   0.282  -0.057   4.211 -0.4437  0.1634 -0.5768
 2413Sol     MW12678   0.260   0.021   4.250  0.5681  0.0713  0.0991
 2414Sol     OW12679   2.096   0.604   2.724  0.1914  0.0983  0.0592
 2414Sol     HW12680   2.178   0.576   2.683  1.3112  1.8273  1.0430
 2414Sol     HW12681   2.069   0.529   2.777  0.7511 -0.7410 -0.8251
 2414Sol     MW12682   2.101   0.594   2.725  0.0819 -0.3014 -1.5259
 2415Sol     OW12683   1.882   0.448   7.266  0.4648  0.4858 -0.6016
 2415Sol     HW12684   1.832   0.452   7.185  1.0089  1.0456 -0.9193
 2415Sol     HW12685   1.817   0.451   7.336 -0.0331 -0.4467 -1.0213
 2415Sol     MW12686   1.872   0.448   7.265  0.4307 -0.2531 -0.5248
 2416Sol     OW12687   2.069   2.827   5.849 -0.1180  0.1812 -0.6781
 2416Sol     HW12688   1.975   2.830   5.868 -0.0617 -0.6880 -0.2375
 2416Sol     HW12689   2.109   2.794   5.929  0.5222  0.1518 -1.0066
 2416Sol     MW12690   2.064   2.824   5.858  0.7247 -0.1609 -0.3722
 2417Sol     OW12691   1.131   2.910   2.031  0.1004 -0.3231  0.2060
 2417Sol     HW12692   1.081   2.899   1.950 -0.7146  0.9878  0.5162
 2417Sol     HW12693   1.149   3.004   2.035  1.4200 -0.5817  0.8022
 2417Sol     MW12694   1.128   2.918   2.024  1.0260  0.1545  0.1533
 2418Sol     OW12695   1.671   1.368   9.290 -0.3650  0.2160  0.1626
 2418Sol     HW12696   1.763   1.346   9.300 -0.3288 -0.2700 -1.1193
 2418Sol     HW12697   1.625   1.302   9.342 -0.1252 -1.3805 -1.5815
 2418Sol     MW12698   1.675   1.360   9.295 -0.1578 -0.6289 -0.1253
 2419Sol     OW12699   0.974   2.542   1.918  0.1069  0.0311 -0.0087
 2419Sol     HW12700   0.973   2.547   1.822 -0.4292 -0.1737 -0.0134
 2419Sol     HW12701   0.893   2.585   1.945  0.9660  1.4180  0.4209
 2419Sol     MW12702   0.967   2.547   1.912 -0.2147 -0.0952  0.6020
 2420Sol     OW12703   1.515   3.001   3.732 -0.6248 -0.0647 -0.1418
 2420Sol     HW12704   1.532   2.907   3.733 -1.0390 -0.1369  1.7873
 2420Sol     HW12705   1.441   3.012   3.672 -1.6897 -1.1567  0.9640
 2420Sol     MW12706   1.510   2.993   3.726 -1.2814 -0.0142 -0.1150
 2421Sol     OW12707   1.669   2.175   2.491 -0.2879  0.2779 -0.4486
 2421Sol     HW12708   1.628   2.260   2.475 -1.6574 -0.4819 -1.0100
 2421Sol     HW12709   1.642   2.152   2.580 -2.4940 -0.9893 -1.4127
 2421Sol     MW12710   1.663   2.181   2.497  1.0782  0.3004  0.2269
 2422Sol     OW12711   2.423   0.369   5.911  0.4183 -0.1873  0.3841
 2422Sol     HW12712   2.423   0.365   5.816  2.6928  2.7817  0.1951
 2422Sol     HW12713   2.481   0.442   5.932 -1.6532  0.5297  3.9924
 2422Sol     MW12714   2.428   0.375   5.905  0.9607  0.2523 -0.1719
 2423Sol     OW12715   1.291   0.610   8.942 -0.2899  0.7483 -1.1495
 2423Sol     HW12716   1.320   0.697   8.969  0.3795  0.7227 -1.7721
 2423Sol     HW12717   1.336   0.595   8.859  1.5333 -1.2108  0.1368
 2423Sol     MW12718   1.297   0.616   8.937  0.3092  0.0704 -0.1918
 2424Sol     OW12719   1.216   0.006   8.003  0.2142 -0.5452  0.4186
 2424Sol     HW12720   1.126   0.040   8.006  0.0215 -1.0903  0.9134
 2424Sol     HW12721   1.217  -0.064   8.068  0.5870 -1.5525 -0.6562
 2424Sol     MW12722   1.208   0.003   8.009  0.0976 -0.4297  0.5326
 2425Sol     OW12723   0.657   2.062   7.775 -0.4116 -0.2244 -0.1064
 2425Sol     HW12724   0.737   2.018   7.801  0.1920 -1.0226 -3.1124
 2425Sol     HW12725   0.587   1.998   7.790 -0.1418 -0.4730  0.0772
 2425Sol     MW12726   0.658   2.053   7.778 -0.7682  0.1090 -1.1767
 2426Sol     OW12727   1.697   0.016   4.029  0.7831 -0.6287 -0.3370
 2426Sol     HW12728   1.677  -0.021   4.115  0.3260  2.4304  0.9440
 2426Sol     HW12729   1.617   0.060   4.003  0.6988 -2.1018 -2.7001
 2426Sol     MW12730   1.688   0.017   4.034  0.0257 -0.2414 -0.4017
 2427Sol     OW12731   1.365   1.091   9.055 -0.6727 -0.6976 -0.9229
 2427Sol     HW12732   1.294   1.110   8.994 -1.3321 -0.2626 -0.0398
 2427Sol     HW12733   1.412   1.174   9.064  0.1581 -1.0657 -1.7559
 2427Sol     MW12734   1.363   1.100   9.050  0.4196  0.5238 -0.5368
 2428Sol     OW12735   0.099   2.409   3.950  0.3714  0.6395  0.1964
 2428Sol     HW12736   0.143   2.483   3.991  0.8248  3.0221 -4.2806
 2428Sol     HW12737   0.028   2.448   3.900 -1.0663 -2.2514 -0.1569
 2428Sol     MW12738   0.096   2.419   3.949 -0.6206  0.0062 -0.9850
 2429Sol     OW12739   0.546   2.358   8.087  0.4360  0.0948  0.2654
 2429Sol     HW12740   0.601   2.282   8.105 -1.1084 -1.0091  0.3653
 2429Sol     HW12741   0.589   2.401   8.013  1.3601 -0.8174  0.2510
 2429Sol     MW12742   0.555   2.355   8.082 -0.5005  0.0315  0.5034
 2430Sol     OW12743   1.890   0.673   7.900 -0.2168  0.5156  0.3564
 2430Sol     HW12744   1.854   0.584   7.893  2.1935 -0.3354 -2.2949
 2430Sol     HW12745   1.826   0.728   7.856 -1.7179  0.0804  1.9846
 2430Sol     MW12746   1.881   0.670   7.895  0.4082  1.1693 -0.4587
 2431Sol     OW12747   2.009   0.601   5.390  1.0790  0.2131  0.4477
 2431Sol     HW12748   2.082   0.588   5.328  1.1669 -1.6449  0.9197
 2431Sol     HW12749   1.943   0.648   5.339  1.6216 -0.2693 -0.7237
 2431Sol     MW12750   2.010   0.604   5.380 -0.1375 -0.3850 -1.0003
 2432Sol     OW12751   2.495   2.315   8.222  0.0888 -0.3323 -0.2076
 2432Sol     HW12752   2.447   2.389   8.186 -0.9918 -0.3090  1.2436
 2432Sol     HW12753   2.576   2.353   8.256 -1.3960  0.5764  2.4686
 2432Sol     MW12754   2.498   2.325   8.222  0.9496 -0.2329  0.3103
 2433Sol     OW12755   1.046   1.741   8.774 -0.2473 -0.5102  0.0314
 2433Sol     HW12756   0.992   1.809   8.734  0.9550  1.1003  1.0724
 2433Sol     HW12757   1.074   1.779   8.857 -2.3313 -3.6053  2.2500
 2433Sol     MW12758   1.044   1.750   8.778  0.5062 -0.3968  1.0339
 2434Sol     OW12759   0.959   2.161   6.947  0.1713 -1.0048 -0.2143
 2434Sol     HW12760   0.900   2.206   7.008 -0.6173 -2.1152 -0.1545
 2434Sol     HW12761   1.044   2.162   6.991 -0.2756 -1.3202  0.6576
 2434Sol     MW12762   0.962   2.165   6.956  0.2145  0.2737 -0.2836
 2435Sol     OW12763   3.292   1.827   5.422  0.1008  0.2539 -0.1261
 2435Sol     HW12764   3.348   1.904   5.415  0.2281  0.2719  0.9750
 2435Sol     HW12765   3.236   1.831   5.345  1.3008  0.4901 -1.0142
 2435Sol     MW12766   3.292   1.834   5.415 -0.2084  0.0449 -0.6675
 2436Sol     OW12767   0.199   0.134   1.735 -0.2584  0.3426 -0.3251
 2436Sol     HW12768   0.201   0.216   1.783  0.4250  0.3014 -0.2891
 2436Sol     HW12769   0.119   0.139   1.682 -0.8970  0.4772  0.6512
 2436Sol     MW12770   0.192   0.142   1.734 -0.2849  0.2660 -0.5356
 2437Sol     OW12771   1.450   0.217   8.352  0.0041 -0.1617 -0.0068
 2437Sol     HW12772   1.471   0.183   8.265 -0.0918  0.8625 -0.4391
 2437Sol     HW12773   1.406   0.300   8.335  0.0895  0.0985  1.0230
 2437Sol     MW12774   1.448   0.221   8.343 -0.9325 -0.5796  0.2732
 2438Sol     OW12775   1.645   1.707   4.438  0.0509  0.2920  0.2891
 2438Sol     HW12776   1.637   1.757   4.519 -0.0256  1.4282 -0.3957
 2438Sol     HW12777   1.689   1.768   4.378 -1.1266 -0.0353 -0.9287
 2438Sol     MW12778   1.648   1.717   4.440 -1.1432 -0.0446  1.7264
 2439Sol     OW12779   2.197   0.457   3.019  0.5829 -0.2925 -0.5464
 2439Sol     HW12780   2.135   0.426   2.953 -0.8629 -0.7683  0.9760
 2439Sol     HW12781   2.143   0.506   3.081  1.6679 -0.9664  0.9682
 2439Sol     MW12782   2.186   0.458   3.019 -0.4657 -0.1141 -0.4848
 2440Sol     OW12783   1.608   2.921   4.406 -0.2060  0.8457  0.0489
 2440Sol     HW12784   1.685   2.958   4.363  0.0824  1.1681  0.8233
 2440Sol     HW12785   1.541   2.989   4.398 -0.0718  1.0129  0.3377
 2440Sol     MW12786   1.609   2.930   4.402  0.3553  0.7391 -0.1699
 2441Sol     OW12787   0.642   3.370   5.366 -0.0866  0.4367 -0.0931
 2441Sol     HW12788   0.673   3.428   5.436  0.5093  0.2920 -0.2333
 2441Sol     HW12789   0.698   3.389   5.292  1.7266 -1.9979  0.5780
 2441Sol     MW12790   0.650   3.377   5.366  0.3582 -0.1200  0.5131
 2442Sol     OW12791   2.531   0.348   9.568 -0.5968 -0.0278 -0.2188
 2442Sol     HW12792   2.539   0.298   9.649 -0.1996  1.5680  0.7615
 2442Sol     HW12793   2.440   0.337   9.541 -1.3116  1.1835  1.6320
 2442Sol     MW12794   2.524   0.343   9.573  0.0907 -0.2830  0.6138
 2443Sol     OW12795   2.290   2.318   6.643 -0.2326  0.3102  0.4367
 2443Sol     HW12796   2.336   2.261   6.582 -0.6815  0.4260 -0.0201
 2443Sol     HW12797   2.236   2.374   6.587 -2.5203 -1.2177  1.0541
 2443Sol     MW12798   2.289   2.318   6.633  0.2247 -0.5165 -0.3668
 2444Sol     OW12799   2.518   2.081   1.690  0.5094 -0.5452  0.0945
 2444Sol     HW12800   2.607   2.111   1.676  1.1841 -2.9108 -0.8097
 2444Sol     HW12801   2.525   2.016   1.760 -0.7530  0.3543  1.1082
 2444Sol     MW12802   2.526   2.078   1.695 -0.3507 -0.0642  0.8818
 2445Sol     OW12803   0.395   2.322   1.473  0.5401 -0.1347  0.5510
 2445Sol     HW12804   0.432   2.312   1.385  0.6203  1.9873  0.3214
 2445Sol     HW12805   0.300   2.329   1.458  0.1365 -3.5670  0.9825
 2445Sol     MW12806   0.390   2.322   1.464 -1.0942 -1.2140 -0.2677
 2446Sol     OW12807   1.711   2.305   9.851 -0.5478  0.1654 -0.1393
 2446Sol     HW12808   1.751   2.220   9.833 -0.9081  0.1792 -1.0084
 2446Sol     HW12809   1.779   2.353   9.900  0.5573  0.2346 -1.6970
 2446Sol     MW12810   1.721   2.302   9.854  0.1266 -0.7929  0.2733
 2447Sol     OW12811   0.299   0.286   4.632  0.2480  0.1445  0.5779
 2447Sol     HW12812   0.248   0.212   4.599 -0.9427 -0.0727  2.7788
 2447Sol     HW12813   0.361   0.247   4.694  1.7836  0.6379 -0.6179
 2447Sol     MW12814   0.300   0.276   4.635 -0.4443 -0.2049 -0.5924
 2448Sol     OW12815   0.238   2.036   5.212 -0.0063  0.4139 -0.5934
 2448Sol     HW12816   0.231   1.995   5.126  0.3926  0.9753 -0.9002
 2448Sol     HW12817   0.289   2.115   5.197 -0.1351  0.6423  0.1205
 2448Sol     MW12818   0.242   2.040   5.203 -0.5802  0.2646  1.2550
 2449Sol     OW12819   1.528   2.392   5.739  0.0400 -0.0074 -0.0300
 2449Sol     HW12820   1.491   2.438   5.813  2.5797 -0.3843  1.5567
 2449Sol     HW12821   1.620   2.418   5.738  1.1587 -3.5923 -0.1380
 2449Sol     MW12822   1.533   2.398   5.745 -0.0694 -0.4727 -0.1056
 2450Sol     OW12823   3.168   0.776   9.465  0.3929 -0.1551  0.2466
 2450Sol     HW12824   3.191   0.712   9.532  0.5423  1.0038  1.3325
 2450Sol     HW12825   3.186   0.861   9.506 -0.8852  0.6155 -0.7488
 2450Sol     MW12826   3.172   0.778   9.474  0.6056  1.0185  0.4467
 2451Sol     OW12827   1.982   0.846   4.772  0.0061  0.1611 -0.0600
 2451Sol     HW12828   1.994   0.920   4.712 -1.2106  1.3951  1.2041
 2451Sol     HW12829   1.914   0.793   4.731 -0.6822  0.8968  0.1195
 2451Sol     MW12830   1.977   0.848   4.763 -0.0801 -0.0482 -0.0928
 2452Sol     OW12831   1.807   0.652   5.625  0.5004  0.8980 -0.2413
 2452Sol     HW12832   1.883   0.624   5.675 -1.7862 -1.2780  2.1351
 2452Sol     HW12833   1.783   0.576   5.572 -0.6367  1.2169 -0.2039
 2452Sol     MW12834   1.812   0.643   5.624  0.0852  0.2951  0.1626
 2453Sol     OW12835   1.052   1.498   6.368 -0.1477 -0.3751 -0.5399
 2453Sol     HW12836   0.989   1.426   6.369  0.3349 -0.8012 -0.0081
 2453Sol     HW12837   1.014   1.564   6.427  0.1742 -0.8717  0.2299
 2453Sol     MW12838   1.043   1.498   6.373 -0.0639  0.6147  0.4530
 2454Sol     OW12839   0.109   3.261   2.237  0.0436 -0.1720 -0.5203
 2454Sol     HW12840   0.119   3.311   2.318 -0.9047 -1.1495  0.2073
 2454Sol     HW12841   0.143   3.319   2.169  0.5566  0.7822  0.5326
 2454Sol     MW12842   0.113   3.271   2.238 -0.8122 -0.2164 -0.1470
 2455Sol     OW12843   0.265   1.874   9.077  0.3495 -0.0011 -0.2998
 2455Sol     HW12844   0.169   1.880   9.080  0.4126  0.6027  0.9741
 2455Sol     HW12845   0.289   1.917   8.995 -0.4442  0.2236 -0.4242
 2455Sol     MW12846   0.259   1.878   9.070 -1.3581 -0.1069  0.0611
 2456Sol     OW12847   3.170   0.096   7.711 -0.3450 -0.0496 -0.2460
 2456Sol     HW12848   3.259   0.071   7.737 -0.5872 -1.2738 -0.5763
 2456Sol     HW12849   3.159   0.184   7.747  0.4062 -0.5303  1.1821
 2456Sol     MW12850   3.177   0.102   7.716  0.0001  0.7493 -0.3403
 2457Sol     OW12851   0.301   0.069   8.094 -0.0712 -0.0554 -0.2598
 2457Sol     HW12852   0.384   0.064   8.141  0.1459  1.7768 -0.3850
 2457Sol     HW12853   0.255  -0.011   8.117  1.4955 -0.8337  0.2554
 2457Sol     MW12854   0.304   0.062   8.100 -0.2547 -0.3575  0.6324
 2458Sol     OW12855   2.383   1.473   7.864 -0.0911  0.3638  0.4290
 2458Sol     HW12856   2.441   1.545   7.888  0.9616  0.1018 -1.2872
 2458Sol     HW12857   2.417   1.441   7.780 -1.2482 -1.3741  0.5969
 2458Sol     MW12858   2.391   1.477   7.859  0.0202  0.6344  0.3656
 2459Sol     OW12859   0.377   0.886   1.965 -0.2549  0.5388 -0.8312
 2459Sol     HW12860   0.391   0.824   2.037 -0.8840  2.2766  0.8306
 2459Sol     HW12861   0.460   0.933   1.957  0.0535 -0.1498 -1.7476
 2459Sol     MW12862   0.386   0.884   1.971 -0.4977  0.5176  0.3519
 2460Sol     OW12863   3.178   2.198   5.503 -0.1949  0.7855 -0.0470
 2460Sol     HW12864   3.134   2.256   5.566 -2.2998  0.2871 -1.0337
 2460Sol     HW12865   3.134   2.114   5.514 -1.0445  0.8639 -2.6519
 2460Sol     MW12866   3.170   2.196   5.510  0.1504  0.2599 -0.8117
 2461Sol     OW12867   1.044   0.239   1.650  0.3175 -0.1298 -0.3119
 2461Sol     HW12868   1.030   0.301   1.721 -2.6877 -0.6669 -0.3755
 2461Sol     HW12869   0.966   0.185   1.649  0.7897 -0.8716 -3.3038
 2461Sol     MW12870   1.036   0.240   1.656  0.0680  0.0013 -0.0066
 2462Sol     OW12871   1.659   3.143   2.696 -0.0325  0.3860 -0.4966
 2462Sol     HW12872   1.567   3.124   2.675  0.0771 -0.4723 -0.2194
 2462Sol     HW12873   1.683   3.076   2.760  1.2633 -0.3950 -1.7829
 2462Sol     MW12874   1.653   3.135   2.700 -0.3399  0.6129 -0.4346
 2463Sol     OW12875   1.100   0.736   9.331  0.1992  0.3082  0.2344
 2463Sol     HW12876   1.153   0.697   9.401 -0.7641 -0.5311  0.5111
 2463Sol     HW12877   1.158   0.802   9.291  2.6308 -2.7675 -1.5752
 2463Sol     MW12878   1.110   0.738   9.334 -0.9096  0.2995 -0.2983
 2464Sol     OW12879   2.378   2.762   8.246 -0.5157 -0.4203 -1.0531
 2464Sol     HW12880   2.407   2.833   8.188 -0.4009  0.1778 -0.2686
 2464Sol     HW12881   2.450   2.752   8.309 -1.4530  0.2340  0.1439
 2464Sol     MW12882   2.387   2.768   8.246 -0.2717 -0.0094  0.2878
 2465Sol     OW12883   1.074   0.754   4.266 -0.4635 -0.5953 -0.0658
 2465Sol     HW12884   1.135   0.684   4.247  0.2385 -0.2980  1.0433
 2465Sol     HW12885   1.076   0.810   4.188  1.9145  0.2962  0.6146
 2465Sol     MW12886   1.079   0.753   4.257  0.0876 -0.3618 -0.7328
 2466Sol     OW12887   2.687   0.232   3.744 -0.8504 -0.1499  0.3132
 2466Sol     HW12888   2.649   0.155   3.704 -2.1273  0.7097 -0.1702
 2466Sol     HW12889   2.782   0.217   3.742 -1.0114 -0.9599 -1.2499
 2466Sol     MW12890   2.692   0.224   3.740 -0.8078 -0.4140  0.8060
 2467Sol     OW12891   1.506   3.337   6.622  0.1503  0.4473  0.3365
 2467Sol     HW12892   1.500   3.242   6.612  1.1830  0.4029  0.0643
 2467Sol     HW12893   1.448   3.357   6.696 -0.7576 -0.2785 -0.1663
 2467Sol     MW12894   1.500   3.330   6.628  0.0347 -0.4000 -0.9844
 2468Sol     OW12895   1.941   1.530   3.370  0.1293  0.5391 -0.0788
 2468Sol     HW12896   1.983   1.601   3.418 -0.0908 -0.1681  1.1727
 2468Sol     HW12897   1.965   1.451   3.418 -1.9923  0.0429  0.2134
 2468Sol     MW12898   1.947   1.529   3.379 -0.5421  0.1526 -0.1532
 2469Sol     OW12899   0.272   0.600   5.814  0.1579  0.2428 -0.0922
 2469Sol     HW12900   0.321   0.518   5.810  0.0173  0.0241  2.1097
 2469Sol     HW12901   0.187   0.576   5.850  0.5418  1.5056  1.7385
 2469Sol     MW12902   0.269   0.590   5.817 -0.7353  0.6383 -0.0592
 2470Sol     OW12903   1.151   1.434   3.463 -0.8354  0.0058 -0.6865
 2470Sol     HW12904   1.222   1.477   3.511 -1.2081 -0.3272  0.1865
 2470Sol     HW12905   1.191   1.354   3.429 -0.8517 -0.3151  0.0319
 2470Sol     MW12906   1.161   1.430   3.464  0.4523  0.0831 -0.3574
 2471Sol     OW12907   1.644   2.485   6.484  0.9415 -0.3636  0.3526
 2471Sol     HW12908   1.739   2.489   6.476  1.1125 -0.8650  1.9175
 2471Sol     HW12909   1.628   2.413   6.546 -0.3945  0.5447  1.0977
 2471Sol     MW12910   1.651   2.479   6.489 -1.0994  0.1779  0.2181
 2472Sol     OW12911   0.399   0.729   2.195  0.6899  0.6534  0.7502
 2472Sol     HW12912   0.307   0.742   2.219  0.4202  1.4714 -0.6773
 2472Sol     HW12913   0.448   0.769   2.267 -0.0582  0.0262  1.6275
 2472Sol     MW12914   0.395   0.734   2.204 -0.9612 -0.9035  0.0313
 2473Sol     OW12915   1.134   2.099   3.166 -0.3248 -0.1410 -0.0333
 2473Sol     HW12916   1.139   2.024   3.107  0.5453 -0.3074  0.2404
 2473Sol     HW12917   1.203   2.084   3.230 -0.7403  0.4385  0.5622
 2473Sol     MW12918   1.140   2.091   3.166  0.2053  0.0635 -0.2319
 2474Sol     OW12919   3.109   2.882   8.870  0.0271  0.0473  0.6176
 2474Sol     HW12920   3.033   2.851   8.920 -1.0966  0.1197 -1.0112
 2474Sol     HW12921   3.099   2.843   8.783  1.8928  0.0222  0.3946
 2474Sol     MW12922   3.101   2.876   8.867  0.2152  0.4286  0.2799
 2475Sol     OW12923   0.734   2.446   6.249 -0.4616 -0.3547 -0.2289
 2475Sol     HW12924   0.724   2.482   6.161  1.1870  2.0649  0.5320
 2475Sol     HW12925   0.697   2.512   6.307 -0.3309 -1.3283  0.9960
 2475Sol     MW12926   0.730   2.455   6.246  1.0821 -1.3575  1.0160
 2476Sol     OW12927   0.112   0.282   9.414  0.0826 -0.3171  0.4577
 2476Sol     HW12928   0.147   0.369   9.433  1.4318 -0.7136 -0.1719
 2476Sol     HW12929   0.179   0.222   9.444 -0.2467 -1.1084 -0.3712
 2476Sol     MW12930   0.121   0.285   9.419  0.1360 -0.2660  1.5123
 2477Sol     OW12931   2.979   0.824   6.417  0.3795  0.4929 -0.1951
 2477Sol     HW12932   2.914   0.887   6.447 -0.9962 -0.5551 -0.9006
 2477Sol     HW12933   3.007   0.856   6.331 -1.4486 -0.6229 -1.2484
 2477Sol     MW12934   2.976   0.832   6.412 -0.1504  0.6058  0.3170
 2478Sol     OW12935   3.153   0.785   3.444 -0.9129  0.1596  0.0816
 2478Sol     HW12936   3.059   0.798   3.434 -0.6978 -0.0667 -2.3567
 2478Sol     HW12937   3.162   0.696   3.479 -1.6171  0.5479  1.3012
 2478Sol     MW12938   3.146   0.779   3.446 -0.7272 -0.1808  0.4429
 2479Sol     OW12939   3.201   1.024   2.277  0.7115 -0.2760  0.1285
 2479Sol     HW12940   3.272   1.046   2.336 -1.0450  1.7332  1.6016
 2479Sol     HW12941   3.127   1.002   2.334  0.0407 -2.0365 -1.3467
 2479Sol     MW12942   3.200   1.024   2.287  0.2240  0.4081 -0.4041
 2480Sol     OW12943   2.281   2.517   6.204  0.4288  0.1780 -0.3216
 2480Sol     HW12944   2.264   2.430   6.167 -1.4659  0.6827 -0.6946
 2480Sol     HW12945   2.240   2.515   6.291  0.0905  0.7915 -0.4600
 2480Sol     MW12946   2.276   2.509   6.208 -0.3785 -0.2360 -0.0461
 2481Sol     OW12947   1.583   2.272   8.911  0.0290  0.4973  0.3645
 2481Sol     HW12948   1.521   2.200   8.898  1.2254 -0.7299  1.3582
 2481Sol     HW12949   1.528   2.349   8.925 -1.2891 -0.6543  1.6508
 2481Sol     MW12950   1.573   2.273   8.911  0.0057 -0.2910 -0.2535
 2482Sol     OW12951   2.258   1.970   8.425 -0.4898  0.3702  0.3980
 2482Sol     HW12952   2.294   1.976   8.336 -0.9970 -0.9424  0.0861
 2482Sol     HW12953   2.198   1.896   8.421 -1.3594  1.0057  1.5619
 2482Sol     MW12954   2.256   1.964   8.417 -0.2358 -0.9749  0.5108
 2483Sol     OW12955   2.034   2.010   7.638 -0.6189 -0.0924 -0.2057
 2483Sol     HW12956   2.102   1.971   7.582 -0.4160  0.5310 -0.3960
 2483Sol     HW12957   2.073   2.091   7.669 -0.8798 -0.2490  0.5402
 2483Sol     MW12958   2.044   2.013   7.635  0.8361 -0.2514  0.4506
 2484Sol     OW12959   3.193   1.215   9.942  0.6579 -0.6663 -0.2095
 2484Sol     HW12960   3.107   1.227   9.901  0.2564 -0.9243  0.5530
 2484Sol     HW12961   3.188   1.266  10.023  1.2438 -0.6402 -0.1905
 2484Sol     MW12962   3.184   1.221   9.945 -0.0186 -0.1816  0.3521
 2485Sol     OW12963   0.334   0.606   8.149  0.2384  0.7598 -0.5385
 2485Sol     HW12964   0.418   0.566   8.126 -0.6615 -0.5201 -1.6865
 2485Sol     HW12965   0.287   0.613   8.066 -0.9302  1.1317  0.1414
 2485Sol     MW12966   0.337   0.603   8.140  0.3712  0.2061  0.3300
 2486Sol     OW12967   0.240   3.181   9.229  0.5839  0.6609 -0.5883
 2486Sol     HW12968   0.300   3.121   9.184 -0.7346 -1.3576  0.2947
 2486Sol     HW12969   0.176   3.205   9.162 -1.4962 -2.5015  0.1463
 2486Sol     MW12970   0.240   3.178   9.219 -0.8028 -0.2982  0.1430
 2487Sol     OW12971   3.310   3.238   4.035  0.3016  0.0758 -0.2978
 2487Sol     HW12972   3.319   3.150   4.070  1.1771  0.1196 -0.3969
 2487Sol     HW12973   3.343   3.232   3.945  0.7840  0.5954 -0.1610
 2487Sol     MW12974   3.314   3.230   4.030 -0.7635  0.4618 -0.6533
 2488Sol     OW12975   2.494   0.784   4.263  0.1673 -1.3199 -0.6003
 2488Sol     HW12976   2.452   0.738   4.190  0.9680 -1.2446 -1.1127
 2488Sol     HW12977   2.571   0.732   4.284 -0.5413 -1.8299  0.7945
 2488Sol     MW12978   2.497   0.775   4.258  0.4364  0.6143 -0.0959
 2489Sol     OW12979   0.514   1.300   7.223 -0.0928  0.3894  0.6571
 2489Sol     HW12980   0.430   1.323   7.263  1.0440  1.1071  2.6885
 2489Sol     HW12981   0.529   1.209   7.250 -1.4469 -0.6457 -1.9132
 2489Sol     MW12982   0.508   1.294   7.229 -0.5955  0.1842  0.2369
 2490Sol     OW12983   1.923   1.602   8.036 -0.0491  0.5304 -0.5368
 2490Sol     HW12984   1.898   1.523   7.988  1.5308  0.4146 -1.2006
 2490Sol     HW12985   1.865   1.670   8.001 -0.5027 -0.0500 -0.9222
 2490Sol     MW12986   1.916   1.601   8.028 -0.4654 -0.0768  0.3029
 2491Sol     OW12987   1.367   0.529   8.660 -0.0355 -0.0318  0.2780
 2491Sol     HW12988   1.359   0.606   8.604 -0.2507  0.7747  1.3838
 2491Sol     HW12989   1.278   0.495   8.666 -0.6199  1.6947  2.5721
 2491Sol     MW12990   1.358   0.533   8.656 -0.0370 -0.9656  0.1088
 2492Sol     OW12991   2.060   2.900   2.182 -0.4421  0.1208  0.2540
 2492Sol     HW12992   1.979   2.951   2.171 -0.2280  0.2456 -0.8435
 2492Sol     HW12993   2.079   2.866   2.094  0.9299  0.4538  0.4075
 2492Sol     MW12994   2.055   2.902   2.173  0.5130  0.5492  0.4896
 2493Sol     OW12995   1.442   0.239   6.184  0.4892 -0.4126  0.3008
 2493Sol     HW12996   1.364   0.193   6.214 -0.4908  1.0318  0.0120
 2493Sol     HW12997   1.490   0.260   6.265 -1.0071  1.4598  0.7450
 2493Sol     MW12998   1.440   0.237   6.194  0.3349  0.2416 -0.8882
 2494Sol     OW12999   1.995   1.045   4.562 -0.1691 -0.0234  0.6182
 2494Sol     HW13000   2.003   1.012   4.472 -1.2447 -1.5596  1.0567
 2494Sol     HW13001   1.909   1.085   4.565 -0.5963 -0.9879  1.2760
 2494Sol     MW13002   1.988   1.045   4.554 -0.4944  1.4843  0.2847
 2495Sol     OW13003   0.401   2.353   9.557 -0.2203 -0.3443  0.4661
 2495Sol     HW13004   0.339   2.280   9.554  1.0463 -1.5021  1.4175
 2495Sol     HW13005   0.487   2.310   9.556  0.6066  1.2537 -1.9564
 2495Sol     MW13006   0.403   2.342   9.557  0.1387  0.2549 -0.4590
 2496Sol     OW13007   0.521   3.152   7.117  0.1202  0.3869 -0.3494
 2496Sol     HW13008   0.436   3.196   7.120  0.7181  1.5062  1.3791
 2496Sol     HW13009   0.576   3.205   7.175  1.9113 -0.4877 -1.2457
 2496Sol     MW13010   0.518   3.161   7.123 -0.3261  0.3321  1.1507
 2497Sol     OW13011   2.149   0.190   5.358 -0.2530  0.4485 -0.6956
 2497Sol     HW13012   2.142   0.202   5.263 -0.2732 -1.1770 -0.9156
 2497Sol     HW13013   2.065   0.151   5.383 -0.0374  0.3700 -0.1056
 2497Sol     MW13014   2.141   0.187   5.351 -0.7047 -1.0020  1.1852
 2498Sol     OW13015   2.350   1.578   8.522  0.1826  0.2826  0.0391
 2498Sol     HW13016   2.276   1.538   8.567 -1.4466  2.6447 -0.4327
 2498Sol     HW13017   2.375   1.515   8.455 -0.8300 -0.9251  0.7864
 2498Sol     MW13018   2.346   1.569   8.520  0.0133  0.4238 -0.1908
 2499Sol     OW13019   1.133   0.931   4.007 -0.3121 -0.3356  0.2536
 2499Sol     HW13020   1.100   0.850   3.970 -0.1972 -0.2734  0.0140
 2499Sol     HW13021   1.055   0.979   4.035 -0.4725  0.1676 -1.0407
 2499Sol     MW13022   1.123   0.928   4.006 -0.4244  0.3020  0.4050
 2500Sol     OW13023   0.089   1.271   4.346 -0.2324 -0.5150  0.0548
 2500Sol     HW13024  -0.001   1.254   4.374 -0.2113 -0.2803  0.2625
 2500Sol     HW13025   0.134   1.187   4.360 -0.1125 -0.2723  1.1575
 2500Sol     MW13026   0.085   1.262   4.350 -0.2847  0.7777 -1.1040
 2501Sol     OW13027   2.596   1.427   2.097  0.1690  0.4359 -0.2528
 2501Sol     HW13028   2.654   1.493   2.134 -0.5864  2.0581 -1.8985
 2501Sol     HW13029   2.570   1.374   2.172  1.2917  1.6038  0.9911
 2501Sol     MW13030   2.599   1.428   2.107  0.4897  0.2573 -0.9163
 2502Sol     OW13031   2.926   1.289   8.442 -0.1695 -0.4564 -0.3044
 2502Sol     HW13032   2.905   1.207   8.488 -2.4401  0.1122 -0.2504
 2502Sol     HW13033   2.853   1.347   8.462  1.1233  1.4064 -0.8387
 2502Sol     MW13034   2.917   1.287   8.448 -0.8596 -0.2876  0.4033
 2503Sol     OW13035   0.876   3.263   8.128  0.2992 -0.0560 -0.3045
 2503Sol     HW13036   0.965   3.228   8.128 -0.2531 -1.4877 -1.5354
 2503Sol     HW13037   0.830   3.213   8.061 -2.0592 -0.9137  1.8536
 2503Sol     MW13038   0.880   3.255   8.122  0.7644 -0.5830  0.1219
 2504Sol     OW13039   0.279   2.905   8.197 -0.3684  0.6859  0.1623
 2504Sol     HW13040   0.339   2.977   8.179  0.6904 -0.4096 -0.7873
 2504Sol     HW13041   0.296   2.882   8.289  1.5322 -0.3903 -0.4346
 2504Sol     MW13042   0.286   2.909   8.204  0.0116  0.2065  0.3273
 2505Sol     OW13043   0.429   1.025   8.242 -0.6007 -0.0823 -0.2629
 2505Sol     HW13044   0.424   1.102   8.185  0.1421  0.3505  0.2561
 2505Sol     HW13045   0.473   0.959   8.189 -1.4556 -0.2437 -0.7955
 2505Sol     MW13046   0.432   1.026   8.232  0.1271  0.0045  0.0000
 2506Sol     OW13047   2.255   1.934   3.621  0.3762 -0.2688  0.7823
 2506Sol     HW13048   2.315   1.906   3.691  0.6198  0.4658  0.8686
 2506Sol     HW13049   2.200   2.000   3.662  0.0536 -0.3457  0.4706
 2506Sol     MW13050   2.256   1.937   3.631 -0.4257  0.1383 -0.2917
 2507Sol     OW13051   1.922   3.156   8.521  0.0891 -0.0396  0.3296
 2507Sol     HW13052   1.941   3.067   8.551 -1.3342 -0.6129 -0.4622
 2507Sol     HW13053   1.827   3.163   8.523  0.1928  1.5779  0.6585
 2507Sol     MW13054   1.915   3.149   8.524 -0.3130 -0.4396 -0.2044
 2508Sol     OW13055   0.913   2.476   9.844 -0.0559 -0.6064  0.2377
 2508Sol     HW13056   0.851   2.541   9.877 -0.6915 -0.3265 -1.4785
 2508Sol     HW13057   0.992   2.490   9.896 -0.3973  1.1165  0.3063
 2508Sol     MW13058   0.914   2.483   9.852 -0.7216 -0.5820  1.2664
 2509Sol     OW13059   3.078   3.198   8.043 -0.2089 -0.0225 -0.5892
 2509Sol     HW13060   3.108   3.262   8.106  0.7043 -0.9076 -0.1059
 2509Sol     HW13061   3.035   3.249   7.974 -0.3982  1.0060  0.2940
 2509Sol     MW13062   3.077   3.208   8.042 -0.9002 -0.6838 -0.2339
 2510Sol     OW13063   0.653   2.269   9.845 -0.6502  0.1655  0.6403
 2510Sol     HW13064   0.580   2.331   9.837 -0.0660  0.6843 -0.6984
 2510Sol     HW13065   0.731   2.322   9.828 -0.1490 -0.9349 -0.5376
 2510Sol     MW13066   0.653   2.279   9.843 -0.4755 -0.5565 -0.3373
 2511Sol     OW13067   1.575   3.382   8.549  0.2632 -0.5173  0.4442
 2511Sol     HW13068   1.508   3.358   8.613 -1.4066  0.0213 -1.0437
 2511Sol     HW13069   1.531   3.371   8.464  1.5448  1.3756 -0.4976
 2511Sol     MW13070   1.565   3.379   8.547 -0.4418 -0.2638  0.4107
 2512Sol     OW13071   1.437   1.637   9.907 -0.0162  0.5903  0.4384
 2512Sol     HW13072   1.413   1.579   9.835 -2.1486 -0.8816  2.2834
 2512Sol     HW13073   1.366   1.701   9.911  1.0631  1.8514  0.0411
 2512Sol     MW13074   1.429   1.638   9.901 -0.2060 -0.5713 -0.3249
 2513Sol     OW13075   2.468   2.981   8.119 -0.0271  0.1741  0.1368
 2513Sol     HW13076   2.479   2.996   8.025 -1.0781  1.0532  0.1470
 2513Sol     HW13077   2.459   3.069   8.156  0.7574 -0.1393  1.1185
 2513Sol     MW13078   2.468   2.991   8.114 -0.2480  1.1076 -0.1293
 2514Sol     OW13079   0.175   0.159   5.897 -0.3023 -0.2913 -0.3182
 2514Sol     HW13080   0.191   0.138   5.989  0.2817 -0.4786 -0.4653
 2514Sol     HW13081   0.180   0.075   5.851 -0.1882 -0.1410 -0.5818
 2514Sol     MW13082   0.177   0.150   5.901 -0.1109 -0.4150 -0.1235
 2515Sol     OW13083   2.725   1.524   1.371  0.0240  0.0308 -0.6057
 2515Sol     HW13084   2.780   1.590   1.413 -0.0514  0.1946 -0.7644
 2515Sol     HW13085   2.656   1.574   1.328 -0.8678 -0.2291  0.4776
 2515Sol     MW13086   2.724   1.534   1.371  0.0555 -0.3071 -0.0219
 2516Sol     OW13087   1.586   3.047   7.601 -0.1085 -0.0592 -0.0930
 2516Sol     HW13088   1.535   3.086   7.672 -0.7477  0.4890 -0.8439
 2516Sol     HW13089   1.653   2.995   7.645 -0.7133  0.0029  0.9087
 2516Sol     MW13090   1.588   3.046   7.611 -0.4370  0.5837 -0.4018
 2517Sol     OW13091   2.242   1.885   7.499 -0.3820  0.3423 -0.0247
 2517Sol     HW13092   2.273   1.969   7.465  0.6801  0.4727  1.2324
 2517Sol     HW13093   2.211   1.838   7.421  0.9629  1.0726 -1.0266
 2517Sol     MW13094   2.242   1.888   7.489  0.4174 -0.3111 -0.1032
 2518Sol     OW13095   1.756   2.287   8.666  0.6465  0.1034 -0.2336
 2518Sol     HW13096   1.722   2.281   8.756  1.2606  1.4729  0.1048
 2518Sol     HW13097   1.779   2.197   8.643 -2.1133 -0.6952 -0.0542
 2518Sol     MW13098   1.755   2.278   8.672  0.6592 -0.0157 -0.0440
 2519Sol     OW13099   0.933   2.988   1.541  0.5460  0.2318 -0.1039
 2519Sol     HW13100   0.968   3.008   1.455  0.9299  3.5656  0.7734
 2519Sol     HW13101   0.992   2.920   1.576  0.5658 -0.9013 -2.2725
 2519Sol     MW13102   0.942   2.983   1.537 -0.6551  0.6261  0.9300
 2520Sol     OW13103   1.464   0.663   5.537 -0.5600 -0.3609 -0.1085
 2520Sol     HW13104   1.512   0.710   5.604 -1.5869  0.1463  0.2771
 2520Sol     HW13105   1.392   0.721   5.512  0.3975 -0.0831 -2.3961
 2520Sol     MW13106   1.462   0.672   5.541 -0.5215  0.3878 -0.6210
 2521Sol     OW13107   0.227   0.841   4.629 -0.0614 -0.0571 -0.4699
 2521Sol     HW13108   0.323   0.840   4.624 -0.0362 -0.0058 -0.0029
 2521Sol     HW13109   0.202   0.749   4.633 -0.0282 -0.0679 -0.5104
 2521Sol     MW13110   0.234   0.833   4.629 -0.6180 -0.5268 -0.0924
 2522Sol     OW13111   1.065   0.587   8.760  0.5175 -0.0687  0.5879
 2522Sol     HW13112   1.036   0.506   8.802 -1.3281  0.0845 -0.3736
 2522Sol     HW13113   1.128   0.624   8.822 -0.4423 -1.0009  2.1682
 2522Sol     MW13114   1.068   0.583   8.769 -0.4430  0.3994 -0.1852
 2523Sol     OW13115   3.086   2.003   3.117 -0.2825 -0.0002  0.0371
 2523Sol     HW13116   3.052   2.029   3.203  0.3050  0.1282  0.2290
 2523Sol     HW13117   3.010   2.009   3.059 -0.2252  1.9349  0.1309
 2523Sol     MW13118   3.076   2.006   3.119 -0.3651 -0.8566 -0.4104
 2524Sol     OW13119   1.490   1.843   6.949 -0.2645 -0.4833  0.4838
 2524Sol     HW13120   1.495   1.764   6.896 -2.4575  0.6500 -1.5151
 2524Sol     HW13121   1.427   1.822   7.019 -0.9681 -0.4594 -0.1394
 2524Sol     MW13122   1.485   1.834   6.951  0.7914 -0.4478 -0.6232
 2525Sol     OW13123   0.685   1.634   9.437  0.0022 -0.3882 -0.5455
 2525Sol     HW13124   0.672   1.543   9.410  0.8535 -0.2272 -1.5505
 2525Sol     HW13125   0.778   1.650   9.419  0.2921  0.1188  1.3263
 2525Sol     MW13126   0.693   1.627   9.433 -0.1705  0.5973 -0.3307
 2526Sol     OW13127   0.500   2.929   4.489 -0.3742  0.0432 -0.3177
 2526Sol     HW13128   0.529   2.967   4.572  0.1053 -0.3670 -0.2915
 2526Sol     HW13129   0.581   2.913   4.441 -0.6161 -0.2661 -0.6223
 2526Sol     MW13130   0.510   2.931   4.492  0.3766  0.0602  0.3627
 2527Sol     OW13131   1.134   3.183   9.207  0.9393  0.0405  0.0283
 2527Sol     HW13132   1.089   3.245   9.264 -0.1243  1.0792 -1.8789
 2527Sol     HW13133   1.064   3.128   9.172  1.4402  0.0331 -0.9941
 2527Sol     MW13134   1.124   3.184   9.209  0.1693 -0.2841  0.5404
 2528Sol     OW13135   2.283   0.417   7.158  0.0600  0.3724 -0.8477
 2528Sol     HW13136   2.272   0.512   7.155 -0.7886  0.2965 -0.3480
 2528Sol     HW13137   2.358   0.404   7.217 -0.9441  0.6675  0.5245
 2528Sol     MW13138   2.289   0.425   7.163  0.4496 -0.1588 -0.3574
 2529Sol     OW13139   2.333   1.237   9.368 -0.3109  0.0478 -0.1663
 2529Sol     HW13140   2.261   1.233   9.306  0.0834  2.6754 -0.8474
 2529Sol     HW13141   2.290   1.238   9.454 -0.9239 -1.4679 -0.4263
 2529Sol     MW13142   2.323   1.236   9.370  0.4655 -0.4032 -0.2035
 2530Sol     OW13143   2.948   0.935   9.780 -0.4371  0.0799 -0.5560
 2530Sol     HW13144   2.918   0.869   9.718 -0.0316 -0.9259  0.3148
 2530Sol     HW13145   3.044   0.926   9.780 -0.4398  0.0263  0.2669
 2530Sol     MW13146   2.954   0.929   9.774 -0.0262  1.0528 -0.1004
 2531Sol     OW13147   0.272   1.910   4.961  0.6121  0.2912 -0.1821
 2531Sol     HW13148   0.365   1.887   4.951  0.0952 -1.9646 -0.0692
 2531Sol     HW13149   0.225   1.841   4.913 -1.0149  1.2398  0.0294
 2531Sol     MW13150   0.276   1.902   4.956  0.2791 -0.2634  0.4525
 2532Sol     OW13151   2.644   2.277   2.457  0.2314 -0.3005  0.0748
 2532Sol     HW13152   2.573   2.334   2.427 -1.4678 -2.3436  0.0617
 2532Sol     HW13153   2.718   2.298   2.400 -1.8269 -1.5086 -3.1917
 2532Sol     MW13154   2.644   2.284   2.449 -0.3723 -0.4417  0.2944
 2533Sol     OW13155   2.008   2.764   4.128  0.3038  0.2243 -0.1987
 2533Sol     HW13156   2.017   2.849   4.171 -1.3135  0.0242  0.5904
 2533Sol     HW13157   1.962   2.783   4.046 -0.7971  0.0245  0.3608
 2533Sol     MW13158   2.005   2.773   4.125 -0.6009 -0.2423  0.1520
 2534Sol     OW13159   1.602   1.987   7.683 -0.6553 -0.3262  0.0880
 2534Sol     HW13160   1.545   2.057   7.714  1.5852  2.4589 -1.7966
 2534Sol     HW13161   1.689   2.012   7.715  0.3271 -1.7649 -1.3886
 2534Sol     MW13162   1.605   1.995   7.689 -0.4315 -0.5117  0.4628
 2535Sol     OW13163   2.959   2.890   2.530  0.4944  0.6331  0.3659
 2535Sol     HW13164   2.879   2.862   2.574  0.7157  2.9919  2.3511
 2535Sol     HW13165   3.029   2.840   2.573  0.3036  0.0488  0.0001
 2535Sol     MW13166   2.958   2.883   2.538  0.3590 -0.2624  0.5112
 2536Sol     OW13167   0.240   3.046   6.314 -0.1970 -0.2644 -0.1202
 2536Sol     HW13168   0.297   3.007   6.380 -0.4281 -2.4874 -1.1926
 2536Sol     HW13169   0.275   3.014   6.230 -1.5022  0.3524 -0.9161
 2536Sol     MW13170   0.248   3.039   6.312  0.6228  0.0079  1.1841
 2537Sol     OW13171   1.211   2.980   5.457 -0.0185  0.2177  0.4419
 2537Sol     HW13172   1.221   3.018   5.544  2.3404 -1.8054  1.1102
 2537Sol     HW13173   1.220   2.885   5.470 -1.9678 -0.3241 -1.6945
 2537Sol     MW13174   1.212   2.975   5.466  0.9108 -0.4294  0.3920
 2538Sol     OW13175   2.512   0.466   7.354 -0.0032  0.1226  0.0410
 2538Sol     HW13176   2.525   0.531   7.285 -1.4347  1.6394  1.1679
 2538Sol     HW13177   2.600   0.435   7.374  0.4957  0.0908 -2.0215
 2538Sol     MW13178   2.521   0.469   7.349  0.2454 -0.8727  0.4231
 2539Sol     OW13179   2.828   1.194   7.980  0.3750  0.0985 -0.1395
 2539Sol     HW13180   2.838   1.150   8.065  1.2201  2.2428  0.8956
 2539Sol     HW13181   2.733   1.196   7.966  0.2635 -0.8589  0.4293
 2539Sol     MW13182   2.820   1.190   7.987 -0.0427  0.0091  0.2841
 2540Sol     OW13183   3.221   2.074   7.265  0.3545  0.4557  0.1158
 2540Sol     HW13184   3.190   1.989   7.235 -1.3451  1.3766 -0.7552
 2540Sol     HW13185   3.317   2.067   7.260  0.1841 -0.6177 -2.1358
 2540Sol     MW13186   3.227   2.066   7.262 -0.0401 -0.1118 -0.3342
 2541Sol     OW13187   1.597   0.195   4.701  0.0179 -0.1756  0.2023
 2541Sol     HW13188   1.683   0.226   4.728 -0.6763  1.5076  0.5723
 2541Sol     HW13189   1.541   0.211   4.777 -1.1256  0.9940 -0.8428
 2541Sol     MW13190   1.600   0.200   4.710  0.1642  0.5110  0.4409
 2542Sol     OW13191   2.678   2.970   4.576 -0.2902  0.0720  0.3213
 2542Sol     HW13192   2.683   3.061   4.605  0.2658  0.1035  0.1434
 2542Sol     HW13193   2.605   2.933   4.624 -1.2156  0.9132 -0.4240
 2542Sol     MW13194   2.672   2.975   4.583 -0.2420 -0.0922  0.0745
 2543Sol     OW13195   3.017   0.062   3.497  0.1908  0.3111 -0.2740
 2543Sol     HW13196   3.067  -0.019   3.492  1.4484  1.0652  0.0332
 2543Sol     HW13197   3.041   0.101   3.581 -1.6859  0.1898  0.3583
 2543Sol     MW13198   3.023   0.059   3.504 -0.2402  0.4965  0.5704
 2544Sol     OW13199   2.654   1.167   3.707 -0.0547 -0.0711 -0.6575
 2544Sol     HW13200   2.710   1.098   3.673 -0.5357 -1.4135  1.1467
 2544Sol     HW13201   2.698   1.197   3.787 -0.9559  0.1584 -0.2367
 2544Sol     MW13202   2.663   1.164   3.711  0.3157  0.2802 -0.4990
 2545Sol     OW13203   0.887   0.526   4.113 -0.6076 -0.3925  0.5247
 2545Sol     HW13204   0.881   0.452   4.174  0.0326 -1.5554 -0.7749
 2545Sol     HW13205   0.947   0.495   4.045 -1.0209  1.0097 -0.4904
 2545Sol     MW13206   0.892   0.516   4.112 -0.1434 -0.7013 -0.6846
 2546Sol     OW13207   1.581   0.365   4.142  0.1501 -0.0538 -0.0835
 2546Sol     HW13208   1.556   0.300   4.075 -0.9673  0.0717  0.2011
 2546Sol     HW13209   1.547   0.448   4.108  1.1085  0.2935 -0.1878
 2546Sol     MW13210   1.575   0.366   4.133  0.1599  0.9049  0.7826
 2547Sol     OW13211   0.788   1.488   7.890 -0.3577  0.3221  0.2088
 2547Sol     HW13212   0.868   1.517   7.933 -0.8306 -0.7621  1.8651
 2547Sol     HW13213   0.813   1.407   7.845 -0.3686  0.3404  0.1698
 2547Sol     MW13214   0.798   1.483   7.890 -0.5498 -0.5588 -0.0120
 2548Sol     OW13215   1.461   2.068   6.342 -0.3596  0.3516  0.2681
 2548Sol     HW13216   1.437   2.028   6.258 -0.6556  1.2097 -0.0701
 2548Sol     HW13217   1.539   2.120   6.322  0.4947 -0.6832  0.8806
 2548Sol     MW13218   1.466   2.069   6.332  0.3552 -0.3235 -0.6031
 2549Sol     OW13219   0.574   1.555   9.034 -0.1511  0.2659 -0.8600
 2549Sol     HW13220   0.599   1.504   9.112 -1.3619 -0.5063 -0.9675
 2549Sol     HW13221   0.632   1.631   9.036  0.3580 -0.1361  0.3742
 2549Sol     MW13222   0.582   1.557   9.041  0.1743  0.5060  0.0513
 2550Sol     OW13223   2.235   2.832   9.382  0.0195  0.1707  0.3033
 2550Sol     HW13224   2.200   2.921   9.383  1.9419  0.9578 -1.1288
 2550Sol     HW13225   2.325   2.842   9.351 -0.3874 -2.5122 -1.8041
 2550Sol     MW13226   2.240   2.841   9.380 -0.0245  0.0507 -0.8104
 2551Sol     OW13227   3.144   1.286   7.571  0.3062 -0.2207 -0.2755
 2551Sol     HW13228   3.053   1.257   7.578  0.6655 -1.3561 -0.1908
 2551Sol     HW13229   3.139   1.377   7.543 -0.8663 -0.1326  0.2301
 2551Sol     MW13230   3.136   1.291   7.569  0.7100 -0.3404  0.1027
 2552Sol     OW13231   1.209   2.116   4.511  0.6832  0.2037  0.1351
 2552Sol     HW13232   1.202   2.070   4.595  0.0851  0.7665  0.4020
 2552Sol     HW13233   1.302   2.137   4.502  0.7259  0.2839  0.7414
 2552Sol     MW13234   1.217   2.114   4.518 -0.2074  0.0678  0.1293
 2553Sol     OW13235   2.147   1.476   4.961 -0.7836  0.5578 -0.4998
 2553Sol     HW13236   2.135   1.518   4.876  2.2429 -1.5537 -2.0595
 2553Sol     HW13237   2.070   1.420   4.971 -1.9913  2.0822 -1.0398
 2553Sol     MW13238   2.139   1.475   4.955  0.2680 -0.1247 -0.4397
 2554Sol     OW13239   2.768   2.773   2.674  0.1696  0.4603 -0.1317
 2554Sol     HW13240   2.812   2.727   2.745  0.8086  0.5153 -0.4912
 2554Sol     HW13241   2.702   2.710   2.642 -0.9564  0.8942  1.3077
 2554Sol     MW13242   2.766   2.763   2.677 -0.0292  0.9753 -0.7186
 2555Sol     OW13243   3.091   3.400   8.823  0.0582 -0.0028 -0.3824
 2555Sol     HW13244   2.998   3.379   8.814  0.0912 -1.7805  2.4576
 2555Sol     HW13245   3.126   3.327   8.874  2.5572  1.7433  0.4915
 2555Sol     MW13246   3.085   3.391   8.827 -0.1098 -0.1577  0.7513
 2556Sol     OW13247   1.792   0.702   2.736 -0.7883  0.2770 -0.5466
 2556Sol     HW13248   1.768   0.778   2.683  1.3583  2.5188  1.5693
 2556Sol     HW13249   1.874   0.672   2.699 -0.9418 -0.1729 -0.5259
 2556Sol     MW13250   1.797   0.707   2.728  0.5538 -0.1267 -0.1554
 2557Sol     OW13251   2.520   0.649   7.813 -0.0369 -0.2197  0.2215
 2557Sol     HW13252   2.512   0.554   7.825  0.4758 -0.1528  1.0750
 2557Sol     HW13253   2.536   0.659   7.719  0.3914 -1.0045  0.2056
 2557Sol     MW13254   2.521   0.641   7.805 -0.8827  0.9022 -0.7476
 2558Sol     OW13255   1.856   2.029   8.646 -0.0002  0.3798  0.0053
 2558Sol     HW13256   1.937   2.074   8.671 -0.6513  0.7132  1.5301
 2558Sol     HW13257   1.884   1.940   8.624  0.6996  0.2846  1.2260
 2558Sol     MW13258   1.866   2.025   8.646 -0.1727  0.1408  0.3502
 2559Sol     OW13259   2.580   2.982   3.236  0.5085  0.4310  0.8043
 2559Sol     HW13260   2.488   3.006   3.225  0.5440  0.7963  1.3110
 2559Sol     HW13261   2.616   2.986   3.147  0.0541  0.3556  0.6140
 2559Sol     MW13262   2.575   2.985   3.227 -0.7405 -0.3571  0.4335
 2560Sol     OW13263   1.692   0.805   2.015 -0.2088 -0.1844  0.5950
 2560Sol     HW13264   1.722   0.895   2.007 -0.9735  0.0462  0.2519
 2560Sol     HW13265   1.771   0.754   2.033  0.1265  0.6412  1.4680
 2560Sol     MW13266   1.702   0.808   2.016  0.7264  0.3514 -0.0895
 2561Sol     OW13267   1.093   3.332   8.454 -0.4272 -0.7079 -0.3036
 2561Sol     HW13268   1.128   3.421   8.447 -2.6365  0.0090 -3.4553
 2561Sol     HW13269   1.047   3.331   8.538  1.8987  0.2309  1.0164
 2561Sol     MW13270   1.092   3.340   8.461  0.3570 -0.1822 -0.0525
 2562Sol     OW13271   2.288   2.033   5.810  0.0631 -0.1046 -0.0526
 2562Sol     HW13272   2.347   1.958   5.810 -0.3491 -0.4320 -0.3108
 2562Sol     HW13273   2.223   2.013   5.743 -2.4277 -1.4330  2.6217
 2562Sol     MW13274   2.287   2.024   5.804 -0.5166 -0.4683  0.6907
 2563Sol     OW13275   0.042   3.244   9.038 -0.0540  0.2842  0.6733
 2563Sol     HW13276  -0.032   3.194   9.003  0.7282 -0.6287  0.2937
 2563Sol     HW13277   0.003   3.326   9.068 -1.2309 -0.2154  0.5519
 2563Sol     MW13278   0.032   3.247   9.037 -0.5793  0.8136  0.4693
 2564Sol     OW13279   2.628   1.248   4.812  0.5361  0.2262  0.1088
 2564Sol     HW13280   2.541   1.288   4.818  0.6023  0.3421  0.2851
 2564Sol     HW13281   2.613   1.157   4.839  0.4486  0.2154  0.0275
 2564Sol     MW13282   2.619   1.243   4.815  0.9113 -0.1577  0.0332
 2565Sol     OW13283   0.848   2.193   4.188  0.0951  0.2229 -0.4101
 2565Sol     HW13284   0.886   2.274   4.154  0.7265 -0.5428 -1.5317
 2565Sol     HW13285   0.923   2.139   4.212 -0.3205 -0.0808  0.2245
 2565Sol     MW13286   0.858   2.195   4.187  0.8067 -0.2904  0.4603
 2566Sol     OW13287   2.892   2.016   9.616  0.2233  0.3425 -0.2448
 2566Sol     HW13288   2.955   1.984   9.681  1.0319  0.5641 -0.9086
 2566Sol     HW13289   2.833   1.942   9.601  0.6128 -0.0285  0.0412
 2566Sol     MW13290   2.892   2.006   9.620  0.2166 -0.8880 -0.0867
 2567Sol     OW13291   3.306   0.840   5.853  0.1737 -0.4607  0.4780
 2567Sol     HW13292   3.363   0.914   5.875  0.0529 -0.5661  1.1575
 2567Sol     HW13293   3.218   0.877   5.851  0.3328 -0.0874 -1.5337
 2567Sol     MW13294   3.303   0.850   5.854 -0.0914 -0.1205  0.7864
 2568Sol     OW13295   0.197   1.560   1.412 -0.4821  0.4754 -0.3568
 2568Sol     HW13296   0.122   1.583   1.359  0.2368  0.3608 -1.4462
 2568Sol     HW13297   0.172   1.478   1.456 -1.1176  0.6272 -0.4410
 2568Sol     MW13298   0.188   1.554   1.412 -0.0208  0.4579  0.2044
 2569Sol     OW13299   1.121   1.602   4.732  0.2792  0.1298 -0.0549
 2569Sol     HW13300   1.038   1.613   4.685  0.8869  2.4973 -0.6712
 2569Sol     HW13301   1.185   1.648   4.677  1.9167 -1.2060  0.6833
 2569Sol     MW13302   1.119   1.607   4.723 -0.5487 -0.1607 -0.1626
 2570Sol     OW13303   0.431   0.707   7.714 -0.2476 -0.3350 -0.1152
 2570Sol     HW13304   0.471   0.766   7.778  1.6160 -0.7652 -0.8650
 2570Sol     HW13305   0.358   0.667   7.761  0.7523 -0.2319  1.5758
 2570Sol     MW13306   0.428   0.709   7.724  0.3562  0.1800 -0.1648
 2571Sol     OW13307   2.870   2.410   8.593 -0.3900  0.2912  0.5303
 2571Sol     HW13308   2.877   2.477   8.526  0.8055 -0.1810  0.1633
 2571Sol     HW13309   2.901   2.330   8.551  0.7385  0.0664  1.7366
 2571Sol     MW13310   2.873   2.409   8.583  0.0954  0.8622  0.5323
 2572Sol     OW13311   1.954   0.179   3.780  0.0400 -0.1592  0.0688
 2572Sol     HW13312   2.023   0.129   3.735  0.1852 -0.7729  0.9528
 2572Sol     HW13313   1.944   0.135   3.864 -1.1916  0.1554  0.0888
 2572Sol     MW13314   1.960   0.171   3.783 -0.1415  0.2020  0.0028
 2573Sol     OW13315   0.254   0.502   6.836 -0.3174 -0.0922  0.7928
 2573Sol     HW13316   0.185   0.457   6.788 -0.6825 -0.8436  1.9995
 2573Sol     HW13317   0.335   0.465   6.803 -0.4557  1.0694 -0.9094
 2573Sol     MW13318   0.255   0.495   6.829  0.5812  0.3956 -0.2576
 2574Sol     OW13319   2.172   1.070   4.750 -0.2592  0.2973 -0.0423
 2574Sol     HW13320   2.113   1.069   4.674  0.8694 -0.9218 -0.9213
 2574Sol     HW13321   2.256   1.039   4.715  1.3881  3.5775  0.7954
 2574Sol     MW13322   2.174   1.067   4.740 -0.3147 -0.7074 -0.3014
 2575Sol     OW13323   0.541   0.805   6.600  0.5810 -0.0977 -0.2362
 2575Sol     HW13324   0.452   0.770   6.600  0.0124  1.3213 -0.3188
 2575Sol     HW13325   0.540   0.871   6.669  0.3319  2.9529 -3.0391
 2575Sol     MW13326   0.533   0.808   6.606 -0.5220  0.1277 -0.3736
 2576Sol     OW13327   3.088   1.791   7.710 -0.2722 -0.2071  0.4009
 2576Sol     HW13328   3.182   1.796   7.688 -0.3308  1.3899  0.4578
 2576Sol     HW13329   3.086   1.791   7.805 -0.3832  0.9067  0.3981
 2576Sol     MW13330   3.097   1.791   7.716  0.3348 -0.0124  0.2450
 2577Sol     OW13331   0.336   2.303   5.185 -0.3241  0.4652  0.4853
 2577Sol     HW13332   0.330   2.339   5.096 -0.4728 -2.4463 -0.7426
 2577Sol     HW13333   0.271   2.352   5.235 -0.5725  1.8365 -1.1228
 2577Sol     MW13334   0.329   2.311   5.181 -0.4768  0.3267 -0.6193
 2578Sol     OW13335   1.731   0.286   5.292 -0.3831  0.3539  0.1728
 2578Sol     HW13336   1.637   0.295   5.276 -0.4935  1.3682  1.3309
 2578Sol     HW13337   1.749   0.349   5.362  0.8925 -0.8574  0.9374
 2578Sol     MW13338   1.724   0.293   5.297 -0.0962 -0.2322  0.1476
 2579Sol     OW13339   1.587   2.493   4.884  0.0898  0.2024 -0.5919
 2579Sol     HW13340   1.519   2.556   4.907 -0.5924 -0.3757 -1.0204
 2579Sol     HW13341   1.605   2.445   4.965  0.1676  0.5264 -0.4184
 2579Sol     MW13342   1.583   2.494   4.893 -0.2938 -0.3522 -0.7210
 2580Sol     OW13343   1.262   0.800   5.402 -0.2872 -0.5485  0.0311
 2580Sol     HW13344   1.169   0.819   5.398 -0.2631 -0.5234 -0.4655
 2580Sol     HW13345   1.295   0.821   5.314  0.6820  2.1280  0.9819
 2580Sol     MW13346   1.257   0.804   5.394  0.0887  0.4591 -0.4767
 2581Sol     OW13347   0.901   2.019   8.952 -0.4862  0.3955  0.1327
 2581Sol     HW13348   0.992   1.990   8.959 -0.5061  0.5399  0.9678
 2581Sol     HW13349   0.872   1.985   8.867  0.4022  0.5130 -0.2246
 2581Sol     MW13350   0.906   2.013   8.945  0.1250  0.3793 -0.3613
 2582Sol     OW13351   1.340   0.373   2.727  0.8542 -0.2124 -0.3168
 2582Sol     HW13352   1.351   0.424   2.807 -1.0645 -2.0776  1.2213
 2582Sol     HW13353   1.366   0.284   2.752 -0.4025 -0.9598 -1.5620
 2582Sol     MW13354   1.343   0.369   2.736 -0.2557 -0.0373  1.0354
 2583Sol     OW13355   0.379   3.256   3.458 -0.3701  0.4612  0.2806
 2583Sol     HW13356   0.443   3.214   3.515 -1.5388 -0.6558  0.7895
 2583Sol     HW13357   0.428   3.274   3.377  0.4940 -0.7031  0.5239
 2583Sol     MW13358   0.389   3.254   3.456 -0.7362  0.1729 -0.2047
 2584Sol     OW13359   3.150   2.945   5.183  0.3461  0.1323 -0.4893
 2584Sol     HW13360   3.087   2.932   5.253  1.0977  1.7715  0.5281
 2584Sol     HW13361   3.097   2.946   5.103 -0.3868 -2.8269 -0.0813
 2584Sol     MW13362   3.140   2.944   5.182  0.7703  0.3309  0.0663
 2585Sol     OW13363   3.261   0.649   6.277 -0.2306  0.4891 -0.3595
 2585Sol     HW13364   3.283   0.736   6.311  1.1203 -0.4963  1.3981
 2585Sol     HW13365   3.323   0.635   6.205  0.9008  0.1875  0.6529
 2585Sol     MW13366   3.269   0.655   6.274  1.0292  0.2458 -0.8340
 2586Sol     OW13367   2.279   3.192   8.162  0.3116  0.0838  0.3191
 2586Sol     HW13368   2.276   3.284   8.188  0.0349  0.1457  0.0637
 2586Sol     HW13369   2.266   3.144   8.244  0.1510  0.2756  0.4074
 2586Sol     MW13370   2.278   3.196   8.172 -0.5957  1.1018  0.8867
 2587Sol     OW13371   2.976   1.208   1.362 -0.0896  0.8888  0.5877
 2587Sol     HW13372   3.031   1.259   1.303  0.1372  0.4534  0.4230
 2587Sol     HW13373   3.019   1.216   1.447  0.6453 -0.0500  0.3213
 2587Sol     MW13374   2.985   1.213   1.364 -0.8878 -0.1417  0.7224
 2588Sol     OW13375   0.780   2.195   3.506  0.0357 -0.1609  0.5471
 2588Sol     HW13376   0.699   2.245   3.497  0.5528  0.7099  0.7152
 2588Sol     HW13377   0.810   2.183   3.416 -0.2204 -0.3856  0.4912
 2588Sol     MW13378   0.776   2.199   3.497  0.0562 -0.7452 -0.3096
 2589Sol     OW13379   0.213   2.334   7.445 -0.5133 -0.5676 -0.2554
 2589Sol     HW13380   0.190   2.427   7.444 -0.5276 -0.5476  1.1759
 2589Sol     HW13381   0.157   2.296   7.512 -0.4997 -1.6165 -0.8282
 2589Sol     MW13382   0.206   2.339   7.451  0.2651 -0.5931 -0.8109
 2590Sol     OW13383   1.575   2.150   2.749 -0.1550 -0.0008  0.0606
 2590Sol     HW13384   1.525   2.071   2.728 -1.3705  0.8337 -0.2456
 2590Sol     HW13385   1.532   2.185   2.828  0.0399  0.6404 -0.1149
 2590Sol     MW13386   1.567   2.146   2.755  0.4484 -0.3988  0.2242
 2591Sol     OW13387   0.007   3.314   6.835  0.3678 -0.2640  0.2364
 2591Sol     HW13388   0.028   3.258   6.909 -1.4820  0.6099  1.4551
 2591Sol     HW13389   0.002   3.402   6.872  1.1319  0.4403 -1.2589
 2591Sol     MW13390   0.008   3.317   6.845  0.5487 -0.0467  0.0558
 2592Sol     OW13391   2.073   2.631   9.255 -0.5568  0.6228  0.0116
 2592Sol     HW13392   2.044   2.569   9.322 -0.6129  0.7042  0.0629
 2592Sol     HW13393   2.107   2.705   9.305  0.2912  0.2794 -0.0433
 2592Sol     MW13394   2.073   2.632   9.266 -0.7958 -0.8785  0.3925
 2593Sol     OW13395   0.813   3.072   5.171 -0.7021  0.2535  0.2933
 2593Sol     HW13396   0.889   3.113   5.211 -1.4743  0.6866  1.3639
 2593Sol     HW13397   0.763   3.145   5.134  0.6255 -0.2666 -2.5952
 2593Sol     MW13398   0.815   3.082   5.171  0.6241 -0.3430  0.5115
 2594Sol     OW13399   2.719   2.837   5.076 -0.5732  0.0995 -0.1151
 2594Sol     HW13400   2.762   2.906   5.025 -3.2919  0.0951 -2.5027
 2594Sol     HW13401   2.705   2.877   5.162 -0.3329  1.8200 -0.8451
 2594Sol     MW13402   2.722   2.847   5.079 -0.6532  1.0067 -0.3707
 2595Sol     OW13403   0.352   0.808   2.784 -0.0658  0.0909 -0.1026
 2595Sol     HW13404   0.387   0.722   2.759 -1.6974 -0.1801 -1.5072
 2595Sol     HW13405   0.403   0.832   2.861  1.6219 -1.3450 -0.7178
 2595Sol     MW13406   0.360   0.802   2.788  0.0721  0.1582 -0.2250
 2596Sol     OW13407   3.251   3.077   6.598  0.3584  0.0870  0.5010
 2596Sol     HW13408   3.316   3.088   6.667 -0.0829  0.0399  0.9259
 2596Sol     HW13409   3.291   3.116   6.520  1.1882 -0.5791  0.5851
 2596Sol     MW13410   3.260   3.081   6.597 -1.0172 -0.0058  0.4072
 2597Sol     OW13411   1.663   1.080   1.887 -0.6296 -0.6977 -0.3630
 2597Sol     HW13412   1.640   1.141   1.957  0.6008 -0.2152 -0.3737
 2597Sol     HW13413   1.580   1.061   1.844 -1.6737 -2.3299  2.2867
 2597Sol     MW13414   1.653   1.084   1.889 -0.2211 -0.4879 -0.1019
 2598Sol     OW13415   0.067   2.390   8.966 -0.1858  0.6064 -0.0264
 2598Sol     HW13416   0.126   2.369   9.038 -3.2205  0.2573  2.4706
 2598Sol     HW13417   0.098   2.474   8.933  1.5654  0.5153  1.3350
 2598Sol     MW13418   0.075   2.395   8.969 -0.1340  0.0282 -0.4025
 2599Sol     OW13419   0.638   1.621   4.630 -0.6110  0.3209 -0.0659
 2599Sol     HW13420   0.648   1.620   4.535 -2.1761 -1.7471 -0.2464
 2599Sol     HW13421   0.599   1.706   4.649  0.7827  1.2295 -1.1170
 2599Sol     MW13422   0.636   1.628   4.623  0.0947 -0.0516 -0.1143
 2600Sol     OW13423   1.994   2.242   5.625 -0.6589 -0.4325  0.2693
 2600Sol     HW13424   2.012   2.267   5.534 -2.2128 -0.3137 -0.0296
 2600Sol     HW13425   2.028   2.153   5.633  2.5150  0.7688  0.5579
 2600Sol     MW13426   1.998   2.236   5.617  0.1258 -0.2002 -0.5543
 2601Sol     OW13427   2.878   1.848   7.353 -0.1221  0.2444  0.2283
 2601Sol     HW13428   2.829   1.930   7.342  0.9044  0.8638  0.2467
 2601Sol     HW13429   2.813   1.786   7.387 -1.1168  0.8052 -0.5931
 2601Sol     MW13430   2.867   1.850   7.355 -0.7546  0.1537  0.0053
 2602Sol     OW13431   1.887   3.015   4.526 -0.3111  0.5969  0.0778
 2602Sol     HW13432   1.905   3.048   4.614 -2.5120 -0.0659  0.8111
 2602Sol     HW13433   1.891   2.920   4.534  0.1783  0.5456 -0.7031
 2602Sol     MW13434   1.889   3.010   4.534 -0.0820 -0.0492  1.2112
 2603Sol     OW13435   1.894   2.853   3.610 -0.0046  0.2740  0.7541
 2603Sol     HW13436   1.893   2.811   3.696 -1.8008 -2.7962 -0.6733
 2603Sol     HW13437   1.823   2.917   3.613 -0.7936 -0.6169  1.1771
 2603Sol     MW13438   1.888   2.855   3.618  0.2693  0.3502 -0.7516
 2604Sol     OW13439   1.794   1.514   1.779 -0.0907  0.4419  0.6213
 2604Sol     HW13440   1.887   1.497   1.790 -0.0309  0.7951  0.6489
 2604Sol     HW13441   1.765   1.551   1.862  0.0690  1.7839  0.0846
 2604Sol     MW13442   1.799   1.516   1.787 -0.1908  0.1833 -0.5545
 2605Sol     OW13443   0.034   3.123   5.290 -0.2034  0.3412 -0.4077
 2605Sol     HW13444   0.105   3.112   5.226 -1.8569 -0.9686 -2.0925
 2605Sol     HW13445  -0.044   3.090   5.245 -1.6843  0.6810  1.8159
 2605Sol     MW13446   0.033   3.119   5.280  0.2220  0.4984 -0.7626
 2606Sol     OW13447   0.852   2.169   2.163  0.0929 -0.5488 -0.9031
 2606Sol     HW13448   0.787   2.231   2.131  0.3516  0.9849  1.3960
 2606Sol     HW13449   0.802   2.104   2.213  0.2883  0.6788  0.9375
 2606Sol     MW13450   0.842   2.169   2.165 -0.0081 -0.2737  0.6812
 2607Sol     OW13451   0.176   2.779   7.293 -0.1738 -0.1745 -0.5233
 2607Sol     HW13452   0.131   2.830   7.226 -0.4461 -0.8570 -0.8623
 2607Sol     HW13453   0.264   2.817   7.296 -1.6328  3.3727  2.4626
 2607Sol     MW13454   0.180   2.787   7.287  0.0146 -0.0622 -0.5662
 2608Sol     OW13455   1.836   0.397   8.662 -0.4835  0.0043 -0.3996
 2608Sol     HW13456   1.854   0.476   8.610  1.9529 -1.2327 -1.5596
 2608Sol     HW13457   1.881   0.412   8.745  1.3121 -0.7805 -1.2088
 2608Sol     MW13458   1.842   0.406   8.664 -0.3628  0.1880 -0.3502
 2609Sol     OW13459   2.193   1.712   1.958 -0.0713  0.3568 -0.3513
 2609Sol     HW13460   2.154   1.764   2.029  1.3452  1.2456 -0.2081
 2609Sol     HW13461   2.153   1.747   1.878 -0.8924  0.0642 -0.0687
 2609Sol     MW13462   2.186   1.720   1.957 -0.6593 -0.1365  0.3451
 2610Sol     OW13463   1.068   2.010   4.262 -0.0826  0.5173  0.1360
 2610Sol     HW13464   1.128   2.009   4.337  0.5013  2.8276 -0.2715
 2610Sol     HW13465   1.125   2.003   4.185 -0.5904 -0.6090 -0.1492
 2610Sol     MW13466   1.078   2.009   4.262 -0.0607 -0.3324 -0.9237
 2611Sol     OW13467   2.751   1.162   9.679 -0.4967  0.0606  0.2042
 2611Sol     HW13468   2.661   1.131   9.668 -1.0094  1.5503  0.1233
 2611Sol     HW13469   2.805   1.085   9.662 -1.8319 -1.5132  2.7770
 2611Sol     MW13470   2.747   1.152   9.676  0.0223 -0.5329 -0.6799
 2612Sol     OW13471   1.753   1.950   7.226  0.3568  0.4828  0.2187
 2612Sol     HW13472   1.774   2.025   7.282  1.0339  1.3749 -1.1896
 2612Sol     HW13473   1.766   1.982   7.136  2.4157 -1.8090 -0.3684
 2612Sol     MW13474   1.756   1.959   7.223 -0.9399 -0.0184 -0.0732
 2613Sol     OW13475   0.379   2.147   4.304  0.0546 -0.2618 -0.1762
 2613Sol     HW13476   0.380   2.215   4.372  2.2043  0.2435 -0.6818
 2613Sol     HW13477   0.319   2.181   4.238  0.2053  0.6118  0.1215
 2613Sol     MW13478   0.374   2.156   4.304 -0.6261 -0.0194  0.1283
 2614Sol     OW13479   1.871   1.752   8.960 -0.2472  0.1384 -0.7842
 2614Sol     HW13480   1.826   1.776   9.041  2.6231 -1.7303  1.5036
 2614Sol     HW13481   1.837   1.666   8.938  2.4041 -1.5200  1.2527
 2614Sol     MW13482   1.864   1.747   8.966 -0.3302  0.0456  0.3574
 2615Sol     OW13483   2.071   3.298   4.213  0.0126  0.4672 -0.1999
 2615Sol     HW13484   2.052   3.212   4.252 -2.0326  0.9716 -0.0106
 2615Sol     HW13485   2.070   3.282   4.119 -1.3827  0.4643 -0.1943
 2615Sol     MW13486   2.069   3.289   4.208  0.1152  0.4937 -0.3718
 2616Sol     OW13487   2.464   2.622   7.455 -0.7445  0.0544 -0.6644
 2616Sol     HW13488   2.540   2.598   7.508 -1.5110 -1.9583 -0.4330
 2616Sol     HW13489   2.500   2.674   7.384  0.5357  1.2155  0.8126
 2616Sol     MW13490   2.474   2.624   7.453  0.8240 -0.7674  0.5797
 2617Sol     OW13491   1.478   0.579   7.239 -0.2578 -0.4363 -0.7620
 2617Sol     HW13492   1.395   0.584   7.192 -0.1451 -2.5172 -1.2341
 2617Sol     HW13493   1.539   0.542   7.175  1.0715  1.2330 -0.4694
 2617Sol     MW13494   1.476   0.576   7.229  1.1227  0.3383 -1.1180
 2618Sol     OW13495   0.358   0.288   8.555  0.0512  0.5551  0.2325
 2618Sol     HW13496   0.305   0.363   8.529  0.3913  0.1635 -1.6717
 2618Sol     HW13497   0.438   0.297   8.503  0.2896 -0.8686  0.3459
 2618Sol     MW13498   0.361   0.296   8.548  0.1147 -0.4529  0.2659
 2619Sol     OW13499   2.802   2.609   9.580 -0.4215 -0.3813  0.1747
 2619Sol     HW13500   2.738   2.680   9.582  1.1235  1.1715 -2.4667
 2619Sol     HW13501   2.793   2.570   9.494  1.2505 -1.0243  0.2635
 2619Sol     MW13502   2.796   2.612   9.573  0.4833 -0.5253  0.4504
 2620Sol     OW13503   0.390   0.087   7.155 -0.1776  0.0861  0.0616
 2620Sol     HW13504   0.344   0.136   7.087  1.4290  0.4054 -0.8308
 2620Sol     HW13505   0.422   0.155   7.215 -1.2474 -0.1643  0.9119
 2620Sol     MW13506   0.389   0.098   7.154 -0.8253  0.1322  0.1707
 2621Sol     OW13507   1.077   2.712   2.227 -0.2540  0.2129 -0.4405
 2621Sol     HW13508   1.008   2.667   2.178 -0.1885  0.4519 -0.7484
 2621Sol     HW13509   1.103   2.785   2.172  0.6816 -0.2372 -0.6088
 2621Sol     MW13510   1.074   2.714   2.218  0.2126 -0.1395  0.3255
 2622Sol     OW13511   2.235   0.938   2.999 -0.2342  0.0145 -0.2380
 2622Sol     HW13512   2.300   0.868   2.993 -0.0787  0.1714 -0.3968
 2622Sol     HW13513   2.208   0.938   3.090  0.1376  0.0844 -0.1266
 2622Sol     MW13514   2.238   0.932   3.006  0.4682 -0.1252  0.6233
 2623Sol     OW13515   0.088   1.669   3.835 -0.2416  0.1231 -0.4056
 2623Sol     HW13516   0.051   1.690   3.750 -2.4211  0.9194  0.7110
 2623Sol     HW13517   0.037   1.593   3.866 -0.4344  0.7171  0.7882
 2623Sol     MW13518   0.080   1.664   3.830 -0.4049  1.1943  0.2411
 2624Sol     OW13519   1.008   2.383   6.627  0.1826  0.8926 -0.6884
 2624Sol     HW13520   0.928   2.383   6.680  0.6539 -0.7490  0.0810
 2624Sol     HW13521   1.054   2.304   6.656  1.1519  0.7804 -2.5222
 2624Sol     MW13522   1.005   2.376   6.635  0.2242  0.8213 -0.1507
 2625Sol     OW13523   2.110   3.259   6.625  0.0058  0.6075  0.2130
 2625Sol     HW13524   2.122   3.170   6.591 -2.5587  0.0163  0.7792
 2625Sol     HW13525   2.135   3.252   6.717  1.2668  0.8438 -0.1014
 2625Sol     MW13526   2.114   3.250   6.630  0.6192 -0.7230  0.4986
 2626Sol     OW13527   2.974   2.371   7.937 -0.4830 -0.1359  0.2981
 2626Sol     HW13528   3.066   2.364   7.910 -0.3453 -0.9848  0.9766
 2626Sol     HW13529   2.930   2.407   7.860  0.3626 -0.0096 -0.1417
 2626Sol     MW13530   2.978   2.373   7.927  0.3895  1.0133  0.5936
 2627Sol     OW13531   1.832   2.798   2.473  0.3480 -0.1683 -0.1235
 2627Sol     HW13532   1.915   2.832   2.442 -0.5504  2.5682  0.3196
 2627Sol     HW13533   1.854   2.741   2.547  1.9376 -1.0154 -1.2377
 2627Sol     MW13534   1.841   2.796   2.477  0.2085 -0.4702  0.0028
 2628Sol     OW13535   2.806   2.607   7.243  0.3824 -0.2635 -0.0457
 2628Sol     HW13536   2.885   2.608   7.297 -0.6017 -0.3407  1.4266
 2628Sol     HW13537   2.786   2.700   7.230  0.4720 -0.2460 -0.0622
 2628Sol     MW13538   2.811   2.616   7.247  0.2888  0.3324  0.4509
 2629Sol     OW13539   3.024   0.368   2.637 -0.1265  0.1678  0.1271
 2629Sol     HW13540   3.103   0.372   2.582  0.3468  0.8214  0.8408
 2629Sol     HW13541   3.044   0.425   2.712 -0.6103 -1.0027  1.1725
 2629Sol     MW13542   3.033   0.374   2.639  0.7012 -0.0745  0.7767
 2630Sol     OW13543   0.512   1.847   5.684  0.4425 -0.2121 -0.3422
 2630Sol     HW13544   0.559   1.768   5.656 -0.9337 -1.3062  0.3421
 2630Sol     HW13545   0.462   1.873   5.607 -1.2889 -1.6818  0.2388
 2630Sol     MW13546   0.512   1.842   5.675 -0.0896  0.0591  0.1387
 2631Sol     OW13547   1.270   3.061   6.108  0.5272 -0.4639 -0.4406
 2631Sol     HW13548   1.297   2.983   6.157  0.0630 -0.5417 -0.3131
 2631Sol     HW13549   1.262   3.030   6.018  0.7902 -0.4555 -0.4698
 2631Sol     MW13550   1.272   3.051   6.104  0.0349  0.5084 -0.1455
 2632Sol     OW13551   0.518   1.026   7.251 -0.3731 -0.5734  0.2048
 2632Sol     HW13552   0.519   0.956   7.186 -0.5507 -0.0977 -0.3146
 2632Sol     HW13553   0.609   1.036   7.278  0.6300  2.8622 -3.9162
 2632Sol     MW13554   0.526   1.021   7.247 -0.5150  0.1218  1.4276
 2633Sol     OW13555   0.903   1.898   3.372  0.0596 -0.0811 -0.4755
 2633Sol     HW13556   0.921   1.876   3.281  0.4810 -0.3305 -0.3340
 2633Sol     HW13557   0.876   1.815   3.412  0.3123 -0.0644 -0.2674
 2633Sol     MW13558   0.902   1.888   3.368  0.3143  0.0413  0.5925
 2634Sol     OW13559   0.976   2.518   2.557  0.1735 -0.0152  0.3894
 2634Sol     HW13560   1.013   2.534   2.643  0.8461 -0.4774  0.1911
 2634Sol     HW13561   0.935   2.600   2.532 -0.0360  0.1162  1.1565
 2634Sol     MW13562   0.975   2.526   2.562  0.2091  0.3481  0.3251
 2635Sol     OW13563   2.844   2.891   7.631 -0.1603  0.0711  0.1411
 2635Sol     HW13564   2.801   2.805   7.636 -0.5349  0.1707 -1.1849
 2635Sol     HW13565   2.877   2.896   7.541  0.7168  0.9150  0.5063
 2635Sol     MW13566   2.843   2.884   7.623 -0.4013 -0.7441  1.1864
 2636Sol     OW13567   3.173   2.938   6.895 -0.1049 -0.1195 -0.2080
 2636Sol     HW13568   3.114   2.893   6.836  0.4167  0.3751 -1.1169
 2636Sol     HW13569   3.133   3.024   6.910 -0.6035 -0.5153  0.7381
 2636Sol     MW13570   3.164   2.942   6.891  0.1198  0.8303 -0.4013
 2637Sol     OW13571   1.137   3.006   7.157  0.5936  0.3636  0.2467
 2637Sol     HW13572   1.093   2.950   7.221  0.5890  1.3598  1.1437
 2637Sol     HW13573   1.186   2.946   7.101 -0.5484 -0.6232  0.3071
 2637Sol     MW13574   1.138   2.996   7.158  1.2472 -0.2704 -0.1740
 2638Sol     OW13575   0.838   0.585   1.593  0.2014  0.3573  0.2631
 2638Sol     HW13576   0.760   0.609   1.543  1.0487  2.3861 -0.1222
 2638Sol     HW13577   0.877   0.514   1.542 -0.2766  0.7250 -0.6278
 2638Sol     MW13578   0.834   0.581   1.584 -0.3635  1.0331  0.2715
 2639Sol     OW13579   3.183   0.675   7.298 -0.6492 -0.5097 -0.2295
 2639Sol     HW13580   3.225   0.670   7.213 -2.6673  0.9894 -1.3624
 2639Sol     HW13581   3.169   0.769   7.313 -0.2233 -0.7447  1.8020
 2639Sol     MW13582   3.185   0.683   7.292  0.1782  0.0230 -0.1247
 2640Sol     OW13583   2.578   2.155   6.831 -0.2699 -0.4834 -0.1816
 2640Sol     HW13584   2.650   2.156   6.894 -0.0817 -1.0557 -0.3875
 2640Sol     HW13585   2.555   2.247   6.821 -0.3075 -0.3832  0.7313
 2640Sol     MW13586   2.583   2.164   6.836  0.3421  0.6408  0.1614
 2641Sol     OW13587   2.309   2.559   8.510 -0.1087 -0.0213  0.0166
 2641Sol     HW13588   2.351   2.475   8.526  0.6942  0.5348  0.8449
 2641Sol     HW13589   2.227   2.536   8.465  0.6330 -1.1593 -0.7697
 2641Sol     MW13590   2.305   2.549   8.507 -0.3244 -0.0139 -0.9473
 2642Sol     OW13591   1.477   3.418   4.584  0.6082  0.1583  0.2821
 2642Sol     HW13592   1.532   3.488   4.620  0.5964 -0.2489  1.1112
 2642Sol     HW13593   1.520   3.337   4.611  0.3696 -0.1594 -0.2755
 2642Sol     MW13594   1.485   3.417   4.590  0.2505  0.2990  0.3977
 2643Sol     OW13595   0.138   1.270   3.893 -0.2119 -0.3583 -0.0137
 2643Sol     HW13596   0.070   1.300   3.953  0.2230  0.8202 -0.0764
 2643Sol     HW13597   0.123   1.321   3.812  0.5233 -0.3303 -0.1389
 2643Sol     MW13598   0.131   1.277   3.891  0.6744 -0.9424  0.5548
 2644Sol     OW13599   0.217   1.606   2.205 -0.4123  0.2885  0.1576
 2644Sol     HW13600   0.193   1.676   2.266 -1.0255 -0.7905  1.1675
 2644Sol     HW13601   0.217   1.648   2.119 -0.3475  1.6302  0.7984
 2644Sol     MW13602   0.215   1.616   2.202 -0.9966 -0.2350 -0.0758
 2645Sol     OW13603   0.594   2.412   3.482 -0.2980  0.1654 -0.3444
 2645Sol     HW13604   0.650   2.460   3.421  0.9327 -2.0130 -0.9547
 2645Sol     HW13605   0.511   2.400   3.435 -0.1751  0.5717 -0.6660
 2645Sol     MW13606   0.591   2.415   3.473  0.5837 -0.4289  0.5499
 2646Sol     OW13607   1.934   1.837   1.363  0.1602 -0.2715 -0.7738
 2646Sol     HW13608   1.902   1.813   1.450  1.3695 -1.8184 -0.7217
 2646Sol     HW13609   1.856   1.840   1.308 -0.3370 -1.9509 -0.2014
 2646Sol     MW13610   1.924   1.835   1.366 -0.2194  0.8269 -1.1602
 2647Sol     OW13611   1.547   0.506   5.060 -0.1111 -0.5592  0.2162
 2647Sol     HW13612   1.586   0.540   4.980  0.8763 -2.2335 -0.0329
 2647Sol     HW13613   1.578   0.565   5.129  0.4900 -0.1509 -0.3992
 2647Sol     MW13614   1.553   0.514   5.059  0.8156  0.8455  0.4949
 2648Sol     OW13615   0.874   0.901   2.627 -0.3111  0.0294 -0.0658
 2648Sol     HW13616   0.951   0.878   2.574 -0.4466  0.1422 -0.3143
 2648Sol     HW13617   0.910   0.924   2.713 -0.2088 -1.5267  0.3174
 2648Sol     MW13618   0.885   0.901   2.630 -0.5817 -0.0081  0.3317
 2649Sol     OW13619   0.351   2.443   6.219 -0.1981 -0.6522  0.7054
 2649Sol     HW13620   0.364   2.358   6.178 -0.8758 -1.2457  1.6884
 2649Sol     HW13621   0.283   2.428   6.285 -0.8611  0.8089  0.3891
 2649Sol     MW13622   0.346   2.434   6.222 -0.1566 -0.7045  0.5490
 2650Sol     OW13623   0.684   0.658   3.007 -0.0315 -0.7912  0.0251
 2650Sol     HW13624   0.652   0.581   2.959 -0.0814 -1.4255  1.0579
 2650Sol     HW13625   0.718   0.622   3.089  0.8001  0.1950  0.1153
 2650Sol     MW13626   0.684   0.648   3.010 -0.8711  0.0329 -0.0201
 2651Sol     OW13627   0.445   2.277   8.930  0.2113  0.0281 -0.3836
 2651Sol     HW13628   0.435   2.194   8.883  1.2719  0.2563 -1.0189
 2651Sol     HW13629   0.400   2.262   9.013 -0.4478 -0.8564 -0.8857
 2651Sol     MW13630   0.440   2.268   8.933 -0.5764  0.6223 -0.5020
 2652Sol     OW13631   0.725   1.156   4.572 -0.8562 -0.6985  0.2786
 2652Sol     HW13632   0.679   1.213   4.511  0.0279 -0.9067 -0.6119
 2652Sol     HW13633   0.715   1.198   4.657  0.6075  1.3254 -0.5076
 2652Sol     MW13634   0.720   1.165   4.574  0.2957  0.6181  0.5896
 2653Sol     OW13635   2.936   1.249   9.865  0.3526  0.1337 -0.3307
 2653Sol     HW13636   2.884   1.225   9.788 -2.1556  1.1889  0.9811
 2653Sol     HW13637   2.919   1.179   9.928  0.9365  0.2399 -0.0463
 2653Sol     MW13638   2.930   1.241   9.863 -0.0203 -0.6409  0.1380
 2654Sol     OW13639   2.021   2.936   6.248 -0.0139  0.0215 -0.6039
 2654Sol     HW13640   2.063   2.865   6.198  0.0750  0.6843 -1.4814
 2654Sol     HW13641   2.056   3.016   6.209  1.2388  0.5535  1.5395
 2654Sol     MW13642   2.028   2.937   6.240 -0.0451 -0.4161  0.0377
 2655Sol     OW13643   1.429   0.957   1.802 -0.0862 -0.1034 -0.3153
 2655Sol     HW13644   1.445   0.896   1.730 -0.8955  0.0623 -0.6380
 2655Sol     HW13645   1.392   1.035   1.760 -0.8018 -0.1053  0.3168
 2655Sol     MW13646   1.427   0.959   1.792 -0.1698  0.9319  0.3093
 2656Sol     OW13647   2.838   2.772   4.453  0.0951 -0.2201 -0.5485
 2656Sol     HW13648   2.826   2.794   4.361 -0.3740  0.1344 -0.4031
 2656Sol     HW13649   2.802   2.846   4.501  1.2551  0.0673 -0.0842
 2656Sol     MW13650   2.834   2.781   4.449 -0.4408 -0.9846  0.2963
 2657Sol     OW13651   1.175   0.560   6.646 -0.3917 -1.3410  0.4012
 2657Sol     HW13652   1.131   0.516   6.719 -0.8769 -1.1922  0.2018
 2657Sol     HW13653   1.237   0.495   6.612 -1.1338 -1.8937  0.0805
 2657Sol     MW13654   1.177   0.551   6.649 -0.6836  0.1544 -0.6045
 2658Sol     OW13655   3.242   1.577   5.555 -0.1345  0.1055 -0.0198
 2658Sol     HW13656   3.252   1.664   5.517  2.0915  0.1023  0.5158
 2658Sol     HW13657   3.153   1.550   5.529 -0.9936  2.6542  0.1015
 2658Sol     MW13658   3.235   1.583   5.549  0.3713  0.3720  0.3772
 2659Sol     OW13659   0.340   2.484   1.845  0.0537 -0.1179  0.1842
 2659Sol     HW13660   0.430   2.455   1.827  1.0044  1.3500  2.3404
 2659Sol     HW13661   0.320   2.544   1.774  0.1084 -1.7667 -1.2703
 2659Sol     MW13662   0.346   2.487   1.837  0.3800  0.0290  0.1066
 2660Sol     OW13663   0.408   0.117   1.541 -0.0604 -0.2249 -0.0801
 2660Sol     HW13664   0.431   0.030   1.511  1.3799  0.0184  0.2846
 2660Sol     HW13665   0.345   0.102   1.612 -0.6987 -0.9103 -0.7762
 2660Sol     MW13666   0.404   0.108   1.545  0.3848  0.9393 -0.5304
 2661Sol     OW13667   2.541   1.288   2.320 -0.7432  0.2614 -0.3000
 2661Sol     HW13668   2.454   1.320   2.345 -0.0679  0.5500  1.8651
 2661Sol     HW13669   2.600   1.330   2.383  0.8865 -0.4776 -1.3006
 2661Sol     MW13670   2.539   1.295   2.328  0.6176 -0.0135 -0.1590
 2662Sol     OW13671   2.184   0.610   5.169 -0.6829 -0.2186  0.8964
 2662Sol     HW13672   2.188   0.683   5.107 -0.4711 -1.0870 -0.1373
 2662Sol     HW13673   2.273   0.577   5.173 -0.7271 -0.2661  1.5615
 2662Sol     MW13674   2.192   0.614   5.164  0.3584 -0.1783 -0.2379
 2663Sol     OW13675   2.892   3.194   3.798  0.2202 -0.0986 -0.8566
 2663Sol     HW13676   2.936   3.120   3.838  1.0453 -0.2751 -2.0662
 2663Sol     HW13677   2.803   3.192   3.834  1.1210  0.1589  1.4786
 2663Sol     MW13678   2.888   3.188   3.805 -0.4715 -0.5422 -0.1368
 2664Sol     OW13679   2.359   2.486   4.546 -0.1051 -0.1868  0.1852
 2664Sol     HW13680   2.441   2.535   4.551  0.4727 -1.2292  1.1460
 2664Sol     HW13681   2.349   2.446   4.632 -1.3983 -0.4315 -0.0665
 2664Sol     MW13682   2.366   2.487   4.554  0.2901 -0.1067 -0.3420
 2665Sol     OW13683   2.411   3.281   3.778  0.0837  0.0379  0.1033
 2665Sol     HW13684   2.356   3.320   3.845 -2.0868 -1.4598 -0.7576
 2665Sol     HW13685   2.435   3.354   3.720  1.6277  1.2529  2.2244
 2665Sol     MW13686   2.408   3.291   3.779  0.4693  0.4387  0.7762
 2666Sol     OW13687   1.863   2.615   2.672  0.3401 -0.1419 -0.6228
 2666Sol     HW13688   1.768   2.615   2.683  0.1609  0.6830 -2.0033
 2666Sol     HW13689   1.893   2.536   2.716 -0.7835  0.5540  1.4374
 2666Sol     MW13690   1.858   2.608   2.677 -0.6323  0.2174 -0.4009
 2667Sol     OW13691   2.439   1.806   3.785 -0.0754 -0.0628  0.1446
 2667Sol     HW13692   2.531   1.828   3.769  0.0121  0.4412  1.2579
 2667Sol     HW13693   2.420   1.845   3.870 -1.2237 -0.4714  0.0830
 2667Sol     MW13694   2.445   1.811   3.792 -0.7269  0.4748  0.2564
 2668Sol     OW13695   0.462   1.155   4.008 -0.2275  0.0076 -0.4188
 2668Sol     HW13696   0.518   1.145   3.931 -1.6362  1.6712 -1.6991
 2668Sol     HW13697   0.433   1.246   4.005 -2.0598 -0.5057  0.8805
 2668Sol     MW13698   0.464   1.162   4.001 -0.0405 -0.3667 -0.4272
 2669Sol     OW13699   2.748   3.145   7.695 -0.0003  0.5215  0.0190
 2669Sol     HW13700   2.799   3.069   7.667  0.7326  1.2415 -0.6224
 2669Sol     HW13701   2.812   3.205   7.731 -0.2799  1.7667 -1.5142
 2669Sol     MW13702   2.758   3.143   7.696 -0.2989  0.5900  0.0640
 2670Sol     OW13703   1.998   2.165   2.085 -0.4708  0.1597  0.0991
 2670Sol     HW13704   2.014   2.163   1.991  0.2606 -0.2370  0.2305
 2670Sol     HW13705   1.905   2.186   2.093 -1.0602 -2.0373 -0.7504
 2670Sol     MW13706   1.991   2.167   2.078 -0.4759 -0.4383  0.6185
 2671Sol     OW13707   2.410   2.002   9.061  0.7278  0.4561  0.5616
 2671Sol     HW13708   2.408   2.094   9.037  0.9424  0.2437 -0.2975
 2671Sol     HW13709   2.327   1.986   9.105 -0.6341  0.3592 -1.9439
 2671Sol     MW13710   2.403   2.009   9.063  0.3678  0.2853 -0.1280
 2672Sol     OW13711   0.045   2.564   8.571  0.5650  0.3213  0.1925
 2672Sol     HW13712   0.073   2.557   8.662  0.1297  0.3246  0.3264
 2672Sol     HW13713  -0.032   2.621   8.573 -1.0888 -1.8173  0.1913
 2672Sol     MW13714   0.041   2.568   8.579 -1.0227 -0.6362  0.4413
 2673Sol     OW13715   2.651   0.901   5.452 -0.4296 -0.0713 -0.4831
 2673Sol     HW13716   2.635   0.845   5.528 -0.3002  1.0872  0.4277
 2673Sol     HW13717   2.582   0.967   5.457  0.8344  1.2458 -0.1431
 2673Sol     MW13718   2.644   0.902   5.460  0.8072  0.0033  0.3662
 2674Sol     OW13719   1.443   1.835   3.270 -0.1432  0.1426  0.0905
 2674Sol     HW13720   1.460   1.869   3.182  0.1319  2.7188  1.0838
 2674Sol     HW13721   1.524   1.790   3.294  0.3949  0.8508 -0.3493
 2674Sol     MW13722   1.452   1.834   3.264  0.7660  0.0177  0.7872
 2675Sol     OW13723   1.862   1.959   4.681 -0.0083 -0.2688 -0.0038
 2675Sol     HW13724   1.908   2.004   4.752  0.4778 -0.2059 -0.3607
 2675Sol     HW13725   1.835   2.029   4.622  0.0989 -0.3814 -0.1826
 2675Sol     MW13726   1.863   1.969   4.682 -0.6582  0.3398 -0.1661
 2676Sol     OW13727   1.942   2.794   2.940 -0.2039  0.8699  0.3317
 2676Sol     HW13728   1.953   2.830   3.028  0.5258 -1.2880  1.1628
 2676Sol     HW13729   1.948   2.699   2.952 -1.9345  0.4481 -1.7996
 2676Sol     MW13730   1.943   2.788   2.949  0.8896  0.0255  0.3199
 2677Sol     OW13731   0.650   2.490   7.857 -0.0137  0.7687  0.4951
 2677Sol     HW13732   0.589   2.452   7.794  0.6923 -0.4065  0.5071
 2677Sol     HW13733   0.687   2.567   7.812 -0.8022  0.9369  0.1375
 2677Sol     MW13734   0.648   2.494   7.847 -1.3569  0.2066 -0.0005
 2678Sol     OW13735   0.422   1.890   3.512  0.2049  1.0080  0.1517
 2678Sol     HW13736   0.404   1.967   3.458 -0.8527  0.1306 -0.7750
 2678Sol     HW13737   0.515   1.897   3.534  0.6324  1.4460 -1.6947
 2678Sol     MW13738   0.429   1.897   3.509 -0.5274  0.2192  0.3579
 2679Sol     OW13739   2.955   0.123   4.075 -0.1028  0.4645 -0.0578
 2679Sol     HW13740   3.019   0.165   4.132  1.0091  1.9660 -2.3541
 2679Sol     HW13741   3.006   0.057   4.028 -1.0158 -0.7577  0.6352
 2679Sol     MW13742   2.966   0.121   4.076  0.2907  0.7081 -0.3672
 2680Sol     OW13743   2.342   1.376   5.881 -0.3394  0.0233 -0.0614
 2680Sol     HW13744   2.259   1.332   5.863 -1.4016  1.7800  0.3366
 2680Sol     HW13745   2.340   1.394   5.975  1.6174 -2.0963  0.4164
 2680Sol     MW13746   2.335   1.374   5.887 -0.8094 -0.5330  0.5954
 2681Sol     OW13747   0.978   2.179   5.872  0.0567  0.1755  0.1246
 2681Sol     HW13748   0.901   2.216   5.914 -0.0358 -0.7146  0.7669
 2681Sol     HW13749   1.025   2.134   5.943  1.6928  1.5468 -0.0614
 2681Sol     MW13750   0.975   2.178   5.882  0.2450 -0.0037 -1.0684
 2682Sol     OW13751   0.508   3.419   6.081 -0.2423 -0.0511 -0.3101
 2682Sol     HW13752   0.496   3.367   6.002  0.1856  0.1985 -0.5439
 2682Sol     HW13753   0.481   3.362   6.153 -0.1206 -0.4666 -0.5980
 2682Sol     MW13754   0.505   3.409   6.081  0.7941 -0.1554  0.2225
 2683Sol     OW13755   1.102   3.195   6.283 -0.1401 -0.0727  0.6368
 2683Sol     HW13756   1.168   3.216   6.350 -0.3109 -1.2864  1.2017
 2683Sol     HW13757   1.153   3.160   6.210 -0.0511  0.1591  0.5872
 2683Sol     MW13758   1.113   3.193   6.283  0.1979  0.0226 -0.1914
 2684Sol     OW13759   0.767   2.291   7.069 -0.3530 -0.3124 -0.2345
 2684Sol     HW13760   0.728   2.373   7.039  1.0509  0.4754  0.0916
 2684Sol     HW13761   0.692   2.241   7.102 -1.1712  0.9622 -0.1059
 2684Sol     MW13762   0.757   2.294   7.069  0.4953 -0.0913  0.0309
 2685Sol     OW13763   1.713   2.114   9.121 -0.4145 -0.1752 -0.1442
 2685Sol     HW13764   1.669   2.148   9.198  0.6673  1.9809 -0.4246
 2685Sol     HW13765   1.695   2.178   9.052  1.7217 -0.1079 -0.6883
 2685Sol     MW13766   1.708   2.123   9.121 -1.0365 -0.6314 -0.5885
 2686Sol     OW13767   3.184   0.490   3.521  0.0043  0.3036  0.1527
 2686Sol     HW13768   3.260   0.483   3.579  1.1461 -0.8165 -1.4052
 2686Sol     HW13769   3.113   0.519   3.577  1.4859  0.9274  1.7475
 2686Sol     MW13770   3.185   0.492   3.531 -0.6638  0.3009 -0.7037
 2687Sol     OW13771   2.314   1.392   1.681  0.0794  0.1343 -0.1867
 2687Sol     HW13772   2.369   1.360   1.753 -0.0398  0.6871  0.1544
 2687Sol     HW13773   2.309   1.319   1.620 -0.6197 -0.6970  0.8458
 2687Sol     MW13774   2.318   1.383   1.682  0.5317 -0.1997 -0.3328
 2688Sol     OW13775   0.328   0.784   8.368  0.2255 -0.4302  0.3721
 2688Sol     HW13776   0.328   0.877   8.350 -1.4269 -0.5389 -0.3528
 2688Sol     HW13777   0.351   0.743   8.285 -1.8895 -0.7335 -0.1131
 2688Sol     MW13778   0.330   0.788   8.359  0.0678 -0.8753 -0.6529
 2689Sol     OW13779   1.064   0.874   3.594 -0.1146  0.0542 -0.1975
 2689Sol     HW13780   1.049   0.904   3.504  1.7690 -1.2039 -0.9551
 2689Sol     HW13781   1.093   0.952   3.641 -1.8360  0.8922 -0.4581
 2689Sol     MW13782   1.065   0.884   3.590 -0.4064  0.3197  0.7628
 2690Sol     OW13783   1.731   1.141   3.173 -0.0282  0.3319  0.4268
 2690Sol     HW13784   1.654   1.189   3.204 -0.7174 -0.3485 -0.2133
 2690Sol     HW13785   1.753   1.082   3.246  0.8933  1.6734  1.2646
 2690Sol     MW13786   1.726   1.140   3.183  0.0628 -0.1961 -1.6207
 2691Sol     OW13787   2.142   0.154   6.066 -0.0164 -0.0826 -1.0276
 2691Sol     HW13788   2.161   0.119   5.979 -0.9082  0.0320 -1.2763
 2691Sol     HW13789   2.052   0.125   6.083  0.3681 -0.6195  0.1090
 2691Sol     MW13790   2.136   0.148   6.060 -0.5653 -0.8134  0.1870
 2692Sol     OW13791   0.306   3.376   9.880  0.0793 -0.0493  0.0581
 2692Sol     HW13792   0.297   3.365   9.785  0.8901  1.0337 -0.1623
 2692Sol     HW13793   0.217   3.366   9.914 -0.3427  0.3262 -0.9077
 2692Sol     MW13794   0.297   3.374   9.874 -0.6875  0.2105 -0.6808
 2693Sol     OW13795   3.300   3.188   3.277 -1.1921 -0.2651 -0.8570
 2693Sol     HW13796   3.254   3.261   3.235 -0.8498  0.3198 -0.2283
 2693Sol     HW13797   3.321   3.128   3.205  1.1042  1.6352 -1.8495
 2693Sol     MW13798   3.298   3.189   3.266 -0.4602 -0.7799 -0.3059
 2694Sol     OW13799   1.248   0.577   3.877 -0.3663  0.6922  0.6833
 2694Sol     HW13800   1.314   0.611   3.938  1.6892 -0.9065 -0.5550
 2694Sol     HW13801   1.209   0.503   3.922 -0.7693  1.1734  1.1243
 2694Sol     MW13802   1.251   0.574   3.886  0.2150  0.2235  0.0208
 2695Sol     OW13803   1.697   0.213   1.662  0.0771 -0.4303  0.2518
 2695Sol     HW13804   1.787   0.207   1.694  1.8240 -0.8213 -4.3018
 2695Sol     HW13805   1.681   0.307   1.653  0.9165 -0.4089 -1.1263
 2695Sol     MW13806   1.704   0.221   1.664  0.2527 -0.7090 -0.7993
 2696Sol     OW13807   0.797   0.009   5.158 -0.6894  0.1234  0.2614
 2696Sol     HW13808   0.783   0.102   5.144 -0.3207 -0.0312 -1.2008
 2696Sol     HW13809   0.756  -0.034   5.083  1.2449 -0.7447 -0.3326
 2696Sol     MW13810   0.792   0.013   5.150 -0.0511 -0.5222  0.8687
 2697Sol     OW13811   0.556   1.777   5.050  0.2796 -0.1993 -0.0526
 2697Sol     HW13812   0.546   1.795   5.144 -2.2114  3.2286 -0.8633
 2697Sol     HW13813   0.490   1.710   5.032 -0.5500  0.5056  0.3089
 2697Sol     MW13814   0.549   1.773   5.057 -0.0757 -0.6277 -0.1573
 2698Sol     OW13815   2.046   0.023   8.491 -0.1994  0.0083 -0.2370
 2698Sol     HW13816   1.952   0.009   8.502 -0.3243  1.3136  0.4254
 2698Sol     HW13817   2.087  -0.048   8.542 -0.8294  1.8084  2.9471
 2698Sol     MW13818   2.041   0.015   8.497 -0.4384 -0.2556  0.5965
 2699Sol     OW13819   1.717   1.457   4.604 -0.4303  0.3053  0.5077
 2699Sol     HW13820   1.738   1.546   4.632  2.5782  0.0625 -0.8421
 2699Sol     HW13821   1.733   1.403   4.682 -1.7266  0.8372  1.1646
 2699Sol     MW13822   1.720   1.460   4.614 -0.1474  0.6844  0.7484
 2700Sol     OW13823   3.091   3.358   8.273 -0.1096  0.1879 -0.1953
 2700Sol     HW13824   3.148   3.435   8.267 -0.9782  0.8385 -0.1426
 2700Sol     HW13825   3.010   3.391   8.312 -1.3045 -0.3073 -2.2051
 2700Sol     MW13826   3.089   3.368   8.276 -0.1134 -1.0433  0.5037
 2701Sol     OW13827   0.584   0.309   4.020 -0.4983  0.3144  0.4547
 2701Sol     HW13828   0.601   0.396   4.056 -2.0502  0.4381  0.9040
 2701Sol     HW13829   0.525   0.268   4.083 -0.8149 -0.5834 -0.4159
 2701Sol     MW13830   0.580   0.313   4.029  0.3452  0.4262 -0.6093
 2702Sol     OW13831   1.150   1.933   9.026 -0.2983  0.2942  0.9358
 2702Sol     HW13832   1.145   1.993   9.100  0.3929  1.7403 -0.1746
 2702Sol     HW13833   1.231   1.957   8.981  1.5756 -3.3784  2.1111
 2702Sol     MW13834   1.157   1.940   9.029 -0.2218  0.1521 -0.1289
 2703Sol     OW13835   2.990   2.108   6.857  0.5863 -0.9523 -0.4305
 2703Sol     HW13836   2.950   2.136   6.939  2.0885  1.6725 -0.5033
 2703Sol     HW13837   2.955   2.169   6.791  2.3538 -0.5117 -0.9960
 2703Sol     MW13838   2.984   2.116   6.858 -0.8635  0.2058 -0.7817
 2704Sol     OW13839   2.583   3.404   7.011  0.0038  0.8561  0.1974
 2704Sol     HW13840   2.661   3.363   6.973  0.6011  2.3982 -0.2987
 2704Sol     HW13841   2.578   3.366   7.099 -0.2845 -1.2961 -0.7094
 2704Sol     MW13842   2.590   3.397   7.016 -0.8069  0.4923 -0.1006
 2705Sol     OW13843   2.033   1.788   8.742  0.2442  0.4557 -0.6871
 2705Sol     HW13844   1.978   1.791   8.820 -0.3323  0.8867 -1.1023
 2705Sol     HW13845   2.122   1.780   8.776  0.1395  2.1955  0.0621
 2705Sol     MW13846   2.036   1.787   8.752  0.2161 -0.3325 -0.2676
 2706Sol     OW13847   0.291   3.322   2.748  0.0559 -0.0932  0.0231
 2706Sol     HW13848   0.373   3.304   2.702  0.7857 -0.7957  1.5531
 2706Sol     HW13849   0.296   3.268   2.828 -1.4109  0.6809  0.6580
 2706Sol     MW13850   0.299   3.315   2.751 -0.3253  0.1724 -0.6822
 2707Sol     OW13851   0.257   2.136   4.676 -0.2698 -0.1523  0.0916
 2707Sol     HW13852   0.215   2.148   4.761  1.1455 -0.9447  0.9323
 2707Sol     HW13853   0.268   2.225   4.642 -0.0375  0.2348  1.1499
 2707Sol     MW13854   0.255   2.145   4.681  0.7153 -0.8174  0.0635
 2708Sol     OW13855   2.416   3.109   9.813 -0.0153 -0.1230 -0.3750
 2708Sol     HW13856   2.361   3.146   9.882 -0.7766 -1.0986 -0.4390
 2708Sol     HW13857   2.476   3.050   9.860  1.9462  2.0221 -0.1479
 2708Sol     MW13858   2.417   3.107   9.824 -0.8146  0.2026  0.0154
 2709Sol     OW13859   2.908   0.742   7.848 -0.6559  0.1067  0.3037
 2709Sol     HW13860   2.956   0.674   7.800  0.0313 -0.0009  1.1336
 2709Sol     HW13861   2.891   0.703   7.934  0.8608  1.4450  1.2400
 2709Sol     MW13862   2.911   0.732   7.851 -0.3605  0.4958  0.5340
 2710Sol     OW13863   2.638   0.301   7.139 -0.0198 -0.0586  0.6442
 2710Sol     HW13864   2.676   0.324   7.224  1.4771 -0.3354  0.0591
 2710Sol     HW13865   2.575   0.233   7.160 -0.1997  0.3923  1.6322
 2710Sol     MW13866   2.636   0.297   7.149 -0.4998 -0.7756  0.1118
 2711Sol     OW13867   2.673   2.327   7.291 -0.1698  0.1298 -0.4026
 2711Sol     HW13868   2.726   2.405   7.281 -0.6945  0.3432 -1.5548
 2711Sol     HW13869   2.584   2.360   7.306 -0.2525 -0.2406 -0.0580
 2711Sol     MW13870   2.670   2.337   7.291  0.2945  0.0477  0.4327
 2712Sol     OW13871   3.016   0.288   5.475  0.3628 -0.5711 -0.4490
 2712Sol     HW13872   3.106   0.297   5.444  0.3344  1.3250 -0.0021
 2712Sol     HW13873   2.991   0.198   5.451  3.3268 -2.1116  1.9814
 2712Sol     MW13874   3.021   0.281   5.470  0.3119 -0.2493  0.5373
 2713Sol     OW13875   1.124   0.169   9.788 -0.0238 -0.0145  0.0829
 2713Sol     HW13876   1.176   0.249   9.794  0.5839 -0.3706 -0.4321
 2713Sol     HW13877   1.076   0.178   9.705 -1.5168  0.7472  0.9997
 2713Sol     MW13878   1.124   0.177   9.781  0.5838 -0.3328 -0.4317
 2714Sol     OW13879   1.679   0.898   2.595  0.0857 -0.0846  0.7432
 2714Sol     HW13880   1.721   0.972   2.638 -2.9838  0.7107  2.4902
 2714Sol     HW13881   1.688   0.916   2.501 -1.5076  3.0421  1.1531
 2714Sol     MW13882   1.684   0.906   2.590  0.2736 -0.2884  0.0753
 2715Sol     OW13883   3.321   1.821   3.011  0.4393 -0.6810 -0.0638
 2715Sol     HW13884   3.347   1.744   3.062 -0.1649  0.3683  1.8593
 2715Sol     HW13885   3.311   1.891   3.075 -0.3884  0.6725 -1.6171
 2715Sol     MW13886   3.323   1.820   3.021 -0.4810  0.0260  0.2470
 2716Sol     OW13887   3.199   1.617   4.554  0.5148 -0.1070 -0.0359
 2716Sol     HW13888   3.176   1.532   4.593 -0.9214  0.1310 -0.3194
 2716Sol     HW13889   3.204   1.599   4.460  1.2054 -0.0886 -0.0034
 2716Sol     MW13890   3.197   1.608   4.549 -1.3140  0.3397 -0.7731
 2717Sol     OW13891   1.573   0.004   5.644 -0.3073  0.3259 -0.1805
 2717Sol     HW13892   1.558  -0.031   5.732 -5.3978 -0.0457 -1.0585
 2717Sol     HW13893   1.565   0.099   5.654 -1.2367  0.2598 -0.3135
 2717Sol     MW13894   1.571   0.009   5.653  0.1455 -0.4558 -0.2764
 2718Sol     OW13895   1.832   0.293   4.773 -0.0851 -0.0731 -0.2509
 2718Sol     HW13896   1.854   0.290   4.866  0.9281  0.6373 -0.4642
 2718Sol     HW13897   1.916   0.284   4.728 -0.6745 -1.4097 -1.1119
 2718Sol     MW13898   1.841   0.292   4.778  0.2060 -0.6540  0.1696
 2719Sol     OW13899   0.090   2.745   5.924 -0.4168  0.1768  0.1551
 2719Sol     HW13900   0.127   2.714   6.007 -2.3004  0.5674  1.1708
 2719Sol     HW13901   0.162   2.793   5.883  1.0829 -1.4999  0.7434
 2719Sol     MW13902   0.100   2.747   5.928 -0.8793 -0.0524  0.4590
 2720Sol     OW13903   2.831   1.368   2.688  0.2558 -0.2327 -0.4969
 2720Sol     HW13904   2.771   1.404   2.623 -0.3983 -0.5625 -0.0861
 2720Sol     HW13905   2.791   1.284   2.713  0.1321  0.2172  0.8346
 2720Sol     MW13906   2.822   1.364   2.685  0.3800 -0.5521 -0.3207
 2721Sol     OW13907   2.574   0.989   8.592 -0.0742 -0.0932 -0.0684
 2721Sol     HW13908   2.536   1.073   8.568 -0.3118 -0.0644  0.4034
 2721Sol     HW13909   2.667   0.997   8.570 -0.2513 -0.0041 -0.7947
 2721Sol     MW13910   2.579   0.997   8.588  0.2270  0.6617 -0.0058
 2722Sol     OW13911   1.472   1.572   4.139  0.5387  0.2612  0.2058
 2722Sol     HW13912   1.431   1.612   4.216 -0.9881  0.8083 -0.8721
 2722Sol     HW13913   1.437   1.483   4.137 -0.5149  0.6874 -0.6412
 2722Sol     MW13914   1.466   1.568   4.146 -0.2806 -0.2467 -0.8230
 2723Sol     OW13915   1.793   0.588   8.274 -0.2084 -0.5202 -0.0604
 2723Sol     HW13916   1.850   0.516   8.246 -1.6016 -1.2989 -0.8939
 2723Sol     HW13917   1.794   0.650   8.201  1.8432  0.8771  1.0710
 2723Sol     MW13918   1.798   0.587   8.265  0.1672  0.8054 -0.4289
 2724Sol     OW13919   1.366   1.957   6.112  0.0776  0.1039 -0.2561
 2724Sol     HW13920   1.277   1.992   6.112  0.6961  1.7551  0.6422
 2724Sol     HW13921   1.356   1.866   6.139 -1.1307  0.8704  1.9986
 2724Sol     MW13922   1.357   1.952   6.115 -0.3778  0.0624 -0.5312
 2725Sol     OW13923   0.530   0.095   6.841 -0.3030 -0.8321 -0.0494
 2725Sol     HW13924   0.548   0.113   6.933  1.3324  1.2849 -0.7358
 2725Sol     HW13925   0.435   0.103   6.833 -0.4796 -1.2318  1.4784
 2725Sol     MW13926   0.523   0.097   6.848 -0.3529  0.2705  0.0976
 2726Sol     OW13927   0.160   3.316   8.247 -0.3976  0.2985  0.2719
 2726Sol     HW13928   0.249   3.304   8.280 -0.8230 -0.2530  1.2291
 2726Sol     HW13929   0.104   3.288   8.319 -1.3428 -0.1506 -0.6348
 2726Sol     MW13930   0.163   3.313   8.256  0.3237 -0.0076 -0.0332
 2727Sol     OW13931   0.725   2.231   4.435 -0.0597 -0.1169 -0.4871
 2727Sol     HW13932   0.806   2.278   4.452  0.6563 -0.7717 -2.0084
 2727Sol     HW13933   0.740   2.187   4.351 -1.1446 -2.0785  0.3230
 2727Sol     MW13934   0.734   2.231   4.429  0.6225  1.1559 -0.2603
 2728Sol     OW13935   3.102   0.613   9.256 -0.5571 -0.2406 -0.1015
 2728Sol     HW13936   3.113   0.681   9.322  0.5344 -0.7657  0.2625
 2728Sol     HW13937   3.051   0.545   9.300  0.1844 -0.5979  0.2084
 2728Sol     MW13938   3.098   0.613   9.266  0.1147  0.9584 -0.7642
 2729Sol     OW13939   2.887   1.235   3.430 -0.2013 -0.2273 -0.0537
 2729Sol     HW13940   2.850   1.291   3.361 -3.5276 -1.7565  0.4037
 2729Sol     HW13941   2.952   1.181   3.385 -1.3323 -0.2171 -1.7273
 2729Sol     MW13942   2.890   1.235   3.420  0.0679  0.4765 -0.4168
 2730Sol     OW13943   2.361   2.051   4.776  0.1201  0.2819  0.0018
 2730Sol     HW13944   2.321   1.988   4.836  0.3066  0.8431  0.7194
 2730Sol     HW13945   2.359   2.007   4.691  0.7372 -0.9182  0.5891
 2730Sol     MW13946   2.358   2.041   4.774 -0.8100  0.5002 -0.0997
 2731Sol     OW13947   1.934   2.508   4.192 -0.1365 -0.4760 -0.4911
 2731Sol     HW13948   1.857   2.516   4.135  1.0137 -0.2670 -2.0552
 2731Sol     HW13949   1.991   2.580   4.165 -0.4382  0.8552  2.3350
 2731Sol     MW13950   1.932   2.515   4.184  0.5448 -0.4515 -0.5285
 2732Sol     OW13951   2.722   2.504   9.007  0.3341  0.1465  0.1351
 2732Sol     HW13952   2.799   2.480   8.955  0.2759 -1.3243  0.7121
 2732Sol     HW13953   2.664   2.549   8.945  0.0603 -1.9904 -1.2035
 2732Sol     MW13954   2.724   2.506   8.997 -0.5802 -0.3739  0.6391
 2733Sol     OW13955   0.642   2.242   8.719 -0.7113 -0.1537 -0.3075
 2733Sol     HW13956   0.579   2.290   8.773 -1.2805  0.7161 -1.6825
 2733Sol     HW13957   0.724   2.247   8.767 -0.6521  2.6291 -0.6136
 2733Sol     MW13958   0.644   2.247   8.728 -0.6070  0.5041 -0.5939
 2734Sol     OW13959   3.068   1.944   5.536 -0.0075  0.4697  0.7193
 2734Sol     HW13960   3.100   1.933   5.626 -0.8430 -0.5669  0.9070
 2734Sol     HW13961   3.123   1.885   5.484 -0.7903 -0.4097  0.8627
 2734Sol     MW13962   3.076   1.938   5.539  0.1429 -0.4150  0.3779
 2735Sol     OW13963   2.523   3.448   5.644  0.6608 -0.1984  0.2694
 2735Sol     HW13964   2.449   3.505   5.626  1.2904  0.9102  1.0793
 2735Sol     HW13965   2.484   3.369   5.681 -0.1117  0.4228  0.8106
 2735Sol     MW13966   2.513   3.446   5.646  0.0045 -0.1689  1.5491
 2736Sol     OW13967   3.198   0.490   2.810  0.2521  0.3082  0.0998
 2736Sol     HW13968   3.274   0.544   2.791 -0.4270  0.9244 -0.9262
 2736Sol     HW13969   3.173   0.515   2.899  0.9079  0.4993  0.2338
 2736Sol     MW13970   3.202   0.497   2.816 -0.6212 -0.3170 -0.3489
 2737Sol     OW13971   1.785   0.079   8.433 -0.7440 -0.4476  0.3936
 2737Sol     HW13972   1.767   0.171   8.416  0.7467  0.2465  2.3518
 2737Sol     HW13973   1.703   0.046   8.471 -1.7789 -0.3288 -1.6901
 2737Sol     MW13974   1.776   0.084   8.435 -0.3350  0.2932  0.0324
 2738Sol     OW13975   0.930   0.312   4.312 -0.4893 -0.2970  0.3873
 2738Sol     HW13976   0.937   0.230   4.264 -0.7772 -0.4875  0.6712
 2738Sol     HW13977   1.017   0.327   4.348  0.1429  0.6185 -1.4606
 2738Sol     MW13978   0.938   0.306   4.311  0.3538  0.4871 -0.4165
 2739Sol     OW13979   1.650   0.415   5.845  0.4493 -0.1490  0.2909
 2739Sol     HW13980   1.743   0.416   5.822  0.3742  1.5197 -0.0266
 2739Sol     HW13981   1.638   0.493   5.899 -1.3645  1.3556 -2.1828
 2739Sol     MW13982   1.657   0.422   5.848  0.7102 -0.2089 -0.3635
 2740Sol     OW13983   3.306   0.202   3.954 -0.5075 -0.3749  0.0114
 2740Sol     HW13984   3.382   0.184   3.900  0.4076 -0.6791  1.3656
 2740Sol     HW13985   3.305   0.131   4.018 -2.5971 -1.0026 -0.6964
 2740Sol     MW13986   3.313   0.194   3.955  0.4237 -0.2924 -0.3199
 2741Sol     OW13987   0.984   1.404   9.574  0.1128 -0.1248  0.1444
 2741Sol     HW13988   1.073   1.370   9.574  0.8941  1.8774 -0.9761
 2741Sol     HW13989   0.989   1.485   9.624 -1.9116 -1.9864  3.5823
 2741Sol     MW13990   0.992   1.408   9.579 -0.5419  0.4394 -0.2124
 2742Sol     OW13991   2.396   2.520   5.439 -0.0802 -0.3243  0.3434
 2742Sol     HW13992   2.454   2.461   5.390  0.2388  0.6789 -0.4872
 2742Sol     HW13993   2.411   2.498   5.531  1.7805  0.0859  0.1482
 2742Sol     MW13994   2.402   2.512   5.443  0.8679  0.0858 -0.7755
 2743Sol     OW13995   2.870   0.700   7.407 -0.0556  0.4701 -0.1912
 2743Sol     HW13996   2.826   0.763   7.350  0.5126  1.0976  0.0690
 2743Sol     HW13997   2.932   0.655   7.349 -0.1274  0.4702 -0.2693
 2743Sol     MW13998   2.872   0.702   7.397 -0.3687 -0.5815  0.2631
 2744Sol     OW13999   0.977   0.293   4.886 -0.2507 -0.7104 -0.4494
 2744Sol     HW14000   0.980   0.387   4.905  0.9313 -0.5155 -1.6072
 2744Sol     HW14001   1.059   0.259   4.920  0.0445 -1.0545 -1.5120
 2744Sol     MW14002   0.984   0.299   4.891 -1.4061  0.2980 -1.3278
 2745Sol     OW14003   2.323   2.226   4.050  0.6684  0.2769  0.5431
 2745Sol     HW14004   2.341   2.278   4.128  1.2831 -1.6672  1.7532
 2745Sol     HW14005   2.401   2.233   3.996  1.3572 -0.5976  1.4139
 2745Sol     MW14006   2.331   2.231   4.052 -0.0544 -0.0658 -0.0918
 2746Sol     OW14007   0.484   2.861   7.825 -0.6657  0.2980  0.1532
 2746Sol     HW14008   0.441   2.804   7.889 -1.9222  1.0574  0.0105
 2746Sol     HW14009   0.469   2.950   7.858  1.3043  0.5560  0.3919
 2746Sol     MW14010   0.479   2.864   7.833  0.1158  0.0791 -0.1037
 2747Sol     OW14011   2.247   2.827   4.490  0.4391 -0.2907 -0.2260
 2747Sol     HW14012   2.251   2.915   4.453  0.5555 -0.0674  0.3055
 2747Sol     HW14013   2.307   2.776   4.436 -1.0607 -0.4972 -1.7131
 2747Sol     MW14014   2.253   2.830   4.482 -0.3330  0.1755 -0.0456
 2748Sol     OW14015   3.064   1.138   7.810  0.0126 -0.1752  0.6849
 2748Sol     HW14016   2.987   1.175   7.854  1.2281  0.2379  2.4732
 2748Sol     HW14017   3.126   1.210   7.805 -0.3999  0.0243 -2.4963
 2748Sol     MW14018   3.062   1.147   7.813 -0.5222 -0.7075 -0.2376
 2749Sol     OW14019   1.729   1.257   8.574 -0.3770  0.1892 -0.6755
 2749Sol     HW14020   1.634   1.250   8.571 -0.2566 -3.9233  1.1935
 2749Sol     HW14021   1.747   1.324   8.640 -1.9835 -0.4186  0.3994
 2749Sol     MW14022   1.722   1.262   8.579  0.2935 -0.4811  0.4608
 2750Sol     OW14023   2.110   3.407   4.960 -0.2841  0.6235  0.1405
 2750Sol     HW14024   2.166   3.353   5.015 -0.0725 -0.6481 -1.3048
 2750Sol     HW14025   2.021   3.375   4.977 -0.2470  0.4370 -0.0078
 2750Sol     MW14026   2.107   3.400   4.966  0.3574 -0.6848 -0.5063
 2751Sol     OW14027   3.159   2.383   8.552  0.3081 -0.1209  0.3584
 2751Sol     HW14028   3.079   2.436   8.552  0.1102 -0.3720  2.2829
 2751Sol     HW14029   3.230   2.447   8.554  0.0922  0.1045  1.2542
 2751Sol     MW14030   3.158   2.394   8.552  0.1046 -0.5404  0.1292
 2752Sol     OW14031   2.299   0.319   9.199 -0.6655  0.7475 -0.5052
 2752Sol     HW14032   2.392   0.296   9.207 -0.6439  0.7156 -0.8792
 2752Sol     HW14033   2.299   0.414   9.194 -0.6875  0.7762  0.0082
 2752Sol     MW14034   2.308   0.325   9.200 -0.3203  0.7293  0.5253
 2753Sol     OW14035   0.152   2.631   8.861  0.5532 -0.1835  0.1452
 2753Sol     HW14036   0.115   2.694   8.923  1.2332 -0.9732  1.3647
 2753Sol     HW14037   0.219   2.681   8.813  1.0897  0.0297  1.1039
 2753Sol     MW14038   0.155   2.642   8.862 -0.7891 -0.4933  0.5995
 2754Sol     OW14039   1.524   0.661   8.277  0.2521  0.1330  0.0608
 2754Sol     HW14040   1.614   0.672   8.306  0.3682  3.1404 -1.2684
 2754Sol     HW14041   1.513   0.725   8.206 -2.4210 -1.3479 -0.9709
 2754Sol     MW14042   1.531   0.667   8.273 -0.0055  0.9115 -0.2650
 2755Sol     OW14043   3.053   0.950   7.345  0.8734  0.1710 -0.9500
 2755Sol     HW14044   3.055   1.045   7.338 -2.0763  0.3576 -0.0886
 2755Sol     HW14045   3.077   0.932   7.436 -2.1181  0.3606 -0.0758
 2755Sol     MW14046   3.055   0.957   7.352 -0.0748  0.5717  0.4038
 2756Sol     OW14047   0.527   2.794   2.784 -0.1196 -0.1700 -0.0774
 2756Sol     HW14048   0.544   2.851   2.859  1.8921  0.1763 -0.7770
 2756Sol     HW14049   0.604   2.738   2.778 -0.2555 -0.1744 -1.9055
 2756Sol     MW14050   0.535   2.794   2.790  0.2469 -0.1498  0.1426
 2757Sol     OW14051   2.424   1.126   7.743  0.3328 -0.0009  0.1402
 2757Sol     HW14052   2.461   1.070   7.675 -2.2615  0.5857 -1.8556
 2757Sol     HW14053   2.349   1.077   7.776  0.3358  0.6244  1.0949
 2757Sol     MW14054   2.420   1.117   7.740 -0.2810  0.7926  0.6347
 2758Sol     OW14055   0.292   1.108   4.752 -0.0812 -0.0045  0.3429
 2758Sol     HW14056   0.282   1.014   4.734  1.0714 -0.2499  0.9428
 2758Sol     HW14057   0.202   1.142   4.748 -0.3851 -0.9170 -0.9743
 2758Sol     MW14058   0.283   1.102   4.750  0.6525 -0.3917 -0.2438
 2759Sol     OW14059   2.159   0.610   7.518  0.2672  0.7378 -0.1406
 2759Sol     HW14060   2.099   0.680   7.546 -0.1219  0.4128 -0.1593
 2759Sol     HW14061   2.129   0.533   7.566  3.5657  1.5652  3.5545
 2759Sol     MW14062   2.151   0.610   7.525  0.7462 -0.0713 -0.2625
 2760Sol     OW14063   1.771   0.987   3.419 -0.1185 -0.0604  0.6271
 2760Sol     HW14064   1.832   0.913   3.426 -0.5690 -0.2767  2.2553
 2760Sol     HW14065   1.701   0.967   3.481  0.2739  2.2525  1.8510
 2760Sol     MW14066   1.770   0.978   3.425 -0.0675  0.3803  0.1442
 2761Sol     OW14067   1.786   2.905   1.932 -0.4452 -0.1449  0.2103
 2761Sol     HW14068   1.770   2.822   1.887  0.9621 -0.2185 -0.1852
 2761Sol     HW14069   1.703   2.953   1.926 -0.5983 -0.6122 -1.4995
 2761Sol     MW14070   1.777   2.902   1.928 -0.0812  0.3403 -0.1895
 2762Sol     OW14071   0.127   0.773   3.987  0.2507  0.0654  0.4368
 2762Sol     HW14072   0.143   0.865   3.968  0.1804 -0.2404 -1.1415
 2762Sol     HW14073   0.189   0.752   4.057  1.0329  1.0195  0.0363
 2762Sol     MW14074   0.134   0.779   3.992  0.7214 -0.3990 -0.2016
 2763Sol     OW14075   3.132   3.316   4.373  0.1886 -0.1569  0.6620
 2763Sol     HW14076   3.169   3.362   4.298 -1.5597  0.0683 -0.1014
 2763Sol     HW14077   3.056   3.370   4.398  0.5076 -0.4703  2.3075
 2763Sol     MW14078   3.128   3.325   4.368 -0.2064  0.4047 -0.3032
 2764Sol     OW14079   0.687   0.261   9.555  0.5870  0.7576  0.4557
 2764Sol     HW14080   0.703   0.289   9.645  3.5438  1.7699 -0.3130
 2764Sol     HW14081   0.666   0.342   9.508 -1.8923  0.1092  0.3929
 2764Sol     MW14082   0.687   0.271   9.559  0.0861  1.5427  0.7791
 2765Sol     OW14083   2.167   1.308   9.588  0.3489 -0.7531 -0.2491
 2765Sol     HW14084   2.172   1.403   9.597 -0.4892 -0.8139  0.9779
 2765Sol     HW14085   2.079   1.293   9.553  1.0663 -0.9805 -1.9844
 2765Sol     MW14086   2.159   1.315   9.586 -0.7659 -0.0656 -0.4795
 2766Sol     OW14087   2.142   3.230   7.304 -0.7979  0.2372 -0.5369
 2766Sol     HW14088   2.203   3.172   7.259  0.0456  0.8800 -0.2547
 2766Sol     HW14089   2.102   3.282   7.235  0.3728  1.1103 -0.5794
 2766Sol     MW14090   2.144   3.230   7.294  0.1004 -1.0043  0.0997
 2767Sol     OW14091   1.484   3.268   9.816  0.0773 -0.6059  0.0104
 2767Sol     HW14092   1.437   3.204   9.868 -2.1646  1.1494  0.2156
 2767Sol     HW14093   1.523   3.327   9.880 -1.0371  0.4077 -0.2154
 2767Sol     MW14094   1.483   3.268   9.826  0.5589  0.3384  0.8441
 2768Sol     OW14095   1.661   2.954   9.693 -0.4579  0.0166 -0.2721
 2768Sol     HW14096   1.568   2.936   9.706 -0.3044 -1.1201 -0.7147
 2768Sol     HW14097   1.695   2.876   9.649  0.9455 -0.0348  0.8790
 2768Sol     MW14098   1.656   2.946   9.690 -0.0811 -0.3745 -0.1848
 2769Sol     OW14099   2.004   2.880   3.197  0.3201 -0.0749 -0.4633
 2769Sol     HW14100   2.094   2.850   3.186  0.7220  0.8474  0.1580
 2769Sol     HW14101   2.009   2.943   3.270 -0.5333  1.2213 -1.4953
 2769Sol     MW14102   2.013   2.883   3.203  1.1608 -0.0520  0.0650
 2770Sol     OW14103   1.252   3.438   7.731 -0.4183 -0.1626 -0.1938
 2770Sol     HW14104   1.205   3.521   7.717 -0.9180 -0.3505  0.3335
 2770Sol     HW14105   1.239   3.419   7.824  0.4530 -0.3742 -0.1187
 2770Sol     MW14106   1.246   3.444   7.738  1.2590  0.7614  0.8046
 2771Sol     OW14107   1.309   1.666   4.358 -0.5606 -0.4707 -0.1452
 2771Sol     HW14108   1.216   1.671   4.333 -0.4499  0.4242 -0.4247
 2771Sol     HW14109   1.315   1.719   4.438 -0.0234  0.7421 -0.9730
 2771Sol     MW14110   1.301   1.672   4.363 -0.6828 -0.3811 -0.0886
 2772Sol     OW14111   1.145   1.168   8.909 -0.1144 -0.4556  0.3536
 2772Sol     HW14112   1.122   1.218   8.831 -1.7278 -0.4512  0.8115
 2772Sol     HW14113   1.100   1.214   8.981 -0.4874 -1.7521  0.9594
 2772Sol     MW14114   1.139   1.177   8.909  0.3720  0.2511 -0.5887
 2773Sol     OW14115   0.303   3.009   6.020  0.1382 -0.1807  0.2713
 2773Sol     HW14116   0.241   3.066   5.975  1.3591  1.4035  0.5162
 2773Sol     HW14117   0.324   2.940   5.958  0.6748  1.1510 -1.0519
 2773Sol     MW14118   0.300   3.008   6.011 -0.1325 -0.4849  0.1017
 2774Sol     OW14119   1.990   0.451   3.454 -0.7179  0.4590 -0.1188
 2774Sol     HW14120   1.895   0.451   3.470 -0.8611 -2.3509 -0.6583
 2774Sol     HW14121   2.006   0.368   3.409  2.3546 -0.2161  2.0892
 2774Sol     MW14122   1.983   0.443   3.452  0.3247  0.0399  0.4426
 2775Sol     OW14123   0.772   2.804   9.063  0.1211  0.2509  0.1246
 2775Sol     HW14124   0.775   2.709   9.048 -2.5954  0.1637 -0.0364
 2775Sol     HW14125   0.695   2.817   9.117  0.2290  2.4475 -0.2228
 2775Sol     MW14126   0.766   2.797   9.066 -0.2612  0.6655  0.1919
 2776Sol     OW14127   3.252   0.234   1.954  0.1192  0.0346  0.2924
 2776Sol     HW14128   3.192   0.300   1.919 -1.0660  0.2066  2.5316
 2776Sol     HW14129   3.338   0.275   1.952 -0.5710  1.5683  1.4331
 2776Sol     MW14130   3.254   0.243   1.951  0.2648 -0.6363  0.1079
 2777Sol     OW14131   1.084   3.404   9.962 -0.3073 -0.4506  0.0552
 2777Sol     HW14132   1.166   3.390  10.010 -0.5773 -2.4079 -0.0042
 2777Sol     HW14133   1.105   3.470   9.896  0.2616  1.7775  2.3869
 2777Sol     MW14134   1.093   3.409   9.961 -0.0696  0.2140  0.0832
 2778Sol     OW14135   0.430   2.889   2.247  0.6668  0.4642 -0.0348
 2778Sol     HW14136   0.356   2.944   2.222  0.5536  0.4415  0.2397
 2778Sol     HW14137   0.461   2.926   2.330  1.1033  0.6083 -0.2596
 2778Sol     MW14138   0.426   2.897   2.252  0.8693 -0.8766  0.2245
 2779Sol     OW14139   2.093   2.109   9.754 -0.7809  0.2200 -0.0593
 2779Sol     HW14140   2.054   2.089   9.668  0.4875  0.7296 -0.7613
 2779Sol     HW14141   2.018   2.114   9.813 -1.6756 -0.1199 -1.1410
 2779Sol     MW14142   2.082   2.107   9.751  0.7414  1.5449 -0.1176
 2780Sol     OW14143   3.207   1.305   8.122 -0.7571  0.0885  0.6145
 2780Sol     HW14144   3.182   1.213   8.118  2.1248 -0.6831 -1.2636
 2780Sol     HW14145   3.214   1.333   8.031  2.0633  1.0576  1.0532
 2780Sol     MW14146   3.206   1.300   8.114 -0.7530  0.4456  0.8059
 2781Sol     OW14147   2.339   0.535   2.617  0.2752 -0.1091  0.3551
 2781Sol     HW14148   2.414   0.594   2.612  1.6507 -1.8516 -0.0266
 2781Sol     HW14149   2.323   0.508   2.527  1.2768 -2.2794  0.8077
 2781Sol     MW14150   2.344   0.538   2.609  0.1574  0.1733 -0.3894
 2782Sol     OW14151   3.199   2.678   8.118  0.6388 -0.2104 -0.7043
 2782Sol     HW14152   3.189   2.738   8.192 -0.2353 -0.8878 -0.2583
 2782Sol     HW14153   3.110   2.645   8.102  0.9229 -0.5345 -1.6628
 2782Sol     MW14154   3.190   2.681   8.123  0.0324  1.3802 -0.1598
 2783Sol     OW14155   2.121   3.156   6.138  0.3249  0.0327 -0.3755
 2783Sol     HW14156   2.070   3.195   6.067 -0.2261  0.4265  0.2254
 2783Sol     HW14157   2.169   3.229   6.176 -0.7697  0.1534  0.8044
 2783Sol     MW14158   2.121   3.166   6.135  0.1419  0.2390  0.1506
 2784Sol     OW14159   2.386   2.339   2.288 -0.3296 -0.0752 -0.1486
 2784Sol     HW14160   2.342   2.407   2.339 -1.3872  0.7239 -2.0876
 2784Sol     HW14161   2.315   2.284   2.255  0.4415 -1.4419  0.4150
 2784Sol     MW14162   2.376   2.340   2.290 -0.9111 -0.4748  0.2324
 2785Sol     OW14163   0.073   1.579   9.353  0.7430 -0.0536 -0.0426
 2785Sol     HW14164   0.041   1.599   9.266  0.3108  0.6291  0.2723
 2785Sol     HW14165  -0.005   1.579   9.409  0.8099 -2.0194  0.0761
 2785Sol     MW14166   0.064   1.581   9.350  0.2754 -0.3367 -0.1969
 2786Sol     OW14167   1.367   1.515   9.629 -0.6097 -0.1487 -0.9504
 2786Sol     HW14168   1.438   1.549   9.575 -0.5471 -0.1755 -0.8846
 2786Sol     HW14169   1.322   1.452   9.573 -0.0427 -0.7826 -0.6920
 2786Sol     MW14170   1.369   1.513   9.619 -0.1914  0.5723  1.3319
 2787Sol     OW14171   3.022   3.407   7.144  0.4281  0.1836  0.4234
 2787Sol     HW14172   2.970   3.465   7.088  0.5884  0.4667  0.5632
 2787Sol     HW14173   3.094   3.463   7.176  0.1082  0.1454  1.2350
 2787Sol     MW14174   3.024   3.417   7.142  0.3771 -0.0826 -0.2925
 2788Sol     OW14175   2.715   1.826   3.777  0.4063  0.0764  0.0008
 2788Sol     HW14176   2.730   1.739   3.815  0.1102 -0.1707 -0.4514
 2788Sol     HW14177   2.695   1.809   3.685  0.8457  0.6584 -0.2058
 2788Sol     MW14178   2.715   1.817   3.772 -1.0242 -0.0484  0.3562
 2789Sol     OW14179   2.987   0.651   5.660  0.2712  0.6424 -0.1265
 2789Sol     HW14180   3.041   0.677   5.585  0.3330 -0.0116 -0.3191
 2789Sol     HW14181   3.050   0.617   5.724  0.0243 -1.0628 -0.7490
 2789Sol     MW14182   2.998   0.650   5.659  0.3344 -0.6608 -0.7803
 2790Sol     OW14183   1.887   1.435   8.764 -0.3223  0.9438  0.0570
 2790Sol     HW14184   1.926   1.445   8.851 -1.4281 -0.9858  0.8108
 2790Sol     HW14185   1.812   1.494   8.765 -1.1091 -0.0520  0.9051
 2790Sol     MW14186   1.884   1.441   8.772 -0.2236 -0.1837  0.3680
 2791Sol     OW14187   1.984   0.022   6.771 -0.0942  0.0123  0.7768
 2791Sol     HW14188   1.904   0.008   6.719  0.6837 -2.3886  0.1655
 2791Sol     HW14189   2.034  -0.059   6.760  0.9886  0.2316  3.7362
 2791Sol     MW14190   1.981   0.013   6.765 -0.8814  0.3703 -0.1882
 2792Sol     OW14191   2.639   3.399   9.341 -0.7184 -0.0242 -0.1352
 2792Sol     HW14192   2.558   3.438   9.376 -0.6751  0.1715 -0.2521
 2792Sol     HW14193   2.658   3.451   9.263 -0.1577  0.3006  0.2194
 2792Sol     MW14194   2.633   3.407   9.337 -0.1083 -0.1587 -1.4030
 2793Sol     OW14195   1.215   0.167   4.954 -0.4573  0.8297 -0.6073
 2793Sol     HW14196   1.310   0.170   4.945 -0.4452 -0.9528 -1.1455
 2793Sol     HW14197   1.201   0.135   5.043 -0.5597  1.4907 -0.3837
 2793Sol     MW14198   1.222   0.164   4.961 -0.2328  0.6351  0.9649
 2794Sol     OW14199   2.504   1.016   2.306 -0.9412  0.6479  0.3992
 2794Sol     HW14200   2.487   1.017   2.212 -0.4926 -0.4142  0.2978
 2794Sol     HW14201   2.521   1.107   2.328  1.5131  0.5798 -1.0319
 2794Sol     MW14202   2.504   1.024   2.299  0.3613 -0.3425 -0.2447
 2795Sol     OW14203   2.597   2.215   3.091  0.5763 -0.5628 -0.0144
 2795Sol     HW14204   2.622   2.303   3.063 -1.2951 -0.8412 -2.7896
 2795Sol     HW14205   2.587   2.221   3.186 -0.6924  2.5228 -0.2901
 2795Sol     MW14206   2.599   2.223   3.097  0.0892 -0.2839 -0.2896
 2796Sol     OW14207   2.250   2.782   8.644 -0.6045 -0.1352  0.4977
 2796Sol     HW14208   2.326   2.838   8.631  0.1618 -0.7095  2.4321
 2796Sol     HW14209   2.274   2.700   8.600 -0.5197  0.0193  0.2512
 2796Sol     MW14210   2.259   2.779   8.639 -0.5329 -0.0520 -0.8991
 2797Sol     OW14211   0.604   1.390   2.531 -0.2993 -0.1292 -0.2971
 2797Sol     HW14212   0.695   1.385   2.501  0.1582 -1.2214  1.2640
 2797Sol     HW14213   0.556   1.427   2.456  1.4283  0.5150 -1.0964
 2797Sol     MW14214   0.608   1.393   2.521 -0.2544 -0.8501  0.4742
 2798Sol     OW14215   1.587   2.295   6.252 -1.0756 -0.2721 -0.2309
 2798Sol     HW14216   1.531   2.355   6.301  0.2921 -0.6621  1.9198
 2798Sol     HW14217   1.673   2.338   6.253 -0.8859 -0.6197 -1.7214
 2798Sol     MW14218   1.590   2.304   6.257 -0.8393  0.9574  0.2953
 2799Sol     OW14219   2.094   0.987   5.773 -0.3523  0.3197  0.2730
 2799Sol     HW14220   2.053   0.926   5.712 -1.0190 -0.4414  1.4471
 2799Sol     HW14221   2.177   0.947   5.796 -1.0532 -0.4583  1.5012
 2799Sol     MW14222   2.098   0.978   5.770 -0.3744  0.0613  0.2713
 2800Sol     OW14223   0.809   2.990   4.890 -0.4752 -0.4655  0.0455
 2800Sol     HW14224   0.821   3.083   4.908  1.9279 -0.3448 -1.8784
 2800Sol     HW14225   0.778   2.953   4.973  0.2808  1.7400  1.3454
 2800Sol     MW14226   0.807   2.995   4.899  0.7899 -0.1138 -0.9072
 2801Sol     OW14227   0.473   0.740   8.609 -0.3776 -0.0579 -0.1785
 2801Sol     HW14228   0.443   0.827   8.635  0.1297 -0.5487  2.1865
 2801Sol     HW14229   0.453   0.734   8.516  0.0427  2.7869 -0.4938
 2801Sol     MW14230   0.469   0.747   8.603  0.6772  0.4120  0.2153
 2802Sol     OW14231   1.839   3.272   7.709 -0.1401  0.0894 -0.2834
 2802Sol     HW14232   1.905   3.340   7.724  0.8003 -0.6371 -1.0669
 2802Sol     HW14233   1.876   3.193   7.749 -1.1896  0.0060  0.5479
 2802Sol     MW14234   1.849   3.271   7.714 -0.2586  0.9151 -0.0051
 2803Sol     OW14235   0.439   1.993   7.500  0.4252  0.3444  0.0464
 2803Sol     HW14236   0.430   2.088   7.490  0.8259  0.3014 -0.8208
 2803Sol     HW14237   0.350   1.959   7.490  0.1099  0.7114  1.4777
 2803Sol     MW14238   0.430   1.998   7.498 -0.3651 -0.8773  0.4947
 2804Sol     OW14239   1.135   0.006   4.469  0.1164  0.3726  0.0297
 2804Sol     HW14240   1.073  -0.014   4.398  1.1118  0.2952 -0.8368
 2804Sol     HW14241   1.137   0.101   4.474  1.1305  0.4188 -1.0412
 2804Sol     MW14242   1.130   0.013   4.463  0.2265 -0.7649 -0.2334
 2805Sol     OW14243   2.600   0.540   6.015  0.6158  0.1243 -0.0411
 2805Sol     HW14244   2.583   0.530   6.108 -0.4684 -1.5895 -0.4191
 2805Sol     HW14245   2.619   0.634   6.004  0.7908  0.3264  1.8826
 2805Sol     MW14246   2.601   0.548   6.022 -0.2393  0.4403  0.7783
 2806Sol     OW14247   3.246   0.890   7.543  0.0231 -0.7668  0.5339
 2806Sol     HW14248   3.283   0.967   7.586 -0.7305 -0.8074  1.2817
 2806Sol     HW14249   3.312   0.863   7.480  0.7962 -0.1946  1.0883
 2806Sol     MW14250   3.255   0.894   7.541 -0.3152  0.4517 -0.1621
 2807Sol     OW14251   0.641   2.962   5.541 -0.5434  0.6601 -0.0047
 2807Sol     HW14252   0.599   2.941   5.457 -0.3741 -0.0267  0.0812
 2807Sol     HW14253   0.621   2.888   5.598 -0.3485  0.9552  0.4518
 2807Sol     MW14254   0.636   2.954   5.538  0.4032  0.0866 -0.7557
 2808Sol     OW14255   1.306   0.921   9.272 -0.2875 -0.5800 -0.5154
 2808Sol     HW14256   1.336   0.962   9.191  0.7932 -0.0051  0.1533
 2808Sol     HW14257   1.378   0.862   9.297  0.2166  0.6125  0.9712
 2808Sol     MW14258   1.315   0.919   9.267 -0.6658  0.3585  0.3763
 2809Sol     OW14259   1.117   2.727   1.443  0.1724 -0.5859  0.8636
 2809Sol     HW14260   1.212   2.727   1.455  0.3372 -1.5328 -0.3313
 2809Sol     HW14261   1.099   2.808   1.394  0.3112 -0.2110  1.4274
 2809Sol     MW14262   1.123   2.734   1.439 -0.4636 -0.2570 -0.8831
 2810Sol     OW14263   1.743   0.824   7.720 -0.4204  0.2554  0.3073
 2810Sol     HW14264   1.819   0.852   7.668 -0.3090  1.9646  1.3511
 2810Sol     HW14265   1.687   0.779   7.657  0.2980  1.1790 -1.0395
 2810Sol     MW14266   1.745   0.823   7.709  0.4419  0.1412 -0.0435
 2811Sol     OW14267   2.230   3.003   4.769 -0.0706 -0.3690  0.1293
 2811Sol     HW14268   2.185   2.919   4.782 -0.0121 -0.6102 -1.1077
 2811Sol     HW14269   2.304   3.000   4.829  0.6429 -1.7460 -0.7783
 2811Sol     MW14270   2.232   2.995   4.775 -0.6235 -0.1423  0.0919
 2812Sol     OW14271   2.416   2.788   5.470  0.2736  0.5947 -0.8786
 2812Sol     HW14272   2.399   2.696   5.448  0.0713  1.2633 -3.7200
 2812Sol     HW14273   2.330   2.825   5.489  0.2344  0.4466 -0.7693
 2812Sol     MW14274   2.407   2.783   5.469 -0.0634  0.1199  0.0337
 2813Sol     OW14275   1.007   0.808   2.230 -0.2447  0.2532  0.2398
 2813Sol     HW14276   1.041   0.865   2.299  0.9170 -0.5956  0.3773
 2813Sol     HW14277   1.031   0.719   2.258  2.4431  0.0679 -2.4479
 2813Sol     MW14278   1.012   0.805   2.239 -0.2671  0.2116  0.1995
 2814Sol     OW14279   2.437   0.787   9.326  0.5350  0.2612 -0.5073
 2814Sol     HW14280   2.471   0.724   9.390 -0.3285  0.7843  0.4819
 2814Sol     HW14281   2.485   0.867   9.343  0.4534  0.3399 -0.6490
 2814Sol     MW14282   2.444   0.788   9.334 -1.1731  0.2349  0.2251
 2815Sol     OW14283   2.923   0.378   9.075  0.0016 -0.1298  0.1036
 2815Sol     HW14284   3.002   0.423   9.043 -0.3865  0.7593  0.3861
 2815Sol     HW14285   2.955   0.293   9.107  0.9965  0.6316  1.1747
 2815Sol     MW14286   2.933   0.374   9.075  0.1389 -0.1169 -0.8000
 2816Sol     OW14287   1.591   3.248   1.600 -0.4817  0.2016  0.1953
 2816Sol     HW14288   1.669   3.270   1.652 -2.8466  1.1169  3.5180
 2816Sol     HW14289   1.555   3.332   1.573 -0.7319 -0.1870 -0.6885
 2816Sol     MW14290   1.595   3.257   1.603 -0.4878  0.3196 -0.7394
 2817Sol     OW14291   1.419   0.150   2.481  0.0980 -0.4241  0.0149
 2817Sol     HW14292   1.455   0.228   2.440  0.9056  0.7273  2.8598
 2817Sol     HW14293   1.494   0.104   2.517 -0.6699 -1.0310  0.8692
 2817Sol     MW14294   1.429   0.153   2.480  0.1367 -0.0801 -0.2804
 2818Sol     OW14295   1.525   0.581   2.424 -0.3664  0.2904  0.1826
 2818Sol     HW14296   1.526   0.638   2.347 -2.7318  1.9860  1.3317
 2818Sol     HW14297   1.543   0.494   2.391 -0.4801  1.1357 -2.1697
 2818Sol     MW14298   1.527   0.579   2.414 -0.4102  0.7360 -0.7031
 2819Sol     OW14299   0.812   3.156   2.510 -0.3793 -0.8259 -0.5341
 2819Sol     HW14300   0.778   3.124   2.427  0.2645 -0.5818 -0.8970
 2819Sol     HW14301   0.906   3.170   2.494 -0.0847 -1.5976  0.4793
 2819Sol     MW14302   0.818   3.155   2.501 -0.0588  0.3807 -0.0375
 2820Sol     OW14303   3.068   2.328   4.068 -0.2389 -0.5826 -0.0985
 2820Sol     HW14304   3.120   2.312   4.147  0.0715 -1.6124 -0.5046
 2820Sol     HW14305   2.979   2.304   4.093 -0.1797 -0.6941  0.0059
 2820Sol     MW14306   3.065   2.324   4.077 -0.8649  0.4896 -0.5226
 2821Sol     OW14307   2.000   1.206   3.215 -0.3159  0.4257 -0.2101
 2821Sol     HW14308   1.913   1.198   3.175 -1.1664  2.6578  1.0968
 2821Sol     HW14309   1.982   1.230   3.306  1.6546 -1.1401  0.6239
 2821Sol     MW14310   1.990   1.207   3.219  0.0871  0.3198 -0.1578
 2822Sol     OW14311   2.621   2.748   7.854 -0.1272 -0.3748  0.1138
 2822Sol     HW14312   2.582   2.835   7.852  0.1876 -0.2380  0.0333
 2822Sol     HW14313   2.546   2.689   7.864 -0.1610  0.0169  2.3222
 2822Sol     MW14314   2.610   2.750   7.855  0.2884  0.4511 -0.3813
 2823Sol     OW14315   0.096   0.507   5.169 -0.3141 -0.1258 -0.2313
 2823Sol     HW14316   0.019   0.547   5.128 -0.2871  0.6242  0.4357
 2823Sol     HW14317   0.155   0.580   5.186  1.0787 -0.8594 -1.8375
 2823Sol     MW14318   0.094   0.517   5.167  0.0010  0.2571  0.1299
 2824Sol     OW14319   2.761   2.236   1.957 -0.0207 -0.3778  0.6562
 2824Sol     HW14320   2.684   2.287   1.984  1.3977  0.7057  2.7924
 2824Sol     HW14321   2.742   2.147   1.987 -0.5643 -0.1677  0.9382
 2824Sol     MW14322   2.752   2.232   1.963 -0.1901 -0.1428 -0.5268
 2825Sol     OW14323   0.985   2.822   7.268  0.8105 -0.6556 -0.2118
 2825Sol     HW14324   0.961   2.744   7.318  0.7439 -1.5154 -1.5406
 2825Sol     HW14325   0.902   2.867   7.251  0.7951 -0.5486  0.1545
 2825Sol     MW14326   0.975   2.819   7.271 -0.0504  0.6839 -0.0322
 2826Sol     OW14327   0.256   1.195   5.763 -0.4383  0.1116  0.0994
 2826Sol     HW14328   0.335   1.178   5.711  0.0105  0.4014  0.6817
 2826Sol     HW14329   0.264   1.287   5.788  0.0304 -0.3981  1.8488
 2826Sol     MW14330   0.264   1.202   5.761  0.0235  0.2596  0.4600
 2827Sol     OW14331   2.417   3.131   9.506  0.3453  0.0018  0.1026
 2827Sol     HW14332   2.441   3.105   9.595 -1.3989  1.4607  1.0284
 2827Sol     HW14333   2.325   3.105   9.498 -0.0658  1.6431 -0.5845
 2827Sol     MW14334   2.411   3.126   9.514  0.3180  1.4818 -0.1487
 2828Sol     OW14335   3.055   2.827   6.033  0.0871 -0.8747 -0.1520
 2828Sol     HW14336   2.967   2.789   6.029  0.4052 -1.6675  0.2645
 2828Sol     HW14337   3.088   2.800   6.119  1.4131 -2.1109 -1.0350
 2828Sol     MW14338   3.050   2.821   6.041 -0.2249 -1.1231 -0.2007
 2829Sol     OW14339   2.055   0.108   9.526 -0.0814  0.5460 -0.1575
 2829Sol     HW14340   2.129   0.153   9.566  1.2491  0.3693 -2.3511
 2829Sol     HW14341   2.029   0.164   9.453 -0.8968 -0.3320 -0.5506
 2829Sol     MW14342   2.060   0.117   9.523  0.2790  0.3715  0.0618
 2830Sol     OW14343   1.112   3.378   5.159  0.4066 -0.0509  0.4398
 2830Sol     HW14344   1.107   3.292   5.201 -2.4005 -1.0741 -1.8807
 2830Sol     HW14345   1.031   3.422   5.185  0.3779  0.6951 -0.9217
 2830Sol     MW14346   1.105   3.374   5.165 -0.4546  0.0761  0.7319
 2831Sol     OW14347   2.884   0.206   6.580  0.5592  0.1041  0.1727
 2831Sol     HW14348   2.913   0.260   6.507  1.3819 -1.3460 -0.5897
 2831Sol     HW14349   2.916   0.118   6.560  0.6420 -0.3613  2.1717
 2831Sol     MW14350   2.890   0.203   6.572  0.0254 -0.7889 -0.0652
 2832Sol     OW14351   3.177   1.375   4.840 -0.9602  0.2515 -0.7713
 2832Sol     HW14352   3.182   1.339   4.929  0.4649  0.9359 -0.5620
 2832Sol     HW14353   3.245   1.328   4.792 -0.3904  1.2814 -0.9884
 2832Sol     MW14354   3.184   1.367   4.844  0.1348 -0.1140 -0.3893
 2833Sol     OW14355   1.436   1.242   8.589 -0.3852 -0.0366  0.0399
 2833Sol     HW14356   1.420   1.177   8.521  0.2497  0.4362 -0.5696
 2833Sol     HW14357   1.364   1.305   8.579  0.8752  1.1862 -1.6042
 2833Sol     MW14358   1.428   1.242   8.582  0.7146  0.7007  0.4357
 2834Sol     OW14359   0.185   1.885   7.416 -0.1834  0.4553  0.1967
 2834Sol     HW14360   0.184   1.818   7.347 -2.0575 -0.1998  0.8111
 2834Sol     HW14361   0.174   1.968   7.369  0.8917  0.2309 -0.4736
 2834Sol     MW14362   0.184   1.886   7.405  0.6337  0.5945 -0.7019
 2835Sol     OW14363   3.189   3.370   5.958 -0.2991  0.5493  0.1200
 2835Sol     HW14364   3.101   3.334   5.953 -0.8639  1.4502  2.7730
 2835Sol     HW14365   3.237   3.327   5.887 -2.1679 -1.9275  0.3106
 2835Sol     MW14366   3.185   3.363   5.951  0.2303 -0.2935 -0.2933
 2836Sol     OW14367   0.044   0.376   6.702 -0.7183 -0.6166  0.1369
 2836Sol     HW14368   0.028   0.337   6.616 -1.7325  0.0876 -0.0065
 2836Sol     HW14369  -0.020   0.447   6.708  0.8107  0.7469  0.5746
 2836Sol     MW14370   0.036   0.378   6.695 -0.0928 -0.1690 -0.6887
 2837Sol     OW14371   0.742   3.408   8.329 -0.2845 -0.1921 -0.1252
 2837Sol     HW14372   0.789   3.473   8.382 -1.5276  0.6585 -0.0164
 2837Sol     HW14373   0.803   3.384   8.260  1.6994 -1.9385  2.1431
 2837Sol     MW14374   0.751   3.412   8.328 -0.2744 -0.9754 -0.6901
 2838Sol     OW14375   1.978   1.195   4.948  0.0679 -0.2219 -0.3670
 2838Sol     HW14376   1.965   1.143   5.027 -0.8897 -0.3608 -0.6019
 2838Sol     HW14377   2.047   1.150   4.900 -0.3544 -0.9667 -0.2907
 2838Sol     MW14378   1.983   1.187   4.950 -0.0417 -0.4278 -0.2443
 2839Sol     OW14379   1.721   1.640   9.827  0.0998  0.7758  0.3976
 2839Sol     HW14380   1.757   1.558   9.859 -0.5102  0.8514  1.3049
 2839Sol     HW14381   1.647   1.658   9.885 -1.2343  0.7630 -1.2362
 2839Sol     MW14382   1.718   1.635   9.835 -0.0086 -0.2396  0.0320
 2840Sol     OW14383   0.222   0.621   7.861  0.0473 -0.2001  0.0407
 2840Sol     HW14384   0.141   0.665   7.835  0.9654  0.7037 -1.4229
 2840Sol     HW14385   0.195   0.536   7.894 -1.6494  0.8247  1.3785
 2840Sol     MW14386   0.213   0.618   7.862 -0.1487 -0.3916 -0.2350
 2841Sol     OW14387   1.322   2.483   1.572  0.4242 -0.3958 -0.2309
 2841Sol     HW14388   1.384   2.409   1.574 -0.4149 -1.1712 -1.6753
 2841Sol     HW14389   1.359   2.543   1.508 -1.2524 -1.7761 -2.6074
 2841Sol     MW14390   1.331   2.482   1.566  0.2630 -0.2081 -0.2768
 2842Sol     OW14391   2.193   0.964   2.361  0.4851  0.3104  0.2634
 2842Sol     HW14392   2.195   1.033   2.427 -0.0704  0.9234 -0.3491
 2842Sol     HW14393   2.267   0.983   2.303 -0.1228  0.8598 -0.3539
 2842Sol     MW14394   2.200   0.971   2.361  0.4276 -0.9220 -0.6026
 2843Sol     OW14395   1.849   2.763   9.109 -0.2174  0.0519  0.0691
 2843Sol     HW14396   1.923   2.721   9.153  0.1996  0.7013  0.0070
 2843Sol     HW14397   1.873   2.856   9.106 -0.2836  0.0432 -1.4211
 2843Sol     MW14398   1.858   2.768   9.112 -0.4857 -0.3026  0.0991
 2844Sol     OW14399   0.890   1.927   8.662 -0.0570 -0.5940  0.0156
 2844Sol     HW14400   0.832   1.866   8.616  0.3564 -0.4977 -0.6341
 2844Sol     HW14401   0.922   1.986   8.594  0.5297 -0.4307  0.4328
 2844Sol     MW14402   0.888   1.927   8.652  0.8162 -0.6542 -0.6325
 2845Sol     OW14403   1.576   2.681   6.906  0.5831 -0.2130  0.3373
 2845Sol     HW14404   1.483   2.695   6.923  0.7003  0.4511  0.4848
 2845Sol     HW14405   1.581   2.596   6.863 -0.2040  0.2029 -0.6158
 2845Sol     MW14406   1.568   2.675   6.904  0.9113  0.4844 -0.6401
 2846Sol     OW14407   2.197   1.559   1.494 -0.7529 -0.0924  0.7605
 2846Sol     HW14408   2.231   1.648   1.508 -0.6722 -0.1616  1.0003
 2846Sol     HW14409   2.240   1.506   1.561  1.9173 -1.0104 -1.5614
 2846Sol     MW14410   2.204   1.562   1.501 -0.3552 -0.1897 -0.3130
 2847Sol     OW14411   2.274   2.498   5.163  0.3155  0.4099 -0.1652
 2847Sol     HW14412   2.354   2.545   5.138  0.2479  0.1730 -0.8617
 2847Sol     HW14413   2.203   2.556   5.138  0.2530  0.2860 -0.2774
 2847Sol     MW14414   2.275   2.507   5.158  1.3110  0.6811 -0.0460
 2848Sol     OW14415   2.692   1.932   9.983  0.4771 -0.2488 -0.1280
 2848Sol     HW14416   2.746   1.882   9.921 -0.6048 -2.0242  0.3197
 2848Sol     HW14417   2.627   1.976   9.928  0.1064 -1.0639 -0.3534
 2848Sol     MW14418   2.691   1.931   9.972 -0.3138  0.5540 -0.7610
 2849Sol     OW14419   0.375   2.977   2.567 -0.2001  0.3576 -0.1161
 2849Sol     HW14420   0.287   2.939   2.569  0.9210 -2.4605 -1.0228
 2849Sol     HW14421   0.412   2.956   2.652  0.3451 -0.4066 -0.5358
 2849Sol     MW14422   0.370   2.972   2.574 -1.1918 -0.0147  0.2767
 2850Sol     OW14423   1.736   3.053   5.260 -0.0490 -0.0240  0.0343
 2850Sol     HW14424   1.646   3.072   5.287 -0.2774 -1.5484  0.4068
 2850Sol     HW14425   1.773   3.005   5.334  1.3516  1.3329  0.2375
 2850Sol     MW14426   1.731   3.050   5.269  0.4301 -0.0374  0.7497
 2851Sol     OW14427   0.535   2.483   3.001  0.4701 -0.3374 -0.0779
 2851Sol     HW14428   0.619   2.470   2.957  0.6908  1.4185 -0.2399
 2851Sol     HW14429   0.481   2.526   2.935 -0.5427 -1.3993  0.0569
 2851Sol     MW14430   0.538   2.486   2.991 -1.0724 -0.1809  0.2829
 2852Sol     OW14431   0.137   0.590   3.037  0.5607  0.3453  0.3654
 2852Sol     HW14432   0.175   0.656   3.096  2.2476  0.8119 -1.1922
 2852Sol     HW14433   0.208   0.527   3.023  0.6458  0.9752 -2.2274
 2852Sol     MW14434   0.147   0.590   3.041 -0.1224 -0.4306  0.8558
 2853Sol     OW14435   0.053   1.999   2.245 -0.1056 -0.3830  0.1028
 2853Sol     HW14436   0.127   2.058   2.235  0.5527 -0.9847  1.3460
 2853Sol     HW14437   0.028   1.977   2.155  0.9101  0.1962 -0.3346
 2853Sol     MW14438   0.057   2.002   2.236 -0.4599  1.0093 -0.0699
 2854Sol     OW14439   2.298   0.641   8.579  0.1623  0.2181 -0.1245
 2854Sol     HW14440   2.337   0.699   8.514  2.1803  0.0625  0.8823
 2854Sol     HW14441   2.334   0.672   8.662  0.6233 -1.9457  0.5113
 2854Sol     MW14442   2.305   0.649   8.581  0.0974  0.0594 -0.6510
 2855Sol     OW14443   0.910   2.286   9.223  0.2034  0.2587 -0.2487
 2855Sol     HW14444   0.873   2.340   9.292  1.1171 -1.4159  1.6311
 2855Sol     HW14445   0.835   2.256   9.172 -0.7938 -0.8186  1.7893
 2855Sol     MW14446   0.900   2.288   9.224  0.2941  0.8533  0.7096
 2856Sol     OW14447   1.634   1.713   5.759 -0.4896 -0.4615 -0.0180
 2856Sol     HW14448   1.674   1.742   5.677  1.4317 -1.1738  0.6641
 2856Sol     HW14449   1.649   1.619   5.762  0.6295 -0.2390  1.7865
 2856Sol     MW14450   1.639   1.707   5.752 -1.1078  0.0760  0.0198
 2857Sol     OW14451   0.780   1.039   9.416  0.2238  0.3260 -0.5801
 2857Sol     HW14452   0.701   1.081   9.450  0.7246  0.1005  0.8803
 2857Sol     HW14453   0.824   1.107   9.366 -0.0741  0.9119 -0.0497
 2857Sol     MW14454   0.777   1.049   9.414  0.4574 -0.3139 -0.6372
 2858Sol     OW14455   0.094   0.662   2.784  0.0829 -0.6569 -0.1712
 2858Sol     HW14456   0.172   0.707   2.752 -0.1048  0.1979  0.5515
 2858Sol     HW14457   0.118   0.632   2.872 -0.5010 -0.1262  0.1702
 2858Sol     MW14458   0.103   0.663   2.789 -0.0956 -0.5305 -0.0805
 2859Sol     OW14459   3.042   0.629   6.085  0.4103 -0.9292  0.2828
 2859Sol     HW14460   3.104   0.620   6.157  0.7539 -3.2714 -0.2837
 2859Sol     HW14461   3.095   0.614   6.006 -0.1054  0.8879 -0.4490
 2859Sol     MW14462   3.052   0.627   6.084 -0.2336 -0.8204 -1.2814
 2860Sol     OW14463   0.166   0.657   3.643 -0.2803  0.3492 -0.2319
 2860Sol     HW14464   0.193   0.612   3.563  1.3736  0.9313 -0.0266
 2860Sol     HW14465   0.091   0.607   3.674 -0.1289 -0.6669 -1.4395
 2860Sol     MW14466   0.161   0.649   3.638  0.1517 -0.1350 -0.7553
 2861Sol     OW14467   3.068   0.309   4.250 -0.4658 -0.2180 -0.1546
 2861Sol     HW14468   3.161   0.304   4.270 -0.2002  0.8010 -1.0960
 2861Sol     HW14469   3.059   0.386   4.194 -1.9488 -0.0321  0.3091
 2861Sol     MW14470   3.076   0.315   4.247  0.4452  1.1952 -0.1572
 2862Sol     OW14471   1.457   3.064   5.380  0.8866  0.0356  0.6256
 2862Sol     HW14472   1.492   2.980   5.411  1.3659  0.0126  0.0225
 2862Sol     HW14473   1.363   3.056   5.392  1.1329  0.4789  3.2380
 2862Sol     MW14474   1.452   3.056   5.384  0.6406  0.3739  0.1746
 2863Sol     OW14475   2.926   2.434   8.853 -0.6133  0.4996 -0.4197
 2863Sol     HW14476   2.955   2.346   8.875 -0.8196  0.0759 -1.7919
 2863Sol     HW14477   2.926   2.436   8.757  0.8425  2.4609 -0.4128
 2863Sol     MW14478   2.929   2.427   8.846 -1.1377  0.6861  0.5298
 2864Sol     OW14479   2.718   2.012   7.786 -0.1028  0.8268 -0.1179
 2864Sol     HW14480   2.675   2.069   7.722  2.2172  1.0947 -1.5053
 2864Sol     HW14481   2.785   1.966   7.735 -1.5457 -2.8033  1.0387
 2864Sol     MW14482   2.720   2.013   7.775  0.1467 -0.6866 -0.1362
 2865Sol     OW14483   3.306   1.440   9.828 -0.7591 -0.4028  0.1611
 2865Sol     HW14484   3.398   1.434   9.800 -1.1511  0.7604 -1.3878
 2865Sol     HW14485   3.286   1.352   9.860  1.2608 -0.3553  1.6819
 2865Sol     MW14486   3.313   1.431   9.829  0.1169  0.9178  0.5940
 2866Sol     OW14487   2.057   2.251   4.564  0.3228  0.0641 -0.0506
 2866Sol     HW14488   2.040   2.171   4.514 -0.6678 -0.3596  0.9583
 2866Sol     HW14489   2.074   2.317   4.497  1.6300 -1.0711 -0.8879
 2866Sol     MW14490   2.057   2.249   4.553 -0.7323 -0.4753 -0.7222
 2867Sol     OW14491   1.121   0.092   6.065 -0.0704  0.3080  0.0046
 2867Sol     HW14492   1.194   0.033   6.082 -0.8457 -0.0815  2.0996
 2867Sol     HW14493   1.115   0.146   6.144 -0.2308  2.3008 -1.3313
 2867Sol     MW14494   1.127   0.091   6.074 -0.3830 -0.4521  0.1692
 2868Sol     OW14495   1.568   0.250   3.573 -0.0468 -0.4216  0.5323
 2868Sol     HW14496   1.511   0.273   3.500  0.8686  0.9422  0.2268
 2868Sol     HW14497   1.512   0.258   3.651 -0.1173  1.5323  0.2989
 2868Sol     MW14498   1.558   0.253   3.574  0.5126 -0.4017 -0.5251
 2869Sol     OW14499   0.462   2.076   6.502  0.1293 -0.3193 -0.1624
 2869Sol     HW14500   0.434   1.992   6.467 -0.2613  0.0914 -0.8554
 2869Sol     HW14501   0.529   2.107   6.441 -0.6016  0.4299 -0.6082
 2869Sol     MW14502   0.465   2.071   6.493 -0.0008  1.1511  0.1259
 2870Sol     OW14503   2.606   1.845   9.029 -0.3771  0.6928  0.0593
 2870Sol     HW14504   2.528   1.895   9.049 -1.0649  0.3306 -1.6927
 2870Sol     HW14505   2.659   1.902   8.974 -0.4660  0.0661 -0.6797
 2870Sol     MW14506   2.604   1.854   9.026 -0.7929 -0.7459 -0.5876
 2871Sol     OW14507   0.363   1.657   6.033  0.3889  0.0021 -0.0874
 2871Sol     HW14508   0.457   1.674   6.032  0.0464  2.0932  0.2382
 2871Sol     HW14509   0.332   1.680   5.946  0.0710 -0.0601  0.0054
 2871Sol     MW14510   0.368   1.660   6.025  0.2693  0.6508  0.4668
 2872Sol     OW14511   3.183   3.440   2.591  0.6001  0.6503  0.3027
 2872Sol     HW14512   3.091   3.430   2.614 -0.0084  0.9300 -1.8916
 2872Sol     HW14513   3.199   3.534   2.599  0.8733  0.5178  1.3216
 2872Sol     MW14514   3.176   3.448   2.594 -0.4240  0.6920  0.0061
 2873Sol     OW14515   0.750   3.138   4.216  0.1206 -0.4168 -0.0159
 2873Sol     HW14516   0.717   3.055   4.251  0.7377  0.2259  2.1869
 2873Sol     HW14517   0.748   3.198   4.291  0.3410  1.3701 -1.4060
 2873Sol     MW14518   0.747   3.136   4.226 -0.0979 -0.1003 -0.0901
 2874Sol     OW14519   2.606   1.209   4.375 -0.3467 -0.2046 -0.5261
 2874Sol     HW14520   2.597   1.119   4.404 -1.3028 -0.0204 -0.2337
 2874Sol     HW14521   2.525   1.228   4.328  0.7926 -0.2085 -2.5672
 2874Sol     MW14522   2.598   1.203   4.373 -0.0975 -0.0348 -0.3147
 2875Sol     OW14523   2.982   2.497   7.029 -0.3036  0.2047  0.4904
 2875Sol     HW14524   3.028   2.426   7.073 -0.8059 -0.7220 -0.4765
 2875Sol     HW14525   2.912   2.521   7.090  0.0748  0.1178  0.9682
 2875Sol     MW14526   2.980   2.493   7.039 -0.5003 -0.4937  1.0267
 2876Sol     OW14527   3.287   2.283   2.624  0.6424 -0.0552  0.3563
 2876Sol     HW14528   3.357   2.218   2.610  0.7785 -0.2696  1.8551
 2876Sol     HW14529   3.319   2.336   2.697  0.2774  1.3628 -0.4963
 2876Sol     MW14530   3.296   2.282   2.630 -0.4861 -0.3681 -0.2231
 2877Sol     OW14531   2.111   1.003   3.617 -0.6783  0.4354  1.0279
 2877Sol     HW14532   2.166   1.064   3.665 -0.7733 -0.3628  2.1940
 2877Sol     HW14533   2.128   0.918   3.658 -0.9370 -0.2294 -0.2165
 2877Sol     MW14534   2.117   1.001   3.625  0.1543 -1.4860 -0.0244
 2878Sol     OW14535   2.867   1.828   2.739 -0.1912 -0.5507  0.8184
 2878Sol     HW14536   2.896   1.844   2.649 -1.6066  0.6854  0.5709
 2878Sol     HW14537   2.947   1.801   2.785  0.8464  0.2849 -0.4454
 2878Sol     MW14538   2.877   1.827   2.735 -0.4003  0.6729 -0.2045
 2879Sol     OW14539   1.105   0.360   8.464  0.0069  0.1749 -0.5161
 2879Sol     HW14540   1.164   0.417   8.414 -0.1992  0.8032 -0.0551
 2879Sol     HW14541   1.021   0.407   8.464 -0.3029 -0.3704 -0.5564
 2879Sol     MW14542   1.103   0.369   8.460 -0.4437  0.1871  0.0631
 2880Sol     OW14543   0.137   1.903   6.823 -0.3235 -0.1187  0.0455
 2880Sol     HW14544   0.142   1.823   6.772 -0.4996  0.5953 -1.1162
 2880Sol     HW14545   0.177   1.881   6.907  2.6590 -0.5104 -1.4251
 2880Sol     MW14546   0.141   1.894   6.826 -0.1536  0.0718  0.8269
 2881Sol     OW14547   1.491   0.875   8.061  0.4656  0.4937 -0.1439
 2881Sol     HW14548   1.410   0.917   8.090  0.0443  0.2737 -1.0155
 2881Sol     HW14549   1.527   0.935   7.996  2.7783  2.3131  2.6746
 2881Sol     MW14550   1.487   0.884   8.058  1.0681 -0.1713 -0.1087
 2882Sol     OW14551   0.416   1.899   7.777 -0.1780  0.4939 -0.3876
 2882Sol     HW14552   0.440   1.921   7.687  1.2221 -0.7742 -0.3470
 2882Sol     HW14553   0.446   1.809   7.788 -0.1191  0.7256  1.4283
 2882Sol     MW14554   0.421   1.893   7.770  0.0392 -0.6995 -0.6348
 2883Sol     OW14555   1.389   2.376   3.722  0.1112 -0.3456  0.0710
 2883Sol     HW14556   1.406   2.297   3.672  0.5521  0.6676 -1.4115
 2883Sol     HW14557   1.298   2.397   3.706 -0.3819 -1.2562  1.5228
 2883Sol     MW14558   1.383   2.371   3.716 -0.1215  0.9643  0.4315
 2884Sol     OW14559   3.200   2.839   5.784 -0.3283 -0.0497 -0.1568
 2884Sol     HW14560   3.272   2.796   5.831 -0.4826 -0.4511 -0.2883
 2884Sol     HW14561   3.130   2.846   5.849 -1.1484 -2.1252 -0.7825
 2884Sol     MW14562   3.200   2.836   5.794 -0.0957  0.5907 -1.2148
 2885Sol     OW14563   1.388   2.105   3.336  0.1493  0.0116 -0.4967
 2885Sol     HW14564   1.418   2.018   3.311 -1.2779 -1.3459  2.2574
 2885Sol     HW14565   1.447   2.165   3.291  0.1295 -2.3135 -3.7921
 2885Sol     MW14566   1.396   2.102   3.330  0.2890  1.5065 -0.1557
 2886Sol     OW14567   3.237   1.185   6.847  0.1726 -0.2385 -0.0119
 2886Sol     HW14568   3.315   1.129   6.849  1.2495  1.2236 -0.0995
 2886Sol     HW14569   3.231   1.220   6.936 -0.2859 -0.2220 -0.0500
 2886Sol     MW14570   3.243   1.184   6.855  0.4898  0.7525 -0.1018
 2887Sol     OW14571   3.068   1.699   2.906  0.4635  0.9826  0.1614
 2887Sol     HW14572   3.133   1.653   2.852 -0.1771  1.2100 -0.8124
 2887Sol     HW14573   3.120   1.753   2.966  1.1840  0.5161 -0.0379
 2887Sol     MW14574   3.079   1.699   2.907 -0.6459  0.3279 -0.6649
 2888Sol     OW14575   1.322   1.906   2.033 -0.5358  0.3168 -0.3364
 2888Sol     HW14576   1.330   2.001   2.024 -1.7406  0.4580 -0.0094
 2888Sol     HW14577   1.235   1.885   1.999 -0.6713 -0.5442  0.4945
 2888Sol     MW14578   1.315   1.912   2.029  0.1240 -0.3511 -0.0379
 2889Sol     OW14579   1.949   1.701   3.985 -0.4245 -0.1982 -0.0880
 2889Sol     HW14580   1.938   1.794   3.967  1.2344  0.4552  1.9802
 2889Sol     HW14581   1.872   1.677   4.037 -0.1090  0.4257  0.6881
 2889Sol     MW14582   1.941   1.707   3.988  0.2213 -0.3548  0.2999
 2890Sol     OW14583   3.167   2.451   3.226 -0.0040  0.4947  0.2467
 2890Sol     HW14584   3.228   2.383   3.256 -0.6056  0.0019  0.3677
 2890Sol     HW14585   3.089   2.402   3.199 -0.1570  1.0811 -0.3870
 2890Sol     MW14586   3.166   2.440   3.226  0.3183 -0.6762  0.7212
 2891Sol     OW14587   2.879   0.846   6.037  0.7089 -0.8814 -0.2385
 2891Sol     HW14588   2.937   0.774   6.063 -1.1480 -2.3486 -0.1282
 2891Sol     HW14589   2.905   0.918   6.094  3.2414 -1.1402 -1.0001
 2891Sol     MW14590   2.887   0.846   6.044  0.4412 -1.0275  1.1794
 2892Sol     OW14591   0.654   3.253   3.391  0.1624  0.0571 -0.0971
 2892Sol     HW14592   0.656   3.157   3.389 -1.7099 -0.0079 -0.3048
 2892Sol     HW14593   0.700   3.277   3.471  0.6337 -1.0232 -0.0450
 2892Sol     MW14594   0.658   3.247   3.398 -0.7019 -1.0018 -0.1573
 2893Sol     OW14595   3.317   0.330   4.367  0.3541  0.1494  0.4587
 2893Sol     HW14596   3.313   0.399   4.433  1.8654  0.0471  0.6886
 2893Sol     HW14597   3.380   0.267   4.402 -0.5716 -1.0532 -0.0221
 2893Sol     MW14598   3.323   0.331   4.376  0.0082 -0.2143 -0.7546
 2894Sol     OW14599   0.954   1.535   7.437  0.3258  0.4891  0.4991
 2894Sol     HW14600   0.906   1.579   7.506 -0.4427 -0.2556  0.4438
 2894Sol     HW14601   0.903   1.457   7.417  1.0364  0.1967 -0.2460
 2894Sol     MW14602   0.945   1.532   7.441 -0.1807  0.7915 -0.2575
 2895Sol     OW14603   0.548   1.557   8.233  0.0973 -0.2442  0.4726
 2895Sol     HW14604   0.546   1.568   8.328  1.1600 -2.1061  0.7364
 2895Sol     HW14605   0.530   1.644   8.198  3.2043  1.2255  2.3603
 2895Sol     MW14606   0.546   1.566   8.238 -0.2790 -0.3866 -0.1473
 2896Sol     OW14607   0.797   3.213   1.604  0.4626  0.4677 -0.2685
 2896Sol     HW14608   0.850   3.138   1.579 -1.1907 -0.9367  0.3807
 2896Sol     HW14609   0.822   3.230   1.695 -1.8179 -1.6326  0.7829
 2896Sol     MW14610   0.804   3.208   1.610 -0.4062 -0.4974 -0.4928
 2897Sol     OW14611   1.731   2.064   6.109 -0.1447 -0.0640 -0.0283
 2897Sol     HW14612   1.787   2.082   6.034  0.8225 -0.6583  0.5292
 2897Sol     HW14613   1.705   2.150   6.141  0.0442  0.2072 -0.6049
 2897Sol     MW14614   1.734   2.073   6.105 -0.2168  0.4010  0.7307
 2898Sol     OW14615   2.149   0.562   9.489  0.9571  0.0202 -0.6499
 2898Sol     HW14616   2.141   0.624   9.417 -0.2356  0.5286 -0.0926
 2898Sol     HW14617   2.064   0.517   9.492  1.8400 -1.7402 -1.1316
 2898Sol     MW14618   2.141   0.563   9.483 -0.0559 -0.0523 -0.2734
 2899Sol     OW14619   0.096   0.092   3.550 -0.1704 -0.3752  0.0110
 2899Sol     HW14620   0.008   0.090   3.587 -0.0022  1.7591  0.6438
 2899Sol     HW14621   0.111   0.004   3.516 -1.9555 -1.1918  1.2817
 2899Sol     MW14622   0.090   0.084   3.551 -0.1689  0.0677  0.1103
 2900Sol     OW14623   0.691   2.248   9.090 -0.2757 -0.0837 -0.2538
 2900Sol     HW14624   0.611   2.287   9.053  0.5909  1.9188 -0.0303
 2900Sol     HW14625   0.660   2.194   9.163 -1.4084  0.7707 -0.0992
 2900Sol     MW14626   0.681   2.246   9.093 -0.2027 -0.3224 -0.3198
 2901Sol     OW14627   1.881   1.820   5.836  0.2867  0.4778 -0.3966
 2901Sol     HW14628   1.946   1.778   5.780  1.1265  1.9467 -0.5618
 2901Sol     HW14629   1.807   1.760   5.837  1.1915 -0.6722 -1.1586
 2901Sol     MW14630   1.880   1.811   5.831  0.6768  0.3545  0.1071
 2902Sol     OW14631   3.063   0.552   6.908  0.0539  0.3392  0.3265
 2902Sol     HW14632   2.995   0.599   6.956 -1.4719 -0.5319 -0.8973
 2902Sol     HW14633   3.017   0.476   6.870  1.8103 -0.5082 -0.1632
 2902Sol     MW14634   3.053   0.549   6.909  0.3044 -0.2062  0.0239
 2903Sol     OW14635   2.025   2.009   3.102 -0.1138 -0.1725 -0.3770
 2903Sol     HW14636   1.983   1.988   3.186 -0.5639 -0.9080 -0.7817
 2903Sol     HW14637   2.102   2.060   3.126 -1.5298  1.6823  0.3501
 2903Sol     MW14638   2.028   2.012   3.112  0.4457  0.3230 -0.0828
 2904Sol     OW14639   3.238   2.959   9.609  0.7766  0.2803 -0.2421
 2904Sol     HW14640   3.145   2.938   9.614  0.7922  0.4670  0.9929
 2904Sol     HW14641   3.265   2.970   9.700  1.8383  0.9583 -0.6299
 2904Sol     MW14642   3.232   2.958   9.617  0.0365  0.1030 -1.0164
 2905Sol     OW14643   2.943   3.190   5.966  0.5006  0.0121 -1.0632
 2905Sol     HW14644   2.894   3.266   5.936 -0.1480 -0.3728 -0.9866
 2905Sol     HW14645   2.884   3.116   5.952  0.2099 -0.1948  1.0255
 2905Sol     MW14646   2.934   3.190   5.962  0.1336  0.6938 -0.2764
 2906Sol     OW14647   0.993   0.674   5.957 -0.9818  0.4508  0.1961
 2906Sol     HW14648   0.929   0.661   5.887 -3.0027  2.4166  1.6205
 2906Sol     HW14649   1.073   0.698   5.912 -1.8267  0.1118 -1.5375
 2906Sol     MW14650   0.994   0.675   5.947  0.2285  0.0348  0.8085
 2907Sol     OW14651   1.148   1.487   4.987 -0.3407 -0.5594 -0.5446
 2907Sol     HW14652   1.204   1.535   5.047  1.1991 -1.7625 -0.9849
 2907Sol     HW14653   1.179   1.512   4.900  0.5702 -2.4199 -0.7743
 2907Sol     MW14654   1.156   1.493   4.985 -0.4049  0.8187  1.3426
 2908Sol     OW14655   0.836   2.329   7.334  0.4841  0.8768 -0.3409
 2908Sol     HW14656   0.796   2.270   7.398  2.7543 -1.4192 -0.9516
 2908Sol     HW14657   0.789   2.312   7.253  0.3528  0.7710 -0.2438
 2908Sol     MW14658   0.828   2.322   7.333  0.3317  1.6339  0.1449
 2909Sol     OW14659   3.314   2.810   7.758  0.7728 -0.0548  0.3509
 2909Sol     HW14660   3.338   2.841   7.670 -0.2515  1.2233  0.5095
 2909Sol     HW14661   3.309   2.890   7.811 -0.1973 -0.6622  1.1891
 2909Sol     MW14662   3.316   2.820   7.755 -0.2192 -0.6864 -0.7259
 2910Sol     OW14663   2.028   0.611   8.590 -0.1720  0.1877 -0.1953
 2910Sol     HW14664   2.124   0.609   8.595 -0.1582  1.8630  0.4047
 2910Sol     HW14665   2.010   0.661   8.510 -0.5545  0.4372  0.0504
 2910Sol     MW14666   2.035   0.615   8.583  0.6184 -0.5083  0.2108
 2911Sol     OW14667   0.999   1.048   5.341  0.0622  0.4472  0.4583
 2911Sol     HW14668   0.972   1.030   5.431 -1.6514  0.5938  0.0077
 2911Sol     HW14669   0.990   1.143   5.332  1.1177  0.5423  0.4047
 2911Sol     MW14670   0.996   1.055   5.348  0.7270  0.5290 -0.1652
 2912Sol     OW14671   1.621   1.759   2.365  0.0102 -0.7205 -0.2370
 2912Sol     HW14672   1.540   1.712   2.350 -0.2686 -0.9049  1.6636
 2912Sol     HW14673   1.605   1.847   2.330 -0.8974 -0.8517 -0.1661
 2912Sol     MW14674   1.613   1.763   2.361  0.0718 -0.1913  0.1969
 2913Sol     OW14675   0.898   1.980   4.755 -0.4361  0.4276 -0.4401
 2913Sol     HW14676   0.874   1.901   4.804 -2.0140  0.7524 -0.6881
 2913Sol     HW14677   0.816   2.013   4.720  0.2703  1.9779 -0.6707
 2913Sol     MW14678   0.889   1.976   4.756 -0.4662  0.0401  0.1424
 2914Sol     OW14679   1.000   1.381   8.244  0.5143  0.2504 -0.0824
 2914Sol     HW14680   0.911   1.352   8.227 -0.3691  2.7085  0.0582
 2914Sol     HW14681   1.013   1.455   8.184  2.1725  0.4033  0.4378
 2914Sol     MW14682   0.994   1.385   8.238 -0.2082 -0.2576 -0.1976
 2915Sol     OW14683   0.031   2.713   3.777  0.1538  0.4392 -0.5192
 2915Sol     HW14684  -0.035   2.660   3.822 -1.4210  1.7238 -1.2641
 2915Sol     HW14685   0.069   2.654   3.712 -0.2711 -0.3173 -0.0911
 2915Sol     MW14686   0.028   2.703   3.775 -0.2009  0.0068 -0.1031
 2916Sol     OW14687   1.002   1.678   4.327 -0.5653  0.1478 -0.4069
 2916Sol     HW14688   0.964   1.756   4.286 -1.1590  0.7746  1.2680
 2916Sol     HW14689   0.969   1.681   4.418  2.0715 -0.2726  0.5959
 2916Sol     MW14690   0.995   1.685   4.332  0.2994  0.6049  0.4654
 2917Sol     OW14691   0.172   2.031   6.090 -0.5527 -0.0383 -0.5407
 2917Sol     HW14692   0.105   2.094   6.115 -0.5111  0.7569 -2.3368
 2917Sol     HW14693   0.255   2.075   6.110 -0.5444 -0.4106  0.2543
 2917Sol     MW14694   0.173   2.040   6.094  0.3743 -0.1590 -0.3375
 2918Sol     OW14695   2.457   0.774   8.761 -0.0126 -0.0494 -0.2152
 2918Sol     HW14696   2.477   0.865   8.742 -1.5124  0.4475  0.5754
 2918Sol     HW14697   2.510   0.753   8.837 -0.7039  0.5734  0.4418
 2918Sol     MW14698   2.464   0.780   8.766  0.0370 -0.4020  1.0743
 2919Sol     OW14699   1.896   2.641   8.195  0.5038 -0.5062  0.0276
 2919Sol     HW14700   1.827   2.578   8.178 -0.4902  1.5809 -4.2448
 2919Sol     HW14701   1.863   2.693   8.269  0.2235 -3.2256  1.9000
 2919Sol     MW14702   1.887   2.640   8.200  0.9497 -0.3420 -0.1241
 2920Sol     OW14703   0.883   3.015   4.031 -0.5113  0.0768 -0.0417
 2920Sol     HW14704   0.805   2.962   4.017 -0.3116 -0.5025  1.0549
 2920Sol     HW14705   0.853   3.090   4.082 -0.6695  0.7212 -1.0568
 2920Sol     MW14706   0.874   3.017   4.034 -0.4796 -0.4738 -0.1104
 2921Sol     OW14707   1.566   1.237   2.088 -0.2248  0.3068 -0.0774
 2921Sol     HW14708   1.496   1.289   2.047  1.3393  2.0127 -0.6590
 2921Sol     HW14709   1.519   1.169   2.137 -2.1872 -1.3891 -4.0812
 2921Sol     MW14710   1.555   1.236   2.089  0.5997  0.6109  0.3034
 2922Sol     OW14711   2.258   3.045   4.339  0.1071 -0.0211  0.3148
 2922Sol     HW14712   2.173   3.043   4.296  0.0573 -1.2571  0.4530
 2922Sol     HW14713   2.252   3.118   4.401 -0.4312  0.6395 -0.5071
 2922Sol     MW14714   2.250   3.052   4.341 -0.6718 -0.0750  0.3396
 2923Sol     OW14715   0.046   1.942   3.310  0.3225 -0.3387 -0.4035
 2923Sol     HW14716  -0.009   1.969   3.384  2.7448 -0.7357  1.6156
 2923Sol     HW14717   0.044   1.847   3.312 -1.3444 -0.3855 -2.2593
 2923Sol     MW14718   0.041   1.936   3.317 -0.7327 -0.3186 -0.5646
 2924Sol     OW14719   1.925   3.356   2.388  0.1886  0.5166 -0.3415
 2924Sol     HW14720   1.831   3.355   2.370  0.2580  0.6713 -0.7101
 2924Sol     HW14721   1.933   3.317   2.476 -0.3811  2.0310  0.4075
 2924Sol     MW14722   1.917   3.353   2.395 -0.6034  0.0767  0.4964
 2925Sol     OW14723   1.703   2.329   3.481 -0.3397  0.0832 -0.3726
 2925Sol     HW14724   1.644   2.385   3.532  1.2620  0.3743  1.2009
 2925Sol     HW14725   1.790   2.350   3.514  0.5098 -1.5085 -1.5545
 2925Sol     MW14726   1.706   2.336   3.488  0.3788  0.0926 -0.5118
 2926Sol     OW14727   0.658   1.975   3.639 -0.5261 -1.0815 -0.1373
 2926Sol     HW14728   0.710   1.920   3.697 -0.4180 -0.1055  0.6871
 2926Sol     HW14729   0.721   2.032   3.596 -0.6400 -1.5880 -0.9909
 2926Sol     MW14730   0.668   1.975   3.640 -0.2624 -0.4526 -0.1701
 2927Sol     OW14731   2.531   3.203   7.531  0.0939  0.7297  0.1698
 2927Sol     HW14732   2.599   3.172   7.591  0.5987  0.6601 -0.4336
 2927Sol     HW14733   2.494   3.279   7.576  0.4600  0.6736  0.5798
 2927Sol     MW14734   2.534   3.207   7.540  0.9147  0.5351 -0.4536
 2928Sol     OW14735   1.077   0.067   1.340  0.3558  0.1755 -0.3324
 2928Sol     HW14736   1.000   0.064   1.397  0.0266 -1.9668 -0.8821
 2928Sol     HW14737   1.044   0.101   1.257  0.3338  0.7915 -0.0789
 2928Sol     MW14738   1.067   0.070   1.338 -0.1137 -0.2985  0.1368
 2929Sol     OW14739   0.467   0.184   8.783  0.0018  0.1356  0.0546
 2929Sol     HW14740   0.432   0.222   8.702 -0.6436  0.3656  0.4309
 2929Sol     HW14741   0.502   0.259   8.832  0.4817 -0.0156 -0.0549
 2929Sol     MW14742   0.467   0.194   8.781 -0.3650 -1.2574 -0.2577
 2930Sol     OW14743   1.830   2.132   7.427 -0.1097 -0.3331  0.7651
 2930Sol     HW14744   1.878   2.095   7.501 -0.8174  0.7334  1.7845
 2930Sol     HW14745   1.749   2.166   7.465 -0.5429  0.1268 -0.5240
 2930Sol     MW14746   1.827   2.132   7.437  0.3983  0.0484  0.0214
 2931Sol     OW14747   0.673   3.252   4.976  0.1112  0.1340 -0.3237
 2931Sol     HW14748   0.717   3.314   4.918 -1.5241  2.0877  0.4349
 2931Sol     HW14749   0.583   3.250   4.944  0.0332 -1.5096 -0.0335
 2931Sol     MW14750   0.669   3.258   4.968  0.2937 -0.4582 -0.7156
 2932Sol     OW14751   2.177   1.808   6.192 -0.3319  0.2497  1.3346
 2932Sol     HW14752   2.110   1.744   6.168 -1.3595  1.2841  1.3776
 2932Sol     HW14753   2.150   1.888   6.147  0.7623  0.7366  1.5372
 2932Sol     MW14754   2.169   1.810   6.186  0.6669 -0.6604 -0.7562
 2933Sol     OW14755   2.123   2.796   5.394 -0.4237 -0.2919 -0.5533
 2933Sol     HW14756   2.106   2.889   5.411  1.8395  0.2453 -1.0402
 2933Sol     HW14757   2.111   2.753   5.479  1.6735  0.9637  0.4394
 2933Sol     MW14758   2.121   2.801   5.403 -0.3200 -0.0551 -0.1496
 2934Sol     OW14759   1.929   1.247   1.461  0.1790  0.3424  0.1834
 2934Sol     HW14760   1.939   1.341   1.451 -0.8321  0.6772  1.9913
 2934Sol     HW14761   1.870   1.237   1.536  0.4067 -1.7269  0.1304
 2934Sol     MW14762   1.924   1.254   1.467  0.6877  0.4719 -1.0005
 2935Sol     OW14763   2.933   2.692   3.814 -0.2738  0.1175  0.1025
 2935Sol     HW14764   2.972   2.778   3.826  0.5865 -0.1356 -0.8117
 2935Sol     HW14765   2.843   2.710   3.785 -0.0637  0.7066 -0.1888
 2935Sol     MW14766   2.928   2.701   3.812 -0.0710  0.5228  0.0021
 2936Sol     OW14767   3.298   0.707   7.827  0.1870 -0.8156 -0.3227
 2936Sol     HW14768   3.240   0.775   7.793  1.6919  0.0731 -1.2294
 2936Sol     HW14769   3.272   0.695   7.918 -0.6206  0.4150 -0.3877
 2936Sol     MW14770   3.291   0.712   7.832  0.8228  0.4145  0.0683
 2937Sol     OW14771   0.706   2.622   8.382 -0.3519 -0.5506  0.0351
 2937Sol     HW14772   0.685   2.681   8.455  1.1228  1.2196 -0.9274
 2937Sol     HW14773   0.628   2.622   8.328  0.8524  3.5673 -1.9192
 2937Sol     MW14774   0.698   2.627   8.384  0.4557  0.5526 -0.9212
 2938Sol     OW14775   3.185   0.625   3.044  0.2245 -0.0568  0.7473
 2938Sol     HW14776   3.150   0.586   3.124  3.2142  0.6457  2.4672
 2938Sol     HW14777   3.280   0.620   3.055  0.6619  0.8055 -2.4059
 2938Sol     MW14778   3.190   0.621   3.053  0.2548 -0.7462 -0.1583
 2939Sol     OW14779   1.147   2.947   4.431  0.7043  0.6113  0.0906
 2939Sol     HW14780   1.176   2.885   4.498  0.1021  0.0878 -0.1331
 2939Sol     HW14781   1.077   2.902   4.384  0.4188  1.3661 -0.2256
 2939Sol     MW14782   1.143   2.937   4.433  0.8950 -0.0095 -0.1494
 2940Sol     OW14783   2.706   0.017   2.725  0.2013  0.7197  0.1797
 2940Sol     HW14784   2.746  -0.069   2.714  1.0595  1.1766 -0.3389
 2940Sol     HW14785   2.637   0.020   2.658  0.4775  0.6184 -0.1090
 2940Sol     MW14786   2.703   0.009   2.718 -0.7104  0.4060  0.4664
 2941Sol     OW14787   1.710   3.438   6.328 -0.3797 -0.1798 -0.3964
 2941Sol     HW14788   1.618   3.458   6.311 -0.4104 -1.3666 -1.7395
 2941Sol     HW14789   1.711   3.343   6.344  0.6627 -0.2446 -0.8008
 2941Sol     MW14790   1.701   3.431   6.328  0.0471  0.0699 -0.4034
 2942Sol     OW14791   0.606   3.348   9.624  0.3792 -0.0894  0.1888
 2942Sol     HW14792   0.572   3.428   9.584  0.5753  0.3907  0.9738
 2942Sol     HW14793   0.604   3.365   9.718  0.0408 -1.1631  0.3864
 2942Sol     MW14794   0.603   3.356   9.629 -0.1370 -1.1953  0.3346
 2943Sol     OW14795   2.989   3.222   7.527 -0.2992 -0.8038  0.1651
 2943Sol     HW14796   2.928   3.270   7.470  1.4632  1.4327  0.0582
 2943Sol     HW14797   2.980   3.265   7.612  1.9479  0.3295 -0.1474
 2943Sol     MW14798   2.982   3.231   7.530 -0.1537  0.6239  0.0090
 2944Sol     OW14799   0.644   3.131   2.742  0.4233 -0.2665 -0.0383
 2944Sol     HW14800   0.715   3.106   2.682  1.0263  1.5409 -0.1238
 2944Sol     HW14801   0.576   3.167   2.686 -0.2924 -1.3645  0.1081
 2944Sol     MW14802   0.645   3.132   2.732 -0.1028  0.7286  0.3574
 2945Sol     OW14803   1.773   0.098   7.101  0.3351 -0.0537  0.5084
 2945Sol     HW14804   1.789   0.080   7.193  0.2721 -0.0102  0.5277
 2945Sol     HW14805   1.847   0.058   7.055  0.9252  0.8750  0.6595
 2945Sol     MW14806   1.781   0.093   7.105 -0.4702  0.6872  0.8492
 2946Sol     OW14807   1.054   2.799   6.444 -0.1187 -0.9928 -0.1923
 2946Sol     HW14808   1.015   2.753   6.518  0.3408 -0.1936  0.5710
 2946Sol     HW14809   1.111   2.734   6.402  0.3630 -1.1853  0.7414
 2946Sol     MW14810   1.056   2.789   6.447 -0.2351 -0.3863 -0.0644
 2947Sol     OW14811   1.886   2.858   7.555 -0.0743  0.1334 -0.0357
 2947Sol     HW14812   1.968   2.811   7.573 -1.4939 -1.8037  1.6386
 2947Sol     HW14813   1.913   2.933   7.502  3.1431  0.9518  2.5665
 2947Sol     MW14814   1.896   2.860   7.552 -0.2675  0.2012 -0.1496
 2948Sol     OW14815   1.456   0.183   3.960 -0.3440  0.0361  0.3430
 2948Sol     HW14816   1.381   0.136   3.996 -1.0059  3.1052  3.2919
 2948Sol     HW14817   1.420   0.232   3.886 -0.3936 -1.4269 -0.6065
 2948Sol     MW14818   1.446   0.184   3.956  0.2845 -0.2238  0.0253
 2949Sol     OW14819   2.322   1.287   4.825 -1.1088 -0.4506 -0.1001
 2949Sol     HW14820   2.287   1.200   4.810  0.9205 -1.5889  1.4571
 2949Sol     HW14821   2.255   1.332   4.876 -0.8871 -2.1737  1.7884
 2949Sol     MW14822   2.313   1.284   4.828  0.1358 -0.2372 -0.4107
 2950Sol     OW14823   0.024   1.938   8.894  0.5043 -0.3242 -0.9947
 2950Sol     HW14824  -0.061   1.948   8.937  0.7233 -1.0900 -0.3597
 2950Sol     HW14825   0.058   2.027   8.885  1.0323 -0.1940  1.6171
 2950Sol     MW14826   0.020   1.947   8.897  0.4637  0.2548  1.2368
 2951Sol     OW14827   1.535   0.275   5.624  0.6870  0.2371 -0.2029
 2951Sol     HW14828   1.564   0.335   5.692  2.2558  0.4418 -1.0257
 2951Sol     HW14829   1.457   0.316   5.586 -0.5131 -0.1244  1.7662
 2951Sol     MW14830   1.530   0.284   5.627  0.4747 -0.3600 -0.2818
 2952Sol     OW14831   1.305   2.059   4.963 -0.2377 -0.1429  0.7378
 2952Sol     HW14832   1.361   2.008   5.021  0.4931  0.2695  0.4007
 2952Sol     HW14833   1.232   2.086   5.019 -0.0051 -0.5209  1.2309
 2952Sol     MW14834   1.303   2.057   4.974 -0.2231  0.3828 -0.1634
 2953Sol     OW14835   0.029   1.431   3.658  0.1865  0.1185  0.1976
 2953Sol     HW14836  -0.001   1.496   3.595 -1.4137  0.6144  1.4413
 2953Sol     HW14837  -0.024   1.354   3.641  1.1881 -0.4494 -0.4158
 2953Sol     MW14838   0.022   1.430   3.651 -0.2602 -0.2008 -0.8720
 2954Sol     OW14839   3.247   2.408   7.898  0.0500  0.1661  0.4089
 2954Sol     HW14840   3.270   2.340   7.961 -2.0362  0.8676  1.9701
 2954Sol     HW14841   3.315   2.474   7.908  0.2327 -0.1502  1.2777
 2954Sol     MW14842   3.255   2.407   7.905 -0.2701 -0.1566 -0.3171
 2955Sol     OW14843   0.842   1.253   6.331 -0.0312 -0.0856 -0.0245
 2955Sol     HW14844   0.799   1.308   6.265  1.0409  1.7340  0.7549
 2955Sol     HW14845   0.907   1.203   6.282  0.6671  1.1594 -0.3728
 2955Sol     MW14846   0.844   1.254   6.321  0.3625  0.6241 -0.3520
 2956Sol     OW14847   2.782   1.221   6.319 -0.0734 -0.8293 -0.1171
 2956Sol     HW14848   2.786   1.317   6.324  2.4688 -0.8483 -0.8688
 2956Sol     HW14849   2.712   1.203   6.257  0.5310  0.6186 -1.2591
 2956Sol     MW14850   2.776   1.228   6.314 -0.4689  0.1371 -0.6802
 2957Sol     OW14851   1.624   1.762   2.884  0.0505  0.1551  0.0289
 2957Sol     HW14852   1.598   1.753   2.792 -0.1800 -0.8114  0.1755
 2957Sol     HW14853   1.716   1.736   2.886 -0.0102 -0.0584  0.1041
 2957Sol     MW14854   1.630   1.759   2.876  0.3909  0.7589 -0.0951
 2958Sol     OW14855   0.124   2.153   3.146  0.7094  0.7160  0.2837
 2958Sol     HW14856   0.039   2.150   3.103  0.2931 -1.9247  1.2051
 2958Sol     HW14857   0.117   2.090   3.218  3.5924  0.0533  0.0473
 2958Sol     MW14858   0.116   2.147   3.149  1.1372 -1.0206 -0.2182
 2959Sol     OW14859   2.743   0.148   5.782  0.3531  0.3877  0.1028
 2959Sol     HW14860   2.773   0.229   5.739 -0.2408 -0.3018 -1.6634
 2959Sol     HW14861   2.678   0.112   5.722 -0.8485 -0.3822  1.8325
 2959Sol     MW14862   2.740   0.152   5.773 -0.0929  0.4827 -0.7847
 2960Sol     OW14863   0.674   2.715   9.411 -0.3663 -0.2740  0.3460
 2960Sol     HW14864   0.597   2.747   9.364  0.6851  0.2567 -1.0346
 2960Sol     HW14865   0.747   2.766   9.376  0.3579  0.6353  3.0632
 2960Sol     MW14866   0.674   2.723   9.404 -0.3786 -0.1792  0.5360
 2961Sol     OW14867   0.466   1.518   2.750  0.2687  0.3682  0.2013
 2961Sol     HW14868   0.528   1.490   2.683  0.6108  2.2881 -0.3159
 2961Sol     HW14869   0.517   1.519   2.832  0.2852 -0.3571  0.2030
 2961Sol     MW14870   0.476   1.516   2.752  0.5615  0.2252  0.3738
 2962Sol     OW14871   1.549   3.367   2.824  0.2245  0.0769  0.3667
 2962Sol     HW14872   1.612   3.297   2.810  0.5298  0.3374  0.4175
 2962Sol     HW14873   1.464   3.328   2.807  0.5512  0.2581 -1.7639
 2962Sol     MW14874   1.547   3.358   2.821 -0.2983 -0.0681 -0.2713
 2963Sol     OW14875   0.132   0.131   4.508 -0.1994  0.0774  0.6776
 2963Sol     HW14876   0.175   0.077   4.441  0.2181  0.8338  0.3232
 2963Sol     HW14877   0.113   0.070   4.579 -1.6449 -0.9804 -0.5611
 2963Sol     MW14878   0.134   0.121   4.508 -0.1011  0.5676  0.6117
 2964Sol     OW14879   0.730   3.168   9.478 -0.4550  0.6433 -0.0061
 2964Sol     HW14880   0.766   3.110   9.546 -1.3557 -0.6675 -0.6253
 2964Sol     HW14881   0.688   3.239   9.527  0.8109  0.8688  0.7618
 2964Sol     MW14882   0.729   3.169   9.488  1.2866 -0.0900  0.6813
 2965Sol     OW14883   0.544   0.831   4.305 -0.4029 -0.0933  0.2734
 2965Sol     HW14884   0.611   0.791   4.251 -0.4623 -0.7326  0.6697
 2965Sol     HW14885   0.556   0.925   4.293  1.1336 -0.1763  1.0363
 2965Sol     MW14886   0.551   0.836   4.299  1.3084 -0.2353  0.3301
 2966Sol     OW14887   2.614   0.953   6.941  0.0476 -0.0936  0.3637
 2966Sol     HW14888   2.557   0.876   6.952  1.3120 -1.3174 -1.3595
 2966Sol     HW14889   2.554   1.026   6.927 -1.1362 -1.0677  0.3220
 2966Sol     MW14890   2.603   0.953   6.941  0.5276  0.1646 -0.2273
 2967Sol     OW14891   2.927   3.334   9.170  0.3462  0.7011 -0.0995
 2967Sol     HW14892   2.970   3.249   9.184 -2.5099 -0.6202  1.2161
 2967Sol     HW14893   2.882   3.324   9.086 -1.0236  0.4294  0.6517
 2967Sol     MW14894   2.927   3.325   9.163  0.2417 -0.4894  0.6134
 2968Sol     OW14895   1.052   3.126   3.589  0.0896 -0.3938 -0.6578
 2968Sol     HW14896   1.049   3.044   3.540  1.9937 -1.1259  0.3834
 2968Sol     HW14897   1.071   3.099   3.679 -1.3683  1.0620  0.1169
 2968Sol     MW14898   1.054   3.116   3.593 -0.1597  0.1223 -0.5024
 2969Sol     OW14899   1.733   1.388   6.553  0.0049 -1.1088 -0.2261
 2969Sol     HW14900   1.647   1.362   6.520 -0.5228 -2.5176  2.1764
 2969Sol     HW14901   1.783   1.408   6.474 -1.9296 -2.0930 -1.7576
 2969Sol     MW14902   1.729   1.388   6.543 -0.4805  1.4641  0.1444
 2970Sol     OW14903   0.871   2.054   5.633 -0.1835  0.3663  0.0926
 2970Sol     HW14904   0.921   2.097   5.563 -0.3228  0.3360 -0.0251
 2970Sol     HW14905   0.924   2.068   5.711  0.6787 -0.8173 -0.2618
 2970Sol     MW14906   0.881   2.059   5.633 -0.4022 -0.0063 -0.1088
 2971Sol     OW14907   2.203   3.273   6.875 -0.2742 -0.1860 -0.7018
 2971Sol     HW14908   2.271   3.340   6.872 -0.7520  0.5381  3.0498
 2971Sol     HW14909   2.249   3.192   6.854  1.0690  0.7542 -1.4627
 2971Sol     MW14910   2.213   3.272   6.873  0.4795  0.4190 -0.2764
 2972Sol     OW14911   2.831   0.633   3.123  0.5758 -0.8696  0.1322
 2972Sol     HW14912   2.907   0.613   3.177  0.2758  0.1882  0.9673
 2972Sol     HW14913   2.772   0.559   3.136 -0.1408  0.0606  2.4745
 2972Sol     MW14914   2.832   0.624   3.129  0.5536 -0.3606  0.5745
 2973Sol     OW14915   2.262   2.275   6.071  0.1552 -0.4312 -0.5631
 2973Sol     HW14916   2.216   2.192   6.085  1.4331 -1.0170  0.1696
 2973Sol     HW14917   2.354   2.255   6.086  0.4439  1.1872 -0.0897
 2973Sol     MW14918   2.266   2.266   6.074 -0.3847  0.6486 -0.8285
 2974Sol     OW14919   2.822   0.887   7.205 -0.1743  0.5102 -0.1897
 2974Sol     HW14920   2.862   0.882   7.118 -1.1909  3.2104 -0.8571
 2974Sol     HW14921   2.892   0.922   7.261 -0.0607  0.4381 -0.2860
 2974Sol     MW14922   2.832   0.890   7.202  0.1920  0.6968  0.1848
 2975Sol     OW14923   0.103   2.078   5.440 -0.1649 -0.1814  0.2502
 2975Sol     HW14924   0.020   2.125   5.438 -0.3397 -0.5201 -2.0029
 2975Sol     HW14925   0.130   2.072   5.348  2.3574 -0.0763  0.9296
 2975Sol     MW14926   0.098   2.081   5.431  0.2621  0.1029  0.2045
 2976Sol     OW14927   3.192   2.770   1.959  0.3762 -0.8005  0.0935
 2976Sol     HW14928   3.144   2.762   2.041  1.2842 -0.8692  0.6231
 2976Sol     HW14929   3.258   2.700   1.962  1.1309 -0.1177 -0.1878
 2976Sol     MW14930   3.194   2.763   1.967 -0.3221 -0.5639  0.0218
 2977Sol     OW14931   3.130   1.628   8.693 -0.1645  0.3314  0.1164
 2977Sol     HW14932   3.146   1.544   8.736  0.0827  0.1166 -0.3925
 2977Sol     HW14933   3.036   1.643   8.702 -0.3829 -0.5160 -0.7256
 2977Sol     MW14934   3.123   1.622   8.698  0.9625 -0.1451  0.7399
 2978Sol     OW14935   1.877   0.362   5.056 -0.2240 -0.2360 -0.3163
 2978Sol     HW14936   1.852   0.453   5.039  1.0174  0.1215 -0.2786
 2978Sol     HW14937   1.830   0.338   5.136  0.2824  0.7324  0.2809
 2978Sol     MW14938   1.871   0.368   5.062 -0.5453 -1.0122  0.1971
 2979Sol     OW14939   2.027   2.144   7.222  0.2347 -0.2971 -0.1787
 2979Sol     HW14940   2.117   2.145   7.255  0.7561 -1.2922 -1.5624
 2979Sol     HW14941   1.973   2.139   7.301  1.3821  0.4016  0.6668
 2979Sol     MW14942   2.030   2.144   7.232 -0.2064  1.3651  0.2796
 2980Sol     OW14943   2.163   0.006   3.666  0.5174  0.1380 -0.2053
 2980Sol     HW14944   2.091  -0.048   3.634 -0.1362  0.6340  0.4113
 2980Sol     HW14945   2.172  -0.019   3.758  1.7107 -0.5451 -0.4966
 2980Sol     MW14946   2.158  -0.001   3.671  1.3767 -0.1888  0.4825
 2981Sol     OW14947   2.040   0.206   9.261  0.4311  0.2410  0.3711
 2981Sol     HW14948   2.117   0.250   9.225  1.7289 -1.9725  0.3515
 2981Sol     HW14949   1.971   0.224   9.197  1.8352 -0.7382 -1.4647
 2981Sol     MW14950   2.040   0.212   9.252  0.0446  0.1009  1.0951
 2982Sol     OW14951   2.034   2.927   2.708 -0.0452 -0.0661 -0.0416
 2982Sol     HW14952   2.030   2.884   2.793  1.7373 -3.6962 -1.6702
 2982Sol     HW14953   1.943   2.930   2.678 -0.2375 -2.6998  0.1944
 2982Sol     MW14954   2.025   2.923   2.713 -0.8619  0.8293 -1.1662
 2983Sol     OW14955   0.481   2.479   4.731  0.3456 -0.0716  0.0889
 2983Sol     HW14956   0.559   2.486   4.785  0.6365  1.1297 -0.4616
 2983Sol     HW14957   0.446   2.568   4.729 -0.7870 -0.5199 -0.0323
 2983Sol     MW14958   0.485   2.487   4.735  0.5516  0.4548 -0.9409
 2984Sol     OW14959   2.602   0.814   5.966 -0.7496 -0.2207 -0.1494
 2984Sol     HW14960   2.533   0.845   6.025  1.6062  0.4600  2.3708
 2984Sol     HW14961   2.683   0.852   6.001  0.9286 -0.9344 -3.0467
 2984Sol     MW14962   2.603   0.820   5.974 -0.5257 -0.4159 -0.1486
 2985Sol     OW14963   1.054   1.728   2.820  0.4036  0.0554 -0.6266
 2985Sol     HW14964   1.106   1.649   2.810  1.7067  0.9438 -1.0155
 2985Sol     HW14965   0.988   1.722   2.751  0.5978 -0.6176 -0.7551
 2985Sol     MW14966   1.053   1.721   2.813 -0.4931 -0.0761  0.9885
 2986Sol     OW14967   0.645   3.286   6.726 -0.0013 -0.4354 -0.2847
 2986Sol     HW14968   0.672   3.281   6.635  0.6687  0.4401 -0.1490
 2986Sol     HW14969   0.616   3.377   6.738  0.1346 -0.4763  0.4230
 2986Sol     MW14970   0.645   3.294   6.719  0.2828 -0.7385 -0.1153
 2987Sol     OW14971   1.311   1.360   9.233  0.0214  0.0382  0.1870
 2987Sol     HW14972   1.225   1.390   9.204 -0.1369 -0.7723 -0.2042
 2987Sol     HW14973   1.366   1.365   9.155  0.0571 -0.4449  0.1796
 2987Sol     MW14974   1.308   1.363   9.223  0.0594 -0.6541 -0.0997
 2988Sol     OW14975   1.848   3.246   1.694 -0.4716 -0.3032  0.1635
 2988Sol     HW14976   1.896   3.323   1.665 -2.0010  1.0886  1.1887
 2988Sol     HW14977   1.871   3.178   1.631  0.6493  1.0832 -0.9673
 2988Sol     MW14978   1.854   3.247   1.686  0.0070 -0.3730 -0.1945
 2989Sol     OW14979   2.174   1.527   7.561 -0.1318  0.4941  0.0009
 2989Sol     HW14980   2.158   1.471   7.485 -0.3173  1.4427 -0.6673
 2989Sol     HW14981   2.097   1.584   7.566 -0.2322  0.2797  1.0472
 2989Sol     MW14982   2.166   1.527   7.555  0.0768  0.3151 -0.1304
 2990Sol     OW14983   1.785   2.914   6.581 -0.5824 -0.3349  0.0045
 2990Sol     HW14984   1.772   2.922   6.675 -0.5037  0.4355 -0.0493
 2990Sol     HW14985   1.872   2.950   6.565 -1.2518  1.0673 -0.5748
 2990Sol     MW14986   1.792   2.918   6.588  0.0753 -0.3802 -0.4723
 2991Sol     OW14987   2.753   3.008   6.873 -0.0581 -0.0358  0.5433
 2991Sol     HW14988   2.684   2.994   6.809  0.0161  0.0422  0.4466
 2991Sol     HW14989   2.775   3.101   6.866  0.0359 -0.0533  0.5947
 2991Sol     MW14990   2.749   3.015   6.867 -0.6772 -0.4700  0.2618
 2992Sol     OW14991   2.466   1.601   6.356  0.3417  0.4300 -0.2775
 2992Sol     HW14992   2.459   1.663   6.429 -2.6594 -1.6864  1.3751
 2992Sol     HW14993   2.509   1.524   6.394 -2.1969 -1.0942 -0.3963
 2992Sol     MW14994   2.469   1.600   6.366  0.4583  0.0088  0.2181
 2993Sol     OW14995   1.461   1.673   6.695  0.5388 -0.1657  0.4304
 2993Sol     HW14996   1.405   1.614   6.646  3.0284 -1.8412 -0.4607
 2993Sol     HW14997   1.546   1.631   6.696  2.2634  3.1397  0.2352
 2993Sol     MW14998   1.463   1.664   6.691  0.2391  0.5542  0.0647
 2994Sol     OW14999   0.439   3.275   5.198  0.0429 -0.2947 -0.3781
 2994Sol     HW15000   0.494   3.319   5.262 -0.6821  0.4382 -0.2417
 2994Sol     HW15001   0.496   3.211   5.157  0.8250  0.0261  0.1921
 2994Sol     MW15002   0.449   3.273   5.200  0.6216  0.3897 -0.9586
 2995Sol     OW15003   0.723   0.661   3.309  0.0691  0.4311 -0.5750
 2995Sol     HW15004   0.725   0.755   3.292  1.5492  0.3603 -0.8654
 2995Sol     HW15005   0.717   0.654   3.404 -0.4009  0.8170 -0.5725
 2995Sol     MW15006   0.723   0.669   3.316  0.0485 -0.5641 -0.3245
 2996Sol     OW15007   2.106   2.082   8.799  0.3522  0.0051 -0.5452
 2996Sol     HW15008   2.154   2.134   8.734 -0.3018 -0.4382 -1.3946
 2996Sol     HW15009   2.142   1.994   8.792  0.2915 -0.0403 -0.2923
 2996Sol     MW15010   2.113   2.079   8.793 -0.6743  0.2113 -0.2919
 2997Sol     OW15011   0.224   1.795   2.841  0.3617 -0.2949 -0.6684
 2997Sol     HW15012   0.294   1.790   2.906  1.1687  0.1167 -1.4984
 2997Sol     HW15013   0.148   1.825   2.891  0.5040 -1.7100  0.4395
 2997Sol     MW15014   0.223   1.797   2.852 -0.1545  0.2228  0.5413
 2998Sol     OW15015   3.128   2.051   6.203 -0.4573 -0.1730 -0.5148
 2998Sol     HW15016   3.087   1.966   6.188 -0.4650 -0.5192  1.3816
 2998Sol     HW15017   3.130   2.061   6.298 -1.5588  2.4829 -0.7145
 2998Sol     MW15018   3.124   2.044   6.210  0.0098 -0.0655 -0.3826
 2999Sol     OW15019   3.187   0.592   5.817  0.4713 -0.0651 -0.3001
 2999Sol     HW15020   3.235   0.516   5.848  0.6889  0.5962  1.0070
 2999Sol     HW15021   3.240   0.667   5.845 -0.4793  0.6159 -0.3115
 2999Sol     MW15022   3.196   0.592   5.822 -0.3194 -0.2208  0.8401
 3000Sol     OW15023   2.767   0.703   4.393 -0.5291 -0.2479  0.0535
 3000Sol     HW15024   2.862   0.714   4.396 -0.6194  0.0886  2.9233
 3000Sol     HW15025   2.752   0.614   4.425 -1.0719 -1.2041 -2.7417
 3000Sol     MW15026   2.774   0.696   4.396  0.8328  0.2182 -0.5952
 3001Sol     OW15027   2.293   1.808   1.579 -0.1839  0.2010  0.2722
 3001Sol     HW15028   2.352   1.779   1.648 -0.5928 -1.2341  0.0302
 3001Sol     HW15029   2.350   1.853   1.516  0.4077  0.1875  0.7957
 3001Sol     MW15030   2.303   1.810   1.580  0.1720  0.1160  0.2847
   3.32400   3.45060  11.32160
