Water-ethanol mixture in organosilica
15032
    1Sil     Ob    1   1.218   2.739  11.175  0.1601  0.2653  0.1463
    1Sil     Ob    2   1.818   2.728  10.381  0.3263  0.1189  0.6573
    1Sil     Ob    3   1.024   3.235  10.731  0.0029 -0.4071  1.1122
    1Sil     Ob    4   1.565   3.232  11.111 -0.5212  0.0183  0.4483
    1Sil     Ob    5   1.399   3.115  10.370  0.2037  0.3598  0.1934
    1Sil     Ob    6   1.395   3.058  11.197  0.2212  0.0130 -0.2895
    1Sil     Ob    7   1.141   3.038  10.412  0.2863  0.3982  0.4458
    1Sil     Ob    8   1.707   3.043  10.810 -0.4789 -0.2553  0.7293
    1Sil     Ob    9   1.179   2.804  10.928 -0.6502 -0.5287  0.6574
    1Sil     Ob   10   1.483   2.800  10.532  0.0918  1.0461  0.0882
    1Sil     Ob   11   1.162   2.987  11.106  0.0908  0.2445  0.4170
    1Sil     Ob   12   0.906   2.971  10.326  0.4742  0.1579 -0.4263
    1Sil     Ob   13   1.511   2.874  10.782 -0.3976  0.3133 -0.0420
    1Sil     Ob   14   1.102   2.990  10.753 -0.3797 -1.2362 -0.3486
    1Sil     Ob   15   1.640   2.989  11.145  0.2067  0.6595  0.0115
    1Sil     Ob   16   1.327   2.872  10.344  0.1556  0.1574 -0.1284
    1Sil     Ob   17   1.578   2.789  10.292  0.7032 -0.2026  0.1228
    1Sil     Ob   18   0.980   2.805  11.081  0.1495 -0.0258  0.7723
    1Sil     Ob   19   1.278   2.802  10.685  0.6258  0.1858 -0.3708
    1Sil     Ob   20   0.947   3.057  10.561  0.6093  0.6364 -0.3672
    1Sil     Ob   21   1.490   3.055  10.950 -0.0204  1.1023 -1.0853
    1Sil     Ob   22   1.166   2.740  12.374  0.2136 -0.0204 -0.2100
    1Sil     Ob   23   1.753   2.728  11.562 -0.2850  0.1311 -0.1945
    1Sil     Ob   24   0.983   3.229  11.933 -0.1025  0.0092 -0.0780
    1Sil     Ob   25   1.525   3.235  12.314 -0.1529  0.7102 -0.1568
    1Sil     Ob   26   1.334   3.116  11.556 -0.3663  0.0977  0.3541
    1Sil     Ob   27   1.355   3.053  12.391 -0.0526  0.4169 -0.0997
    1Sil     Ob   28   1.100   3.059  11.605 -0.2746 -0.0847 -0.2474
    1Sil     Ob   29   1.640   3.037  12.008  0.0375 -0.4816  0.0441
    1Sil     Ob   30   1.142   2.825  12.122  0.4517 -0.4615 -0.3817
    1Sil     Ob   31   1.714   2.820  11.319 -0.0261 -0.5969 -0.2825
    1Sil     Ob   32   1.430   2.801  11.723 -0.1731 -0.0641  0.7957
    1Sil     Ob   33   1.117   2.990  12.314  0.3235 -0.1028 -0.6277
    1Sil     Ob   34   0.866   2.989  11.510 -0.8183  0.0687  0.2534
    1Sil     Ob   35   1.452   2.880  11.971  0.0306  0.1642  0.7521
    1Sil     Ob   36   1.062   2.984  11.927  0.2218 -0.4025  0.0929
    1Sil     Ob   37   1.591   2.980  12.326 -0.5985  0.1068 -0.0909
    1Sil     Ob   38   1.266   2.864  11.530 -0.0953 -0.0316  0.2244
    1Sil     Ob   39   1.517   2.803  11.474  0.4668 -0.9273 -0.1326
    1Sil     Ob   40   0.934   2.819  12.279 -0.5565 -0.5546  0.5172
    1Sil     Ob   41   1.220   2.804  11.877 -0.4239 -0.1966  0.7397
    1Sil     Ob   42   0.892   3.063  11.766  0.2946  0.7140  0.6128
    1Sil     Ob   43   1.436   3.063  12.150 -0.0270 -0.2379 -0.4103
    1Sil     Ob   44   1.183   3.035  11.352 -0.0143 -0.0419  0.2678
    1Sil     Ob   45   1.203   3.241  11.183 -0.5977  0.3601 -0.4618
    1Sil     Ob   46   1.809   3.216  10.364 -0.5498 -0.5458 -0.2256
    1Sil     Ob   47   1.475   3.125  10.707  0.0619  0.7279  0.0180
    1Sil     Ob   48   1.019   3.714  10.736 -0.2088 -0.3988 -0.0280
    1Sil     Ob   49   1.573   3.721  11.119 -0.3308 -0.1556  0.9380
    1Sil     Ob   50   1.390   3.612  10.372 -0.3916  0.1604  0.4473
    1Sil     Ob   51   1.392   3.562  11.197 -0.2945  0.2107 -0.0722
    1Sil     Ob   52   1.151   3.534  10.402  0.0661  0.0389  0.2832
    1Sil     Ob   53   1.694   3.552  10.824 -0.3896 -0.0803  0.0073
    1Sil     Ob   54   1.170   3.303  10.935  0.3170  0.5803 -0.2221
    1Sil     Ob   55   1.470   3.304  10.528 -0.5378 -0.0230  0.1851
    1Sil     Ob   56   1.160   3.486  11.112  0.1459 -0.6254  0.6717
    1Sil     Ob   57   0.907   3.458  10.323  0.1919  0.2525  0.1532
    1Sil     Ob   58   1.505   3.371  10.776 -0.4816 -0.3743 -0.1352
    1Sil     Ob   59   1.096   3.473  10.755 -0.0298 -0.2626  0.3562
    1Sil     Ob   60   1.639   3.468  11.157  0.0181 -0.3298  0.4234
    1Sil     Ob   61   1.327   3.370  10.321 -0.3617 -0.2480  0.2187
    1Sil     Ob   62   1.565   3.274  10.280  0.5220  0.2368 -0.5101
    1Sil     Ob   63   0.979   3.311  11.096 -0.2744 -0.4500  0.5733
    1Sil     Ob   64   1.272   3.284  10.691  0.4113  0.4391  0.3919
    1Sil     Ob   65   0.943   3.546  10.558 -0.4464 -0.3958 -0.4046
    1Sil     Ob   66   1.488   3.539  10.958 -0.2807  0.3342 -0.1580
    1Sil     Ob   67   1.167   3.235  12.378  0.3892 -0.3571 -0.2631
    1Sil     Ob   68   1.737   3.228  11.569 -0.2715 -0.2850 -0.2789
    1Sil     Ob   69   1.426   3.122  11.907 -0.2404 -0.5216  0.3554
    1Sil     Ob   70   0.985   3.714  11.927 -0.2513 -0.5447 -0.2876
    1Sil     Ob   71   1.518   3.731  12.310  0.0773  0.8473 -0.0846
    1Sil     Ob   72   1.356   3.611  11.552  0.3281  0.7346 -0.3995
    1Sil     Ob   73   1.350   3.571  12.395  0.0516  0.0386 -0.1324
    1Sil     Ob   74   1.109   3.559  11.607 -0.4627 -0.0089  0.1069
    1Sil     Ob   75   1.636   3.560  11.986  0.2035 -0.3137 -0.3642
    1Sil     Ob   76   1.131   3.303  12.130  0.2815 -0.0442 -0.3356
    1Sil     Ob   77   1.711   3.286  11.325  0.2353  0.3575  0.0531
    1Sil     Ob   78   1.422   3.302  11.721  0.1540  0.4288  0.0743
    1Sil     Ob   79   1.108   3.485  12.326 -0.1819 -0.1879 -0.1404
    1Sil     Ob   80   0.872   3.489  11.518  0.8703  0.8217  0.3978
    1Sil     Ob   81   1.453   3.376  11.964  0.0873  0.2025 -0.2421
    1Sil     Ob   82   1.058   3.473  11.946 -0.1812 -0.3406  0.2004
    1Sil     Ob   83   1.591   3.485  12.350  0.6066  0.4053 -0.3305
    1Sil     Ob   84   1.267   3.361  11.524  0.0815  0.0136  0.4811
    1Sil     Ob   85   1.507   3.306  11.476  0.2246 -0.3423 -0.0604
    1Sil     Ob   86   0.928   3.293  12.300  0.3123 -0.3117  0.3055
    1Sil     Ob   87   1.224   3.282  11.885  0.1022 -0.0311  0.1024
    1Sil     Ob   88   0.893   3.540  11.767 -0.1301  0.3443  0.1067
    1Sil     Ob   89   1.437   3.536  12.147 -0.1367  0.7165 -0.2541
    1Sil     Ob   90   1.187   3.544  11.361  0.9935  0.1582  0.3605
    1Sil     Ob   91   1.201   3.725  11.183  0.0893  0.4358 -0.5455
    1Sil     Ob   92   1.808   3.702  10.374 -0.2269  0.9748 -0.9197
    1Sil     Ob   93   1.457   3.623  10.718  0.8793 -0.0733 -0.1399
    1Sil     Ob   94   1.030   4.219  10.716  0.4236 -0.0283  0.2956
    1Sil     Ob   95   1.564   4.215  11.134  1.0868  0.0501  0.0491
    1Sil     Ob   96   1.391   4.103  10.343 -0.0237 -0.5046  0.2873
    1Sil     Ob   97   1.393   4.040  11.202  0.7179 -0.2845  0.3019
    1Sil     Ob   98   1.162   4.029  10.396  0.1639  0.5003 -0.1176
    1Sil     Ob   99   1.685   4.035  10.813  0.3183  0.8355 -0.5319
    1Sil     Ob  100   1.178   3.783  10.927 -0.0905  0.2241  0.4619
    1Sil     Ob  101   1.467   3.801  10.521 -0.1103  0.0214  0.1487
    1Sil     Ob  102   1.168   3.969  11.112  0.4763 -0.4030  0.0357
    1Sil     Ob  103   0.920   3.960  10.300  0.2655  0.0648  0.0350
    1Sil     Ob  104   1.494   3.862  10.785  0.5779 -0.7369 -0.7157
    1Sil     Ob  105   1.095   3.967  10.765  0.1115 -0.2121  0.2018
    1Sil     Ob  106   1.647   3.979  11.147 -0.0079 -0.1878 -0.1830
    1Sil     Ob  107   1.318   3.862  10.319 -0.0311  0.2924 -0.2444
    1Sil     Ob  108   1.565   3.772  10.287  0.3768 -0.0838  0.0679
    1Sil     Ob  109   0.977   3.797  11.083  0.1110 -0.1434 -0.6717
    1Sil     Ob  110   1.265   3.787  10.686 -0.1800 -0.7233  0.1100
    1Sil     Ob  111   0.957   4.032  10.556  0.5643  0.3869 -0.4534
    1Sil     Ob  112   1.479   4.053  10.961 -0.3911  0.2330 -0.5320
    1Sil     Ob  113   1.151   3.729  12.371 -0.3809 -0.0821 -0.5646
    1Sil     Ob  114   1.738   3.708  11.568 -0.1629 -0.2385  0.6114
    1Sil     Ob  115   1.397   3.625  11.906  0.7619 -0.0476  0.9033
    1Sil     Ob  116   0.972   4.225  11.931 -0.0621 -0.5599  0.1321
    1Sil     Ob  117   1.517   4.217  12.322 -0.1454  0.4603 -0.0750
    1Sil     Ob  118   1.339   4.112  11.562  0.4067 -0.2766 -0.2836
    1Sil     Ob  119   1.350   4.033  12.387 -0.2164  0.0547 -0.6906
    1Sil     Ob  120   1.094   4.024  11.598  0.1280  0.2577  0.0631
    1Sil     Ob  121   1.641   4.033  11.996 -0.0341  0.4531  0.4510
    1Sil     Ob  122   1.132   3.795  12.118  0.0610 -0.2551  1.0029
    1Sil     Ob  123   1.716   3.788  11.320 -0.3668 -0.0269 -0.0920
    1Sil     Ob  124   1.426   3.801  11.716 -0.0372  0.0786  0.2991
    1Sil     Ob  125   1.112   3.967  12.294  0.1000 -0.3960 -0.1695
    1Sil     Ob  126   0.856   3.977  11.504 -0.2721 -0.2920 -0.1580
    1Sil     Ob  127   1.448   3.875  11.969 -0.5502 -0.1231  0.2355
    1Sil     Ob  128   1.049   3.971  11.961 -0.0054  0.2665 -0.0439
    1Sil     Ob  129   1.594   3.966  12.335  0.5240  0.3350  0.5868
    1Sil     Ob  130   1.274   3.858  11.516 -0.7807  0.2414  0.6302
    1Sil     Ob  131   1.507   3.790  11.471  0.4965  0.0105 -0.7872
    1Sil     Ob  132   0.927   3.791  12.269  0.2209  0.7680  0.0355
    1Sil     Ob  133   1.224   3.808  11.873 -0.7200  0.3740 -0.0694
    1Sil     Ob  134   0.902   4.035  11.758 -0.2736  0.0473  0.3628
    1Sil     Ob  135   1.434   4.045  12.148 -0.0272 -0.3081  0.0103
    1Sil     Ob  136   1.185   4.044  11.361 -0.5960 -0.3742 -0.0440
    1Sil     Ob  137   1.223   4.216  11.170 -0.4029 -0.1989  0.1160
    1Sil     Ob  138   1.805   4.197  10.375 -0.5044 -0.1702 -0.0040
    1Sil     Ob  139   1.457   4.114  10.716 -0.5578 -0.2808  0.1018
    1Sil     Ob  140   1.038   4.704  10.711  0.0514  0.0011 -0.4815
    1Sil     Ob  141   1.567   4.710  11.123 -0.0638 -0.2696  0.3052
    1Sil     Ob  142   1.397   4.602  10.367  0.0489 -0.4042 -0.3644
    1Sil     Ob  143   1.394   4.540  11.204 -0.1526  0.0491  0.0152
    1Sil     Ob  144   1.149   4.514  10.409 -0.0003 -0.4258 -0.3292
    1Sil     Ob  145   1.683   4.542  10.805  0.1510  0.5071  0.3831
    1Sil     Ob  146   1.187   4.281  10.924 -0.2386  0.2431  0.3668
    1Sil     Ob  147   1.463   4.295  10.526  0.0799  0.1975 -0.6143
    1Sil     Ob  148   1.169   4.458  11.106 -0.0987 -0.2275 -0.1782
    1Sil     Ob  149   0.919   4.453  10.323  0.1697 -0.1178 -0.5962
    1Sil     Ob  150   1.510   4.358  10.762 -0.2128  1.2236 -0.2970
    1Sil     Ob  151   1.111   4.464  10.750  0.1434  1.1264  0.3546
    1Sil     Ob  152   1.633   4.464  11.165  0.2042  0.1923  0.4818
    1Sil     Ob  153   1.335   4.363  10.311  0.2264 -0.2938 -0.1807
    1Sil     Ob  154   1.576   4.279  10.289 -0.3326  0.2616 -0.1148
    1Sil     Ob  155   0.989   4.277  11.087  0.1565 -0.3211 -0.5887
    1Sil     Ob  156   1.269   4.298  10.683  0.1777  0.1334 -0.9894
    1Sil     Ob  157   0.952   4.531  10.559  0.7911 -0.5550  0.1017
    1Sil     Ob  158   1.474   4.520  10.957  0.1226  0.2882 -0.1126
    1Sil     Ob  159   1.163   4.207  12.363 -0.0030 -0.0378 -0.2514
    1Sil     Ob  160   1.735   4.211  11.565 -0.1679 -0.1081 -1.0383
    1Sil     Ob  161   1.407   4.112  11.904  0.1281 -0.4831  0.2199
    1Sil     Ob  162   0.982   4.715  11.939 -0.0002  0.0614  0.2826
    1Sil     Ob  163   1.505   4.708  12.311 -0.5646 -0.1549 -0.0701
    1Sil     Ob  164   1.347   4.590  11.550  0.1912 -0.6456 -0.0550
    1Sil     Ob  165   1.345   4.531  12.399 -0.1277 -0.1330 -0.6856
    1Sil     Ob  166   1.102   4.532  11.609 -0.1527 -0.1085  0.3040
    1Sil     Ob  167   1.643   4.541  12.005 -0.2592  0.0423  0.3112
    1Sil     Ob  168   1.124   4.288  12.125 -0.4472  0.2953  1.0275
    1Sil     Ob  169   1.706   4.288  11.327  0.5009 -0.1806 -0.2594
    1Sil     Ob  170   1.426   4.290  11.715 -0.6684  0.2470  0.3631
    1Sil     Ob  171   1.110   4.463  12.317  0.9505 -0.0238 -0.1054
    1Sil     Ob  172   0.871   4.468  11.519  0.1221 -0.3266  0.0714
    1Sil     Ob  173   1.469   4.351  11.952 -0.3437  0.0048 -0.4079
    1Sil     Ob  174   1.056   4.470  11.951  0.4231 -0.2656  0.6206
    1Sil     Ob  175   1.588   4.461  12.363  0.1300 -0.4571 -0.1964
    1Sil     Ob  176   1.266   4.351  11.530  0.1046  0.5506  0.0328
    1Sil     Ob  177   1.503   4.288  11.471 -0.5905  0.0948 -0.3127
    1Sil     Ob  178   0.939   4.267  12.315  0.1375 -0.0258 -0.1356
    1Sil     Ob  179   1.226   4.291  11.885 -0.0920  0.3097 -0.0233
    1Sil     Ob  180   0.896   4.555  11.762 -0.4512 -0.2389  0.1580
    1Sil     Ob  181   1.431   4.513  12.152 -0.2666 -0.9654  0.7169
    1Sil     Ob  182   1.184   4.520  11.357  0.3634 -0.3840 -0.1216
    1Sil     Ob  183   1.202   4.701  11.179  0.3310  0.5144  0.1708
    1Sil     Ob  184   1.814   4.696  10.370 -0.5007  0.0791 -0.1593
    1Sil     Ob  185   1.451   4.600  10.722 -0.2092  0.1802 -0.5006
    1Sil     Ob  186   1.028   5.203  10.725 -0.5760  0.6563  0.1972
    1Sil     Ob  187   1.558   5.205  11.143 -0.4092 -0.3888 -0.6172
    1Sil     Ob  188   1.389   5.085  10.368 -0.4459  0.0588  0.1727
    1Sil     Ob  189   1.394   5.032  11.214 -0.4526 -0.0119  0.0969
    1Sil     Ob  190   1.149   5.002  10.404 -0.0356  0.1359 -0.4658
    1Sil     Ob  191   1.681   5.021  10.805  0.2355 -0.4591 -0.5640
    1Sil     Ob  192   1.186   4.764  10.914 -0.3371 -0.7711  0.3926
    1Sil     Ob  193   1.471   4.782  10.531  0.0440 -0.4074 -0.0967
    1Sil     Ob  194   1.178   4.949  11.099  0.1812 -0.3824 -0.2297
    1Sil     Ob  195   0.923   4.945  10.312 -0.0077 -0.0178 -0.4252
    1Sil     Ob  196   1.500   4.845  10.776  0.2204  0.6042 -0.5796
    1Sil     Ob  197   1.095   4.951  10.751 -0.3987 -0.4349  0.1750
    1Sil     Ob  198   1.637   4.950  11.159 -0.7017 -0.0729 -0.0893
    1Sil     Ob  199   1.330   4.834  10.321 -0.1560 -0.2916 -0.0808
    1Sil     Ob  200   1.580   4.761  10.289 -0.5513  0.7524 -0.0833
    1Sil     Ob  201   0.991   4.781  11.079 -0.0048 -0.0026  0.0151
    1Sil     Ob  202   1.273   4.780  10.676 -0.3337  0.3198  0.1666
    1Sil     Ob  203   0.943   5.021  10.561 -0.0292 -0.0053  0.1210
    1Sil     Ob  204   1.476   5.025  10.972  0.4269  0.7425 -0.3904
    1Sil     Ob  205   1.161   4.711  12.374  0.3671  0.7195 -0.2663
    1Sil     Ob  206   1.740   4.717  11.577  0.0501 -0.0451 -0.6175
    1Sil     Ob  207   1.403   4.600  11.916 -0.1674  0.2994 -0.2805
    1Sil     Ob  208   0.985   5.204  11.922 -0.5651 -0.1479 -0.9619
    1Sil     Ob  209   1.517   5.205  12.302  0.1713 -0.1490 -0.3798
    1Sil     Ob  210   1.337   5.087  11.542  0.1505  0.3407 -0.0789
    1Sil     Ob  211   1.337   5.037  12.392 -0.4040  0.0089 -1.2552
    1Sil     Ob  212   1.094   5.003  11.596  0.1174 -0.0012 -0.6731
    1Sil     Ob  213   1.633   5.026  11.999  0.0622 -0.3158  0.2220
    1Sil     Ob  214   1.149   4.792  12.121 -0.3223  0.2892 -0.0018
    1Sil     Ob  215   1.719   4.773  11.319 -0.2462 -0.0804 -0.2381
    1Sil     Ob  216   1.422   4.775  11.729  0.6473 -0.5243 -0.3359
    1Sil     Ob  217   1.118   4.964  12.301 -0.2569 -0.1116 -0.6617
    1Sil     Ob  218   0.861   4.955  11.509  0.1568  0.1460 -0.5428
    1Sil     Ob  219   1.455   4.849  11.969  0.1115  0.6421 -0.3116
    1Sil     Ob  220   1.056   4.959  11.933  0.2721 -0.7356 -0.8533
    1Sil     Ob  221   1.585   4.960  12.337 -0.0850  0.4141 -0.0979
    1Sil     Ob  222   1.271   4.839  11.523  0.3821  0.4993 -0.2919
    1Sil     Ob  223   1.512   4.783  11.479  0.4835  0.1779  0.5830
    1Sil     Ob  224   0.938   4.794  12.279  0.0425  0.5831 -0.1637
    1Sil     Ob  225   1.229   4.771  11.880  0.1928  0.3475  0.1993
    1Sil     Ob  226   0.901   5.049  11.749  0.3312  0.1227 -0.1728
    1Sil     Ob  227   1.424   5.046  12.138 -0.1483  0.2202 -0.0179
    1Sil     Ob  228   1.181   5.019  11.355  0.0330 -0.7961 -0.2601
    1Sil     Ob  229   1.214   5.197  11.174 -0.1373 -0.3087  0.0651
    1Sil     Ob  230   1.804   5.202  10.367  0.0014 -0.2342 -0.0223
    1Sil     Ob  231   1.446   5.101  10.719  0.5893 -0.2945  0.1954
    1Sil     Ob  232   1.041   5.705  10.731  0.4900 -0.0190 -0.0044
    1Sil     Ob  233   1.571   5.713  11.129 -0.0860  0.6917 -0.0856
    1Sil     Ob  234   1.395   5.584  10.343 -0.5525  0.2296 -0.5783
    1Sil     Ob  235   1.406   5.530  11.208 -0.3709 -0.2965  0.6603
    1Sil     Ob  236   1.162   5.513  10.404  0.1161  0.1154  0.6825
    1Sil     Ob  237   1.689   5.521  10.807  0.8025  1.4324 -0.2394
    1Sil     Ob  238   1.177   5.258  10.935  0.0680 -0.0291  0.2121
    1Sil     Ob  239   1.473   5.267  10.527  0.1406 -0.6352 -0.3764
    1Sil     Ob  240   1.177   5.442  11.108 -0.4809 -0.4347 -0.0346
    1Sil     Ob  241   0.921   5.442  10.328  0.0028 -0.4225 -0.5079
    1Sil     Ob  242   1.508   5.344  10.768  0.3242 -0.1378 -0.1796
    1Sil     Ob  243   1.097   5.450  10.778 -0.1399 -0.0482 -0.2463
    1Sil     Ob  244   1.645   5.458  11.154  0.5089 -0.0671  0.2147
    1Sil     Ob  245   1.319   5.334  10.328 -0.7005  0.1853 -0.1875
    1Sil     Ob  246   1.564   5.263  10.284 -0.0897  0.4325 -0.4131
    1Sil     Ob  247   0.991   5.269  11.087  0.6295 -0.0634  0.4743
    1Sil     Ob  248   1.269   5.278  10.692  0.0180 -0.5372 -0.2358
    1Sil     Ob  249   0.970   5.505  10.571 -0.5419 -0.4576 -0.3305
    1Sil     Ob  250   1.482   5.522  10.962 -0.2018 -0.5356  0.2929
    1Sil     Ob  251   1.167   5.213  12.354  0.2760  0.1339 -0.0729
    1Sil     Ob  252   1.750   5.207  11.568 -1.0324 -0.1387 -0.5066
    1Sil     Ob  253   1.404   5.090  11.897 -0.0226  0.1264 -0.0126
    1Sil     Ob  254   0.972   5.690  11.938  0.4421 -0.0102 -0.6750
    1Sil     Ob  255   1.510   5.686  12.312 -0.1889  0.1040 -0.1896
    1Sil     Ob  256   1.337   5.584  11.566 -0.7808 -0.2126 -0.1388
    1Sil     Ob  257   1.347   5.522  12.405 -0.2637 -0.4168 -0.3601
    1Sil     Ob  258   1.101   5.509  11.605 -0.1070 -0.7625  0.2654
    1Sil     Ob  259   1.631   5.520  12.001  0.1523 -0.2492 -0.3142
    1Sil     Ob  260   1.147   5.274  12.108  0.2099 -0.4338  0.1858
    1Sil     Ob  261   1.727   5.279  11.326  0.1083  0.1154  0.6289
    1Sil     Ob  262   1.420   5.262  11.708 -1.0230 -0.2829 -0.7066
    1Sil     Ob  263   1.120   5.459  12.293 -0.5271 -0.6330  0.0535
    1Sil     Ob  264   0.874   5.455  11.509  0.0882 -0.2317  0.4516
    1Sil     Ob  265   1.450   5.337  11.959 -0.0412 -0.1292  0.1856
    1Sil     Ob  266   1.047   5.447  11.932 -0.4788 -0.1854 -0.6351
    1Sil     Ob  267   1.590   5.437  12.352 -0.2006  0.2998  0.5584
    1Sil     Ob  268   1.269   5.340  11.518  0.5077  0.3503  0.0480
    1Sil     Ob  269   1.517   5.254  11.475  0.5662 -0.8510  0.0172
    1Sil     Ob  270   0.942   5.279  12.262  0.9069  0.1441 -0.6654
    1Sil     Ob  271   1.218   5.277  11.863 -0.3289  0.4906 -0.2936
    1Sil     Ob  272   0.889   5.537  11.750 -0.0236 -0.4600  0.3479
    1Sil     Ob  273   1.426   5.504  12.157  0.4041 -0.1096  0.0145
    1Sil     Ob  274   1.191   5.525  11.362 -0.3017 -0.0609 -0.3242
    1Sil     Ob  275   1.209   5.701  11.174 -0.2861 -0.2185 -0.2777
    1Sil     Ob  276   1.798   5.692  10.387  0.0244  0.0572  0.3694
    1Sil     Ob  277   1.454   5.588  10.712 -0.4540  0.4916 -0.1174
    1Sil     Ob  278   1.398   2.555  11.207  0.3398 -0.5601  0.3679
    1Sil     Ob  279   1.146   2.550  10.410  0.7026  0.0633  0.0332
    1Sil     Ob  280   1.694   2.562  10.816 -0.3300  0.1433 -0.0854
    1Sil     Ob  281   1.196   5.775  10.932  0.5810  0.2694 -0.7965
    1Sil     Ob  282   1.472   5.763  10.519  0.2772  0.7557 -0.1255
    1Sil     Ob  283   1.163   5.948  11.117 -0.4265 -0.2370  0.2889
    1Sil     Ob  284   0.918   2.474  10.327  0.3191  0.0379  0.0097
    1Sil     Ob  285   1.519   5.834  10.759 -0.1671 -0.3542 -0.1103
    1Sil     Ob  286   1.103   2.497  10.773  0.2333  0.5638  0.2391
    1Sil     Ob  287   1.652   2.498  11.145 -0.3044 -0.1765  0.0572
    1Sil     Ob  288   1.323   2.381  10.323  0.1777 -0.4368  0.0255
    1Sil     Ob  289   1.567   5.766  10.278  0.2844  0.0118 -0.0231
    1Sil     Ob  290   0.983   5.774  11.074  0.0850 -0.1760  0.0171
    1Sil     Ob  291   1.282   5.773  10.679 -0.3898  0.3803 -0.3665
    1Sil     Ob  292   0.957   2.549  10.576 -0.4195  0.5173  0.1741
    1Sil     Ob  293   1.487   2.548  10.963  0.1560  0.0099 -0.2740
    1Sil     Ob  294   1.158   5.695  12.369  0.1874  0.2249 -0.0943
    1Sil     Ob  295   1.744   5.689  11.563  0.1116 -0.7711 -0.3259
    1Sil     Ob  296   1.397   5.580  11.917 -0.0784 -0.3018  0.0233
    1Sil     Ob  297   1.337   2.551  12.392  0.0345 -1.0618 -0.2801
    1Sil     Ob  298   1.109   2.563  11.600 -0.2702  0.3447  0.3245
    1Sil     Ob  299   1.637   2.555  12.010  0.6416  0.2420  0.2597
    1Sil     Ob  300   1.136   5.779  12.124 -0.0054  0.2557 -0.2671
    1Sil     Ob  301   1.732   5.770  11.314 -0.0171 -0.7250 -0.1052
    1Sil     Ob  302   1.427   5.756  11.724  0.8905  0.3521 -0.2461
    1Sil     Ob  303   1.110   5.949  12.326  0.1011 -0.4765  0.2930
    1Sil     Ob  304   0.877   2.498  11.507  0.8591  0.3737  0.7501
    1Sil     Ob  305   1.450   5.827  11.975 -0.1477 -0.0473 -0.0575
    1Sil     Ob  306   1.059   2.489  11.945  0.2222 -0.1828  0.1076
    1Sil     Ob  307   1.580   2.488  12.347 -0.3437 -0.1819 -0.2111
    1Sil     Ob  308   1.274   2.382  11.528  0.6909  0.2803  0.5195
    1Sil     Ob  309   1.513   5.760  11.474 -0.3108  0.6250  0.2187
    1Sil     Ob  310   0.936   5.773  12.277 -0.4691  0.2883  0.6248
    1Sil     Ob  311   1.218   5.745  11.884  0.3249  0.3786  0.5447
    1Sil     Ob  312   0.902   2.567  11.752 -0.3754  0.1446 -0.4498
    1Sil     Ob  313   1.427   2.556  12.152 -0.4206  0.0246 -0.3266
    1Sil     Ob  314   1.190   2.567  11.370  0.6541  0.3182 -0.6323
    1Sil     Ob  315   2.053   2.733  11.183 -0.0281 -0.0004 -0.4188
    1Sil     Ob  316   2.645   2.724  10.359  0.0200 -0.7730  0.2331
    1Sil     Ob  317   1.864   3.228  10.730  0.6060 -0.1622  0.0470
    1Sil     Ob  318   2.394   3.240  11.130  0.3587  1.2430 -0.0421
    1Sil     Ob  319   2.233   3.105  10.353  0.5308 -0.4138 -0.4721
    1Sil     Ob  320   2.220   3.055  11.206  0.3794 -0.0424 -0.6606
    1Sil     Ob  321   1.990   3.031  10.392 -0.1818 -0.2453 -0.8384
    1Sil     Ob  322   2.512   3.062  10.829 -0.5630 -0.1138  0.3094
    1Sil     Ob  323   2.020   2.807  10.947 -0.2119 -0.7060 -0.4816
    1Sil     Ob  324   2.310   2.811  10.519  0.4980 -0.6936 -0.3919
    1Sil     Ob  325   1.990   2.984  11.123 -0.0017 -0.3157  0.2890
    1Sil     Ob  326   1.754   2.972  10.322  0.2822  0.1104  0.2567
    1Sil     Ob  327   2.344   2.875  10.778 -0.2062 -0.4440  0.4701
    1Sil     Ob  328   1.947   2.981  10.756 -0.5199  0.5741  0.1048
    1Sil     Ob  329   2.464   2.981  11.165 -0.1936  0.0140  0.3224
    1Sil     Ob  330   2.167   2.863  10.307 -0.6928 -0.2050 -0.2322
    1Sil     Ob  331   2.406   2.770  10.281  0.1056  0.7995  0.0914
    1Sil     Ob  332   1.808   2.799  11.091  0.1257 -0.0344  0.5570
    1Sil     Ob  333   2.116   2.800  10.687 -0.3152  0.0231 -0.1313
    1Sil     Ob  334   1.787   3.051  10.562  0.3882  0.3225 -0.0962
    1Sil     Ob  335   2.307   3.046  10.974  0.1681  0.2418  0.6217
    1Sil     Ob  336   2.001   2.738  12.367 -0.2440 -0.5943 -0.9287
    1Sil     Ob  337   2.583   2.739  11.571 -0.1919 -0.7129 -0.5070
    1Sil     Ob  338   1.808   3.230  11.948 -0.3565  0.0092  0.1009
    1Sil     Ob  339   2.356   3.227  12.312 -0.9936  0.0233 -0.0750
    1Sil     Ob  340   2.177   3.120  11.553  0.2430 -0.0814  0.5407
    1Sil     Ob  341   2.177   3.070  12.403 -0.1446 -0.0458  0.3903
    1Sil     Ob  342   1.930   3.065  11.601 -0.2201 -0.1173  0.3673
    1Sil     Ob  343   2.478   3.041  12.004  0.7423  0.4105 -0.1437
    1Sil     Ob  344   1.966   2.812  12.118  0.5253 -0.2944  0.1881
    1Sil     Ob  345   2.546   2.804  11.330  0.3646  0.2098  0.0881
    1Sil     Ob  346   2.259   2.798  11.729  0.0742 -0.0171  0.3307
    1Sil     Ob  347   1.950   2.990  12.309  0.4158  0.2521  0.1429
    1Sil     Ob  348   1.697   2.986  11.520  0.5340 -0.5398 -0.3180
    1Sil     Ob  349   2.291   2.863  11.982 -0.0853 -0.6327  0.2588
    1Sil     Ob  350   1.889   2.983  11.949  0.0199 -0.0442 -0.1845
    1Sil     Ob  351   2.405   2.978  12.361  0.1346  0.3042 -0.5669
    1Sil     Ob  352   2.092   2.874  11.540  0.1225 -0.5504 -0.3674
    1Sil     Ob  353   2.344   2.819  11.495 -0.1516 -0.5411  0.7187
    1Sil     Ob  354   1.760   2.802  12.281 -0.3205 -0.6940 -0.6339
    1Sil     Ob  355   2.054   2.791  11.877 -0.1528 -0.6053 -0.1218
    1Sil     Ob  356   1.733   3.065  11.764  0.8564  0.1171 -0.3340
    1Sil     Ob  357   2.260   3.045  12.162  0.5326 -0.0550 -0.7137
    1Sil     Ob  358   2.019   3.054  11.365 -0.5534  0.0820  0.2440
    1Sil     Ob  359   2.037   3.233  11.178  0.5848 -0.2803 -0.4794
    1Sil     Ob  360   2.629   3.225  10.390 -0.1613 -0.0893 -0.1632
    1Sil     Ob  361   2.289   3.123  10.727  0.0613  0.4756  0.9518
    1Sil     Ob  362   1.872   3.715  10.740 -0.0675 -0.1114  0.3240
    1Sil     Ob  363   2.390   3.718  11.139 -0.2096 -0.0675  0.0027
    1Sil     Ob  364   2.226   3.589  10.376 -0.1533  0.4663  0.5362
    1Sil     Ob  365   2.230   3.536  11.201  0.4251 -0.4894 -0.0508
    1Sil     Ob  366   1.982   3.508  10.416  0.5498 -0.3477 -0.0371
    1Sil     Ob  367   2.520   3.542  10.808  0.7110 -0.0138 -0.1393
    1Sil     Ob  368   2.011   3.285  10.930 -0.4445  0.1230 -0.0544
    1Sil     Ob  369   2.312   3.290  10.528  0.1808  0.0002 -0.4210
    1Sil     Ob  370   2.001   3.474  11.101 -0.4673 -0.6457 -0.4842
    1Sil     Ob  371   1.734   3.461  10.339 -0.0993 -0.1138 -0.4166
    1Sil     Ob  372   2.340   3.372  10.777  1.3030 -0.0067  0.0407
    1Sil     Ob  373   1.935   3.472  10.767  0.4401  0.1590  0.4687
    1Sil     Ob  374   2.481   3.481  11.157  0.2421 -0.0834 -0.3391
    1Sil     Ob  375   2.162   3.355  10.328  0.5178  0.9620  0.3288
    1Sil     Ob  376   2.404   3.288  10.292 -0.1253  0.1483 -0.1506
    1Sil     Ob  377   1.815   3.295  11.088  0.5002  0.0232 -0.3950
    1Sil     Ob  378   2.106   3.292  10.685  0.3058 -0.0939  0.0966
    1Sil     Ob  379   1.770   3.545  10.577 -0.0057  0.1607 -0.0835
    1Sil     Ob  380   2.316   3.541  10.966 -0.1867 -0.6248  0.0463
    1Sil     Ob  381   1.985   3.233  12.375  0.0395 -0.2621  0.4179
    1Sil     Ob  382   2.590   3.230  11.574 -0.3465 -0.3184  0.2181
    1Sil     Ob  383   2.235   3.110  11.909  0.1002  0.0075 -0.3212
    1Sil     Ob  384   1.809   3.721  11.912  0.6781  0.2796  0.7504
    1Sil     Ob  385   2.343   3.728  12.309 -0.6265  0.1601  0.2195
    1Sil     Ob  386   2.184   3.609  11.537  0.2221  0.2590  0.4188
    1Sil     Ob  387   2.179   3.550  12.400  0.5948  0.3637  0.5570
    1Sil     Ob  388   1.937   3.540  11.590  0.2839 -0.1506  0.1053
    1Sil     Ob  389   2.475   3.540  12.006  0.4926 -0.0051  0.7568
    1Sil     Ob  390   1.970   3.319  12.125  0.2318  0.0905 -0.6474
    1Sil     Ob  391   2.559   3.301  11.324 -0.1694 -0.0834 -0.1868
    1Sil     Ob  392   2.257   3.293  11.726  0.1528  0.3910  0.0161
    1Sil     Ob  393   1.938   3.482  12.317 -0.7650 -0.6588 -0.3302
    1Sil     Ob  394   1.697   3.470  11.502  0.0935  0.5275  0.2326
    1Sil     Ob  395   2.287   3.361  11.974  0.3917  0.1874 -0.1671
    1Sil     Ob  396   1.885   3.477  11.946 -0.1639 -0.2204 -0.0793
    1Sil     Ob  397   2.422   3.474  12.356  0.4833 -0.6020 -0.1044
    1Sil     Ob  398   2.112   3.364  11.516 -0.7049 -0.3321  0.2162
    1Sil     Ob  399   2.352   3.280  11.479  0.5290  0.5117 -0.0406
    1Sil     Ob  400   1.765   3.302  12.294  0.1258  0.6371 -0.0492
    1Sil     Ob  401   2.052   3.285  11.877  0.0860  0.1764 -0.0604
    1Sil     Ob  402   1.732   3.537  11.750 -0.1496  0.2190 -0.3197
    1Sil     Ob  403   2.265   3.542  12.160 -0.2115  0.7344 -0.5254
    1Sil     Ob  404   2.028   3.543  11.347 -0.3088 -0.6097 -0.2512
    1Sil     Ob  405   2.057   3.723  11.167 -0.2798 -0.3754 -0.0345
    1Sil     Ob  406   2.647   3.713  10.368 -0.5074  0.1500  0.6162
    1Sil     Ob  407   2.292   3.617  10.718 -0.8696  0.6855  0.5018
    1Sil     Ob  408   1.866   4.202  10.724  0.1189 -0.3120  0.7091
    1Sil     Ob  409   2.412   4.207  11.123  0.0412  0.2550  0.6463
    1Sil     Ob  410   2.220   4.103  10.368  0.2351 -0.2528 -0.0277
    1Sil     Ob  411   2.229   4.057  11.211 -0.2673 -0.0645  0.3879
    1Sil     Ob  412   1.984   4.016  10.415 -1.0503  0.0964 -0.6355
    1Sil     Ob  413   2.524   4.044  10.800  0.0588 -0.1476  0.3710
    1Sil     Ob  414   2.032   3.794  10.922 -0.0261  0.2946  0.2412
    1Sil     Ob  415   2.313   3.784  10.521  0.1029  0.6618 -0.0923
    1Sil     Ob  416   2.008   3.973  11.110 -0.4477 -0.4230  0.1532
    1Sil     Ob  417   1.757   3.949  10.312 -0.8711 -0.2104  0.1577
    1Sil     Ob  418   2.356   3.861  10.765 -0.1619 -0.2826 -0.2600
    1Sil     Ob  419   1.940   3.966  10.763  0.3406  0.3780  0.1533
    1Sil     Ob  420   2.465   3.964  11.149  0.1724 -0.5273  0.3295
    1Sil     Ob  421   2.160   3.844  10.331 -0.3463 -0.5336  0.3768
    1Sil     Ob  422   2.404   3.758  10.281  0.2044  0.2429  0.4724
    1Sil     Ob  423   1.826   3.789  11.086 -0.3204  0.3608  0.1695
    1Sil     Ob  424   2.118   3.799  10.684  0.6539 -0.5294  0.0612
    1Sil     Ob  425   1.780   4.014  10.567  0.0850  0.6150 -0.4749
    1Sil     Ob  426   2.309   4.030  10.963 -0.2374  0.1981 -0.0025
    1Sil     Ob  427   1.981   3.731  12.376  0.5292 -0.7009  0.1601
    1Sil     Ob  428   2.577   3.725  11.569 -0.3879 -0.1293 -0.1322
    1Sil     Ob  429   2.234   3.612  11.922  0.2455  0.3364  0.1663
    1Sil     Ob  430   1.815   4.216  11.919  0.3263 -0.2562  0.6428
    1Sil     Ob  431   2.342   4.218  12.332 -0.7365  0.9803  0.0854
    1Sil     Ob  432   2.165   4.106  11.551 -0.1659 -0.5998  0.3275
    1Sil     Ob  433   2.172   4.044  12.397  0.5305  0.0233 -0.6186
    1Sil     Ob  434   1.924   4.038  11.605 -0.1703  0.2102 -0.1920
    1Sil     Ob  435   2.471   4.039  12.002 -0.8207 -0.5915 -0.2121
    1Sil     Ob  436   1.957   3.779  12.129  0.0073  0.0647  0.6076
    1Sil     Ob  437   2.549   3.790  11.319 -0.2833 -0.3107 -0.6500
    1Sil     Ob  438   2.257   3.779  11.726 -0.1139 -0.3793  0.0819
    1Sil     Ob  439   1.943   3.972  12.296 -0.3492 -0.6947 -0.1552
    1Sil     Ob  440   1.702   3.961  11.507  0.5253  0.1385  0.3069
    1Sil     Ob  441   2.292   3.856  11.975  0.0324  0.4567 -0.1143
    1Sil     Ob  442   1.879   3.969  11.958 -0.3178  0.0623 -1.0227
    1Sil     Ob  443   2.417   3.973  12.343  1.1721 -0.2913  0.1735
    1Sil     Ob  444   2.105   3.862  11.535 -0.2152 -0.9420 -0.0168
    1Sil     Ob  445   2.345   3.799  11.476 -0.0857  0.1865 -0.6562
    1Sil     Ob  446   1.759   3.785  12.274  1.0561  0.0865  0.4083
    1Sil     Ob  447   2.052   3.787  11.893  0.2491  0.5720 -0.1786
    1Sil     Ob  448   1.725   4.028  11.756  0.7646  0.3039  0.2578
    1Sil     Ob  449   2.259   4.036  12.159  0.0456  0.4910 -0.3342
    1Sil     Ob  450   2.014   4.029  11.362 -0.2051 -0.3068 -0.0760
    1Sil     Ob  451   2.032   4.216  11.191  0.0711  0.6867  0.1073
    1Sil     Ob  452   2.640   4.209  10.344  0.1347  0.1768  0.0263
    1Sil     Ob  453   2.290   4.106  10.713 -1.2375 -0.3254  0.0251
    1Sil     Ob  454   1.867   4.708  10.723 -0.0201  0.0134 -0.3467
    1Sil     Ob  455   2.406   4.698  11.115 -0.2846 -0.1991  0.1900
    1Sil     Ob  456   2.231   4.591  10.332 -0.0511  0.4358  0.4089
    1Sil     Ob  457   2.229   4.532  11.206 -0.2225  0.0301 -0.0592
    1Sil     Ob  458   1.994   4.530  10.406 -0.4337 -0.2882 -0.2892
    1Sil     Ob  459   2.524   4.530  10.810 -0.2062  0.4680  0.5693
    1Sil     Ob  460   2.016   4.271  10.934 -0.3899 -0.5095  0.6169
    1Sil     Ob  461   2.302   4.293  10.529 -0.1668  0.3806 -0.1388
    1Sil     Ob  462   2.004   4.458  11.113 -0.4977  0.2423  0.0061
    1Sil     Ob  463   1.767   4.450  10.307  0.0306 -0.2672 -0.1327
    1Sil     Ob  464   2.344   4.351  10.772  0.2177  0.0708 -0.2700
    1Sil     Ob  465   1.926   4.458  10.776  0.0337  0.0320  0.4883
    1Sil     Ob  466   2.469   4.456  11.165 -0.7704  0.0554 -0.1138
    1Sil     Ob  467   2.149   4.348  10.324 -0.1218 -0.5704  0.1300
    1Sil     Ob  468   2.400   4.270  10.282 -0.2886  0.0771  0.0368
    1Sil     Ob  469   1.805   4.288  11.091  0.4434  0.2711  0.3690
    1Sil     Ob  470   2.108   4.292  10.691  0.5179 -0.2902  0.8430
    1Sil     Ob  471   1.790   4.518  10.566  0.4074  0.2194 -0.3364
    1Sil     Ob  472   2.317   4.510  10.966  0.0467 -1.1244 -0.4369
    1Sil     Ob  473   1.999   4.222  12.351 -0.3569 -0.0682  0.3628
    1Sil     Ob  474   2.573   4.210  11.578 -0.0942 -0.7425 -0.1795
    1Sil     Ob  475   2.231   4.103  11.909 -0.0128  0.2368 -0.0211
    1Sil     Ob  476   1.805   4.716  11.911  0.1092  0.0534  0.2888
    1Sil     Ob  477   2.351   4.708  12.343 -0.4145 -0.1165 -0.1728
    1Sil     Ob  478   2.172   4.604  11.538  0.6413  0.4469  0.8794
    1Sil     Ob  479   2.178   4.527  12.384  0.1472  0.1705  0.0208
    1Sil     Ob  480   1.927   4.530  11.603  0.1321 -0.0392 -0.1314
    1Sil     Ob  481   2.461   4.530  11.997  0.0345  0.0548 -0.1055
    1Sil     Ob  482   1.962   4.297  12.111 -0.0074 -0.1114  0.0455
    1Sil     Ob  483   2.553   4.271  11.325 -0.4935  0.4871 -0.0370
    1Sil     Ob  484   2.258   4.282  11.720 -0.2355 -0.5596 -0.0909
    1Sil     Ob  485   1.945   4.471  12.301 -0.0708  0.4105  0.6823
    1Sil     Ob  486   1.691   4.464  11.504  0.3464  0.3195  0.1379
    1Sil     Ob  487   2.276   4.355  11.968 -0.0048  0.1067  0.5869
    1Sil     Ob  488   1.885   4.467  11.934 -0.0590 -0.5012  0.2466
    1Sil     Ob  489   2.428   4.463  12.339 -0.2818 -0.2833 -0.4454
    1Sil     Ob  490   2.096   4.358  11.530 -0.0237 -0.1054  0.0658
    1Sil     Ob  491   2.346   4.290  11.478  0.0416 -0.2309  0.1258
    1Sil     Ob  492   1.758   4.286  12.275  0.1051  0.1462  0.3097
    1Sil     Ob  493   2.063   4.288  11.871 -0.1792  0.1145 -0.3331
    1Sil     Ob  494   1.712   4.534  11.754  1.0269 -0.3018  0.4037
    1Sil     Ob  495   2.265   4.552  12.154 -0.0946 -0.1256 -0.1278
    1Sil     Ob  496   2.014   4.529  11.358 -0.4193 -0.1156 -0.4976
    1Sil     Ob  497   2.045   4.706  11.164 -0.9786 -0.2905 -0.1423
    1Sil     Ob  498   2.625   4.708  10.385 -0.9089  0.7933 -0.3139
    1Sil     Ob  499   2.284   4.595  10.724 -0.1814 -0.1874 -0.0899
    1Sil     Ob  500   1.858   5.200  10.730 -0.7280 -0.6171 -0.2320
    1Sil     Ob  501   2.398   5.198  11.127  0.3171  0.2044 -0.1507
    1Sil     Ob  502   2.235   5.084  10.342 -0.1339 -0.3995  0.1948
    1Sil     Ob  503   2.223   5.018  11.206 -0.8123  0.0212  0.1388
    1Sil     Ob  504   1.995   5.043  10.393  0.7024  0.3398 -0.2681
    1Sil     Ob  505   2.515   5.034  10.812  0.1366  0.1285  0.4218
    1Sil     Ob  506   2.020   4.779  10.920  0.0290  0.4021 -0.4774
    1Sil     Ob  507   2.303   4.761  10.517  0.5398  0.3172 -0.0433
    1Sil     Ob  508   1.994   4.950  11.109  0.3049 -0.4572  0.4441
    1Sil     Ob  509   1.762   4.951  10.313 -1.1446 -0.0605 -0.4197
    1Sil     Ob  510   2.341   4.846  10.764 -0.0588  0.1611 -0.1168
    1Sil     Ob  511   1.931   4.961  10.761  0.3667 -0.1419  0.4190
    1Sil     Ob  512   2.471   4.947  11.144 -0.2669 -0.3940 -0.6183
    1Sil     Ob  513   2.143   4.841  10.336  0.0272  0.4829 -0.1413
    1Sil     Ob  514   2.395   4.795  10.283  0.4587  0.0974  0.1959
    1Sil     Ob  515   1.813   4.778  11.081 -0.0936 -0.1145  0.1209
    1Sil     Ob  516   2.105   4.776  10.673  0.1240  0.0658  0.4359
    1Sil     Ob  517   1.781   5.033  10.562  0.2011  0.2268 -0.5939
    1Sil     Ob  518   2.311   5.020  10.958 -0.0725  0.2345 -0.2630
    1Sil     Ob  519   1.992   4.707  12.365 -0.0692 -0.0507  0.2523
    1Sil     Ob  520   2.552   4.703  11.571 -0.5987 -0.5328  0.0791
    1Sil     Ob  521   2.222   4.606  11.912  0.8482 -0.1903  0.2145
    1Sil     Ob  522   1.808   5.207  11.922 -0.3216 -0.4445  0.7527
    1Sil     Ob  523   2.341   5.199  12.323  0.3686  0.4122  0.1171
    1Sil     Ob  524   2.173   5.092  11.549  0.4619 -0.0325  0.0973
    1Sil     Ob  525   2.171   5.018  12.383  0.6069  0.1995 -0.6572
    1Sil     Ob  526   1.927   5.026  11.602 -0.0776  0.5116 -0.2221
    1Sil     Ob  527   2.474   5.023  11.995  0.1170  0.4477  0.1138
    1Sil     Ob  528   1.958   4.784  12.111  0.2071  0.0915 -0.0339
    1Sil     Ob  529   2.542   4.776  11.317 -0.4502  0.4683  0.2466
    1Sil     Ob  530   2.252   4.768  11.710 -0.1162  0.1771  0.3385
    1Sil     Ob  531   1.935   4.952  12.310  0.4973  0.0614  0.5967
    1Sil     Ob  532   1.702   4.959  11.506 -0.1369 -0.0154 -0.0105
    1Sil     Ob  533   2.279   4.851  11.958 -0.0285 -0.5773  0.2809
    1Sil     Ob  534   1.876   4.962  11.958  0.4519  0.5919 -0.1064
    1Sil     Ob  535   2.416   4.958  12.335  0.4611 -0.9105  0.3618
    1Sil     Ob  536   2.096   4.853  11.518  0.7717 -0.0676  0.0291
    1Sil     Ob  537   2.339   4.791  11.467  0.4043 -0.3855  0.0118
    1Sil     Ob  538   1.754   4.771  12.281 -0.2613  0.6981  0.0558
    1Sil     Ob  539   2.048   4.790  11.867  0.1357 -0.5025  0.3504
    1Sil     Ob  540   1.726   5.029  11.755 -0.1080  0.7880  0.6679
    1Sil     Ob  541   2.258   5.035  12.137 -0.0091  0.5165 -0.0076
    1Sil     Ob  542   2.014   5.025  11.354  0.0164  0.6801 -0.3095
    1Sil     Ob  543   2.045   5.195  11.177  0.4678 -0.1784  0.3020
    1Sil     Ob  544   2.628   5.204  10.383 -0.9522  0.1127 -0.3058
    1Sil     Ob  545   2.284   5.087  10.716 -0.1184  0.0297  0.2814
    1Sil     Ob  546   1.860   5.693  10.727  0.1350  0.2523 -0.0021
    1Sil     Ob  547   2.393   5.695  11.115  0.2988  0.3117 -0.6119
    1Sil     Ob  548   2.239   5.581  10.382  0.8840 -0.1000  0.3007
    1Sil     Ob  549   2.225   5.523  11.205 -0.9624  0.1691  0.9811
    1Sil     Ob  550   1.990   5.512  10.408  0.3426 -0.2576  0.7341
    1Sil     Ob  551   2.518   5.519  10.812 -0.2818 -0.4608 -0.2039
    1Sil     Ob  552   2.013   5.276  10.928 -0.6287  0.2849 -0.0511
    1Sil     Ob  553   2.304   5.256  10.520 -0.0266 -0.8802  0.0580
    1Sil     Ob  554   1.999   5.444  11.124  0.8113  0.2659  0.0495
    1Sil     Ob  555   1.752   5.448  10.318 -0.1234  0.8253 -0.1646
    1Sil     Ob  556   2.349   5.331  10.765  0.6596 -0.2668  0.4750
    1Sil     Ob  557   1.940   5.450  10.763  0.0346 -0.2719  0.3036
    1Sil     Ob  558   2.468   5.452  11.168  0.2962  0.6463 -0.7776
    1Sil     Ob  559   2.164   5.339  10.332  0.3403  0.1781 -0.1082
    1Sil     Ob  560   2.407   5.269  10.281 -0.1709  0.1879  0.1173
    1Sil     Ob  561   1.813   5.263  11.096  0.1517  0.0472  0.2500
    1Sil     Ob  562   2.104   5.268  10.683  0.0001  0.3167  0.2278
    1Sil     Ob  563   1.782   5.520  10.567 -0.7708 -0.1100 -0.7209
    1Sil     Ob  564   2.312   5.495  10.967 -0.6651 -0.3760  0.2656
    1Sil     Ob  565   1.998   5.192  12.349 -0.1514 -0.0608 -0.0048
    1Sil     Ob  566   2.577   5.212  11.582  0.6873  0.4788  0.7430
    1Sil     Ob  567   2.236   5.094  11.893  0.4947 -0.3952  1.3024
    1Sil     Ob  568   1.806   5.708  11.927  0.3264  0.5119 -0.1300
    1Sil     Ob  569   2.345   5.700  12.316 -0.2183  0.2112  0.6792
    1Sil     Ob  570   2.173   5.592  11.568 -0.5256 -0.3733  0.2039
    1Sil     Ob  571   2.168   5.524  12.396 -0.7595 -0.0178  0.2420
    1Sil     Ob  572   1.937   5.518  11.594  0.4445 -0.4607  0.4049
    1Sil     Ob  573   2.466   5.512  12.000 -0.1026 -0.4527  0.0140
    1Sil     Ob  574   1.969   5.276  12.111  0.3221  0.3037  0.2707
    1Sil     Ob  575   2.559   5.274  11.336  0.4058  0.1600  0.4973
    1Sil     Ob  576   2.245   5.274  11.717 -0.3634  0.4123 -0.5518
    1Sil     Ob  577   1.941   5.439  12.292  0.0707  0.1005  0.2172
    1Sil     Ob  578   1.685   5.446  11.510 -0.4404 -0.3802 -0.6818
    1Sil     Ob  579   2.273   5.340  11.962  0.2529  1.0621  0.0274
    1Sil     Ob  580   1.873   5.458  11.945  0.0480 -0.1971 -0.7133
    1Sil     Ob  581   2.423   5.452  12.362  0.0163  0.5981  0.0253
    1Sil     Ob  582   2.098   5.342  11.529 -0.5550 -0.6001  0.6575
    1Sil     Ob  583   2.344   5.284  11.482  0.4167 -0.1431  0.1166
    1Sil     Ob  584   1.763   5.277  12.258  0.5339  0.5422  0.0722
    1Sil     Ob  585   2.041   5.269  11.870  0.3547  0.1411  0.4877
    1Sil     Ob  586   1.724   5.534  11.753  0.4654 -0.2406 -0.1550
    1Sil     Ob  587   2.270   5.503  12.158  0.2377 -0.9232 -0.9066
    1Sil     Ob  588   2.019   5.535  11.364 -0.2674 -0.1308 -0.1843
    1Sil     Ob  589   2.036   5.694  11.165  0.3440 -0.2533  0.5490
    1Sil     Ob  590   2.636   5.691  10.380 -0.1705 -0.1684 -0.0551
    1Sil     Ob  591   2.292   5.581  10.717  0.5075 -0.1908  0.2056
    1Sil     Ob  592   2.231   2.558  11.200 -0.1979  0.3176  0.0607
    1Sil     Ob  593   1.981   2.529  10.413 -0.0937  0.4921  0.0304
    1Sil     Ob  594   2.531   2.546  10.801  0.0595  0.4986 -0.7972
    1Sil     Ob  595   2.021   5.759  10.919 -0.7456  0.0321 -0.2883
    1Sil     Ob  596   2.323   5.770  10.537 -0.0143 -0.3039 -0.5338
    1Sil     Ob  597   2.004   5.939  11.106  0.0682 -0.7957 -0.2888
    1Sil     Ob  598   1.749   5.937  10.328 -0.0434 -0.2830  0.1349
    1Sil     Ob  599   2.338   5.839  10.784  0.2490 -0.3298 -0.2205
    1Sil     Ob  600   1.934   2.488  10.766 -0.0573  0.0555  0.1250
    1Sil     Ob  601   2.470   2.490  11.150  0.5290  0.2033 -0.4211
    1Sil     Ob  602   2.165   2.376  10.343  0.5938 -0.2897 -1.2038
    1Sil     Ob  603   2.401   5.755  10.288 -0.0576 -0.1729  0.3916
    1Sil     Ob  604   1.814   5.768  11.075 -0.0517 -0.2110  0.0514
    1Sil     Ob  605   2.112   5.759  10.678  0.5862  0.6146 -0.3408
    1Sil     Ob  606   1.790   2.544  10.572 -0.2337 -0.2666 -0.3981
    1Sil     Ob  607   2.314   2.567  10.958 -0.2507 -0.1526 -0.2089
    1Sil     Ob  608   1.977   5.693  12.360  0.2674 -0.0689 -0.1488
    1Sil     Ob  609   2.591   5.701  11.567 -0.2784 -0.2679  0.0732
    1Sil     Ob  610   2.238   5.596  11.910 -0.2178  0.1776 -0.2570
    1Sil     Ob  611   2.176   2.556  12.386  0.2685 -0.4298  0.0334
    1Sil     Ob  612   1.920   2.553  11.596  0.3957  0.6005 -0.2047
    1Sil     Ob  613   2.482   2.544  12.004  0.3710  0.0298  0.2266
    1Sil     Ob  614   1.964   5.778  12.120 -0.2505 -0.1668 -0.5983
    1Sil     Ob  615   2.558   5.764  11.321 -0.4616  0.2933  0.1259
    1Sil     Ob  616   2.256   5.764  11.723 -0.6628  0.7054 -0.4575
    1Sil     Ob  617   1.939   5.947  12.299  0.1785 -0.3763 -0.2685
    1Sil     Ob  618   1.688   5.935  11.506  0.2683  0.2930  0.5215
    1Sil     Ob  619   2.289   5.837  11.973 -0.3417 -0.3710  0.7177
    1Sil     Ob  620   1.886   2.501  11.941 -0.2224 -0.1604 -0.4405
    1Sil     Ob  621   2.420   2.490  12.363 -0.5538 -0.2309 -0.2779
    1Sil     Ob  622   2.106   2.389  11.520 -0.3368 -0.2631 -0.5695
    1Sil     Ob  623   2.351   5.759  11.478  0.0837  0.0466 -0.7348
    1Sil     Ob  624   1.755   5.767  12.274  0.2893  0.4791  0.5590
    1Sil     Ob  625   2.047   5.759  11.878  0.3804 -0.5186 -0.2254
    1Sil     Ob  626   1.717   2.567  11.762  0.2757  0.6821 -0.1723
    1Sil     Ob  627   2.265   2.549  12.153  0.6406 -0.0172  0.0223
    1Sil     Ob  628   2.014   2.563  11.352 -0.1312  0.4646  0.1458
    1Sil     Ob  629   2.873   2.732  11.186  0.0734  0.2401 -0.6596
    1Sil     Ob  630   3.481   2.738  10.359 -0.2483 -0.6352 -0.0362
    1Sil     Ob  631   2.699   3.222  10.752  0.1431  0.2915  0.7964
    1Sil     Ob  632   3.228   3.236  11.119  0.4733  0.1929 -0.7428
    1Sil     Ob  633   3.042   3.130  10.383  0.0673  0.2245 -0.0959
    1Sil     Ob  634   3.058   3.064  11.201 -0.1092  0.5259  0.0880
    1Sil     Ob  635   2.805   3.033  10.423  0.2348  0.4187 -0.3640
    1Sil     Ob  636   3.340   3.049  10.801 -0.1084 -0.1255  0.5746
    1Sil     Ob  637   2.847   2.802  10.937 -0.0726  0.5303 -0.7156
    1Sil     Ob  638   3.127   2.818  10.525 -0.2747 -0.4647  0.4114
    1Sil     Ob  639   2.828   2.982  11.118  0.4592  0.2470  0.0714
    1Sil     Ob  640   2.563   2.967  10.350  0.2170  0.0620  0.3403
    1Sil     Ob  641   3.157   2.880  10.771 -1.1486  0.3116  0.2315
    1Sil     Ob  642   2.756   2.979  10.792 -0.1221 -0.2013 -0.3005
    1Sil     Ob  643   3.304   2.992  11.147 -0.2853 -0.3594  0.3806
    1Sil     Ob  644   2.998   2.885  10.306  0.0991  1.2973 -0.6257
    1Sil     Ob  645   3.238   2.797  10.288 -0.1029 -0.5711 -0.6788
    1Sil     Ob  646   2.643   2.798  11.092  0.4473  0.2944 -0.3814
    1Sil     Ob  647   2.934   2.827  10.692 -0.3160 -0.8200 -0.3932
    1Sil     Ob  648   2.609   3.055  10.589  0.0383  0.1335  0.2954
    1Sil     Ob  649   3.139   3.061  10.951 -0.3187  0.3577  0.9931
    1Sil     Ob  650   2.823   2.738  12.382  0.0964 -0.2006  0.3371
    1Sil     Ob  651   3.417   2.744  11.576  0.2857 -0.0078 -0.1381
    1Sil     Ob  652   2.639   3.223  11.945 -0.2657 -0.2206 -0.1146
    1Sil     Ob  653   3.177   3.226  12.290  0.3813 -0.7756  0.5396
    1Sil     Ob  654   3.015   3.129  11.554 -0.0420  0.0082  0.3049
    1Sil     Ob  655   3.014   3.050  12.382  0.1937 -0.3158 -0.9117
    1Sil     Ob  656   2.767   3.062  11.605 -0.8514 -0.2862 -0.1192
    1Sil     Ob  657   3.303   3.040  12.007 -0.3827 -0.1218  0.3520
    1Sil     Ob  658   2.793   2.797  12.130  0.3357  0.3202  0.2294
    1Sil     Ob  659   3.374   2.810  11.323 -0.2378 -0.8667 -0.4130
    1Sil     Ob  660   3.083   2.817  11.722 -0.3469  0.5613  0.1569
    1Sil     Ob  661   2.769   2.978  12.314  0.4833  0.3154 -0.1620
    1Sil     Ob  662   2.545   2.989  11.514  0.6154 -0.7102  1.0034
    1Sil     Ob  663   3.123   2.869  11.964  0.2617  0.3936  0.0075
    1Sil     Ob  664   2.723   2.977  11.961  0.2791  0.3448  0.3870
    1Sil     Ob  665   3.242   2.978  12.347  0.0827  0.3463  0.3174
    1Sil     Ob  666   2.936   2.880  11.530  0.4685  0.5839 -0.0680
    1Sil     Ob  667   3.179   2.824  11.479 -0.2248 -0.0197  0.5213
    1Sil     Ob  668   2.592   2.808  12.284  0.1300  0.2418 -0.0803
    1Sil     Ob  669   2.887   2.792  11.888 -0.1563  0.1068  0.5400
    1Sil     Ob  670   2.560   3.066  11.767  0.0764 -0.3031  0.3167
    1Sil     Ob  671   3.093   3.029  12.149  0.3275 -1.0908  0.3846
    1Sil     Ob  672   2.852   3.066  11.362 -0.1815  0.4621 -0.4321
    1Sil     Ob  673   2.873   3.229  11.169  0.1790 -0.0477  0.0723
    1Sil     Ob  674   3.481   3.231  10.362 -0.2257 -0.2362 -0.0144
    1Sil     Ob  675   3.120   3.128  10.700  0.6758  0.7371 -0.1638
    1Sil     Ob  676   2.699   3.723  10.737 -0.1878 -0.1172  0.3070
    1Sil     Ob  677   3.235   3.718  11.129  0.1337  0.3565  0.1223
    1Sil     Ob  678   3.058   3.617  10.367  0.8912 -0.1206 -0.9936
    1Sil     Ob  679   3.057   3.546  11.196  0.0866 -0.9903  0.0991
    1Sil     Ob  680   2.825   3.533  10.409  0.4994 -0.0543  0.0994
    1Sil     Ob  681   3.364   3.539  10.804 -0.1825  0.8206  0.2617
    1Sil     Ob  682   2.859   3.310  10.927  0.4713 -0.0019 -0.0980
    1Sil     Ob  683   3.129   3.317  10.527  0.4312 -0.4332  0.2916
    1Sil     Ob  684   2.827   3.477  11.099 -0.5446 -0.9248 -0.6111
    1Sil     Ob  685   2.588   3.471  10.322 -0.6142 -0.4366 -0.4059
    1Sil     Ob  686   3.160   3.374  10.778 -0.1307  0.3617  0.0621
    1Sil     Ob  687   2.769   3.474  10.743  0.4144  0.1789 -0.2458
    1Sil     Ob  688   3.303   3.477  11.161  0.2957  0.2427  0.2616
    1Sil     Ob  689   3.000   3.373  10.311  0.4726 -0.0065  0.0347
    1Sil     Ob  690   3.239   3.271  10.294 -0.3625 -0.0391 -0.2502
    1Sil     Ob  691   2.641   3.294  11.071 -0.3631 -0.2752  0.1571
    1Sil     Ob  692   2.935   3.300  10.681  0.2432  0.1547 -0.1410
    1Sil     Ob  693   2.611   3.555  10.560 -0.2560  0.3471  0.0702
    1Sil     Ob  694   3.148   3.555  10.955  0.0150  0.3219  0.5855
    1Sil     Ob  695   2.831   3.222  12.370 -0.0564  0.0180 -0.0767
    1Sil     Ob  696   3.420   3.233  11.569 -0.5372 -0.0180  0.1732
    1Sil     Ob  697   3.074   3.111  11.911 -0.6345 -0.3771  0.0838
    1Sil     Ob  698   2.636   3.717  11.938 -0.3101  0.9990 -0.0924
    1Sil     Ob  699   3.180   3.730  12.319 -0.3609 -0.2459  0.4895
    1Sil     Ob  700   2.998   3.615  11.561 -0.2192  0.3085 -0.4779
    1Sil     Ob  701   3.013   3.554  12.400  0.1488  0.5482 -1.0901
    1Sil     Ob  702   2.759   3.531  11.596  0.3792 -0.1692  0.2518
    1Sil     Ob  703   3.304   3.532  12.013 -0.3564 -0.4103 -0.1591
    1Sil     Ob  704   2.803   3.306  12.127 -0.4291  0.2587  0.3907
    1Sil     Ob  705   3.381   3.304  11.322  0.6644 -0.4153 -0.5459
    1Sil     Ob  706   3.094   3.303  11.731 -0.1708 -0.2116  0.2619
    1Sil     Ob  707   2.772   3.475  12.325 -0.3925 -0.1262  0.0587
    1Sil     Ob  708   2.524   3.469  11.513  0.2096 -0.6976 -0.1399
    1Sil     Ob  709   3.111   3.369  11.977  0.7161 -0.1767  0.5825
    1Sil     Ob  710   2.717   3.475  11.945 -0.1837  0.1695  0.1098
    1Sil     Ob  711   3.246   3.472  12.343 -0.1504  0.2552  0.5225
    1Sil     Ob  712   2.942   3.370  11.533 -0.0829  0.0059 -0.0281
    1Sil     Ob  713   3.181   3.304  11.482 -0.1778  0.0229  0.6431
    1Sil     Ob  714   2.600   3.294  12.282 -0.1939  0.3104  0.2208
    1Sil     Ob  715   2.886   3.291  11.875 -0.2548  0.2624 -0.0491
    1Sil     Ob  716   2.561   3.538  11.751 -0.6233  0.2068 -0.0487
    1Sil     Ob  717   3.095   3.545  12.155  0.4981 -0.2875  0.0024
    1Sil     Ob  718   2.851   3.533  11.355 -0.3760 -0.4124 -0.1825
    1Sil     Ob  719   2.877   3.720  11.176 -0.3490 -0.3374  0.3470
    1Sil     Ob  720   3.456   3.719  10.373  0.0559  0.1302 -0.2312
    1Sil     Ob  721   3.134   3.621  10.709 -0.4178  0.6567 -0.4203
    1Sil     Ob  722   2.697   4.222  10.739 -0.2411  0.2760  0.1683
    1Sil     Ob  723   3.238   4.209  11.114 -0.1043  0.2241  0.6310
    1Sil     Ob  724   3.057   4.103  10.353  0.8199 -0.5661  0.1005
    1Sil     Ob  725   3.059   4.025  11.195  0.3546  0.2409 -0.0418
    1Sil     Ob  726   2.812   4.021  10.385 -0.0235  0.6096  0.0599
    1Sil     Ob  727   3.361   4.042  10.809 -0.2455 -0.3518 -0.4054
    1Sil     Ob  728   2.838   3.790  10.927 -0.5113 -0.6833 -0.0168
    1Sil     Ob  729   3.138   3.805  10.524  0.0507  0.0689 -0.3515
    1Sil     Ob  730   2.826   3.967  11.111  0.0036 -0.7067 -0.5993
    1Sil     Ob  731   2.565   3.954  10.335  0.3057 -0.0724  0.2571
    1Sil     Ob  732   3.186   3.864  10.758 -0.2438  0.3653 -0.8053
    1Sil     Ob  733   2.765   3.973  10.760  0.1215 -0.0245  0.1093
    1Sil     Ob  734   3.300   3.970  11.141  0.1290 -0.6559  0.3541
    1Sil     Ob  735   2.986   3.859  10.310 -0.6700 -0.3237 -0.5365
    1Sil     Ob  736   3.228   3.783  10.274  0.2267  0.3570 -0.6335
    1Sil     Ob  737   2.645   3.796  11.085  0.2952  0.0521 -0.5938
    1Sil     Ob  738   2.940   3.797  10.680  0.2204 -0.3341 -0.4380
    1Sil     Ob  739   2.620   4.052  10.563  0.1392 -0.4235 -0.1551
    1Sil     Ob  740   3.151   4.030  10.950 -0.1299  0.7131 -0.6195
    1Sil     Ob  741   2.817   3.725  12.386 -0.7094  0.0007 -0.2802
    1Sil     Ob  742   3.410   3.729  11.563 -0.0218 -0.5295 -0.8495
    1Sil     Ob  743   3.081   3.616  11.899 -0.1251 -0.6752  0.3320
    1Sil     Ob  744   2.649   4.209  11.910 -0.0627 -0.4183 -0.1747
    1Sil     Ob  745   3.184   4.215  12.298  0.2931  0.0266 -0.0283
    1Sil     Ob  746   3.007   4.108  11.553  0.1626  0.2590 -0.2219
    1Sil     Ob  747   3.006   4.046  12.394 -0.0830 -0.2493 -0.3518
    1Sil     Ob  748   2.771   4.054  11.595  0.2879  0.9066  0.5189
    1Sil     Ob  749   3.298   4.046  11.989  0.5442  0.0752 -0.0930
    1Sil     Ob  750   2.794   3.797  12.136  0.3869 -0.2145  0.1863
    1Sil     Ob  751   3.373   3.795  11.319 -0.8749  0.0638 -0.5694
    1Sil     Ob  752   3.073   3.805  11.717 -0.9388  0.0360  0.7798
    1Sil     Ob  753   2.768   3.970  12.332 -0.1620 -0.2874 -0.2296
    1Sil     Ob  754   2.538   3.969  11.503 -0.1665  0.6746 -0.0375
    1Sil     Ob  755   3.127   3.866  11.959 -0.3504 -0.4892 -0.5959
    1Sil     Ob  756   2.713   3.960  11.965  0.0948  0.3440  0.3974
    1Sil     Ob  757   3.247   3.971  12.336 -0.4749 -0.3590 -0.1667
    1Sil     Ob  758   2.938   3.863  11.512  0.2506 -0.2183  0.4896
    1Sil     Ob  759   3.166   3.791  11.471  0.2324  0.1654 -0.1867
    1Sil     Ob  760   2.586   3.793  12.286 -0.3298  0.3602 -0.4538
    1Sil     Ob  761   2.878   3.774  11.892 -0.1058  0.1647 -0.0390
    1Sil     Ob  762   2.577   4.019  11.758 -0.3070 -0.3707 -0.4137
    1Sil     Ob  763   3.086   4.040  12.146 -0.8634  0.0695 -0.0188
    1Sil     Ob  764   2.858   4.056  11.350  0.2243 -0.7836  0.2688
    1Sil     Ob  765   2.893   4.216  11.156 -0.0169 -0.0787  0.2928
    1Sil     Ob  766   3.451   4.215  10.382  0.4763  0.0862  0.1959
    1Sil     Ob  767   3.134   4.098  10.715  0.2242  0.7094 -0.2758
    1Sil     Ob  768   2.693   4.709  10.729 -0.5798 -0.0245 -0.4445
    1Sil     Ob  769   3.240   4.698  11.126  0.2984 -0.3871  0.0388
    1Sil     Ob  770   3.052   4.593  10.354  0.6139 -0.3533 -0.5498
    1Sil     Ob  771   3.064   4.528  11.206  0.3655 -0.1950  0.1843
    1Sil     Ob  772   2.805   4.534  10.408 -0.1658 -0.0404  0.6442
    1Sil     Ob  773   3.353   4.521  10.814 -0.6360  0.6650 -0.4208
    1Sil     Ob  774   2.851   4.291  10.930 -0.2993  0.4722 -0.1147
    1Sil     Ob  775   3.139   4.273  10.531  0.4386 -0.3018 -0.4643
    1Sil     Ob  776   2.838   4.471  11.112  0.2258  0.5534  0.4490
    1Sil     Ob  777   2.581   4.459  10.312 -0.5996  0.1044  0.6095
    1Sil     Ob  778   3.172   4.348  10.778 -0.5061  0.1934 -0.2761
    1Sil     Ob  779   2.775   4.462  10.750  0.6689 -0.0241  0.9801
    1Sil     Ob  780   3.313   4.453  11.153  0.4398  0.2580 -0.1543
    1Sil     Ob  781   2.972   4.349  10.341  0.5752 -0.6525 -0.6429
    1Sil     Ob  782   3.218   4.279  10.291  0.4100 -0.9130 -0.1356
    1Sil     Ob  783   2.655   4.283  11.094 -0.0113  0.6061  0.2032
    1Sil     Ob  784   2.941   4.273  10.688  0.2260  0.4940 -0.5029
    1Sil     Ob  785   2.609   4.534  10.564 -0.3919  0.1739  0.2668
    1Sil     Ob  786   3.150   4.515  10.972 -0.2128  0.2306  0.6674
    1Sil     Ob  787   2.834   4.216  12.369  0.2100  0.9190  0.3475
    1Sil     Ob  788   3.404   4.212  11.574  0.2720 -0.0059  0.0603
    1Sil     Ob  789   3.072   4.118  11.904 -0.4054 -0.1069  0.4872
    1Sil     Ob  790   2.632   4.707  11.917 -0.5982 -0.0027  0.2354
    1Sil     Ob  791   3.189   4.716  12.315 -0.0630 -0.1023 -0.1473
    1Sil     Ob  792   3.003   4.612  11.540 -0.3872  0.1859  0.4531
    1Sil     Ob  793   3.008   4.536  12.393  0.6929 -0.5866  0.1973
    1Sil     Ob  794   2.757   4.545  11.594 -0.0644 -0.2599  0.0570
    1Sil     Ob  795   3.303   4.531  11.996  0.4883 -0.2598 -0.2295
    1Sil     Ob  796   2.791   4.283  12.122  0.1911  0.5286  0.2014
    1Sil     Ob  797   3.371   4.277  11.325 -0.7051 -0.3133 -0.0398
    1Sil     Ob  798   3.090   4.285  11.719  0.2215 -0.0280 -0.0227
    1Sil     Ob  799   2.768   4.468  12.306 -0.2526  0.3773 -0.3722
    1Sil     Ob  800   2.534   4.454  11.501  0.6949 -0.0409  1.1667
    1Sil     Ob  801   3.114   4.364  11.971  0.1512  0.0433  0.3699
    1Sil     Ob  802   2.705   4.460  11.952 -0.2230  0.3432 -0.7968
    1Sil     Ob  803   3.247   4.464  12.335  0.0275 -0.1360  0.3113
    1Sil     Ob  804   2.927   4.352  11.529  0.3914 -0.1104  0.1367
    1Sil     Ob  805   3.168   4.283  11.476 -0.2014  0.0436  0.1241
    1Sil     Ob  806   2.591   4.275  12.291 -0.6281 -0.2943 -0.2725
    1Sil     Ob  807   2.886   4.293  11.868  0.5393 -0.1101  0.5871
    1Sil     Ob  808   2.558   4.520  11.751  0.1670 -0.2196 -0.0236
    1Sil     Ob  809   3.098   4.548  12.151  0.3785  0.2491 -0.0045
    1Sil     Ob  810   2.844   4.537  11.355 -0.3073  0.3628 -0.2862
    1Sil     Ob  811   2.889   4.713  11.165  0.2645 -0.4086 -1.0675
    1Sil     Ob  812   3.473   4.706  10.379  0.1776  0.7242 -0.3582
    1Sil     Ob  813   3.122   4.601  10.719 -0.0049  0.6777 -0.5405
    1Sil     Ob  814   2.699   5.212  10.733 -0.1856 -0.2276  0.4374
    1Sil     Ob  815   3.237   5.197  11.121  0.9078 -0.0885 -1.0737
    1Sil     Ob  816   3.066   5.090  10.352 -0.6825  0.8268 -0.4808
    1Sil     Ob  817   3.073   5.024  11.205  0.7932  0.2403  0.5742
    1Sil     Ob  818   2.824   5.036  10.402  0.2477 -0.4262 -0.3330
    1Sil     Ob  819   3.355   5.045  10.808  0.2550 -0.5778  0.1922
    1Sil     Ob  820   2.850   4.780  10.926  0.1340 -0.2376  0.6430
    1Sil     Ob  821   3.139   4.768  10.525 -0.1474  0.0326 -0.1160
    1Sil     Ob  822   2.837   4.955  11.102 -0.3143 -0.4853  0.0644
    1Sil     Ob  823   2.593   4.962  10.311 -0.0657  0.2046  0.5852
    1Sil     Ob  824   3.182   4.856  10.757  0.5999 -0.3616 -0.1556
    1Sil     Ob  825   2.769   4.959  10.764  0.5598 -0.3743 -0.3882
    1Sil     Ob  826   3.316   4.950  11.162  0.3676  0.1039 -0.2211
    1Sil     Ob  827   2.992   4.845  10.328  0.6474  0.0672 -0.7396
    1Sil     Ob  828   3.239   4.759  10.283  0.7015 -0.1228  0.1690
    1Sil     Ob  829   2.652   4.778  11.088 -0.1397  0.0310  0.1199
    1Sil     Ob  830   2.937   4.784  10.681 -0.1164 -0.3769 -0.0102
    1Sil     Ob  831   2.613   5.037  10.569  0.6235 -0.2544 -0.2041
    1Sil     Ob  832   3.155   5.008  10.971  0.2650 -0.2179 -0.7183
    1Sil     Ob  833   2.823   4.710  12.367 -0.7654 -0.0483 -0.0989
    1Sil     Ob  834   3.405   4.706  11.582 -0.1169 -0.0433 -0.3415
    1Sil     Ob  835   3.076   4.610  11.906 -0.4969 -0.1044  0.6589
    1Sil     Ob  836   2.637   5.193  11.916  0.1559 -0.0866  0.0673
    1Sil     Ob  837   3.176   5.204  12.340 -0.3713 -0.0336  0.0055
    1Sil     Ob  838   3.018   5.094  11.559  0.2178  0.1938 -0.5306
    1Sil     Ob  839   3.008   5.026  12.398  0.2988  0.4997 -0.5727
    1Sil     Ob  840   2.765   5.038  11.601  0.0549  0.3771  0.0052
    1Sil     Ob  841   3.309   5.007  12.002 -0.1200 -0.2684  0.1160
    1Sil     Ob  842   2.784   4.777  12.119  0.1502 -0.2373 -1.1738
    1Sil     Ob  843   3.392   4.776  11.332 -0.2496  0.4505 -0.4222
    1Sil     Ob  844   3.085   4.783  11.720  0.3376  0.2061  0.1993
    1Sil     Ob  845   2.785   4.954  12.303  0.0613 -0.0822 -0.1108
    1Sil     Ob  846   2.535   4.962  11.504 -0.0175 -0.3929 -0.3612
    1Sil     Ob  847   3.097   4.848  11.976  0.4789 -0.2810  0.8703
    1Sil     Ob  848   2.713   4.952  11.944  0.2471 -0.4963  0.1632
    1Sil     Ob  849   3.252   4.960  12.349 -0.3180 -0.1132 -0.2930
    1Sil     Ob  850   2.929   4.857  11.535 -0.1246  0.0388  0.7610
    1Sil     Ob  851   3.185   4.798  11.488  0.5395 -0.2223 -0.7247
    1Sil     Ob  852   2.588   4.783  12.289  0.0488  0.3270 -0.0372
    1Sil     Ob  853   2.876   4.767  11.872  1.2490  0.3724 -0.4751
    1Sil     Ob  854   2.558   5.023  11.754  0.0928 -0.3163  0.0664
    1Sil     Ob  855   3.103   5.041  12.152 -0.0314 -0.0218  0.8224
    1Sil     Ob  856   2.857   5.020  11.355  0.4121 -0.6008  0.4683
    1Sil     Ob  857   2.886   5.197  11.171  0.0044 -0.4345 -0.2233
    1Sil     Ob  858   3.483   5.194  10.363  0.3636 -0.2130 -0.0463
    1Sil     Ob  859   3.116   5.113  10.723 -0.2391 -0.0323  0.7380
    1Sil     Ob  860   2.686   5.694  10.733  0.8122  0.0906 -0.4597
    1Sil     Ob  861   3.230   5.691  11.128 -0.5923  0.3489 -0.3950
    1Sil     Ob  862   3.065   5.583  10.359  0.1748  0.3766 -0.1622
    1Sil     Ob  863   3.061   5.518  11.209 -0.0667 -0.1516  0.1593
    1Sil     Ob  864   2.823   5.517  10.417  0.0279  0.5166  0.0188
    1Sil     Ob  865   3.343   5.537  10.808  0.0648  0.2409  0.4368
    1Sil     Ob  866   2.851   5.282  10.927 -0.4901 -0.0977 -0.5320
    1Sil     Ob  867   3.156   5.270  10.528 -0.2348 -0.4979  0.8104
    1Sil     Ob  868   2.834   5.448  11.123 -0.0873  0.5772 -0.3329
    1Sil     Ob  869   2.592   5.447  10.318 -0.0061 -0.6248 -0.4181
    1Sil     Ob  870   3.183   5.348  10.763  0.0092  0.5253  0.1047
    1Sil     Ob  871   2.760   5.457  10.767 -0.1558  0.2016  0.1985
    1Sil     Ob  872   3.292   5.442  11.165 -0.2600 -0.0741 -0.1893
    1Sil     Ob  873   2.998   5.333  10.329  0.4190  0.7911 -0.0894
    1Sil     Ob  874   3.241   5.264  10.279 -0.2476  0.3090 -0.4302
    1Sil     Ob  875   2.648   5.274  11.092  0.0033  0.3691  0.2203
    1Sil     Ob  876   2.945   5.295  10.683  0.1569 -0.6080 -0.4684
    1Sil     Ob  877   2.612   5.514  10.566 -0.1599 -0.2036  0.0306
    1Sil     Ob  878   3.130   5.508  10.962  0.4208 -0.0602 -0.6648
    1Sil     Ob  879   2.828   5.206  12.373  0.4232 -0.1078 -0.7379
    1Sil     Ob  880   3.414   5.197  11.572  0.3990 -1.2341 -0.3939
    1Sil     Ob  881   3.079   5.096  11.904  0.6820  0.0837 -0.2257
    1Sil     Ob  882   2.643   5.688  11.936  0.7314  0.1297 -0.0988
    1Sil     Ob  883   3.175   5.697  12.327  0.1612  0.3498  0.3799
    1Sil     Ob  884   3.011   5.596  11.570  1.0561 -0.3934  0.1022
    1Sil     Ob  885   3.002   5.536  12.396 -0.0610 -0.9766 -0.4085
    1Sil     Ob  886   2.765   5.521  11.607 -0.0277 -0.3409  0.2173
    1Sil     Ob  887   3.309   5.518  11.996  0.1061 -0.4129  0.9458
    1Sil     Ob  888   2.783   5.267  12.112  0.0506  0.0490 -0.3085
    1Sil     Ob  889   3.388   5.267  11.321  0.0918  0.1826 -0.0705
    1Sil     Ob  890   3.093   5.269  11.725  0.0161 -0.1814 -0.4937
    1Sil     Ob  891   2.772   5.459  12.306  0.0272 -0.1961  0.2011
    1Sil     Ob  892   2.537   5.456  11.517 -0.3637  0.3435 -0.2167
    1Sil     Ob  893   3.129   5.346  11.958  0.0937  0.0028 -0.0324
    1Sil     Ob  894   2.705   5.448  11.951  0.2342  0.3576 -0.6523
    1Sil     Ob  895   3.246   5.445  12.378  0.7537  0.8397  0.3782
    1Sil     Ob  896   2.946   5.342  11.529 -0.4822 -0.6214 -0.0287
    1Sil     Ob  897   3.180   5.261  11.474 -0.7328 -0.4729 -0.1249
    1Sil     Ob  898   2.597   5.276  12.277 -0.2181  0.0070 -0.1122
    1Sil     Ob  899   2.883   5.284  11.873  0.1976  0.4694 -0.1710
    1Sil     Ob  900   2.556   5.523  11.759  0.0314  0.5587  0.2522
    1Sil     Ob  901   3.102   5.512  12.160  0.0283 -0.2202  0.0955
    1Sil     Ob  902   2.856   5.536  11.373 -0.4181 -0.4761  0.4197
    1Sil     Ob  903   2.883   5.699  11.163 -0.5402  0.0208 -0.6123
    1Sil     Ob  904   3.472   5.689  10.378  0.3637 -0.0058 -0.0038
    1Sil     Ob  905   3.114   5.595  10.714  0.2739 -0.4471 -0.2566
    1Sil     Ob  906   3.059   2.556  11.196 -0.1585 -0.4837 -0.0598
    1Sil     Ob  907   2.826   2.546  10.416  0.6022  0.2154 -0.2741
    1Sil     Ob  908   3.342   2.559  10.798 -0.0357 -0.3613  0.1393
    1Sil     Ob  909   2.845   5.763  10.918  0.5603  0.4048 -0.3778
    1Sil     Ob  910   3.141   5.762  10.532  0.6131  0.2784  0.1227
    1Sil     Ob  911   2.820   5.941  11.112  0.1656 -0.4791 -0.0500
    1Sil     Ob  912   2.591   5.932  10.308  0.2268 -0.5387 -0.4535
    1Sil     Ob  913   3.147   5.841  10.769  0.0256 -0.1785 -0.1091
    1Sil     Ob  914   2.766   2.487  10.744  0.7504  0.1889 -0.1467
    1Sil     Ob  915   3.311   2.489  11.145  0.1665 -0.1531 -0.5082
    1Sil     Ob  916   3.000   2.384  10.334  0.5433  0.0463 -0.1734
    1Sil     Ob  917   3.248   5.756  10.281 -0.7734 -0.4597  0.1832
    1Sil     Ob  918   2.643   5.764  11.081  0.6042  0.0097  0.1067
    1Sil     Ob  919   2.925   5.759  10.675 -0.1641 -0.4081 -0.6102
    1Sil     Ob  920   2.612   2.563  10.557  0.1400  0.4857 -0.1343
    1Sil     Ob  921   3.138   2.559  10.957  0.0502  0.4608 -0.5716
    1Sil     Ob  922   2.803   5.696  12.389  0.0460 -0.5282  0.0637
    1Sil     Ob  923   3.407   5.692  11.565  0.2410  0.5811 -0.5006
    1Sil     Ob  924   3.082   5.593  11.906  0.1037 -0.0731 -0.0124
    1Sil     Ob  925   3.015   2.563  12.389  0.2923  0.6236 -0.5683
    1Sil     Ob  926   2.761   2.562  11.602 -0.1406  0.0270  0.7894
    1Sil     Ob  927   3.300   2.568  12.004 -0.5404  0.1985  0.1209
    1Sil     Ob  928   2.801   5.770  12.135  0.6446  0.1123 -0.4971
    1Sil     Ob  929   3.382   5.765  11.323 -0.3405 -0.4574  0.2352
    1Sil     Ob  930   3.087   5.778  11.718 -0.0954  0.1757  0.0640
    1Sil     Ob  931   2.771   5.946  12.324  0.0555  0.0441 -0.1121
    1Sil     Ob  932   2.535   5.939  11.500  0.0009 -0.1270  0.4633
    1Sil     Ob  933   3.120   5.836  11.967  0.1045  0.0113 -0.5454
    1Sil     Ob  934   2.718   2.485  11.953 -0.3549 -0.4175  0.0508
    1Sil     Ob  935   3.258   2.484  12.336  0.0778 -0.2496  0.2713
    1Sil     Ob  936   2.941   2.391  11.523 -0.0348  0.2015  0.5540
    1Sil     Ob  937   3.178   5.781  11.479  0.1749 -0.1431 -0.1313
    1Sil     Ob  938   2.587   5.769  12.288  0.1146 -0.0272  0.6291
    1Sil     Ob  939   2.881   5.764  11.881  0.2285 -0.2601 -0.2594
    1Sil     Ob  940   2.555   2.558  11.760 -0.1162 -0.5566  0.1529
    1Sil     Ob  941   3.100   2.559  12.147  0.3221 -0.1380  0.1194
    1Sil     Ob  942   2.847   2.560  11.361  0.0886 -0.1800 -0.6793
    1Sil     Ob  943   3.715   2.741  11.172  0.4390 -0.1267 -0.7735
    1Sil     Ob  944   3.523   3.227  10.738 -0.0174 -0.2975  0.2832
    1Sil     Ob  945   4.058   3.232  11.121 -0.1864  0.1122  0.0139
    1Sil     Ob  946   3.887   3.110  10.356 -0.7464  0.1712  0.3424
    1Sil     Ob  947   3.893   3.044  11.198 -0.1492 -0.3793 -0.1860
    1Sil     Ob  948   3.652   3.033  10.405 -0.0851  0.4317  0.0072
    1Sil     Ob  949   0.861   3.051  10.805  0.7000 -0.6126  0.3162
    1Sil     Ob  950   3.683   2.813  10.929  0.1295 -0.0177  0.2882
    1Sil     Ob  951   0.630   2.812  10.524 -0.5449 -0.1917 -0.1312
    1Sil     Ob  952   3.664   2.982  11.109 -0.4768  0.4685 -0.4826
    1Sil     Ob  953   3.410   2.983  10.329  0.9195 -0.2343 -0.3920
    1Sil     Ob  954   0.664   2.868  10.768  0.3732  0.1529  0.1582
    1Sil     Ob  955   3.600   2.984  10.755  0.0340 -0.1861 -0.4833
    1Sil     Ob  956   4.132   2.988  11.137 -0.0348  0.1555 -0.1015
    1Sil     Ob  957   3.818   2.861  10.311  0.1544 -0.0108 -0.1692
    1Sil     Ob  958   0.746   2.781  10.288  0.1833 -0.2180 -0.1353
    1Sil     Ob  959   3.474   2.810  11.087  0.0429 -0.0459  0.2431
    1Sil     Ob  960   0.430   2.793  10.676  0.4690 -0.4233  0.3335
    1Sil     Ob  961   3.443   3.068  10.566 -0.0638  0.4888 -0.1105
    1Sil     Ob  962   3.969   3.058  10.948 -0.0529 -0.4850  0.5159
    1Sil     Ob  963   3.657   2.743  12.356  0.2326 -0.9452 -0.3525
    1Sil     Ob  964   3.465   3.221  11.937 -0.1380 -0.3514  0.2905
    1Sil     Ob  965   4.002   3.225  12.326  0.2663  0.4062  0.0651
    1Sil     Ob  966   3.841   3.114  11.547  0.3468 -0.0377  0.1283
    1Sil     Ob  967   3.836   3.037  12.385  0.1706  0.2530 -0.2344
    1Sil     Ob  968   3.606   3.045  11.600 -0.2829  0.4476 -0.4164
    1Sil     Ob  969   0.814   3.039  12.006  0.1331  0.1378 -0.6604
    1Sil     Ob  970   3.634   2.808  12.108 -0.7925 -0.4121  0.3497
    1Sil     Ob  971   0.883   2.821  11.316  0.1985 -0.0979 -0.4334
    1Sil     Ob  972   0.604   2.785  11.726 -0.0020  0.2910  0.0690
    1Sil     Ob  973   3.603   2.978  12.305  0.4853 -0.3703 -0.5593
    1Sil     Ob  974   3.367   2.989  11.507  0.5352 -0.0244  0.8298
    1Sil     Ob  975   0.626   2.869  11.975  0.3667 -0.5700  0.1350
    1Sil     Ob  976   3.546   2.988  11.943  0.0507  0.4297 -0.4795
    1Sil     Ob  977   4.078   2.982  12.353 -0.0262  0.6349 -0.3842
    1Sil     Ob  978   3.774   2.864  11.540 -0.2672  0.0403 -0.5376
    1Sil     Ob  979   0.690   2.809  11.481  0.6384  0.4311 -1.1707
    1Sil     Ob  980   3.430   2.802  12.265  0.4973 -0.0941 -0.4252
    1Sil     Ob  981   0.399   2.814  11.872  0.7941  0.0328  0.3850
    1Sil     Ob  982   3.392   3.055  11.755 -0.6204 -0.5525  0.4837
    1Sil     Ob  983   3.932   3.057  12.154  0.1282  0.1171 -0.2316
    1Sil     Ob  984   3.688   3.031  11.355  0.5806 -0.2280  0.4985
    1Sil     Ob  985   3.699   3.224  11.177  0.3778 -0.8935  0.0880
    1Sil     Ob  986   0.633   3.126  10.702 -0.5590 -0.2254 -0.0675
    1Sil     Ob  987   3.530   3.722  10.738 -0.4295  0.0096 -0.3033
    1Sil     Ob  988   4.048   3.720  11.134 -0.1232 -0.3661  0.1973
    1Sil     Ob  989   3.874   3.607  10.356 -0.1917 -0.2193  0.3266
    1Sil     Ob  990   3.877   3.542  11.199 -0.3208  0.3611  0.1825
    1Sil     Ob  991   3.637   3.533  10.407  0.3365  0.0441 -0.4994
    1Sil     Ob  992   0.863   3.531  10.805  0.3611 -0.2472 -0.6299
    1Sil     Ob  993   3.686   3.296  10.926 -0.0105 -0.2533  0.2149
    1Sil     Ob  994   0.648   3.296  10.524 -0.7710 -0.2367  0.6165
    1Sil     Ob  995   3.652   3.467  11.123  0.2410 -0.4139  0.4726
    1Sil     Ob  996   3.405   3.467  10.329  0.2144 -0.7901  0.4407
    1Sil     Ob  997   0.674   3.375  10.781  0.9051  0.4014 -0.1181
    1Sil     Ob  998   3.607   3.471  10.760  0.1764 -0.4455 -0.3335
    1Sil     Ob  999   4.117   3.478  11.157  0.0566  0.3557 -0.1762
    1Sil     Ob 1000   3.809   3.355  10.323 -0.0426 -0.0316 -0.5428
    1Sil     Ob 1001   0.733   3.280  10.280  0.4839 -0.1869 -0.4809
    1Sil     Ob 1002   3.472   3.297  11.086 -0.1173 -0.6001 -0.2895
    1Sil     Ob 1003   0.440   3.294  10.675  0.0673 -0.3154  0.4105
    1Sil     Ob 1004   3.449   3.538  10.574 -0.6245 -0.2997  0.3927
    1Sil     Ob 1005   3.972   3.554  10.957 -0.2199  0.2358 -0.9891
    1Sil     Ob 1006   3.646   3.212  12.382  0.3514 -0.0375  0.4370
    1Sil     Ob 1007   0.593   3.113  11.904  0.1421 -0.2777  0.2837
    1Sil     Ob 1008   3.483   3.715  11.941  0.3508  1.0486 -0.0306
    1Sil     Ob 1009   4.013   3.714  12.331 -0.1672  0.1742 -0.1633
    1Sil     Ob 1010   3.829   3.610  11.558 -0.2998 -0.4485 -0.2278
    1Sil     Ob 1011   3.835   3.540  12.395  0.4185  0.0114  0.4975
    1Sil     Ob 1012   3.587   3.556  11.602 -0.1327  0.5693  0.0961
    1Sil     Ob 1013   0.807   3.536  12.011  0.9579 -0.0198 -0.3383
    1Sil     Ob 1014   3.624   3.286  12.124 -0.3098 -0.1504 -0.8019
    1Sil     Ob 1015   0.880   3.309  11.330  0.1917 -0.4003  0.5000
    1Sil     Ob 1016   0.594   3.284  11.712 -0.5287  0.5458 -0.1891
    1Sil     Ob 1017   3.602   3.467  12.320  0.2471  0.2017 -0.1977
    1Sil     Ob 1018   3.366   3.482  11.507  0.0181 -0.0137 -0.4803
    1Sil     Ob 1019   0.616   3.361  11.964 -0.3393 -0.1231  0.7058
    1Sil     Ob 1020   3.551   3.467  11.953  0.5937 -0.2112  0.2655
    1Sil     Ob 1021   4.082   3.473  12.358  0.3095  0.1885 -0.1672
    1Sil     Ob 1022   3.748   3.359  11.541 -0.3806 -0.6508  0.3234
    1Sil     Ob 1023   0.676   3.307  11.471  0.1720  0.9089  0.0136
    1Sil     Ob 1024   3.416   3.287  12.281  0.1195 -0.0770 -0.0667
    1Sil     Ob 1025   0.390   3.271  11.877 -0.6169 -0.5833 -1.1205
    1Sil     Ob 1026   3.380   3.552  11.756 -0.0966 -0.4520 -0.4877
    1Sil     Ob 1027   3.927   3.531  12.154  0.0238  0.0618 -0.6075
    1Sil     Ob 1028   3.676   3.539  11.370  0.5548 -0.3164 -0.0661
    1Sil     Ob 1029   3.694   3.720  11.187 -0.3692  0.1286 -0.2843
    1Sil     Ob 1030   0.643   3.612  10.706  0.3578  0.0252  0.7052
    1Sil     Ob 1031   3.534   4.223  10.727 -0.4517 -0.4354 -0.1174
    1Sil     Ob 1032   4.058   4.219  11.126  0.3500  0.7881 -0.5609
    1Sil     Ob 1033   3.892   4.097  10.358  0.5421 -0.5620  0.0306
    1Sil     Ob 1034   3.890   4.030  11.184  0.1905 -0.4681 -0.6624
    1Sil     Ob 1035   3.640   4.032  10.414  0.0648  0.1056  0.1505
    1Sil     Ob 1036   0.855   4.050  10.795  0.4822  0.2738  0.2644
    1Sil     Ob 1037   3.681   3.784  10.929  0.7609 -0.3489 -0.4969
    1Sil     Ob 1038   0.648   3.789  10.510 -0.3395  0.1620  0.2044
    1Sil     Ob 1039   3.660   3.966  11.110  0.2071 -0.0274  0.1718
    1Sil     Ob 1040   3.405   3.965  10.312 -0.0142  0.1835 -0.2457
    1Sil     Ob 1041   0.685   3.869  10.755 -0.3840 -0.6487 -0.1410
    1Sil     Ob 1042   3.605   3.973  10.744  0.2483 -0.4872  0.0690
    1Sil     Ob 1043   4.123   3.970  11.133  0.4660  0.4574 -0.2587
    1Sil     Ob 1044   3.816   3.857  10.333  0.0422 -0.0324  0.3787
    1Sil     Ob 1045   0.731   3.784  10.270  0.4442 -0.5290 -0.4653
    1Sil     Ob 1046   3.471   3.797  11.083 -0.9279  0.3342  0.4090
    1Sil     Ob 1047   0.447   3.784  10.679  0.2587 -0.1570 -0.7419
    1Sil     Ob 1048   3.437   4.042  10.557  0.7069  0.0945 -0.4163
    1Sil     Ob 1049   3.971   4.038  10.945  0.2123  0.0767  0.1948
    1Sil     Ob 1050   3.648   3.710  12.370  0.1284 -0.2701  0.0876
    1Sil     Ob 1051   0.582   3.611  11.908 -0.7068  0.8874 -0.5425
    1Sil     Ob 1052   3.469   4.213  11.924 -0.3216  0.2099 -0.0440
    1Sil     Ob 1053   4.011   4.204  12.330 -0.1804 -0.0805  0.3212
    1Sil     Ob 1054   3.837   4.102  11.543 -0.2010 -0.6826 -0.4653
    1Sil     Ob 1055   3.836   4.034  12.397 -0.1018  0.2532 -0.0442
    1Sil     Ob 1056   3.603   4.040  11.599 -0.2747  0.8816  0.1861
    1Sil     Ob 1057   0.810   4.045  12.005 -0.1241 -0.0656  0.0102
    1Sil     Ob 1058   3.639   3.786  12.127  0.5850  0.1173  0.2980
    1Sil     Ob 1059   0.884   3.793  11.321 -0.1777 -0.4977 -0.2142
    1Sil     Ob 1060   0.604   3.783  11.717  0.1987 -0.1842  0.2594
    1Sil     Ob 1061   3.612   3.961  12.301  0.1567  0.0627 -0.1382
    1Sil     Ob 1062   3.369   3.966  11.497 -0.4053 -0.0265 -0.1194
    1Sil     Ob 1063   0.637   3.854  11.966 -0.2755  0.0259 -0.3125
    1Sil     Ob 1064   3.546   3.967  11.956 -0.0746  0.4520  0.0851
    1Sil     Ob 1065   4.078   3.955  12.360  0.0438  0.2116 -0.0347
    1Sil     Ob 1066   3.763   3.858  11.528 -0.0671 -0.3246 -0.4330
    1Sil     Ob 1067   0.684   3.789  11.475  0.1628  0.1309 -0.1048
    1Sil     Ob 1068   3.425   3.788  12.273 -0.0996 -0.1314 -0.1518
    1Sil     Ob 1069   0.400   3.790  11.878 -0.1119  0.0533 -0.1522
    1Sil     Ob 1070   3.395   4.027  11.754  0.1977  0.6184  0.3177
    1Sil     Ob 1071   3.935   4.007  12.163  0.1756 -0.0972 -0.1160
    1Sil     Ob 1072   3.684   4.030  11.354 -0.3422 -0.0624 -0.0376
    1Sil     Ob 1073   3.721   4.208  11.172 -0.2281  0.3736  0.0988
    1Sil     Ob 1074   0.633   4.106  10.696 -0.4461  0.0271 -0.2256
    1Sil     Ob 1075   3.525   4.710  10.752  0.7706  0.0939  0.2807
    1Sil     Ob 1076   4.081   4.717  11.116  0.4164  0.0674  0.2078
    1Sil     Ob 1077   3.894   4.583  10.357  0.4023 -0.5910 -0.2362
    1Sil     Ob 1078   3.901   4.555  11.211 -0.5388  0.3459  0.3578
    1Sil     Ob 1079   3.650   4.511  10.416 -0.3863  0.7039 -0.7858
    1Sil     Ob 1080   0.860   4.538  10.806 -0.2348 -0.5140 -0.0035
    1Sil     Ob 1081   3.686   4.282  10.926 -0.3562  0.0910 -0.1011
    1Sil     Ob 1082   0.646   4.278  10.520  0.1872  0.0194  0.3151
    1Sil     Ob 1083   3.676   4.461  11.113 -0.0476  0.4019  0.2733
    1Sil     Ob 1084   3.391   4.460  10.336 -0.2375 -0.2491 -0.0733
    1Sil     Ob 1085   0.679   4.346  10.769 -0.3561  0.3217  0.0205
    1Sil     Ob 1086   3.600   4.467  10.765  0.8129  0.0690 -0.2410
    1Sil     Ob 1087   4.135   4.464  11.157  0.6622  0.3121 -0.6611
    1Sil     Ob 1088   3.824   4.344  10.324 -0.3996 -0.1434 -0.2142
    1Sil     Ob 1089   0.743   4.279  10.275 -0.5552  0.4170  0.3884
    1Sil     Ob 1090   3.486   4.283  11.091  0.0225 -0.0137 -0.3188
    1Sil     Ob 1091   0.443   4.285  10.677 -0.4590  0.3370  0.0825
    1Sil     Ob 1092   3.444   4.545  10.576  0.3488  0.3506  0.3634
    1Sil     Ob 1093   3.984   4.515  10.970  0.3198  0.0875 -0.4118
    1Sil     Ob 1094   3.639   4.203  12.363  0.1315 -0.0676 -0.2766
    1Sil     Ob 1095   0.576   4.096  11.920  0.4056 -0.4888 -0.4767
    1Sil     Ob 1096   3.475   4.707  11.924  0.6421 -0.1502  0.0801
    1Sil     Ob 1097   4.017   4.709  12.334 -0.9010 -0.9710  0.5746
    1Sil     Ob 1098   3.837   4.599  11.558  0.2512 -0.1202 -0.7722
    1Sil     Ob 1099   3.845   4.523  12.384  0.0096  0.4432  0.6474
    1Sil     Ob 1100   3.594   4.526  11.598  0.0138 -0.5252 -0.1851
    1Sil     Ob 1101   0.803   4.541  11.994  0.0405  0.5741 -0.3126
    1Sil     Ob 1102   3.622   4.288  12.120 -0.2227  0.1597 -0.0143
    1Sil     Ob 1103   0.900   4.289  11.324 -0.2855 -0.7163 -0.0833
    1Sil     Ob 1104   0.596   4.262  11.718 -0.5441  0.2221 -0.1109
    1Sil     Ob 1105   3.602   4.461  12.310  0.0262  0.1602 -0.1153
    1Sil     Ob 1106   3.348   4.458  11.520  0.0198 -0.5082  0.3346
    1Sil     Ob 1107   0.623   4.364  11.965  0.4958 -0.4027 -0.0379
    1Sil     Ob 1108   3.543   4.459  11.946  0.0656  0.7186  0.2226
    1Sil     Ob 1109   4.092   4.458  12.331  0.1935 -0.6185 -0.0237
    1Sil     Ob 1110   3.762   4.352  11.537  0.2499  0.1909  0.3041
    1Sil     Ob 1111   0.691   4.280  11.477 -0.0299 -0.1178 -0.0249
    1Sil     Ob 1112   3.425   4.286  12.264 -0.4736 -0.1713 -0.7456
    1Sil     Ob 1113   0.384   4.266  11.877 -0.1924  0.2205  0.3576
    1Sil     Ob 1114   3.384   4.536  11.760  0.2932  0.0544 -0.3505
    1Sil     Ob 1115   3.935   4.550  12.150  0.0532 -0.2638 -0.3608
    1Sil     Ob 1116   3.689   4.538  11.364  0.3844  0.5394  0.2879
    1Sil     Ob 1117   3.719   4.711  11.181 -0.2706 -0.2565 -0.0386
    1Sil     Ob 1118   0.620   4.597  10.734 -0.1484  0.4837  0.8353
    1Sil     Ob 1119   3.532   5.204  10.730  0.3233  0.0721 -0.5647
    1Sil     Ob 1120   4.061   5.206  11.118  0.1181 -0.1700  0.3761
    1Sil     Ob 1121   3.908   5.082  10.378  0.0230 -0.4420  0.0363
    1Sil     Ob 1122   3.892   5.025  11.194  0.2649 -0.3159 -0.3526
    1Sil     Ob 1123   3.655   5.008  10.416 -0.3796 -0.1564 -0.3699
    1Sil     Ob 1124   0.864   5.012  10.809 -0.5181 -0.2323  0.0914
    1Sil     Ob 1125   3.692   4.779  10.937  0.5047 -0.4186 -0.1857
    1Sil     Ob 1126   0.650   4.756  10.533  0.3523 -0.1375 -0.0408
    1Sil     Ob 1127   3.657   4.955  11.121  0.2303 -0.1852 -0.2352
    1Sil     Ob 1128   3.408   4.949  10.332  0.3258  0.2046 -0.1796
    1Sil     Ob 1129   0.676   4.844  10.780 -0.6231 -0.1067 -0.1204
    1Sil     Ob 1130   3.602   4.961  10.778  0.7241 -0.2062 -0.0563
    1Sil     Ob 1131   4.139   4.959  11.161  0.5628  0.3243  0.2167
    1Sil     Ob 1132   3.821   4.832  10.345  0.1951 -0.1780 -0.0318
    1Sil     Ob 1133   0.743   4.764  10.289  0.6281  0.0774 -0.3247
    1Sil     Ob 1134   3.483   4.771  11.097 -0.1417 -0.7016  0.3067
    1Sil     Ob 1135   0.439   4.767  10.695 -0.1201  0.0520  0.0137
    1Sil     Ob 1136   3.453   5.027  10.566  0.4332 -0.5328  0.0745
    1Sil     Ob 1137   3.989   5.030  10.956 -0.1789 -0.0296 -0.2703
    1Sil     Ob 1138   3.667   4.708  12.360  0.6020 -0.1403  0.5739
    1Sil     Ob 1139   0.568   4.612  11.910  0.2777  0.0897  1.0182
    1Sil     Ob 1140   3.469   5.195  11.937 -0.3924 -0.3330 -0.3136
    1Sil     Ob 1141   4.023   5.202  12.298  0.4342 -0.1235 -0.0830
    1Sil     Ob 1142   3.849   5.094  11.547  0.1256 -0.2160  0.0927
    1Sil     Ob 1143   3.849   5.038  12.388  0.0952  0.1981 -0.3449
    1Sil     Ob 1144   3.610   5.036  11.612  0.1111  0.0089 -0.0570
    1Sil     Ob 1145   0.812   5.024  11.994  0.1467  0.0239 -0.0969
    1Sil     Ob 1146   3.640   4.780  12.113  0.2165  0.2713 -0.1991
    1Sil     Ob 1147   0.897   4.784  11.323  0.3626  0.2595  0.2848
    1Sil     Ob 1148   0.601   4.776  11.715 -0.2678 -0.0728  0.0168
    1Sil     Ob 1149   3.625   4.960  12.303 -0.0138 -0.5110  0.0117
    1Sil     Ob 1150   3.380   4.959  11.514 -0.1539 -0.4351 -0.3522
    1Sil     Ob 1151   0.628   4.850  11.958 -0.1465  0.2631 -1.0542
    1Sil     Ob 1152   3.556   4.949  11.951 -0.2454 -0.3186 -0.2396
    1Sil     Ob 1153   4.091   4.963  12.342 -0.3644 -0.0983  0.4389
    1Sil     Ob 1154   3.775   4.841  11.512  0.1115  0.0524 -0.3303
    1Sil     Ob 1155   0.685   4.766  11.472 -0.1696  0.7634  0.6355
    1Sil     Ob 1156   3.440   4.782  12.278 -0.0774 -0.5337 -0.4697
    1Sil     Ob 1157   0.395   4.782  11.869 -0.1406 -0.3901 -0.4109
    1Sil     Ob 1158   3.404   5.015  11.764  0.3097 -0.7240  0.2286
    1Sil     Ob 1159   3.928   5.009  12.146 -0.0085 -0.2244  0.3419
    1Sil     Ob 1160   3.687   5.025  11.362 -0.8361  0.1659 -0.2617
    1Sil     Ob 1161   3.706   5.202  11.174  0.2179  0.6388 -0.6729
    1Sil     Ob 1162   0.644   5.097  10.707  0.1969  0.2927 -0.0985
    1Sil     Ob 1163   3.526   5.700  10.714  0.5567  0.7236 -0.0291
    1Sil     Ob 1164   4.060   5.701  11.116 -0.1777  0.2941  0.7847
    1Sil     Ob 1165   3.885   5.572  10.349  0.1329  0.2516  0.0442
    1Sil     Ob 1166   3.894   5.525  11.214 -0.3429 -0.1107  0.1162
    1Sil     Ob 1167   3.647   5.500  10.413  0.2613  0.1786  0.2550
    1Sil     Ob 1168   0.866   5.542  10.808  0.0296  0.3783 -0.0817
    1Sil     Ob 1169   3.684   5.275  10.930  0.0095  0.0154 -0.0983
    1Sil     Ob 1170   0.671   5.278  10.529 -0.8450 -0.5581 -0.0660
    1Sil     Ob 1171   3.668   5.450  11.105  0.2200 -0.1972 -0.6352
    1Sil     Ob 1172   3.416   5.441  10.316 -0.1051  0.5805  0.4088
    1Sil     Ob 1173   0.701   5.347  10.785  0.0064 -0.1736  0.1899
    1Sil     Ob 1174   3.589   5.452  10.777 -0.0969  0.1298  0.1469
    1Sil     Ob 1175   4.135   5.455  11.142 -0.0219  0.1366 -0.9706
    1Sil     Ob 1176   3.823   5.324  10.340 -0.3712  0.0017 -0.1290
    1Sil     Ob 1177   0.748   5.251  10.282  0.4354 -0.6214 -0.2168
    1Sil     Ob 1178   3.472   5.279  11.086 -0.4823  0.2077 -0.3869
    1Sil     Ob 1179   0.457   5.284  10.685  0.0827 -0.0323  0.5921
    1Sil     Ob 1180   3.440   5.509  10.564  0.0182  0.3055  0.0363
    1Sil     Ob 1181   3.975   5.514  10.963 -0.4933  0.7195  0.0157
    1Sil     Ob 1182   3.665   5.204  12.368 -0.3717  0.1272 -0.3608
    1Sil     Ob 1183   0.570   5.090  11.906  0.1115 -0.5140 -0.0293
    1Sil     Ob 1184   3.475   5.699  11.919 -0.1486  0.0872 -0.1076
    1Sil     Ob 1185   4.023   5.694  12.306  0.7627  0.0741 -0.9111
    1Sil     Ob 1186   3.852   5.586  11.548 -0.0763  0.5041  0.2592
    1Sil     Ob 1187   3.849   5.524  12.401 -0.4365 -0.4284 -0.4372
    1Sil     Ob 1188   3.598   5.519  11.596 -0.5681  0.1789 -0.0702
    1Sil     Ob 1189   0.803   5.499  11.991 -0.0560  0.2059 -0.0980
    1Sil     Ob 1190   3.637   5.283  12.130 -0.2127 -0.3975 -0.0461
    1Sil     Ob 1191   0.895   5.288  11.321 -0.3890 -0.5311  0.3069
    1Sil     Ob 1192   0.595   5.269  11.716 -0.3190 -0.0225  0.6116
    1Sil     Ob 1193   3.610   5.454  12.335 -0.0264  0.0761 -0.1283
    1Sil     Ob 1194   3.363   5.439  11.506 -0.4158  0.3860 -0.2489
    1Sil     Ob 1195   0.623   5.337  11.961  0.1775 -0.1719  0.9341
    1Sil     Ob 1196   3.551   5.457  11.953  0.1267  0.6967  0.3400
    1Sil     Ob 1197   4.083   5.448  12.343  0.1812  0.2518 -0.6540
    1Sil     Ob 1198   3.771   5.338  11.516  0.4682  0.3403  0.0951
    1Sil     Ob 1199   0.694   5.269  11.471  0.5256  0.0276 -0.5597
    1Sil     Ob 1200   3.424   5.284  12.284  0.3712 -0.3512 -1.0201
    1Sil     Ob 1201   0.393   5.263  11.880  0.6152  0.0969  0.6754
    1Sil     Ob 1202   3.392   5.513  11.759  0.2613  0.5912  0.0654
    1Sil     Ob 1203   3.926   5.523  12.145  0.4105  0.2758  0.0075
    1Sil     Ob 1204   3.685   5.523  11.360  0.1835  0.0368 -0.0731
    1Sil     Ob 1205   3.703   5.704  11.171  0.3287 -0.2305  0.8964
    1Sil     Ob 1206   0.634   5.587  10.711 -0.1711 -0.0206 -0.1493
    1Sil     Ob 1207   0.568   2.557  11.186 -0.3997  0.0016 -0.2619
    1Sil     Ob 1208   0.327   2.543  10.421 -0.0312  0.0787 -0.0813
    1Sil     Ob 1209   0.860   2.572  10.804 -0.3747 -0.1397  0.0989
    1Sil     Ob 1210   3.666   5.760  10.916 -0.1431  0.0838 -0.8029
    1Sil     Ob 1211   0.638   5.754  10.518 -0.1655 -0.2155 -0.2900
    1Sil     Ob 1212   3.654   5.941  11.105  0.3770 -0.0658 -0.2491
    1Sil     Ob 1213   3.424   5.937  10.316  0.7996 -0.4628 -0.5965
    1Sil     Ob 1214   0.676   5.835  10.770  0.2848  0.7780  0.1754
    1Sil     Ob 1215   3.597   2.494  10.752  0.3925 -0.3986  0.3946
    1Sil     Ob 1216   0.807   2.507  11.144  0.6602  0.2414  0.5250
    1Sil     Ob 1217   0.492   2.368  10.323  0.2720  0.1197  0.2648
    1Sil     Ob 1218   0.743   5.745  10.286  0.4671 -0.0222 -0.4098
    1Sil     Ob 1219   3.473   5.759  11.080 -0.3416 -0.1953  0.7439
    1Sil     Ob 1220   0.447   5.759  10.678 -0.2658  0.1529  0.0441
    1Sil     Ob 1221   3.431   2.580  10.557  0.4700 -0.2839  0.2377
    1Sil     Ob 1222   0.657   2.580  10.938  0.2713 -0.1388  0.2019
    1Sil     Ob 1223   3.662   5.701  12.372 -0.1758  0.0266  0.4868
    1Sil     Ob 1224   0.584   5.579  11.896  0.4374 -0.2571  0.0085
    1Sil     Ob 1225   0.513   2.564  12.391 -0.4615  0.3475  0.1685
    1Sil     Ob 1226   0.282   2.570  11.597 -0.4208 -0.6376 -0.1715
    1Sil     Ob 1227   0.813   2.555  11.997  0.0906  0.0360 -0.1979
    1Sil     Ob 1228   3.623   5.763  12.122 -0.4019  0.4719  0.1657
    1Sil     Ob 1229   0.892   5.774  11.315 -0.9282  0.2640  0.1036
    1Sil     Ob 1230   0.601   5.764  11.713 -0.3368 -0.5722 -0.8847
    1Sil     Ob 1231   3.596   5.944  12.312 -0.1019  0.0632  0.4468
    1Sil     Ob 1232   3.379   5.940  11.498 -0.2733  0.2785 -0.3836
    1Sil     Ob 1233   0.638   5.824  11.963 -0.3023  0.2142 -0.1407
    1Sil     Ob 1234   3.549   2.497  11.954  0.5798  0.6074 -0.1607
    1Sil     Ob 1235   0.756   2.491  12.367  0.7502 -0.1872 -0.6827
    1Sil     Ob 1236   0.443   2.384  11.521  0.1948  0.3621  0.0685
    1Sil     Ob 1237   0.692   5.768  11.472 -0.0446  0.4050  0.1751
    1Sil     Ob 1238   3.428   5.745  12.299 -0.0079 -0.4989  0.2860
    1Sil     Ob 1239   0.402   5.763  11.872 -0.7589  0.2007 -0.6128
    1Sil     Ob 1240   3.399   2.567  11.759  0.4608  0.3382 -0.2522
    1Sil     Ob 1241   0.614   2.539  12.150  0.4815  0.5736 -0.0279
    1Sil     Ob 1242   3.691   2.551  11.352 -0.0024  0.4648 -0.0727
    1Sil     Ob 1243   0.961   2.728  10.387 -0.6002  0.5209  0.2331
    1Sil     Ob 1244   0.924   2.747  11.570  0.3883 -0.4802  0.5537
    1Sil     Ob 1245   0.975   3.214  10.352 -0.3827 -0.0235 -0.7510
    1Sil     Ob 1246   0.914   3.237  11.570  0.0792  0.1563 -0.6072
    1Sil     Ob 1247   0.969   3.710  10.357 -0.0207  0.3093 -0.1959
    1Sil     Ob 1248   0.911   3.732  11.586  0.2760  0.5893 -0.9263
    1Sil     Ob 1249   0.968   4.202  10.374 -0.2113 -0.3316  0.3942
    1Sil     Ob 1250   0.919   4.220  11.571 -0.1070  0.4189  0.5548
    1Sil     Ob 1251   0.976   4.700  10.382 -0.4614 -0.0967  0.6804
    1Sil     Ob 1252   0.919   4.711  11.565 -0.1282 -0.0200  0.2899
    1Sil     Ob 1253   0.983   5.189  10.366 -0.1377  0.2782  0.3596
    1Sil     Ob 1254   0.935   5.207  11.551  0.0255  0.5080  0.1773
    1Sil     Ob 1255   0.974   5.682  10.384  0.5277 -0.6450  0.8339
    1Sil     Ob 1256   0.927   5.701  11.557  0.0720  0.1207 -0.0778
    1Sil     Ob 1257   1.466   2.626  10.715 -0.5713  0.7055 -0.3224
    1Sil     Ob 1258   1.406   2.630  11.913 -0.0755 -0.5018  0.2414
    1Sil     Ob 1259   2.305   2.637  10.705  1.1307  0.1853  0.0503
    1Sil     Ob 1260   2.248   2.623  11.909 -0.1609  0.1109 -0.1123
    1Sil     Ob 1261   3.113   2.640  10.703 -0.1749  0.0424 -0.3784
    1Sil     Ob 1262   3.084   2.625  11.896 -0.5258 -0.5626  0.2750
    1Sil     Ob 1263   0.625   2.624  10.701 -0.2968  0.2092  0.1786
    1Sil     Ob 1264   0.575   2.618  11.915  0.3319  0.3703 -0.1666
    1Sil     Ob 1265   1.039   2.744  10.730 -0.3002  0.0388  0.3431
    1Sil     Ob 1266   1.558   2.744  11.126  0.4742 -0.0739  0.3263
    1Sil     Ob 1267   1.384   2.624  10.365 -0.0132 -0.1420 -0.3058
    1Sil     Ob 1268   0.984   2.746  11.932  0.0352 -0.1379 -0.0819
    1Sil     Ob 1269   1.504   2.735  12.329 -0.4807  0.2197 -0.0373
    1Sil     Ob 1270   1.349   2.626  11.557 -0.1331  0.6068 -0.0483
    1Sil     Ob 1271   1.874   2.739  10.731 -0.3776 -0.0233  0.1559
    1Sil     Ob 1272   2.402   2.738  11.130  0.0934 -0.2409  0.1882
    1Sil     Ob 1273   2.216   2.617  10.379 -0.0922 -0.2271  0.1334
    1Sil     Ob 1274   1.804   2.739  11.932 -0.4239  0.4818 -0.1468
    1Sil     Ob 1275   2.348   2.734  12.326 -0.2699  0.2305  0.1252
    1Sil     Ob 1276   2.172   2.626  11.549  0.1326  0.0646 -0.0083
    1Sil     Ob 1277   2.696   2.731  10.734  0.1338  0.0645  0.5655
    1Sil     Ob 1278   3.231   2.738  11.123  0.3775 -0.3561 -0.3809
    1Sil     Ob 1279   3.065   2.637  10.360  0.1355 -0.2232 -0.1084
    1Sil     Ob 1280   2.647   2.729  11.931  0.1875  0.3901  0.2204
    1Sil     Ob 1281   3.190   2.729  12.308 -0.4156  0.0861 -0.4115
    1Sil     Ob 1282   3.009   2.639  11.543  0.1060 -0.4799 -0.2314
    1Sil     Ob 1283   3.514   2.737  10.756 -0.3669 -0.0948  0.0084
    1Sil     Ob 1284   0.733   2.749  11.118 -0.3793  0.0626  0.3600
    1Sil     Ob 1285   0.566   2.618  10.366 -0.0405 -0.5741 -0.1032
    1Sil     Ob 1286   3.476   2.747  11.923 -0.5595 -0.1450 -0.6076
    1Sil     Ob 1287   0.697   2.733  12.304  0.0659 -0.4346  0.1054
    1Sil     Ob 1288   0.523   2.628  11.534  0.0355 -0.0427 -0.2178
    1Sil     Cm 1289   1.780   2.804  10.118  0.0928  0.3870  0.5058
    1Sil     Cm 1290   1.234   3.038  10.157  0.1061  0.1486  0.4722
    1Sil     Cm 1291   1.158   3.055  12.577  0.0847  0.2719  0.3396
    1Sil     Cm 1292   1.660   2.818  12.522  0.0537 -0.7318 -0.7775
    1Sil     Cm 1293   1.780   3.314  10.130 -0.1867  0.6408 -0.7342
    1Sil     Oy 1294   1.247   3.559  10.171 -0.0646  0.0605 -0.2128
    1Sil     Oy 1295   1.157   3.568  12.565  0.1706  0.7997 -0.4181
    1Sil     Cm 1296   1.645   3.293  12.541 -0.3204 -0.4142 -0.0161
    1Sil     Cm 1297   1.758   3.759  10.122  0.6767  0.0702  0.3527
    1Sil     Cm 1298   1.224   4.051  10.133 -0.1700 -0.8983 -0.3119
    1Sil     Oy 1299   1.141   4.013  12.546 -0.0315  0.6727 -0.0103
    1Sil     Oy 1300   1.662   3.796  12.515 -0.4611 -0.3437 -0.0794
    1Sil     Cm 1301   1.784   4.263  10.118  0.5359 -0.1047 -0.0411
    1Sil     Oy 1302   1.234   4.553  10.171  0.0606  0.4253  0.1078
    1Sil     Oy 1303   1.153   4.520  12.560  0.0513 -0.1572 -0.0928
    1Sil     Oy 1304   1.681   4.273  12.526  0.0100  0.2105  0.4832
    1Sil     Cm 1305   1.788   4.778  10.128 -0.5043 -0.3675 -0.0174
    1Sil     Oy 1306   1.235   5.016  10.166  0.3624 -0.3882  0.2391
    1Sil     Oy 1307   1.144   5.037  12.545  0.5978 -0.1583  1.0054
    1Sil     Cm 1308   1.658   4.777  12.530 -0.2000  1.2568  0.3368
    1Sil     Oy 1309   1.783   5.273  10.131  0.4472  0.4958  0.0854
    1Sil     Cm 1310   1.233   5.520  10.138 -0.5115 -0.5659 -0.3022
    1Sil     Oy 1311   1.132   5.511  12.547 -0.2728 -0.0451  0.4222
    1Sil     Oy 1312   1.673   5.254  12.504 -0.4132  0.1353  0.6308
    1Sil     Oy 1313   1.795   5.768  10.136  0.6394  0.2436 -0.2025
    1Sil     Cm 1314   1.235   2.582  10.151 -0.0618  0.2446 -0.0058
    1Sil     Cm 1315   1.142   2.568  12.583  0.5481  0.5560 -0.6312
    1Sil     Oy 1316   1.646   5.768  12.512  0.2790 -0.0966  0.1883
    1Sil     Oy 1317   2.602   2.835  10.122 -0.4757  0.9946  0.3705
    1Sil     Cm 1318   2.076   3.051  10.143  0.4325 -0.3224  0.1407
    1Sil     Oy 1319   1.953   3.064  12.559  0.3660  0.2564 -0.9800
    1Sil     Oy 1320   2.499   2.802  12.529 -0.0911  0.3250  0.2737
    1Sil     Oy 1321   2.622   3.276  10.151 -0.1489 -0.2590  0.9729
    1Sil     Oy 1322   2.077   3.538  10.175  0.1530  0.3129  0.0346
    1Sil     Cm 1323   1.975   3.546  12.578 -0.4478  0.9023 -0.6872
    1Sil     Oy 1324   2.503   3.274  12.522  0.4594 -0.0126 -0.0100
    1Sil     Cm 1325   2.607   3.802  10.130 -0.3834 -0.4373 -0.2733
    1Sil     Cm 1326   2.070   4.027  10.164  0.1739 -0.5516  0.1393
    1Sil     Cm 1327   1.952   4.040  12.561 -0.2104 -0.6131  0.0708
    1Sil     Oy 1328   2.465   3.798  12.528  0.4258 -0.5794  0.4390
    1Sil     Cm 1329   2.582   4.299  10.106 -0.0906  0.3481 -0.0460
    1Sil     Cm 1330   2.049   4.508  10.137  0.1056 -0.3700 -0.2303
    1Sil     Oy 1331   1.972   4.509  12.539  0.1622 -0.2571  0.6062
    1Sil     Oy 1332   2.481   4.297  12.526 -0.0559  0.1658 -0.4003
    1Sil     Cm 1333   2.606   4.773  10.121 -0.3022  0.1805 -0.3320
    1Sil     Oy 1334   2.068   5.015  10.148  0.3314 -0.4367 -0.4654
    1Sil     Oy 1335   1.979   5.041  12.555 -0.0743  0.5869  0.0979
    1Sil     Cm 1336   2.507   4.823  12.546  0.8514 -0.5214 -0.1482
    1Sil     Oy 1337   2.620   5.268  10.129  0.2457  0.0804 -0.3277
    1Sil     Oy 1338   2.092   5.526  10.165  0.4098  0.2797 -0.3187
    1Sil     Cm 1339   1.945   5.514  12.558  0.5041  0.2191 -0.1897
    1Sil     Oy 1340   2.516   5.257  12.508 -0.4559  0.0560 -0.4614
    1Sil     Oy 1341   2.604   5.741  10.129  0.2533 -0.0812 -0.0332
    1Sil     Oy 1342   2.073   2.536  10.174 -0.4184 -0.0916  0.5402
    1Sil     Oy 1343   1.967   2.564  12.548  0.2172  0.3102 -0.2507
    1Sil     Oy 1344   2.477   5.763  12.528 -0.4912  0.6357 -0.0535
    1Sil     Oy 1345   3.419   2.821  10.115  0.1304 -0.5172  0.0468
    1Sil     Oy 1346   2.891   3.081  10.176  0.1257  0.1943  0.2765
    1Sil     Oy 1347   2.817   3.061  12.553 -0.0411 -0.6756 -0.1467
    1Sil     Oy 1348   3.333   2.793  12.512  0.0328 -1.3243  0.0235
    1Sil     Oy 1349   3.424   3.322  10.122  0.3793 -0.5939  0.0142
    1Sil     Cm 1350   2.901   3.568  10.136 -0.3281  0.2553  0.0560
    1Sil     Cm 1351   2.816   3.551  12.591  0.3780 -0.3506 -0.1976
    1Sil     Oy 1352   3.307   3.283  12.519 -0.3302  0.3902  0.6424
    1Sil     Cm 1353   3.446   3.802  10.122  0.5428 -0.4316 -0.6403
    1Sil     Cm 1354   2.905   4.037  10.127  0.5961  0.0200 -0.1068
    1Sil     Cm 1355   2.818   4.041  12.600  0.2575  0.4923  0.0207
    1Sil     Cm 1356   3.335   3.798  12.514 -0.5831  0.4170 -0.1317
    1Sil     Oy 1357   3.411   4.282  10.135  0.3879 -0.1267 -0.8795
    1Sil     Oy 1358   2.907   4.517  10.167  0.0708 -0.0924 -0.4281
    1Sil     Cm 1359   2.795   4.537  12.562  0.3984 -0.1685  0.3296
    1Sil     Cm 1360   3.329   4.274  12.526  0.4491 -0.2479  0.7999
    1Sil     Oy 1361   3.454   4.786  10.133  0.1191  0.2489 -0.1487
    1Sil     Cm 1362   2.914   5.014  10.146  0.1139 -0.0301 -0.9706
    1Sil     Oy 1363   2.789   5.026  12.553  0.0720  0.3500  0.1342
    1Sil     Oy 1364   3.330   4.774  12.515  0.0852 -0.6501 -0.6240
    1Sil     Cm 1365   3.451   5.271  10.098  0.3040 -0.2453 -0.2692
    1Sil     Oy 1366   2.907   5.521  10.164  0.4425  0.1940 -0.2904
    1Sil     Cm 1367   2.808   5.510  12.561  0.2604 -0.4612 -0.0787
    1Sil     Oy 1368   3.346   5.267  12.529  0.5677 -1.0234 -0.0191
    1Sil     Cm 1369   3.465   5.766  10.133  0.8265  0.4362 -0.1813
    1Sil     Cm 1370   2.892   2.559  10.163 -0.5153  0.4377  0.0520
    1Sil     Cm 1371   2.829   2.553  12.567 -0.2861 -0.5150  0.0998
    1Sil     Cm 1372   3.299   5.780  12.552 -0.0996 -0.6297 -0.3789
    1Sil     Oy 1373   0.950   2.807  10.132 -0.5893 -0.2125  0.1116
    1Sil     Cm 1374   3.725   3.059  10.155 -0.2653 -0.2653 -0.0629
    1Sil     Oy 1375   3.642   3.018  12.551 -0.5118 -0.1633 -0.3777
    1Sil     Oy 1376   0.845   2.793  12.520 -0.7334  0.0897  0.2520
    1Sil     Oy 1377   0.930   3.329  10.118  0.4758  0.3326  0.0743
    1Sil     Cm 1378   3.717   3.532  10.156 -0.4179  0.6188  0.3280
    1Sil     Cm 1379   3.634   3.550  12.581  0.2197  0.6237  0.3443
    1Sil     Cm 1380   0.827   3.289  12.560  0.0565  0.3146  0.6134
    1Sil     Cm 1381   0.927   3.791  10.104  0.2803  0.1372  0.2309
    1Sil     Oy 1382   3.739   4.027  10.176  0.3101 -0.1467  0.3659
    1Sil     Oy 1383   3.632   4.028  12.542  0.1326  0.2128  0.3391
    1Sil     Oy 1384   0.861   3.776  12.516 -0.4988  1.0198  0.2055
    1Sil     Cm 1385   0.960   4.282  10.115 -0.2697 -0.1341  0.1494
    1Sil     Oy 1386   3.716   4.521  10.160 -0.5132  0.0891  0.0745
    1Sil     Oy 1387   3.637   4.516  12.548  0.0522 -0.6586  0.0861
    1Sil     Cm 1388   0.820   4.312  12.541  0.2181  0.5461  0.6516
    1Sil     Cm 1389   0.946   4.757  10.114  0.0296 -0.4401 -0.2397
    1Sil     Oy 1390   3.763   5.013  10.170  0.0687  0.2560  0.2934
    1Sil     Oy 1391   3.648   5.018  12.546 -0.3304 -0.2085  0.0383
    1Sil     Oy 1392   0.867   4.803  12.520 -0.1629  0.0094 -0.2693
    1Sil     Oy 1393   0.955   5.279  10.124  0.7747  0.5311  1.1041
    1Sil     Oy 1394   3.733   5.484  10.167  0.0595  0.0140  0.2662
    1Sil     Oy 1395   3.654   5.547  12.570 -0.1217  0.4894  0.1679
    1Sil     Cm 1396   0.845   5.260  12.518 -0.1452  0.1405 -0.1303
    1Sil     Oy 1397   0.954   5.751  10.135 -0.4093 -0.7410 -0.6210
    1Sil     Oy 1398   0.413   2.552  10.173 -0.4204 -0.3525 -0.0808
    1Sil     Cm 1399   3.627   2.589  12.570 -0.1235  0.4891  0.8459
    1Sil     Oy 1400   0.846   5.750  12.517 -0.9450 -0.0726 -0.4496
    1Sil    Sim 1401   1.732   2.822  10.280 -0.0333 -0.3428 -0.1195
    1Sil    Sib 1402   1.134   2.835  11.075 -0.4198  0.2018  0.3910
    1Sil    Sib 1403   1.434   2.779  10.682 -0.1034  0.2358  0.2191
    1Sil    Sib 1404   0.983   3.086  10.712  0.2411  0.1015  0.2644
    1Sil    Sib 1405   1.519   3.082  11.099  0.2410  0.3371 -0.2531
    1Sil    Sim 1406   1.274   3.022  10.320  0.0185  0.0611  0.0331
    1Sil    Sib 1407   1.235   3.084  11.213 -0.1665 -0.3103  0.2065
    1Sil    Sib 1408   0.988   3.066  10.411 -0.3713 -0.4188  0.8872
    1Sil    Sib 1409   1.548   3.030  10.811  0.0972 -0.1885 -0.2512
    1Sil    Sib 1410   1.151   2.839  10.771  0.5549  0.1576 -0.6334
    1Sil    Sib 1411   1.679   2.836  11.172 -0.4764  0.0976 -0.2916
    1Sil    Sib 1412   1.446   2.776  10.384 -0.1703 -0.0830 -0.2931
    1Sil    Sib 1413   1.670   2.838  11.472  0.1603  0.2035  0.2040
    1Sil    Sib 1414   1.089   2.842  12.270  0.2697  0.1646  0.1465
    1Sil    Sib 1415   1.379   2.779  11.869  0.3572  0.2573 -0.5020
    1Sil    Sib 1416   0.936   3.079  11.911 -0.0833 -0.1145 -0.0941
    1Sil    Sib 1417   1.481   3.080  12.300 -0.0654  0.1544  0.1944
    1Sil    Sib 1418   1.222   3.018  11.508  0.0114 -0.1909 -0.0387
    1Sil    Sim 1419   1.202   3.083  12.416  0.2698 -0.2492 -0.0235
    1Sil    Sib 1420   0.941   3.088  11.614  0.1696  0.0872  0.0915
    1Sil    Sib 1421   1.482   3.032  12.011 -0.0924  0.0697 -0.3288
    1Sil    Sib 1422   1.100   2.839  11.971 -0.6682 -0.4429  0.2026
    1Sil    Sim 1423   1.626   2.829  12.362  0.0189 -0.4237  0.0352
    1Sil    Sib 1424   1.391   2.777  11.575 -0.0011 -0.7965  0.4877
    1Sil    Sim 1425   1.721   3.314  10.281  0.4488  0.0629 -0.1741
    1Sil    Sib 1426   1.128   3.335  11.081 -0.0760  0.0306 -0.3097
    1Sil    Sib 1427   1.429   3.275  10.680  0.2081  0.0381 -0.0236
    1Sil    Sib 1428   0.978   3.572  10.713 -0.1693  0.0095  0.1415
    1Sil    Sib 1429   1.521   3.570  11.110  0.1036  0.0987  0.1492
    1Sil    Sib 1430   1.277   3.519  10.321  0.3565 -0.1557  0.1253
    1Sil    Sib 1431   1.238   3.581  11.217  0.1822  0.1655 -0.0926
    1Sil    Sib 1432   0.991   3.556  10.408  0.6845  0.4764  0.0535
    1Sil    Sib 1433   1.538   3.525  10.815  0.5515  0.2845 -0.0580
    1Sil    Sib 1434   1.142   3.320  10.781  0.2463  0.0308 -0.1398
    1Sil    Sib 1435   1.680   3.316  11.172  0.0731 -0.0815  0.0851
    1Sil    Sib 1436   1.438   3.273  10.378  0.4707  0.1426  0.1447
    1Sil    Sib 1437   1.665   3.324  11.471 -0.2363  0.2845  0.2039
    1Sil    Sib 1438   1.081   3.331  12.281 -0.3504 -0.1382 -0.5783
    1Sil    Sib 1439   1.380   3.270  11.871 -0.2473 -0.3107 -0.1832
    1Sil    Sib 1440   0.935   3.565  11.915 -1.0698 -0.3783  0.4809
    1Sil    Sib 1441   1.477   3.577  12.294  0.2235 -0.1691 -0.2574
    1Sil    Sib 1442   1.227   3.516  11.511 -0.1445  0.1339  0.5527
    1Sil    Sib 1443   1.195   3.582  12.412 -0.4436 -0.2428  0.4071
    1Sil    Sib 1444   0.951   3.582  11.619  0.0137  0.3582 -0.0084
    1Sil    Sib 1445   1.477   3.530  11.998 -0.0016  0.2460  0.4638
    1Sil    Sib 1446   1.098   3.325  11.973  0.0358 -0.1583  0.0182
    1Sil    Sim 1447   1.634   3.335  12.371 -0.1662 -0.4161 -0.6031
    1Sil    Sib 1448   1.379   3.265  11.572 -0.2000 -0.1015  0.0157
    1Sil    Sim 1449   1.723   3.798  10.279  0.1936 -0.1492  0.2192
    1Sil    Sib 1450   1.131   3.824  11.079 -0.0711 -0.2421  0.2861
    1Sil    Sib 1451   1.421   3.769  10.677  0.0834  0.0760 -0.0738
    1Sil    Sib 1452   0.985   4.069  10.706  0.4070 -0.3961 -0.2894
    1Sil    Sib 1453   1.523   4.067  11.114 -0.0136  0.1255  0.2779
    1Sil    Sim 1454   1.278   4.013  10.303 -0.1211 -0.3880  0.2021
    1Sil    Sib 1455   1.241   4.063  11.213 -0.2385  0.1278  0.4584
    1Sil    Sib 1456   1.004   4.052  10.410  0.2150  0.1608  0.2183
    1Sil    Sib 1457   1.531   4.017  10.821  0.3441  0.1205  0.1790
    1Sil    Sib 1458   1.137   3.813  10.778 -0.4074 -0.2233 -0.0456
    1Sil    Sib 1459   1.689   3.820  11.168 -0.0079  0.3504  0.4420
    1Sil    Sib 1460   1.431   3.764  10.375  0.3782 -0.1362  0.3567
    1Sil    Sib 1461   1.667   3.812  11.466  0.5860 -0.1945  0.0971
    1Sil    Sib 1462   1.078   3.815  12.258  0.1934  0.2773  0.3967
    1Sil    Sib 1463   1.377   3.778  11.867 -0.0076  0.0990 -0.4634
    1Sil    Sib 1464   0.932   4.074  11.910  0.1689  0.3174  0.0194
    1Sil    Sib 1465   1.477   4.063  12.298  0.2561 -0.0302  0.3148
    1Sil    Sib 1466   1.224   4.011  11.508 -0.3086 -0.0182 -0.2833
    1Sil    Sib 1467   1.193   4.055  12.399 -0.2387 -0.1488 -0.2750
    1Sil    Sib 1468   0.940   4.066  11.609 -0.0963  0.1115  0.3669
    1Sil    Sib 1469   1.483   4.019  12.003  0.0930 -0.3473 -0.3697
    1Sil    Sib 1470   1.100   3.818  11.970  0.0610 -0.2023  0.8227
    1Sil    Sib 1471   1.635   3.822  12.354 -0.1251 -0.0833  0.6833
    1Sil    Sib 1472   1.392   3.763  11.565 -0.7921 -0.0664 -0.2095
    1Sil    Sim 1473   1.734   4.297  10.277 -0.1522 -0.1616  0.1670
    1Sil    Sib 1474   1.143   4.310  11.071 -0.4411 -0.1851 -0.0127
    1Sil    Sib 1475   1.422   4.263  10.674  0.2795 -0.1510 -0.1993
    1Sil    Sib 1476   0.990   4.561  10.711  0.1930 -0.0116 -0.6822
    1Sil    Sib 1477   1.515   4.559  11.109 -0.2470 -0.6638  0.7604
    1Sil    Sib 1478   1.281   4.511  10.320 -0.0956  0.4484 -0.9274
    1Sil    Sib 1479   1.237   4.555  11.209  0.0195 -0.0940  0.0431
    1Sil    Sib 1480   0.999   4.550  10.417 -0.0363  0.1787 -0.0879
    1Sil    Sib 1481   1.528   4.505  10.813 -0.1679  0.1059  0.2617
    1Sil    Sib 1482   1.149   4.313  10.771  0.2263 -0.2051 -0.1609
    1Sil    Sib 1483   1.676   4.316  11.175 -0.2456  0.4319 -0.5311
    1Sil    Sib 1484   1.437   4.262  10.373 -0.0308 -0.0587  0.4493
    1Sil    Sib 1485   1.661   4.308  11.471  0.0963 -0.8151  0.0357
    1Sil    Sib 1486   1.084   4.310  12.279  0.1361 -0.0404  0.0342
    1Sil    Sib 1487   1.382   4.265  11.861 -0.5901  0.0242 -0.2914
    1Sil    Sib 1488   0.936   4.566  11.914  0.6201 -0.0837 -0.0170
    1Sil    Sib 1489   1.469   4.553  12.303  0.1040 -0.1165  0.0844
    1Sil    Sib 1490   1.225   4.495  11.509  0.2119 -0.2129  0.2085
    1Sil    Sib 1491   1.191   4.558  12.414  0.1375  0.2251 -0.1363
    1Sil    Sib 1492   0.944   4.564  11.616  0.0344 -0.0429  0.1785
    1Sil    Sib 1493   1.489   4.498  12.000  0.2288  0.1060 -0.5245
    1Sil    Sib 1494   1.096   4.319  11.972 -0.3021  0.3825  0.0395
    1Sil    Sib 1495   1.633   4.304  12.370  0.3445  0.4302 -0.2750
    1Sil    Sib 1496   1.383   4.255  11.572 -0.3802 -0.3739 -0.2253
    1Sil    Sim 1497   1.733   4.799  10.274 -0.4018  0.3095 -0.1871
    1Sil    Sib 1498   1.143   4.801  11.066  0.4751  0.2016 -0.1269
    1Sil    Sib 1499   1.425   4.751  10.677  0.0178  0.0922 -0.0778
    1Sil    Sib 1500   0.979   5.051  10.711  0.1548 -0.0560 -0.1754
    1Sil    Sib 1501   1.519   5.052  11.122  0.2724 -0.4302 -0.3110
    1Sil    Sib 1502   1.277   4.987  10.316 -0.2916  0.5577 -0.1452
    1Sil    Sib 1503   1.243   5.052  11.206 -0.1945  0.3593  0.4288
    1Sil    Sib 1504   0.999   5.037  10.411 -0.0107  0.2608  0.3207
    1Sil    Sib 1505   1.522   5.003  10.820 -0.1973 -0.0529  0.0028
    1Sil    Sib 1506   1.149   4.803  10.764 -0.2157 -0.6826 -0.0004
    1Sil    Sib 1507   1.690   4.803  11.168  0.3876  0.0259 -0.0400
    1Sil    Sib 1508   1.447   4.745  10.378 -0.2845  0.1502 -0.2259
    1Sil    Sib 1509   1.672   4.810  11.469  0.5584  0.2537  0.4110
    1Sil    Sib 1510   1.094   4.816  12.269  0.4572 -0.1179  0.2412
    1Sil    Sib 1511   1.378   4.751  11.874 -0.3498 -0.6774 -0.0975
    1Sil    Sib 1512   0.937   5.058  11.904 -0.4882  0.6473 -0.1544
    1Sil    Sib 1513   1.462   5.058  12.292 -0.1885 -0.1752 -0.1929
    1Sil    Sib 1514   1.221   4.985  11.504 -0.4633 -0.8983  0.0032
    1Sil    Sib 1515   1.189   5.061  12.397 -0.3019 -0.0505  0.2592
    1Sil    Sib 1516   0.947   5.054  11.598 -0.2341 -0.4313  0.0043
    1Sil    Sib 1517   1.478   5.005  12.001  0.2292 -0.5115 -0.4394
    1Sil    Sib 1518   1.105   4.812  11.968 -0.0123 -0.0852 -0.3016
    1Sil    Sim 1519   1.625   4.807  12.365 -0.4165  0.0562 -0.5165
    1Sil    Sib 1520   1.388   4.751  11.571  0.1122  0.3590  0.1029
    1Sil    Sib 1521   1.722   5.299  10.279 -0.1284  0.3371 -0.0787
    1Sil    Sib 1522   1.137   5.291  11.079 -0.6422  0.4471  0.1133
    1Sil    Sib 1523   1.424   5.250  10.674  0.1019  0.0477 -0.2959
    1Sil    Sib 1524   0.990   5.554  10.721  0.1349  0.5978  0.3045
    1Sil    Sib 1525   1.527   5.554  11.113 -0.0726 -0.0228  0.2081
    1Sil    Sim 1526   1.277   5.484  10.304  0.2377 -0.5767 -0.3045
    1Sil    Sib 1527   1.241   5.548  11.212 -0.1625 -0.4925  0.3244
    1Sil    Sib 1528   1.008   5.533  10.425  0.3696  0.0627 -0.2282
    1Sil    Sib 1529   1.533   5.496  10.810 -0.0946  0.3927  0.2113
    1Sil    Sib 1530   1.142   5.295  10.786 -0.3192 -0.1811  0.6343
    1Sil    Sib 1531   1.682   5.300  11.173 -0.3257 -0.0852 -0.1007
    1Sil    Sib 1532   1.436   5.240  10.381  0.4272  0.6031  0.7812
    1Sil    Sib 1533   1.668   5.300  11.470  0.4041 -0.0901 -0.1256
    1Sil    Sib 1534   1.099   5.307  12.252 -0.4406  0.1811 -0.0599
    1Sil    Sib 1535   1.377   5.241  11.855  0.1993  0.6694  0.0208
    1Sil    Sib 1536   0.927   5.543  11.907 -0.0356  0.2864  0.1696
    1Sil    Sib 1537   1.468   5.533  12.305 -0.2347  0.3454 -0.5540
    1Sil    Sib 1538   1.226   5.489  11.512  0.0725 -0.3576 -0.0507
    1Sil    Sib 1539   1.188   5.543  12.398 -0.2100 -0.2725 -0.3031
    1Sil    Sib 1540   0.950   5.552  11.604  0.4203 -0.0694  0.0711
    1Sil    Sib 1541   1.476   5.487  12.005 -0.4119 -0.1145  0.1003
    1Sil    Sib 1542   1.099   5.300  11.958  0.0040  0.0534  0.0859
    1Sil    Sib 1543   1.636   5.293  12.351  0.0339 -0.2127  0.4959
    1Sil    Sib 1544   1.389   5.238  11.557 -0.5026  0.0542  0.6577
    1Sil    Sib 1545   1.725   5.788  10.286  0.1743 -0.1752  0.1865
    1Sil    Sib 1546   1.138   5.802  11.073  0.3225 -0.5108  0.1788
    1Sil    Sib 1547   1.433   5.736  10.669 -0.0578  0.3995 -0.0562
    1Sil    Sib 1548   0.990   2.587  10.721 -0.0990  0.4132  0.2522
    1Sil    Sib 1549   1.525   2.592  11.111 -0.5284 -0.2976  0.0647
    1Sil    Sim 1550   1.269   2.530  10.313 -0.1481 -0.4400  0.6161
    1Sil    Sib 1551   1.242   2.592  11.222 -0.0357  0.0007  0.2440
    1Sil    Sib 1552   0.994   2.577  10.422 -0.5482  0.3947 -0.2781
    1Sil    Sib 1553   1.536   2.529  10.818  0.0908 -0.0127 -0.5697
    1Sil    Sib 1554   1.160   5.799  10.777 -0.3745  0.2998 -0.2070
    1Sil    Sib 1555   1.696   5.799  11.165  0.1637 -0.4863  0.1641
    1Sil    Sib 1556   1.441   5.734  10.368 -0.5355 -0.0704  0.5460
    1Sil    Sib 1557   1.670   5.786  11.460 -0.1340  0.1616 -0.4257
    1Sil    Sib 1558   1.087   5.799  12.274 -0.1832 -0.3381  0.2415
    1Sil    Sib 1559   1.379   5.730  11.874 -0.0408  0.0378 -0.2477
    1Sil    Sib 1560   0.935   2.591  11.906 -0.6583 -0.0225 -0.6382
    1Sil    Sib 1561   1.463   2.584  12.306 -0.2072  0.0543 -0.1395
    1Sil    Sib 1562   1.234   2.533  11.514 -0.3347 -0.0993  0.1928
    1Sil    Sim 1563   1.188   2.591  12.420  0.3871  0.2099 -0.5148
    1Sil    Sib 1564   0.951   2.595  11.603  0.0466  0.1429 -0.1847
    1Sil    Sib 1565   1.484   2.530  12.013  0.1716  0.4800 -0.0903
    1Sil    Sib 1566   1.098   5.789  11.970 -0.4310 -0.2405  0.1820
    1Sil    Sib 1567   1.626   5.788  12.356 -0.0956 -0.0813 -0.2864
    1Sil    Sib 1568   1.390   5.735  11.573  0.2929 -0.2787  0.3021
    1Sil    Sib 1569   2.553   2.830  10.281  0.1442  0.2944 -0.0691
    1Sil    Sib 1570   1.961   2.832  11.089 -0.4363 -0.1606  0.1651
    1Sil    Sib 1571   2.273   2.780  10.671 -0.3409  0.0803  0.1113
    1Sil    Sib 1572   1.826   3.076  10.712  0.0899 -0.4078  0.4161
    1Sil    Sib 1573   2.345   3.080  11.121  0.1011 -0.2983 -0.0058
    1Sil    Sim 1574   2.117   3.014  10.296  0.2153  0.6340 -0.2205
    1Sil    Sib 1575   2.068   3.082  11.219 -0.0197 -0.0422 -0.4384
    1Sil    Sib 1576   1.834   3.072  10.410 -0.6593 -0.2080 -0.3753
    1Sil    Sib 1577   2.362   3.026  10.825  0.3950 -0.1710 -0.2522
    1Sil    Sib 1578   1.992   2.832  10.782  0.0948 -0.5884 -0.2036
    1Sil    Sib 1579   2.515   2.833  11.182 -0.5289 -0.2633 -0.0872
    1Sil    Sib 1580   2.275   2.766  10.371 -0.0377 -0.0083 -0.0204
    1Sil    Sib 1581   2.503   2.834  11.479 -0.2938 -0.3147 -0.0023
    1Sil    Sib 1582   1.920   2.834  12.267  0.5099 -0.0597  0.2693
    1Sil    Sib 1583   2.215   2.773  11.877 -0.0092 -0.0091  0.7327
    1Sil    Sib 1584   1.765   3.079  11.918  0.0020  0.2064 -0.3060
    1Sil    Sib 1585   2.303   3.083  12.306  0.2103  0.1908 -0.1321
    1Sil    Sib 1586   2.051   3.023  11.513  0.1214 -0.2360 -0.1777
    1Sil    Sib 1587   2.016   3.085  12.408 -0.2463 -0.0979 -0.5051
    1Sil    Sib 1588   1.777   3.081  11.613  0.1151 -0.5231 -0.1888
    1Sil    Sib 1589   2.319   3.018  12.017  0.2239  0.3492 -0.0616
    1Sil    Sib 1590   1.933   2.833  11.969  0.2627  0.3864  0.1922
    1Sil    Sib 1591   2.459   2.827  12.372 -0.3329 -0.5225 -0.0515
    1Sil    Sib 1592   2.219   2.780  11.581  0.0395 -0.5575  0.1670
    1Sil    Sib 1593   2.559   3.318  10.287  0.1389 -0.2272 -0.2941
    1Sil    Sib 1594   1.966   3.325  11.075 -0.0096  0.0182  0.0958
    1Sil    Sib 1595   2.264   3.271  10.677  0.1086  0.1648 -0.2431
    1Sil    Sib 1596   1.820   3.568  10.723 -0.1882  0.1527 -0.1956
    1Sil    Sib 1597   2.358   3.572  11.117  0.3836 -0.2276  0.0121
    1Sil    Sib 1598   2.111   3.496  10.328 -0.0645 -0.5474 -0.0044
    1Sil    Sib 1599   2.080   3.568  11.198  0.2865 -0.3612 -0.1374
    1Sil    Sib 1600   1.827   3.551  10.425 -0.0530 -0.1956  0.6897
    1Sil    Sib 1601   2.364   3.516  10.819 -0.1705 -0.0958  0.3026
    1Sil    Sib 1602   1.985   3.321  10.775  0.5365  0.1607 -0.2791
    1Sil    Sib 1603   2.519   3.330  11.163  0.2562  0.5828  0.0123
    1Sil    Sib 1604   2.280   3.265  10.375 -0.0611  0.1693 -0.1937
    1Sil    Sib 1605   2.504   3.320  11.472  0.1416  0.4764  0.0527
    1Sil    Sib 1606   1.912   3.334  12.274 -0.2223 -0.1507 -0.3477
    1Sil    Sib 1607   2.208   3.264  11.873  0.1297 -0.2039 -0.0768
    1Sil    Sib 1608   1.762   3.569  11.897  0.4946 -0.2160 -0.5614
    1Sil    Sib 1609   2.306   3.573  12.306  0.1621  0.2809  0.0180
    1Sil    Sib 1610   2.066   3.511  11.498  0.1195  0.4091  1.0323
    1Sil    Sim 1611   2.021   3.575  12.416  0.2825 -0.2121 -0.0874
    1Sil    Sib 1612   1.780   3.561  11.598  0.5619  0.5086  0.2104
    1Sil    Sib 1613   2.318   3.516  12.016  0.0732  0.0522 -0.0580
    1Sil    Sib 1614   1.932   3.334  11.973 -0.5556 -0.1202  0.2043
    1Sil    Sib 1615   2.469   3.321  12.369  0.2609 -0.4615  0.2199
    1Sil    Sib 1616   2.223   3.271  11.571  0.0913  0.2273 -0.4669
    1Sil    Sim 1617   2.558   3.807  10.276  0.0766  0.4421  0.2388
    1Sil    Sib 1618   1.983   3.819  11.071 -0.3293 -0.1525 -0.4593
    1Sil    Sib 1619   2.273   3.768  10.670 -0.1333 -0.0627 -0.7078
    1Sil    Sib 1620   1.814   4.056  10.718  0.2878  0.1043 -0.4532
    1Sil    Sib 1621   2.353   4.064  11.113  0.1551  0.3653 -0.1262
    1Sil    Sim 1622   2.107   3.996  10.319 -0.4859 -0.2502  0.5111
    1Sil    Sib 1623   2.075   4.066  11.220 -0.2209  0.7257 -0.2491
    1Sil    Sib 1624   1.829   4.046  10.419  0.0839  0.4732  0.1451
    1Sil    Sib 1625   2.369   4.014  10.811  0.2791  0.2761  0.5150
    1Sil    Sib 1626   1.993   3.816  10.777 -0.2117  0.3961  0.3536
    1Sil    Sib 1627   2.512   3.815  11.171 -0.4692 -0.0995 -0.3536
    1Sil    Sib 1628   2.276   3.741  10.375  0.2738  0.4384 -0.0241
    1Sil    Sib 1629   2.503   3.821  11.465  0.4426  0.2581 -0.2890
    1Sil    Sib 1630   1.909   3.821  12.268 -0.0188 -0.1312  0.1188
    1Sil    Sib 1631   2.207   3.757  11.885 -0.4799 -0.1303  0.4535
    1Sil    Sib 1632   1.766   4.063  11.902 -0.4401 -0.0280  0.3642
    1Sil    Sib 1633   2.300   4.069  12.303  0.4817 -0.0671 -0.0228
    1Sil    Sib 1634   2.051   4.010  11.517  0.4919 -0.0783  0.3094
    1Sil    Sim 1635   2.016   4.071  12.401 -0.2543 -0.0392 -0.5963
    1Sil    Sib 1636   1.769   4.060  11.604 -0.0656 -0.1424 -0.2690
    1Sil    Sib 1637   2.316   4.008  12.012  0.5658 -0.1681  0.1308
    1Sil    Sib 1638   1.925   3.817  11.977  0.2573  0.0242  0.0558
    1Sil    Sib 1639   2.453   3.822  12.367 -0.2210 -0.2548  0.2583
    1Sil    Sib 1640   2.223   3.764  11.569  0.2648 -0.1143 -0.2802
    1Sil    Sim 1641   2.552   4.310  10.269  0.1877 -0.3649 -0.2437
    1Sil    Sib 1642   1.967   4.308  11.082  0.4536  0.7634 -0.3194
    1Sil    Sib 1643   2.261   4.258  10.681 -0.1256 -0.0047  0.2934
    1Sil    Sib 1644   1.816   4.552  10.718  0.2554 -0.0326 -0.3646
    1Sil    Sib 1645   2.356   4.550  11.111 -0.0785 -0.0968 -0.1185
    1Sil    Sim 1646   2.106   4.496  10.301 -0.4999 -0.1104 -0.6113
    1Sil    Sib 1647   2.073   4.556  11.213 -0.0425  0.2057 -0.2764
    1Sil    Sib 1648   1.839   4.544  10.420  0.3294 -0.0890  0.6849
    1Sil    Sib 1649   2.370   4.499  10.815  0.6669  0.4980 -0.5057
    1Sil    Sib 1650   1.979   4.301  10.782 -0.0487 -0.0347 -0.4641
    1Sil    Sib 1651   2.526   4.304  11.175  0.0480 -0.2976  0.2779
    1Sil    Sib 1652   2.270   4.255  10.376 -0.0411  0.2052 -0.3450
    1Sil    Sib 1653   2.502   4.303  11.472 -0.3483 -0.2434 -0.5180
    1Sil    Sib 1654   1.912   4.322  12.260  0.2724 -0.0911  0.0387
    1Sil    Sib 1655   2.209   4.255  11.868 -0.0801  0.0877  0.0971
    1Sil    Sib 1656   1.761   4.566  11.904 -0.0285 -0.3389 -0.2619
    1Sil    Sib 1657   2.310   4.562  12.299  0.2127  0.4302 -0.4484
    1Sil    Sib 1658   2.050   4.506  11.509 -0.0014 -0.3353  0.3744
    1Sil    Sib 1659   2.029   4.554  12.398  0.3291  0.2504  0.1518
    1Sil    Sib 1660   1.764   4.561  11.607 -0.4172 -0.1620  0.1688
    1Sil    Sib 1661   2.304   4.509  12.005  0.0345 -0.6416 -0.0948
    1Sil    Sib 1662   1.932   4.314  11.956  0.5097  0.1840  0.0508
    1Sil    Sib 1663   2.459   4.312  12.366  0.4674  0.1961 -0.1406
    1Sil    Sib 1664   2.215   4.259  11.569 -0.1361 -0.2465  0.4110
    1Sil    Sim 1665   2.555   4.807  10.279  0.2402 -0.0226  0.2111
    1Sil    Sib 1666   1.967   4.799  11.068 -0.3780  0.2210  0.8660
    1Sil    Sib 1667   2.261   4.748  10.670 -0.0144  0.2672  0.3078
    1Sil    Sib 1668   1.809   5.050  10.722 -0.5833 -0.0485  0.3606
    1Sil    Sib 1669   2.355   5.045  11.110 -0.1921 -0.1182 -0.1041
    1Sil    Sib 1670   2.112   4.990  10.305  0.1298  0.4870  0.2540
    1Sil    Sib 1671   2.067   5.048  11.210 -0.5152  0.0677 -0.4517
    1Sil    Sib 1672   1.833   5.054  10.410 -0.9449 -0.1831  0.4067
    1Sil    Sib 1673   2.363   4.995  10.815 -0.0658  0.0836  0.4452
    1Sil    Sib 1674   1.981   4.807  10.772  0.2476  0.0790  0.2378
    1Sil    Sib 1675   2.521   4.797  11.165 -0.1211 -0.0902 -0.1131
    1Sil    Sib 1676   2.268   4.746  10.369 -0.0724  0.4235 -0.4471
    1Sil    Sib 1677   2.497   4.808  11.471  0.1388  0.4861  0.0103
    1Sil    Sib 1678   1.909   4.803  12.262 -0.2913 -0.1845 -0.3181
    1Sil    Sib 1679   2.198   4.758  11.860 -0.1627  0.7433  0.1537
    1Sil    Sib 1680   1.764   5.054  11.905  0.4796  0.1574 -0.1839
    1Sil    Sib 1681   2.296   5.054  12.294 -0.3528  0.1297 -0.2098
    1Sil    Sib 1682   2.051   5.002  11.508 -0.2279  0.3671 -0.3112
    1Sil    Sib 1683   2.018   5.050  12.399  0.5759  0.2030 -0.5785
    1Sil    Sib 1684   1.774   5.053  11.606 -0.0722  0.0455 -0.4051
    1Sil    Sib 1685   2.315   5.004  11.995  0.5067  0.2888  0.1420
    1Sil    Sib 1686   1.920   4.816  11.960 -0.2893 -0.0808 -0.6751
    1Sil    Sim 1687   2.465   4.817  12.377 -0.2185  0.2203 -0.0701
    1Sil    Sib 1688   2.215   4.758  11.557  0.0760  0.2456  0.1595
    1Sil    Sib 1689   2.557   5.301  10.276  0.0676  0.1515 -0.2385
    1Sil    Sib 1690   1.968   5.294  11.081  0.1207  0.0921  0.4866
    1Sil    Sib 1691   2.260   5.233  10.669  0.0884 -0.2915 -0.1774
    1Sil    Sib 1692   1.814   5.548  10.716 -0.1665 -0.0603 -0.0713
    1Sil    Sib 1693   2.351   5.541  11.112  0.5700  0.6078  0.3006
    1Sil    Sib 1694   2.118   5.490  10.326 -0.1573  0.1928  0.2834
    1Sil    Sib 1695   2.066   5.547  11.215  0.3869  0.0403  0.7141
    1Sil    Sib 1696   1.829   5.543  10.420  0.0785  0.0471 -0.1078
    1Sil    Sib 1697   2.365   5.483  10.819 -0.4427 -0.3175 -0.0519
    1Sil    Sib 1698   1.979   5.300  10.776  0.2012  0.1546 -0.5418
    1Sil    Sib 1699   2.517   5.300  11.179  0.1264 -0.0407 -0.3660
    1Sil    Sib 1700   2.282   5.238  10.368 -0.2174 -0.0166  0.0982
    1Sil    Sib 1701   2.505   5.306  11.479 -0.4077  0.4580 -0.5875
    1Sil    Sib 1702   1.912   5.295  12.252  0.2882  0.2002  0.4137
    1Sil    Sib 1703   2.193   5.245  11.857  0.1411  0.1511  0.2013
    1Sil    Sib 1704   1.753   5.556  11.907 -0.0702  0.1555  0.0039
    1Sil    Sib 1705   2.305   5.545  12.307  0.0854 -0.0315  0.2235
    1Sil    Sib 1706   2.063   5.494  11.511 -0.2268 -0.6588 -0.0810
    1Sil    Sim 1707   2.007   5.543  12.402 -0.2301  0.0506  0.1314
    1Sil    Sib 1708   1.773   5.543  11.598  0.4359 -0.4316 -0.3942
    1Sil    Sib 1709   2.311   5.491  12.005  0.5712 -0.4396 -0.1553
    1Sil    Sib 1710   1.926   5.304  11.964 -0.2394 -0.2411 -0.0465
    1Sil    Sib 1711   2.467   5.299  12.364 -0.3450 -0.2084  0.2850
    1Sil    Sib 1712   2.215   5.244  11.567 -0.3210  0.1161  0.4627
    1Sil    Sib 1713   2.559   5.777  10.276  0.5897 -0.3629 -0.2770
    1Sil    Sib 1714   1.969   5.789  11.067  0.1257  0.4669 -0.1006
    1Sil    Sib 1715   2.268   5.739  10.681  0.1869 -0.2663 -0.1594
    1Sil    Sib 1716   1.817   2.586  10.727  0.1468 -0.0029  0.2385
    1Sil    Sib 1717   2.357   2.585  11.112 -0.0651 -0.4007 -0.1969
    1Sil    Sib 1718   2.110   2.516  10.326  0.5004 -0.0338 -0.1335
    1Sil    Sib 1719   2.077   2.583  11.210 -0.3207 -0.1858 -0.1867
    1Sil    Sib 1720   1.833   2.579  10.425 -0.4081 -0.0055  0.0074
    1Sil    Sib 1721   2.371   2.541  10.812  0.2002 -0.2193  0.4084
    1Sil    Sib 1722   1.980   5.786  10.767  0.2460  0.3184  0.2760
    1Sil    Sib 1723   2.515   5.789  11.167 -0.6792  0.2240  0.2873
    1Sil    Sib 1724   2.283   5.734  10.388 -0.0609  0.3398  0.0961
    1Sil    Sib 1725   2.508   5.796  11.466 -0.1025  0.0955  0.5836
    1Sil    Sib 1726   1.907   5.799  12.263  0.0403  0.1144  0.4555
    1Sil    Sib 1727   2.206   5.744  11.870 -0.6878  0.2220  0.4710
    1Sil    Sib 1728   1.759   2.589  11.915 -0.0772 -0.0694 -0.3978
    1Sil    Sib 1729   2.304   2.583  12.306  0.2322  0.2750  0.0237
    1Sil    Sib 1730   2.049   2.540  11.502  0.1258 -0.1949  0.3545
    1Sil    Sib 1731   2.015   2.590  12.401  0.1147  0.0159 -0.1574
    1Sil    Sib 1732   1.766   2.579  11.608  0.1859 -0.0343 -0.4527
    1Sil    Sib 1733   2.323   2.531  12.012 -0.0170 -0.3292 -0.1425
    1Sil    Sib 1734   1.930   5.802  11.967 -0.0356 -0.1539  0.3031
    1Sil    Sib 1735   2.458   5.793  12.371  0.0652 -0.6831 -0.1769
    1Sil    Sib 1736   2.222   5.741  11.572  0.0818  0.2738  0.3779
    1Sil    Sib 1737   3.386   2.833  10.274 -0.2825 -0.1292 -0.0130
    1Sil    Sib 1738   2.797   2.828  11.083 -0.1556  0.4597 -0.0088
    1Sil    Sib 1739   3.084   2.790  10.673  0.1281 -0.8086 -0.7352
    1Sil    Sib 1740   2.643   3.077  10.744  0.3604  0.0970 -0.2918
    1Sil    Sib 1741   3.183   3.088  11.100  0.7988  0.5787  0.2420
    1Sil    Sib 1742   2.934   3.032  10.323  0.1717  0.3348 -0.1622
    1Sil    Sib 1743   2.900   3.081  11.211  0.1959  0.2828  0.5324
    1Sil    Sib 1744   2.651   3.070  10.440  0.3552  0.0375  0.1614
    1Sil    Sib 1745   3.187   3.034  10.802 -0.1926  0.0444 -0.0631
    1Sil    Sib 1746   2.809   2.831  10.788  0.0288  0.1798 -0.2096
    1Sil    Sib 1747   3.347   2.842  11.171  0.0249  0.4168  0.0794
    1Sil    Sib 1748   3.104   2.787  10.369 -0.0840  0.5468 -0.2770
    1Sil    Sib 1749   3.333   2.839  11.475  0.2542  0.5256  0.2570
    1Sil    Sib 1750   2.748   2.827  12.278  0.6668 -0.0484 -0.4183
    1Sil    Sib 1751   3.042   2.774  11.869 -0.2284  0.1861 -0.0004
    1Sil    Sib 1752   2.602   3.073  11.916  0.3865  0.0981 -0.1230
    1Sil    Sib 1753   3.133   3.075  12.293 -0.2736  0.1971 -0.0230
    1Sil    Sib 1754   2.894   3.033  11.511  0.2881 -0.7838  0.0068
    1Sil    Sib 1755   2.862   3.077  12.399  0.2114 -0.0914 -0.3643
    1Sil    Sib 1756   2.615   3.085  11.616 -0.5552  0.5014 -0.2540
    1Sil    Sib 1757   3.149   3.014  12.003 -0.0745 -0.4948 -0.0684
    1Sil    Sib 1758   2.761   2.822  11.980 -0.3004 -0.1123  0.0325
    1Sil    Sib 1759   3.298   2.826  12.354 -0.1441  0.1429  0.3018
    1Sil    Sib 1760   3.052   2.789  11.568  0.0985  0.0118  0.2765
    1Sil    Sib 1761   3.386   3.319  10.273  0.0619 -0.1684 -0.1652
    1Sil    Sib 1762   2.802   3.324  11.062  0.1459 -0.0420 -0.4767
    1Sil    Sib 1763   3.090   3.278  10.676 -0.2788 -0.0093  0.1086
    1Sil    Sib 1764   2.652   3.570  10.711 -0.3499 -0.6393  0.4148
    1Sil    Sib 1765   3.182   3.568  11.108  0.3558 -0.2231  0.3864
    1Sil    Sim 1766   2.948   3.523  10.308  0.0425  0.2728 -0.3336
    1Sil    Sib 1767   2.903   3.569  11.209  0.0668 -0.2563 -0.4669
    1Sil    Sib 1768   2.669   3.567  10.416  0.0190  0.0965  0.2500
    1Sil    Sib 1769   3.202   3.523  10.806 -0.1749 -0.0810 -0.7749
    1Sil    Sib 1770   2.820   3.322  10.776 -0.1719 -0.0531 -0.5067
    1Sil    Sib 1771   3.345   3.328  11.176  0.3549 -0.1264  0.2526
    1Sil    Sib 1772   3.102   3.274  10.380  0.3465 -0.2242 -0.0481
    1Sil    Sib 1773   3.338   3.330  11.472 -0.5150  0.3087 -0.0946
    1Sil    Sib 1774   2.756   3.330  12.279 -0.2003  0.6060  0.6475
    1Sil    Sib 1775   3.043   3.271  11.875  0.3619 -0.3239 -0.2338
    1Sil    Sib 1776   2.596   3.565  11.908  0.4482 -0.3145  0.0222
    1Sil    Sib 1777   3.138   3.577  12.302 -0.1114 -0.1663 -0.0475
    1Sil    Sib 1778   2.890   3.513  11.511 -0.2333  0.0941 -0.2077
    1Sil    Sim 1779   2.859   3.571  12.420  0.0628 -0.1449 -0.2215
    1Sil    Sib 1780   2.606   3.570  11.604  0.0724 -0.2686 -0.1775
    1Sil    Sib 1781   3.148   3.519  12.006 -0.4952  0.0663 -0.3127
    1Sil    Sib 1782   2.762   3.322  11.973 -0.2455  0.0808 -0.1405
    1Sil    Sib 1783   3.283   3.319  12.360 -0.0405 -0.6221 -0.4566
    1Sil    Sib 1784   3.058   3.277  11.578  0.1210  0.3047 -0.1398
    1Sil    Sim 1785   3.379   3.816  10.267 -0.1199  0.3667 -0.6070
    1Sil    Sib 1786   2.795   3.823  11.075 -0.0412  0.1292 -0.1158
    1Sil    Sib 1787   3.096   3.773  10.673 -0.6191 -0.3364 -0.1445
    1Sil    Sib 1788   2.653   4.071  10.713  0.2787 -0.1254  0.3062
    1Sil    Sib 1789   3.185   4.061  11.099  0.4450  0.5501 -0.4664
    1Sil    Sim 1790   2.944   4.005  10.293  0.1595 -0.2673  0.2720
    1Sil    Sib 1791   2.911   4.064  11.198  0.0560 -0.0714 -0.5392
    1Sil    Sib 1792   2.660   4.059  10.408 -0.1216 -0.5437  0.0783
    1Sil    Sib 1793   3.209   4.005  10.812  0.1832 -0.4327 -0.0188
    1Sil    Sib 1794   2.819   3.821  10.773 -0.2376  0.2456  0.0884
    1Sil    Sib 1795   3.348   3.826  11.168 -0.0162  0.0130  0.0299
    1Sil    Sib 1796   3.103   3.768  10.369 -0.3410 -0.3284 -0.1964
    1Sil    Sib 1797   3.325   3.821  11.467  0.3142 -0.0916 -0.3591
    1Sil    Sib 1798   2.744   3.820  12.285 -0.3853  0.0001  0.0039
    1Sil    Sib 1799   3.040   3.765  11.870  0.1940  0.3438 -0.3301
    1Sil    Sib 1800   2.600   4.055  11.913 -0.1167  0.4030 -0.6332
    1Sil    Sib 1801   3.131   4.069  12.293 -0.0908  0.0478 -0.2025
    1Sil    Sib 1802   2.893   4.017  11.499 -0.1245 -0.1258  0.0952
    1Sil    Sim 1803   2.854   4.067  12.416 -0.4906  0.0842  0.2100
    1Sil    Sib 1804   2.612   4.063  11.604 -0.2905  0.1538 -0.0342
    1Sil    Sib 1805   3.148   4.017  11.999 -0.2817  0.0583  0.2384
    1Sil    Sib 1806   2.756   3.814  11.986 -0.1083 -0.1380 -0.2864
    1Sil    Sim 1807   3.296   3.823  12.360 -0.6549 -0.2210 -0.5385
    1Sil    Sib 1808   3.047   3.767  11.567 -0.2011 -0.0525  0.4767
    1Sil    Sib 1809   3.371   4.310  10.285 -0.2497  0.0570 -0.3918
    1Sil    Sib 1810   2.806   4.314  11.076  0.1210 -0.4653  0.4811
    1Sil    Sib 1811   3.097   4.244  10.677 -0.5901 -0.4260 -0.3031
    1Sil    Sib 1812   2.651   4.560  10.717  0.4647 -0.2044 -0.0000
    1Sil    Sib 1813   3.193   4.548  11.116 -0.2031 -0.3320 -0.6642
    1Sil    Sib 1814   2.931   4.499  10.321 -0.0918  0.2469 -0.5888
    1Sil    Sib 1815   2.910   4.562  11.211  0.5170  0.3373  0.0260
    1Sil    Sib 1816   2.651   4.559  10.413 -0.1293 -0.0921  0.0130
    1Sil    Sib 1817   3.198   4.502  10.821  0.2048  0.3261 -0.1094
    1Sil    Sib 1818   2.815   4.313  10.778  0.2986  0.0609 -0.0365
    1Sil    Sib 1819   3.354   4.304  11.170 -0.0786 -0.4915 -0.6201
    1Sil    Sib 1820   3.094   4.251  10.383  0.0125  0.0340 -0.0495
    1Sil    Sib 1821   3.323   4.309  11.473  0.0259 -0.0843  0.0261
    1Sil    Sib 1822   2.740   4.312  12.274 -0.4226  0.1684 -0.0752
    1Sil    Sib 1823   3.039   4.266  11.866  0.2933 -0.2742 -0.1663
    1Sil    Sib 1824   2.583   4.552  11.901 -0.0995  0.2020 -0.4135
    1Sil    Sib 1825   3.136   4.566  12.303  0.2258  0.3494  0.6612
    1Sil    Sib 1826   2.883   4.508  11.507  0.0536 -0.0838  0.1637
    1Sil    Sim 1827   2.853   4.560  12.403  0.2169 -0.3182 -0.2073
    1Sil    Sib 1828   2.599   4.558  11.603  0.0683  0.1747  0.0724
    1Sil    Sib 1829   3.147   4.513  12.007  0.1199  0.1756 -0.4096
    1Sil    Sib 1830   2.759   4.312  11.967  0.2906  0.4168 -0.0159
    1Sil    Sim 1831   3.295   4.312  12.350  0.1424 -0.0556 -0.2714
    1Sil    Sib 1832   3.050   4.256  11.568  0.7417  0.2007 -0.3566
    1Sil    Sib 1833   3.394   4.802  10.283  0.4261  0.1642 -0.5927
    1Sil    Sib 1834   2.810   4.809  11.069 -0.8337 -0.4202 -0.0105
    1Sil    Sib 1835   3.091   4.752  10.674  0.0283 -0.2842  0.2603
    1Sil    Sib 1836   2.645   5.062  10.723  0.1270 -0.3859  0.1161
    1Sil    Sib 1837   3.200   5.045  11.118  0.0993  0.0674  0.2791
    1Sil    Sim 1838   2.950   4.998  10.306  0.3057 -0.1976  0.0649
    1Sil    Sib 1839   2.914   5.052  11.206  0.2673  0.1785 -0.5038
    1Sil    Sib 1840   2.667   5.055  10.418  0.0130 -0.4262 -0.4786
    1Sil    Sib 1841   3.197   5.008  10.812 -0.3990 -0.6210 -0.0421
    1Sil    Sib 1842   2.813   4.805  10.776  0.2536 -0.2375 -0.2353
    1Sil    Sib 1843   3.353   4.802  11.181  0.2532  0.5149  0.2123
    1Sil    Sib 1844   3.106   4.741  10.371  0.0265 -0.3327 -0.0346
    1Sil    Sib 1845   3.343   4.810  11.480 -0.1768 -0.0610 -0.5393
    1Sil    Sib 1846   2.747   4.805  12.268 -0.2261 -0.2533 -0.4819
    1Sil    Sib 1847   3.033   4.753  11.868 -0.4417  0.2288  0.0076
    1Sil    Sib 1848   2.591   5.050  11.903  0.3111 -0.3847 -0.0535
    1Sil    Sib 1849   3.137   5.053  12.305 -0.4812  0.1697  0.3052
    1Sil    Sib 1850   2.893   5.001  11.508 -0.1067  0.2056 -0.6227
    1Sil    Sib 1851   2.857   5.054  12.407 -0.1190  0.1872 -0.0046
    1Sil    Sib 1852   2.610   5.057  11.605  0.1399 -0.2673  0.0035
    1Sil    Sib 1853   3.147   4.996  12.013  0.2228  0.2741  0.1445
    1Sil    Sib 1854   2.755   4.800  11.962  0.2069 -0.2419 -0.1591
    1Sil    Sib 1855   3.307   4.808  12.363 -0.0716 -0.3317 -0.3269
    1Sil    Sib 1856   3.051   4.759  11.569 -0.3710  0.2982  0.0588
    1Sil    Sim 1857   3.397   5.292  10.272 -0.0522  0.1073  0.2268
    1Sil    Sib 1858   2.800   5.296  11.077  0.6002 -0.2182 -0.0494
    1Sil    Sib 1859   3.102   5.259  10.676 -0.1687  0.2567  0.1868
    1Sil    Sib 1860   2.640   5.544  10.722 -0.4658 -0.0598 -0.1503
    1Sil    Sib 1861   3.182   5.538  11.113 -0.3717 -0.0688  0.4810
    1Sil    Sib 1862   2.947   5.487  10.324 -0.3484  0.0898  0.2279
    1Sil    Sib 1863   2.907   5.550  11.221  0.1077 -0.3317  0.7088
    1Sil    Sib 1864   2.667   5.540  10.421 -0.3715  0.3844 -0.2718
    1Sil    Sib 1865   3.191   5.498  10.819  0.1480 -0.1732 -0.0643
    1Sil    Sib 1866   2.815   5.310  10.779 -0.0800 -0.4725  0.3693
    1Sil    Sib 1867   3.343   5.296  11.173  0.2703  0.3186  0.1377
    1Sil    Sib 1868   3.118   5.238  10.375  0.2892 -0.0064 -0.1970
    1Sil    Sib 1869   3.338   5.289  11.468 -0.0280 -0.4835 -0.3377
    1Sil    Sib 1870   2.752   5.304  12.269  0.3949 -0.0502 -0.1139
    1Sil    Sib 1871   3.043   5.246  11.872 -0.3260 -0.0332  0.1162
    1Sil    Sib 1872   2.590   5.541  11.909  0.0336 -0.1586  0.0358
    1Sil    Sib 1873   3.133   5.546  12.308  0.0322 -0.2313 -0.2714
    1Sil    Sib 1874   2.895   5.499  11.520  0.3824  0.0963  0.1458
    1Sil    Sim 1875   2.843   5.550  12.412  0.1617 -0.3386  0.4580
    1Sil    Sib 1876   2.611   5.550  11.612 -0.0527  0.2609  0.0712
    1Sil    Sib 1877   3.155   5.493  12.006 -0.2011  0.3680  0.3385
    1Sil    Sib 1878   2.748   5.297  11.963  0.6222 -0.4219 -0.1183
    1Sil    Sib 1879   3.298   5.298  12.380  0.1613  0.1274  0.5098
    1Sil    Sib 1880   3.059   5.247  11.573  0.1885 -0.1503 -0.0104
    1Sil    Sim 1881   3.401   5.786  10.276  0.1614 -0.2180  0.3048
    1Sil    Sib 1882   2.798   5.784  11.068  0.3796 -0.1134 -0.0540
    1Sil    Sib 1883   3.082   5.743  10.671 -0.0787  0.1377 -0.2729
    1Sil    Sib 1884   2.649   2.585  10.706 -0.1858  0.1248  0.2211
    1Sil    Sib 1885   3.188   2.583  11.101 -0.3243 -0.4689 -0.3712
    1Sil    Sim 1886   2.950   2.535  10.319 -0.0984  0.1869  0.3246
    1Sil    Sib 1887   2.905   2.580  11.212  0.5532  0.1898  0.1342
    1Sil    Sib 1888   2.663   2.572  10.417 -0.2459  0.1031  0.4066
    1Sil    Sib 1889   3.184   2.535  10.807 -0.3218 -0.1089  0.1198
    1Sil    Sib 1890   2.803   5.789  10.769  0.4759 -0.2969 -0.1116
    1Sil    Sib 1891   3.348   5.787  11.171 -0.0174  0.6106 -0.0158
    1Sil    Sib 1892   3.116   5.737  10.376 -0.0688  0.0968 -0.4576
    1Sil    Sib 1893   3.335   5.792  11.470 -0.4401 -0.0477  0.0552
    1Sil    Sib 1894   2.746   5.794  12.282 -0.0511  0.1653 -0.2376
    1Sil    Sib 1895   3.040   5.740  11.871 -0.4497 -0.1915 -0.3173
    1Sil    Sib 1896   2.598   2.577  11.911  0.2815 -0.3935  0.2998
    1Sil    Sib 1897   3.143   2.577  12.295  0.3844 -0.0412 -0.0421
    1Sil    Sib 1898   2.893   2.540  11.510  0.0555 -0.3842 -0.2674
    1Sil    Sim 1899   2.864   2.588  12.417  0.2581 -0.3480 -0.7232
    1Sil    Sib 1900   2.605   2.584  11.610  0.1773 -0.1393  0.1740
    1Sil    Sib 1901   3.148   2.535  11.998 -0.3178 -0.1777  0.1422
    1Sil    Sib 1902   2.760   5.788  11.980  0.0284  0.4555  0.1072
    1Sil    Sim 1903   3.292   5.790  12.373  0.1469  0.2218  0.0250
    1Sil    Sib 1904   3.053   5.744  11.571 -0.2237 -0.1206 -0.6367
    1Sil    Sib 1905   0.892   2.823  10.284  0.3727  0.3369  0.1146
    1Sil    Sib 1906   3.631   2.832  11.074 -0.4291 -0.1637 -0.0104
    1Sil    Sib 1907   0.587   2.777  10.670 -0.1953  0.4654  0.5357
    1Sil    Sib 1908   3.479   3.077  10.721  0.0935 -0.2232 -0.6563
    1Sil    Sib 1909   4.015   3.086  11.103 -0.3637 -0.1696  0.6236
    1Sil    Sim 1910   3.771   3.014  10.309 -0.1574 -0.0042  0.0227
    1Sil    Sib 1911   3.736   3.069  11.209  0.0167  0.5225 -0.0925
    1Sil    Sib 1912   3.498   3.078  10.419 -0.3214  0.0256  0.1601
    1Sil    Sib 1913   0.699   3.022  10.805  0.2301  0.2957 -0.1444
    1Sil    Sib 1914   3.637   2.829  10.781  0.5153  0.1176 -0.4590
    1Sil    Sib 1915   0.852   2.845  11.164 -0.0988  0.0512  0.3658
    1Sil    Sib 1916   0.610   2.770  10.371 -0.1360 -0.3005  0.4023
    1Sil    Sib 1917   0.842   2.840  11.471  0.4660 -0.0229  0.2814
    1Sil    Sib 1918   3.581   2.838  12.256 -0.3170 -0.0785 -0.1428
    1Sil    Sib 1919   0.549   2.768  11.875  0.1351  0.5392  0.0699
    1Sil    Sib 1920   3.426   3.075  11.914  0.0050  0.2807  0.0170
    1Sil    Sib 1921   3.964   3.076  12.304  0.2276  0.3889  0.1520
    1Sil    Sib 1922   3.728   3.014  11.508 -0.0380  0.0294 -0.5689
    1Sil    Sib 1923   3.685   3.062  12.403 -0.0619  0.2743  0.0944
    1Sil    Sib 1924   3.451   3.084  11.605 -0.1493 -0.0114 -0.0098
    1Sil    Sib 1925   0.661   3.019  12.010 -0.4428  0.2124  0.4028
    1Sil    Sib 1926   3.594   2.839  11.958 -0.3386 -0.0540 -0.3801
    1Sil    Sib 1927   0.806   2.832  12.365 -0.0395 -0.7190  0.0288
    1Sil    Sib 1928   0.570   2.770  11.572  0.7419  0.5780  0.2889
    1Sil    Sib 1929   0.885   3.319  10.269 -0.2335  0.2448 -0.3660
    1Sil    Sib 1930   3.632   3.324  11.074 -0.0807 -0.2444  0.1872
    1Sil    Sib 1931   0.600   3.276  10.674  0.1341 -0.2434 -0.1733
    1Sil    Sib 1932   3.490   3.571  10.717  0.0084  0.5987  0.0897
    1Sil    Sib 1933   4.001   3.576  11.107  0.1128  0.3483  0.3256
    1Sil    Sim 1934   3.760   3.503  10.313  0.3694 -0.2087  0.5436
    1Sil    Sib 1935   3.726   3.569  11.221  0.1511 -0.0144  0.1118
    1Sil    Sib 1936   3.484   3.565  10.420  0.7897 -0.2136 -0.4948
    1Sil    Sib 1937   0.705   3.520  10.814 -0.1180  0.3282  0.0977
    1Sil    Sib 1938   3.644   3.321  10.775  0.4826  0.1923 -0.1370
    1Sil    Sib 1939   0.847   3.327  11.174  0.0701 -0.3226  0.0977
    1Sil    Sib 1940   3.930   3.256  10.373 -0.2512  0.0246 -0.0767
    1Sil    Sib 1941   0.834   3.340  11.477  0.2301 -0.2887  0.2349
    1Sil    Sib 1942   3.573   3.313  12.279 -0.2445  0.2035  0.0497
    1Sil    Sib 1943   0.552   3.261  11.860 -0.1834 -0.2102 -0.3048
    1Sil    Sib 1944   3.427   3.565  11.917 -0.5668  0.2273  0.4841
    1Sil    Sib 1945   3.964   3.563  12.307  0.3729 -0.0547 -0.2687
    1Sil    Sib 1946   3.714   3.511  11.519  0.1397 -0.1242 -0.1106
    1Sil    Sim 1947   3.679   3.564  12.414  0.1850  0.1798 -0.7992
    1Sil    Sib 1948   3.429   3.578  11.606  0.1974  0.0820  0.2540
    1Sil    Sib 1949   0.652   3.509  12.011 -0.1508 -0.0905  0.0600
    1Sil    Sib 1950   3.592   3.309  11.975  0.2126  0.1062 -0.2624
    1Sil    Sim 1951   0.799   3.323  12.384 -0.1264  0.2310 -0.3578
    1Sil    Sib 1952   3.874   3.266  11.561 -0.1957 -0.1487  0.3459
    1Sil    Sim 1953   0.882   3.809  10.257 -0.1735 -0.1789 -0.0272
    1Sil    Sib 1954   3.632   3.819  11.076 -0.8181 -0.1330  0.2485
    1Sil    Sib 1955   0.610   3.762  10.663 -0.0786  0.0545 -0.0189
    1Sil    Sib 1956   3.481   4.071  10.711 -0.4139 -0.4928  0.3632
    1Sil    Sib 1957   4.009   4.067  11.097  0.2495 -0.1285  0.0845
    1Sil    Sib 1958   3.768   4.006  10.325 -0.5470 -0.1336  0.4217
    1Sil    Sib 1959   3.740   4.059  11.207  0.2189  0.2005 -0.2952
    1Sil    Sib 1960   3.484   4.064  10.414 -0.0445 -0.1462  0.0405
    1Sil    Sib 1961   0.702   4.019  10.801  0.2700  0.0785  0.1097
    1Sil    Sib 1962   3.652   3.817  10.774 -0.4289 -0.1549  0.0681
    1Sil    Sib 1963   0.844   3.817  11.171 -0.4083 -0.0829 -0.0191
    1Sil    Sib 1964   3.928   3.759  10.366 -0.1841 -0.2029  0.1022
    1Sil    Sib 1965   0.835   3.824  11.470  0.1441 -0.2469 -0.3373
    1Sil    Sib 1966   3.582   3.814  12.264  0.0439 -0.1990  0.2736
    1Sil    Sib 1967   0.552   3.760  11.866  0.3489  0.1210 -0.2767
    1Sil    Sib 1968   3.428   4.063  11.905  0.2691 -0.0526  0.1280
    1Sil    Sib 1969   3.967   4.051  12.306 -0.6016 -0.2548  0.1450
    1Sil    Sib 1970   3.724   4.007  11.509  0.4382  0.0761 -0.0229
    1Sil    Sib 1971   3.676   4.061  12.396  0.2029 -0.2993 -0.5282
    1Sil    Sib 1972   3.444   4.059  11.605 -0.1111  0.3336  0.0502
    1Sil    Sib 1973   0.663   4.004  12.013 -0.4678 -0.2754  0.0684
    1Sil    Sib 1974   3.602   3.813  11.975  0.3224  0.0462 -0.1247
    1Sil    Sib 1975   0.806   3.811  12.365  0.0317  0.2079  0.8408
    1Sil    Sib 1976   3.880   3.763  11.566 -0.3026 -0.1409 -0.1757
    1Sil    Sim 1977   0.899   4.304  10.269  0.4847 -0.1153 -0.0364
    1Sil    Sib 1978   3.643   4.312  11.081  0.2780  0.0393 -0.0775
    1Sil    Sib 1979   0.600   4.258  10.663 -0.3027  0.0871 -0.3325
    1Sil    Sib 1980   3.480   4.560  10.727  0.6827  0.4916 -0.0812
    1Sil    Sib 1981   4.022   4.564  11.114 -0.0595 -0.5588 -0.0252
    1Sil    Sib 1982   3.774   4.489  10.314 -0.0643 -0.6627  0.2203
    1Sil    Sib 1983   3.744   4.561  11.218 -0.5550  0.4057  0.0539
    1Sil    Sib 1984   3.493   4.555  10.427 -0.4163 -0.1548 -0.4005
    1Sil    Sib 1985   0.705   4.497  10.813  0.0395  0.3271 -0.1013
    1Sil    Sib 1986   3.647   4.315  10.774  0.3967 -0.1143  0.1287
    1Sil    Sib 1987   0.857   4.310  11.173 -0.2554  0.5387 -0.2339
    1Sil    Sib 1988   3.940   4.246  10.364 -0.1143  0.2804 -0.4454
    1Sil    Sib 1989   0.847   4.313  11.474 -0.0357 -0.1145  0.0572
    1Sil    Sib 1990   3.573   4.309  12.262  0.1638 -0.3817  0.4143
    1Sil    Sib 1991   0.547   4.253  11.874 -0.2676  0.0482  0.3484
    1Sil    Sib 1992   3.427   4.557  11.905  0.3204 -0.1671 -0.0658
    1Sil    Sib 1993   3.975   4.562  12.299 -0.2343 -0.2142 -0.6981
    1Sil    Sib 1994   3.722   4.505  11.512 -0.2345  0.1796  0.1865
    1Sil    Sib 1995   3.691   4.552  12.397  0.2081  0.0023  0.4999
    1Sil    Sib 1996   3.432   4.555  11.607  0.1526  0.5791 -0.1786
    1Sil    Sib 1997   0.648   4.514  12.002 -0.1348  0.0346 -0.1883
    1Sil    Sib 1998   3.586   4.307  11.963  0.5740 -0.1139  0.2694
    1Sil    Sim 1999   0.799   4.307  12.375  0.1255  0.1384  0.1989
    1Sil    Sib 2000   3.886   4.252  11.560 -0.2149 -0.6461 -0.3240
    1Sil    Sim 2001   0.895   4.789  10.276 -0.0865  0.2385 -0.2646
    1Sil    Sib 2002   3.643   4.804  11.085 -0.0632  0.3957 -0.4444
    1Sil    Sib 2003   0.595   4.743  10.687 -0.0346  0.0341  0.0099
    1Sil    Sib 2004   3.488   5.056  10.722  0.0200  0.1785 -0.2734
    1Sil    Sib 2005   4.019   5.055  11.110  0.4290 -0.1987  0.1567
    1Sil    Sib 2006   3.789   4.984  10.332  0.4546  0.5341 -0.1136
    1Sil    Sib 2007   3.736   5.055  11.213  0.2308  0.1381  0.1071
    1Sil    Sib 2008   3.502   5.042  10.416  0.0520 -0.3303  0.0686
    1Sil    Sib 2009   0.717   4.993  10.810  0.0888 -0.6149 -0.3065
    1Sil    Sib 2010   3.643   4.807  10.789  0.2013 -0.0278 -0.3571
    1Sil    Sib 2011   0.870   4.813  11.166 -0.0770  0.1645  0.3321
    1Sil    Sib 2012   3.942   4.735  10.382  0.0402 -0.0284 -0.0603
    1Sil    Sib 2013   0.836   4.800  11.463  0.0757 -0.1886 -0.6305
    1Sil    Sib 2014   3.594   4.805  12.264  0.0018 -0.2345  0.0738
    1Sil    Sib 2015   0.549   4.757  11.865 -0.0352 -0.2932 -0.2493
    1Sil    Sib 2016   3.436   5.043  11.913  0.3297 -0.1120 -0.3245
    1Sil    Sib 2017   3.973   5.054  12.293  0.6006  0.3842 -0.0651
    1Sil    Sib 2018   3.730   5.000  11.512 -0.2087  0.3613  0.2672
    1Sil    Sib 2019   3.699   5.056  12.402 -0.1598  0.5169  0.1424
    1Sil    Sib 2020   3.450   5.050  11.618 -0.3699  0.0639 -0.0958
    1Sil    Sib 2021   0.654   4.998  12.000  0.2733 -0.2706  0.0473
    1Sil    Sib 2022   3.599   4.800  11.965  0.3364 -0.0426 -0.1061
    1Sil    Sib 2023   0.813   4.814  12.368  0.2589  0.1064 -0.0193
    1Sil    Sib 2024   3.888   4.747  11.565 -0.3502  0.1007  0.2570
    1Sil    Sib 2025   0.899   5.287  10.273 -0.5106 -0.1978 -0.2104
    1Sil    Sib 2026   3.627   5.298  11.076  0.0195  0.3514 -0.1386
    1Sil    Sib 2027   0.617   5.256  10.679 -0.2746 -0.1279  0.4866
    1Sil    Sib 2028   3.470   5.545  10.718  0.2256 -0.5001  0.1382
    1Sil    Sib 2029   4.013   5.550  11.110  0.1034  0.4917 -0.4775
    1Sil    Sib 2030   3.774   5.471  10.315 -0.4091  0.0629 -0.1231
    1Sil    Sib 2031   3.734   5.555  11.213 -0.1077 -0.0395  0.6308
    1Sil    Sib 2032   3.496   5.534  10.420  0.3087 -0.1292  0.4405
    1Sil    Sib 2033   0.717   5.502  10.818 -0.2828  0.3884  0.0262
    1Sil    Sib 2034   3.649   5.303  10.778 -0.1511 -0.1145  0.3267
    1Sil    Sib 2035   0.859   5.304  11.169  0.7941 -0.0566 -0.0992
    1Sil    Sib 2036   3.953   5.236  10.384  0.0144 -0.3078  0.0188
    1Sil    Sib 2037   0.848   5.306  11.465 -0.5375  0.6156 -0.3749
    1Sil    Sib 2038   3.583   5.303  12.278  0.2315  0.5058  0.2768
    1Sil    Sib 2039   0.546   5.242  11.864 -0.2163 -0.3544  0.0472
    1Sil    Sib 2040   3.431   5.546  11.905  0.1819 -0.5149 -0.0016
    1Sil    Sib 2041   3.970   5.545  12.295  0.3994  0.1272 -0.5834
    1Sil    Sib 2042   3.726   5.489  11.505 -0.5354  0.1734  0.1234
    1Sil    Sib 2043   3.697   5.554  12.419 -0.2457  0.2217 -0.3566
    1Sil    Sib 2044   3.443   5.539  11.604 -0.4983 -0.0570  0.0990
    1Sil    Sib 2045   0.651   5.487  11.996 -0.1633  0.5632 -0.1286
    1Sil    Sib 2046   3.595   5.301  11.976  0.0830 -0.3476 -0.2416
    1Sil    Sim 2047   0.812   5.301  12.350  0.3133 -0.1707 -0.1858
    1Sil    Sib 2048   3.892   5.244  11.564  0.0707  0.1654 -0.4086
    1Sil    Sib 2049   0.894   5.775  10.285 -0.2912 -0.0964 -0.2762
    1Sil    Sib 2050   3.626   5.792  11.067  0.3902 -0.2886  0.0674
    1Sil    Sib 2051   0.602   5.734  10.669  0.2594 -0.0599  0.4379
    1Sil    Sib 2052   3.468   2.590  10.713  0.3791 -0.0157  0.0968
    1Sil    Sib 2053   0.690   2.596  11.092  0.5228  0.2909  0.2889
    1Sil    Sib 2054   0.450   2.521  10.326  0.1748 -0.1143 -0.2759
    1Sil    Sib 2055   3.735   2.585  11.204  0.4369 -0.0846  0.0375
    1Sil    Sib 2056   3.497   2.587  10.413 -0.0176 -0.1742  0.2355
    1Sil    Sib 2057   0.704   2.533  10.797 -0.1065  0.1528 -0.1588
    1Sil    Sib 2058   3.643   5.794  10.765  0.2789  0.6158  0.3229
    1Sil    Sib 2059   0.854   5.805  11.162  0.1736  0.2697  0.1034
    1Sil    Sib 2060   3.933   5.716  10.369  0.0883  0.4765  0.0833
    1Sil    Sib 2061   0.849   5.798  11.465  0.1681 -0.0149 -0.2237
    1Sil    Sib 2062   3.576   5.786  12.275  0.4245 -0.0094  0.1166
    1Sil    Sib 2063   0.560   5.730  11.861 -0.0319  0.1620  0.0676
    1Sil    Sib 2064   3.428   2.595  11.910  0.0614  0.3939  0.2030
    1Sil    Sib 2065   0.644   2.586  12.303 -0.1021  0.1485 -0.7075
    1Sil    Sib 2066   0.406   2.532  11.499  0.6282 -0.6499  0.1104
    1Sil    Sim 2067   3.679   2.598  12.403 -0.1112  0.1999  0.2909
    1Sil    Sib 2068   3.451   2.592  11.602 -0.3870 -0.3160 -0.2839
    1Sil    Sib 2069   0.660   2.523  12.004  0.3337  0.0945 -0.1890
    1Sil    Sib 2070   3.598   5.797  11.967  0.0899 -0.3475  0.0724
    1Sil    Sib 2071   0.808   5.789  12.366 -0.8623  0.3287 -0.5063
    1Sil    Sib 2072   3.889   5.736  11.565  0.0972  0.0815  0.0083
    1Sil     Hm 2073   1.694   2.778  10.056  1.1003 -0.0867 -0.7005
    1Sil     Hm 2074   1.820   2.893  10.069  1.7504 -1.0788 -0.8574
    1Sil     Hm 2075   1.850   2.722  10.103 -2.0490 -1.6104  1.0088
    1Sil     Hm 2076   1.314   2.991  10.100 -0.3889 -0.3867  0.2118
    1Sil     Hm 2077   1.147   2.977  10.132 -1.0860  1.0437  2.3010
    1Sil     Hm 2078   1.217   3.142  10.132  2.0523  0.5018  0.6019
    1Sil     Hm 2079   1.051   3.039  12.583  0.4511 -1.8329  1.4659
    1Sil     Hm 2080   1.214   2.967  12.608 -0.5147 -0.7280 -1.3371
    1Sil     Hm 2081   1.180   3.142  12.639  0.1051  1.0580 -0.7468
    1Sil     Hm 2082   1.697   2.916  12.552 -0.2868 -0.5375 -0.9883
    1Sil     Hm 2083   1.575   2.788  12.583 -0.0725  1.2408  0.0418
    1Sil     Hm 2084   1.744   2.748  12.530 -1.4402 -2.4714  0.0553
    1Sil     Hm 2085   1.858   3.387  10.114  1.1586 -1.0805 -2.2404
    1Sil     Hm 2086   1.833   3.221  10.107 -1.9912 -0.3148 -1.1298
    1Sil     Hm 2087   1.710   3.338  10.050 -2.2553 -1.3303  0.4130
    1Sil     Hy 2088   1.167   3.606  10.161 -0.3431 -0.0176  1.4571
    1Sil     Hy 2089   1.178   3.653  12.599 -0.8514  0.8565  0.0993
    1Sil     Hm 2090   1.729   3.347  12.583 -0.6740 -0.7173  1.0852
    1Sil     Hm 2091   1.551   3.306  12.594  0.9409  0.9839  1.9178
    1Sil     Hm 2092   1.672   3.187  12.539 -0.5033 -0.5367  2.5791
    1Sil     Hm 2093   1.725   3.837  10.054  0.8872 -0.7978 -0.7621
    1Sil     Hm 2094   1.714   3.666  10.086  1.9582 -0.3668 -0.1071
    1Sil     Hm 2095   1.866   3.751  10.107  1.0321  3.5291  0.6539
    1Sil     Hm 2096   1.115   4.052  10.134 -0.2385  3.5604 -1.9520
    1Sil     Hm 2097   1.259   4.143  10.087 -2.3630 -0.2044 -0.6723
    1Sil     Hm 2098   1.251   3.967  10.070 -1.3781 -0.8037 -0.9814
    1Sil     Hy 2099   1.215   4.002  12.603 -0.4175  1.4280  0.6365
    1Sil     Hy 2100   1.642   3.706  12.533 -1.3613 -0.5840 -2.0870
    1Sil     Hm 2101   1.698   4.283  10.054  0.6974 -0.1191 -0.2633
    1Sil     Hm 2102   1.866   4.330  10.093  0.1219  0.4860  0.1728
    1Sil     Hm 2103   1.809   4.157  10.119  1.5917  0.1408 -0.5351
    1Sil     Hy 2104   1.296   4.610  10.131  0.3336  0.7653  1.0099
    1Sil     Hy 2105   1.192   4.587  12.613  0.0240 -0.4215  0.2669
    1Sil     Hy 2106   1.674   4.357  12.568  0.8992  1.4915 -1.8283
    1Sil     Hm 2107   1.774   4.674  10.099  0.3377 -0.2676 -0.8162
    1Sil     Hm 2108   1.744   4.840  10.049  1.3887 -1.1481 -1.7378
    1Sil     Hm 2109   1.894   4.805  10.126 -0.4390 -0.6334 -2.0605
    1Sil     Hy 2110   1.282   4.960  10.107  0.9582  0.2579  0.0927
    1Sil     Hy 2111   1.170   5.116  12.590  1.5234  0.1533 -0.0552
    1Sil     Hm 2112   1.763   4.752  12.546 -0.3971  0.6458  0.6800
    1Sil     Hm 2113   1.639   4.867  12.588  1.6769  1.2772  0.9422
    1Sil     Hm 2114   1.596   4.699  12.575 -0.1668  2.6600  2.9127
    1Sil     Hy 2115   1.717   5.231  10.078 -0.3970  0.2549  1.3065
    1Sil     Hm 2116   1.130   5.503  10.108 -1.2057  0.1123  1.6085
    1Sil     Hm 2117   1.254   5.626  10.125  2.8071 -0.9974  0.8433
    1Sil     Hm 2118   1.298   5.475  10.063  2.0969 -1.6208  2.4838
    1Sil     Hy 2119   1.203   5.522  12.607  0.9065 -0.2282 -0.9282
    1Sil     Hy 2120   1.593   5.251  12.553  0.4328 -1.9399  1.9680
    1Sil     Hy 2121   1.744   5.707  10.086  2.4131 -2.3537  1.0509
    1Sil     Hm 2122   1.194   2.683  10.150  0.0328  0.2829 -1.7838
    1Sil     Hm 2123   1.322   2.587  10.085 -0.1208 -0.8228 -0.1861
    1Sil     Hm 2124   1.162   2.516  10.104 -0.3269  0.5585 -0.0324
    1Sil     Hm 2125   1.057   2.500  12.588  1.9759 -1.2116 -0.0068
    1Sil     Hm 2126   1.227   2.518  12.628  0.1749 -0.9020 -1.5264
    1Sil     Hm 2127   1.134   2.662  12.638 -0.4316  0.0009  0.1676
    1Sil     Hy 2128   1.721   5.821  12.532 -1.5029  2.9176 -0.8164
    1Sil     Hy 2129   2.694   2.819  10.126 -0.7780 -0.8091  0.7596
    1Sil     Hm 2130   2.048   3.155  10.130  3.1534  0.3785 -0.2628
    1Sil     Hm 2131   1.991   2.988  10.115 -0.5847 -0.4350  3.2534
    1Sil     Hm 2132   2.151   3.038  10.066  1.4398  2.7845  0.5384
    1Sil     Hy 2133   1.986   2.987  12.603  0.8328 -0.9024 -3.2984
    1Sil     Hy 2134   2.514   2.884  12.572 -2.0057  0.9288 -0.1769
    1Sil     Hy 2135   2.700   3.228  10.168  0.4219  0.4621  0.4108
    1Sil     Hy 2136   2.137   3.505  10.110  0.7113 -1.4700  1.4321
    1Sil     Hm 2137   1.895   3.614  12.608  0.4221  1.6733 -0.0665
    1Sil     Hm 2138   2.061   3.559  12.645 -1.6660 -1.2903  1.3832
    1Sil     Hm 2139   1.948   3.441  12.587  1.8074  0.4116  1.0372
    1Sil     Hy 2140   2.503   3.359  12.562 -3.7307  1.3683 -2.5475
    1Sil     Hm 2141   2.533   3.843  10.061 -0.1191  2.1165  0.9280
    1Sil     Hm 2142   2.702   3.850  10.107 -0.2512 -1.3911 -1.8144
    1Sil     Hm 2143   2.604   3.696  10.103  0.9042 -0.5389 -0.0412
    1Sil     Hm 2144   2.157   4.013  10.100  1.7291  2.0185  1.6115
    1Sil     Hm 2145   1.992   3.963  10.122 -1.5979  2.0637 -0.7443
    1Sil     Hm 2146   2.034   4.130  10.156  1.8206 -0.1212 -2.1141
    1Sil     Hm 2147   2.019   4.078  12.638 -0.8942 -1.5373  1.1450
    1Sil     Hm 2148   1.851   4.076  12.580  0.8295  1.1134  2.5563
    1Sil     Hm 2149   1.962   3.932  12.571 -1.0366 -0.5820  1.3650
    1Sil     Hy 2150   2.448   3.877  12.577  0.2145 -0.7247  0.6036
    1Sil     Hm 2151   2.548   4.385  10.049 -0.0312 -0.2589 -1.0106
    1Sil     Hm 2152   2.689   4.294  10.087  0.0945  0.1580  0.9869
    1Sil     Hm 2153   2.531   4.216  10.057  1.1112 -1.0599  1.0332
    1Sil     Hm 2154   2.070   4.414  10.086 -0.3500 -0.7268  0.2491
    1Sil     Hm 2155   1.944   4.537  10.134  0.7826  2.0765 -2.2319
    1Sil     Hm 2156   2.101   4.585  10.078  2.8323 -2.1554 -0.2541
    1Sil     Hy 2157   2.007   4.424  12.558 -0.4192 -0.6625 -0.1242
    1Sil     Hy 2158   2.414   4.237  12.554  1.1875 -1.2903 -0.4644
    1Sil     Hm 2159   2.707   4.733  10.127 -0.6398 -0.6464 -0.0908
    1Sil     Hm 2160   2.599   4.861  10.057  1.9000  0.6224 -0.0194
    1Sil     Hm 2161   2.546   4.693  10.078 -1.1413 -0.2655  1.6100
    1Sil     Hy 2162   2.066   5.109  10.139  2.4000 -0.4543 -1.3236
    1Sil     Hy 2163   1.885   5.042  12.560 -0.1242  2.2493 -0.7816
    1Sil     Hm 2164   2.614   4.830  12.563  0.4207  0.6936  2.2812
    1Sil     Hm 2165   2.465   4.916  12.586 -0.4669 -0.8359 -0.7753
    1Sil     Hm 2166   2.464   4.734  12.592 -1.1546  0.3884 -0.1849
    1Sil     Hy 2167   2.551   5.269  10.065 -0.6150  0.8042  0.5979
    1Sil     Hy 2168   2.081   5.456  10.103 -0.7352 -0.1344  0.3316
    1Sil     Hm 2169   1.892   5.601  12.595 -0.3594 -0.4114  0.0658
    1Sil     Hm 2170   1.868   5.437  12.556  2.0438 -1.4455  1.8184
    1Sil     Hm 2171   2.019   5.485  12.632  0.5954 -1.9714 -1.0726
    1Sil     Hy 2172   2.559   5.328  12.552 -1.3629  0.3511 -0.0549
    1Sil     Hy 2173   2.534   5.700  10.082  0.2088  0.7725 -0.7113
    1Sil     Hy 2174   2.032   2.455  10.150  1.6302 -1.1465  0.4590
    1Sil     Hy 2175   2.017   2.630  12.591 -2.3713  0.9397  1.9149
    1Sil     Hy 2176   2.395   5.727  12.556 -0.1433  0.0173  0.1773
    1Sil     Hy 2177   3.401   2.906  10.078  0.5103 -0.5055 -0.1146
    1Sil     Hy 2178   2.941   3.026  10.119  1.5535 -0.2740  1.9177
    1Sil     Hy 2179   2.741   3.113  12.569  1.0349  2.5981 -4.4597
    1Sil     Hy 2180   3.309   2.868  12.563 -1.0661 -0.6323 -1.5079
    1Sil     Hy 2181   3.398   3.242  10.081  0.2639 -0.0602 -0.9714
    1Sil     Hm 2182   2.854   3.480  10.092 -0.3611  0.3908 -0.1811
    1Sil     Hm 2183   2.824   3.645  10.138 -1.3734 -0.7394 -0.8015
    1Sil     Hm 2184   2.987   3.598  10.076 -0.1191 -0.0423  0.2047
    1Sil     Hm 2185   2.765   3.634  12.640  2.9008  0.5541  1.0194
    1Sil     Hm 2186   2.745   3.469  12.598 -1.1834  1.1245  1.6848
    1Sil     Hm 2187   2.903   3.517  12.647  1.1332  0.8499 -0.6232
    1Sil     Hy 2188   3.234   3.237  12.556 -0.6110  1.9675  2.1496
    1Sil     Hm 2189   3.456   3.902  10.079  0.9614  0.0427  0.5349
    1Sil     Hm 2190   3.550   3.770  10.135  0.1417 -0.5414  2.6830
    1Sil     Hm 2191   3.395   3.734  10.054 -0.8402  0.7932 -0.8637
    1Sil     Hm 2192   2.967   4.119  10.091 -1.9910  1.1820 -2.0499
    1Sil     Hm 2193   2.921   3.953  10.059  1.7947 -0.2674  0.5155
    1Sil     Hm 2194   2.800   4.065  10.119  0.1040 -1.1170  1.9222
    1Sil     Hm 2195   2.836   3.938  12.631  1.9919  0.6294 -0.4329
    1Sil     Hm 2196   2.869   4.118  12.660  1.5925 -1.9227  2.0782
    1Sil     Hm 2197   2.714   4.065  12.620 -0.3491 -0.8940 -1.4275
    1Sil     Hm 2198   3.399   3.712  12.537  0.6205  1.6272  1.1279
    1Sil     Hm 2199   3.387   3.880  12.564 -2.3035  0.7542  1.1509
    1Sil     Hm 2200   3.243   3.779  12.570  0.9959  0.8160  2.7320
    1Sil     Hy 2201   3.480   4.334  10.098 -1.4471  2.2325 -1.0627
    1Sil     Hy 2202   2.946   4.447  10.119 -1.3233 -1.3940  0.2849
    1Sil     Hm 2203   2.852   4.600  12.631 -1.4883  1.8366  0.1077
    1Sil     Hm 2204   2.692   4.566  12.579  0.8593  1.5409  0.3038
    1Sil     Hm 2205   2.804   4.434  12.596  1.1004  0.3006  1.6142
    1Sil     Hm 2206   3.430   4.241  12.548  1.6223  0.9832 -2.4234
    1Sil     Hm 2207   3.316   4.365  12.584  2.2965  1.6038 -1.6134
    1Sil     Hm 2208   3.268   4.189  12.556 -1.7160  0.8948 -0.1811
    1Sil     Hy 2209   3.537   4.827  10.122 -0.5809  2.0947  1.1912
    1Sil     Hm 2210   2.856   5.105  10.130 -1.5299 -1.0019 -0.5865
    1Sil     Hm 2211   3.005   5.001  10.087  0.0860 -4.1732 -0.2423
    1Sil     Hm 2212   2.846   4.932  10.122 -0.8921 -0.2421  2.4246
    1Sil     Hy 2213   2.751   5.101  12.593 -1.7746  0.9647 -2.6671
    1Sil     Hy 2214   3.293   4.690  12.537  0.7202 -0.7595  0.0283
    1Sil     Hm 2215   3.556   5.242  10.100  1.1897  2.7472  4.4067
    1Sil     Hm 2216   3.379   5.208  10.047 -0.5729  0.1720  0.4364
    1Sil     Hm 2217   3.450   5.366  10.044 -4.9819 -1.0054 -1.7273
    1Sil     Hy 2218   2.892   5.614  10.157 -0.0084  0.0815 -0.9189
    1Sil     Hm 2219   2.708   5.547  12.584  0.4131  0.5618 -0.9966
    1Sil     Hm 2220   2.804   5.402  12.574 -0.8134 -0.3946  0.2253
    1Sil     Hm 2221   2.878   5.552  12.632  0.4734  0.0810 -0.6052
    1Sil     Hy 2222   3.268   5.240  12.575  0.1819  1.0291  0.6064
    1Sil     Hm 2223   3.428   5.846  10.069 -0.1847 -1.0067 -1.4090
    1Sil     Hm 2224   3.574   5.775  10.131  1.1959 -3.5668 -2.3234
    1Sil     Hm 2225   3.440   5.667  10.095 -0.7387  1.0347 -0.7433
    1Sil     Hm 2226   2.892   2.666  10.143 -2.7201  0.8915  2.3157
    1Sil     Hm 2227   2.959   2.516  10.088  0.1271 -0.1457  0.9485
    1Sil     Hm 2228   2.794   2.512  10.158  0.5806 -1.9653  0.2233
    1Sil     Hm 2229   2.897   2.612  12.629 -0.6747  0.5932 -0.5182
    1Sil     Hm 2230   2.727   2.584  12.585 -0.1889 -0.6977  1.0135
    1Sil     Hm 2231   2.846   2.448  12.594 -0.5314 -0.9988 -1.6201
    1Sil     Hm 2232   3.208   5.730  12.586 -0.6695  1.2694  0.9540
    1Sil     Hm 2233   3.391   5.733  12.587  1.1107  2.2200  0.3780
    1Sil     Hm 2234   3.299   5.880  12.596 -1.8821 -1.1408  0.8263
    1Sil     Hy 2235   0.944   2.894  10.097  0.4119  0.1537  0.8200
    1Sil     Hm 2236   3.810   3.051  10.087  0.1431  0.6102  0.3342
    1Sil     Hm 2237   3.653   2.986  10.118  0.2156 -0.3111 -0.9296
    1Sil     Hm 2238   3.690   3.162  10.154 -0.5601 -0.3468  1.1524
    1Sil     Hy 2239   3.712   3.040  12.610 -0.3130 -2.4057  0.2553
    1Sil     Hy 2240   0.840   2.867  12.577 -0.2670  0.1193  0.2511
    1Sil     Hy 2241   0.873   3.285  10.058 -1.2524  0.2387  1.7318
    1Sil     Hm 2242   3.618   3.578  10.147 -1.1170 -0.9649 -0.1521
    1Sil     Hm 2243   3.785   3.604  10.111  0.8386 -1.0693 -0.5022
    1Sil     Hm 2244   3.719   3.443  10.093 -2.7461  0.5502  0.2863
    1Sil     Hm 2245   3.537   3.502  12.591  0.5826 -0.1519  0.1818
    1Sil     Hm 2246   3.705   3.483  12.628  0.0669 -0.5179 -1.0346
    1Sil     Hm 2247   3.633   3.647  12.631 -1.3857 -0.4410  2.4390
    1Sil     Hm 2248   0.805   3.381  12.615  2.2173 -0.1686  2.3609
    1Sil     Hm 2249   0.930   3.259  12.579 -0.3372 -2.3143 -1.1037
    1Sil     Hm 2250   0.753   3.220  12.598 -0.0290 -0.8882 -1.6383
    1Sil     Hm 2251   0.845   3.757  10.041  0.3737 -0.9592  0.6774
    1Sil     Hm 2252   0.960   3.885  10.062  0.9029  0.0632  0.5571
    1Sil     Hm 2253   1.009   3.721  10.087  0.8458  0.7460  0.4298
    1Sil     Hy 2254   3.713   3.944  10.140  1.9103 -0.2922 -0.5357
    1Sil     Hy 2255   3.705   3.984  12.581 -0.8135 -0.8167  0.9825
    1Sil     Hy 2256   0.930   3.835  12.538  2.4484 -1.5623 -1.6533
    1Sil     Hm 2257   1.064   4.313  10.125  0.0667 -0.2430 -2.4910
    1Sil     Hm 2258   0.956   4.180  10.077 -1.3459  0.3568 -1.1087
    1Sil     Hm 2259   0.918   4.355  10.044 -0.6955  1.6798  2.2102
    1Sil     Hy 2260   3.746   4.455  10.100 -0.5482  1.8147 -1.8703
    1Sil     Hy 2261   3.645   4.598  12.593 -0.4998 -1.5517  1.8380
    1Sil     Hm 2262   0.731   4.308  12.603  1.1656 -0.3830  2.0000
    1Sil     Hm 2263   0.879   4.223  12.564  0.3703  0.8737  1.5852
    1Sil     Hm 2264   0.872   4.402  12.575  0.0271  0.8284  0.1918
    1Sil     Hm 2265   1.029   4.820  10.082 -0.0691 -1.6431 -3.0143
    1Sil     Hm 2266   0.970   4.652  10.098  2.5341 -0.0798  0.9262
    1Sil     Hm 2267   0.860   4.770  10.048  0.5993 -1.0654 -1.1101
    1Sil     Hy 2268   3.839   5.044  10.125 -0.1995  0.1598 -0.2326
    1Sil     Hy 2269   3.639   4.925  12.539  0.3376 -0.0772 -3.4019
    1Sil     Hy 2270   0.921   4.876  12.542  0.3806  0.4314 -2.8745
    1Sil     Hy 2271   0.874   5.268  10.078  1.2230 -1.6478  0.8013
    1Sil     Hy 2272   3.738   5.403  10.119  0.5159  0.6324 -0.7252
    1Sil     Hy 2273   3.710   5.606  12.617 -1.1749  0.6154  1.2927
    1Sil     Hm 2274   0.885   5.160  12.527  0.6244  0.6126  2.0832
    1Sil     Hm 2275   0.912   5.332  12.565 -0.8533  0.0080  1.1068
    1Sil     Hm 2276   0.750   5.254  12.572  0.0849 -0.6457  0.1943
    1Sil     Hy 2277   0.921   5.819  10.079  0.6081  2.2466  2.2701
    1Sil     Hy 2278   0.369   2.477  10.136 -0.3253  0.4398 -1.8825
    1Sil     Hm 2279   3.655   2.679  12.625  1.9929  0.3115  0.1016
    1Sil     Hm 2280   3.521   2.563  12.575 -0.0365  0.2902  1.7907
    1Sil     Hm 2281   3.682   2.512  12.624 -1.4009 -0.1835  1.2049
    1Sil     Hy 2282   0.831   5.827  12.569 -2.2390 -0.7928  0.2460
    2Eth     Ho 2283   0.037   0.986   4.842  2.0657 -0.4290 -0.6008
    2Eth     Oh 2284  -0.004   0.953   4.764  0.6514  0.0894 -0.0817
    2Eth     Co 2285  -0.006   0.815   4.775 -0.2735  0.1904 -1.0473
    2Eth    Hco 2286  -0.048   0.781   4.870  2.1505  0.8356  0.3150
    2Eth    Hco 2287   0.100   0.789   4.775 -0.0814  0.9358 -0.3142
    2Eth     Ch 2288  -0.072   0.738   4.661 -0.1056 -0.3943  0.8945
    2Eth    Hcc 2289  -0.038   0.635   4.675 -1.7962 -0.9587  1.0959
    2Eth    Hcc 2290  -0.039   0.776   4.565  1.1898  1.0281  1.8744
    2Eth    Hcc 2291  -0.181   0.732   4.662 -0.2396  1.2964 -1.1312
    3Eth     Ho 2292   0.251   0.620   7.248  1.0812  0.4785 -0.2818
    3Eth     Oh 2293   0.330   0.635   7.298  0.8152  0.5121  0.1264
    3Eth     Co 2294   0.388   0.509   7.333  0.6283 -0.0917 -0.0068
    3Eth    Hco 2295   0.308   0.439   7.357  0.4278  1.0401  2.8140
    3Eth    Hco 2296   0.442   0.522   7.427 -0.4276 -1.5950  0.8227
    3Eth     Ch 2297   0.478   0.459   7.221 -0.2232 -0.2459 -0.3489
    3Eth    Hcc 2298   0.552   0.534   7.194  0.8543 -1.2790 -0.3086
    3Eth    Hcc 2299   0.405   0.446   7.141 -1.2845 -0.7374  0.6707
    3Eth    Hcc 2300   0.520   0.362   7.247 -2.0262 -0.2292  2.8960
    4Eth     Ho 2301   3.217   2.245   9.014 -0.4346 -0.9948 -0.5853
    4Eth     Oh 2302   3.300   2.289   9.022 -0.5639 -0.8092 -0.2649
    4Eth     Co 2303   3.340   2.333   9.155 -0.7655  0.2067 -0.3799
    4Eth    Hco 2304   3.391   2.256   9.213 -0.5591 -1.0307 -2.1241
    4Eth    Hco 2305   3.263   2.378   9.217 -0.4302  1.3174 -0.7570
    4Eth     Ch 2306   3.437   2.444   9.138 -0.4982 -0.3398  0.4490
    4Eth    Hcc 2307   3.483   2.494   9.223  1.1643 -1.0447 -0.0180
    4Eth    Hcc 2308   3.401   2.516   9.065 -1.4272 -1.9692 -0.7420
    4Eth    Hcc 2309   3.521   2.404   9.081  0.8007  2.1604  0.5225
    5Eth     Ho 2310   0.701   2.727   8.807 -1.5707  0.2051  1.7124
    5Eth     Oh 2311   0.782   2.737   8.854 -0.5321 -0.3197  0.0668
    5Eth     Co 2312   0.836   2.871   8.828 -0.4122 -0.1320  0.1999
    5Eth    Hco 2313   0.777   2.950   8.874 -3.0963 -0.5007 -2.4774
    5Eth    Hco 2314   0.824   2.895   8.723 -0.3144  2.5161  0.7692
    5Eth     Ch 2315   0.979   2.894   8.869 -0.7675  0.2262  0.1641
    5Eth    Hcc 2316   1.009   2.997   8.852  0.4387 -0.0320  0.6087
    5Eth    Hcc 2317   1.050   2.845   8.802  1.2551  1.2839  1.4766
    5Eth    Hcc 2318   1.009   2.871   8.972 -2.8333 -1.5049  0.4051
    6Eth     Ho 2319   0.457   1.316   7.017 -1.2361 -2.4237  2.2518
    6Eth     Oh 2320   0.539   1.286   7.051  0.4736 -0.7599 -0.2626
    6Eth     Co 2321   0.541   1.312   7.192  0.2785  0.4929  0.0182
    6Eth    Hco 2322   0.446   1.305   7.244  0.8349  0.7564  1.0896
    6Eth    Hco 2323   0.567   1.417   7.205  0.5996  0.3487  0.5305
    6Eth     Ch 2324   0.646   1.221   7.266 -0.1936  0.0609  0.2785
    6Eth    Hcc 2325   0.627   1.114   7.252  0.7945  0.1065 -1.5856
    6Eth    Hcc 2326   0.647   1.241   7.373 -1.9757  2.0075 -0.0340
    6Eth    Hcc 2327   0.746   1.254   7.239  0.6509 -1.5217  1.4255
    7Eth     Ho 2328   3.033   3.380   7.824 -1.0947  0.7980  0.7003
    7Eth     Oh 2329   2.974   3.315   7.791  0.3494 -0.4570  0.5186
    7Eth     Co 2330   2.945   3.219   7.894  0.2665 -0.2920  0.2020
    7Eth    Hco 2331   2.904   3.262   7.986 -1.9366 -1.2013 -0.3327
    7Eth    Hco 2332   3.041   3.170   7.911  1.7298  2.7142  1.0033
    7Eth     Ch 2333   2.852   3.114   7.842 -0.0177 -0.5865  0.5147
    7Eth    Hcc 2334   2.878   3.096   7.737  0.4596  0.3733  0.4596
    7Eth    Hcc 2335   2.753   3.160   7.839  1.0798  1.7836 -2.4062
    7Eth    Hcc 2336   2.853   3.024   7.902 -0.9941 -1.2581 -0.4554
    8Eth     Ho 2337   1.310   0.938   1.519  1.7701  0.0096  1.6559
    8Eth     Oh 2338   1.249   0.898   1.578  0.5158 -0.2566  0.2252
    8Eth     Co 2339   1.125   0.867   1.517  1.0432  0.2124  0.6633
    8Eth    Hco 2340   1.142   0.856   1.410 -3.3215  1.9745 -0.3382
    8Eth    Hco 2341   1.077   0.965   1.527  3.2721  1.3924 -0.0423
    8Eth     Ch 2342   1.056   0.740   1.574 -0.0466  0.0066  0.3548
    8Eth    Hcc 2343   1.046   0.751   1.682  3.8398  0.3133  0.7328
    8Eth    Hcc 2344   1.106   0.645   1.556 -0.1563 -0.3169  1.6983
    8Eth    Hcc 2345   0.961   0.730   1.520 -0.2766  3.5973 -0.0202
    9Eth     Ho 2346   2.277   3.285   8.277  1.3498  0.7818 -0.7985
    9Eth     Oh 2347   2.226   3.362   8.291 -0.1518 -0.3649  0.2803
    9Eth     Co 2348   2.317   3.460   8.333 -0.5461  0.3962  0.4401
    9Eth    Hco 2349   2.406   3.427   8.385  1.2765  1.9586 -1.6147
    9Eth    Hco 2350   2.258   3.525   8.398 -2.1107  1.1873 -1.7086
    9Eth     Ch 2351   2.370   3.547   8.217 -0.0991  0.7477  0.3881
    9Eth    Hcc 2352   2.422   3.493   8.138 -1.8340 -0.2760 -0.0819
    9Eth    Hcc 2353   2.439   3.616   8.266  0.6487  0.0440  0.3485
    9Eth    Hcc 2354   2.291   3.611   8.179  0.0695  0.9217  0.3286
   10Eth     Ho 2355   3.183   1.979   6.503 -1.7687 -0.5702 -0.6208
   10Eth     Oh 2356   3.142   2.043   6.558  0.8604  0.5953  0.0386
   10Eth     Co 2357   3.191   2.020   6.696  0.0667  0.5116 -0.6157
   10Eth    Hco 2358   3.300   2.026   6.701  0.0546  0.3638 -0.0858
   10Eth    Hco 2359   3.175   1.916   6.725 -0.8350  0.5396 -1.0258
   10Eth     Ch 2360   3.138   2.099   6.817 -0.1763  0.2947  0.1259
   10Eth    Hcc 2361   3.107   2.201   6.798  0.2234  0.2880 -0.5575
   10Eth    Hcc 2362   3.201   2.082   6.905  0.9945 -2.6248 -1.1923
   10Eth    Hcc 2363   3.037   2.062   6.837 -0.0958  0.1073  0.1948
   11Eth     Ho 2364   0.886   2.715   2.676 -0.8032  1.3284  0.1029
   11Eth     Oh 2365   0.942   2.747   2.607  0.2346 -0.2371  0.1815
   11Eth     Co 2366   0.874   2.767   2.487  0.0398 -0.1703 -0.0196
   11Eth    Hco 2367   0.909   2.858   2.438 -0.4387 -0.3841 -0.7805
   11Eth    Hco 2368   0.767   2.785   2.496  0.2866  1.9967 -0.9774
   11Eth     Ch 2369   0.906   2.649   2.387  0.1619  0.4585 -0.4168
   11Eth    Hcc 2370   0.874   2.551   2.420  2.4099 -0.0265  0.4375
   11Eth    Hcc 2371   1.015   2.642   2.386  0.0553 -2.1721  2.5466
   11Eth    Hcc 2372   0.870   2.667   2.286  0.9775  2.8384 -0.3221
   12Eth     Ho 2373   0.833   3.312   2.644 -1.5691  0.3321  0.0880
   12Eth     Oh 2374   0.830   3.293   2.736 -0.1267 -0.1222  0.0490
   12Eth     Co 2375   0.915   3.389   2.796  0.0611  0.8744  0.4318
   12Eth    Hco 2376   0.910   3.492   2.761  1.1420  0.8005  0.0310
   12Eth    Hco 2377   1.012   3.348   2.767  0.8504  2.6293  0.5179
   12Eth     Ch 2378   0.900   3.400   2.948  0.0393  0.3206  0.4078
   12Eth    Hcc 2379   0.910   3.299   2.989  4.2931  0.3587 -0.3131
   12Eth    Hcc 2380   0.808   3.452   2.974 -0.2975  1.0507 -2.1236
   12Eth    Hcc 2381   0.981   3.462   2.986 -0.1045  1.1206 -0.5793
   13Eth     Ho 2382   3.137   0.956  10.001 -0.1476  0.4008 -0.2159
   13Eth     Oh 2383   3.075   0.885   9.993  0.1400  0.1686 -0.4020
   13Eth     Co 2384   2.997   0.898   9.868 -0.9507 -0.3495 -0.5167
   13Eth    Hco 2385   3.072   0.905   9.789 -1.1411 -0.5574 -0.7157
   13Eth    Hco 2386   2.935   0.987   9.877 -2.5118 -1.0078 -3.9322
   13Eth     Ch 2387   2.901   0.783   9.836  0.4759 -0.2477  0.0635
   13Eth    Hcc 2388   2.950   0.686   9.829 -1.4056 -1.2274  0.3411
   13Eth    Hcc 2389   2.858   0.796   9.737  0.3707 -1.8102 -0.0971
   13Eth    Hcc 2390   2.821   0.768   9.908  0.1405  0.9603 -0.0451
   14Eth     Ho 2391   0.732   0.246   9.673 -0.6262  0.5504 -0.6938
   14Eth     Oh 2392   0.733   0.338   9.696 -0.1263  0.3601  0.0581
   14Eth     Co 2393   0.603   0.386   9.671 -0.2992 -0.3384 -0.2462
   14Eth    Hco 2394   0.527   0.308   9.679 -0.2656 -0.6180 -2.4608
   14Eth    Hco 2395   0.609   0.424   9.569 -2.3988  1.8120  0.3593
   14Eth     Ch 2396   0.574   0.495   9.776 -0.1574 -0.4403  0.5005
   14Eth    Hcc 2397   0.551   0.453   9.874 -0.8461  2.0091  1.4221
   14Eth    Hcc 2398   0.483   0.550   9.749  0.7611  0.4944 -0.7664
   14Eth    Hcc 2399   0.658   0.565   9.778  0.8939 -1.6920  0.9233
   15Eth     Ho 2400   1.693   2.019   5.588  0.7853 -0.1692 -1.1608
   15Eth     Oh 2401   1.622   2.025   5.527 -0.0881  0.1364 -0.1246
   15Eth     Co 2402   1.517   2.090   5.584  0.8365  0.1639  0.7668
   15Eth    Hco 2403   1.552   2.181   5.633  0.3575 -0.6424  2.6457
   15Eth    Hco 2404   1.461   2.026   5.652 -1.6713  0.9570 -0.4865
   15Eth     Ch 2405   1.412   2.120   5.476 -0.2264 -0.4246  0.4694
   15Eth    Hcc 2406   1.352   2.205   5.510  0.6117  0.1967  0.4207
   15Eth    Hcc 2407   1.344   2.040   5.446 -0.0038 -0.2567 -0.5016
   15Eth    Hcc 2408   1.472   2.155   5.392 -0.8962 -0.1296  0.1111
   16Eth     Ho 2409   0.456   0.101   6.534 -1.4428  0.8153 -1.6411
   16Eth     Oh 2410   0.386   0.038   6.535 -0.1700 -0.6466 -0.2320
   16Eth     Co 2411   0.335   0.018   6.666 -0.4082  0.4827  0.4772
   16Eth    Hco 2412   0.380   0.096   6.728  0.0703  0.7611 -0.2212
   16Eth    Hco 2413   0.357  -0.083   6.700 -0.3703 -0.0915 -1.2148
   16Eth     Ch 2414   0.187   0.042   6.673 -0.6673  0.7385  0.3866
   16Eth    Hcc 2415   0.129  -0.041   6.631  0.2522  0.3764 -0.1673
   16Eth    Hcc 2416   0.159   0.129   6.614  0.9423  1.0905  0.1287
   16Eth    Hcc 2417   0.142   0.052   6.772 -0.4204 -0.5222  0.6450
   17Eth     Ho 2418   0.507   3.258   2.848 -0.9866 -3.9547 -0.1245
   17Eth     Oh 2419   0.432   3.286   2.799 -0.1153  0.1780  0.7254
   17Eth     Co 2420   0.322   3.262   2.881  0.4700  0.1612 -0.5216
   17Eth    Hco 2421   0.348   3.319   2.970  1.5236 -0.1749 -0.6052
   17Eth    Hco 2422   0.308   3.157   2.906  1.8235  0.1301  0.1682
   17Eth     Ch 2423   0.200   3.306   2.797 -0.2618  0.5247  0.5645
   17Eth    Hcc 2424   0.114   3.323   2.862  0.5707  1.8754  1.3346
   17Eth    Hcc 2425   0.184   3.241   2.711  1.2051  2.0801 -0.9224
   17Eth    Hcc 2426   0.217   3.405   2.754 -0.2262  0.3681  0.2208
   18Eth     Ho 2427   0.271   0.656   9.014 -0.6198 -0.1678 -0.2991
   18Eth     Oh 2428   0.185   0.694   9.018 -0.3784  0.3800 -0.1870
   18Eth     Co 2429   0.098   0.625   8.930 -0.0559 -0.0235  0.2252
   18Eth    Hco 2430   0.163   0.607   8.844  0.5918  1.3796  0.3964
   18Eth    Hco 2431   0.007   0.683   8.914 -0.3575 -0.7531 -0.7156
   18Eth     Ch 2432   0.080   0.484   8.993 -0.3471  0.6242 -0.4844
   18Eth    Hcc 2433   0.171   0.426   9.003 -1.1434 -0.9670 -2.2132
   18Eth    Hcc 2434   0.006   0.440   8.925 -0.5487  1.0519 -0.5453
   18Eth    Hcc 2435   0.035   0.473   9.092 -0.8240  0.4307 -0.7177
   19Eth     Ho 2436   0.355   0.592   5.765 -0.2713  1.9695 -0.4716
   19Eth     Oh 2437   0.270   0.571   5.731  0.3042 -0.0263 -0.7624
   19Eth     Co 2438   0.259   0.454   5.652  0.1322  0.4096 -0.2303
   19Eth    Hco 2439   0.172   0.459   5.587 -0.3761  0.7921  0.4708
   19Eth    Hco 2440   0.229   0.375   5.721  1.3871 -0.2773 -0.4603
   19Eth     Ch 2441   0.393   0.439   5.573  0.6535 -0.1812 -0.2396
   19Eth    Hcc 2442   0.399   0.338   5.531  1.9279 -0.5569  0.8122
   19Eth    Hcc 2443   0.475   0.469   5.637 -1.4067  0.5494  2.1052
   19Eth    Hcc 2444   0.379   0.506   5.488  1.1420 -0.6766 -0.7188
   20Eth     Ho 2445   0.103   3.183   9.306  1.3986  0.0234  0.4094
   20Eth     Oh 2446   0.043   3.198   9.377  0.6947 -0.4513 -0.0900
   20Eth     Co 2447  -0.063   3.115   9.346 -0.6892  0.1867 -0.2051
   20Eth    Hco 2448  -0.041   3.011   9.372 -2.8995  0.0259  1.1497
   20Eth    Hco 2449  -0.084   3.115   9.239  0.0247 -0.4474 -0.3567
   20Eth     Ch 2450  -0.185   3.153   9.438  0.1679  0.0347  0.0217
   20Eth    Hcc 2451  -0.271   3.092   9.412 -0.3127  0.7414 -0.0334
   20Eth    Hcc 2452  -0.207   3.258   9.418 -1.2338 -0.8145 -3.0851
   20Eth    Hcc 2453  -0.162   3.138   9.544 -0.2692 -1.5316 -0.0898
   21Eth     Ho 2454   2.631   0.815   2.783  1.0721 -0.9053  0.9104
   21Eth     Oh 2455   2.681   0.861   2.719 -0.0352 -0.0776  0.6260
   21Eth     Co 2456   2.646   0.994   2.731 -0.3404 -0.0449  0.2734
   21Eth    Hco 2457   2.717   1.045   2.796 -0.4951 -0.1816  0.5553
   21Eth    Hco 2458   2.553   0.986   2.788 -0.0182 -0.6420  0.7193
   21Eth     Ch 2459   2.623   1.057   2.588 -0.6860 -0.4512 -0.3821
   21Eth    Hcc 2460   2.713   1.053   2.527  0.1981  1.0122  0.7933
   21Eth    Hcc 2461   2.603   1.164   2.585  1.1055 -0.1332 -2.5222
   21Eth    Hcc 2462   2.543   0.998   2.543 -0.0872 -3.2878  2.1089
   22Eth     Ho 2463   1.178   2.706   9.556  0.1944  0.2151 -0.8846
   22Eth     Oh 2464   1.193   2.775   9.618 -0.0145 -0.2050 -0.3572
   22Eth     Co 2465   1.284   2.725   9.719  0.0552  0.0559  0.0393
   22Eth    Hco 2466   1.386   2.731   9.682 -0.0142 -0.1786 -0.1974
   22Eth    Hco 2467   1.244   2.625   9.741  0.0905  0.0423  0.0395
   22Eth     Ch 2468   1.266   2.806   9.850 -0.0567 -0.1387 -0.1330
   22Eth    Hcc 2469   1.301   2.909   9.847  1.5946 -0.6257  1.3413
   22Eth    Hcc 2470   1.333   2.753   9.917  0.5738 -0.1978 -0.8023
   22Eth    Hcc 2471   1.169   2.802   9.899 -0.3605 -0.4199 -0.7584
   23Eth     Ho 2472   2.218   2.546   5.386  1.5219  0.6227  1.2206
   23Eth     Oh 2473   2.284   2.509   5.330  0.7326  0.6011  0.2846
   23Eth     Co 2474   2.262   2.372   5.292  0.7481  0.6942 -0.1830
   23Eth    Hco 2475   2.153   2.365   5.291  0.8288 -2.1726  1.9957
   23Eth    Hco 2476   2.294   2.292   5.359 -0.8900  0.1699  0.0028
   23Eth     Ch 2477   2.332   2.353   5.155  0.0340 -0.1126 -0.5715
   23Eth    Hcc 2478   2.342   2.246   5.134  0.5239  0.0170 -1.0078
   23Eth    Hcc 2479   2.428   2.401   5.139  0.9630 -1.8796 -0.4152
   23Eth    Hcc 2480   2.266   2.386   5.075  0.4046  1.4167 -0.2578
   24Eth     Ho 2481   2.254   1.548   1.588 -1.1729 -0.8944  1.0516
   24Eth     Oh 2482   2.198   1.530   1.514  0.0094 -0.2273 -0.0389
   24Eth     Co 2483   2.210   1.384   1.503  0.2900 -0.3615  0.1146
   24Eth    Hco 2484   2.158   1.355   1.594 -1.4066 -0.7283 -0.9513
   24Eth    Hco 2485   2.314   1.352   1.515  0.4829  0.3357  0.3141
   24Eth     Ch 2486   2.132   1.324   1.380  0.1185  0.2066 -0.1624
   24Eth    Hcc 2487   2.030   1.361   1.376 -0.1351 -0.0865  2.6676
   24Eth    Hcc 2488   2.133   1.215   1.387 -0.9411  0.2811  1.5046
   24Eth    Hcc 2489   2.173   1.350   1.283  1.1713 -2.7364 -0.5672
   25Eth     Ho 2490   2.158   2.595   7.578 -1.5017  0.2063  0.5841
   25Eth     Oh 2491   2.121   2.647   7.510  0.0493  0.5415 -0.0141
   25Eth     Co 2492   1.985   2.611   7.507  0.0959 -0.1524  0.9313
   25Eth    Hco 2493   1.956   2.605   7.611 -2.9598 -1.6512  0.0626
   25Eth    Hco 2494   1.978   2.511   7.465  0.0219 -0.1849  1.0243
   25Eth     Ch 2495   1.901   2.715   7.431  0.2014  1.0021  0.1717
   25Eth    Hcc 2496   1.917   2.821   7.455 -0.8087  1.3241 -0.5665
   25Eth    Hcc 2497   1.795   2.697   7.443  0.6685 -0.7416  1.9077
   25Eth    Hcc 2498   1.926   2.700   7.325 -0.0201  2.1242 -0.0509
   26Eth     Ho 2499   1.582   2.986   9.773  0.1287  1.5259 -3.9859
   26Eth     Oh 2500   1.520   3.056   9.779 -0.3060  0.8684  0.5178
   26Eth     Co 2501   1.539   3.118   9.895  0.2517  0.6517 -0.7147
   26Eth    Hco 2502   1.644   3.144   9.902  0.1816  0.4876  1.1155
   26Eth    Hco 2503   1.508   3.056   9.979  3.5453 -1.8305 -1.2507
   26Eth     Ch 2504   1.458   3.255   9.896  0.5669  0.0018  0.0433
   26Eth    Hcc 2505   1.474   3.316   9.984  1.1491 -1.5238  1.0034
   26Eth    Hcc 2506   1.351   3.232   9.888  0.2050  1.5150  0.4198
   26Eth    Hcc 2507   1.498   3.324   9.822  2.5312 -2.0497 -0.8834
   27Eth     Ho 2508   0.448   3.301   9.518 -1.1451  1.4027 -0.3441
   27Eth     Oh 2509   0.414   3.236   9.577  0.2818  0.7517 -0.2144
   27Eth     Co 2510   0.316   3.317   9.642 -0.0832 -0.2261  0.0535
   27Eth    Hco 2511   0.267   3.376   9.564 -3.4090 -1.0420  1.4240
   27Eth    Hco 2512   0.383   3.363   9.714 -0.3344 -0.3666  0.3771
   27Eth     Ch 2513   0.213   3.225   9.703 -0.3195  0.1221 -0.1107
   27Eth    Hcc 2514   0.140   3.197   9.626 -2.3627  0.6048  1.5789
   27Eth    Hcc 2515   0.157   3.292   9.769 -0.5183  0.1888 -0.3478
   27Eth    Hcc 2516   0.247   3.137   9.758  1.6429  0.9083 -0.0330
   28Eth     Ho 2517   2.927   1.678   5.169 -0.3830  0.7119  0.2492
   28Eth     Oh 2518   2.988   1.649   5.235 -0.3406 -0.3833 -0.2471
   28Eth     Co 2519   2.956   1.524   5.271  0.4709  0.7723  0.4639
   28Eth    Hco 2520   2.849   1.515   5.256  1.0233  0.3203 -3.7292
   28Eth    Hco 2521   2.971   1.502   5.377  1.1773  0.8652  0.3880
   28Eth     Ch 2522   3.015   1.423   5.176 -0.7389  0.3107  0.0022
   28Eth    Hcc 2523   3.123   1.429   5.168 -0.8391 -1.9062 -4.3870
   28Eth    Hcc 2524   2.975   1.433   5.075  0.1485  3.4650 -0.0970
   28Eth    Hcc 2525   2.988   1.322   5.207 -3.0364  0.8844 -0.0516
   29Eth     Ho 2526   2.743   0.916   3.596  2.6151  2.7902 -1.9877
   29Eth     Oh 2527   2.737   0.866   3.516  0.1388 -0.3686  0.0516
   29Eth     Co 2528   2.742   0.735   3.561  0.5909  0.0970  0.5911
   29Eth    Hco 2529   2.693   0.726   3.658  2.0299 -0.8940  1.2432
   29Eth    Hco 2530   2.848   0.729   3.585  0.3664  1.5869  2.0268
   29Eth     Ch 2531   2.677   0.630   3.471 -0.4763  0.4122 -1.2018
   29Eth    Hcc 2532   2.716   0.641   3.370  1.3198 -1.6514 -0.7756
   29Eth    Hcc 2533   2.572   0.646   3.445 -0.9062  0.0333  0.2283
   29Eth    Hcc 2534   2.686   0.524   3.494 -0.5570  0.4883 -0.8226
   30Eth     Ho 2535   0.133   2.200   7.401 -1.1397  1.9763 -1.7785
   30Eth     Oh 2536   0.069   2.137   7.373 -0.0690  0.0413 -0.0522
   30Eth     Co 2537   0.132   2.053   7.283  0.0131  0.1128 -0.1128
   30Eth    Hco 2538   0.195   1.984   7.338  3.4971  1.1803 -2.6480
   30Eth    Hco 2539   0.198   2.111   7.218 -1.0961  1.7216  0.1664
   30Eth     Ch 2540   0.037   1.978   7.197 -0.2287  0.7965  0.3047
   30Eth    Hcc 2541  -0.003   2.036   7.114 -2.0755  3.3290  2.8371
   30Eth    Hcc 2542  -0.050   1.936   7.247  0.4247  1.1808  1.8239
   30Eth    Hcc 2543   0.083   1.889   7.154 -1.7356  0.9465 -1.6654
   31Eth     Ho 2544   0.832   2.594  10.073  0.5546  0.8740 -1.1639
   31Eth     Oh 2545   0.822   2.529  10.006 -0.3877 -0.5964  0.3706
   31Eth     Co 2546   0.912   2.569   9.906  0.4172 -0.0052  0.2093
   31Eth    Hco 2547   1.003   2.622   9.931 -0.0962  0.5868  0.8513
   31Eth    Hco 2548   0.862   2.641   9.841 -1.0239 -1.7602 -0.7123
   31Eth     Ch 2549   0.952   2.441   9.833  0.8247 -0.6768 -0.0617
   31Eth    Hcc 2550   1.013   2.471   9.748 -0.9233  2.3700 -0.3054
   31Eth    Hcc 2551   0.863   2.393   9.792 -0.0656  2.4112 -1.9118
   31Eth    Hcc 2552   1.006   2.377   9.902 -1.7728 -2.4462  0.4196
   32Eth     Ho 2553   1.041   2.118   2.598 -0.6689  1.6795 -3.0240
   32Eth     Oh 2554   0.958   2.124   2.642  0.6716  0.2766 -0.1489
   32Eth     Co 2555   0.956   2.245   2.714  0.1754 -0.9960 -0.0733
   32Eth    Hco 2556   0.931   2.317   2.636 -1.5008 -2.4941 -0.9680
   32Eth    Hco 2557   1.053   2.266   2.758 -0.0790  1.4271 -0.5913
   32Eth     Ch 2558   0.843   2.231   2.811  0.2792 -0.2859  0.5272
   32Eth    Hcc 2559   0.840   2.150   2.884 -1.6770  0.0374  0.8196
   32Eth    Hcc 2560   0.750   2.210   2.760 -0.1815  0.0161  1.2372
   32Eth    Hcc 2561   0.822   2.325   2.862  0.2896  0.8408 -1.5233
   33Eth     Ho 2562   0.532   1.636   4.464  0.3178 -0.1870 -0.3164
   33Eth     Oh 2563   0.452   1.623   4.417  0.2475 -0.4801 -0.1209
   33Eth     Co 2564   0.474   1.535   4.314 -0.2295  0.3213  0.2958
   33Eth    Hco 2565   0.496   1.439   4.360  0.6065  1.3313  2.0545
   33Eth    Hco 2566   0.559   1.563   4.252  0.8819 -1.6626  0.8616
   33Eth     Ch 2567   0.345   1.531   4.231  0.1325  0.2455  0.1986
   33Eth    Hcc 2568   0.262   1.522   4.301  1.0262  1.7557  1.5016
   33Eth    Hcc 2569   0.347   1.441   4.169 -0.7900 -0.0404  0.5769
   33Eth    Hcc 2570   0.342   1.618   4.167 -0.5989 -1.5532 -2.2925
   34Eth     Ho 2571   3.148   1.531   4.577 -0.0830  1.4788  0.9605
   34Eth     Oh 2572   3.135   1.472   4.649 -0.0086 -0.0160 -0.2368
   34Eth     Co 2573   3.103   1.542   4.763 -0.4943  0.2698  0.1230
   34Eth    Hco 2574   3.136   1.645   4.746  2.0360 -0.3489  1.0158
   34Eth    Hco 2575   3.166   1.502   4.843 -1.4162 -0.0294  0.7029
   34Eth     Ch 2576   2.955   1.522   4.794 -0.1633  0.1214 -0.5323
   34Eth    Hcc 2577   2.897   1.586   4.728  3.0737  0.8516 -2.7613
   34Eth    Hcc 2578   2.932   1.578   4.885 -0.8794  0.6864 -1.0541
   34Eth    Hcc 2579   2.931   1.416   4.789  0.0134  0.1177 -1.4329
   35Eth     Ho 2580   0.778   2.893   6.587 -0.8815 -1.7442  0.4852
   35Eth     Oh 2581   0.753   2.907   6.497 -0.0376  0.7408  0.5858
   35Eth     Co 2582   0.638   2.839   6.473 -0.1067 -0.0734  0.4750
   35Eth    Hco 2583   0.579   2.868   6.560  0.5564  0.3157  0.8027
   35Eth    Hco 2584   0.653   2.732   6.484  0.4328 -0.0093  0.3500
   35Eth     Ch 2585   0.569   2.856   6.335 -0.0754 -0.1037 -0.0663
   35Eth    Hcc 2586   0.622   2.805   6.255 -3.3463 -2.6756 -0.6878
   35Eth    Hcc 2587   0.546   2.956   6.297  2.6988  1.3354  1.8342
   35Eth    Hcc 2588   0.473   2.807   6.348  0.3421 -0.8837  0.0895
   36Eth     Ho 2589   2.563   2.465   8.314  0.8631  0.0428  0.1671
   36Eth     Oh 2590   2.527   2.529   8.373  0.4245  0.0656 -0.1253
   36Eth     Co 2591   2.624   2.634   8.395 -0.3541  0.5880 -0.1884
   36Eth    Hco 2592   2.642   2.682   8.298 -0.9737  0.2544 -0.4713
   36Eth    Hco 2593   2.723   2.604   8.429 -0.3146  0.5007 -0.3791
   36Eth     Ch 2594   2.560   2.740   8.487  0.2687 -0.8882 -0.2820
   36Eth    Hcc 2595   2.627   2.820   8.517  0.5392 -0.2519 -2.4871
   36Eth    Hcc 2596   2.515   2.699   8.577  0.3372  1.8921  1.0517
   36Eth    Hcc 2597   2.485   2.790   8.425  1.8541  1.1800 -0.5674
   37Eth     Ho 2598   2.639   1.415   5.902  0.5301 -0.2122 -0.9105
   37Eth     Oh 2599   2.711   1.383   5.954 -0.2853 -0.5589  0.0262
   37Eth     Co 2600   2.648   1.306   6.060 -0.4084  0.0692 -0.6176
   37Eth    Hco 2601   2.657   1.198   6.056 -0.8566 -0.0343  0.7555
   37Eth    Hco 2602   2.540   1.316   6.052 -0.4790 -0.5622 -0.4616
   37Eth     Ch 2603   2.684   1.378   6.191 -0.0439  0.6391  0.2904
   37Eth    Hcc 2604   2.782   1.358   6.235  0.0250 -0.0783 -0.1897
   37Eth    Hcc 2605   2.618   1.350   6.273  2.1941 -1.3998  1.4829
   37Eth    Hcc 2606   2.673   1.486   6.178  1.7650  0.8397  0.2772
   38Eth     Ho 2607   2.608   2.567   8.915 -0.3943  0.5024  0.8834
   38Eth     Oh 2608   2.695   2.595   8.937  0.0953 -0.1394 -0.1920
   38Eth     Co 2609   2.731   2.690   8.838  0.4121  0.3326 -0.0208
   38Eth    Hco 2610   2.717   2.797   8.854 -0.0891  0.2988 -0.2117
   38Eth    Hco 2611   2.688   2.657   8.743  1.1666  0.6214 -0.4712
   38Eth     Ch 2612   2.882   2.672   8.819  0.3217 -0.4645 -0.3507
   38Eth    Hcc 2613   2.955   2.674   8.900 -1.9110 -0.4100  1.7444
   38Eth    Hcc 2614   2.910   2.754   8.754 -0.1829  0.0667  0.1011
   38Eth    Hcc 2615   2.902   2.585   8.756  1.1194 -0.1362 -0.5485
   39Eth     Ho 2616   2.478   2.958   3.520 -0.4315  1.3221  1.4719
   39Eth     Oh 2617   2.486   2.882   3.574 -0.2983 -0.0715 -0.4359
   39Eth     Co 2618   2.516   2.904   3.710 -0.5026 -0.1324  0.0477
   39Eth    Hco 2619   2.420   2.892   3.762 -0.6010 -0.9179 -0.2989
   39Eth    Hco 2620   2.548   3.008   3.712 -1.5653  0.1893  0.6168
   39Eth     Ch 2621   2.630   2.818   3.768 -0.3721 -0.0097 -0.3385
   39Eth    Hcc 2622   2.624   2.714   3.736 -0.5190 -0.6282  1.6401
   39Eth    Hcc 2623   2.627   2.818   3.877  0.9885 -1.2261 -0.2889
   39Eth    Hcc 2624   2.733   2.848   3.747  0.2531 -0.6636  1.6828
   40Eth     Ho 2625   1.742   1.597   6.390 -1.8608  0.7242  0.1333
   40Eth     Oh 2626   1.730   1.527   6.328  0.0849  0.1855  0.3309
   40Eth     Co 2627   1.615   1.559   6.248 -0.1084 -0.0828  0.0637
   40Eth    Hco 2628   1.628   1.652   6.191  2.3527 -0.0427  0.6309
   40Eth    Hco 2629   1.522   1.570   6.303 -0.1625 -0.3148  0.0180
   40Eth     Ch 2630   1.581   1.447   6.149 -0.7612  0.1810 -1.2390
   40Eth    Hcc 2631   1.503   1.468   6.076  0.0360  0.0721 -2.1383
   40Eth    Hcc 2632   1.566   1.350   6.197 -0.8164  1.3448  1.1574
   40Eth    Hcc 2633   1.672   1.450   6.088 -0.8390 -0.8442 -1.4199
   41Eth     Ho 2634   1.686   1.227   9.781 -0.3955 -0.1093 -1.0195
   41Eth     Oh 2635   1.612   1.219   9.838 -0.0705  0.3902 -0.5118
   41Eth     Co 2636   1.603   1.088   9.882 -0.3453  0.0565 -0.0524
   41Eth    Hco 2637   1.702   1.049   9.908  0.2972  2.2313  0.9016
   41Eth    Hco 2638   1.570   1.026   9.799 -1.7166  1.9215 -0.9305
   41Eth     Ch 2639   1.505   1.085   9.996 -0.2434  0.0894 -0.0694
   41Eth    Hcc 2640   1.408   1.090   9.946 -0.0653 -1.3588 -0.5805
   41Eth    Hcc 2641   1.519   1.169  10.064  1.3137 -1.7655  1.9634
   41Eth    Hcc 2642   1.518   0.997  10.059 -0.8837  1.0995  1.4720
   42Eth     Ho 2643   1.317   3.217   8.385 -0.0100 -0.3517  1.1351
   42Eth     Oh 2644   1.369   3.146   8.352  0.6979  0.4583  0.4932
   42Eth     Co 2645   1.373   3.049   8.457 -0.5068  0.2406 -0.4011
   42Eth    Hco 2646   1.275   3.004   8.472 -1.2027  1.5346 -1.0068
   42Eth    Hco 2647   1.424   3.089   8.546 -1.1559 -1.2505  0.6522
   42Eth     Ch 2648   1.474   2.937   8.422  0.2131  0.0686  0.2906
   42Eth    Hcc 2649   1.425   2.872   8.349  0.0513  2.4375 -1.7743
   42Eth    Hcc 2650   1.501   2.874   8.507 -1.2258 -1.9984 -0.7250
   42Eth    Hcc 2651   1.567   2.975   8.380  0.6578  0.2049  1.3752
   43Eth     Ho 2652   3.242   3.292   8.990  0.4948  1.2598 -0.2348
   43Eth     Oh 2653   3.163   3.286   8.940  0.0935  0.5458  0.4635
   43Eth     Co 2654   3.110   3.415   8.925 -0.5139  0.0583  0.8741
   43Eth    Hco 2655   3.134   3.466   9.018  0.0705  1.2196  0.1024
   43Eth    Hco 2656   3.001   3.404   8.920 -0.3401 -0.9421 -1.6364
   43Eth     Ch 2657   3.168   3.490   8.806  0.0518  0.6448  0.1424
   43Eth    Hcc 2658   3.120   3.473   8.710 -1.6424  0.5340  0.9835
   43Eth    Hcc 2659   3.277   3.487   8.800  0.0482 -2.5108  1.0108
   43Eth    Hcc 2660   3.144   3.596   8.814  0.3216  0.7067  0.1242
   44Eth     Ho 2661   1.479   0.928   8.051  2.0038 -0.4266 -1.1492
   44Eth     Oh 2662   1.490   0.847   8.098  0.4920  0.0821  0.1218
   44Eth     Co 2663   1.364   0.805   8.139 -0.6111 -0.3912 -1.0703
   44Eth    Hco 2664   1.350   0.702   8.107 -0.8769  0.0668 -2.4686
   44Eth    Hco 2665   1.296   0.878   8.096  0.6322  1.3030 -0.2186
   44Eth     Ch 2666   1.351   0.812   8.290 -0.6178  0.3410 -0.1501
   44Eth    Hcc 2667   1.361   0.909   8.338 -1.3698  0.2709  0.1490
   44Eth    Hcc 2668   1.428   0.750   8.336  1.2213  1.7903 -1.2273
   44Eth    Hcc 2669   1.263   0.769   8.339 -0.3820  1.7006  1.4737
   45Eth     Ho 2670   0.784   1.559   1.536  0.8079  2.0018  0.4619
   45Eth     Oh 2671   0.772   1.572   1.443  0.2587 -1.0243  0.0510
   45Eth     Co 2672   0.634   1.585   1.397 -0.0273 -0.0732 -0.4290
   45Eth    Hco 2673   0.577   1.497   1.426  0.9187 -0.9519 -1.2150
   45Eth    Hco 2674   0.627   1.604   1.290  0.4988 -3.0023 -1.0253
   45Eth     Ch 2675   0.564   1.700   1.467 -0.2760  0.1183  0.5765
   45Eth    Hcc 2676   0.565   1.688   1.575  0.2102 -0.5281  0.5011
   45Eth    Hcc 2677   0.461   1.715   1.436 -0.3715 -0.0824  0.8025
   45Eth    Hcc 2678   0.619   1.792   1.446  1.0497 -0.3258  2.0018
   46Eth     Ho 2679   2.781   3.074   8.499 -1.6068  1.4413 -0.5636
   46Eth     Oh 2680   2.774   3.007   8.434 -0.3642  0.5037  0.2439
   46Eth     Co 2681   2.876   3.040   8.338  0.1429 -0.2237  0.2234
   46Eth    Hco 2682   2.974   3.013   8.376  0.3454 -1.7072 -1.2996
   46Eth    Hco 2683   2.876   3.148   8.322  0.2912 -0.3954 -1.0548
   46Eth     Ch 2684   2.836   2.964   8.208 -0.0735 -0.5160  0.8535
   46Eth    Hcc 2685   2.732   2.945   8.183 -0.1755  2.0600 -0.9128
   46Eth    Hcc 2686   2.891   2.870   8.209 -0.4868 -0.7498  1.7636
   46Eth    Hcc 2687   2.868   3.026   8.124 -1.3389 -1.2456 -0.1921
   47Eth     Ho 2688   1.595   2.718   1.487 -0.4751 -1.2668 -1.1134
   47Eth     Oh 2689   1.634   2.660   1.550 -0.2176  0.1971  0.0849
   47Eth     Co 2690   1.773   2.699   1.544  0.8162  0.1469 -0.1431
   47Eth    Hco 2691   1.781   2.807   1.559 -0.3966  0.4315 -1.4024
   47Eth    Hco 2692   1.813   2.684   1.443  1.1120  0.1798 -0.0317
   47Eth     Ch 2693   1.851   2.603   1.636  0.5056  0.5430 -0.5377
   47Eth    Hcc 2694   1.805   2.585   1.733  1.5845 -1.2800 -0.3380
   47Eth    Hcc 2695   1.949   2.646   1.658  0.1151  0.6779  0.9959
   47Eth    Hcc 2696   1.875   2.505   1.594  0.0099 -0.7502  2.1183
   48Eth     Ho 2697   1.737   3.405   6.286  1.1663 -0.9857  2.0743
   48Eth     Oh 2698   1.827   3.425   6.267  0.3203  0.4723 -0.7533
   48Eth     Co 2699   1.864   3.511   6.375  0.9241 -0.0044  0.6423
   48Eth    Hco 2700   1.898   3.461   6.465 -1.2259 -1.4940  0.6654
   48Eth    Hco 2701   1.764   3.553   6.388 -0.5008 -3.1695  0.2196
   48Eth     Ch 2702   1.944   3.632   6.337 -0.2210 -0.0205 -0.1199
   48Eth    Hcc 2703   1.907   3.668   6.241 -0.1257  2.0626  0.5909
   48Eth    Hcc 2704   2.042   3.592   6.313  0.0513  0.6854 -0.2045
   48Eth    Hcc 2705   1.951   3.709   6.415  0.8748  1.0436 -1.2490
   49Eth     Ho 2706   2.360   2.713   1.516 -0.6886  1.0640 -0.3932
   49Eth     Oh 2707   2.272   2.680   1.512 -0.3015 -0.0005 -0.2423
   49Eth     Co 2708   2.291   2.542   1.467  0.4336 -0.6669  0.6619
   49Eth    Hco 2709   2.381   2.510   1.520 -0.6046 -1.6214  1.8924
   49Eth    Hco 2710   2.302   2.555   1.360 -1.0906  0.4116  0.6322
   49Eth     Ch 2711   2.174   2.461   1.507 -0.3656 -0.3244 -0.4635
   49Eth    Hcc 2712   2.172   2.432   1.612 -1.6997 -0.6642 -0.5734
   49Eth    Hcc 2713   2.178   2.363   1.460  0.4333 -0.6206  0.2076
   49Eth    Hcc 2714   2.079   2.511   1.486  0.2672  0.5522 -1.3150
   50Eth     Ho 2715   3.222   3.437   2.242  0.2550 -1.6083 -1.2160
   50Eth     Oh 2716   3.206   3.479   2.160  0.3339 -0.1229 -0.4982
   50Eth     Co 2717   3.299   3.588   2.146  0.5028  0.3285 -0.2546
   50Eth    Hco 2718   3.394   3.546   2.178 -1.0851 -1.2039  2.6615
   50Eth    Hco 2719   3.283   3.674   2.211 -0.7429 -0.2782  0.2623
   50Eth     Ch 2720   3.283   3.626   2.003 -0.1657  0.5732  0.0622
   50Eth    Hcc 2721   3.372   3.681   1.972  0.7251 -1.4121 -1.0046
   50Eth    Hcc 2722   3.186   3.676   1.998 -1.7531 -2.4594 -0.9774
   50Eth    Hcc 2723   3.290   3.544   1.931 -1.3550  0.1043  0.4609
   51Eth     Ho 2724   0.796   3.226   6.408 -0.1174 -0.8194 -0.2277
   51Eth     Oh 2725   0.888   3.208   6.410 -0.0491 -0.3390  1.1484
   51Eth     Co 2726   0.931   3.189   6.282  0.6208  0.4038 -0.1272
   51Eth    Hco 2727   0.870   3.254   6.220  2.0173  1.4440 -0.4307
   51Eth    Hco 2728   0.905   3.088   6.249 -0.3237  1.6401 -3.3187
   51Eth     Ch 2729   1.080   3.190   6.267 -0.6441 -0.6261 -0.1335
   51Eth    Hcc 2730   1.117   3.287   6.299 -1.1759 -1.5373  3.5391
   51Eth    Hcc 2731   1.108   3.179   6.163  0.7245  1.4995 -0.0221
   51Eth    Hcc 2732   1.127   3.123   6.339 -0.9346  1.4798  2.0735
   52Eth     Ho 2733   1.801   0.698   6.972  0.6509 -1.0560  1.9358
   52Eth     Oh 2734   1.874   0.754   6.954 -0.2776 -0.4414 -0.0216
   52Eth     Co 2735   1.988   0.734   7.042  0.4682  0.0296 -0.5008
   52Eth    Hco 2736   1.955   0.741   7.146  1.5276 -0.2890 -0.1373
   52Eth    Hco 2737   2.064   0.807   7.016 -0.4108  1.1495 -0.0019
   52Eth     Ch 2738   2.044   0.597   7.028 -0.9875  0.1870  0.1668
   52Eth    Hcc 2739   2.069   0.578   6.924 -2.3289  0.0185 -0.1313
   52Eth    Hcc 2740   1.982   0.514   7.062 -1.1708  0.3173  0.1439
   52Eth    Hcc 2741   2.131   0.598   7.095 -1.1291  0.8888  0.3497
   53Eth     Ho 2742   0.982   0.683   4.554 -2.4497  0.9966  1.3204
   53Eth     Oh 2743   0.936   0.639   4.485  0.0445 -0.4830  0.5171
   53Eth     Co 2744   0.885   0.729   4.391 -0.1279  0.2801 -0.3820
   53Eth    Hco 2745   0.964   0.789   4.347  0.5557  0.5076  1.1582
   53Eth    Hco 2746   0.816   0.805   4.427 -0.1043  0.1402 -0.0407
   53Eth     Ch 2747   0.823   0.651   4.276  0.5707 -0.0374 -0.8047
   53Eth    Hcc 2748   0.782   0.708   4.193 -0.0223  1.6381  0.6070
   53Eth    Hcc 2749   0.733   0.612   4.323  1.8038  0.4378  2.0315
   53Eth    Hcc 2750   0.892   0.573   4.245  3.2777  2.0424 -0.1328
   54Eth     Ho 2751   3.108   1.458   2.499 -0.0902 -0.5983  0.0044
   54Eth     Oh 2752   3.030   1.475   2.449  0.1518  0.4609 -0.0362
   54Eth     Co 2753   3.020   1.607   2.418 -0.2798 -0.4625  0.6747
   54Eth    Hco 2754   3.114   1.634   2.370 -1.2338  1.4176 -0.1828
   54Eth    Hco 2755   3.034   1.658   2.514 -0.4912  0.4194  0.2373
   54Eth     Ch 2756   2.891   1.635   2.346 -0.1078 -0.1308  0.0094
   54Eth    Hcc 2757   2.803   1.599   2.398 -0.0608 -0.8658 -0.4043
   54Eth    Hcc 2758   2.892   1.600   2.242 -1.9602 -0.3593  0.0640
   54Eth    Hcc 2759   2.882   1.743   2.335 -3.4860 -0.3636  0.0257
   55Eth     Ho 2760   3.043   3.306   1.549  1.9941  2.3863 -0.1623
   55Eth     Oh 2761   3.122   3.256   1.540  0.4327 -0.1637 -0.1708
   55Eth     Co 2762   3.139   3.201   1.667 -0.3285  0.0269  0.8619
   55Eth    Hco 2763   3.205   3.117   1.649 -1.6821 -0.5111 -1.8744
   55Eth    Hco 2764   3.040   3.171   1.702 -0.9211  1.4910  0.4944
   55Eth     Ch 2765   3.206   3.296   1.772  0.0851  0.5217  0.1992
   55Eth    Hcc 2766   3.303   3.324   1.732  0.3147  1.5322  1.4558
   55Eth    Hcc 2767   3.232   3.240   1.862  1.7027  0.8913 -0.0281
   55Eth    Hcc 2768   3.152   3.388   1.797  0.4975  0.9656 -0.5233
   56Eth     Ho 2769   3.062   0.295   4.438  0.1294 -0.7673  0.6631
   56Eth     Oh 2770   3.127   0.363   4.441 -0.3374 -0.2631 -0.5535
   56Eth     Co 2771   3.064   0.485   4.450 -0.4780  0.6049 -0.9120
   56Eth    Hco 2772   3.121   0.564   4.500 -1.4973  1.5943 -1.2952
   56Eth    Hco 2773   2.977   0.470   4.513  0.0937 -1.0353 -0.5034
   56Eth     Ch 2774   3.032   0.513   4.301  0.0546  0.1314 -0.4436
   56Eth    Hcc 2775   2.989   0.612   4.289  1.4093  0.8917  0.8106
   56Eth    Hcc 2776   2.966   0.437   4.258  0.7979 -0.4954 -0.4901
   56Eth    Hcc 2777   3.121   0.518   4.237 -0.1883  0.3453 -0.7644
   57Eth     Ho 2778   0.555   1.159   1.743  0.6088 -0.4696  0.8884
   57Eth     Oh 2779   0.471   1.200   1.750  0.4436 -0.8377  1.1000
   57Eth     Co 2780   0.511   1.337   1.766  0.2586  0.4326 -0.2357
   57Eth    Hco 2781   0.562   1.369   1.676  1.3608 -0.3557  0.1002
   57Eth    Hco 2782   0.591   1.341   1.839 -0.1835 -0.6239  0.3275
   57Eth     Ch 2783   0.390   1.426   1.795  0.1578 -0.7285 -0.5390
   57Eth    Hcc 2784   0.429   1.528   1.793 -0.2739 -0.5735 -1.0242
   57Eth    Hcc 2785   0.341   1.411   1.891  0.2284 -2.1129 -0.7128
   57Eth    Hcc 2786   0.314   1.432   1.717  1.0130  0.6617 -1.2954
   58Eth     Ho 2787   0.075   2.988   1.457  0.5385  0.4296 -0.7448
   58Eth     Oh 2788   0.126   2.975   1.535  0.0813 -0.6357 -0.6132
   58Eth     Co 2789   0.171   3.106   1.558 -0.3313 -0.0800 -0.4476
   58Eth    Hco 2790   0.091   3.177   1.536  2.0844  1.9838 -2.8817
   58Eth    Hco 2791   0.256   3.132   1.495  0.5640 -0.0101  0.7556
   58Eth     Ch 2792   0.214   3.139   1.705  0.0307 -0.2277  0.1411
   58Eth    Hcc 2793   0.236   3.245   1.713  2.7699 -0.4495 -3.4579
   58Eth    Hcc 2794   0.309   3.096   1.734 -0.4274  0.3533  2.6117
   58Eth    Hcc 2795   0.134   3.105   1.771  1.5875  0.1276  2.2715
   59Eth     Ho 2796   0.646   3.156   9.871 -1.4495  0.7873  1.9930
   59Eth     Oh 2797   0.706   3.219   9.905  0.0505  0.6130 -0.2617
   59Eth     Co 2798   0.669   3.350   9.852 -0.4101  0.0426  0.3327
   59Eth    Hco 2799   0.561   3.359   9.840 -0.3169  1.5094  0.4225
   59Eth    Hco 2800   0.706   3.361   9.750  0.1637  0.0914  0.5416
   59Eth     Ch 2801   0.719   3.471   9.927 -0.4218  0.1551  0.2943
   59Eth    Hcc 2802   0.687   3.467  10.031  1.0114  0.1160  0.7453
   59Eth    Hcc 2803   0.692   3.562   9.873 -0.3380 -0.5106 -0.8806
   59Eth    Hcc 2804   0.827   3.474   9.913 -0.6816 -3.6602 -3.5945
   60Eth     Ho 2805   0.822   0.375   9.295  0.5637 -1.1915  0.9939
   60Eth     Oh 2806   0.767   0.324   9.239  0.2171  0.2156  0.0324
   60Eth     Co 2807   0.838   0.196   9.230 -1.5195  0.7182  0.1010
   60Eth    Hco 2808   0.813   0.136   9.317  2.0992 -1.0844 -0.0098
   60Eth    Hco 2809   0.946   0.215   9.236 -1.2794 -0.6441  0.2599
   60Eth     Ch 2810   0.817   0.129   9.094  0.2606  1.2150  0.0239
   60Eth    Hcc 2811   0.718   0.084   9.086 -0.1931  2.3681 -0.9077
   60Eth    Hcc 2812   0.885   0.044   9.096 -0.0536  0.9691  0.4631
   60Eth    Hcc 2813   0.843   0.189   9.008 -0.0711  1.8724  0.3762
   61Eth     Ho 2814   2.504   2.898   5.955  0.9562 -1.8334  0.3542
   61Eth     Oh 2815   2.535   2.898   5.866 -0.3374  0.0426 -0.1425
   61Eth     Co 2816   2.576   3.029   5.831 -0.4318  0.4762 -0.4028
   61Eth    Hco 2817   2.628   3.066   5.920 -0.3910  0.6223 -0.4875
   61Eth    Hco 2818   2.475   3.068   5.823 -1.0211 -1.0714 -0.5684
   61Eth     Ch 2819   2.679   3.039   5.711  0.4659 -0.0184  0.0210
   61Eth    Hcc 2820   2.719   3.140   5.711 -1.5303  0.8205 -2.2387
   61Eth    Hcc 2821   2.636   3.026   5.611 -0.7254  2.6584  0.1453
   61Eth    Hcc 2822   2.761   2.969   5.727  0.9112 -0.6425 -4.2965
   62Eth     Ho 2823   2.722   1.024   8.172  0.1640  0.7761 -0.6710
   62Eth     Oh 2824   2.761   0.941   8.193 -0.5893  0.4720 -0.4715
   62Eth     Co 2825   2.795   0.860   8.077 -0.0711 -0.6900  0.4619
   62Eth    Hco 2826   2.873   0.916   8.026 -0.5898 -1.1241 -0.8266
   62Eth    Hco 2827   2.709   0.856   8.010 -0.3055  2.3911  0.4936
   62Eth     Ch 2828   2.836   0.720   8.123  0.1123 -0.2948  0.0179
   62Eth    Hcc 2829   2.767   0.662   8.184 -0.6885  2.5493  1.8788
   62Eth    Hcc 2830   2.919   0.737   8.192 -1.4806 -0.9901  2.1707
   62Eth    Hcc 2831   2.884   0.681   8.033  0.6777 -1.0192  0.6171
   63Eth     Ho 2832   1.211   2.469   5.901 -0.7736  0.6258  1.0330
   63Eth     Oh 2833   1.297   2.502   5.924 -0.1322 -0.5292  0.3506
   63Eth     Co 2834   1.334   2.563   5.799 -0.3055 -0.3333 -0.2094
   63Eth    Hco 2835   1.422   2.625   5.819 -1.7919  2.1320 -1.0181
   63Eth    Hco 2836   1.255   2.632   5.772  1.0098  1.3034  0.0269
   63Eth     Ch 2837   1.378   2.466   5.692 -0.0390 -0.0310 -0.0780
   63Eth    Hcc 2838   1.472   2.415   5.715 -0.0499 -0.0738 -0.1286
   63Eth    Hcc 2839   1.396   2.518   5.598 -1.2254  0.8948  0.1995
   63Eth    Hcc 2840   1.301   2.391   5.670 -0.0110 -0.2737  0.6222
   64Eth     Ho 2841   0.008   0.032   9.531  1.4578 -3.5580 -0.1520
   64Eth     Oh 2842   0.024   0.055   9.621 -0.5907  0.1335 -0.6540
   64Eth     Co 2843  -0.066  -0.017   9.706  0.5066  0.5087 -0.5893
   64Eth    Hco 2844  -0.036  -0.121   9.696  1.0283  0.6311 -0.3173
   64Eth    Hco 2845  -0.170  -0.020   9.671  0.2009 -1.8406  0.4321
   64Eth     Ch 2846  -0.046   0.026   9.855  0.0982  0.1862 -0.0371
   64Eth    Hcc 2847   0.054   0.018   9.895  0.4269  0.9420 -0.6886
   64Eth    Hcc 2848  -0.116  -0.037   9.911  0.1043 -0.3519 -0.6250
   64Eth    Hcc 2849  -0.065   0.131   9.876 -0.3513 -0.5363  3.3713
   65Eth     Ho 2850   2.773   2.987   4.986  0.3892 -0.7207  0.9882
   65Eth     Oh 2851   2.681   2.969   4.993  0.2616 -0.2199  0.5776
   65Eth     Co 2852   2.664   2.841   4.936  0.1051 -0.2588 -0.1703
   65Eth    Hco 2853   2.687   2.762   5.007  0.0513 -1.5094 -1.5114
   65Eth    Hco 2854   2.734   2.836   4.852 -0.8934  1.8125 -1.1787
   65Eth     Ch 2855   2.518   2.841   4.896  0.5280 -0.5113 -0.4822
   65Eth    Hcc 2856   2.485   2.750   4.847  1.1224 -0.5447 -0.8177
   65Eth    Hcc 2857   2.469   2.931   4.858  0.1529 -1.0684 -1.3167
   65Eth    Hcc 2858   2.475   2.834   4.996  2.4390  1.0396  0.5076
   66Eth     Ho 2859   1.072   2.207   9.576 -0.3932 -0.5397 -1.4575
   66Eth     Oh 2860   1.013   2.143   9.610  0.1643 -0.4364 -0.2707
   66Eth     Co 2861   1.076   2.071   9.720 -0.0549 -0.4680 -0.2362
   66Eth    Hco 2862   1.018   1.987   9.759 -1.5428 -0.0264 -1.4750
   66Eth    Hco 2863   1.094   2.145   9.799  0.6467 -0.9515  0.0544
   66Eth     Ch 2864   1.218   2.022   9.691  0.0399 -0.0657 -0.3293
   66Eth    Hcc 2865   1.224   1.964   9.599  1.3944  0.1332 -0.3782
   66Eth    Hcc 2866   1.261   1.951   9.762  0.8889 -1.7141 -2.4408
   66Eth    Hcc 2867   1.296   2.098   9.695 -0.8027  0.8331 -0.9818
   67Eth     Ho 2868   2.739   3.181   2.223 -0.6505  3.8054 -0.8901
   67Eth     Oh 2869   2.826   3.204   2.250  0.2950 -0.3319 -0.0601
   67Eth     Co 2870   2.797   3.263   2.378  0.2180  0.7562 -0.1168
   67Eth    Hco 2871   2.744   3.195   2.444  0.7150  1.6704  1.2370
   67Eth    Hco 2872   2.741   3.355   2.362  1.0888  1.4792  0.9530
   67Eth     Ch 2873   2.918   3.305   2.452  0.4954 -0.1021 -0.2996
   67Eth    Hcc 2874   2.984   3.227   2.491  4.1025  1.8473 -2.2279
   67Eth    Hcc 2875   2.872   3.347   2.541 -0.7561 -0.7212 -0.6406
   67Eth    Hcc 2876   2.973   3.384   2.401 -0.7001  0.8071 -0.2012
   68Eth     Ho 2877   0.139   3.089   9.852  0.2432  1.6052 -0.7216
   68Eth     Oh 2878   0.095   3.103   9.934  0.0607 -0.0465 -0.5328
   68Eth     Co 2879  -0.039   3.074   9.900  0.0397  0.8733  1.0458
   68Eth    Hco 2880  -0.043   2.979   9.847  2.2202  0.6462  1.2340
   68Eth    Hco 2881  -0.075   3.147   9.827  0.6521  0.4501  0.3123
   68Eth     Ch 2882  -0.131   3.066  10.017  0.7819 -0.0482  0.2081
   68Eth    Hcc 2883  -0.226   3.017   9.996  0.3158  1.0073 -0.1836
   68Eth    Hcc 2884  -0.158   3.161  10.062 -0.3441 -0.8518  1.2934
   68Eth    Hcc 2885  -0.074   3.016  10.095  0.1701 -1.7432 -0.4029
   69Eth     Ho 2886   2.935   2.843   1.306 -1.6591 -0.2639  0.8589
   69Eth     Oh 2887   2.999   2.831   1.373 -0.1809  0.5166 -0.3848
   69Eth     Co 2888   2.937   2.847   1.500  0.7769  0.5369 -0.2675
   69Eth    Hco 2889   2.861   2.770   1.514  0.3327  0.7116 -1.6556
   69Eth    Hco 2890   2.875   2.936   1.512 -0.5595 -0.4558  0.4422
   69Eth     Ch 2891   3.046   2.840   1.608 -0.1362 -0.1666  0.2097
   69Eth    Hcc 2892   3.113   2.924   1.627  1.7547 -1.3210 -1.2123
   69Eth    Hcc 2893   3.105   2.753   1.582 -2.5681 -1.5214 -0.9600
   69Eth    Hcc 2894   3.001   2.809   1.702  2.7056  0.0884  1.6999
   70Eth     Ho 2895   1.132   3.419   9.960  1.0388 -0.1209  0.2705
   70Eth     Oh 2896   1.104   3.390   9.875  0.3390 -0.0375  0.4711
   70Eth     Co 2897   1.108   3.496   9.783  0.0824 -0.0990 -0.8545
   70Eth    Hco 2898   1.057   3.583   9.822 -1.7282 -1.4315 -0.1701
   70Eth    Hco 2899   1.040   3.461   9.705 -3.0599  2.9814  0.3801
   70Eth     Ch 2900   1.252   3.501   9.714  0.1252  0.2084 -0.2403
   70Eth    Hcc 2901   1.266   3.420   9.642  1.4973  1.1884 -1.1059
   70Eth    Hcc 2902   1.334   3.486   9.784  0.0317  0.0979 -0.1558
   70Eth    Hcc 2903   1.269   3.596   9.663 -0.5661  1.7553  2.3806
   71Eth     Ho 2904   1.819   1.530   2.662  0.6075  2.5680 -1.7783
   71Eth     Oh 2905   1.860   1.480   2.593  0.1595  0.2517 -0.4187
   71Eth     Co 2906   1.759   1.446   2.487  0.1519  0.8487  0.0933
   71Eth    Hco 2907   1.668   1.404   2.531 -0.4860 -0.3392 -2.2699
   71Eth    Hco 2908   1.802   1.366   2.426  0.2070  0.1310  1.0556
   71Eth     Ch 2909   1.741   1.566   2.407  0.2788 -0.4097 -1.2118
   71Eth    Hcc 2910   1.655   1.565   2.339  1.2053  0.7446 -2.4347
   71Eth    Hcc 2911   1.829   1.582   2.345  1.0124  0.3494  0.0294
   71Eth    Hcc 2912   1.734   1.649   2.478  0.3352 -0.6238 -0.9586
   72Eth     Ho 2913   2.244   0.010   9.421 -0.1939 -0.6262  0.2628
   72Eth     Oh 2914   2.180   0.065   9.464 -0.2127  0.0865 -0.6595
   72Eth     Co 2915   2.143   0.018   9.589  0.6601  0.6272  0.2848
   72Eth    Hco 2916   2.226   0.049   9.652 -1.5196  0.9785  3.1085
   72Eth    Hco 2917   2.120  -0.088   9.594 -0.0502  0.6164 -2.5129
   72Eth     Ch 2918   2.025   0.096   9.632  0.1064 -0.0910 -0.2675
   72Eth    Hcc 2919   2.047   0.203   9.631  0.5978 -0.1675 -2.9998
   72Eth    Hcc 2920   1.996   0.066   9.732 -0.4565  0.0191 -0.3930
   72Eth    Hcc 2921   1.942   0.069   9.567  0.3537 -2.6341  0.4484
   73Eth     Ho 2922   0.596   1.550   7.788  0.2105  0.2308 -0.5692
   73Eth     Oh 2923   0.624   1.625   7.838  0.9457 -0.0641 -0.5313
   73Eth     Co 2924   0.628   1.727   7.750 -0.4329 -0.1151 -0.6467
   73Eth    Hco 2925   0.529   1.759   7.720 -1.0578 -1.1574  0.2715
   73Eth    Hco 2926   0.682   1.688   7.664 -1.2174 -0.6079 -0.9231
   73Eth     Ch 2927   0.706   1.843   7.816  0.0341 -0.4972 -0.2504
   73Eth    Hcc 2928   0.804   1.810   7.850 -0.4718 -1.9002 -0.0879
   73Eth    Hcc 2929   0.647   1.882   7.899 -0.5395  0.0727 -0.9249
   73Eth    Hcc 2930   0.729   1.928   7.753  2.0645 -0.3217  0.6697
   74Eth     Ho 2931   2.318   0.958   1.484  0.1705  0.0702 -1.0834
   74Eth     Oh 2932   2.361   1.029   1.529 -0.5313 -0.1588 -0.0306
   74Eth     Co 2933   2.502   1.027   1.508  0.1164 -0.1631 -0.3082
   74Eth    Hco 2934   2.513   1.013   1.400 -0.2544 -1.4772 -0.1782
   74Eth    Hco 2935   2.549   0.951   1.571 -1.1597 -0.7556 -0.0567
   74Eth     Ch 2936   2.549   1.162   1.558 -0.7017 -0.2080 -0.1812
   74Eth    Hcc 2937   2.490   1.240   1.511 -0.4409  0.9124  1.2943
   74Eth    Hcc 2938   2.651   1.173   1.520 -0.5707  1.6280  0.6538
   74Eth    Hcc 2939   2.553   1.167   1.667 -2.6505  1.5768 -0.1740
   75Eth     Ho 2940   0.423   2.948   3.772 -0.2158 -0.0216 -0.4160
   75Eth     Oh 2941   0.422   2.977   3.682  0.0794  0.2065 -0.3466
   75Eth     Co 2942   0.289   3.010   3.651  0.1291  0.7598  0.5904
   75Eth    Hco 2943   0.231   3.016   3.743 -0.9736  2.4167 -0.1757
   75Eth    Hco 2944   0.264   2.920   3.595 -0.5560  0.7841  0.8482
   75Eth     Ch 2945   0.279   3.126   3.556 -0.4687  0.0554 -0.3839
   75Eth    Hcc 2946   0.322   3.217   3.597  0.0035 -1.1835  1.9978
   75Eth    Hcc 2947   0.176   3.142   3.523 -2.2111 -2.3855  3.4649
   75Eth    Hcc 2948   0.335   3.104   3.466  1.7806  0.6964  0.8213
   76Eth     Ho 2949   1.043   0.342   6.007  0.7513  0.6770  1.0724
   76Eth     Oh 2950   1.089   0.266   6.038  0.3106  0.2795  0.7371
   76Eth     Co 2951   1.022   0.215   6.152  0.1218  0.1680 -0.5644
   76Eth    Hco 2952   0.922   0.200   6.112  0.8834 -2.8388 -1.4455
   76Eth    Hco 2953   1.031   0.282   6.237 -1.7761  1.2644 -1.1944
   76Eth     Ch 2954   1.079   0.085   6.198 -0.0283  0.4545 -0.6631
   76Eth    Hcc 2955   1.055   0.005   6.128  0.0623  0.7064 -0.9846
   76Eth    Hcc 2956   1.038   0.060   6.296  1.0769  1.1679 -0.0117
   76Eth    Hcc 2957   1.184   0.095   6.227 -1.1609  2.9889  2.9550
   77Eth     Ho 2958   0.993   2.315   1.865  1.4746 -0.7042  0.1636
   77Eth     Oh 2959   1.028   2.399   1.845 -0.0209 -0.1896 -0.4030
   77Eth     Co 2960   0.988   2.491   1.945  0.5210 -0.2040  0.2336
   77Eth    Hco 2961   1.008   2.442   2.041  1.3666  1.5038  0.9625
   77Eth    Hco 2962   0.881   2.509   1.939  0.5204 -0.3805 -0.3045
   77Eth     Ch 2963   1.075   2.620   1.958 -0.8484 -0.1415 -0.4213
   77Eth    Hcc 2964   1.179   2.598   1.985 -0.9081  0.1223  0.0263
   77Eth    Hcc 2965   1.049   2.696   2.031  0.9660  0.3111 -0.2243
   77Eth    Hcc 2966   1.087   2.683   1.870  1.4383  0.1190  0.0360
   78Eth     Ho 2967   1.994   1.401   3.645 -0.1395  1.6150 -2.0889
   78Eth     Oh 2968   1.919   1.351   3.619 -0.2728  0.7532 -0.0864
   78Eth     Co 2969   1.922   1.224   3.675 -0.0569  0.4723  0.0230
   78Eth    Hco 2970   1.907   1.232   3.783 -1.5614  0.7286 -0.1835
   78Eth    Hco 2971   2.018   1.175   3.662 -0.2495  0.2372 -0.5336
   78Eth     Ch 2972   1.823   1.127   3.608  0.0643 -0.1986 -0.0213
   78Eth    Hcc 2973   1.837   1.115   3.501  0.2030  0.6511 -0.0993
   78Eth    Hcc 2974   1.723   1.165   3.628  0.0073 -0.5490  0.3641
   78Eth    Hcc 2975   1.835   1.029   3.654 -0.9937 -0.7152 -0.8339
   79Eth     Ho 2976   2.034   3.123   9.401  0.2077  3.7166  1.8763
   79Eth     Oh 2977   1.940   3.133   9.401 -0.2596  0.1989  0.0363
   79Eth     Co 2978   1.897   3.106   9.536 -0.4719 -0.2063  0.4550
   79Eth    Hco 2979   1.984   3.085   9.599  0.5670  1.4342 -0.3842
   79Eth    Hco 2980   1.846   3.010   9.541 -1.6689  0.3832 -0.2573
   79Eth     Ch 2981   1.805   3.220   9.588 -0.2090  0.3270  0.4401
   79Eth    Hcc 2982   1.794   3.209   9.696  2.6635 -1.2728  0.6316
   79Eth    Hcc 2983   1.708   3.222   9.538 -0.1253 -0.2582  0.2523
   79Eth    Hcc 2984   1.857   3.313   9.566 -2.4449  1.5929  0.2863
   80Eth     Ho 2985   2.691   1.739   5.387  1.8592 -0.1670 -0.7259
   80Eth     Oh 2986   2.633   1.753   5.314  0.1653  0.2899  0.6713
   80Eth     Co 2987   2.515   1.696   5.363 -1.0055  0.0613  0.1312
   80Eth    Hco 2988   2.477   1.744   5.453  1.7007 -0.0616  1.3585
   80Eth    Hco 2989   2.540   1.597   5.402 -2.8763 -0.8124 -0.7844
   80Eth     Ch 2990   2.400   1.678   5.265 -0.2706 -0.0345  0.6028
   80Eth    Hcc 2991   2.405   1.596   5.193  0.9250 -0.1431  0.8007
   80Eth    Hcc 2992   2.370   1.771   5.218  1.1389  2.1572  3.8696
   80Eth    Hcc 2993   2.315   1.636   5.319  0.0300 -1.4604 -0.0057
   81Eth     Ho 2994   2.978   2.879   7.036 -3.3240  0.9760  0.8760
   81Eth     Oh 2995   3.007   2.948   7.093  0.3628 -0.0040  0.3437
   81Eth     Co 2996   2.925   2.932   7.206  0.0293  0.3348 -0.7422
   81Eth    Hco 2997   2.934   2.826   7.228  0.9760  0.3313 -1.1280
   81Eth    Hco 2998   2.827   2.950   7.162 -0.2805 -3.0987 -1.6217
   81Eth     Ch 2999   2.959   3.030   7.323 -0.4081  0.2016  0.4995
   81Eth    Hcc 3000   2.879   3.103   7.328  0.6877  1.5352 -0.8087
   81Eth    Hcc 3001   3.054   3.081   7.303  1.0406 -1.9988  1.4981
   81Eth    Hcc 3002   2.972   2.976   7.417 -0.6048  0.5116  0.7059
   82Eth     Ho 3003   3.176   1.832   8.201 -1.9717 -1.1036 -1.9673
   82Eth     Oh 3004   3.245   1.824   8.139 -0.3274  0.4989 -0.4025
   82Eth     Co 3005   3.220   1.918   8.036 -0.2368 -1.0026  0.1745
   82Eth    Hco 3006   3.174   2.007   8.081  1.1287 -0.3407  0.2907
   82Eth    Hco 3007   3.154   1.867   7.967 -2.4350 -1.3323  2.4395
   82Eth     Ch 3008   3.362   1.945   7.978 -0.2313 -0.0659  0.0045
   82Eth    Hcc 3009   3.411   2.017   8.044 -0.2877 -1.5908  1.7602
   82Eth    Hcc 3010   3.364   1.981   7.875  1.3269 -1.5501 -0.5115
   82Eth    Hcc 3011   3.415   1.851   7.991  0.3236  0.3991  1.1184
   83Eth     Ho 3012   2.454   1.361   9.620 -1.8083 -0.4483 -1.8349
   83Eth     Oh 3013   2.422   1.445   9.645  0.1319 -0.0127 -0.6921
   83Eth     Co 3014   2.403   1.453   9.789  0.6453 -0.9542  0.0320
   83Eth    Hco 3015   2.503   1.470   9.830  0.1334  0.3334  0.7734
   83Eth    Hco 3016   2.359   1.362   9.830 -2.7523 -0.1117 -1.6306
   83Eth     Ch 3017   2.320   1.572   9.824  0.2796 -0.5704 -0.4836
   83Eth    Hcc 3018   2.311   1.571   9.932  4.3196  0.8433 -0.0473
   83Eth    Hcc 3019   2.220   1.559   9.782  0.3426  1.7371 -1.4095
   83Eth    Hcc 3020   2.359   1.672   9.808  0.9574 -0.2687  2.7387
   84Eth     Ho 3021   0.465   0.362   3.890 -0.8919 -1.8729 -1.1949
   84Eth     Oh 3022   0.476   0.282   3.938  0.2738 -0.9221  0.1655
   84Eth     Co 3023   0.347   0.259   3.999  0.1406 -0.2244  0.2199
   84Eth    Hco 3024   0.268   0.270   3.925 -2.1378  0.0928  2.6188
   84Eth    Hco 3025   0.329   0.332   4.078 -0.3599 -1.5976  1.3977
   84Eth     Ch 3026   0.328   0.123   4.062 -0.0479 -0.0944  0.3549
   84Eth    Hcc 3027   0.229   0.119   4.107 -0.0396  0.7149  0.4467
   84Eth    Hcc 3028   0.410   0.112   4.133  0.4297 -3.6753 -0.6423
   84Eth    Hcc 3029   0.350   0.039   3.995  1.0894  1.2179 -0.9644
   85Eth     Ho 3030   2.508   0.263   8.575 -0.6603  2.2713 -0.1427
   85Eth     Oh 3031   2.589   0.278   8.620 -0.3086 -0.2528  0.1550
   85Eth     Co 3032   2.569   0.215   8.750 -0.3385 -0.0521 -0.4228
   85Eth    Hco 3033   2.501   0.131   8.730 -0.2756 -0.6148  1.6448
   85Eth    Hco 3034   2.531   0.291   8.818 -0.2789 -0.5038  0.1205
   85Eth     Ch 3035   2.711   0.176   8.802  0.0792  0.0398 -0.5360
   85Eth    Hcc 3036   2.775   0.261   8.822 -0.4523  0.1167  0.9032
   85Eth    Hcc 3037   2.754   0.098   8.740  0.8005 -0.2730  0.3508
   85Eth    Hcc 3038   2.702   0.124   8.897  0.8361 -0.8555 -0.9532
   86Eth     Ho 3039   2.429   0.768   9.615  0.1293  0.5005  0.8931
   86Eth     Oh 3040   2.362   0.808   9.668 -0.6818  0.2206  0.0926
   86Eth     Co 3041   2.379   0.779   9.806  0.3176 -0.2507 -0.0997
   86Eth    Hco 3042   2.483   0.791   9.834 -0.1796  1.4340  1.1376
   86Eth    Hco 3043   2.360   0.673   9.824  1.1204 -0.6331 -1.4675
   86Eth     Ch 3044   2.280   0.859   9.896 -0.4982 -0.0731 -0.8565
   86Eth    Hcc 3045   2.312   0.963   9.892 -3.6593  0.9327 -1.0493
   86Eth    Hcc 3046   2.274   0.816   9.996 -2.4623 -1.4696 -1.5291
   86Eth    Hcc 3047   2.180   0.852   9.854 -1.6267  0.4208  1.6703
   87Eth     Ho 3048   0.182   3.051   8.381  0.4906  0.9859  1.9965
   87Eth     Oh 3049   0.121   3.120   8.361 -0.0880  0.0119  0.3335
   87Eth     Co 3050   0.041   3.061   8.254 -0.1337  0.2670  0.1841
   87Eth    Hco 3051   0.020   2.961   8.292  1.6412  0.2042  1.0286
   87Eth    Hco 3052   0.107   3.053   8.168  0.5361  1.4554  0.5712
   87Eth     Ch 3053  -0.081   3.147   8.214  0.0860 -0.2318  0.5781
   87Eth    Hcc 3054  -0.050   3.240   8.167 -0.4497 -0.5596 -0.4389
   87Eth    Hcc 3055  -0.146   3.164   8.300  0.0945 -3.8974  1.3721
   87Eth    Hcc 3056  -0.141   3.097   8.137  0.3275 -1.6675  1.3060
   88Eth     Ho 3057   1.785   0.062   8.817 -1.1844  1.1415  1.3760
   88Eth     Oh 3058   1.702   0.019   8.813 -0.5723  0.0661 -0.0945
   88Eth     Co 3059   1.679  -0.035   8.676  0.3355 -0.7595 -1.1581
   88Eth    Hco 3060   1.749  -0.117   8.658 -1.0103 -2.2009  0.0160
   88Eth    Hco 3061   1.708   0.043   8.606  0.2656  0.6367  0.3247
   88Eth     Ch 3062   1.540  -0.082   8.645  0.1204  1.0029  0.4813
   88Eth    Hcc 3063   1.525  -0.098   8.538 -1.1962 -0.5676  0.8755
   88Eth    Hcc 3064   1.474  -0.001   8.674 -1.2806  0.1631 -0.2726
   88Eth    Hcc 3065   1.518  -0.170   8.706 -0.7912  1.0220  0.2033
   89Eth     Ho 3066   3.253   0.984   5.241 -1.7174 -0.0732  1.6154
   89Eth     Oh 3067   3.254   0.894   5.270  0.3126 -0.5837  0.0850
   89Eth     Co 3068   3.386   0.831   5.254 -0.4102 -0.0069  0.1265
   89Eth    Hco 3069   3.473   0.875   5.303 -0.2589 -0.8283  0.6021
   89Eth    Hco 3070   3.425   0.812   5.155 -1.9321 -0.6964 -0.3574
   89Eth     Ch 3071   3.388   0.696   5.325  0.2439  0.5620  0.0737
   89Eth    Hcc 3072   3.337   0.704   5.421 -0.1127 -0.0261 -0.0602
   89Eth    Hcc 3073   3.488   0.664   5.354  0.2828 -1.6126 -2.3241
   89Eth    Hcc 3074   3.344   0.624   5.255  2.4635 -0.0451 -0.7421
   90Eth     Ho 3075   1.137   0.296   1.525  1.6098  0.5474  3.1671
   90Eth     Oh 3076   1.214   0.306   1.471 -0.4393  0.2156  0.0953
   90Eth     Co 3077   1.323   0.315   1.562 -0.3163 -0.1970  0.0211
   90Eth    Hco 3078   1.337   0.220   1.612  2.0074  0.3568  0.4662
   90Eth    Hco 3079   1.319   0.393   1.639 -1.5112 -1.0826  0.8730
   90Eth     Ch 3080   1.446   0.311   1.470  0.3341  0.2734  0.3436
   90Eth    Hcc 3081   1.540   0.329   1.522  1.1772 -0.3907 -0.9316
   90Eth    Hcc 3082   1.425   0.391   1.398  2.0426 -0.4427 -0.9870
   90Eth    Hcc 3083   1.450   0.216   1.417  0.0657  2.0340 -2.9670
   91Eth     Ho 3084   1.823   1.221   9.593 -0.7290 -0.2555  0.4677
   91Eth     Oh 3085   1.859   1.190   9.674  0.4288  0.6879  0.3203
   91Eth     Co 3086   1.927   1.295   9.731  0.1592 -0.8239  0.3450
   91Eth    Hco 3087   1.860   1.369   9.774  1.1381 -0.2099  0.8268
   91Eth    Hco 3088   1.984   1.337   9.648  0.5614 -1.0030  0.5289
   91Eth     Ch 3089   2.021   1.254   9.847 -0.2040  0.1259 -0.2680
   91Eth    Hcc 3090   2.079   1.340   9.879 -0.0868 -0.0357 -0.0429
   91Eth    Hcc 3091   2.095   1.177   9.826 -0.9958 -0.5898 -0.4736
   91Eth    Hcc 3092   1.962   1.229   9.936  0.7109  2.1253  0.9407
   92Eth     Ho 3093   1.170   1.328   7.748 -0.8943 -0.0987  1.0436
   92Eth     Oh 3094   1.147   1.419   7.754 -0.2096  0.1442  0.0946
   92Eth     Co 3095   1.086   1.457   7.875  0.0663  0.5582  0.4278
   92Eth    Hco 3096   1.163   1.456   7.952  0.5070 -1.2735 -0.0155
   92Eth    Hco 3097   1.016   1.382   7.913  0.0053 -1.6100 -3.6654
   92Eth     Ch 3098   0.999   1.591   7.871  0.3130  0.5953 -0.3109
   92Eth    Hcc 3099   0.928   1.572   7.791 -2.0610 -1.0417  2.1348
   92Eth    Hcc 3100   1.055   1.682   7.849  0.5352  0.8538  1.2751
   92Eth    Hcc 3101   0.949   1.609   7.966 -2.1154 -1.8666 -1.0654
   93Eth     Ho 3102   2.427   2.217   4.066 -0.7295 -1.9165 -0.7582
   93Eth     Oh 3103   2.503   2.230   4.012 -0.6483  0.2695 -0.1440
   93Eth     Co 3104   2.485   2.178   3.881  0.6778  0.0574 -0.0038
   93Eth    Hco 3105   2.427   2.256   3.832  1.9720  1.6170  0.8734
   93Eth    Hco 3106   2.430   2.084   3.883 -0.2805  0.6388  1.8787
   93Eth     Ch 3107   2.634   2.154   3.829 -0.5374 -0.7297  0.3090
   93Eth    Hcc 3108   2.696   2.242   3.840  1.8723 -2.4493  0.9901
   93Eth    Hcc 3109   2.623   2.129   3.724  0.9727 -0.5151  0.0945
   93Eth    Hcc 3110   2.667   2.068   3.888  2.3556  0.9434  1.1965
   94Eth     Ho 3111   3.150   1.017   4.379  0.8489 -1.2102 -0.2784
   94Eth     Oh 3112   3.122   1.011   4.289 -0.5729  0.0300  0.0630
   94Eth     Co 3113   2.988   0.973   4.292  0.0094  0.1151 -0.7969
   94Eth    Hco 3114   2.935   1.062   4.326  0.0234 -0.5460  1.0050
   94Eth    Hco 3115   2.967   0.888   4.357  0.0075  0.9696  0.3371
   94Eth     Ch 3116   2.942   0.935   4.145  0.9010 -0.3985 -0.6905
   94Eth    Hcc 3117   2.955   1.028   4.089 -0.3171 -0.5253 -1.1871
   94Eth    Hcc 3118   2.840   0.899   4.141  0.4912  0.7926 -1.0758
   94Eth    Hcc 3119   2.994   0.850   4.102  0.0439 -0.6813 -1.1773
   95Eth     Ho 3120   0.377   0.366   1.476 -0.2075 -1.1554  0.8852
   95Eth     Oh 3121   0.465   0.352   1.447 -0.3376  0.3302 -0.3078
   95Eth     Co 3122   0.531   0.468   1.500  0.3183 -0.1712  0.6126
   95Eth    Hco 3123   0.526   0.464   1.609  0.6952 -0.4001  0.6223
   95Eth    Hco 3124   0.484   0.565   1.481  2.8582  1.0588  0.3895
   95Eth     Ch 3125   0.677   0.482   1.465 -0.6264  0.1871 -0.1798
   95Eth    Hcc 3126   0.716   0.382   1.476  0.2948  0.2934 -2.2238
   95Eth    Hcc 3127   0.723   0.554   1.533 -0.8612  1.1012 -0.9711
   95Eth    Hcc 3128   0.678   0.510   1.359 -1.0026 -1.6988 -0.7049
   96Eth     Ho 3129   2.361   0.807   3.710 -0.1457  0.0984 -0.7667
   96Eth     Oh 3130   2.267   0.811   3.718 -0.0868 -0.0690  0.0010
   96Eth     Co 3131   2.211   0.818   3.592  0.0301  0.3568  0.4727
   96Eth    Hco 3132   2.265   0.759   3.519 -0.6636  0.3676 -0.0557
   96Eth    Hco 3133   2.217   0.918   3.550  1.5985  0.1464  0.1786
   96Eth     Ch 3134   2.060   0.785   3.598  0.0368  0.1684  0.0283
   96Eth    Hcc 3135   1.984   0.823   3.529 -1.2521 -1.9463  0.2230
   96Eth    Hcc 3136   2.022   0.818   3.694 -1.8571 -0.3756 -0.5077
   96Eth    Hcc 3137   2.049   0.678   3.580 -0.3270  0.2362 -0.1698
   97Eth     Ho 3138   2.269   1.947   2.843 -0.1490 -0.3877 -1.9279
   97Eth     Oh 3139   2.217   1.871   2.861 -0.0094 -0.0742 -0.1462
   97Eth     Co 3140   2.280   1.754   2.803 -0.0611 -0.1986  0.6643
   97Eth    Hco 3141   2.373   1.733   2.856  0.6485  0.2084 -0.4073
   97Eth    Hco 3142   2.305   1.774   2.699  0.7798  0.8374  1.0592
   97Eth     Ch 3143   2.184   1.637   2.805 -0.0192 -0.2818  0.6294
   97Eth    Hcc 3144   2.109   1.662   2.731 -2.4361 -2.2633  2.3499
   97Eth    Hcc 3145   2.131   1.615   2.898 -1.3309 -0.6392 -0.1952
   97Eth    Hcc 3146   2.228   1.550   2.756 -2.3641 -1.6238  0.8616
   98Eth     Ho 3147   2.587   0.587   2.864  1.2352  1.5936  2.1140
   98Eth     Oh 3148   2.518   0.649   2.852 -0.3361 -0.4211  0.3590
   98Eth     Co 3149   2.410   0.585   2.795 -0.2695 -0.3346 -0.0306
   98Eth    Hco 3150   2.373   0.499   2.850  0.2303 -1.4247 -1.3654
   98Eth    Hco 3151   2.444   0.544   2.700  0.1745  2.1125 -0.9846
   98Eth     Ch 3152   2.312   0.702   2.778  0.9844 -0.0235  0.1619
   98Eth    Hcc 3153   2.219   0.657   2.743 -1.2223  2.0592  3.0912
   98Eth    Hcc 3154   2.347   0.777   2.707 -0.6378  1.6602  1.0738
   98Eth    Hcc 3155   2.271   0.746   2.869 -0.8635  0.4173 -0.8619
   99Eth     Ho 3156   0.695   0.849   7.371  0.2590  0.7805 -0.5021
   99Eth     Oh 3157   0.754   0.837   7.443 -0.7349 -0.1344  0.1691
   99Eth     Co 3158   0.685   0.755   7.538  0.2421 -0.6574  0.2675
   99Eth    Hco 3159   0.642   0.672   7.483  1.6473  0.2988 -2.3109
   99Eth    Hco 3160   0.599   0.808   7.581 -0.7029 -0.0441 -2.3043
   99Eth     Ch 3161   0.794   0.702   7.637 -0.9792 -0.1470 -0.2653
   99Eth    Hcc 3162   0.844   0.778   7.697 -1.8578  1.0337 -1.0086
   99Eth    Hcc 3163   0.875   0.656   7.579 -0.7553 -0.0764 -0.0086
   99Eth    Hcc 3164   0.768   0.622   7.705  0.6043  0.4806  1.1149
  100Eth     Ho 3165   0.202   0.649   1.648 -0.4572  0.9014 -2.7249
  100Eth     Oh 3166   0.114   0.614   1.648 -0.2951  0.4149 -0.3667
  100Eth     Co 3167   0.064   0.647   1.519 -0.4299 -0.2213 -0.3636
  100Eth    Hco 3168   0.150   0.639   1.452 -0.3251  0.1122 -0.2686
  100Eth    Hco 3169   0.033   0.751   1.523 -0.8740 -0.3456 -0.5273
  100Eth     Ch 3170  -0.054   0.552   1.489  0.2990  0.1339  0.1005
  100Eth    Hcc 3171  -0.107   0.570   1.396 -0.4089  0.2940  0.5327
  100Eth    Hcc 3172  -0.128   0.573   1.566  1.4023 -1.7591  1.7459
  100Eth    Hcc 3173  -0.008   0.453   1.491  0.3372  0.1446 -0.3120
  101Eth     Ho 3174   2.240   1.335   9.158  1.2290  0.1555  0.1278
  101Eth     Oh 3175   2.224   1.262   9.216 -0.3793 -0.2783 -0.8429
  101Eth     Co 3176   2.153   1.309   9.326 -0.5143  0.2145  0.0371
  101Eth    Hco 3177   2.049   1.277   9.319 -0.1739 -0.9445  0.1745
  101Eth    Hco 3178   2.159   1.417   9.324 -0.6723  0.1872 -3.2578
  101Eth     Ch 3179   2.206   1.257   9.461 -0.1320  0.4171 -0.7968
  101Eth    Hcc 3180   2.303   1.298   9.490 -0.3532  0.7964 -0.5907
  101Eth    Hcc 3181   2.225   1.150   9.460  1.2962  0.6673 -2.4788
  101Eth    Hcc 3182   2.132   1.281   9.538 -1.5043 -0.6544 -1.7535
  102Eth     Ho 3183   2.421   2.931   7.801 -0.8430  0.5605  0.4422
  102Eth     Oh 3184   2.407   2.854   7.852 -0.0581  0.4229  0.4563
  102Eth     Co 3185   2.502   2.874   7.962 -0.0457  0.0960 -0.3278
  102Eth    Hco 3186   2.512   2.977   7.995 -0.9061  0.0697  0.0238
  102Eth    Hco 3187   2.602   2.847   7.927  1.1683  1.0259  2.2630
  102Eth     Ch 3188   2.468   2.793   8.096  0.0261  0.0239  0.8764
  102Eth    Hcc 3189   2.486   2.686   8.090 -3.5079 -0.6979  1.7726
  102Eth    Hcc 3190   2.371   2.818   8.139 -0.0505  0.4788  0.4396
  102Eth    Hcc 3191   2.533   2.841   8.169  0.6787  1.1181 -0.4046
  103Eth     Ho 3192   0.298   0.284   1.849  0.9215 -0.8235  1.7319
  103Eth     Oh 3193   0.337   0.237   1.778 -0.2020  0.6103  0.1549
  103Eth     Co 3194   0.230   0.181   1.702 -0.6987 -0.8475 -1.3359
  103Eth    Hco 3195   0.182   0.261   1.645 -2.3561  1.3563  2.9077
  103Eth    Hco 3196   0.164   0.140   1.778  0.7528 -0.4336  0.1825
  103Eth     Ch 3197   0.287   0.067   1.626 -0.5087 -0.0622 -0.4664
  103Eth    Hcc 3198   0.366   0.007   1.672 -0.6740  0.6825  0.8250
  103Eth    Hcc 3199   0.324   0.111   1.534  2.9157  0.5920  1.1094
  103Eth    Hcc 3200   0.211  -0.005   1.596 -0.1750 -2.0489  3.1561
  104Eth     Ho 3201   0.427   1.540   7.399  0.5373 -0.1027 -2.8182
  104Eth     Oh 3202   0.336   1.520   7.394  0.2675 -0.1164  0.6248
  104Eth     Co 3203   0.326   1.410   7.492 -0.1538 -1.0501  0.3991
  104Eth    Hco 3204   0.298   1.450   7.589 -0.7532 -1.3237  0.3383
  104Eth    Hco 3205   0.417   1.349   7.501  1.8767  1.7298 -0.6053
  104Eth     Ch 3206   0.214   1.308   7.456  0.8057 -0.1702 -0.2599
  104Eth    Hcc 3207   0.181   1.229   7.525  2.6818  0.9304  1.9458
  104Eth    Hcc 3208   0.244   1.253   7.367 -1.4294 -0.2001 -1.0362
  104Eth    Hcc 3209   0.122   1.357   7.425 -0.6282 -0.8411  2.7676
  105Eth     Ho 3210   0.968   0.030   4.868 -2.8639  0.8944  1.4446
  105Eth     Oh 3211   1.012   0.024   4.951 -1.1290 -0.6588  0.4445
  105Eth     Co 3212   0.968  -0.107   4.983 -0.2253 -0.8326  0.1122
  105Eth    Hco 3213   1.010  -0.176   4.910 -0.0055 -1.3757  0.7505
  105Eth    Hco 3214   0.859  -0.116   4.979 -0.4924  2.4051 -1.1344
  105Eth     Ch 3215   1.010  -0.147   5.116  0.1592 -0.9497  0.5487
  105Eth    Hcc 3216   0.966  -0.243   5.143 -1.9270 -0.0603  0.4156
  105Eth    Hcc 3217   0.973  -0.074   5.188 -1.5539  0.4990 -1.7493
  105Eth    Hcc 3218   1.114  -0.139   5.146  1.1126  0.8534 -3.0570
  106Eth     Ho 3219   0.421   3.426   5.238  1.4138 -0.4934  1.6418
  106Eth     Oh 3220   0.491   3.468   5.193  0.3898 -0.2252  0.2616
  106Eth     Co 3221   0.516   3.398   5.066  0.1756  0.3043  0.1474
  106Eth    Hco 3222   0.419   3.382   5.018  0.8382 -0.5593 -0.9161
  106Eth    Hco 3223   0.560   3.301   5.087  1.0011  0.7643  0.5656
  106Eth     Ch 3224   0.601   3.485   4.971 -0.1369 -0.4866 -0.0976
  106Eth    Hcc 3225   0.545   3.563   4.920 -0.4911 -1.8162 -1.7968
  106Eth    Hcc 3226   0.640   3.426   4.888  2.8554  0.5204  0.5587
  106Eth    Hcc 3227   0.686   3.533   5.020  0.0299 -0.5742 -0.3019
  107Eth     Ho 3228   2.507   2.101   4.642  0.5303 -0.6368  2.6018
  107Eth     Oh 3229   2.526   2.017   4.603 -0.2813  0.5222 -0.4527
  107Eth     Co 3230   2.644   1.973   4.670  0.6180 -0.3737  0.3189
  107Eth    Hco 3231   2.636   1.992   4.777  1.6959  0.1330  0.3111
  107Eth    Hco 3232   2.724   2.034   4.629  0.9743 -1.5831 -0.7921
  107Eth     Ch 3233   2.675   1.824   4.634 -0.4264 -0.2900  0.0782
  107Eth    Hcc 3234   2.598   1.758   4.673 -0.4176 -0.0334  0.5416
  107Eth    Hcc 3235   2.776   1.793   4.661  1.1022  0.8351 -4.0138
  107Eth    Hcc 3236   2.677   1.818   4.525  1.8121  0.3025  0.0715
  108Eth     Ho 3237   2.592   1.180   9.524 -1.5101 -0.2682  0.5392
  108Eth     Oh 3238   2.585   1.212   9.612  0.4809  0.4894  0.4549
  108Eth     Co 3239   2.583   1.105   9.710  0.2706  0.8528  0.0366
  108Eth    Hco 3240   2.630   1.024   9.653  3.2484  2.0327  0.6876
  108Eth    Hco 3241   2.488   1.068   9.747  1.1824 -1.7800 -0.0709
  108Eth     Ch 3242   2.691   1.124   9.820 -0.4539 -0.1178 -1.0082
  108Eth    Hcc 3243   2.789   1.146   9.779 -0.3644 -1.1110 -1.3334
  108Eth    Hcc 3244   2.711   1.034   9.878 -0.7894 -1.0373 -2.3150
  108Eth    Hcc 3245   2.664   1.201   9.893  0.5339 -0.8799  0.1778
  109Eth     Ho 3246   2.951   1.088   4.774 -1.0093  1.6985  1.1471
  109Eth     Oh 3247   2.930   1.038   4.851  0.0219 -0.3414  0.1235
  109Eth     Co 3248   2.959   1.119   4.956  0.2413  0.2818 -0.2430
  109Eth    Hco 3249   2.913   1.065   5.039  2.5912 -1.4108  0.0150
  109Eth    Hco 3250   2.908   1.215   4.945 -1.8402 -0.6854  0.5860
  109Eth     Ch 3251   3.114   1.137   4.960 -0.6167  0.4308 -0.0956
  109Eth    Hcc 3252   3.151   1.223   5.016  1.3454  0.4289 -1.3289
  109Eth    Hcc 3253   3.151   1.150   4.858 -2.0393 -0.5530 -0.7444
  109Eth    Hcc 3254   3.149   1.045   5.007 -2.1022  0.7859  1.7532
  110Eth     Ho 3255   0.196   1.384   7.985  0.6596 -0.0692  0.8704
  110Eth     Oh 3256   0.144   1.401   8.062 -0.4044 -0.1247  0.1870
  110Eth     Co 3257   0.244   1.436   8.169 -0.1528  0.2242  0.0852
  110Eth    Hco 3258   0.330   1.482   8.120  0.6264 -0.5190  0.7375
  110Eth    Hco 3259   0.300   1.354   8.213  0.2701  0.3836 -0.1543
  110Eth     Ch 3260   0.186   1.522   8.279  0.5264  0.0993 -0.2489
  110Eth    Hcc 3261   0.265   1.564   8.340 -0.2616 -0.8703  1.4896
  110Eth    Hcc 3262   0.112   1.474   8.344  0.3499 -0.0246 -0.5430
  110Eth    Hcc 3263   0.125   1.603   8.239 -0.5871  0.8935  2.8484
  111Eth     Ho 3264   0.212   3.251   2.261 -1.1453 -0.6620 -2.7449
  111Eth     Oh 3265   0.266   3.313   2.216  0.1432  0.1207 -0.2332
  111Eth     Co 3266   0.199   3.303   2.089 -0.2105  0.3474  0.4235
  111Eth    Hco 3267   0.099   3.345   2.102  0.8866  2.3088  2.8156
  111Eth    Hco 3268   0.195   3.198   2.059  0.1111  0.1602  1.0209
  111Eth     Ch 3269   0.251   3.393   1.975  0.4707  0.4617  0.4955
  111Eth    Hcc 3270   0.228   3.496   2.004 -0.6560  0.4412 -0.2753
  111Eth    Hcc 3271   0.189   3.379   1.886  2.5629 -2.6428 -0.5509
  111Eth    Hcc 3272   0.357   3.375   1.954  0.3254 -0.6214  0.6644
  112Eth     Ho 3273   0.362   1.014   6.620 -2.3039 -1.9925 -0.5979
  112Eth     Oh 3274   0.414   0.984   6.548  0.0671  0.8489 -0.1617
  112Eth     Co 3275   0.532   0.915   6.595 -0.0612  0.6094 -0.3416
  112Eth    Hco 3276   0.494   0.831   6.653 -0.4887  1.8599  1.2351
  112Eth    Hco 3277   0.577   0.979   6.671  0.1458 -0.5564  0.5231
  112Eth     Ch 3278   0.617   0.860   6.475  0.3730  0.0713  0.0540
  112Eth    Hcc 3279   0.693   0.806   6.532  2.8561  1.9644 -1.3785
  112Eth    Hcc 3280   0.664   0.934   6.410  2.1127  1.5300  2.8676
  112Eth    Hcc 3281   0.567   0.788   6.410 -0.8444  1.4444 -0.5627
  113Eth     Ho 3282   3.107   0.174   1.341  1.0762 -0.2037  0.2298
  113Eth     Oh 3283   3.104   0.215   1.426 -0.9104 -0.2364  0.1833
  113Eth     Co 3284   3.217   0.177   1.505  0.1115  0.0098  0.2765
  113Eth    Hco 3285   3.311   0.218   1.468 -0.3916  0.1511 -0.8805
  113Eth    Hco 3286   3.226   0.068   1.499 -2.7916 -0.2332 -0.3330
  113Eth     Ch 3287   3.194   0.213   1.652  0.3169  0.5567  0.1494
  113Eth    Hcc 3288   3.118   0.142   1.685 -0.2956  0.3512 -1.6688
  113Eth    Hcc 3289   3.157   0.315   1.661 -1.4309 -0.0156 -0.1811
  113Eth    Hcc 3290   3.285   0.197   1.709  0.3396 -4.3485 -1.0797
  114Eth     Ho 3291   2.061   1.044   8.198 -0.8028  0.1944  0.6292
  114Eth     Oh 3292   2.081   0.964   8.242  0.3612  0.2734  0.2357
  114Eth     Co 3293   2.223   0.954   8.246 -0.4139  0.2825 -0.5438
  114Eth    Hco 3294   2.254   1.015   8.331  0.7909 -0.3656 -0.5046
  114Eth    Hco 3295   2.263   1.000   8.155  1.0276  0.7789  0.3276
  114Eth     Ch 3296   2.274   0.806   8.254  0.7154 -0.7592  0.5631
  114Eth    Hcc 3297   2.201   0.746   8.309  0.9255  1.0142  2.8674
  114Eth    Hcc 3298   2.376   0.803   8.292  0.4467  0.4939  1.4016
  114Eth    Hcc 3299   2.263   0.765   8.154  1.1971  0.7570 -0.1086
  115Eth     Ho 3300   1.713   0.376   4.698  3.2711  0.7104 -2.5075
  115Eth     Oh 3301   1.720   0.466   4.721  0.0010  0.4769 -0.2211
  115Eth     Co 3302   1.776   0.531   4.611 -0.7971 -0.1685  0.5050
  115Eth    Hco 3303   1.780   0.631   4.655 -0.8450 -0.6730  1.6644
  115Eth    Hco 3304   1.707   0.542   4.528  0.2111 -1.7018 -0.5598
  115Eth     Ch 3305   1.913   0.472   4.559  0.3652  0.6708 -0.0474
  115Eth    Hcc 3306   1.898   0.374   4.514  1.3244  0.6403 -0.3224
  115Eth    Hcc 3307   1.978   0.436   4.638  1.2489 -0.5236 -1.2785
  115Eth    Hcc 3308   1.965   0.538   4.489  1.0325  1.4401  1.1688
  116Eth     Ho 3309   0.898   1.113   9.693 -0.9430  0.4733 -0.5559
  116Eth     Oh 3310   0.838   1.094   9.763  0.2069 -0.0942  0.3012
  116Eth     Co 3311   0.716   1.140   9.730 -0.6637  0.2388  0.6970
  116Eth    Hco 3312   0.682   1.067   9.656  2.3674  0.5062 -1.0313
  116Eth    Hco 3313   0.707   1.237   9.682 -1.1204 -0.2022 -0.1131
  116Eth     Ch 3314   0.626   1.126   9.849 -0.5513  0.3153  0.0232
  116Eth    Hcc 3315   0.526   1.094   9.820 -0.1261  0.3869 -1.5517
  116Eth    Hcc 3316   0.619   1.220   9.904 -0.0147 -0.2109  1.0101
  116Eth    Hcc 3317   0.667   1.054   9.920 -0.5978 -0.2777 -0.5578
  117Eth     Ho 3318   2.821   0.035   3.124  0.6008 -1.3780  0.2445
  117Eth     Oh 3319   2.794   0.046   3.214 -0.3893  0.2016 -0.2431
  117Eth     Co 3320   2.718   0.166   3.236 -0.5784  0.0492  0.1883
  117Eth    Hco 3321   2.619   0.158   3.192 -1.9397 -1.0158  3.2425
  117Eth    Hco 3322   2.783   0.237   3.186  0.4635  1.6186  3.5967
  117Eth     Ch 3323   2.706   0.199   3.385 -0.1604 -0.4047 -0.6104
  117Eth    Hcc 3324   2.654   0.292   3.404  0.3528  0.2642 -2.3853
  117Eth    Hcc 3325   2.806   0.225   3.422 -0.8249  0.0153  0.9500
  117Eth    Hcc 3326   2.648   0.118   3.431 -1.8573  2.4839  2.5661
  118Eth     Ho 3327   0.552   2.338   9.776 -0.4368 -0.7901 -0.3292
  118Eth     Oh 3328   0.615   2.269   9.786  0.3052 -0.0860 -0.0155
  118Eth     Co 3329   0.624   2.251   9.922 -0.0541  0.1255 -0.1211
  118Eth    Hco 3330   0.525   2.260   9.967 -0.2455 -0.1872 -0.4747
  118Eth    Hco 3331   0.671   2.337   9.969  0.4957 -1.0763  1.6147
  118Eth     Ch 3332   0.696   2.113   9.934 -0.2764 -0.4012  0.5362
  118Eth    Hcc 3333   0.710   2.076  10.036  0.1532  0.4849  0.7995
  118Eth    Hcc 3334   0.796   2.105   9.892 -0.9390  0.3837 -1.2328
  118Eth    Hcc 3335   0.635   2.043   9.878 -0.0310  1.2720 -1.8702
  119Eth     Ho 3336   1.945   2.529   5.525 -0.2491  1.0977  1.1593
  119Eth     Oh 3337   1.967   2.451   5.573 -0.2376  0.3935  0.0319
  119Eth     Co 3338   2.095   2.478   5.636  0.9355  0.4400 -0.3761
  119Eth    Hco 3339   2.090   2.584   5.657  0.8494  0.3936 -0.1606
  119Eth    Hco 3340   2.169   2.467   5.557  1.6706  0.6690  0.2761
  119Eth     Ch 3341   2.116   2.395   5.762  0.0621  0.3890 -0.1784
  119Eth    Hcc 3342   2.196   2.443   5.818  0.2003 -1.3309  1.1684
  119Eth    Hcc 3343   2.168   2.301   5.740  0.9000  1.2003 -1.7165
  119Eth    Hcc 3344   2.034   2.387   5.833 -0.2759 -0.0141 -0.6052
  120Eth     Ho 3345   2.642   1.284   7.872 -0.0162 -0.1906  0.9202
  120Eth     Oh 3346   2.560   1.304   7.829  0.3370  0.5825  0.5855
  120Eth     Co 3347   2.535   1.228   7.718  0.3719 -0.2079  0.1409
  120Eth    Hco 3348   2.524   1.121   7.740  1.1071 -0.4023 -0.4139
  120Eth    Hco 3349   2.619   1.236   7.649  1.0153 -1.5696  0.7391
  120Eth     Ch 3350   2.406   1.267   7.641  0.7807 -0.0191  0.8854
  120Eth    Hcc 3351   2.374   1.192   7.569  3.4021  0.8212 -1.2565
  120Eth    Hcc 3352   2.417   1.370   7.607 -0.4032 -0.2492 -0.2416
  120Eth    Hcc 3353   2.319   1.267   7.706  1.7205 -2.8302  2.2417
  121Eth     Ho 3354   2.000   0.805   4.430 -1.5566 -1.5288  1.7718
  121Eth     Oh 3355   1.922   0.847   4.398  0.0047 -0.0757 -0.2468
  121Eth     Co 3356   1.895   0.776   4.272 -0.5737  0.0962  0.1940
  121Eth    Hco 3357   1.909   0.673   4.302  1.2321  0.2574 -0.0660
  121Eth    Hco 3358   1.964   0.808   4.194 -0.2413  0.0966  0.4893
  121Eth     Ch 3359   1.751   0.787   4.230  0.4081  0.2727  1.4134
  121Eth    Hcc 3360   1.725   0.716   4.152  1.1227  0.9809  0.5196
  121Eth    Hcc 3361   1.740   0.883   4.180 -0.1077 -0.4728  0.0725
  121Eth    Hcc 3362   1.695   0.790   4.324 -0.5891  0.9602  0.8151
  122Eth     Ho 3363   2.475   1.690   7.503  2.6485  0.4445  0.6825
  122Eth     Oh 3364   2.442   1.711   7.589 -0.0782  0.5110 -0.3539
  122Eth     Co 3365   2.564   1.726   7.664  0.1673  0.0747 -0.5954
  122Eth    Hco 3366   2.518   1.728   7.763  0.1429  1.3466 -0.6288
  122Eth    Hco 3367   2.620   1.819   7.653 -0.5130  0.5256 -0.2313
  122Eth     Ch 3368   2.657   1.606   7.638 -0.1962 -0.0653 -0.8487
  122Eth    Hcc 3369   2.750   1.614   7.694 -0.3765 -0.4143 -0.4991
  122Eth    Hcc 3370   2.656   1.597   7.529 -1.5167  0.2385 -0.8732
  122Eth    Hcc 3371   2.606   1.512   7.660  2.6763 -2.0886 -2.4410
  123Eth     Ho 3372   0.515   0.544   9.194  1.7472  0.2877 -0.6185
  123Eth     Oh 3373   0.477   0.609   9.251 -0.0728 -0.9356 -0.3757
  123Eth     Co 3374   0.352   0.557   9.292  0.1765 -0.7499 -0.3243
  123Eth    Hco 3375   0.355   0.448   9.285 -1.4829 -0.9052  1.1992
  123Eth    Hco 3376   0.273   0.595   9.228  0.4888  0.8256  0.1900
  123Eth     Ch 3377   0.312   0.593   9.439  0.3773  0.1018 -0.4301
  123Eth    Hcc 3378   0.286   0.696   9.462 -1.2609 -0.1138 -1.2491
  123Eth    Hcc 3379   0.375   0.546   9.515 -0.7423  1.8033  1.6355
  123Eth    Hcc 3380   0.221   0.546   9.476  1.0953  2.4325  4.7478
  124Eth     Ho 3381   2.418   2.967   6.167  0.3634 -0.4954 -1.6924
  124Eth     Oh 3382   2.509   2.944   6.163  0.3338 -0.7766 -0.8206
  124Eth     Co 3383   2.520   2.829   6.240  0.3652  0.4024 -0.5664
  124Eth    Hco 3384   2.471   2.748   6.187 -0.1517  0.4896 -0.2244
  124Eth    Hco 3385   2.469   2.854   6.334  2.8551 -1.1123  1.2560
  124Eth     Ch 3386   2.668   2.809   6.256  0.7229 -0.8214  0.5155
  124Eth    Hcc 3387   2.688   2.736   6.335 -0.7861 -2.3518 -0.5014
  124Eth    Hcc 3388   2.706   2.903   6.298  3.1278 -1.2031 -0.7251
  124Eth    Hcc 3389   2.721   2.795   6.162  0.1944 -2.7739  0.4975
  125Eth     Ho 3390   1.891   2.908   4.921 -0.5458  2.8087  1.7023
  125Eth     Oh 3391   1.941   2.946   4.852  0.3578 -0.1479  0.6814
  125Eth     Co 3392   1.852   3.037   4.791  0.4658  0.1869  0.2325
  125Eth    Hco 3393   1.887   3.062   4.691 -1.0418  0.4517 -0.2526
  125Eth    Hco 3394   1.851   3.121   4.860  2.8837  0.9330 -0.6109
  125Eth     Ch 3395   1.714   2.978   4.770 -0.1206  0.4908 -0.4320
  125Eth    Hcc 3396   1.656   2.967   4.862  2.3983 -2.0855  0.9282
  125Eth    Hcc 3397   1.732   2.876   4.736  0.5295 -0.2800  2.1150
  125Eth    Hcc 3398   1.660   3.025   4.687 -2.6761 -1.3758  0.1248
  126Eth     Ho 3399   1.692   1.398   3.628  0.0348 -2.8975  0.0258
  126Eth     Oh 3400   1.621   1.386   3.688 -0.5660 -0.5590 -0.1621
  126Eth     Co 3401   1.662   1.405   3.827  0.0763 -0.2470 -0.0912
  126Eth    Hco 3402   1.735   1.485   3.834  1.1631 -1.2380 -0.0315
  126Eth    Hco 3403   1.699   1.317   3.880  0.1582 -1.7813 -2.5900
  126Eth     Ch 3404   1.520   1.437   3.897 -0.0775  0.4667  0.2104
  126Eth    Hcc 3405   1.531   1.459   4.003  0.5168  1.0582  0.0269
  126Eth    Hcc 3406   1.447   1.358   3.876  0.3803 -0.0756  0.6474
  126Eth    Hcc 3407   1.474   1.526   3.854 -0.4060 -0.1841 -0.8023
  127Eth     Ho 3408   0.517   3.367   9.322 -0.7491 -0.8655 -0.2883
  127Eth     Oh 3409   0.466   3.416   9.383  0.1013  0.3624 -0.5448
  127Eth     Co 3410   0.386   3.503   9.300  0.2482  0.5571 -0.1662
  127Eth    Hco 3411   0.337   3.445   9.222  0.3949  2.4576 -1.7348
  127Eth    Hco 3412   0.452   3.554   9.229 -0.3484 -0.4035 -1.4281
  127Eth     Ch 3413   0.281   3.593   9.361  0.4239  0.8886  0.4604
  127Eth    Hcc 3414   0.192   3.540   9.395  0.9306 -0.6900 -0.6298
  127Eth    Hcc 3415   0.226   3.666   9.301 -1.9602  0.7159  2.3368
  127Eth    Hcc 3416   0.322   3.654   9.442  2.5681  3.2059 -2.2442
  128Eth     Ho 3417   1.124   2.291   6.416  2.9267  0.3735 -0.8231
  128Eth     Oh 3418   1.114   2.224   6.481  0.1005  0.6873 -0.8488
  128Eth     Co 3419   1.246   2.174   6.491  0.9190 -0.1908  0.6579
  128Eth    Hco 3420   1.315   2.255   6.467 -1.1722  1.6170  0.6244
  128Eth    Hco 3421   1.269   2.099   6.415 -0.2667  2.4751 -2.4333
  128Eth     Ch 3422   1.277   2.108   6.628 -0.5923  0.2925 -0.5543
  128Eth    Hcc 3423   1.255   2.168   6.717  0.7735  1.7567 -1.1870
  128Eth    Hcc 3424   1.376   2.064   6.641 -1.0222 -0.3797  0.5585
  128Eth    Hcc 3425   1.208   2.024   6.630 -0.3626  0.0953 -0.9993
  129Eth     Ho 3426   1.127   0.781   7.243 -0.6898 -2.0359  0.4952
  129Eth     Oh 3427   1.219   0.759   7.250 -0.1238  0.2750  0.7258
  129Eth     Co 3428   1.247   0.735   7.389 -0.3169 -0.4062 -0.3009
  129Eth    Hco 3429   1.237   0.629   7.412  2.8669 -0.8020 -0.5642
  129Eth    Hco 3430   1.175   0.782   7.457 -0.5761 -0.0078 -0.8471
  129Eth     Ch 3431   1.385   0.778   7.445  0.1646 -0.2939  0.8022
  129Eth    Hcc 3432   1.390   0.887   7.453 -1.1872  0.1907 -3.4822
  129Eth    Hcc 3433   1.473   0.752   7.386 -0.7693 -0.1579 -0.6632
  129Eth    Hcc 3434   1.402   0.746   7.548  1.4489 -2.3391 -0.0163
  130Eth     Ho 3435   0.316   0.818   3.480 -1.6870  0.5643 -2.5149
  130Eth     Oh 3436   0.394   0.784   3.439 -0.3913 -0.5095  0.6603
  130Eth     Co 3437   0.516   0.828   3.514  0.9743  0.2567 -0.7072
  130Eth    Hco 3438   0.545   0.755   3.590 -1.5657  0.2091  0.2604
  130Eth    Hco 3439   0.499   0.913   3.579 -0.1639 -1.2414  1.0299
  130Eth     Ch 3440   0.621   0.850   3.406  0.9190 -0.3354  0.1153
  130Eth    Hcc 3441   0.597   0.778   3.328 -2.0017 -1.2413  1.7260
  130Eth    Hcc 3442   0.723   0.841   3.442  1.1522 -2.3508 -0.9941
  130Eth    Hcc 3443   0.608   0.948   3.360  0.4700 -0.4856 -0.0819
  131Eth     Ho 3444   0.196   0.079   3.056 -2.6675  1.2591 -0.1924
  131Eth     Oh 3445   0.150   0.020   3.113  0.3045 -0.1424  0.8530
  131Eth     Co 3446   0.226   0.003   3.236 -0.3038  0.1229 -0.1237
  131Eth    Hco 3447   0.144   0.032   3.303  0.4976  3.9045 -0.6526
  131Eth    Hco 3448   0.316   0.064   3.245 -0.0719 -0.3257  0.6265
  131Eth     Ch 3449   0.261  -0.140   3.254  0.2528  0.2594 -0.2363
  131Eth    Hcc 3450   0.307  -0.159   3.351  0.2356  1.2040 -0.0380
  131Eth    Hcc 3451   0.326  -0.185   3.180 -0.5282 -0.5909 -0.4143
  131Eth    Hcc 3452   0.177  -0.208   3.270 -0.1050  0.8515  0.4808
  132Eth     Ho 3453   1.511   0.090   4.251 -0.5800  0.4295 -2.1871
  132Eth     Oh 3454   1.495   0.180   4.273 -0.1078  0.1689 -0.7087
  132Eth     Co 3455   1.389   0.217   4.187  0.8693 -0.7046 -0.1416
  132Eth    Hco 3456   1.295   0.164   4.201  0.3846 -0.6971 -2.9510
  132Eth    Hco 3457   1.417   0.194   4.084  1.8425 -0.2609  0.0138
  132Eth     Ch 3458   1.358   0.364   4.213  0.5577 -0.3958 -0.5701
  132Eth    Hcc 3459   1.330   0.382   4.316  3.9268  0.1525  0.3060
  132Eth    Hcc 3460   1.278   0.395   4.145 -0.8909 -0.3686  1.1368
  132Eth    Hcc 3461   1.451   0.412   4.181  1.1320 -0.3206  1.1904
  133Eth     Ho 3462   3.290   1.926   1.635 -1.1749 -0.4670  0.9249
  133Eth     Oh 3463   3.272   2.016   1.657 -0.4866  0.1189 -0.8127
  133Eth     Co 3464   3.244   2.097   1.548  0.0543 -0.2341  0.5565
  133Eth    Hco 3465   3.201   2.031   1.472 -0.7219 -0.0260  0.8130
  133Eth    Hco 3466   3.339   2.141   1.517 -1.6127  0.7686 -3.5103
  133Eth     Ch 3467   3.145   2.204   1.564 -0.7374  0.1048  0.1268
  133Eth    Hcc 3468   3.167   2.278   1.486 -0.3034 -0.9646 -0.7904
  133Eth    Hcc 3469   3.152   2.255   1.660  0.2804 -1.4467  0.8835
  133Eth    Hcc 3470   3.041   2.179   1.542  0.1514 -1.0396 -3.1781
  134Eth     Ho 3471   3.110   2.319   8.354  0.8449  0.5320  0.0294
  134Eth     Oh 3472   3.045   2.334   8.289  0.3791  0.6125  0.5069
  134Eth     Co 3473   3.103   2.438   8.212  0.1962  0.0471  0.0121
  134Eth    Hco 3474   3.179   2.400   8.144  2.4424  1.0963  1.8068
  134Eth    Hco 3475   3.158   2.516   8.265 -2.9332  1.4250  1.3375
  134Eth     Ch 3476   2.986   2.478   8.125  0.4492 -0.3432  0.6335
  134Eth    Hcc 3477   2.961   2.394   8.061 -1.1117 -1.4563  2.6500
  134Eth    Hcc 3478   3.009   2.569   8.069 -0.1550  0.0445  1.0032
  134Eth    Hcc 3479   2.901   2.516   8.181 -0.5603 -0.0618 -1.0534
  135Eth     Ho 3480   1.687   0.223   5.887  0.5380 -0.3053 -0.6516
  135Eth     Oh 3481   1.714   0.295   5.833  0.2755  0.0306 -0.3349
  135Eth     Co 3482   1.610   0.330   5.747  0.2219 -0.5793  0.1979
  135Eth    Hco 3483   1.529   0.357   5.816  0.1129  0.1091 -0.1904
  135Eth    Hco 3484   1.564   0.244   5.698  2.5213 -2.4243  1.1966
  135Eth     Ch 3485   1.641   0.447   5.653 -0.4610  0.0714 -0.1071
  135Eth    Hcc 3486   1.560   0.472   5.585  0.9322  0.5944 -1.5966
  135Eth    Hcc 3487   1.728   0.415   5.596 -0.0073  2.4115 -0.7420
  135Eth    Hcc 3488   1.670   0.536   5.708  0.5788 -1.0772  1.2302
  136Eth     Ho 3489   1.778   2.537   9.726 -0.2344  2.3304 -2.3785
  136Eth     Oh 3490   1.691   2.552   9.761  0.0623 -0.3087 -0.3324
  136Eth     Co 3491   1.650   2.430   9.820 -1.0996  0.1395  0.2813
  136Eth    Hco 3492   1.709   2.412   9.909  0.3523  1.3195 -0.4275
  136Eth    Hco 3493   1.686   2.358   9.747  2.0242  1.2871  0.6100
  136Eth     Ch 3494   1.503   2.437   9.849  0.7157 -0.1085 -0.0779
  136Eth    Hcc 3495   1.470   2.534   9.886 -1.1797 -1.2111  1.2208
  136Eth    Hcc 3496   1.471   2.359   9.918  2.2780 -0.4836  0.2302
  136Eth    Hcc 3497   1.449   2.426   9.754  0.0574 -2.9673  0.5963
  137Eth     Ho 3498   2.459   2.606   9.823 -0.8874 -0.4047  0.8168
  137Eth     Oh 3499   2.464   2.542   9.754  0.9162  0.5984 -0.0227
  137Eth     Co 3500   2.502   2.417   9.815 -0.3044 -0.0418  0.1146
  137Eth    Hco 3501   2.417   2.366   9.861 -0.3655  0.7504  0.9043
  137Eth    Hco 3502   2.558   2.447   9.904  0.4283 -1.0318 -0.0107
  137Eth     Ch 3503   2.586   2.326   9.730 -0.1538  0.5830 -0.1127
  137Eth    Hcc 3504   2.683   2.356   9.691  0.6546  0.7776  1.9558
  137Eth    Hcc 3505   2.538   2.265   9.654  1.6743 -0.5720 -0.3689
  137Eth    Hcc 3506   2.613   2.258   9.811 -1.7905  0.9112  0.7228
  138Eth     Ho 3507   0.396   3.161   2.652 -0.7529 -1.4866  1.2050
  138Eth     Oh 3508   0.426   3.090   2.598 -0.5870 -0.2514 -0.3474
  138Eth     Co 3509   0.511   3.146   2.510  0.2011 -0.1063 -0.2833
  138Eth    Hco 3510   0.583   3.218   2.551  0.4800  0.7598 -2.2332
  138Eth    Hco 3511   0.444   3.201   2.444 -1.3773 -0.7481  0.7666
  138Eth     Ch 3512   0.586   3.038   2.425 -0.2339  0.1993 -0.5819
  138Eth    Hcc 3513   0.517   2.965   2.382 -0.8818  0.2572  0.3424
  138Eth    Hcc 3514   0.656   2.979   2.485 -0.5973  1.8468  1.5134
  138Eth    Hcc 3515   0.638   3.084   2.342  1.1367 -0.4434 -0.1023
  139Eth     Ho 3516   0.860   0.212   6.740  0.2212 -2.9994  0.3513
  139Eth     Oh 3517   0.896   0.225   6.826  0.5394 -0.1599 -0.1599
  139Eth     Co 3518   1.033   0.205   6.814 -0.1419  0.2111  0.1464
  139Eth    Hco 3519   1.061   0.283   6.742 -1.2973  0.7329  0.2588
  139Eth    Hco 3520   1.072   0.115   6.767 -1.4102 -0.7628  0.9529
  139Eth     Ch 3521   1.113   0.210   6.945  0.4248  0.0587 -0.1693
  139Eth    Hcc 3522   1.216   0.179   6.929 -0.0158 -0.2472 -2.5084
  139Eth    Hcc 3523   1.071   0.152   7.027 -0.9164 -0.1809 -1.0123
  139Eth    Hcc 3524   1.127   0.307   6.994  0.9360 -0.7527  1.2933
  140Eth     Ho 3525   2.372   0.643   5.221 -0.0285  2.0726 -1.6166
  140Eth     Oh 3526   2.368   0.587   5.145 -0.2279 -0.2689  0.0813
  140Eth     Co 3527   2.499   0.545   5.120 -0.0149 -0.1690  0.6622
  140Eth    Hco 3528   2.545   0.513   5.213 -1.4733  1.4181  1.9890
  140Eth    Hco 3529   2.553   0.627   5.072  1.0944 -2.0763 -1.4481
  140Eth     Ch 3530   2.489   0.424   5.022  0.5606  0.3052 -0.4994
  140Eth    Hcc 3531   2.435   0.336   5.058  0.0924  0.7494 -0.1279
  140Eth    Hcc 3532   2.595   0.409   5.000 -0.1060 -0.9689 -2.9981
  140Eth    Hcc 3533   2.443   0.456   4.929 -1.1907  0.1617  0.3086
  141Eth     Ho 3534   2.537   1.761   1.517 -0.5802 -0.5927 -1.0545
  141Eth     Oh 3535   2.618   1.803   1.495 -0.5736 -0.3394 -0.5511
  141Eth     Co 3536   2.714   1.765   1.598 -0.4297 -1.0316 -0.0506
  141Eth    Hco 3537   2.728   1.658   1.606  3.3351 -0.5072  1.3080
  141Eth    Hco 3538   2.674   1.801   1.693 -3.2287  0.9491 -1.8653
  141Eth     Ch 3539   2.852   1.826   1.561 -0.2580 -0.2511  0.9816
  141Eth    Hcc 3540   2.847   1.929   1.526  0.9630  0.2572  2.2445
  141Eth    Hcc 3541   2.898   1.765   1.483 -0.7002  0.8429 -0.1454
  141Eth    Hcc 3542   2.924   1.813   1.642  0.7337  1.4384  0.3784
  142Eth     Ho 3543   1.128   0.487   5.813  0.2445  1.3677  0.4936
  142Eth     Oh 3544   1.105   0.497   5.722  0.1442 -0.1579  0.3334
  142Eth     Co 3545   1.212   0.539   5.639  0.5873 -0.9039  0.6158
  142Eth    Hco 3546   1.294   0.576   5.700  0.2464  0.8759  0.0245
  142Eth    Hco 3547   1.182   0.618   5.570  2.1748 -0.4939  0.3726
  142Eth     Ch 3548   1.256   0.425   5.552 -0.2525  0.1381 -0.1596
  142Eth    Hcc 3549   1.298   0.464   5.460  0.9971  0.5939  0.5970
  142Eth    Hcc 3550   1.168   0.361   5.537 -0.4018  0.0163  1.1846
  142Eth    Hcc 3551   1.338   0.371   5.599  0.5102  0.2684 -1.3290
  143Eth     Ho 3552   1.546   0.298   9.648  1.8959  1.1342 -0.4370
  143Eth     Oh 3553   1.484   0.366   9.665 -0.1010 -0.4789 -1.0486
  143Eth     Co 3554   1.489   0.373   9.809  0.2153  0.2894 -0.2963
  143Eth    Hco 3555   1.555   0.291   9.837 -0.7129 -0.1072  0.8247
  143Eth    Hco 3556   1.389   0.348   9.847  0.7488  0.5585  1.3356
  143Eth     Ch 3557   1.535   0.504   9.855  0.9053  0.4776  0.7361
  143Eth    Hcc 3558   1.489   0.594   9.815 -0.2358  0.0361  1.0490
  143Eth    Hcc 3559   1.642   0.522   9.841  0.4618  2.7852  0.1266
  143Eth    Hcc 3560   1.525   0.495   9.963 -1.1302  0.5773  0.5719
  144Eth     Ho 3561   2.834   2.578   7.274 -1.9812 -1.0837 -0.7609
  144Eth     Oh 3562   2.849   2.526   7.352  0.0352  0.2707 -0.2346
  144Eth     Co 3563   2.828   2.384   7.328  0.6598 -0.4643  0.5869
  144Eth    Hco 3564   2.876   2.322   7.404  1.3179 -1.2901 -0.4779
  144Eth    Hco 3565   2.882   2.355   7.237 -3.2923 -1.6476 -1.5026
  144Eth     Ch 3566   2.683   2.347   7.327 -0.1619 -0.4411  0.1137
  144Eth    Hcc 3567   2.689   2.242   7.301  1.3904 -0.4876  0.6297
  144Eth    Hcc 3568   2.627   2.391   7.245  0.7640 -0.2109 -0.3988
  144Eth    Hcc 3569   2.630   2.359   7.422  1.4673  1.5081  0.8194
  145Eth     Ho 3570   3.189   0.053   4.028 -0.5229  0.8780  0.1674
  145Eth     Oh 3571   3.231   0.134   4.006  0.2801  0.3433 -0.3151
  145Eth     Co 3572   3.273   0.206   4.119 -0.2916  0.3751  0.2143
  145Eth    Hco 3573   3.347   0.147   4.173 -0.2513 -1.5785 -1.8924
  145Eth    Hco 3574   3.191   0.218   4.190 -1.1916  1.3636 -0.9793
  145Eth     Ch 3575   3.312   0.346   4.082  0.4657 -0.3100  0.0136
  145Eth    Hcc 3576   3.381   0.348   3.997  2.7042 -2.0429  1.7185
  145Eth    Hcc 3577   3.354   0.401   4.166 -0.5932  0.0408  0.3216
  145Eth    Hcc 3578   3.228   0.411   4.059  0.6787  0.3265  1.0035
  146Eth     Ho 3579   1.851   2.935   5.137 -2.4889 -0.3680  1.9400
  146Eth     Oh 3580   1.810   2.861   5.095  0.0679 -0.3616 -0.6595
  146Eth     Co 3581   1.678   2.878   5.135 -0.7245  0.0755  0.1397
  146Eth    Hco 3582   1.664   2.984   5.114 -0.0080  0.6603  2.4234
  146Eth    Hco 3583   1.658   2.858   5.240 -1.8772  1.3499  0.1771
  146Eth     Ch 3584   1.592   2.771   5.060  0.9290  0.1630 -0.3515
  146Eth    Hcc 3585   1.635   2.673   5.082 -0.5344 -0.4680 -0.2824
  146Eth    Hcc 3586   1.602   2.776   4.951 -0.0095 -1.2836 -0.5136
  146Eth    Hcc 3587   1.486   2.769   5.082  1.4105  0.2889  2.1422
  147Eth     Ho 3588   0.741   1.527   8.747  0.1617 -0.0283  0.2967
  147Eth     Oh 3589   0.748   1.434   8.756 -0.6414 -0.1227 -0.0684
  147Eth     Co 3590   0.884   1.399   8.766 -0.6358  0.1078 -0.4823
  147Eth    Hco 3591   0.929   1.452   8.850  2.5465  0.7245 -2.4818
  147Eth    Hco 3592   0.932   1.432   8.674 -1.4240 -0.5610 -1.1459
  147Eth     Ch 3593   0.900   1.245   8.781 -0.7101  0.3438 -0.3508
  147Eth    Hcc 3594   0.878   1.189   8.691  1.1761 -0.1278 -0.5215
  147Eth    Hcc 3595   0.837   1.218   8.866 -0.2578  0.7922  0.1284
  147Eth    Hcc 3596   1.000   1.218   8.813 -0.8693  1.1243  0.8714
  148Eth     Ho 3597   1.071   1.888   2.319  0.8926 -0.9045  0.0283
  148Eth     Oh 3598   1.156   1.907   2.353  0.7520  0.3735 -0.3138
  148Eth     Co 3599   1.194   1.785   2.421 -0.1818 -0.3900  0.1931
  148Eth    Hco 3600   1.190   1.706   2.346  0.7028  0.4320 -0.7448
  148Eth    Hco 3601   1.121   1.746   2.491  0.6723 -1.2692  0.5967
  148Eth     Ch 3602   1.334   1.790   2.478 -0.8500 -1.0762  0.4631
  148Eth    Hcc 3603   1.419   1.810   2.413  0.4108 -4.0628  1.0886
  148Eth    Hcc 3604   1.342   1.691   2.524 -2.6893 -0.8142  1.4104
  148Eth    Hcc 3605   1.340   1.861   2.560 -0.9775 -0.2152 -0.2632
  149Eth     Ho 3606   1.662   3.095   2.982  0.9302  0.6801  0.0905
  149Eth     Oh 3607   1.618   3.149   3.044 -0.0365  0.6785 -0.5748
  149Eth     Co 3608   1.493   3.097   3.087  0.2744  0.5783  0.0146
  149Eth    Hco 3609   1.508   3.018   3.160 -0.7413  0.6238  0.2790
  149Eth    Hco 3610   1.444   3.052   3.000 -0.2899  0.0003  0.6188
  149Eth     Ch 3611   1.410   3.208   3.136 -0.1728  0.2428 -0.4084
  149Eth    Hcc 3612   1.317   3.164   3.173 -0.3836  0.0085 -1.2068
  149Eth    Hcc 3613   1.373   3.273   3.056 -1.7827 -1.1318 -0.8069
  149Eth    Hcc 3614   1.453   3.270   3.215 -0.2004  1.2664 -1.1838
  150Eth     Ho 3615   3.032   2.044   9.982  0.4117  1.5581  0.7692
  150Eth     Oh 3616   3.070   2.070   9.900  0.0024  0.0937  0.1013
  150Eth     Co 3617   3.208   2.041   9.909  0.6136 -1.3199  0.2914
  150Eth    Hco 3618   3.214   1.937   9.941  0.6973 -1.0878  1.0143
  150Eth    Hco 3619   3.254   2.105   9.984 -2.5198 -0.0500  1.2163
  150Eth     Ch 3620   3.273   2.051   9.767 -0.2385 -0.4707  0.3436
  150Eth    Hcc 3621   3.278   2.152   9.728  2.5204  0.3325  2.5918
  150Eth    Hcc 3622   3.223   1.998   9.685 -1.0381 -0.9790  1.1463
  150Eth    Hcc 3623   3.374   2.010   9.769  0.0675  0.2672  0.1625
  151Eth     Ho 3624   3.049   0.341   8.145  0.9684 -0.5972  0.8444
  151Eth     Oh 3625   3.035   0.248   8.143 -0.5137 -0.3872 -0.5344
  151Eth     Co 3626   3.054   0.203   8.275  1.0216 -0.0012 -0.4621
  151Eth    Hco 3627   2.960   0.217   8.328  1.2211  1.7536 -0.5187
  151Eth    Hco 3628   3.118   0.272   8.331  0.5062 -0.3149  0.5262
  151Eth     Ch 3629   3.098   0.065   8.289  0.5997 -0.0617 -0.3265
  151Eth    Hcc 3630   3.188   0.053   8.228  0.7129  0.9404 -0.3570
  151Eth    Hcc 3631   3.018  -0.004   8.262 -0.3163  0.6445  0.5801
  151Eth    Hcc 3632   3.128   0.044   8.392 -0.5566 -0.7583 -0.1239
  152Sol     OW 3633   3.082   3.369   7.524  0.2878  0.0251 -0.5495
  152Sol     HW 3634   3.029   3.379   7.445  0.6970 -1.5237 -1.0431
  152Sol     HW 3635   3.031   3.308   7.579 -0.1642  1.3597  0.5384
  152Sol     MW 3636   3.073   3.364   7.522  0.6612 -0.0067 -0.0438
  153Sol     OW 3637   2.100   1.872   9.952  0.0001 -0.3033  0.5326
  153Sol     HW 3638   2.018   1.823   9.952 -1.2231  1.6370  2.7094
  153Sol     HW 3639   2.089   1.938   9.884  0.0123 -0.4747  0.3652
  153Sol     MW 3640   2.092   1.874   9.946  0.3572  0.4922 -0.4043
  154Sol     OW 3641   2.127   0.815   3.959  0.1372 -0.2431 -0.2852
  154Sol     HW 3642   2.160   0.790   3.872 -0.6374  0.7197 -0.8664
  154Sol     HW 3643   2.079   0.738   3.989  1.4346 -1.0322 -0.1644
  154Sol     MW 3644   2.126   0.805   3.954 -0.1372  0.5005  0.3552
  155Sol     OW 3645   2.001   1.093   1.713  0.5147 -0.7563 -0.6848
  155Sol     HW 3646   2.096   1.105   1.713  0.5619 -0.9150  2.0317
  155Sol     HW 3647   1.969   1.152   1.781 -1.1810 -1.7661 -0.5862
  155Sol     MW 3648   2.007   1.099   1.719  0.0701  0.1997 -0.4000
  156Sol     OW 3649   0.958   2.236   3.646  0.7797 -0.6939  0.3980
  156Sol     HW 3650   1.038   2.282   3.670  1.1740 -1.1010 -0.1354
  156Sol     HW 3651   0.959   2.156   3.699  2.5483 -2.4791 -2.2110
  156Sol     MW 3652   0.965   2.233   3.653 -0.8433 -0.0814  0.3010
  157Sol     OW 3653   1.897   2.183   5.603  0.3312 -0.4459  0.0342
  157Sol     HW 3654   1.896   2.152   5.512 -0.2448 -0.7916  0.1497
  157Sol     HW 3655   1.918   2.276   5.597  2.1807 -0.8852 -0.3179
  157Sol     MW 3656   1.898   2.188   5.594 -0.3532 -0.2877  0.2245
  158Sol     OW 3657   1.197   1.752   1.454  0.0755 -0.3518  0.4893
  158Sol     HW 3658   1.106   1.777   1.472  0.4635  0.5607  1.1764
  158Sol     HW 3659   1.229   1.716   1.537  0.3538 -0.6570  0.2522
  158Sol     MW 3660   1.191   1.751   1.463  0.3194 -0.4696 -0.1457
  159Sol     OW 3661   0.067   2.997   3.226  0.0941  0.1270  0.3400
  159Sol     HW 3662   0.021   3.078   3.205 -0.2181  0.6824  3.0060
  159Sol     HW 3663   0.040   2.936   3.157 -1.5344  1.5832 -0.3523
  159Sol     MW 3664   0.061   2.998   3.218  0.0691 -0.3422  0.1266
  160Sol     OW 3665   0.674   2.456   2.661 -0.0722  0.0002  0.2245
  160Sol     HW 3666   0.582   2.483   2.655 -0.2552 -0.9760 -1.6600
  160Sol     HW 3667   0.714   2.519   2.721 -1.8448  0.7548  0.6362
  160Sol     MW 3668   0.669   2.464   2.666 -0.6496  0.2605  0.1630
  161Sol     OW 3669   0.134   2.134   9.483  0.3647  0.3204 -0.1143
  161Sol     HW 3670   0.161   2.044   9.462 -0.6327 -0.8755  3.3595
  161Sol     HW 3671   0.207   2.170   9.533  0.2534  1.0382 -0.4681
  161Sol     MW 3672   0.143   2.129   9.485 -0.3565  0.1347 -0.4887
  162Sol     OW 3673   1.538   0.020   3.453 -0.0751 -0.3040  0.3324
  162Sol     HW 3674   1.520   0.056   3.366 -0.4488 -0.7378  0.2275
  162Sol     HW 3675   1.628  -0.013   3.447  0.1754  0.3696  0.3504
  162Sol     MW 3676   1.545   0.020   3.445  0.2526 -0.4493  0.3014
  163Sol     OW 3677   2.948   2.771   9.459 -0.0774  0.2099 -0.0915
  163Sol     HW 3678   2.976   2.802   9.374  3.0196 -1.9108  0.0883
  163Sol     HW 3679   3.020   2.793   9.518  0.3159 -3.2513  0.8475
  163Sol     MW 3680   2.957   2.776   9.457 -0.4268  0.1752  0.1994
  164Sol     OW 3681   2.426   3.143   7.120 -0.1644 -0.2170 -0.4982
  164Sol     HW 3682   2.450   3.232   7.147 -1.8414 -0.1612  0.8803
  164Sol     HW 3683   2.344   3.155   7.072  1.6151 -0.5834 -3.8048
  164Sol     MW 3684   2.421   3.152   7.118  0.5753  0.2761  0.6369
  165Sol     OW 3685   2.368   1.961   5.044 -0.8636  0.3530 -0.2577
  165Sol     HW 3686   2.330   2.025   4.984 -2.5231  1.6412  2.0829
  165Sol     HW 3687   2.375   1.881   4.992 -0.8784  1.8107 -2.5783
  165Sol     MW 3688   2.365   1.960   5.034  0.1031 -0.2384 -0.0200
  166Sol     OW 3689   1.305   2.210   7.274 -0.1121 -0.1435 -0.0135
  166Sol     HW 3690   1.313   2.120   7.305  1.7005  0.5285  1.5988
  166Sol     HW 3691   1.282   2.261   7.352 -0.7411  0.8502 -0.8299
  166Sol     MW 3692   1.304   2.206   7.284 -0.4873 -0.9345 -0.1270
  167Sol     OW 3693   2.915   1.724   9.287  0.5241  0.2361  0.3195
  167Sol     HW 3694   2.877   1.809   9.310  1.5187  0.7825 -0.0744
  167Sol     HW 3695   2.928   1.680   9.372 -0.5881  0.2010  0.4873
  167Sol     MW 3696   2.913   1.727   9.297  0.4178 -0.1704 -0.1777
  168Sol     OW 3697   0.184   2.873   1.998  0.5253 -0.0472 -0.0971
  168Sol     HW 3698   0.153   2.853   1.910 -0.1151 -1.8131  0.5023
  168Sol     HW 3699   0.273   2.905   1.986 -0.2366  1.5875 -1.5468
  168Sol     MW 3700   0.189   2.874   1.989 -0.4208  0.2867 -0.1283
  169Sol     OW 3701   2.785   1.440   6.524  0.4162  0.1670 -0.0940
  169Sol     HW 3702   2.695   1.456   6.552  0.6096  0.7470  0.2109
  169Sol     HW 3703   2.804   1.510   6.461  1.2034  1.0555  1.1037
  169Sol     MW 3704   2.779   1.448   6.521  0.3415 -0.5744 -0.5281
  170Sol     OW 3705   1.400   3.218   6.408  0.0922 -0.6657  0.0666
  170Sol     HW 3706   1.359   3.138   6.443  1.0445 -1.3609 -0.3783
  170Sol     HW 3707   1.341   3.288   6.434 -1.5635 -1.6751 -0.8169
  170Sol     MW 3708   1.391   3.217   6.413  0.0130 -0.5027 -0.6006
  171Sol     OW 3709   0.094   1.803   4.853  0.7541 -0.0174  0.0320
  171Sol     HW 3710   0.086   1.773   4.763 -0.1734  1.8786 -0.5315
  171Sol     HW 3711   0.005   1.828   4.878  0.9792 -0.6329  1.5226
  171Sol     MW 3712   0.085   1.802   4.847 -0.2100  0.1902 -0.8880
  172Sol     OW 3713   1.904   2.894   4.464  0.4375 -0.4324  0.2881
  172Sol     HW 3714   1.910   2.805   4.497 -0.3239  0.1313  2.0196
  172Sol     HW 3715   1.910   2.949   4.542 -0.8144  0.9618 -0.5591
  172Sol     MW 3716   1.905   2.891   4.474 -0.3705 -0.5951  0.4836
  173Sol     OW 3717   1.337   0.038   6.774  0.3473  0.7061 -0.2143
  173Sol     HW 3718   1.306  -0.049   6.797 -1.5258  1.5435  0.6013
  173Sol     HW 3719   1.341   0.039   6.679 -0.6949  0.0694 -0.2704
  173Sol     MW 3720   1.335   0.031   6.768  0.0294 -0.1144 -0.3159
  174Sol     OW 3721   1.120   0.740   6.598 -0.2149  0.2899 -0.2202
  174Sol     HW 3722   1.174   0.667   6.567  2.6080  2.8856 -1.8098
  174Sol     HW 3723   1.163   0.769   6.679 -0.9512  0.5206  0.0849
  174Sol     MW 3724   1.129   0.736   6.602 -0.4542 -0.5829 -0.1002
  175Sol     OW 3725   1.620   3.186   5.402  0.0011 -0.4512  0.0142
  175Sol     HW 3726   1.627   3.274   5.439  0.2024 -0.1102 -0.8182
  175Sol     HW 3727   1.657   3.194   5.314 -0.7754 -1.1772 -0.3851
  175Sol     MW 3728   1.624   3.194   5.397  0.3255  0.4748 -0.0807
  176Sol     OW 3729   1.991   1.622   3.899  0.2969  0.1362  0.4856
  176Sol     HW 3730   2.039   1.601   3.819  0.9540  1.9759  0.3725
  176Sol     HW 3731   1.919   1.678   3.870 -1.2933 -1.6991  0.7982
  176Sol     MW 3732   1.989   1.625   3.889  0.4227 -0.0859  0.3114
  177Sol     OW 3733   1.234   2.668   3.644 -0.3241 -0.4560 -0.4676
  177Sol     HW 3734   1.290   2.720   3.701  2.3451 -1.4259 -2.1129
  177Sol     HW 3735   1.174   2.732   3.604  1.1364  0.9637 -0.4350
  177Sol     MW 3736   1.234   2.678   3.646  0.0214 -0.0511 -0.2937
  178Sol     OW 3737   2.958   2.884   2.309 -0.0016 -0.1860 -0.4660
  178Sol     HW 3738   2.950   2.948   2.238 -0.4409  0.7521  0.4171
  178Sol     HW 3739   2.933   2.800   2.269  2.4231 -0.1713 -2.1388
  178Sol     MW 3740   2.956   2.882   2.299 -0.9280  0.4173 -0.3754
  179Sol     OW 3741   0.600   3.206   1.938  0.6623  0.3806  0.4409
  179Sol     HW 3742   0.647   3.252   1.868 -0.9728  0.9617 -0.2948
  179Sol     HW 3743   0.589   3.272   2.007  0.1522  0.5148  0.2379
  179Sol     MW 3744   0.603   3.216   1.938 -0.0484 -0.4548  0.1890
  180Sol     OW 3745   0.469   0.929   2.769 -0.0387 -0.6241 -0.1449
  180Sol     HW 3746   0.427   0.853   2.729 -0.3492  0.4873 -1.9963
  180Sol     HW 3747   0.552   0.895   2.805 -0.7316 -2.0539  0.1225
  180Sol     MW 3748   0.473   0.919   2.769 -0.3489 -0.4610  0.2153
  181Sol     OW 3749   1.161   0.975   1.853 -0.7008  0.2453  0.3791
  181Sol     HW 3750   1.201   0.956   1.768 -1.9195 -1.4923  0.1829
  181Sol     HW 3751   1.197   1.060   1.877  1.2910 -0.2089 -0.8900
  181Sol     MW 3752   1.168   0.981   1.848 -0.1586  0.3471  0.0022
  182Sol     OW 3753   0.553   3.283   7.100 -1.1440  0.1116  0.1807
  182Sol     HW 3754   0.558   3.377   7.117  0.3649 -0.1492  1.2849
  182Sol     HW 3755   0.479   3.253   7.152 -1.0237  0.5388  0.6077
  182Sol     MW 3756   0.547   3.289   7.106  0.9827  0.3120 -0.0241
  183Sol     OW 3757   0.392   1.205   8.477  0.3775  0.2276 -0.0811
  183Sol     HW 3758   0.472   1.236   8.520  0.3709 -0.5420  0.5044
  183Sol     HW 3759   0.329   1.275   8.490  1.1102  1.0680 -1.0108
  183Sol     MW 3760   0.393   1.214   8.482 -0.2275  0.6401  0.0398
  184Sol     OW 3761   2.883   1.320   8.209  0.1451  0.1867  0.0402
  184Sol     HW 3762   2.975   1.298   8.220  0.0920  1.1661  2.9526
  184Sol     HW 3763   2.857   1.357   8.294 -2.2468  2.3448 -1.5552
  184Sol     MW 3764   2.889   1.322   8.218 -0.7589 -0.7534 -0.5997
  185Sol     OW 3765   2.456   2.788   9.215  0.0172 -0.0794 -0.4937
  185Sol     HW 3766   2.431   2.875   9.183 -0.4597 -0.6806 -1.7911
  185Sol     HW 3767   2.549   2.781   9.196 -0.2681 -0.4406 -1.8053
  185Sol     MW 3768   2.462   2.795   9.211 -0.0665 -1.1058  0.0450
  186Sol     OW 3769   2.317   3.084   1.654 -0.3830 -0.1933 -0.1439
  186Sol     HW 3770   2.223   3.072   1.640 -0.9224  2.6753  0.7975
  186Sol     HW 3771   2.337   3.027   1.729 -1.9144  1.1161  1.3113
  186Sol     MW 3772   2.310   3.078   1.660 -0.2818 -0.2207  0.2624
  187Sol     OW 3773   0.426   2.704   1.852 -0.1300  0.7148 -0.1548
  187Sol     HW 3774   0.442   2.779   1.908 -0.7288  1.4843 -0.9979
  187Sol     HW 3775   0.381   2.740   1.775  0.6817 -0.3132 -1.1354
  187Sol     MW 3776   0.423   2.714   1.850 -0.8556  0.0014 -0.5333
  188Sol     OW 3777   3.288   1.485   6.945  0.0300  0.1924 -0.1550
  188Sol     HW 3778   3.359   1.428   6.974  1.1888  2.2998  1.2993
  188Sol     HW 3779   3.251   1.440   6.869  2.6767 -1.1458 -0.7334
  188Sol     MW 3780   3.291   1.476   6.941  0.2912 -0.4083 -0.2752
  189Sol     OW 3781   1.966   3.119   7.416 -0.6955 -0.3079 -0.0053
  189Sol     HW 3782   1.924   3.200   7.386 -0.3358 -0.0409  0.2076
  189Sol     HW 3783   2.000   3.079   7.337 -0.0160  0.2417  0.0029
  189Sol     MW 3784   1.965   3.123   7.406 -0.1965  0.1385  0.3276
  190Sol     OW 3785   1.455   0.676   3.991  0.7463  0.3521  0.3305
  190Sol     HW 3786   1.501   0.760   3.985  1.2393  0.0224 -0.7358
  190Sol     HW 3787   1.416   0.664   3.904 -0.7240  0.2631  0.9850
  190Sol     MW 3788   1.456   0.683   3.982  0.3953 -0.0204  0.0063
  191Sol     OW 3789   2.306   1.714   4.868 -0.2178  0.3146  0.2874
  191Sol     HW 3790   2.316   1.741   4.776 -1.1781  2.2208  0.7190
  191Sol     HW 3791   2.307   1.619   4.865 -2.3915  0.3061 -1.9659
  191Sol     MW 3792   2.307   1.708   4.859 -0.0910  0.0191 -0.0440
  192Sol     OW 3793   2.447   2.307   3.187 -0.0944  0.0746  0.0482
  192Sol     HW 3794   2.372   2.298   3.127 -0.4573  1.2174  0.3259
  192Sol     HW 3795   2.414   2.277   3.271  0.2340 -0.9364 -0.1744
  192Sol     MW 3796   2.437   2.304   3.189  0.2683 -0.0141 -0.0728
  193Sol     OW 3797   2.589   2.138   6.113  0.2463 -0.6184  0.3899
  193Sol     HW 3798   2.682   2.133   6.094  0.5284 -2.8106  2.0734
  193Sol     HW 3799   2.573   2.065   6.174 -2.3396  0.3785  0.9842
  193Sol     MW 3800   2.596   2.131   6.117 -0.5690  0.2913  0.3343
  194Sol     OW 3801   1.077   0.750   7.943 -0.6664 -0.1418  0.7970
  194Sol     HW 3802   1.085   0.760   7.848  1.9592  0.8061  1.0927
  194Sol     HW 3803   1.052   0.659   7.955  0.8456 -0.7893 -0.7206
  194Sol     MW 3804   1.075   0.743   7.935 -0.4905  0.3095 -0.0604
  195Sol     OW 3805   1.620   0.762   3.542  0.6235 -0.5149  0.7216
  195Sol     HW 3806   1.569   0.803   3.611  0.6174  0.2038  0.2969
  195Sol     HW 3807   1.614   0.822   3.468  0.6000 -1.2938  0.0821
  195Sol     MW 3808   1.615   0.771   3.542  0.3278  0.4141 -0.0302
  196Sol     OW 3809   0.542   0.358   9.117 -0.4095  0.2735 -0.2234
  196Sol     HW 3810   0.615   0.346   9.178 -0.6396 -0.3790 -0.0663
  196Sol     HW 3811   0.576   0.418   9.050  0.5028 -0.5477 -0.5141
  196Sol     MW 3812   0.552   0.362   9.116 -0.3958  0.1930 -0.2166
  197Sol     OW 3813   2.411   0.597   9.042  0.1600 -0.0161  0.3285
  197Sol     HW 3814   2.476   0.527   9.043  0.8996  0.6184 -1.3391
  197Sol     HW 3815   2.453   0.670   9.086 -0.7092 -0.6701  2.3079
  197Sol     MW 3816   2.420   0.597   9.046 -0.3900  0.1092  0.3922
  198Sol     OW 3817   2.135   0.762   4.555 -0.0114  0.1905 -0.2883
  198Sol     HW 3818   2.102   0.809   4.631 -0.2415  1.6833 -1.2857
  198Sol     HW 3819   2.182   0.687   4.592  1.4296  1.8662  1.3967
  198Sol     MW 3820   2.137   0.759   4.565  0.4503  0.0078  0.6013
  199Sol     OW 3821   0.937   1.115   2.281 -0.6992 -0.3245  0.2400
  199Sol     HW 3822   0.871   1.124   2.349 -0.8028  0.1943  0.0722
  199Sol     HW 3823   0.904   1.167   2.207  0.0278  0.1837  0.2630
  199Sol     MW 3824   0.928   1.120   2.280  0.4719  0.1072  0.1081
  200Sol     OW 3825   0.130   1.232   4.423  0.0030  0.3537 -0.5998
  200Sol     HW 3826   0.072   1.172   4.470 -1.0857  1.6917 -0.2149
  200Sol     HW 3827   0.206   1.178   4.399 -1.5110 -1.5115 -1.3629
  200Sol     MW 3828   0.132   1.222   4.425 -0.0120 -0.1731  0.0555
  201Sol     OW 3829   0.276   2.706   8.313  0.6989  0.3982  0.5068
  201Sol     HW 3830   0.307   2.743   8.230 -1.0939 -2.2263 -1.4465
  201Sol     HW 3831   0.352   2.659   8.348  1.0614  0.2337 -0.4670
  201Sol     MW 3832   0.285   2.705   8.308  0.1896  0.5191  0.0226
  202Sol     OW 3833   0.396   0.051   8.062  0.3981 -0.4955 -0.1144
  202Sol     HW 3834   0.353   0.103   7.995 -0.0295  1.1868  1.4078
  202Sol     HW 3835   0.481   0.093   8.075  0.6092 -0.9965  0.1732
  202Sol     MW 3836   0.400   0.059   8.057  0.3169  1.1366 -0.5980
  203Sol     OW 3837   2.655   1.043   6.516  0.0027  0.0466  0.0831
  203Sol     HW 3838   2.626   1.129   6.547 -0.3597  0.4005 -1.2058
  203Sol     HW 3839   2.575   0.993   6.506  0.3427 -1.0473  2.5390
  203Sol     MW 3840   2.646   1.046   6.518 -0.0186  0.9378  0.2960
  204Sol     OW 3841   3.307   1.812   4.337 -0.1327 -0.8371 -0.3714
  204Sol     HW 3842   3.297   1.902   4.368 -0.2969 -1.5459  1.6939
  204Sol     HW 3843   3.357   1.820   4.256  1.0552  0.9943  0.5147
  204Sol     MW 3844   3.310   1.821   4.333  0.6106  0.7325  0.4208
  205Sol     OW 3845   0.467   1.656   2.610 -0.0696 -0.4354 -0.0479
  205Sol     HW 3846   0.470   1.669   2.515 -0.3723  0.1985  0.0277
  205Sol     HW 3847   0.381   1.619   2.627  0.0632 -0.7420 -0.0445
  205Sol     MW 3848   0.460   1.654   2.603  0.6766 -0.1044  0.7799
  206Sol     OW 3849   0.757   1.411   6.200  0.1358  0.6159  0.4300
  206Sol     HW 3850   0.732   1.344   6.136  1.3577 -0.0479  0.6184
  206Sol     HW 3851   0.676   1.431   6.247  0.3070 -2.8551  2.3202
  206Sol     MW 3852   0.748   1.407   6.198  0.3963  0.0550 -0.5475
  207Sol     OW 3853   2.072   3.407   8.046 -0.5712  0.0079  0.4348
  207Sol     HW 3854   1.983   3.377   8.062 -0.8330  0.3740 -0.3437
  207Sol     HW 3855   2.114   3.403   8.132 -2.1777  2.5941  1.4078
  207Sol     MW 3856   2.068   3.404   8.055  0.2664 -0.4712 -0.6153
  208Sol     OW 3857   0.046   0.740   3.934  0.3493  0.9547 -0.1352
  208Sol     HW 3858   0.138   0.738   3.958  0.4742  0.8065 -0.6333
  208Sol     HW 3859   0.006   0.797   4.000  0.4805 -0.4005  1.1413
  208Sol     MW 3860   0.050   0.745   3.942  0.3225  0.0577  0.2279
  209Sol     OW 3861   1.744   0.291   4.190 -0.6449  0.7195 -0.1129
  209Sol     HW 3862   1.687   0.328   4.123 -0.4767 -0.4502 -0.9211
  209Sol     HW 3863   1.685   0.247   4.251 -0.8753  2.5348  1.0363
  209Sol     MW 3864   1.734   0.290   4.190 -0.0256  0.1024 -0.6823
  210Sol     OW 3865   1.482   1.728   4.460 -0.0897 -0.3316 -0.0126
  210Sol     HW 3866   1.409   1.772   4.504  0.4077  0.6042 -0.1078
  210Sol     HW 3867   1.511   1.662   4.523  0.1853  0.5520  0.7926
  210Sol     MW 3868   1.478   1.726   4.470  0.1693 -0.3614  0.0728
  211Sol     OW 3869   1.484   3.124   3.888  0.2415 -0.3039 -0.4572
  211Sol     HW 3870   1.553   3.182   3.921  0.8231 -1.8545  1.1247
  211Sol     HW 3871   1.422   3.183   3.845  0.9860  1.4716  0.8237
  211Sol     MW 3872   1.485   3.135   3.887  0.0815 -0.0380 -0.2623
  212Sol     OW 3873   2.106   1.365   7.004 -0.0711 -0.6038 -0.0108
  212Sol     HW 3874   2.169   1.426   7.041 -0.0820 -0.4905 -0.1771
  212Sol     HW 3875   2.133   1.279   7.037  0.0892 -0.5392  0.0260
  212Sol     MW 3876   2.114   1.362   7.010 -0.0817 -0.2384  0.3599
  213Sol     OW 3877   3.135   0.640   5.614 -0.2459 -0.2045 -0.0721
  213Sol     HW 3878   3.111   0.721   5.568  1.2639  0.8397  0.9233
  213Sol     HW 3879   3.058   0.585   5.607 -1.1059  1.1018 -1.2756
  213Sol     MW 3880   3.126   0.643   5.609  0.1449 -0.1651 -0.3408
  214Sol     OW 3881   1.212   2.598   2.882 -0.3351  0.1676 -0.3627
  214Sol     HW 3882   1.268   2.671   2.909 -1.1632  0.7269 -0.1474
  214Sol     HW 3883   1.263   2.519   2.903  1.8316  0.7072 -3.2780
  214Sol     MW 3884   1.221   2.597   2.886  0.1315  0.4257 -0.9194
  215Sol     OW 3885   2.899   1.308   7.303  0.2442  0.5218  0.4396
  215Sol     HW 3886   2.987   1.305   7.265  0.0873 -0.3736  0.1452
  215Sol     HW 3887   2.904   1.252   7.380 -0.3546 -0.4023 -0.1889
  215Sol     MW 3888   2.908   1.303   7.306  0.4012 -0.9864 -0.1528
  216Sol     OW 3889   0.151   2.625   9.886  0.1080 -0.3064 -0.1642
  216Sol     HW 3890   0.070   2.585   9.854  0.0845 -0.0714 -0.3982
  216Sol     HW 3891   0.127   2.663   9.970 -0.2479  0.5205 -0.6312
  216Sol     MW 3892   0.142   2.625   9.891  0.4285 -0.5129  0.3159
  217Sol     OW 3893   3.007   2.964   2.968  0.0918  0.0700 -0.0702
  217Sol     HW 3894   3.049   3.038   2.923 -0.9638  0.8441  0.2178
  217Sol     HW 3895   3.004   2.990   3.060 -1.2364  0.1189 -0.1207
  217Sol     MW 3896   3.011   2.973   2.972 -0.5776  0.1976  0.7640
  218Sol     OW 3897   0.252   0.202   9.752 -0.3984 -0.0783 -0.0553
  218Sol     HW 3898   0.201   0.282   9.739 -1.5425 -0.6205  1.0350
  218Sol     HW 3899   0.202   0.134   9.707 -0.5869 -0.5956  0.9300
  218Sol     MW 3900   0.243   0.203   9.746 -0.0907  0.4297  0.1856
  219Sol     OW 3901   2.085   2.670   6.592  0.1832  0.0135  0.6631
  219Sol     HW 3902   2.142   2.747   6.597 -0.0525  0.5385 -3.5392
  219Sol     HW 3903   2.001   2.700   6.625  0.7462  0.8602  1.3478
  219Sol     MW 3904   2.083   2.680   6.596  0.7346 -0.4488 -0.2920
  220Sol     OW 3905   2.724   2.378   6.920  0.3575  0.1842 -0.0117
  220Sol     HW 3906   2.732   2.304   6.860 -0.2685  0.0908  0.0203
  220Sol     HW 3907   2.636   2.411   6.906  0.1566  0.0670  0.9722
  220Sol     MW 3908   2.717   2.374   6.914  0.5545  0.1109  0.3332
  221Sol     OW 3909   3.128   0.049   3.624 -0.0425  0.9520  0.1521
  221Sol     HW 3910   3.080   0.059   3.542 -0.1600 -1.2256 -0.0838
  221Sol     HW 3911   3.206  -0.001   3.600 -0.2509 -0.0192  1.4118
  221Sol     MW 3912   3.131   0.046   3.614 -0.0652  0.1092  0.3999
  222Sol     OW 3913   1.362   2.925   2.542 -0.3378  0.8982  0.0984
  222Sol     HW 3914   1.369   2.901   2.450 -0.5352  0.6324  0.1506
  222Sol     HW 3915   1.405   2.853   2.589 -0.0117  1.1573  0.1996
  222Sol     MW 3916   1.366   2.916   2.538 -0.4128 -0.1393 -0.4828
  223Sol     OW 3917   1.458   1.406   8.501 -0.2076  0.5445  0.0141
  223Sol     HW 3918   1.500   1.379   8.582 -1.1225 -1.4395 -0.1538
  223Sol     HW 3919   1.484   1.341   8.437 -1.3250  0.8177 -0.7383
  223Sol     MW 3920   1.464   1.398   8.503 -0.3426  0.4363  0.0718
  224Sol     OW 3921   1.402   1.786   6.850 -0.8156 -0.0540 -0.4668
  224Sol     HW 3922   1.467   1.737   6.902 -2.2130  0.7874  2.1873
  224Sol     HW 3923   1.330   1.724   6.839 -0.9798  0.1343 -0.4423
  224Sol     MW 3924   1.402   1.776   6.854 -0.1877  0.1992 -0.4979
  225Sol     OW 3925   1.453   3.153   2.645 -0.1248 -0.0783  0.1748
  225Sol     HW 3926   1.528   3.122   2.696  1.0418  1.0919 -0.8082
  225Sol     HW 3927   1.406   3.074   2.622  1.7529 -0.9901 -0.6570
  225Sol     MW 3928   1.456   3.144   2.648 -0.0720  0.1077  0.3684
  226Sol     OW 3929   2.585   2.030   8.097  0.4255  0.4631 -0.2879
  226Sol     HW 3930   2.501   1.987   8.085  0.2844 -0.1664  2.5474
  226Sol     HW 3931   2.645   1.984   8.038 -1.0950  0.6534 -2.0115
  226Sol     MW 3932   2.583   2.022   8.091  0.2926 -0.1705  0.3946
  227Sol     OW 3933   2.739   0.675   7.469 -0.1806 -0.2626  0.3175
  227Sol     HW 3934   2.750   0.582   7.445 -1.7318 -1.2208  3.0631
  227Sol     HW 3935   2.771   0.680   7.559 -0.1235  1.9006  0.1917
  227Sol     MW 3936   2.743   0.667   7.475 -0.0384 -0.5547 -0.1816
  228Sol     OW 3937   1.635   1.336   5.794  0.1157  0.4114  0.1685
  228Sol     HW 3938   1.727   1.356   5.814  0.7551 -3.4226  1.5403
  228Sol     HW 3939   1.591   1.342   5.879 -0.2700 -0.8348  0.0548
  228Sol     MW 3940   1.639   1.339   5.804  0.6213 -0.6094  0.1707
  229Sol     OW 3941   2.696   0.982   5.651 -0.0897  0.0820 -0.2475
  229Sol     HW 3942   2.628   1.044   5.624 -0.4163 -0.1016  0.1439
  229Sol     HW 3943   2.661   0.896   5.630 -0.1869 -0.0403  0.4002
  229Sol     MW 3944   2.687   0.980   5.647 -0.7329 -0.1084  0.0577
  230Sol     OW 3945   0.437   2.583   4.167 -0.0345 -0.0639  0.1144
  230Sol     HW 3946   0.496   2.617   4.235 -0.5910 -1.5746  1.3789
  230Sol     HW 3947   0.365   2.544   4.216 -2.0606  1.6700 -1.4220
  230Sol     MW 3948   0.436   2.582   4.178  0.3712 -0.3663 -0.3251
  231Sol     OW 3949   2.421   1.058   9.229 -0.2578 -0.3623  0.3824
  231Sol     HW 3950   2.491   1.098   9.282  0.9064  1.2368 -2.2324
  231Sol     HW 3951   2.362   1.131   9.210 -0.5076 -0.8560 -0.7293
  231Sol     MW 3952   2.422   1.068   9.232  0.1630 -0.0243 -0.1712
  232Sol     OW 3953   2.907   3.254   8.588  0.2059  0.4553 -0.3156
  232Sol     HW 3954   2.868   3.234   8.674 -0.8483  1.5236 -0.5185
  232Sol     HW 3955   2.999   3.233   8.598  0.3995  2.0185  1.5938
  232Sol     MW 3956   2.912   3.251   8.597 -0.0820  0.2168  0.1671
  233Sol     OW 3957   0.776   1.567   3.324  0.7824  0.2548  0.3872
  233Sol     HW 3958   0.809   1.482   3.355  0.5018  0.3733  1.0185
  233Sol     HW 3959   0.757   1.616   3.405 -1.9064 -0.1682  0.0584
  233Sol     MW 3960   0.778   1.564   3.334  0.1305 -0.4007  0.8164
  234Sol     OW 3961   0.318   2.369   4.005 -0.0609  0.5168  0.1275
  234Sol     HW 3962   0.335   2.457   4.037 -1.2217  0.3602  1.2229
  234Sol     HW 3963   0.370   2.312   4.063  0.8324  0.4857 -0.6933
  234Sol     MW 3964   0.324   2.371   4.013  0.7145 -0.2406 -0.2350
  235Sol     OW 3965   3.252   2.268   5.093  0.2289  0.0493  0.1343
  235Sol     HW 3966   3.196   2.193   5.113 -0.1350  0.2647 -0.0679
  235Sol     HW 3967   3.320   2.233   5.035 -0.5280  0.0917 -0.7794
  235Sol     MW 3968   3.253   2.258   5.090 -0.0305 -0.1788 -0.5582
  236Sol     OW 3969   2.745   2.244   8.339 -0.3722 -0.4145  0.3798
  236Sol     HW 3970   2.674   2.243   8.274 -1.3649  1.8467  1.3677
  236Sol     HW 3971   2.816   2.291   8.297 -0.2868 -0.7007  0.2044
  236Sol     MW 3972   2.745   2.248   8.330  0.0990 -0.1384 -0.3968
  237Sol     OW 3973   1.766   3.070   6.355 -0.2348 -0.4141  0.3621
  237Sol     HW 3974   1.779   3.031   6.269 -0.2691 -0.0066  0.1710
  237Sol     HW 3975   1.854   3.093   6.385 -0.3298  0.5913 -0.1076
  237Sol     MW 3976   1.775   3.068   6.350  0.3254  0.0372 -0.4853
  238Sol     OW 3977   0.938   0.205   3.405 -0.3251  0.0549  0.1718
  238Sol     HW 3978   0.994   0.221   3.329  0.4549 -1.3154  0.4387
  238Sol     HW 3979   0.849   0.199   3.368 -0.0050 -0.1980 -0.5772
  238Sol     MW 3980   0.935   0.206   3.394  0.0747  0.1850 -0.3498
  239Sol     OW 3981   0.954   0.877   6.301 -0.9093 -0.5876 -0.1287
  239Sol     HW 3982   0.876   0.855   6.250 -0.4339 -2.1901 -0.2048
  239Sol     HW 3983   0.998   0.793   6.315  0.1068  0.1164  1.0586
  239Sol     MW 3984   0.951   0.867   6.298 -0.0615  0.8860  0.3101
  240Sol     OW 3985   2.541   1.751   9.259 -0.1994 -0.1426 -0.2140
  240Sol     HW 3986   2.510   1.763   9.349 -0.9074  0.6708 -0.5531
  240Sol     HW 3987   2.633   1.775   9.262 -0.2158 -0.1383  0.3081
  240Sol     MW 3988   2.546   1.754   9.267 -0.5726  0.3358  0.4896
  241Sol     OW 3989   0.834   0.856   2.266 -0.2825  0.2048  0.0361
  241Sol     HW 3990   0.813   0.881   2.356 -0.0296  2.0537 -0.4056
  241Sol     HW 3991   0.886   0.928   2.232 -0.1629 -0.5908 -1.5276
  241Sol     MW 3992   0.837   0.865   2.271 -0.3447 -0.2450 -0.4693
  242Sol     OW 3993   2.235   2.421   4.349 -0.0953  0.7589  0.3600
  242Sol     HW 3994   2.165   2.474   4.311 -1.3608 -0.9995  0.1572
  242Sol     HW 3995   2.203   2.400   4.437  1.3170  2.0178  1.2016
  242Sol     MW 3996   2.226   2.424   4.354 -0.2002 -0.1100 -0.2082
  243Sol     OW 3997   0.278   1.227   8.765  0.2932  0.8597  0.4101
  243Sol     HW 3998   0.224   1.286   8.712 -1.6065 -0.6023  0.6334
  243Sol     HW 3999   0.364   1.267   8.766 -0.1615  2.0139 -2.0379
  243Sol     MW 4000   0.281   1.236   8.760  0.4212  0.1085 -0.0096
  244Sol     OW 4001   2.919   1.581   7.365  0.3385 -0.2036  0.6529
  244Sol     HW 4002   2.969   1.617   7.292 -0.6158 -0.7810 -0.3041
  244Sol     HW 4003   2.897   1.492   7.337  2.3963 -1.4425  2.8410
  244Sol     MW 4004   2.921   1.576   7.356 -0.3413  0.4740  0.0942
  245Sol     OW 4005   2.632   1.994   3.227 -0.0005  0.3064 -0.0913
  245Sol     HW 4006   2.614   2.081   3.264 -1.0340 -0.0709  0.3324
  245Sol     HW 4007   2.621   2.006   3.132  1.6072  1.0344 -0.1954
  245Sol     MW 4008   2.629   2.003   3.222  0.8451  0.1587  0.1391
  246Sol     OW 4009   0.970   2.772   6.021  0.0304  0.5711  0.5385
  246Sol     HW 4010   0.978   2.760   6.115  2.0852  3.5968  0.8205
  246Sol     HW 4011   1.059   2.793   5.991 -0.4582 -1.0048 -2.1814
  246Sol     MW 4012   0.979   2.773   6.026  0.6794  0.1617 -0.7004
  247Sol     OW 4013   2.813   0.420   8.308 -0.7657 -0.5709 -0.2940
  247Sol     HW 4014   2.898   0.462   8.295  0.0541 -1.4551  1.9822
  247Sol     HW 4015   2.754   0.492   8.331  0.3572 -0.4567  2.3839
  247Sol     MW 4016   2.815   0.431   8.309  0.5014  0.0825 -0.5173
  248Sol     OW 4017   3.156   0.626   8.721  0.1547  0.1350  0.2161
  248Sol     HW 4018   3.105   0.551   8.692 -1.6938  0.8366  1.5642
  248Sol     HW 4019   3.157   0.685   8.645  0.4969 -0.6587 -0.4057
  248Sol     MW 4020   3.152   0.625   8.712 -0.1940  0.1319 -0.6531
  249Sol     OW 4021   1.476   3.007   6.886 -0.1390  0.1126  0.0048
  249Sol     HW 4022   1.539   3.002   6.814  1.3648  1.5895  1.1757
  249Sol     HW 4023   1.467   2.917   6.917 -0.2086 -0.4218 -1.4918
  249Sol     MW 4024   1.481   2.999   6.882  0.7409 -0.5988  0.8591
  250Sol     OW 4025   1.517   3.285   4.668  0.0174  0.4209  0.2868
  250Sol     HW 4026   1.503   3.202   4.622  0.3537  1.9143 -2.6798
  250Sol     HW 4027   1.438   3.336   4.649  1.1073  1.8582 -0.4971
  250Sol     MW 4028   1.509   3.282   4.662 -0.4184 -0.5380  0.0541
  251Sol     OW 4029   1.572   0.144   2.022  0.4032 -0.0387  0.1791
  251Sol     HW 4030   1.617   0.069   2.062 -1.0215  0.6760  3.3111
  251Sol     HW 4031   1.596   0.218   2.078  1.3703  1.8056 -2.5684
  251Sol     MW 4032   1.578   0.144   2.031 -0.6288  0.1350 -0.0288
  252Sol     OW 4033   1.026   1.295   8.225 -0.2894  0.6370  0.4011
  252Sol     HW 4034   1.020   1.266   8.134 -2.3983 -1.8036  1.2668
  252Sol     HW 4035   1.026   1.391   8.220 -2.2832  0.5611 -2.0777
  252Sol     MW 4036   1.026   1.301   8.216  0.7863 -0.7528  0.0603
  253Sol     OW 4037   3.041   0.795   5.400  0.3952 -0.5336 -0.5568
  253Sol     HW 4038   3.000   0.878   5.424 -2.2747 -1.4361 -1.6951
  253Sol     HW 4039   3.129   0.818   5.370  0.0472  1.7477  0.1277
  253Sol     MW 4040   3.045   0.804   5.399 -0.1709 -0.4383 -0.2947
  254Sol     OW 4041   0.466   2.983   4.102 -0.0542  0.5303 -0.3441
  254Sol     HW 4042   0.482   3.074   4.080 -1.9883  0.7848 -0.7840
  254Sol     HW 4043   0.372   2.977   4.115  0.1833 -1.1345  0.9636
  254Sol     MW 4044   0.459   2.990   4.102 -0.9762  0.0704 -0.0136
  255Sol     OW 4045   0.982   2.363   9.211 -0.6428 -0.1554 -0.5468
  255Sol     HW 4046   0.913   2.296   9.216 -0.2753 -0.4173  2.1078
  255Sol     HW 4047   0.954   2.430   9.274  0.9014  0.3182 -0.3463
  255Sol     MW 4048   0.973   2.363   9.217 -0.2991  0.1588 -0.3673
  256Sol     OW 4049   1.765   1.415   3.379  0.9089  0.7513  0.2989
  256Sol     HW 4050   1.784   1.508   3.362  2.6270  0.3066 -0.2265
  256Sol     HW 4051   1.815   1.395   3.458  0.8717  0.1608  0.1722
  256Sol     MW 4052   1.771   1.422   3.385  1.5957 -0.2487  0.1337
  257Sol     OW 4053   0.778   1.612   9.528 -0.6614 -0.2147  0.4516
  257Sol     HW 4054   0.710   1.546   9.534 -0.5223 -0.2075  2.2259
  257Sol     HW 4055   0.859   1.565   9.552 -0.1574 -0.0108 -0.7759
  257Sol     MW 4056   0.779   1.602   9.530  0.2332  0.1268 -0.2540
  258Sol     OW 4057   1.326   0.452   2.508  0.1529 -0.1789 -0.5350
  258Sol     HW 4058   1.330   0.396   2.430  0.5154  1.1874 -1.5232
  258Sol     HW 4059   1.251   0.509   2.491 -0.4829 -0.6408  0.6655
  258Sol     MW 4060   1.319   0.452   2.499 -0.1901 -0.3430 -0.5228
  259Sol     OW 4061   1.918   2.348   7.840 -0.1169  0.4107  0.5604
  259Sol     HW 4062   1.997   2.320   7.793 -1.1115 -2.0134  0.2690
  259Sol     HW 4063   1.849   2.349   7.774 -0.7366  0.6475  1.2017
  259Sol     MW 4064   1.919   2.346   7.830  0.0750 -0.1286 -0.5136
  260Sol     OW 4065   0.543   0.142   3.714  0.3581 -0.0383 -0.3988
  260Sol     HW 4066   0.453   0.164   3.691  0.9575  1.7633 -1.0976
  260Sol     HW 4067   0.550   0.162   3.808  0.4693  1.3841 -0.6962
  260Sol     MW 4068   0.536   0.146   3.721 -0.2493  0.2169 -0.4028
  261Sol     OW 4069   1.627   0.763   6.200  0.0099 -0.0496 -0.7205
  261Sol     HW 4070   1.581   0.841   6.171 -0.3532 -0.0173 -0.0627
  261Sol     HW 4071   1.565   0.718   6.257  0.4780 -0.4464 -0.5178
  261Sol     MW 4072   1.617   0.766   6.203  0.5330  0.5773  0.6120
  262Sol     OW 4073   1.030   2.026   4.491 -0.3999  0.0911  0.8050
  262Sol     HW 4074   1.059   2.090   4.557  1.2619  0.5800 -0.3783
  262Sol     HW 4075   1.111   1.996   4.450 -1.3509 -1.0284 -0.2705
  262Sol     MW 4076   1.040   2.029   4.494 -0.1011  0.2282 -0.8667
  263Sol     OW 4077   2.189   1.767   4.065  0.2733  0.2543 -0.2056
  263Sol     HW 4078   2.185   1.672   4.052 -1.3445  0.2857 -0.0109
  263Sol     HW 4079   2.182   1.779   4.160  2.1594  0.4964 -0.0860
  263Sol     MW 4080   2.188   1.760   4.072 -0.0323 -0.1669  1.2464
  264Sol     OW 4081   2.524   0.287   9.695  0.4072  0.0654  0.3153
  264Sol     HW 4082   2.598   0.245   9.653 -0.7031 -1.1218 -0.4829
  264Sol     HW 4083   2.493   0.224   9.760  0.1758  0.6023  0.7342
  264Sol     MW 4084   2.527   0.278   9.697 -0.3067  0.0489 -0.5896
  265Sol     OW 4085   1.186   2.636   8.677  0.4854 -0.3209  0.0492
  265Sol     HW 4086   1.151   2.604   8.760 -1.4698 -0.8614 -0.9660
  265Sol     HW 4087   1.278   2.611   8.679 -0.1293 -2.6664  0.9389
  265Sol     MW 4088   1.191   2.631   8.685 -0.1947  0.3734  0.0663
  266Sol     OW 4089   0.140   1.612   5.673 -0.0304  0.4346 -0.4520
  266Sol     HW 4090   0.129   1.524   5.709 -0.1370  0.7583  0.3098
  266Sol     HW 4091   0.180   1.662   5.744  0.5801  0.8536 -1.0853
  266Sol     MW 4092   0.143   1.609   5.682 -0.3391  0.6157  0.8771
  267Sol     OW 4093   2.736   1.204   8.039  0.1799  0.1152 -0.6646
  267Sol     HW 4094   2.809   1.198   7.978  0.8766 -0.4769  0.2100
  267Sol     HW 4095   2.772   1.250   8.115 -0.8252  1.3367 -0.9029
  267Sol     MW 4096   2.745   1.207   8.041  0.1786  0.0842  0.1743
  268Sol     OW 4097   3.017   2.989   5.833  0.3391 -0.3057  0.1046
  268Sol     HW 4098   3.107   3.002   5.863 -0.0198  0.7185  0.7761
  268Sol     HW 4099   2.965   3.046   5.889 -0.8343 -1.5435  0.2853
  268Sol     MW 4100   3.021   2.995   5.840  0.9854 -0.4573 -0.2044
  269Sol     OW 4101   2.578   2.253   3.478 -0.0902  0.3494 -0.0539
  269Sol     HW 4102   2.484   2.241   3.469  0.0661 -1.0533  0.0855
  269Sol     HW 4103   2.589   2.296   3.563 -0.6509  1.2675 -0.4382
  269Sol     MW 4104   2.571   2.256   3.485 -0.7630 -0.0283 -0.0175
  270Sol     OW 4105   0.207   2.951   5.911 -0.0378 -0.0192 -0.2940
  270Sol     HW 4106   0.296   2.945   5.946  0.7970  1.7386 -2.0368
  270Sol     HW 4107   0.177   2.860   5.906  1.6896 -0.6288  0.2438
  270Sol     MW 4108   0.212   2.942   5.914 -0.2492 -0.9371  0.0628
  271Sol     OW 4109   2.988   2.446   6.947 -0.1141  0.2167  0.2739
  271Sol     HW 4110   2.903   2.404   6.950  0.2978 -0.6058  0.4831
  271Sol     HW 4111   3.045   2.389   6.999  0.8183  0.1561 -0.8023
  271Sol     MW 4112   2.986   2.437   6.952 -0.4394  0.2172  0.2949
  272Sol     OW 4113   0.792   1.395   7.544  0.3955  0.0159 -0.0668
  272Sol     HW 4114   0.839   1.315   7.520 -0.4385 -0.3853 -0.3752
  272Sol     HW 4115   0.760   1.378   7.633  0.7397  0.2459  0.1011
  272Sol     MW 4116   0.793   1.386   7.550  0.5591 -0.0140 -0.0594
  273Sol     OW 4117   1.411   2.179   2.726  0.1645  0.4106  0.1330
  273Sol     HW 4118   1.384   2.094   2.760 -0.4950  0.3894 -0.4230
  273Sol     HW 4119   1.477   2.159   2.660 -0.6345  0.2553 -0.6410
  273Sol     MW 4120   1.414   2.170   2.723 -0.0951 -0.1959 -0.5833
  274Sol     OW 4121   1.874   3.057   5.534 -0.2649  0.0615  0.4858
  274Sol     HW 4122   1.956   3.038   5.579  0.6944  0.6476 -0.9472
  274Sol     HW 4123   1.885   3.147   5.503 -0.4102 -0.6762 -1.8362
  274Sol     MW 4124   1.883   3.064   5.535 -0.7373  0.6680 -0.3815
  275Sol     OW 4125   3.298   1.415   2.135  0.3005  0.2588 -0.3786
  275Sol     HW 4126   3.383   1.458   2.141  1.0488 -1.4328  1.2952
  275Sol     HW 4127   3.309   1.349   2.066  0.3067  0.0803 -0.2046
  275Sol     MW 4128   3.306   1.413   2.129  0.3788 -0.0673 -0.1333
  276Sol     OW 4129   2.800   1.817   2.047 -0.1007 -0.2948  0.0415
  276Sol     HW 4130   2.823   1.743   1.990 -1.1836  0.1337 -0.9649
  276Sol     HW 4131   2.796   1.892   1.989 -2.4056 -0.0542  0.4488
  276Sol     MW 4132   2.802   1.817   2.037 -0.4066 -0.4980 -0.4424
  277Sol     OW 4133   3.197   2.567  10.019  0.2868 -0.5522  0.7973
  277Sol     HW 4134   3.183   2.478   9.987  0.8409 -1.2668  2.4815
  277Sol     HW 4135   3.185   2.560  10.114 -1.0275  1.4579  0.7885
  277Sol     MW 4136   3.195   2.558  10.025  0.2225  0.8629 -0.1656
  278Sol     OW 4137   1.825   1.831   7.629 -0.2137  1.3827 -0.1649
  278Sol     HW 4138   1.759   1.854   7.694 -0.3474  0.6214 -0.0258
  278Sol     HW 4139   1.889   1.779   7.678 -1.6823 -1.4999 -1.2114
  278Sol     MW 4140   1.825   1.829   7.639 -0.6508  0.3294 -0.4173
  279Sol     OW 4141   2.082   1.605   2.467  0.1035  0.6145 -0.1511
  279Sol     HW 4142   2.018   1.589   2.536  0.2395  1.5345  0.2003
  279Sol     HW 4143   2.051   1.684   2.423  1.7527  1.9386  0.9728
  279Sol     MW 4144   2.074   1.610   2.469 -0.3145 -0.4686  0.5811
  280Sol     OW 4145   3.105   2.412   6.694  0.0211 -0.9996  0.5749
  280Sol     HW 4146   3.086   2.438   6.784 -0.1916 -0.6538  0.4298
  280Sol     HW 4147   3.028   2.361   6.667 -0.6218  0.2438  0.0503
  280Sol     MW 4148   3.096   2.409   6.700  0.3185  0.0876  0.0361
  281Sol     OW 4149   1.053   1.602   3.258  0.4155 -0.6026 -0.2294
  281Sol     HW 4150   1.072   1.635   3.346 -1.5946  0.6167 -0.2262
  281Sol     HW 4151   0.963   1.571   3.264  0.0401  0.1155 -2.0373
  281Sol     MW 4152   1.047   1.602   3.267  0.0360  0.5067 -0.0318
  282Sol     OW 4153   1.311   0.690   8.720  0.3306 -0.1369  0.6348
  282Sol     HW 4154   1.298   0.783   8.734  0.8891 -0.1630  1.3881
  282Sol     HW 4155   1.260   0.648   8.789  0.4590 -0.3686  0.5906
  282Sol     MW 4156   1.306   0.694   8.728 -0.4797 -0.0026  0.3527
  283Sol     OW 4157   2.226   2.655   1.811  0.4620  0.0713 -0.1260
  283Sol     HW 4158   2.295   2.589   1.822  0.8562  0.4760 -0.1172
  283Sol     HW 4159   2.229   2.677   1.717  0.6402  0.3977 -0.0477
  283Sol     MW 4160   2.233   2.651   1.803  0.5674  0.1338  0.3256
  284Sol     OW 4161   3.278   2.031   3.037 -0.5275 -0.1370  0.5142
  284Sol     HW 4162   3.202   1.980   3.011  0.3564 -0.8385 -0.7329
  284Sol     HW 4163   3.304   1.994   3.122  0.3633 -2.0683 -0.5684
  284Sol     MW 4164   3.274   2.023   3.043  0.6046  0.2806  0.2627
  285Sol     OW 4165   2.246   2.773   5.850 -0.2490 -0.0252  0.9232
  285Sol     HW 4166   2.323   2.798   5.798 -0.4693  0.7707  0.9789
  285Sol     HW 4167   2.278   2.703   5.908  0.2348 -0.2442  0.4004
  285Sol     MW 4168   2.256   2.769   5.851  0.0901 -0.2098 -0.0633
  286Sol     OW 4169   0.424   2.531   2.582  0.1739 -0.4273 -0.5409
  286Sol     HW 4170   0.405   2.621   2.606  1.7652 -0.1019 -0.4584
  286Sol     HW 4171   0.460   2.537   2.493 -0.9041 -1.1023 -1.0236
  286Sol     MW 4172   0.426   2.540   2.576  0.3042  0.1823  0.4156
  287Sol     OW 4173   2.800   2.409   6.199 -0.3767  0.0654 -0.0793
  287Sol     HW 4174   2.765   2.326   6.166 -1.8562  0.7889 -0.3423
  287Sol     HW 4175   2.788   2.471   6.128 -1.5125  1.0901  0.9831
  287Sol     MW 4176   2.796   2.407   6.190 -0.5153 -0.4137  0.5004
  288Sol     OW 4177   0.772   0.078   2.517  0.0078  0.1630 -0.1485
  288Sol     HW 4178   0.861   0.109   2.502  0.2071 -0.9293 -1.1888
  288Sol     HW 4179   0.762   0.002   2.460 -0.8131 -1.1418  1.6808
  288Sol     MW 4180   0.779   0.074   2.511 -0.4316  0.7266  0.0806
  289Sol     OW 4181   1.121   3.128   2.835 -0.1097  0.0119 -0.6080
  289Sol     HW 4182   1.089   3.094   2.752  0.0583 -2.3602  0.2542
  289Sol     HW 4183   1.189   3.191   2.811  0.1573 -0.8787 -2.2538
  289Sol     MW 4184   1.124   3.130   2.826 -0.0042  0.1705 -0.5411
  290Sol     OW 4185   2.028   2.750   1.965  0.4771  0.2746  0.2736
  290Sol     HW 4186   2.106   2.732   1.913  0.5604 -0.4411  0.6418
  290Sol     HW 4187   1.960   2.694   1.926 -0.0962  1.5912 -0.6419
  290Sol     MW 4188   2.029   2.743   1.957  0.5455 -0.0174  0.2400
  291Sol     OW 4189   0.020   0.256   7.848 -0.3356  0.0697 -0.0513
  291Sol     HW 4190  -0.023   0.336   7.817 -0.0977 -0.7535 -2.5686
  291Sol     HW 4191  -0.053   0.197   7.868 -0.5114  0.8631  1.7565
  291Sol     MW 4192   0.009   0.258   7.847  0.0561 -0.6198  0.3583
  292Sol     OW 4193   2.374   2.717   2.164  0.3658 -0.5140  0.2140
  292Sol     HW 4194   2.414   2.678   2.086 -0.7661 -1.2059 -0.0409
  292Sol     HW 4195   2.436   2.699   2.235  1.8175  0.8908 -0.6808
  292Sol     MW 4196   2.383   2.712   2.163  0.1006 -0.3128  0.0181
  293Sol     OW 4197   2.170   3.313   2.963  0.1117  0.3528 -0.5033
  293Sol     HW 4198   2.256   3.352   2.947  0.9858 -1.5084 -0.4189
  293Sol     HW 4199   2.183   3.257   3.040 -1.2886  0.4046 -0.2173
  293Sol     MW 4200   2.179   3.312   2.969 -0.0068  0.0331  0.3674
  294Sol     OW 4201   0.280   2.684   3.498 -0.0624  1.1987 -0.5677
  294Sol     HW 4202   0.319   2.597   3.489  1.2411  1.8767 -1.6276
  294Sol     HW 4203   0.257   2.691   3.591  3.0543  1.0398  0.2707
  294Sol     MW 4204   0.281   2.677   3.506  0.2156  0.1364  0.2762
  295Sol     OW 4205   2.894   2.353   8.633 -0.1813  0.3135 -0.2677
  295Sol     HW 4206   2.850   2.352   8.718 -0.4637 -0.5406 -0.4171
  295Sol     HW 4207   2.824   2.342   8.569  0.1360 -0.0752 -0.5535
  295Sol     MW 4208   2.884   2.352   8.635  0.2218  0.0767  0.3259
  296Sol     OW 4209   0.601   1.117   3.004  0.2601  0.3394  0.3058
  296Sol     HW 4210   0.591   1.023   2.989 -0.3913  0.3878  0.4215
  296Sol     HW 4211   0.629   1.153   2.920 -2.1058  0.4312 -0.4640
  296Sol     MW 4212   0.603   1.112   2.995 -0.2254  0.3785  0.2381
  297Sol     OW 4213   2.164   0.825   6.299 -0.1551  0.0459  0.3276
  297Sol     HW 4214   2.157   0.741   6.343 -0.0409 -0.0160  0.2287
  297Sol     HW 4215   2.076   0.862   6.302  0.1318  0.6473  1.8010
  297Sol     MW 4216   2.156   0.821   6.303  0.3575 -0.0071  0.5276
  298Sol     OW 4217   0.703   2.108   3.902 -0.4941 -0.3384 -0.3491
  298Sol     HW 4218   0.703   2.015   3.881 -2.5812 -0.2422 -0.9138
  298Sol     HW 4219   0.640   2.116   3.974 -1.4850  0.8443 -1.3257
  298Sol     MW 4220   0.697   2.101   3.907  0.0930  0.3929  0.2362
  299Sol     OW 4221   1.481   3.104   4.465 -0.1878  0.4306  0.0149
  299Sol     HW 4222   1.428   3.046   4.520 -1.0900  2.0545  0.8941
  299Sol     HW 4223   1.546   3.046   4.424 -0.4327 -1.0269  1.6496
  299Sol     MW 4224   1.482   3.093   4.466 -0.5311 -0.2028  0.0662
  300Sol     OW 4225   1.665   2.979   6.695  0.0635 -0.2510 -0.4888
  300Sol     HW 4226   1.653   3.056   6.639  0.5307  0.6397  0.6415
  300Sol     HW 4227   1.759   2.960   6.690 -0.0663 -0.8306 -0.8521
  300Sol     MW 4228   1.672   2.984   6.689 -0.5071  0.3856 -0.4267
  301Sol     OW 4229   1.332   1.806   8.179 -0.3071  0.1669 -0.4782
  301Sol     HW 4230   1.340   1.895   8.214  0.9422  0.0934 -0.5634
  301Sol     HW 4231   1.371   1.811   8.092 -0.0976 -0.4942 -0.4234
  301Sol     MW 4232   1.336   1.814   8.174 -0.5174  0.2536  0.5978
  302Sol     OW 4233   1.712   2.273   8.541  0.0057 -0.8360 -0.3382
  302Sol     HW 4234   1.731   2.242   8.452 -1.0251  0.4381 -1.0184
  302Sol     HW 4235   1.670   2.358   8.528  0.0558 -0.5362  1.3855
  302Sol     MW 4236   1.710   2.278   8.532  0.1886  0.0830  0.0994
  303Sol     OW 4237   1.699   2.243   3.031  0.5959  0.2868  0.2854
  303Sol     HW 4238   1.659   2.301   3.095  1.2349  1.3683 -0.2886
  303Sol     HW 4239   1.792   2.243   3.052  0.5420 -0.9401  0.6011
  303Sol     MW 4240   1.704   2.248   3.038  0.0655  0.1853 -0.3350
  304Sol     OW 4241   0.362   1.502   6.932  0.2637  0.2300 -0.6032
  304Sol     HW 4242   0.328   1.589   6.952  0.9077  0.4336 -0.3763
  304Sol     HW 4243   0.372   1.501   6.837 -0.6304  0.0749 -0.6943
  304Sol     MW 4244   0.360   1.509   6.926 -0.4348  0.1617  0.1735
  305Sol     OW 4245   0.615   3.256   6.395 -0.2812  0.4196  0.4679
  305Sol     HW 4246   0.578   3.244   6.483  0.2239 -2.4821  0.3441
  305Sol     HW 4247   0.541   3.245   6.336 -0.8880  3.7420  0.5281
  305Sol     MW 4248   0.605   3.254   6.398 -0.1483  0.3894 -0.1037
  306Sol     OW 4249   0.857   0.940   4.034 -0.1192 -0.2768  0.3364
  306Sol     HW 4250   0.874   0.977   4.120  3.9550 -0.3760 -0.3623
  306Sol     HW 4251   0.844   1.017   3.978 -1.9898 -0.2008  0.8279
  306Sol     MW 4252   0.857   0.951   4.037  0.1053  0.5990  0.3976
  307Sol     OW 4253   0.154   1.954   2.883 -0.2450  0.0977 -0.1881
  307Sol     HW 4254   0.089   2.003   2.933 -0.1171  2.7314 -2.4964
  307Sol     HW 4255   0.238   1.979   2.923 -0.2372  1.1836 -0.8743
  307Sol     MW 4256   0.156   1.960   2.891 -0.0897 -0.2702 -0.0799
  308Sol     OW 4257   3.112   0.617   3.269 -0.0771 -0.1424 -0.1576
  308Sol     HW 4258   3.138   0.652   3.184 -0.4329  0.4344 -0.0317
  308Sol     HW 4259   3.048   0.680   3.303 -0.3261 -0.6329  0.3086
  308Sol     MW 4260   3.108   0.626   3.265  0.8079  0.1146 -0.0279
  309Sol     OW 4261   2.094   3.014   7.187 -0.0395  0.3680 -0.2812
  309Sol     HW 4262   2.045   2.944   7.145 -1.2200 -1.4352  3.8624
  309Sol     HW 4263   2.182   2.978   7.198 -0.1154  0.2780  0.0465
  309Sol     MW 4264   2.098   3.004   7.184 -0.3311 -0.4453  0.0118
  310Sol     OW 4265   2.331   0.949   4.487 -0.1917 -0.2814 -0.1839
  310Sol     HW 4266   2.408   0.894   4.500 -0.3425 -0.4217  0.1313
  310Sol     HW 4267   2.257   0.888   4.493 -0.3758  0.0064  0.4618
  310Sol     MW 4268   2.331   0.938   4.488  0.2353  0.0903  0.4346
  311Sol     OW 4269   2.818   2.701   6.658  0.6925  0.4011 -0.0524
  311Sol     HW 4270   2.902   2.709   6.703  1.1053  0.8575 -0.8916
  311Sol     HW 4271   2.837   2.644   6.583 -0.0790 -0.7024  0.5780
  311Sol     MW 4272   2.828   2.696   6.655  0.1751 -0.1235  0.0366
  312Sol     OW 4273   1.193   2.548   8.984 -0.6351  0.4293 -0.1160
  312Sol     HW 4274   1.242   2.490   9.042  0.1202 -0.2556 -1.4270
  312Sol     HW 4275   1.103   2.516   8.989 -0.2081 -0.9574 -0.9161
  312Sol     MW 4276   1.189   2.540   8.990 -0.0125  0.1541 -0.5074
  313Sol     OW 4277   1.713   0.149   4.954  0.4769  0.4099 -0.8309
  313Sol     HW 4278   1.730   0.239   4.982  0.0199 -0.0269  0.8794
  313Sol     HW 4279   1.800   0.112   4.940  0.7576  0.3489  0.9633
  313Sol     MW 4280   1.723   0.154   4.955  0.2783 -0.0266 -0.2910
  314Sol     OW 4281   1.193   2.055   3.080 -0.5129 -0.7909 -0.1101
  314Sol     HW 4282   1.114   2.009   3.052 -0.8920  0.4592 -1.1327
  314Sol     HW 4283   1.162   2.131   3.129  0.0733 -0.8925  0.4274
  314Sol     MW 4284   1.183   2.058   3.082 -0.9288  0.1447  0.1417
  315Sol     OW 4285   0.891   1.795   6.467  0.0421 -0.3115 -0.1937
  315Sol     HW 4286   0.891   1.737   6.543 -1.1431  0.9222  0.7739
  315Sol     HW 4287   0.896   1.883   6.504  1.8692  0.2425 -1.6406
  315Sol     MW 4288   0.892   1.798   6.477 -0.6131  0.2698 -0.1009
  316Sol     OW 4289   1.817   2.255   4.098  0.2300  0.5507  0.6432
  316Sol     HW 4290   1.726   2.285   4.102 -0.2582 -0.9727  1.1271
  316Sol     HW 4291   1.849   2.286   4.014 -1.6065 -1.2995 -0.7722
  316Sol     MW 4292   1.812   2.261   4.091  0.1226 -0.8427 -0.3089
  317Sol     OW 4293   2.509   0.965   2.299 -0.3752  0.3437 -0.5114
  317Sol     HW 4294   2.550   0.904   2.360 -0.9077  0.6913  0.2022
  317Sol     HW 4295   2.575   1.032   2.284 -1.1217  1.6506  1.7196
  317Sol     MW 4296   2.518   0.965   2.303 -0.2101  0.4612  0.2087
  318Sol     OW 4297   1.492   2.186   3.377 -0.0941  0.1038  0.0277
  318Sol     HW 4298   1.579   2.165   3.345  0.2478 -0.9107  1.5992
  318Sol     HW 4299   1.435   2.121   3.335 -0.2696  1.3954 -1.8003
  318Sol     MW 4300   1.494   2.178   3.370 -0.6432 -0.3904  0.1857
  319Sol     OW 4301   0.505   3.328   3.777 -0.1440 -0.3194  0.2593
  319Sol     HW 4302   0.521   3.422   3.766  0.6969 -0.4269  0.5297
  319Sol     HW 4303   0.530   3.290   3.693 -1.5473 -0.1743 -0.2321
  319Sol     MW 4304   0.509   3.333   3.768  0.2357 -0.4760 -0.9748
  320Sol     OW 4305   1.232   3.267   3.754 -0.2625 -0.0445 -0.3394
  320Sol     HW 4306   1.246   3.317   3.674  0.7043  0.1399 -0.0650
  320Sol     HW 4307   1.219   3.333   3.822 -0.0340 -0.1828 -0.1612
  320Sol     MW 4308   1.232   3.277   3.753 -0.5308 -0.2989 -0.5277
  321Sol     OW 4309   0.973   1.856   8.854 -0.0880  0.6348 -0.3184
  321Sol     HW 4310   1.049   1.808   8.820  1.4492  1.7199  1.5185
  321Sol     HW 4311   0.954   1.921   8.787 -0.6756 -0.9133 -1.7079
  321Sol     MW 4312   0.978   1.857   8.845 -0.1074  0.6452 -0.1685
  322Sol     OW 4313   2.460   2.129   9.436  0.1250  0.1675  0.2931
  322Sol     HW 4314   2.384   2.124   9.378 -0.5043  0.7593  1.0594
  322Sol     HW 4315   2.510   2.204   9.404  0.1238  0.0926  0.1139
  322Sol     MW 4316   2.458   2.135   9.428 -0.9280 -0.2110  0.2324
  323Sol     OW 4317   0.600   2.459   6.913  0.2434 -0.4005  0.7494
  323Sol     HW 4318   0.647   2.537   6.886 -0.7439  0.0889  0.4464
  323Sol     HW 4319   0.604   2.401   6.837  0.6238 -0.4915  0.8348
  323Sol     MW 4320   0.605   2.461   6.904 -0.6088  0.3358  0.0822
  324Sol     OW 4321   2.030   0.071   2.102  0.0776  0.6935  0.2081
  324Sol     HW 4322   1.966   0.142   2.093  1.1463  1.7791  1.0037
  324Sol     HW 4323   2.017   0.039   2.192 -0.6932 -0.4306 -0.2861
  324Sol     MW 4324   2.023   0.075   2.109  0.6585  0.0947  0.0854
  325Sol     OW 4325   1.518   1.420   9.524 -0.3871  0.3086 -0.2504
  325Sol     HW 4326   1.464   1.373   9.587 -0.4667  0.5547 -0.1334
  325Sol     HW 4327   1.595   1.365   9.512 -1.0314 -0.4308 -1.0255
  325Sol     MW 4328   1.520   1.411   9.529  0.5477 -0.2780  0.2215
  326Sol     OW 4329   2.375   1.225   8.600 -0.2525  0.1990 -0.0212
  326Sol     HW 4330   2.383   1.301   8.658 -2.1656  0.0888  0.3949
  326Sol     HW 4331   2.289   1.234   8.560 -0.2296 -1.4232 -0.4460
  326Sol     MW 4332   2.368   1.233   8.602 -0.1511 -0.6212  0.0421
  327Sol     OW 4333   0.315   0.726   3.942 -0.4275 -0.4635  0.1031
  327Sol     HW 4334   0.360   0.674   3.876  1.8317  1.6179 -0.0266
  327Sol     HW 4335   0.328   0.677   4.023 -1.5682 -2.0249 -0.6229
  327Sol     MW 4336   0.320   0.717   3.944 -0.0980 -0.3460 -0.0641
  328Sol     OW 4337   1.970   3.038   3.758  0.0919 -0.4212 -0.5034
  328Sol     HW 4338   2.001   2.958   3.716 -0.1563 -0.0002 -1.4967
  328Sol     HW 4339   1.975   3.105   3.690  1.1197  0.6125  0.5518
  328Sol     MW 4340   1.974   3.037   3.748 -0.0206 -0.5437 -0.6173
  329Sol     OW 4341   2.231   3.347   7.152 -0.3557 -0.2399 -0.1143
  329Sol     HW 4342   2.160   3.342   7.216 -0.3105 -0.2791 -0.0673
  329Sol     HW 4343   2.289   3.416   7.186 -0.6061  0.1086 -0.3909
  329Sol     MW 4344   2.230   3.353   7.161  0.1921 -0.1139  0.1740
  330Sol     OW 4345   2.403   1.663   1.630  0.1756 -0.0405  0.2240
  330Sol     HW 4346   2.406   1.731   1.697  1.7038  0.8132 -0.7021
  330Sol     HW 4347   2.450   1.589   1.669 -1.9731 -0.8066  1.4535
  330Sol     MW 4348   2.407   1.662   1.640 -0.0532  0.0976  0.2288
  331Sol     OW 4349   1.519   1.841   5.099 -0.1050  0.3589  0.0125
  331Sol     HW 4350   1.475   1.758   5.081 -0.6645  0.4764  0.8490
  331Sol     HW 4351   1.525   1.846   5.194 -0.1515  1.3238 -0.0272
  331Sol     MW 4352   1.516   1.834   5.106  0.3117 -0.4016 -0.2996
  332Sol     OW 4353   1.155   1.689   5.215 -0.0523  0.0558  0.4451
  332Sol     HW 4354   1.237   1.660   5.256  0.5339  2.4800  1.0746
  332Sol     HW 4355   1.170   1.677   5.121  1.0617  0.5482  0.5514
  332Sol     MW 4356   1.164   1.686   5.210  0.1381  0.0136  0.1234
  333Sol     OW 4357   0.110   2.503   6.859 -0.2602  0.0700  0.3432
  333Sol     HW 4358   0.086   2.438   6.792  2.7279  0.3488 -1.0954
  333Sol     HW 4359   0.160   2.454   6.924  1.0490  0.6958 -0.1742
  333Sol     MW 4360   0.112   2.493   6.858  0.3809  0.0457  0.2565
  334Sol     OW 4361   1.645   0.421   3.956  0.5475 -0.0896  1.0544
  334Sol     HW 4362   1.613   0.334   3.933  0.4008  0.3912 -0.6557
  334Sol     HW 4363   1.568   0.467   3.989  0.9272 -1.0439  3.3446
  334Sol     MW 4364   1.636   0.418   3.957 -0.0176  0.2698 -0.3333
  335Sol     OW 4365   0.513   1.938   2.671  0.3179 -0.1511  0.4911
  335Sol     HW 4366   0.482   1.847   2.674 -1.0612  0.2570 -0.7137
  335Sol     HW 4367   0.604   1.931   2.642  0.0534 -1.1280 -0.1424
  335Sol     MW 4368   0.518   1.929   2.669 -0.7067  0.1333  0.8068
  336Sol     OW 4369   2.715   1.684   5.081  0.4610  0.2824  0.0142
  336Sol     HW 4370   2.728   1.773   5.048 -0.9569  0.3784 -0.3400
  336Sol     HW 4371   2.676   1.696   5.168  1.0722  0.0153  0.3236
  336Sol     MW 4372   2.713   1.693   5.086  0.0504  0.1618  0.4003
  337Sol     OW 4373   1.441   0.077   3.757  0.0454  0.2405 -0.0930
  337Sol     HW 4374   1.473   0.027   3.682 -0.8365 -1.2035  0.4716
  337Sol     HW 4375   1.519   0.093   3.810 -0.1111 -3.4751  1.4154
  337Sol     MW 4376   1.451   0.074   3.755 -0.0037  0.6642 -0.1583
  338Sol     OW 4377   0.584   0.221   2.388 -0.5603  0.0477 -1.2493
  338Sol     HW 4378   0.665   0.268   2.370 -0.0857 -0.2748 -0.0432
  338Sol     HW 4379   0.613   0.141   2.433 -1.2293 -2.0812 -4.4778
  338Sol     MW 4380   0.594   0.218   2.391 -0.1669  0.3725 -0.1472
  339Sol     OW 4381   0.502   2.151   7.755  0.4754  0.4657  0.0066
  339Sol     HW 4382   0.474   2.092   7.825  0.5176 -0.7258 -0.9622
  339Sol     HW 4383   0.584   2.189   7.787  0.6972 -0.3642  0.4419
  339Sol     MW 4384   0.507   2.149   7.764  0.1171 -0.2856 -0.3031
  340Sol     OW 4385   1.752   1.314   4.158  0.5796 -0.4621 -0.0183
  340Sol     HW 4386   1.791   1.401   4.154  0.4845 -0.4684 -1.1019
  340Sol     HW 4387   1.824   1.257   4.183  1.1049 -0.3605 -1.2482
  340Sol     MW 4388   1.762   1.317   4.160 -0.3247 -0.9588  0.7080
  341Sol     OW 4389   1.482   1.208   9.190 -0.1324  0.4854 -0.2922
  341Sol     HW 4390   1.485   1.291   9.144 -0.7182 -0.2423 -1.6738
  341Sol     HW 4391   1.573   1.178   9.193  0.2046  1.5804  0.9988
  341Sol     MW 4392   1.490   1.213   9.186  0.2357  0.5620 -0.1372
  342Sol     OW 4393   1.882   1.044   2.468 -0.0537 -0.1078  0.0344
  342Sol     HW 4394   1.848   0.954   2.467 -0.6200  0.1053  0.4057
  342Sol     HW 4395   1.905   1.061   2.376  0.5065 -0.7974  0.0361
  342Sol     MW 4396   1.881   1.037   2.459 -0.0506 -0.4825 -0.5955
  343Sol     OW 4397   0.125   2.167   2.087 -0.2099 -0.0592 -0.2128
  343Sol     HW 4398   0.118   2.198   1.997 -2.4860  2.8595  0.8969
  343Sol     HW 4399   0.099   2.075   2.083 -1.0626  0.2462 -2.4044
  343Sol     MW 4400   0.122   2.162   2.079  0.5039  0.2570 -0.0877
  344Sol     OW 4401   2.601   2.026   2.971 -0.7609  0.5247 -0.3314
  344Sol     HW 4402   2.667   2.086   2.937  0.2213 -1.0706 -1.2698
  344Sol     HW 4403   2.521   2.048   2.922 -0.4742  1.2233 -0.4895
  344Sol     MW 4404   2.600   2.034   2.963  0.4532 -0.2986  0.0139
  345Sol     OW 4405   2.339   0.739   1.717 -0.0830  0.2456 -0.1587
  345Sol     HW 4406   2.288   0.793   1.777 -3.3462 -0.9097 -1.7683
  345Sol     HW 4407   2.316   0.772   1.630 -0.1867 -2.1011 -1.0445
  345Sol     MW 4408   2.332   0.747   1.714  1.0091  0.3216 -0.1479
  346Sol     OW 4409   3.038   0.161   7.627 -0.2736  0.5136  0.2877
  346Sol     HW 4410   3.059   0.074   7.593 -0.7252 -0.2596  1.9262
  346Sol     HW 4411   3.098   0.219   7.582  1.3054 -0.8914  0.5185
  346Sol     MW 4412   3.045   0.158   7.620 -0.2442 -0.6104  0.0706
  347Sol     OW 4413   3.014   1.947   5.765  0.0354 -0.2338 -0.7676
  347Sol     HW 4414   2.940   1.937   5.705  0.2127 -2.9771 -0.5931
  347Sol     HW 4415   3.088   1.969   5.709 -0.3569 -0.1142 -1.2377
  347Sol     MW 4416   3.014   1.948   5.755 -0.5650  0.5360 -0.0526
  348Sol     OW 4417   2.550   3.418   6.021  0.2820  0.4727 -0.0020
  348Sol     HW 4418   2.566   3.365   6.099 -1.3486  0.1972  0.1568
  348Sol     HW 4419   2.520   3.355   5.955  1.5512  0.7172 -0.8303
  348Sol     MW 4420   2.549   3.408   6.022 -0.2358  0.3264  0.5783
  349Sol     OW 4421   0.991   2.678   3.002  0.6030 -0.3418  0.4317
  349Sol     HW 4422   1.065   2.656   2.945 -3.2322 -1.7928 -4.2453
  349Sol     HW 4423   0.978   2.772   2.990  1.2446 -0.1938  0.8219
  349Sol     MW 4424   0.997   2.684   2.996  0.2153 -0.4167 -0.3200
  350Sol     OW 4425   2.765   0.546   8.736 -0.1334 -0.1307 -0.0709
  350Sol     HW 4426   2.670   0.553   8.733 -0.2391 -1.2060  0.4812
  350Sol     HW 4427   2.785   0.464   8.691  0.6675  0.9482 -1.7512
  350Sol     MW 4428   2.759   0.539   8.732  0.1953 -0.4395 -0.0199
  351Sol     OW 4429   1.734   2.193   8.286 -0.3220  0.1736  0.0579
  351Sol     HW 4430   1.655   2.162   8.243 -0.6898 -0.4303  1.1398
  351Sol     HW 4431   1.802   2.129   8.264 -0.3670  0.1818 -0.1003
  351Sol     MW 4432   1.733   2.185   8.280 -0.3958  0.1134 -0.4484
  352Sol     OW 4433   2.334   3.322   8.742  0.4603 -0.0371 -0.2726
  352Sol     HW 4434   2.382   3.269   8.679  1.6200  0.8982 -0.1829
  352Sol     HW 4435   2.284   3.258   8.794  0.0129 -0.8601 -1.6763
  352Sol     MW 4436   2.334   3.311   8.741  0.0813 -0.3596  0.0227
  353Sol     OW 4437   0.859   1.078   7.607  0.5996 -0.2118  0.1763
  353Sol     HW 4438   0.943   1.121   7.588  0.0482  1.3096  1.1135
  353Sol     HW 4439   0.862   0.996   7.556  3.8104 -1.5318  2.3314
  353Sol     MW 4440   0.867   1.074   7.601  0.4327 -0.0685 -0.2416
  354Sol     OW 4441   0.664   2.442   9.411  0.1085  0.6614  0.3857
  354Sol     HW 4442   0.631   2.459   9.323 -0.4227  1.4321  0.7235
  354Sol     HW 4443   0.633   2.354   9.433 -1.0083  1.0426  0.3658
  354Sol     MW 4444   0.658   2.436   9.405  0.0529  0.1469 -0.0169
  355Sol     OW 4445   3.129   1.517   9.253 -0.0718  0.6795 -0.3929
  355Sol     HW 4446   3.223   1.534   9.260  0.2512 -0.4863 -1.5590
  355Sol     HW 4447   3.095   1.532   9.341  1.3838  0.1897  0.2712
  355Sol     MW 4448   3.134   1.520   9.261  0.0691 -0.2722  0.0290
  356Sol     OW 4449   0.991   0.463   9.377  0.3401 -0.6121  0.8026
  356Sol     HW 4450   1.005   0.469   9.471  0.4375  0.8063  0.7082
  356Sol     HW 4451   1.028   0.544   9.342 -0.1773 -0.8806 -0.3957
  356Sol     MW 4452   0.995   0.471   9.382 -0.4950  0.3255  0.5544
  357Sol     OW 4453   1.941   3.272   1.996  0.1401  0.1845  0.1731
  357Sol     HW 4454   2.012   3.244   2.055  0.0224  0.1512  0.2986
  357Sol     HW 4455   1.917   3.359   2.028  1.2910  0.9273 -0.9238
  357Sol     MW 4456   1.945   3.278   2.004  0.1476  0.2296 -0.1420
  358Sol     OW 4457   2.776   1.639   5.574 -0.0534 -0.4852 -0.1423
  358Sol     HW 4458   2.764   1.555   5.531  3.1967 -0.3047 -1.5435
  358Sol     HW 4459   2.831   1.620   5.650  1.4704  0.4841 -0.9876
  358Sol     MW 4460   2.780   1.630   5.577  0.2070  0.3196  0.4894
  359Sol     OW 4461   0.243   3.233   7.609 -0.0885 -0.1865 -0.1666
  359Sol     HW 4462   0.308   3.302   7.625  0.5046 -0.5531 -0.9463
  359Sol     HW 4463   0.171   3.279   7.565  0.8996 -0.2953 -1.9454
  359Sol     MW 4464   0.243   3.244   7.606  0.0059 -0.1945 -0.2370
  360Sol     OW 4465   2.919   1.979   4.833  0.3402 -0.3352  0.6730
  360Sol     HW 4466   2.954   2.049   4.777 -0.5764 -1.5232 -1.4752
  360Sol     HW 4467   2.884   2.024   4.909  0.0946  1.5281 -0.5035
  360Sol     MW 4468   2.919   1.989   4.835  0.4492  0.4884 -0.5326
  361Sol     OW 4469   2.700   2.820   2.510 -0.1884  0.6196  0.1898
  361Sol     HW 4470   2.760   2.894   2.499 -0.5991  1.1027  1.1719
  361Sol     HW 4471   2.742   2.765   2.576 -1.2047  1.3617  1.4722
  361Sol     MW 4472   2.710   2.821   2.515 -0.2329  0.0811 -0.4076
  362Sol     OW 4473   2.043   0.697   2.981  0.3025  0.5892 -0.4161
  362Sol     HW 4474   2.002   0.761   2.924 -0.1143 -0.3722 -1.1977
  362Sol     HW 4475   2.093   0.749   3.044 -0.5694  1.6930 -0.6367
  362Sol     MW 4476   2.044   0.707   2.982  0.1143  0.0093 -0.1084
  363Sol     OW 4477   0.855   1.444   2.948 -0.0248 -0.4821 -0.9676
  363Sol     HW 4478   0.911   1.389   2.893 -0.4382 -0.8705 -1.0054
  363Sol     HW 4479   0.769   1.439   2.907 -0.1569 -0.1387 -0.7342
  363Sol     MW 4480   0.852   1.438   2.940  0.5751 -0.6995  0.5758
  364Sol     OW 4481   2.156   2.655   9.909  0.0542  0.4102  0.3017
  364Sol     HW 4482   2.242   2.689   9.883  0.7986 -1.6373 -0.0127
  364Sol     HW 4483   2.166   2.633  10.002  0.2019 -0.8016  0.0056
  364Sol     MW 4484   2.165   2.656   9.915  0.4363  0.1208  0.2553
  365Sol     OW 4485   0.883   0.605   6.460  0.2704 -0.2731 -0.4036
  365Sol     HW 4486   0.900   0.675   6.523  0.4321 -1.3482  0.7585
  365Sol     HW 4487   0.813   0.553   6.499  0.1373 -0.7602 -1.2660
  365Sol     MW 4488   0.878   0.606   6.469  0.4467  0.2199  0.8046
  366Sol     OW 4489   1.537   0.781   6.931 -0.3565  0.3181  0.2657
  366Sol     HW 4490   1.573   0.695   6.953  2.0148  1.1284 -0.3759
  366Sol     HW 4491   1.495   0.811   7.012 -0.9824 -1.3157  0.5635
  366Sol     MW 4492   1.536   0.776   6.940 -0.1404  0.4286  0.0690
  367Sol     OW 4493   2.561   0.427   2.330  0.7029  0.0145 -0.4170
  367Sol     HW 4494   2.570   0.496   2.397 -0.0154 -0.5355  0.2479
  367Sol     HW 4495   2.509   0.468   2.261  2.7198  1.0873 -1.3473
  367Sol     MW 4496   2.557   0.437   2.330  0.2457 -0.2794  0.5112
  368Sol     OW 4497   2.013   1.442   8.257  0.0076 -0.2626  0.5548
  368Sol     HW 4498   2.074   1.489   8.313 -2.2710  2.4227  0.8692
  368Sol     HW 4499   1.953   1.399   8.318  0.4469 -1.3801  0.2177
  368Sol     MW 4500   2.013   1.442   8.267 -0.7106 -0.3235  0.1714
  369Sol     OW 4501   0.642   1.845   7.360  0.0384  0.1569  0.7130
  369Sol     HW 4502   0.567   1.887   7.403 -0.1924 -0.1346  0.5941
  369Sol     HW 4503   0.674   1.911   7.299 -1.3259 -0.4139 -0.6410
  369Sol     MW 4504   0.638   1.855   7.358  0.0428  0.0649 -0.1563
  370Sol     OW 4505   3.194   3.186   4.798  0.8612 -0.1233  0.1891
  370Sol     HW 4506   3.212   3.279   4.813  1.3849 -0.1155 -0.5085
  370Sol     HW 4507   3.107   3.185   4.758  0.2104 -0.0339  1.5586
  370Sol     MW 4508   3.188   3.194   4.796 -0.0511 -0.3374 -0.1085
  371Sol     OW 4509   3.180   1.081   9.060 -0.2281  0.5675  0.3256
  371Sol     HW 4510   3.245   1.016   9.087  0.2019  0.9470  0.2078
  371Sol     HW 4511   3.173   1.141   9.135  0.0596  0.9174  0.0740
  371Sol     MW 4512   3.185   1.081   9.069 -0.2140 -0.2182  0.4649
  372Sol     OW 4513   0.207   0.105   2.464  0.1724 -0.1426  0.1238
  372Sol     HW 4514   0.125   0.060   2.483  1.2121 -2.1208  0.0746
  372Sol     HW 4515   0.259   0.094   2.544  1.5159 -1.5155 -0.9151
  372Sol     MW 4516   0.205   0.100   2.473 -0.2392 -0.1331  0.2252
  373Sol     OW 4517   2.122   0.480   3.381 -0.0933 -0.1457  0.6689
  373Sol     HW 4518   2.073   0.561   3.365 -1.4054 -1.2188 -1.0128
  373Sol     HW 4519   2.064   0.411   3.350  2.4228 -1.4797 -1.2858
  373Sol     MW 4520   2.112   0.481   3.377  0.0642  0.5312 -0.2618
  374Sol     OW 4521   0.051   1.634   8.584  0.0960  0.3061  0.7065
  374Sol     HW 4522  -0.037   1.665   8.604  0.0714 -1.3876  3.4253
  374Sol     HW 4523   0.109   1.705   8.613 -0.3204  1.3065 -0.8409
  374Sol     MW 4524   0.048   1.643   8.588 -0.1362 -0.1740  0.3524
  375Sol     OW 4525   2.862   1.414   8.457 -0.3008  0.0027 -0.4144
  375Sol     HW 4526   2.854   1.507   8.481 -1.8338 -0.0869 -0.5815
  375Sol     HW 4527   2.898   1.373   8.536 -0.5689  0.5660  0.0069
  375Sol     MW 4528   2.865   1.419   8.466  0.0691 -0.0662  0.3676
  376Sol     OW 4529   1.341   1.967   7.384 -1.1135 -0.1083 -0.5219
  376Sol     HW 4530   1.366   1.933   7.298  0.1184 -1.6530  0.4301
  376Sol     HW 4531   1.275   1.906   7.415 -1.1989  0.1687 -0.1642
  376Sol     MW 4532   1.338   1.959   7.379  0.0123 -0.6175  0.0848
  377Sol     OW 4533   2.262   2.380   4.795 -0.2638 -0.3995 -0.2915
  377Sol     HW 4534   2.205   2.325   4.850 -0.6811  0.6301  0.3275
  377Sol     HW 4535   2.243   2.353   4.706  1.9876 -3.6053  0.1362
  377Sol     MW 4536   2.255   2.373   4.792 -0.2414  0.0790 -0.0517
  378Sol     OW 4537   1.244   1.345   5.338  0.2500  0.7619  0.3815
  378Sol     HW 4538   1.281   1.257   5.345 -0.9622  0.2317  0.2853
  378Sol     HW 4539   1.286   1.383   5.261 -0.0791 -0.1669 -0.2676
  378Sol     MW 4540   1.251   1.341   5.332 -0.0063 -0.3608 -0.3291
  379Sol     OW 4541   1.837   0.594   3.867 -0.3643  0.2761 -0.3885
  379Sol     HW 4542   1.778   0.527   3.901 -1.7902  1.8110  0.2267
  379Sol     HW 4543   1.919   0.582   3.915 -0.8143 -0.6065  0.1592
  379Sol     MW 4544   1.839   0.587   3.874 -0.0072  0.0452 -0.5384
  380Sol     OW 4545   1.680   1.651   1.626 -0.0037  0.5163  0.1504
  380Sol     HW 4546   1.771   1.626   1.609  0.1742  0.2679  1.4186
  380Sol     HW 4547   1.686   1.730   1.680 -0.5195  0.1359  0.7770
  380Sol     MW 4548   1.689   1.656   1.630  0.9523 -0.2306 -1.0365
  381Sol     OW 4549   0.020   1.737   9.310 -0.4134 -0.2819 -0.3827
  381Sol     HW 4550  -0.032   1.811   9.277  0.9239  0.9569  0.2318
  381Sol     HW 4551  -0.027   1.708   9.388 -0.2340  0.7844  0.1283
  381Sol     MW 4552   0.011   1.741   9.314  0.0303 -0.1690  0.0684
  382Sol     OW 4553   0.633   2.528   5.968  0.0404  0.5025 -0.0283
  382Sol     HW 4554   0.580   2.605   5.949 -0.4156  0.6241  1.7226
  382Sol     HW 4555   0.629   2.518   6.063  0.1118 -1.6749 -0.2270
  382Sol     MW 4556   0.628   2.534   5.975 -0.1998 -0.4365  0.6502
  383Sol     OW 4557   0.304   2.154   3.015  0.0442  0.2720 -0.2316
  383Sol     HW 4558   0.320   2.183   3.105 -1.0310 -1.3286  0.5151
  383Sol     HW 4559   0.340   2.224   2.960  0.0785  1.6078  1.4416
  383Sol     MW 4560   0.309   2.163   3.018 -0.3758 -0.2830 -0.8926
  384Sol     OW 4561   2.520   2.370   2.084 -0.5159 -0.4970 -0.0646
  384Sol     HW 4562   2.498   2.406   2.170 -0.4607 -0.5337 -0.0356
  384Sol     HW 4563   2.491   2.437   2.022 -2.9080 -1.5437 -0.1537
  384Sol     MW 4564   2.515   2.379   2.086  0.3178 -0.0572 -0.0914
  385Sol     OW 4565   2.050   0.070   2.808  0.2349 -0.0166 -0.0215
  385Sol     HW 4566   2.070  -0.001   2.869 -0.9331  0.5205  1.0080
  385Sol     HW 4567   2.136   0.102   2.781  0.7693 -2.1614 -0.9243
  385Sol     MW 4568   2.060   0.067   2.811  0.3925  0.5099 -0.4386
  386Sol     OW 4569   1.120   2.006   5.636  0.4441 -0.0403 -0.3284
  386Sol     HW 4570   1.180   1.961   5.697 -1.0900  0.1393  1.3545
  386Sol     HW 4571   1.098   1.939   5.571  0.3139 -0.9168  0.6072
  386Sol     MW 4572   1.124   1.996   5.636  0.5731  0.2098  0.2464
  387Sol     OW 4573   1.778   3.363   4.672  0.0140  0.3702  0.1092
  387Sol     HW 4574   1.689   3.332   4.661  0.5724 -1.2774  0.0878
  387Sol     HW 4575   1.800   3.405   4.588 -0.6887  0.6486  0.0680
  387Sol     MW 4576   1.772   3.364   4.663 -0.2252 -0.2520  1.0732
  388Sol     OW 4577   1.041   2.135   2.148  0.6128 -0.3842  0.4454
  388Sol     HW 4578   1.059   2.068   2.214  1.0038  1.1108  1.9104
  388Sol     HW 4579   1.124   2.182   2.140  0.2597  0.1080 -0.3520
  388Sol     MW 4580   1.050   2.133   2.153 -0.8415  0.2953 -0.1905
  389Sol     OW 4581   0.591   0.412   7.617 -0.0692  0.4207 -0.9141
  389Sol     HW 4582   0.663   0.410   7.554  0.8150  1.6369  0.0505
  389Sol     HW 4583   0.607   0.337   7.674  0.7427  1.0192 -0.3577
  389Sol     MW 4584   0.599   0.405   7.616 -0.2808  0.4470  0.7401
  390Sol     OW 4585   0.067   3.200   7.261  0.8401 -0.3735  0.1053
  390Sol     HW 4586   0.161   3.209   7.242  0.6156  1.9427 -0.1271
  390Sol     HW 4587   0.049   3.272   7.322 -1.2484  0.6497 -1.6683
  390Sol     MW 4588   0.074   3.207   7.265  0.2578 -0.5107  0.0736
  391Sol     OW 4589   2.513   0.442   4.183 -0.3259  0.3567  0.5079
  391Sol     HW 4590   2.506   0.430   4.088 -1.5905  0.8878  0.5297
  391Sol     HW 4591   2.562   0.524   4.193  0.5138 -0.1177  0.3240
  391Sol     MW 4592   2.517   0.449   4.175 -0.1916 -0.4267 -0.2862
  392Sol     OW 4593   0.302   2.631   9.537 -0.6147 -0.2566 -0.0961
  392Sol     HW 4594   0.264   2.713   9.568 -0.2663 -0.5106  1.0258
  392Sol     HW 4595   0.391   2.631   9.571 -0.6959 -1.2272  0.1338
  392Sol     MW 4596   0.307   2.638   9.543 -0.2877 -0.0378  0.1823
  393Sol     OW 4597   1.183   1.671   4.406 -0.0156  0.2511  0.2456
  393Sol     HW 4598   1.248   1.641   4.342 -0.1462 -2.5712  1.3444
  393Sol     HW 4599   1.235   1.712   4.475  0.2158  2.2450 -1.0865
  393Sol     MW 4600   1.194   1.672   4.407  0.5510  0.4900 -0.8007
  394Sol     OW 4601   2.260   0.295   5.401  0.4948  0.1450  0.1690
  394Sol     HW 4602   2.280   0.239   5.476  2.5794 -0.5144 -0.8500
  394Sol     HW 4603   2.208   0.239   5.343  2.1564 -0.6058 -0.6210
  394Sol     MW 4604   2.257   0.285   5.402  0.0040 -0.0117 -0.4026
  395Sol     OW 4605   2.398   1.702   6.165  0.0256  0.1168  0.2259
  395Sol     HW 4606   2.379   1.611   6.142 -1.3689  0.7840 -1.3598
  395Sol     HW 4607   2.484   1.718   6.126 -1.1643  0.4342 -2.4133
  395Sol     MW 4608   2.404   1.695   6.159  0.4994 -0.5711  0.0283
  396Sol     OW 4609   2.030   3.240   2.524 -0.1102 -0.4332  0.0836
  396Sol     HW 4610   2.125   3.231   2.523 -0.1659 -1.5480  2.1141
  396Sol     HW 4611   1.998   3.158   2.486 -0.2801  0.6760 -2.3112
  396Sol     MW 4612   2.035   3.232   2.520 -0.2986  0.5634 -0.0380
  397Sol     OW 4613   1.373   0.777   5.385 -0.4843 -0.2877 -0.1138
  397Sol     HW 4614   1.287   0.760   5.421 -0.8884  1.1714 -0.3687
  397Sol     HW 4615   1.424   0.810   5.459 -0.4746 -0.0679 -0.2187
  397Sol     MW 4616   1.370   0.778   5.395 -0.1160 -0.3617  0.8502
  398Sol     OW 4617   0.902   1.046   9.383  0.0894  0.2682 -0.9211
  398Sol     HW 4618   0.940   1.105   9.448  0.2897  0.2675 -1.0400
  398Sol     HW 4619   0.976   0.997   9.348  0.1846  1.3267 -2.2314
  398Sol     MW 4620   0.912   1.047   9.386 -0.1851  0.0955  0.9374
  399Sol     OW 4621   2.697   0.999   6.791 -0.3145 -0.3020  0.2112
  399Sol     HW 4622   2.658   1.085   6.808 -2.2948 -1.2623  0.7155
  399Sol     HW 4623   2.662   0.973   6.706 -0.6326 -1.0962  0.5803
  399Sol     MW 4624   2.690   1.005   6.785  0.4493 -0.2486 -0.1188
  400Sol     OW 4625   0.790   1.389   5.361  0.4662 -0.1559  0.3910
  400Sol     HW 4626   0.850   1.319   5.335  0.2303 -0.3110  0.2447
  400Sol     HW 4627   0.805   1.458   5.297  0.5616 -0.1543  0.4147
  400Sol     MW 4628   0.796   1.389   5.353 -0.2176  0.2915  0.3025
  401Sol     OW 4629   1.127   1.155   9.861 -0.8452 -0.4884 -0.3439
  401Sol     HW 4630   1.049   1.122   9.816 -1.5191 -0.3933  0.7516
  401Sol     HW 4631   1.123   1.117   9.948 -1.0670  1.5707  0.5888
  401Sol     MW 4632   1.120   1.149   9.865 -0.6578 -0.3403 -0.1816
  402Sol     OW 4633   0.585   0.213   4.270 -0.6172  0.2080  0.4041
  402Sol     HW 4634   0.655   0.233   4.207  1.6515 -1.3616  2.3300
  402Sol     HW 4635   0.586   0.286   4.331  0.8823 -0.8683  1.7001
  402Sol     MW 4636   0.591   0.221   4.270 -0.3129  0.0530 -0.1886
  403Sol     OW 4637   3.123   1.670   9.774 -0.3541 -0.5254  0.4883
  403Sol     HW 4638   3.030   1.684   9.788 -0.7399 -0.9392 -1.5743
  403Sol     HW 4639   3.143   1.590   9.823 -1.0307 -0.3430  1.0774
  403Sol     MW 4640   3.117   1.664   9.780  0.0879 -0.9319 -0.6430
  404Sol     OW 4641   0.417   1.190   9.250  0.3007 -0.2567 -0.0338
  404Sol     HW 4642   0.365   1.264   9.283  0.3633 -0.2000 -0.0609
  404Sol     HW 4643   0.508   1.216   9.267  0.3294 -0.2601 -0.1829
  404Sol     MW 4644   0.421   1.199   9.255 -0.1657  0.1634 -0.3264
  405Sol     OW 4645   0.611   0.139   1.720 -0.1284  0.4863  0.3138
  405Sol     HW 4646   0.642   0.155   1.631 -1.0536 -0.0176 -0.1029
  405Sol     HW 4647   0.516   0.143   1.714 -0.2041  0.3272  1.2560
  405Sol     MW 4648   0.605   0.141   1.711  0.2276  0.4724  0.4054
  406Sol     OW 4649   1.594   2.941   7.812  0.5724 -0.0180  0.0757
  406Sol     HW 4650   1.634   2.950   7.899 -1.4386 -1.0203  1.1529
  406Sol     HW 4651   1.659   2.974   7.752  2.0330  0.6665  1.9867
  406Sol     MW 4652   1.603   2.945   7.815 -0.1003 -0.4201 -0.2972
  407Sol     OW 4653   0.417   0.563   5.133 -0.0334 -0.7507  0.0354
  407Sol     HW 4654   0.387   0.540   5.221  0.5262 -1.0048  0.1602
  407Sol     HW 4655   0.474   0.639   5.147  1.6750 -2.0388  0.1166
  407Sol     MW 4656   0.419   0.568   5.143 -0.0627  0.5655 -0.0196
  408Sol     OW 4657   3.120   0.736   5.901 -0.0534 -0.0941  0.0902
  408Sol     HW 4658   3.055   0.804   5.888 -0.0520  0.0385  0.7591
  408Sol     HW 4659   3.159   0.723   5.815 -0.2382  0.5626 -0.0915
  408Sol     MW 4660   3.118   0.741   5.892  0.4346  0.2069  0.1339
  409Sol     OW 4661   2.338   1.248   6.897  0.3117 -0.2742 -0.2697
  409Sol     HW 4662   2.357   1.210   6.983 -0.5203 -0.1967 -0.0546
  409Sol     HW 4663   2.353   1.342   6.909 -1.2155 -0.0764  0.1887
  409Sol     MW 4664   2.341   1.253   6.906  0.6292 -0.0193 -0.1326
  410Sol     OW 4665   2.274   0.408   1.768  0.0481 -0.3204 -0.3422
  410Sol     HW 4666   2.345   0.345   1.750 -0.3351 -0.5985 -0.9220
  410Sol     HW 4667   2.314   0.494   1.753  0.2990 -0.4707 -0.5530
  410Sol     MW 4668   2.284   0.410   1.765 -0.4475 -0.0234  0.2777
  411Sol     OW 4669   1.092   2.328   3.194  0.3569  0.1059  0.0892
  411Sol     HW 4670   1.144   2.340   3.273 -0.3031 -0.8243  0.6786
  411Sol     HW 4671   1.008   2.371   3.214  0.6467  1.0101 -0.5985
  411Sol     MW 4672   1.089   2.333   3.203 -0.1840 -0.0634 -0.3803
  412Sol     OW 4673   3.058   2.435   6.269  0.3463 -0.5139  0.1443
  412Sol     HW 4674   3.097   2.354   6.302  0.7279 -0.2502  0.3492
  412Sol     HW 4675   2.969   2.411   6.244  0.8866 -1.2832 -1.0248
  412Sol     MW 4676   3.054   2.426   6.270  1.5090  0.3207  0.2219
  413Sol     OW 4677   1.414   1.255   2.904  0.8397  0.2644 -0.2805
  413Sol     HW 4678   1.491   1.294   2.863  0.4619  1.2763 -0.0264
  413Sol     HW 4679   1.402   1.304   2.986  1.5199 -1.6438  1.0089
  413Sol     MW 4680   1.420   1.263   2.908  0.0239  0.0570  0.8215
  414Sol     OW 4681   2.529   0.797   9.189 -0.4917 -0.2587  0.5835
  414Sol     HW 4682   2.482   0.878   9.206  0.2084 -0.1662  2.1651
  414Sol     HW 4683   2.589   0.788   9.263  1.2907 -0.8699 -0.8943
  414Sol     MW 4684   2.530   0.804   9.197 -0.2948 -0.7301 -0.0185
  415Sol     OW 4685   2.639   2.144   8.970 -0.8359 -0.6545  0.4488
  415Sol     HW 4686   2.581   2.086   9.019 -0.0998 -1.8946 -0.1019
  415Sol     HW 4687   2.660   2.094   8.890  0.8783 -0.2047  0.5918
  415Sol     MW 4688   2.636   2.134   8.967  0.7969  0.4455  0.0068
  416Sol     OW 4689   2.828   2.707   5.571 -0.0232  0.1868  0.0617
  416Sol     HW 4690   2.791   2.691   5.658 -2.5230 -0.9658 -1.1652
  416Sol     HW 4691   2.829   2.621   5.530 -0.1215  0.9410 -1.5287
  416Sol     MW 4692   2.825   2.698   5.575  0.0992 -0.2154  0.3976
  417Sol     OW 4693   1.555   1.465   2.007 -0.5595 -0.3002  0.0677
  417Sol     HW 4694   1.503   1.543   2.024 -0.6303 -0.0850 -1.1116
  417Sol     HW 4695   1.643   1.487   2.037 -0.1173  0.9502 -2.0914
  417Sol     MW 4696   1.558   1.474   2.012  0.5465  0.4033  0.6833
  418Sol     OW 4697   0.487   2.734   5.876 -0.7168  0.1085 -0.0370
  418Sol     HW 4698   0.489   2.814   5.928  2.3124 -1.1292  1.8665
  418Sol     HW 4699   0.541   2.754   5.799  0.5113 -0.2466  0.7159
  418Sol     MW 4700   0.492   2.743   5.874  0.1505 -0.0167 -0.0114
  419Sol     OW 4701   0.535   2.111   5.101 -0.1323 -0.0319 -0.2631
  419Sol     HW 4702   0.522   2.026   5.061  1.2357 -0.1744 -0.4267
  419Sol     HW 4703   0.446   2.144   5.118 -0.6690 -1.1597 -0.8621
  419Sol     MW 4704   0.526   2.107   5.099 -0.4836  0.2701  0.6271
  420Sol     OW 4705   2.477   3.011   6.589  0.3362  0.3672 -0.1346
  420Sol     HW 4706   2.516   3.083   6.638  0.3842  1.1297 -1.2584
  420Sol     HW 4707   2.494   2.933   6.642  0.3144  1.1742  1.0721
  420Sol     MW 4708   2.482   3.010   6.598 -0.6640  0.0105 -0.3060
  421Sol     OW 4709   1.405   0.378   9.324  0.1138  0.0621 -0.0951
  421Sol     HW 4710   1.494   0.402   9.353  0.1359 -1.4028  1.1340
  421Sol     HW 4711   1.354   0.376   9.405 -0.8225  0.0023 -0.6914
  421Sol     MW 4712   1.409   0.380   9.334 -0.2199  0.3685 -0.1990
  422Sol     OW 4713   0.186   2.691   3.762  0.1082  0.0211  0.5765
  422Sol     HW 4714   0.144   2.612   3.796 -0.4087  0.5479  1.1467
  422Sol     HW 4715   0.252   2.713   3.828  0.2302  0.0920  0.4324
  422Sol     MW 4716   0.188   2.686   3.771  0.0222 -0.2984 -0.7486
  423Sol     OW 4717   0.899   3.279   7.756  0.4690  0.2624 -0.2061
  423Sol     HW 4718   0.948   3.231   7.822 -2.1111 -3.1579 -0.6018
  423Sol     HW 4719   0.834   3.329   7.805  0.4070 -0.0580  0.0421
  423Sol     MW 4720   0.897   3.279   7.766 -0.2682  0.1781  0.2921
  424Sol     OW 4721   1.182   1.654   9.015  0.7918 -0.0095 -0.1228
  424Sol     HW 4722   1.190   1.559   9.011  0.9475  0.0121 -0.3168
  424Sol     HW 4723   1.177   1.674   9.109  1.6018 -0.1350 -0.0498
  424Sol     MW 4724   1.182   1.647   9.023 -0.1104  0.4465 -0.1901
  425Sol     OW 4725   0.967   1.636   6.684  0.0415 -0.3800  0.3360
  425Sol     HW 4726   0.950   1.542   6.693  0.1967 -0.6910 -2.3679
  425Sol     HW 4727   1.054   1.648   6.724 -0.9327 -0.9432  2.7533
  425Sol     MW 4728   0.974   1.629   6.689  0.5765 -0.0762 -0.3726
  426Sol     OW 4729   2.164   3.398   1.826  0.1064  0.0087 -0.1967
  426Sol     HW 4730   2.127   3.485   1.815  0.0062 -0.0804 -0.6055
  426Sol     HW 4731   2.136   3.370   1.913 -0.4559  0.1010 -0.3484
  426Sol     MW 4732   2.158   3.403   1.833  0.9483  0.5350 -0.1023
  427Sol     OW 4733   0.345   0.970   7.429  0.0191 -0.6960  0.3216
  427Sol     HW 4734   0.402   0.930   7.364 -1.1707  0.0129 -1.1899
  427Sol     HW 4735   0.403   1.024   7.482  1.2036 -2.2837  0.6917
  427Sol     MW 4736   0.355   0.971   7.428 -0.3046  0.6233  0.0986
  428Sol     OW 4737   2.557   1.842   7.186 -0.6141 -0.2732  0.3786
  428Sol     HW 4738   2.491   1.906   7.213  1.3298  0.7190  2.9875
  428Sol     HW 4739   2.542   1.766   7.242  0.2629 -0.1487  0.7956
  428Sol     MW 4740   2.550   1.841   7.193  0.7325  0.4232 -0.5262
  429Sol     OW 4741   1.103   2.728   5.440  0.2347 -0.1242 -0.2985
  429Sol     HW 4742   1.198   2.730   5.426  0.0949 -0.3092 -1.2675
  429Sol     HW 4743   1.069   2.796   5.382 -0.1462  0.6085  0.7528
  429Sol     MW 4744   1.109   2.734   5.434 -0.6712  0.2688  0.3928
  430Sol     OW 4745   3.093   2.260   7.124 -0.0097  0.0230  0.6135
  430Sol     HW 4746   3.060   2.209   7.199 -0.2818 -1.3409 -0.4084
  430Sol     HW 4747   3.182   2.285   7.150  0.1603 -1.0593  1.1238
  430Sol     MW 4748   3.098   2.257   7.133 -0.1024  0.2011  0.1426
  431Sol     OW 4749   0.998   1.581   8.268  0.5495  0.0654 -0.3062
  431Sol     HW 4750   0.913   1.624   8.263  0.0774 -0.5616  1.7303
  431Sol     HW 4751   1.032   1.606   8.354  2.8823  1.1204 -1.5206
  431Sol     MW 4752   0.993   1.587   8.275 -0.4369 -0.4621  0.1129
  432Sol     OW 4753   0.757   2.240   7.858  0.5533 -0.7179  0.4130
  432Sol     HW 4754   0.784   2.307   7.795 -2.3105  0.4630  0.3633
  432Sol     HW 4755   0.823   2.171   7.850  2.3757  1.1530 -1.0666
  432Sol     MW 4756   0.766   2.240   7.852  0.1427 -0.4430 -0.3278
  433Sol     OW 4757   0.243   1.038   6.766 -0.1406  0.1004 -0.0596
  433Sol     HW 4758   0.246   0.993   6.851  0.9264  1.5098  0.6755
  433Sol     HW 4759   0.149   1.048   6.749 -0.3976 -1.8921  0.0100
  433Sol     MW 4760   0.235   1.035   6.772 -0.4989  0.4700  0.5534
  434Sol     OW 4761   1.598   1.690   2.810  0.0470 -0.3198 -0.6432
  434Sol     HW 4762   1.514   1.667   2.851 -0.3722  0.3878 -1.0885
  434Sol     HW 4763   1.575   1.755   2.744  0.8867 -0.5278 -1.1408
  434Sol     MW 4764   1.588   1.694   2.808 -0.4100  0.2874 -0.3324
  435Sol     OW 4765   2.774   2.435   4.251  0.8783  0.4159 -0.1860
  435Sol     HW 4766   2.684   2.451   4.278  0.9198  0.3946 -0.0334
  435Sol     HW 4767   2.776   2.342   4.229  1.4772 -0.1782  2.2517
  435Sol     MW 4768   2.766   2.428   4.251 -0.5377 -0.5331  0.0266
  436Sol     OW 4769   0.454   2.399   7.626  0.0936  0.2845 -0.2652
  436Sol     HW 4770   0.474   2.321   7.677 -1.3406 -0.9325 -1.5403
  436Sol     HW 4771   0.365   2.423   7.652  0.5660  1.6003  0.2155
  436Sol     MW 4772   0.448   2.394   7.633 -0.3872  0.4999 -0.3037
  437Sol     OW 4773   1.634   2.481   9.141 -0.0631 -0.1921  0.6821
  437Sol     HW 4774   1.675   2.465   9.226 -1.5316 -1.9841  1.0784
  437Sol     HW 4775   1.644   2.399   9.094  0.5040  0.7144 -0.7906
  437Sol     MW 4776   1.639   2.473   9.145  0.2111  0.1709  0.3540
  438Sol     OW 4777   1.968   2.596   9.693  0.2877  0.2837 -0.4240
  438Sol     HW 4778   1.928   2.683   9.696  0.3285  0.2920 -0.1457
  438Sol     HW 4779   2.006   2.584   9.780  2.1058  0.8505 -1.1255
  438Sol     MW 4780   1.968   2.602   9.701  0.3060  0.2944 -0.5536
  439Sol     OW 4781   0.727   3.206   4.365  0.0070  0.0342 -0.2335
  439Sol     HW 4782   0.641   3.249   4.355 -0.5907 -0.8938  0.7932
  439Sol     HW 4783   0.707   3.112   4.367  1.0507 -0.1923 -0.0449
  439Sol     MW 4784   0.717   3.201   4.365 -0.7028  0.1467 -0.2918
  440Sol     OW 4785   2.246   3.031   6.210 -0.2628  0.3406  0.0395
  440Sol     HW 4786   2.195   2.956   6.179  1.6333 -0.6567 -0.7981
  440Sol     HW 4787   2.229   3.100   6.146  0.0148 -0.2350 -0.6669
  440Sol     MW 4788   2.240   3.031   6.201  0.5759 -0.2141  0.0064
  441Sol     OW 4789   0.349   1.538   3.572  0.0248  0.6071  0.0709
  441Sol     HW 4790   0.350   1.625   3.532  0.9854 -0.0172 -1.2796
  441Sol     HW 4791   0.265   1.501   3.547  0.6778  0.1660 -1.4935
  441Sol     MW 4792   0.342   1.543   3.566 -0.2043  1.2930  0.2950
  442Sol     OW 4793   0.891   2.999   8.120  0.1709  0.0394  0.0388
  442Sol     HW 4794   0.945   3.043   8.186  0.5499 -0.8257  0.3113
  442Sol     HW 4795   0.801   3.015   8.148  0.3021  0.6663  0.1172
  442Sol     MW 4796   0.888   3.005   8.129 -0.0197 -0.1673  0.1625
  443Sol     OW 4797   2.528   0.375   3.917 -0.4982 -0.6104 -0.0888
  443Sol     HW 4798   2.602   0.346   3.865 -0.3188  1.9410 -1.3514
  443Sol     HW 4799   2.458   0.312   3.899  0.7362 -1.8977 -0.4191
  443Sol     MW 4800   2.528   0.367   3.911  0.0628  0.0154 -0.7402
  444Sol     OW 4801   2.491   3.263   6.736  0.0700 -0.4033  0.2852
  444Sol     HW 4802   2.561   3.242   6.798  1.1560  0.5312 -0.5968
  444Sol     HW 4803   2.473   3.355   6.750  0.8244 -0.0043 -1.2629
  444Sol     MW 4804   2.496   3.269   6.742  0.2651 -0.0266 -0.5872
  445Sol     OW 4805   1.426   0.401   3.165  0.8235 -0.8012  0.4021
  445Sol     HW 4806   1.411   0.485   3.123 -0.7534 -2.0333 -1.6414
  445Sol     HW 4807   1.417   0.418   3.258 -2.2339  0.7816 -0.1268
  445Sol     MW 4808   1.424   0.410   3.169 -0.5566 -0.2672 -0.3728
  446Sol     OW 4809   3.254   1.548   7.252 -0.0166  0.0621 -0.2644
  446Sol     HW 4810   3.241   1.458   7.224  0.6511  0.7030 -2.8202
  446Sol     HW 4811   3.167   1.588   7.245 -0.0932 -0.0925 -0.1947
  446Sol     MW 4812   3.245   1.544   7.249  0.3133  0.1996  0.2020
  447Sol     OW 4813   1.849   2.628   2.271  0.1820  0.0489 -0.0397
  447Sol     HW 4814   1.943   2.647   2.262 -0.2561  2.4253  0.1047
  447Sol     HW 4815   1.821   2.606   2.182  0.0261  3.6219 -0.9550
  447Sol     MW 4816   1.855   2.628   2.262 -1.2385 -0.0764 -0.2061
  448Sol     OW 4817   1.323   1.646   2.868 -0.3903 -0.2250  0.1217
  448Sol     HW 4818   1.330   1.738   2.893  1.1531 -0.8849  2.2383
  448Sol     HW 4819   1.298   1.601   2.949  1.5168 -2.0149 -0.2560
  448Sol     MW 4820   1.321   1.650   2.878  0.0268 -0.5970  0.9648
  449Sol     OW 4821   2.959   1.389   1.391  0.2071  0.2932  0.6200
  449Sol     HW 4822   2.909   1.356   1.465 -0.9684 -1.5470 -0.9602
  449Sol     HW 4823   2.899   1.448   1.346 -0.0217 -0.6739 -0.3670
  449Sol     MW 4824   2.949   1.392   1.394  0.3070 -0.4097  0.0249
  450Sol     OW 4825   3.320   1.011   2.160  1.2020 -0.0336  0.1425
  450Sol     HW 4826   3.343   0.922   2.135  1.1049  0.0890 -0.3929
  450Sol     HW 4827   3.315   1.059   2.077  0.9774  0.4024  0.4031
  450Sol     MW 4828   3.321   1.007   2.150 -0.3933 -0.0557 -0.1924
  451Sol     OW 4829   2.870   1.302   1.635  0.1950 -0.6745 -0.3555
  451Sol     HW 4830   2.849   1.210   1.648  0.6216 -0.7679 -0.3267
  451Sol     HW 4831   2.962   1.309   1.659 -0.0732 -0.0672  0.5355
  451Sol     MW 4832   2.876   1.294   1.639  0.3899  0.2517  0.0646
  452Sol     OW 4833   0.131   1.448   1.442  0.9205 -0.5181 -0.4377
  452Sol     HW 4834   0.195   1.387   1.479 -0.3639 -1.4727  0.2400
  452Sol     HW 4835   0.147   1.446   1.348  2.5968  0.0869 -0.1868
  452Sol     MW 4836   0.138   1.443   1.437 -0.0416  0.0805 -0.0448
  453Sol     OW 4837   2.239   3.109   4.826  0.0017  0.0841 -0.0751
  453Sol     HW 4838   2.294   3.145   4.757  2.2958 -2.4386  0.3530
  453Sol     HW 4839   2.236   3.015   4.809 -1.4375 -0.2691  1.8376
  453Sol     MW 4840   2.243   3.104   4.819 -0.0260 -0.3932 -0.1403
  454Sol     OW 4841   2.344   1.650   2.442 -0.1064  0.5714 -0.3557
  454Sol     HW 4842   2.254   1.624   2.463  0.3491 -2.1014 -1.5013
  454Sol     HW 4843   2.342   1.669   2.348  0.8861 -1.3885 -0.8074
  454Sol     MW 4844   2.335   1.649   2.435  0.0708 -0.5745  0.2560
  455Sol     OW 4845   0.739   1.221   7.998 -0.2220 -0.3536 -0.7134
  455Sol     HW 4846   0.687   1.186   8.071  1.4350 -0.9447  0.2243
  455Sol     HW 4847   0.787   1.145   7.964  0.2168  0.2214 -1.4006
  455Sol     MW 4848   0.739   1.211   8.002 -0.5263  0.1325 -0.1177
  456Sol     OW 4849   0.526   1.891   4.895  0.4878 -0.4171  0.6145
  456Sol     HW 4850   0.467   1.885   4.820 -1.4777  0.1428  2.0470
  456Sol     HW 4851   0.613   1.874   4.860 -0.5878 -1.7132 -1.4901
  456Sol     MW 4852   0.528   1.889   4.885  0.4991 -0.1428  0.6618
  457Sol     OW 4853   0.443   0.772   4.814 -0.0915 -0.4230 -0.2777
  457Sol     HW 4854   0.452   0.759   4.719 -0.7657 -0.0134 -0.3986
  457Sol     HW 4855   0.394   0.695   4.843 -0.7128 -0.0765 -0.4062
  457Sol     MW 4856   0.440   0.764   4.808  0.1014 -0.0149  0.2620
  458Sol     OW 4857   1.040   1.469   9.336 -0.4168  0.3043 -0.1558
  458Sol     HW 4858   1.116   1.415   9.316 -0.8140  0.7646 -3.1124
  458Sol     HW 4859   1.061   1.555   9.300 -1.2747  1.1805  1.3356
  458Sol     MW 4860   1.048   1.472   9.331  0.6508  0.0085 -0.2913
  459Sol     OW 4861   1.855   1.364   7.372 -0.0387 -0.1119 -0.7086
  459Sol     HW 4862   1.781   1.331   7.322 -0.3057 -0.8179  0.1357
  459Sol     HW 4863   1.819   1.383   7.459  0.5924  0.3006 -0.5307
  459Sol     MW 4864   1.845   1.363   7.376  0.1706  0.0296  0.1827
  460Sol     OW 4865   0.915   1.069   4.313  0.1410  0.2549 -0.1279
  460Sol     HW 4866   0.990   1.071   4.373  1.2149  1.0601 -1.4582
  460Sol     HW 4867   0.839   1.059   4.370  1.0411  2.0710  1.4696
  460Sol     MW 4868   0.915   1.068   4.324 -0.2372  0.3777  0.4804
  461Sol     OW 4869   2.090   0.962   5.236 -0.0523  0.5317  0.5640
  461Sol     HW 4870   2.150   0.888   5.227  1.3636  1.8235 -0.9989
  461Sol     HW 4871   2.136   1.023   5.293 -0.8267  0.5817  1.1283
  461Sol     MW 4872   2.100   0.960   5.240  0.2891  0.3112  0.4986
  462Sol     OW 4873   1.545   0.578   2.830 -0.7768 -0.6514 -0.1532
  462Sol     HW 4874   1.586   0.642   2.889 -0.8250  1.0517 -1.9406
  462Sol     HW 4875   1.574   0.603   2.743 -1.9542 -2.2218 -1.0233
  462Sol     MW 4876   1.551   0.586   2.828 -0.1310 -0.3082  0.4080
  463Sol     OW 4877   2.590   0.423   9.146 -0.3889 -0.2536 -0.0875
  463Sol     HW 4878   2.618   0.331   9.141  1.8220  0.2384  1.8653
  463Sol     HW 4879   2.522   0.424   9.214 -0.5654 -0.4884 -0.2630
  463Sol     MW 4880   2.587   0.415   9.152 -0.7501  0.5641 -0.3753
  464Sol     OW 4881   0.232   2.796   2.980  0.2947  0.6945  0.0803
  464Sol     HW 4882   0.251   2.770   3.070  2.2712 -0.1619 -0.5522
  464Sol     HW 4883   0.307   2.850   2.954 -1.3094  2.7883 -0.3423
  464Sol     MW 4884   0.241   2.799   2.985  0.3037  0.4306 -0.2997
  465Sol     OW 4885   0.694   1.042   1.771 -0.0780 -0.0467  0.1735
  465Sol     HW 4886   0.686   1.015   1.863 -2.2305 -1.1617 -0.3275
  465Sol     HW 4887   0.782   1.079   1.766  0.1970 -0.2433  2.6203
  465Sol     MW 4888   0.701   1.043   1.779 -0.2337  0.6561 -0.7947
  466Sol     OW 4889   1.778   1.662   3.278  0.0287 -0.4095 -0.1714
  466Sol     HW 4890   1.781   1.678   3.183 -0.0749 -2.9202 -0.6431
  466Sol     HW 4891   1.688   1.682   3.303  0.4755  1.8231 -0.2892
  466Sol     MW 4892   1.770   1.665   3.272  0.1282 -0.4357  0.7654
  467Sol     OW 4893   2.606   0.235   7.002  0.2291  0.1402  0.1752
  467Sol     HW 4894   2.553   0.164   7.036  1.5439 -0.1221  1.7232
  467Sol     HW 4895   2.602   0.303   7.070  1.8306  0.1331  0.2870
  467Sol     MW 4896   2.601   0.235   7.011 -0.3315  0.0226  0.4634
  468Sol     OW 4897   0.721   0.443   7.948  0.1265  0.2054 -1.2016
  468Sol     HW 4898   0.717   0.534   7.919 -3.7975 -0.1665 -2.0290
  468Sol     HW 4899   0.760   0.396   7.874  0.1327  0.8667 -1.6218
  468Sol     MW 4900   0.724   0.447   7.939  0.1364 -0.0446  0.3302
  469Sol     OW 4901   2.463   1.002   6.055  0.6753  0.0980  0.2507
  469Sol     HW 4902   2.557   0.986   6.049  1.3197  2.6698  2.3574
  469Sol     HW 4903   2.444   0.995   6.149 -1.2282 -0.2716 -0.1478
  469Sol     MW 4904   2.470   1.000   6.063 -0.1094 -0.1427 -0.0239
  470Sol     OW 4905   0.167   0.222   7.492  0.7659 -0.2173 -0.4532
  470Sol     HW 4906   0.208   0.239   7.576  0.9034 -0.2211 -0.5202
  470Sol     HW 4907   0.233   0.174   7.441  0.5322 -0.5888 -0.4128
  470Sol     MW 4908   0.176   0.219   7.495  0.3991 -0.2234 -0.3617
  471Sol     OW 4909   1.350   2.035   4.746  0.0420  0.2708  0.3476
  471Sol     HW 4910   1.352   2.054   4.840  0.1364  2.2644 -0.0192
  471Sol     HW 4911   1.430   2.075   4.712 -1.3673  2.1167 -0.9803
  471Sol     MW 4912   1.357   2.041   4.751  0.0134  0.3201 -0.0472
  472Sol     OW 4913   1.933   1.539   1.539 -0.0119  0.2604 -0.2990
  472Sol     HW 4914   1.912   1.447   1.554 -0.8385  0.4023 -0.5832
  472Sol     HW 4915   2.020   1.538   1.499 -1.1464 -0.5307 -2.7893
  472Sol     MW 4916   1.939   1.530   1.537  0.6517  0.3353  0.3156
  473Sol     OW 4917   1.552   2.536   6.035 -0.3136  0.1996 -0.0593
  473Sol     HW 4918   1.463   2.514   6.006 -1.4670  1.5947  2.3156
  473Sol     HW 4919   1.580   2.459   6.085 -0.5809  0.1878  0.0754
  473Sol     MW 4920   1.546   2.527   6.037 -0.8978 -0.0616 -0.3320
  474Sol     OW 4921   0.076   1.434   4.605 -0.1188 -0.6884  0.4223
  474Sol     HW 4922   0.101   1.374   4.535  0.3380 -0.5993  0.5053
  474Sol     HW 4923  -0.017   1.419   4.617  0.4383 -3.0893  2.0639
  474Sol     MW 4924   0.070   1.427   4.600 -0.4275  0.0775  0.3214
  475Sol     OW 4925   1.632   2.075   2.591 -0.2077 -0.3058 -0.0800
  475Sol     HW 4926   1.717   2.087   2.632 -0.5379 -0.0064  0.5331
  475Sol     HW 4927   1.648   2.018   2.517  1.0467  2.1339 -1.7721
  475Sol     MW 4928   1.641   2.071   2.588 -0.1046 -0.0368  0.2429
  476Sol     OW 4929   1.834   3.418   1.534 -0.6018  0.7910  0.4913
  476Sol     HW 4930   1.862   3.327   1.522 -0.5157  0.8719  0.0953
  476Sol     HW 4931   1.799   3.420   1.623 -0.0151  0.5138  0.7352
  476Sol     MW 4932   1.834   3.410   1.541 -0.2382  0.0646  0.0878
  477Sol     OW 4933   0.190   2.171   8.624  0.4675 -0.6890 -0.0099
  477Sol     HW 4934   0.183   2.167   8.719 -0.9196  2.7679  0.0756
  477Sol     HW 4935   0.282   2.189   8.607  0.1811  1.6104  0.8196
  477Sol     MW 4936   0.198   2.172   8.631  0.2699 -0.0914 -0.5634
  478Sol     OW 4937   1.923   0.662   9.861  0.1587  0.0964  0.1544
  478Sol     HW 4938   1.859   0.624   9.801 -0.9678  0.6125  1.0197
  478Sol     HW 4939   1.906   0.756   9.858  0.0610  0.1224  1.3217
  478Sol     MW 4940   1.916   0.667   9.856  0.2087 -0.2293  0.4381
  479Sol     OW 4941   1.617   2.369   6.964  0.3581 -0.3107 -0.2526
  479Sol     HW 4942   1.522   2.368   6.971  0.4711 -0.4717  1.4964
  479Sol     HW 4943   1.644   2.280   6.989  1.0479  0.1349  0.5985
  479Sol     MW 4944   1.611   2.361   6.967 -0.7990 -0.3286 -0.4130
  480Sol     OW 4945   1.784   0.136   6.715 -0.2352  0.1878  0.8241
  480Sol     HW 4946   1.844   0.210   6.724  0.0256  0.3720 -1.9661
  480Sol     HW 4947   1.839   0.059   6.731  0.1710  0.4679  0.7870
  480Sol     MW 4948   1.794   0.136   6.717  0.0657  0.5463 -0.1178
  481Sol     OW 4949   0.720   3.291   9.292  0.7292 -0.7703 -0.2131
  481Sol     HW 4950   0.729   3.311   9.198  1.2294 -4.4917 -1.0263
  481Sol     HW 4951   0.808   3.299   9.326  0.9445 -1.6715 -0.5520
  481Sol     MW 4952   0.728   3.294   9.286 -0.6590  0.2172 -0.0304
  482Sol     OW 4953   0.064   0.547   2.228  0.1014 -0.4714  0.1868
  482Sol     HW 4954  -0.028   0.525   2.214 -0.2672  0.7449  0.6330
  482Sol     HW 4955   0.085   0.514   2.315 -0.2219  0.1941  0.5218
  482Sol     MW 4956   0.058   0.542   2.235 -0.1859 -0.3224  0.2814
  483Sol     OW 4957   1.918   2.851   7.792 -0.3182  0.0433  0.5692
  483Sol     HW 4958   1.996   2.818   7.837  0.5647  1.0097 -0.2314
  483Sol     HW 4959   1.846   2.799   7.827  0.6760 -0.7859  1.3964
  483Sol     MW 4960   1.919   2.844   7.799 -0.0677  0.2273 -0.0677
  484Sol     OW 4961   2.951   1.908   2.630  0.1914  0.5666  0.0108
  484Sol     HW 4962   2.923   1.991   2.670  1.7763  0.9028  0.4497
  484Sol     HW 4963   3.005   1.866   2.697  3.0960  1.2622 -1.8514
  484Sol     MW 4964   2.953   1.912   2.640 -0.0580 -0.2958 -0.2482
  485Sol     OW 4965   2.561   0.246   2.913  0.2069  0.0754  0.0651
  485Sol     HW 4966   2.620   0.193   2.859  0.7961 -0.7847  1.5309
  485Sol     HW 4967   2.487   0.189   2.931  0.0762  0.3164  0.2906
  485Sol     MW 4968   2.560   0.236   2.910 -0.3479  0.4649  0.3209
  486Sol     OW 4969   1.053   0.635   8.451  0.8461 -0.0377 -0.0837
  486Sol     HW 4970   0.999   0.567   8.491 -0.6812  0.4321 -1.3017
  486Sol     HW 4971   1.028   0.634   8.359  0.6152  2.3401 -0.0768
  486Sol     MW 4972   1.046   0.629   8.446  0.6404 -0.6456  0.2020
  487Sol     OW 4973   2.452   2.463   6.850  0.2757  0.2501  0.3672
  487Sol     HW 4974   2.398   2.528   6.895  0.3822  0.9452 -0.4989
  487Sol     HW 4975   2.491   2.510   6.777  1.1553 -0.5390  0.3115
  487Sol     MW 4976   2.451   2.473   6.847 -0.1565 -0.1729 -0.3017
  488Sol     OW 4977   2.265   0.256   8.918 -0.2239 -0.4758 -0.1669
  488Sol     HW 4978   2.177   0.268   8.954 -0.9140 -0.5023 -1.8378
  488Sol     HW 4979   2.265   0.303   8.835  0.9869 -1.4144 -0.7192
  488Sol     MW 4980   2.257   0.261   8.914  0.1348  0.3198  0.1152
  489Sol     OW 4981   2.624   2.576   5.790  0.5868 -0.5221  0.2089
  489Sol     HW 4982   2.700   2.559   5.845  0.0311  0.6679  1.3712
  489Sol     HW 4983   2.574   2.642   5.837 -0.6838 -0.5812 -1.0032
  489Sol     MW 4984   2.626   2.580   5.799 -0.9135 -0.4556  0.4955
  490Sol     OW 4985   3.051   1.239   9.784  0.4961  0.1139  0.3183
  490Sol     HW 4986   3.104   1.316   9.806  1.4872 -0.4641 -0.0142
  490Sol     HW 4987   3.050   1.187   9.864 -0.9345  0.8949  0.8271
  490Sol     MW 4988   3.055   1.241   9.793 -1.1543 -0.2918  0.2362
  491Sol     OW 4989   1.396   2.815   6.335  0.1452 -0.1919  0.1823
  491Sol     HW 4990   1.402   2.811   6.239 -0.0811 -1.0191  0.1990
  491Sol     HW 4991   1.486   2.823   6.365  0.3054 -1.1042 -0.0510
  491Sol     MW 4992   1.404   2.815   6.329 -0.1306 -0.0421  0.1773
  492Sol     OW 4993   1.473   0.038   9.443 -0.0765 -0.0551 -0.3946
  492Sol     HW 4994   1.495  -0.051   9.417 -0.1652 -0.5100  1.0250
  492Sol     HW 4995   1.386   0.054   9.408  0.3078 -0.2020 -1.4174
  492Sol     MW 4996   1.468   0.031   9.438 -0.2037 -0.1132  0.3275
  493Sol     OW 4997   0.967   3.333   3.280 -0.6453  0.3332  0.2073
  493Sol     HW 4998   0.960   3.239   3.264 -0.0330  0.2643  0.3364
  493Sol     HW 4999   0.930   3.346   3.368 -0.6047  0.1968  0.2434
  493Sol     MW 5000   0.963   3.326   3.287  0.2119  0.5357  0.3507
  494Sol     OW 5001   0.969   2.833   6.301  0.3427  0.5800  0.0591
  494Sol     HW 5002   1.047   2.872   6.340  0.4932  0.7577 -0.4071
  494Sol     HW 5003   0.896   2.880   6.341  0.4834  0.5748  0.3245
  494Sol     MW 5004   0.969   2.841   6.308 -0.0844 -0.4846 -0.3847
  495Sol     OW 5005   3.081   2.056   1.894  0.3063  0.0764  0.2613
  495Sol     HW 5006   3.081   2.009   1.977  1.7473  1.9661  1.3644
  495Sol     HW 5007   3.159   2.023   1.848  0.4569  0.2731  0.3770
  495Sol     MW 5008   3.088   2.049   1.897  0.1236 -0.1327  0.4518
  496Sol     OW 5009   0.674   1.061   6.945  0.2312 -0.0884 -0.0661
  496Sol     HW 5010   0.602   1.122   6.960 -0.9139 -1.0415 -1.5639
  496Sol     HW 5011   0.721   1.097   6.870 -1.3835 -1.8362 -1.9663
  496Sol     MW 5012   0.672   1.070   6.940 -0.4784  0.5151  0.4042
  497Sol     OW 5013   1.039   1.568   7.520 -0.0841 -0.2275 -0.3752
  497Sol     HW 5014   1.098   1.567   7.595 -0.7823  2.0416  0.2647
  497Sol     HW 5015   0.974   1.500   7.538 -0.7765  0.9067  1.5358
  497Sol     MW 5016   1.038   1.562   7.528 -0.1123  0.2226  0.4868
  498Sol     OW 5017   0.819   2.617   5.188  0.3349  0.0349  0.0429
  498Sol     HW 5018   0.820   2.712   5.171  1.5201 -0.0495 -0.3820
  498Sol     HW 5019   0.826   2.578   5.101  0.6232 -0.4413  0.2797
  498Sol     MW 5020   0.820   2.622   5.178  0.5496  0.1196 -0.5873
  499Sol     OW 5021   2.415   3.326   1.733 -0.4522 -0.1569  0.0123
  499Sol     HW 5022   2.343   3.368   1.780 -1.1547 -0.1091 -1.0840
  499Sol     HW 5023   2.375   3.248   1.695  0.1180 -0.2088 -0.4778
  499Sol     MW 5024   2.405   3.323   1.734 -0.3740  0.3822 -0.6040
  500Sol     OW 5025   0.525   2.372   2.943  0.0550 -0.2626  0.6135
  500Sol     HW 5026   0.482   2.346   2.862 -0.4191  0.4773  0.6281
  500Sol     HW 5027   0.613   2.401   2.917 -0.1705  0.1734  0.3429
  500Sol     MW 5028   0.529   2.372   2.934  0.5391  0.0747 -0.6235
  501Sol     OW 5029   0.817   1.608   2.337 -0.8098 -0.1155 -0.1621
  501Sol     HW 5030   0.844   1.694   2.306 -0.7470  0.1221  0.5276
  501Sol     HW 5031   0.895   1.573   2.381 -0.7556 -0.6353 -0.6592
  501Sol     MW 5032   0.827   1.613   2.338  0.3044  0.2575  0.8734
  502Sol     OW 5033   1.152   2.733   7.711 -0.0783 -0.1209 -0.3780
  502Sol     HW 5034   1.073   2.681   7.727 -1.6096  1.9863 -0.7938
  502Sol     HW 5035   1.182   2.705   7.625  0.5157 -2.0030  0.4181
  502Sol     MW 5036   1.148   2.726   7.705  0.1671 -0.4271 -0.0432
  503Sol     OW 5037   0.502   0.838   2.372 -0.3242 -0.1309 -0.0181
  503Sol     HW 5038   0.420   0.794   2.395  0.3037 -0.2690  2.1046
  503Sol     HW 5039   0.496   0.923   2.415 -0.3537  0.8057 -1.8327
  503Sol     MW 5040   0.494   0.842   2.378  0.6219 -0.1835  0.3679
  504Sol     OW 5041   2.922   3.058   3.223 -0.0352 -0.2129  0.2744
  504Sol     HW 5042   2.931   2.981   3.279 -1.0746 -0.9262 -0.4959
  504Sol     HW 5043   2.835   3.048   3.184  0.5489  0.4359 -1.2121
  504Sol     MW 5044   2.915   3.050   3.225  0.2433  0.5741 -0.3885
  505Sol     OW 5045   1.944   0.095   4.022  0.0362  0.1218  0.0732
  505Sol     HW 5046   2.001   0.023   3.995 -0.9022 -0.4193 -0.5152
  505Sol     HW 5047   1.967   0.110   4.114  1.9201  0.6943 -0.4762
  505Sol     MW 5048   1.951   0.090   4.028  0.0842  0.2819 -0.2054
  506Sol     OW 5049   1.952   3.172   2.837 -0.2971  0.1092 -0.3269
  506Sol     HW 5050   1.981   3.147   2.749 -1.8298  1.4272 -1.2373
  506Sol     HW 5051   2.022   3.229   2.869  0.2621 -0.3532 -0.7035
  506Sol     MW 5052   1.961   3.175   2.832 -0.0083  0.1170  0.3729
  507Sol     OW 5053   0.838   0.977   7.863  0.6330 -0.2510  0.1960
  507Sol     HW 5054   0.852   1.000   7.772  0.7746 -0.4290  0.1724
  507Sol     HW 5055   0.896   0.903   7.879 -1.9036 -2.4322 -0.4945
  507Sol     MW 5056   0.844   0.973   7.857  0.6698 -0.8222 -0.7969
  508Sol     OW 5057   1.465   1.875   9.969 -0.0298  0.2680 -0.3421
  508Sol     HW 5058   1.471   1.867  10.064 -0.3916 -1.4833 -0.4432
  508Sol     HW 5059   1.373   1.855   9.949 -1.1879  5.3434 -0.6724
  508Sol     MW 5060   1.457   1.872   9.976 -0.0577  0.4687  0.3613
  509Sol     OW 5061   0.162   2.145   8.904 -0.4404 -0.2286  0.5129
  509Sol     HW 5062   0.107   2.219   8.931  0.0043 -0.6564  2.6663
  509Sol     HW 5063   0.123   2.069   8.948 -0.2026 -1.1104 -0.7653
  509Sol     MW 5064   0.153   2.145   8.910 -0.5067  0.3088  0.3523
  510Sol     OW 5065   0.531   0.858   7.269 -0.0581 -0.5464 -0.6574
  510Sol     HW 5066   0.491   0.772   7.279  0.6446 -0.7180  0.6959
  510Sol     HW 5067   0.556   0.862   7.176 -0.1412 -1.7715 -0.7369
  510Sol     MW 5068   0.529   0.851   7.261  0.5947  0.5004  0.3993
  511Sol     OW 5069   1.557   2.340   4.100 -0.1543 -0.2429  0.3129
  511Sol     HW 5070   1.491   2.387   4.150 -0.3843 -0.4963  0.2482
  511Sol     HW 5071   1.530   2.350   4.009 -0.3492 -0.7270  0.3189
  511Sol     MW 5072   1.549   2.345   4.097 -0.3621 -0.6293  0.4887
  512Sol     OW 5073   0.955   0.418   7.663 -0.2602 -0.0094  0.0985
  512Sol     HW 5074   0.895   0.449   7.595 -2.7861  0.7443  2.5797
  512Sol     HW 5075   1.031   0.476   7.655  0.5009 -1.3584 -3.4828
  512Sol     MW 5076   0.957   0.426   7.656 -0.6876 -0.0302  0.0795
  513Sol     OW 5077   1.782   3.371   3.344 -0.0827  0.1705 -0.6411
  513Sol     HW 5078   1.790   3.387   3.250  0.9738  0.5941 -0.4804
  513Sol     HW 5079   1.777   3.276   3.351  0.0679  0.1262 -1.1022
  513Sol     MW 5080   1.782   3.364   3.336 -0.3632  0.1113 -0.4994
  514Sol     OW 5081   1.313   0.019   4.587 -0.3457 -0.2881 -0.5962
  514Sol     HW 5082   1.278   0.056   4.668  1.9780 -1.2245  0.8782
  514Sol     HW 5083   1.369   0.088   4.552  0.2472 -0.6299 -0.3305
  514Sol     MW 5084   1.315   0.028   4.591 -0.3092 -1.3741  0.4609
  515Sol     OW 5085   2.378   1.379   6.433 -0.6599 -0.4098 -1.0234
  515Sol     HW 5086   2.290   1.375   6.469 -1.0613 -2.5227 -2.1064
  515Sol     HW 5087   2.365   1.398   6.340  0.0386 -0.3208 -1.1076
  515Sol     MW 5088   2.369   1.380   6.428  0.4490  0.0417  0.4321
  516Sol     OW 5089   2.014   2.284   6.666 -0.5225  0.1679  0.1250
  516Sol     HW 5090   1.938   2.338   6.688  0.3053  2.5459 -2.5594
  516Sol     HW 5091   2.089   2.341   6.682  0.6093 -1.5768  1.0844
  516Sol     MW 5092   2.014   2.294   6.669  1.1792 -0.1492  0.1056
  517Sol     OW 5093   2.251   0.378   8.652  0.3438  0.2536  0.4520
  517Sol     HW 5094   2.174   0.321   8.653 -0.6787  1.6037  0.8468
  517Sol     HW 5095   2.282   0.376   8.562  0.2465 -0.8329  0.4414
  517Sol     MW 5096   2.246   0.373   8.644 -0.0643 -0.4271  0.4833
  518Sol     OW 5097   3.293   2.512   6.096  0.5100 -0.1152 -0.4209
  518Sol     HW 5098   3.219   2.490   6.153 -0.3179 -0.3122 -1.5481
  518Sol     HW 5099   3.293   2.607   6.092  0.2209 -0.1190 -0.5296
  518Sol     MW 5100   3.287   2.518   6.100 -0.6577 -0.1169 -0.0563
  519Sol     OW 5101   1.703   1.791   7.397  0.2520 -0.2617  0.2679
  519Sol     HW 5102   1.751   1.801   7.479  1.8806  0.5617 -0.7517
  519Sol     HW 5103   1.678   1.880   7.373 -1.1525 -0.6109  0.4100
  519Sol     MW 5104   1.705   1.800   7.402  0.5238  0.5793 -0.1592
  520Sol     OW 5105   3.179   0.288   7.218 -0.4104  0.0404 -0.6073
  520Sol     HW 5106   3.233   0.366   7.215  1.9488 -1.5188 -0.2243
  520Sol     HW 5107   3.153   0.280   7.310 -0.8507  0.4624 -0.6878
  520Sol     MW 5108   3.181   0.294   7.226  0.9854 -0.5318  0.5562
  521Sol     OW 5109   0.931   0.938   3.514 -0.1521  0.8057 -0.2446
  521Sol     HW 5110   0.912   0.845   3.527 -1.2292  0.9850 -0.4777
  521Sol     HW 5111   0.946   0.946   3.420  0.2531  0.8184 -0.1805
  521Sol     MW 5112   0.930   0.930   3.507 -0.0772 -0.4066  0.1481
  522Sol     OW 5113   1.196   0.565   7.019  0.0651  0.1964  0.0008
  522Sol     HW 5114   1.103   0.544   7.028  0.3669 -1.4319 -0.4046
  522Sol     HW 5115   1.212   0.634   7.083 -1.5049  0.7558 -0.1958
  522Sol     MW 5116   1.189   0.569   7.026 -0.0139  0.1737 -0.1911
  523Sol     OW 5117   1.575   1.520   7.424  0.0689  0.4451  0.0249
  523Sol     HW 5118   1.622   1.602   7.407  1.6364 -0.6554 -1.1587
  523Sol     HW 5119   1.528   1.503   7.342  0.9745 -0.6058 -0.2899
  523Sol     MW 5120   1.575   1.526   7.415  0.3131  0.0808 -0.3128
  524Sol     OW 5121   3.207   1.995   8.717  0.2574 -0.5103 -0.3333
  524Sol     HW 5122   3.238   2.079   8.684  0.4420  0.0144  1.1488
  524Sol     HW 5123   3.112   2.005   8.724  0.3391 -0.2180  0.3984
  524Sol     MW 5124   3.201   2.003   8.715  0.2505  0.2473  0.4600
  525Sol     OW 5125   0.497   0.918   8.131  0.2491 -1.0195 -0.0640
  525Sol     HW 5126   0.537   0.876   8.207 -1.2554 -1.7476  0.3531
  525Sol     HW 5127   0.501   1.011   8.151 -0.1020 -1.2043  0.9032
  525Sol     MW 5128   0.501   0.923   8.139  0.0255 -0.9822 -0.6413
  526Sol     OW 5129   1.642   1.365   6.586  0.1659  0.1215  0.0440
  526Sol     HW 5130   1.717   1.306   6.581 -0.0769 -0.3077  1.2924
  526Sol     HW 5131   1.638   1.406   6.500  1.5986 -0.1360 -0.1591
  526Sol     MW 5132   1.648   1.364   6.578  0.0051 -0.0551  0.3468
  527Sol     OW 5133   3.028   0.377   6.603 -0.3971  0.1227  0.1395
  527Sol     HW 5134   3.038   0.284   6.623  1.5167  0.6791  1.9739
  527Sol     HW 5135   3.049   0.422   6.685  2.2019  2.3014 -1.5878
  527Sol     MW 5136   3.031   0.373   6.612  0.0434  0.2059  0.2305
  528Sol     OW 5137   1.302   2.008   8.826 -0.7953  0.7227  0.1347
  528Sol     HW 5138   1.254   1.984   8.905 -1.7216  1.1407 -0.2978
  528Sol     HW 5139   1.234   2.020   8.760  0.1203 -2.2302 -1.4234
  528Sol     MW 5140   1.292   2.007   8.827 -0.3150  0.3012 -0.4128
  529Sol     OW 5141   1.160   1.642   6.873  0.4588 -0.0094 -0.8877
  529Sol     HW 5142   1.186   1.551   6.884  1.1308  0.3676  0.8004
  529Sol     HW 5143   1.125   1.668   6.958 -0.1412  1.1840 -1.4770
  529Sol     MW 5144   1.159   1.636   6.881 -0.1258  0.1570  0.0311
  530Sol     OW 5145   2.046   0.442   8.046 -0.5968  0.9531  0.0117
  530Sol     HW 5146   1.988   0.496   8.099 -1.7873  0.4571 -0.7465
  530Sol     HW 5147   2.037   0.477   7.957 -0.1053  0.5590 -0.1978
  530Sol     MW 5148   2.040   0.450   8.043  0.5214  0.4212  0.0849
  531Sol     OW 5149   0.158   2.596   8.716  0.1739 -0.2606 -0.4438
  531Sol     HW 5150   0.159   2.691   8.713  4.3060 -0.1258  1.9882
  531Sol     HW 5151   0.098   2.576   8.789  0.4363  0.5298 -0.0027
  531Sol     MW 5152   0.152   2.602   8.722  0.2229 -0.6241 -0.1527
  532Sol     OW 5153   3.264   2.537   4.712 -0.4566  0.2742  0.5577
  532Sol     HW 5154   3.226   2.490   4.786 -0.8243  0.1570  0.3000
  532Sol     HW 5155   3.330   2.477   4.677  1.1744  1.1733  2.0441
  532Sol     MW 5156   3.266   2.527   4.715 -0.0738 -0.8693  0.3668
  533Sol     OW 5157   1.214   2.272   2.534  0.5369 -0.9124  0.1432
  533Sol     HW 5158   1.164   2.349   2.560  2.7181  0.5376  0.1721
  533Sol     HW 5159   1.284   2.266   2.600  0.8284 -2.4741 -0.2933
  533Sol     MW 5160   1.216   2.278   2.542  0.2295  0.1315  0.4152
  534Sol     OW 5161   1.676   1.759   8.150 -0.0993 -0.0631 -0.4248
  534Sol     HW 5162   1.598   1.728   8.197 -0.8726  1.5490 -0.6353
  534Sol     HW 5163   1.664   1.854   8.143  1.8037  0.1780 -0.6124
  534Sol     MW 5164   1.668   1.765   8.154 -0.4597 -0.1165 -0.2236
  535Sol     OW 5165   1.709   2.849   9.736 -0.0767 -0.2062 -0.4843
  535Sol     HW 5166   1.803   2.849   9.749 -0.2605  1.1193  0.9159
  535Sol     HW 5167   1.684   2.757   9.735  0.9339 -0.4963  1.2877
  535Sol     MW 5168   1.715   2.841   9.737 -0.0805  0.4884 -0.0091
  536Sol     OW 5169   3.115   1.648   9.022  0.1262 -0.1680  0.3376
  536Sol     HW 5170   3.124   1.603   9.106 -0.0302  2.5132  1.8628
  536Sol     HW 5171   3.021   1.647   9.004  0.0578  0.1106  0.6811
  536Sol     MW 5172   3.108   1.644   9.028  0.7613 -0.1814  0.4043
  537Sol     OW 5173   0.174   0.799   6.495 -0.2822  0.2714 -0.2604
  537Sol     HW 5174   0.141   0.863   6.433  1.5652  1.4468 -0.0801
  537Sol     HW 5175   0.231   0.849   6.553  1.3660 -1.5459 -0.2430
  537Sol     MW 5176   0.176   0.809   6.495 -0.4686 -0.3628 -0.1075
  538Sol     OW 5177   1.284   0.649   4.432  0.0671 -0.0333 -0.1634
  538Sol     HW 5178   1.268   0.673   4.340  0.5458 -3.1980 -1.1419
  538Sol     HW 5179   1.331   0.724   4.468  0.8462  0.8355 -2.8276
  538Sol     MW 5180   1.287   0.658   4.427 -0.0651 -0.2454  0.4239
  539Sol     OW 5181   0.430   2.203   8.940  0.0137 -0.2377  0.1477
  539Sol     HW 5182   0.403   2.278   8.886 -0.3431 -0.5738 -0.1463
  539Sol     HW 5183   0.348   2.166   8.972  0.2141 -0.2228  0.6749
  539Sol     MW 5184   0.420   2.206   8.938  0.2046  0.3078 -0.0622
  540Sol     OW 5185   0.037   1.887   2.103 -0.3398 -0.4011 -0.3379
  540Sol     HW 5186  -0.057   1.895   2.119 -0.0583 -1.9550  2.3837
  540Sol     HW 5187   0.076   1.883   2.190  1.9496 -2.9473 -1.4035
  540Sol     MW 5188   0.032   1.888   2.112  0.2084  0.1023 -0.3077
  541Sol     OW 5189   0.079   2.412   9.506 -0.0057  0.3728  0.0001
  541Sol     HW 5190   0.112   2.323   9.490 -0.3249  0.3727 -0.6767
  541Sol     HW 5191   0.157   2.467   9.502  0.2077  0.1090  0.5160
  541Sol     MW 5192   0.089   2.409   9.504 -0.1035 -0.4159  0.1134
  542Sol     OW 5193   1.612   1.792   5.701  0.1528  0.5753 -0.2543
  542Sol     HW 5194   1.542   1.727   5.701  0.5307  0.1685 -0.0812
  542Sol     HW 5195   1.595   1.845   5.779  1.4405 -1.0490  1.1741
  542Sol     MW 5196   1.604   1.791   5.708  0.2637 -0.5195  0.1539
  543Sol     OW 5197   1.588   0.205   8.390 -0.0383 -0.2828  0.1506
  543Sol     HW 5198   1.666   0.155   8.364 -1.3314 -2.9626  1.1861
  543Sol     HW 5199   1.614   0.297   8.381  2.3411 -1.1034 -2.1543
  543Sol     MW 5200   1.598   0.209   8.387 -0.2449  0.5435  0.1954
  544Sol     OW 5201   1.154   2.486   7.950  0.2087 -0.2661 -0.2946
  544Sol     HW 5202   1.116   2.563   7.992 -0.0814 -0.9984  0.8020
  544Sol     HW 5203   1.245   2.510   7.931  0.6753 -0.3281  1.7958
  544Sol     MW 5204   1.159   2.495   7.952  0.5278  0.3982 -0.4980
  545Sol     OW 5205   2.467   0.144   3.633  0.2685 -0.1530 -0.3412
  545Sol     HW 5206   2.406   0.149   3.706 -1.7915 -5.4257 -1.4929
  545Sol     HW 5207   2.417   0.177   3.558  1.4477  2.5371 -0.0358
  545Sol     MW 5208   2.457   0.148   3.633  0.1229  0.1061  0.0701
  546Sol     OW 5209   2.873   3.379   6.575 -0.2183  0.1841  0.1670
  546Sol     HW 5210   2.869   3.312   6.643 -0.4556 -0.3258 -0.3453
  546Sol     HW 5211   2.794   3.432   6.588 -1.0904 -0.8789 -0.6925
  546Sol     MW 5212   2.865   3.378   6.582  0.6942  0.2624  0.3729
  547Sol     OW 5213   1.748   3.064   7.039 -0.1012 -0.1498 -0.3253
  547Sol     HW 5214   1.727   3.124   7.111  0.5851 -1.0488  0.6373
  547Sol     HW 5215   1.663   3.035   7.007 -0.4226  0.7415 -0.3002
  547Sol     MW 5216   1.738   3.067   7.043 -0.8323  0.0881  0.3421
  548Sol     OW 5217   1.218   1.595   7.241 -0.4446 -0.0106 -0.7869
  548Sol     HW 5218   1.165   1.669   7.211 -0.8042 -0.3748 -1.0534
  548Sol     HW 5219   1.232   1.611   7.334 -0.4248  0.4514 -0.8668
  548Sol     MW 5220   1.215   1.603   7.246 -0.0055 -0.6659 -0.0273
  549Sol     OW 5221   3.282   0.001   9.357  0.1338 -0.3924  0.1260
  549Sol     HW 5222   3.328   0.055   9.292  1.7964 -1.8121  0.0534
  549Sol     HW 5223   3.326  -0.085   9.351 -1.4154 -1.2899  1.3035
  549Sol     MW 5224   3.290  -0.002   9.351 -0.3858  0.2257 -0.3205
  550Sol     OW 5225   2.142   1.322   5.773 -0.2690 -0.5414 -0.2029
  550Sol     HW 5226   2.207   1.349   5.709 -1.1969 -0.5433 -1.1577
  550Sol     HW 5227   2.191   1.267   5.835  0.9568  0.7388 -0.0132
  550Sol     MW 5228   2.152   1.319   5.773  0.6619  0.1471  0.0115
  551Sol     OW 5229   0.127   0.434   7.015 -0.4042 -0.0729  0.3891
  551Sol     HW 5230   0.099   0.427   7.106  1.3080  1.5360  1.0747
  551Sol     HW 5231   0.206   0.381   7.009 -0.6683 -0.4127 -0.2562
  551Sol     MW 5232   0.132   0.429   7.022  0.7562  1.0291  0.4663
  552Sol     OW 5233   1.284   0.910   4.801 -0.3586 -0.2737 -0.3170
  552Sol     HW 5234   1.246   0.998   4.804  0.4984  0.2557 -3.0560
  552Sol     HW 5235   1.210   0.853   4.782 -0.6716  0.0769 -0.1574
  552Sol     MW 5236   1.274   0.913   4.799 -0.3426 -0.3001 -0.3734
  553Sol     OW 5237   0.191   0.126   8.740  0.1596  0.5660  0.2702
  553Sol     HW 5238   0.103   0.137   8.703  0.1619  2.6034  0.8009
  553Sol     HW 5239   0.247   0.179   8.684  0.8517  0.3098  0.7128
  553Sol     MW 5240   0.188   0.132   8.732  0.1609  0.2947  0.2444
  554Sol     OW 5241   2.883   2.360   2.636 -0.3781  0.2296 -0.1599
  554Sol     HW 5242   2.812   2.335   2.576 -0.4315 -0.3174  0.1278
  554Sol     HW 5243   2.867   2.452   2.655 -0.8535  0.1799 -0.3174
  554Sol     MW 5244   2.875   2.366   2.632  0.2787  0.4234 -0.2423
  555Sol     OW 5245   2.458   0.196   2.229 -0.1602  0.2205  0.3017
  555Sol     HW 5246   2.509   0.270   2.260 -0.7104  0.7284  0.0049
  555Sol     HW 5247   2.371   0.209   2.266 -0.9712  1.1147 -1.7920
  555Sol     MW 5248   2.455   0.204   2.235 -0.3819  0.5364 -0.6100
  556Sol     OW 5249   2.432   0.873   6.615 -0.5391  0.3229 -0.1480
  556Sol     HW 5250   2.485   0.797   6.589 -0.4469  0.0258  0.9104
  556Sol     HW 5251   2.404   0.911   6.532  0.9563  0.2137 -0.7269
  556Sol     MW 5252   2.434   0.869   6.605  0.2038  0.4279 -0.5864
  557Sol     OW 5253   0.519   3.286   1.470 -0.2754 -0.9237  0.0030
  557Sol     HW 5254   0.589   3.274   1.406 -2.0489  0.2833 -2.2434
  557Sol     HW 5255   0.540   3.369   1.513 -0.3654 -0.5106 -0.7403
  557Sol     MW 5256   0.527   3.293   1.468  0.4475  0.0806  0.0287
  558Sol     OW 5257   0.398   0.164   2.204  0.2459  0.0095 -0.5407
  558Sol     HW 5258   0.308   0.149   2.234 -0.1327  2.0795 -0.5610
  558Sol     HW 5259   0.448   0.176   2.284  0.6895 -2.0534 -0.4972
  558Sol     MW 5260   0.394   0.164   2.214 -0.0079 -0.2457  1.0172
  559Sol     OW 5261   1.192   0.059   3.210 -0.8735 -0.2923 -0.3291
  559Sol     HW 5262   1.113   0.005   3.207 -0.9289 -0.2733  0.6941
  559Sol     HW 5263   1.159   0.149   3.199 -1.0236 -0.2589  0.3936
  559Sol     MW 5264   1.182   0.062   3.209  0.0221  0.2501  0.0065
  560Sol     OW 5265   2.504   1.683   8.064 -0.3070  0.3070 -0.4520
  560Sol     HW 5266   2.483   1.642   8.148 -1.7782  1.5828 -0.1679
  560Sol     HW 5267   2.594   1.715   8.074 -0.1117 -0.4605  0.2655
  560Sol     MW 5268   2.510   1.682   8.072 -0.2333  0.2770  0.5174
  561Sol     OW 5269   3.251   2.280   7.860 -0.2038 -0.3743  0.1088
  561Sol     HW 5270   3.187   2.213   7.884  0.6126 -1.4243 -0.5650
  561Sol     HW 5271   3.333   2.231   7.849  0.5647  0.8523  0.3289
  561Sol     MW 5272   3.253   2.269   7.861 -0.8387 -0.7384  0.2162
  562Sol     OW 5273   1.017   2.783   8.496 -0.0733  0.5289 -0.2330
  562Sol     HW 5274   1.090   2.749   8.548  0.0667 -0.9154 -1.3309
  562Sol     HW 5275   1.027   2.740   8.411 -1.3091  1.5172 -0.8829
  562Sol     MW 5276   1.024   2.776   8.493 -0.2012 -0.7437  0.2736
  563Sol     OW 5277   2.023   2.907   5.751  0.7074  0.3296 -0.1058
  563Sol     HW 5278   1.945   2.872   5.794  0.2695  2.1177  0.6014
  563Sol     HW 5279   2.095   2.854   5.785 -0.0188 -0.3226  0.4340
  563Sol     MW 5280   2.022   2.899   5.758  0.2428 -0.5665 -0.3248
  564Sol     OW 5281   1.510   2.151   3.872 -0.8940 -0.1825 -0.3147
  564Sol     HW 5282   1.579   2.204   3.832 -0.4811  0.2817  0.9858
  564Sol     HW 5283   1.455   2.122   3.798  0.1319  0.2454 -1.2473
  564Sol     MW 5284   1.511   2.153   3.862  0.0030 -0.3095  0.2777
  565Sol     OW 5285   1.894   0.021   5.185 -0.2994  0.6288  0.0997
  565Sol     HW 5286   1.803  -0.008   5.179 -0.6960  1.4077  2.0325
  565Sol     HW 5287   1.941  -0.054   5.223 -0.0066 -0.0028 -1.4918
  565Sol     MW 5288   1.890   0.011   5.188  0.7670  0.7221 -0.2388
  566Sol     OW 5289   2.420   0.089   6.748 -0.0020  0.4295  0.7107
  566Sol     HW 5290   2.443   0.179   6.767  1.6958  0.0726  0.4245
  566Sol     HW 5291   2.327   0.083   6.770 -0.4933  2.6101 -0.6691
  566Sol     MW 5292   2.414   0.096   6.752 -0.0001  0.1369 -0.4400
  567Sol     OW 5293   2.022   1.183   2.822  0.4779 -0.6164  0.1095
  567Sol     HW 5294   2.062   1.201   2.736  1.2611 -2.0730  0.1608
  567Sol     HW 5295   2.078   1.117   2.861 -0.1520 -0.2993  1.5689
  567Sol     MW 5296   2.031   1.179   2.817 -0.6691 -0.1406 -0.5192
  568Sol     OW 5297   1.690   3.065   2.771 -0.3644 -0.1647 -0.1667
  568Sol     HW 5298   1.767   3.118   2.794 -0.6023 -0.7648  2.1515
  568Sol     HW 5299   1.727   2.986   2.732  0.2107 -0.3832  0.7952
  568Sol     MW 5300   1.700   3.063   2.769 -0.5655 -0.1737  0.0871
  569Sol     OW 5301   2.461   3.398   2.957 -0.1675  0.0232 -0.0454
  569Sol     HW 5302   2.512   3.337   2.904 -1.3084 -1.8756  0.9966
  569Sol     HW 5303   2.486   3.380   3.047 -0.0887  1.5156  0.2449
  569Sol     MW 5304   2.467   3.391   2.960 -0.0792  0.1078 -0.0047
  570Sol     OW 5305   2.849   3.318   1.812  0.0104  0.0712  0.5835
  570Sol     HW 5306   2.833   3.390   1.750 -1.2143  1.4432  2.4318
  570Sol     HW 5307   2.901   3.358   1.882  0.2364 -1.1184  1.1020
  570Sol     MW 5308   2.852   3.328   1.813 -0.0143  0.5119 -0.2145
  571Sol     OW 5309   2.670   3.031   7.493  0.1498 -0.2250 -0.1897
  571Sol     HW 5310   2.673   3.007   7.401 -0.2230  0.2985 -0.3407
  571Sol     HW 5311   2.706   2.955   7.539  2.4052  0.3607 -0.9131
  571Sol     MW 5312   2.673   3.023   7.489 -0.2398  0.3047 -0.1534
  572Sol     OW 5313   0.795   1.698   8.513 -0.4454  0.3366  0.0540
  572Sol     HW 5314   0.883   1.663   8.530 -0.1597  1.9349  1.9893
  572Sol     HW 5315   0.810   1.790   8.493 -1.8466  1.0048  2.0499
  572Sol     MW 5316   0.805   1.703   8.512  0.3004 -0.0094  0.3472
  573Sol     OW 5317   3.028   0.813   1.601 -0.4312 -0.1181  0.2069
  573Sol     HW 5318   3.001   0.896   1.641  1.4402 -0.0961  1.4939
  573Sol     HW 5319   3.021   0.829   1.507 -0.0623  1.5256  0.4366
  573Sol     MW 5320   3.025   0.822   1.596  0.3550 -0.1942 -0.2399
  574Sol     OW 5321   0.898   1.002   2.992 -0.3985  0.0244  0.1531
  574Sol     HW 5322   0.907   1.035   2.903  0.1346  0.1596  0.2522
  574Sol     HW 5323   0.848   1.069   3.038  0.7750  0.7640  0.3838
  574Sol     MW 5324   0.894   1.011   2.988  0.2494  0.3233 -0.5749
  575Sol     OW 5325   0.728   2.171   9.185 -0.2251  0.5736  0.0448
  575Sol     HW 5326   0.675   2.250   9.176  1.3619  1.7708  0.9202
  575Sol     HW 5327   0.678   2.114   9.243 -1.6240  0.7152 -1.0091
  575Sol     MW 5328   0.719   2.173   9.189  0.3908  0.5818 -0.1817
  576Sol     OW 5329   1.453   0.772   9.212  0.1366 -0.1251 -0.1040
  576Sol     HW 5330   1.397   0.699   9.187 -0.4705  0.5578 -0.7929
  576Sol     HW 5331   1.467   0.761   9.306  1.5904 -2.1534 -0.5404
  576Sol     MW 5332   1.449   0.765   9.219  0.4355 -0.1213  0.2722
  577Sol     OW 5333   3.109   0.640   9.274  0.1315  0.3630  0.1147
  577Sol     HW 5334   3.101   0.645   9.178 -1.2574  0.5534  0.2293
  577Sol     HW 5335   3.072   0.722   9.305  1.4898  0.7372  0.7915
  577Sol     MW 5336   3.105   0.648   9.268  0.0932  0.5797  0.0959
  578Sol     OW 5337   2.752   2.616   4.043 -0.0981  0.3892  0.1191
  578Sol     HW 5338   2.779   2.552   4.109  0.1343  0.4311  0.0654
  578Sol     HW 5339   2.794   2.698   4.070  0.4632  0.2715 -0.4008
  578Sol     MW 5340   2.758   2.618   4.051  0.1108 -0.9371 -0.0120
  579Sol     OW 5341   2.232   2.868   2.530 -0.1419 -0.4153  0.1468
  579Sol     HW 5342   2.140   2.849   2.513  0.1429 -1.9693  0.3533
  579Sol     HW 5343   2.250   2.947   2.478 -1.1786 -1.0000 -1.1143
  579Sol     MW 5344   2.226   2.874   2.523 -0.4133 -0.2274  0.5146
  580Sol     OW 5345   0.623   1.217   2.183 -0.6040  0.1550  0.6274
  580Sol     HW 5346   0.629   1.311   2.169  0.6434 -0.0976 -0.5919
  580Sol     HW 5347   0.639   1.206   2.277 -1.9529  1.2433  0.9995
  580Sol     MW 5348   0.625   1.224   2.190 -0.9258  0.1121  0.3726
  581Sol     OW 5349   0.081   0.507   2.732  0.0398  0.4473 -0.6470
  581Sol     HW 5350   0.070   0.598   2.707  1.8475  0.8535 -0.0854
  581Sol     HW 5351   0.075   0.507   2.828  1.5038  0.2398 -0.5315
  581Sol     MW 5352   0.080   0.515   2.739 -0.7147  0.8961  0.5165
  582Sol     OW 5353   1.054   2.873   5.698 -0.1709  0.2411 -0.9063
  582Sol     HW 5354   1.094   2.806   5.643 -1.5017 -1.1242 -0.2194
  582Sol     HW 5355   1.123   2.895   5.761  0.4424 -0.1024 -1.4431
  582Sol     MW 5356   1.064   2.869   5.699 -0.2221  0.3233 -0.1125
  583Sol     OW 5357   2.029   0.920   7.565 -0.2622 -0.5006 -0.1747
  583Sol     HW 5358   2.039   0.967   7.648  1.0524  1.4354 -1.3870
  583Sol     HW 5359   1.964   0.970   7.517 -1.3356 -1.8692 -0.1525
  583Sol     MW 5360   2.024   0.929   7.568 -0.1345 -0.3487 -0.1710
  584Sol     OW 5361   0.784   1.140   2.767  0.2288 -0.0397  0.0817
  584Sol     HW 5362   0.774   1.219   2.713  0.6126  0.3005  0.4984
  584Sol     HW 5363   0.842   1.084   2.716  0.9017  0.4428  0.3182
  584Sol     MW 5364   0.788   1.142   2.757 -0.4696 -0.4402 -0.1746
  585Sol     OW 5365   0.007   3.251   6.436  0.1042 -0.1133 -0.1543
  585Sol     HW 5366  -0.024   3.195   6.364 -1.5768  1.8083 -0.9772
  585Sol     HW 5367   0.091   3.285   6.406  0.1526 -0.5554 -0.5301
  585Sol     MW 5368   0.011   3.249   6.427  0.2439 -0.2920 -0.4040
  586Sol     OW 5369   1.629   1.358   2.783  0.1841 -0.2422  0.8543
  586Sol     HW 5370   1.689   1.387   2.852 -0.9230 -0.3201  1.8503
  586Sol     HW 5371   1.672   1.282   2.744  2.4804  1.8320 -0.8853
  586Sol     MW 5372   1.638   1.354   2.785  0.2524 -0.5742 -0.4479
  587Sol     OW 5373   1.444   3.257   4.960 -0.4442 -0.1014  0.0358
  587Sol     HW 5374   1.396   3.340   4.954 -0.4427 -0.1641 -1.1053
  587Sol     HW 5375   1.502   3.257   4.883 -0.2381 -1.0235  0.1794
  587Sol     MW 5376   1.445   3.264   4.952 -0.1254  0.4124 -0.3141
  588Sol     OW 5377   0.018   0.730   9.573  0.4268  0.1766 -0.5645
  588Sol     HW 5378   0.075   0.701   9.645  1.8037  0.3427 -1.5831
  588Sol     HW 5379  -0.046   0.659   9.564  1.1970 -0.5642 -0.2178
  588Sol     MW 5380   0.017   0.721   9.579 -0.3540  0.0054 -0.2524
  589Sol     OW 5381   2.766   1.981   7.049 -0.0169 -0.1514  0.3152
  589Sol     HW 5382   2.699   1.917   7.075 -0.1471 -0.5370 -0.9098
  589Sol     HW 5383   2.844   1.955   7.097  0.4206 -2.3340 -1.4948
  589Sol     MW 5384   2.767   1.973   7.055 -0.4856 -0.2955  0.3851
  590Sol     OW 5385   2.742   0.487   7.123 -0.1135  0.4784  0.1899
  590Sol     HW 5386   2.800   0.563   7.126  0.5072 -0.0028  0.4235
  590Sol     HW 5387   2.796   0.416   7.089 -0.5080 -0.0232  0.5954
  590Sol     MW 5388   2.752   0.488   7.120 -0.0430 -0.2105  0.0881
  591Sol     OW 5389   1.338   3.156   7.510 -0.8540  0.2292 -0.4525
  591Sol     HW 5390   1.278   3.123   7.576  0.7932  2.5464  2.3662
  591Sol     HW 5391   1.347   3.250   7.530  3.0116  0.1405 -1.2471
  591Sol     MW 5392   1.334   3.162   7.518  0.4435  0.0606  1.1095
  592Sol     OW 5393   2.991   1.941   6.200  0.8835 -0.6008  0.5638
  592Sol     HW 5394   3.052   1.907   6.134 -1.5298 -1.2686 -1.3721
  592Sol     HW 5395   3.003   1.882   6.275  3.3073 -0.1210  0.6186
  592Sol     MW 5396   2.998   1.933   6.201  0.6921  0.3540  0.3262
  593Sol     OW 5397   2.967   1.604   8.096 -0.1550 -0.5442 -0.2080
  593Sol     HW 5398   2.924   1.527   8.134  1.4361 -1.7300 -0.7876
  593Sol     HW 5399   3.061   1.588   8.109  0.1332  2.3586  1.7099
  593Sol     MW 5400   2.972   1.596   8.101  0.4554 -0.1165  0.1813
  594Sol     OW 5401   0.702   2.309   6.649 -0.5682 -0.0695  0.0245
  594Sol     HW 5402   0.795   2.311   6.673 -0.0317  0.4423 -1.9462
  594Sol     HW 5403   0.677   2.217   6.656  0.9602 -0.7189 -2.4315
  594Sol     MW 5404   0.708   2.301   6.652  0.1826  0.1156 -0.1815
  595Sol     OW 5405   0.356   1.777   1.791  0.1341 -0.1030 -0.5687
  595Sol     HW 5406   0.279   1.759   1.845  1.3043  0.0483  1.1982
  595Sol     HW 5407   0.344   1.722   1.714 -0.0432 -2.7863  1.2885
  595Sol     MW 5408   0.348   1.771   1.789  0.2952  0.4033  0.2898
  596Sol     OW 5409   3.301   1.180   5.222  0.2727  0.2139  0.5541
  596Sol     HW 5410   3.319   1.259   5.172  2.0453  0.1539  1.0644
  596Sol     HW 5411   3.336   1.197   5.309 -0.3375 -0.7118  0.9990
  596Sol     MW 5412   3.306   1.188   5.226 -0.0456 -0.7043  0.0177
  597Sol     OW 5413   3.303   3.011   3.928  0.3736  0.1311 -0.5234
  597Sol     HW 5414   3.343   3.098   3.915  0.7479  0.0893  0.3406
  597Sol     HW 5415   3.318   2.966   3.845  1.7941  0.2555 -0.3452
  597Sol     MW 5416   3.308   3.015   3.919 -0.2038  0.1804 -0.0336
  598Sol     OW 5417   0.367   0.612   6.436  0.1111  0.3502 -0.1362
  598Sol     HW 5418   0.300   0.680   6.432  0.9034  1.1254 -0.5371
  598Sol     HW 5419   0.374   0.589   6.529 -1.0051 -0.0454 -0.1481
  598Sol     MW 5420   0.362   0.616   6.444  0.2215 -0.0461 -0.2853
  599Sol     OW 5421   2.771   1.931   9.381  0.4716 -0.8203  0.0578
  599Sol     HW 5422   2.782   1.924   9.476 -1.9440  0.4825  0.4626
  599Sol     HW 5423   2.753   2.023   9.365 -3.9667 -1.7837 -1.0945
  599Sol     MW 5424   2.770   1.938   9.388 -0.0117  0.4227  0.7474
  600Sol     OW 5425   2.197   3.079   8.216  0.0058  0.1835 -0.1279
  600Sol     HW 5426   2.110   3.117   8.232  0.8616  1.5921  1.3667
  600Sol     HW 5427   2.231   3.128   8.141 -0.2980 -0.0700 -0.4357
  600Sol     MW 5428   2.192   3.087   8.211 -0.0026  0.1236  0.4754
  601Sol     OW 5429   2.850   0.203   6.206  0.0429  0.3273  0.2718
  601Sol     HW 5430   2.759   0.203   6.235  0.4912  1.0618  1.7408
  601Sol     HW 5431   2.886   0.121   6.238  0.3094  0.7482  1.0598
  601Sol     MW 5432   2.845   0.196   6.211 -0.0548  0.4793  0.6085
  602Sol     OW 5433   1.241   0.343   9.529 -0.2583  0.2057 -0.1257
  602Sol     HW 5434   1.321   0.348   9.581  0.2199 -0.8763 -0.7612
  602Sol     HW 5435   1.170   0.350   9.593  0.3234  2.5514  0.3136
  602Sol     MW 5436   1.242   0.344   9.539  0.1132  0.2405 -0.0567
  603Sol     OW 5437   1.475   1.403   3.346 -0.2041 -0.1536 -0.3596
  603Sol     HW 5438   1.443   1.493   3.350 -0.1270 -0.1016 -0.9046
  603Sol     HW 5439   1.568   1.409   3.364 -0.0670 -0.0448 -1.1023
  603Sol     MW 5440   1.480   1.411   3.348 -0.0637  0.2290 -0.4384
  604Sol     OW 5441   1.413   3.333   6.002  0.1277 -0.4994 -0.4969
  604Sol     HW 5442   1.463   3.330   5.921  0.7628  0.0591 -0.1232
  604Sol     HW 5443   1.372   3.420   6.002 -0.4386 -0.7647 -0.5593
  604Sol     MW 5444   1.414   3.340   5.995 -0.9541  0.1848 -0.0126
  605Sol     OW 5445   1.479   1.772   3.724 -0.3102  0.2269  0.0402
  605Sol     HW 5446   1.417   1.812   3.785  1.5600  0.6877  1.6797
  605Sol     HW 5447   1.561   1.766   3.773  0.3644 -2.4727 -1.3221
  605Sol     MW 5448   1.480   1.775   3.734 -0.5217 -0.0761 -0.8876
  606Sol     OW 5449   2.454   2.710   3.034  0.0755  0.2863 -0.4686
  606Sol     HW 5450   2.434   2.799   3.064 -0.6962  0.5078 -1.6036
  606Sol     HW 5451   2.487   2.666   3.112 -1.8005  0.8669  0.6978
  606Sol     MW 5452   2.455   2.714   3.044 -0.1495  0.3419  0.0950
  607Sol     OW 5453   0.087   2.842   9.152  0.0582  0.0864  0.1390
  607Sol     HW 5454   0.168   2.811   9.193  0.1273  0.0320 -0.0381
  607Sol     HW 5455   0.113   2.868   9.064  0.2745  1.9867  0.7443
  607Sol     MW 5456   0.097   2.842   9.148 -0.1799  0.6981 -0.1128
  608Sol     OW 5457   0.758   2.116   9.603 -0.2109  0.1357  0.5297
  608Sol     HW 5458   0.853   2.117   9.601 -0.2173 -0.2224  0.0886
  608Sol     HW 5459   0.735   2.161   9.685  0.3732 -1.6927  1.7303
  608Sol     MW 5460   0.764   2.120   9.610  0.6269 -0.0127  0.1238
  609Sol     OW 5461   3.193   2.211   6.355  0.3700  0.3674  0.2428
  609Sol     HW 5462   3.207   2.149   6.283 -3.9266  0.9830 -1.2899
  609Sol     HW 5463   3.176   2.155   6.431 -0.1858 -0.3343 -0.3903
  609Sol     MW 5464   3.193   2.200   6.355 -0.4253 -0.5814  0.0579
  610Sol     OW 5465   1.647   2.506   4.729  0.1481 -0.3440 -0.1904
  610Sol     HW 5466   1.618   2.571   4.665 -0.5617 -1.1967 -0.7524
  610Sol     HW 5467   1.696   2.556   4.794 -0.2132  0.7156 -0.7234
  610Sol     MW 5468   1.649   2.516   4.729  0.1490 -0.5619  0.2428
  611Sol     OW 5469   1.112   0.748   2.000 -0.3103 -0.2234 -0.7929
  611Sol     HW 5470   1.106   0.833   1.956  2.5075 -1.3253 -3.5072
  611Sol     HW 5471   1.181   0.760   2.065 -1.6376  0.2323  0.5590
  611Sol     MW 5472   1.118   0.757   2.002 -0.2169  0.4277  0.2649
  612Sol     OW 5473   2.519   1.422   3.539 -0.0894  0.6902  0.5654
  612Sol     HW 5474   2.473   1.493   3.584  0.0418  0.4972  0.9993
  612Sol     HW 5475   2.587   1.466   3.488  1.6527  0.6721  2.8378
  612Sol     MW 5476   2.521   1.432   3.538  0.1287  0.0382  0.3721
  613Sol     OW 5477   0.168   0.665   6.859 -0.0734 -0.3311 -0.3737
  613Sol     HW 5478   0.139   0.595   6.917  0.8806 -0.9261 -0.5986
  613Sol     HW 5479   0.233   0.623   6.802  0.5188  0.7337 -0.4970
  613Sol     MW 5480   0.171   0.655   6.859 -0.0302  0.4379 -0.2081
  614Sol     OW 5481   1.772   0.915   8.964 -0.3818 -0.2089 -0.7797
  614Sol     HW 5482   1.814   0.966   8.895  1.4254 -0.1040  0.3528
  614Sol     HW 5483   1.844   0.891   9.022 -1.7766 -0.8602  0.7067
  614Sol     MW 5484   1.783   0.917   8.963  0.6026  0.0463 -0.0981
  615Sol     OW 5485   3.172   3.191   8.658 -0.2212 -0.5105  0.6210
  615Sol     HW 5486   3.165   3.200   8.753 -2.5890 -1.5240  0.5707
  615Sol     HW 5487   3.192   3.098   8.645 -0.5641 -0.5089  0.0980
  615Sol     MW 5488   3.173   3.183   8.665 -0.2280 -0.3027  0.0566
  616Sol     OW 5489   2.166   2.859   4.749 -0.0190  0.1110  0.2093
  616Sol     HW 5490   2.095   2.915   4.780 -0.1161  0.3767 -0.4796
  616Sol     HW 5491   2.154   2.776   4.796 -0.8035  0.1395  0.0612
  616Sol     MW 5492   2.159   2.857   4.756  0.4541 -0.0289  0.8841
  617Sol     OW 5493   1.097   1.991   1.699 -0.1018  0.4157  0.3458
  617Sol     HW 5494   1.032   1.935   1.657  0.7387 -0.5961  0.3791
  617Sol     HW 5495   1.161   1.930   1.736 -0.0145  1.3425  1.7687
  617Sol     MW 5496   1.097   1.980   1.699 -0.3799  0.2662 -0.1917
  618Sol     OW 5497   0.965   2.180   3.933  0.6454 -0.1681 -0.1229
  618Sol     HW 5498   0.998   2.096   3.901  0.7893  0.7562 -2.4702
  618Sol     HW 5499   0.870   2.169   3.933  0.6935 -0.5854  0.2834
  618Sol     MW 5500   0.959   2.172   3.930  0.8872 -0.3434  0.2146
  619Sol     OW 5501   0.843   0.388   8.320  0.3840  0.1115  0.2710
  619Sol     HW 5502   0.901   0.312   8.307  0.4357  0.1122  0.4940
  619Sol     HW 5503   0.863   0.418   8.408  2.4699  2.1834 -0.8429
  619Sol     MW 5504   0.850   0.384   8.326  0.3959 -0.7117 -0.4028
  620Sol     OW 5505   2.290   2.014   2.515  0.2029 -0.2626 -0.3724
  620Sol     HW 5506   2.297   2.109   2.511 -2.4066 -0.0867 -1.9092
  620Sol     HW 5507   2.305   1.985   2.425 -0.8698 -1.1356 -0.2859
  620Sol     MW 5508   2.292   2.020   2.506 -0.0951 -0.2153  0.3858
  621Sol     OW 5509   2.221   0.698   4.931 -0.0944  0.3070  0.3537
  621Sol     HW 5510   2.275   0.648   4.992  0.3296 -1.1015 -1.1405
  621Sol     HW 5511   2.140   0.647   4.922 -0.2675  0.6401 -0.0531
  621Sol     MW 5512   2.218   0.689   4.935 -0.0597 -0.3357 -0.4834
  622Sol     OW 5513   0.627   1.700   4.643  0.0918  0.0723  0.3079
  622Sol     HW 5514   0.618   1.769   4.577 -1.1253 -0.5770 -0.2163
  622Sol     HW 5515   0.694   1.733   4.703 -1.1518  2.1223  0.6077
  622Sol     MW 5516   0.633   1.709   4.642  0.0439 -0.5566 -0.2975
  623Sol     OW 5517   1.927   2.333   9.235 -0.3541 -0.1268  0.1813
  623Sol     HW 5518   1.849   2.291   9.270 -0.9872 -0.0079 -1.0454
  623Sol     HW 5519   1.948   2.283   9.156  0.3725  0.3106  0.0877
  623Sol     MW 5520   1.922   2.324   9.231 -0.1693 -0.0665  0.7334
  624Sol     OW 5521   2.943   1.055   5.986 -0.3457  0.4787 -0.3248
  624Sol     HW 5522   2.855   1.022   6.001 -0.3532  0.5512 -0.2043
  624Sol     HW 5523   2.981   1.063   6.074 -0.7818  1.9851 -0.2465
  624Sol     MW 5524   2.939   1.053   5.996  0.0121  0.4146  0.0705
  625Sol     OW 5525   1.926   1.872   2.020 -0.0699 -0.0471 -0.1315
  625Sol     HW 5526   1.971   1.950   2.050 -1.1137  1.0157 -1.2891
  625Sol     HW 5527   1.935   1.873   1.925 -0.1452 -1.2997 -0.1652
  625Sol     MW 5528   1.931   1.879   2.014 -0.3123 -0.4823 -0.1234
  626Sol     OW 5529   3.220   0.827   7.540  0.4792 -0.7983  0.2178
  626Sol     HW 5530   3.315   0.818   7.548  0.7669  1.7116  0.1027
  626Sol     HW 5531   3.203   0.814   7.447  0.8642 -0.1565  0.0497
  626Sol     MW 5532   3.227   0.825   7.532 -0.4078  0.5427 -0.1912
  627Sol     OW 5533   2.025   0.348   3.635 -0.3732  0.4819 -0.2601
  627Sol     HW 5534   2.096   0.400   3.597  0.3248 -0.5670 -0.4037
  627Sol     HW 5535   1.949   0.367   3.579  0.4089 -0.2940 -1.6011
  627Sol     MW 5536   2.024   0.354   3.626 -0.2105  0.3853  0.1171
  628Sol     OW 5537   2.061   1.983   4.655 -0.3115 -0.0385  0.0193
  628Sol     HW 5538   2.073   2.039   4.578  1.5293 -0.9018 -0.3593
  628Sol     HW 5539   1.967   1.965   4.658 -0.6063  1.2425 -1.1340
  628Sol     MW 5540   2.054   1.986   4.649 -0.0876  0.6207 -0.3362
  629Sol     OW 5541   0.675   0.034   4.017 -0.0293  0.3462  0.0117
  629Sol     HW 5542   0.609   0.088   4.061  0.4219 -0.2348  1.4202
  629Sol     HW 5543   0.759   0.075   4.041  0.1727  0.5880 -1.0879
  629Sol     MW 5544   0.677   0.043   4.023 -0.4058 -0.3069  0.3566
  630Sol     OW 5545   1.538   0.216   7.837  0.2117  0.4205 -0.2599
  630Sol     HW 5546   1.553   0.289   7.897  0.6133  0.3276 -0.2430
  630Sol     HW 5547   1.518   0.141   7.894 -1.2817  0.7650 -0.3225
  630Sol     MW 5548   1.538   0.216   7.847 -0.3652  0.0853  0.5785
  631Sol     OW 5549   0.157   2.210   5.585 -0.1525  0.1795  0.6765
  631Sol     HW 5550   0.146   2.120   5.616  1.1840 -0.9083 -1.8492
  631Sol     HW 5551   0.069   2.236   5.556 -0.6245 -0.1398  1.8008
  631Sol     MW 5552   0.148   2.205   5.585 -0.3631 -0.1076  0.9658
  632Sol     OW 5553   0.258   2.103   8.217 -0.2184  0.5580 -0.8262
  632Sol     HW 5554   0.219   2.037   8.274 -1.4360  0.4333 -1.7585
  632Sol     HW 5555   0.201   2.180   8.227 -0.7741  0.3591 -2.2370
  632Sol     MW 5556   0.249   2.104   8.223  0.0341 -0.1242 -0.0016
  633Sol     OW 5557   2.104   0.585   6.631  0.1494  0.9061 -0.5626
  633Sol     HW 5558   2.063   0.670   6.643 -1.1239  0.4399 -1.5867
  633Sol     HW 5559   2.158   0.594   6.552 -1.9399  0.0605 -2.1360
  633Sol     MW 5560   2.105   0.593   6.625  0.1466 -0.9759  0.2461
  634Sol     OW 5561   0.145   2.417   2.242  0.2043  0.2543 -0.0810
  634Sol     HW 5562   0.153   2.337   2.188  0.4472  1.1384 -1.3899
  634Sol     HW 5563   0.064   2.457   2.213  0.2602  0.6555  0.3268
  634Sol     MW 5564   0.139   2.413   2.234 -0.1678  0.0906  0.4223
  635Sol     OW 5565   3.227   2.599   9.381 -0.0904 -0.1114  0.1205
  635Sol     HW 5566   3.242   2.663   9.451 -0.6343 -1.1328  1.2015
  635Sol     HW 5567   3.306   2.545   9.382 -0.1002 -0.1267 -0.0439
  635Sol     MW 5568   3.236   2.600   9.388 -0.0255 -0.5375 -0.6306
  636Sol     OW 5569   1.401   1.625   5.337 -0.2909  0.0288 -0.4820
  636Sol     HW 5570   1.433   1.549   5.287  1.0892  0.8166 -0.8106
  636Sol     HW 5571   1.479   1.664   5.374 -1.1186  0.6528  0.6319
  636Sol     MW 5572   1.411   1.621   5.335  0.3362  0.2854  0.6076
  637Sol     OW 5573   0.592   1.935   4.523  0.4100 -0.5108 -0.0204
  637Sol     HW 5574   0.524   2.000   4.506  0.7631  0.3295  1.6208
  637Sol     HW 5575   0.667   1.964   4.471 -0.1105 -0.7907 -0.9300
  637Sol     MW 5576   0.592   1.944   4.517  0.6480 -0.2210 -0.1755
  638Sol     OW 5577   1.175   1.245   2.326  0.2269  0.2585  0.9484
  638Sol     HW 5578   1.091   1.204   2.304  0.1366  1.3870 -0.8666
  638Sol     HW 5579   1.238   1.172   2.323 -0.3255 -0.1965  0.1219
  638Sol     MW 5580   1.173   1.234   2.324  1.0263  0.5554 -0.5188
  639Sol     OW 5581   0.724   1.833   3.850 -0.2980 -0.0972  0.3721
  639Sol     HW 5582   0.814   1.802   3.846  0.1054  0.8839  1.2706
  639Sol     HW 5583   0.675   1.762   3.891  0.2873 -0.1854  0.9164
  639Sol     MW 5584   0.728   1.824   3.853  0.2285  0.7701  0.0568
  640Sol     OW 5585   3.068   2.967   6.154 -0.0651 -0.3068 -0.8868
  640Sol     HW 5586   3.011   3.031   6.111  1.5138  1.5057 -0.3581
  640Sol     HW 5587   3.020   2.942   6.233 -0.3494  0.8481 -0.6780
  640Sol     MW 5588   3.059   2.970   6.157 -0.0956  0.0534  0.8437
  641Sol     OW 5589   1.930   1.040   8.790 -0.2401  0.6786 -0.0548
  641Sol     HW 5590   1.927   1.038   8.695  2.7506  2.0116 -0.2269
  641Sol     HW 5591   2.006   0.986   8.813 -0.1877  1.3857  1.4948
  641Sol     MW 5592   1.937   1.035   8.784  0.1855  0.0455 -0.1533
  642Sol     OW 5593   1.401   2.291   8.804 -0.1084  0.0609  0.3644
  642Sol     HW 5594   1.398   2.198   8.782  1.6475 -0.2472  1.2721
  642Sol     HW 5595   1.337   2.301   8.875  2.0471 -1.1718  2.5619
  642Sol     MW 5596   1.395   2.283   8.809 -0.5864  0.0919  0.2523
  643Sol     OW 5597   2.572   0.030   1.578 -0.1508 -0.1487  0.0667
  643Sol     HW 5598   2.520  -0.041   1.615  1.1343 -0.2111  1.7937
  643Sol     HW 5599   2.527   0.052   1.496 -1.8513 -1.4114  0.6263
  643Sol     MW 5600   2.563   0.026   1.574 -0.3827 -0.4080  0.9978
  644Sol     OW 5601   0.680   0.842   2.950  0.2470  0.7551  0.0913
  644Sol     HW 5602   0.652   0.784   3.021  1.5201 -0.6662 -0.5377
  644Sol     HW 5603   0.767   0.873   2.977  1.1673 -0.5768 -1.2797
  644Sol     MW 5604   0.686   0.840   2.959  0.0904 -0.3278 -0.1534
  645Sol     OW 5605   2.801   0.480   9.334 -0.2057  0.6116  0.3286
  645Sol     HW 5606   2.855   0.509   9.260 -0.1944 -0.7717 -0.2214
  645Sol     HW 5607   2.718   0.453   9.294 -0.5394  0.7452  0.9273
  645Sol     MW 5608   2.799   0.480   9.324 -0.0591 -0.0979 -0.6587
  646Sol     OW 5609   0.541   3.384   4.330  0.1370 -0.4551 -0.1220
  646Sol     HW 5610   0.539   3.473   4.296  0.8512 -0.8053 -1.0847
  646Sol     HW 5611   0.449   3.358   4.335  0.0492 -0.7004 -2.5980
  646Sol     MW 5612   0.532   3.390   4.328 -0.2548 -0.3558 -0.7292
  647Sol     OW 5613   3.043   1.911   3.053  0.8138  0.1425 -0.2976
  647Sol     HW 5614   3.011   1.990   3.096  2.6856  0.8789 -0.2150
  647Sol     HW 5615   3.055   1.847   3.123  0.1876  0.0879 -0.2420
  647Sol     MW 5616   3.041   1.912   3.063  0.7491  0.1811 -0.1872
  648Sol     OW 5617   1.336   1.300   5.894 -0.1220  0.2271 -0.2461
  648Sol     HW 5618   1.260   1.358   5.899 -1.3091 -1.3512  0.7708
  648Sol     HW 5619   1.323   1.250   5.813  0.7430  1.1572 -0.9684
  648Sol     MW 5620   1.328   1.301   5.887 -0.4545 -0.2619 -0.4450
  649Sol     OW 5621   1.648   3.005   8.712 -0.1236  0.6739 -0.9704
  649Sol     HW 5622   1.570   2.998   8.768  1.7574 -0.4985  1.6252
  649Sol     HW 5623   1.668   2.915   8.689  1.6111  0.7756  0.0739
  649Sol     MW 5624   1.643   2.997   8.715  0.0499 -0.1614  0.4164
  650Sol     OW 5625   2.873   2.770   4.338 -0.3867 -0.4155 -0.2038
  650Sol     HW 5626   2.804   2.716   4.378 -1.5252 -0.7661 -2.5435
  650Sol     HW 5627   2.828   2.851   4.313 -0.4457 -1.3452 -3.3800
  650Sol     MW 5628   2.862   2.772   4.339 -0.1352 -0.0273  0.0385
  651Sol     OW 5629   2.719   0.610   4.503 -0.3151  0.5300  0.2706
  651Sol     HW 5630   2.729   0.547   4.432 -0.4971  1.2432 -0.4034
  651Sol     HW 5631   2.685   0.559   4.576 -0.3472 -0.1725 -0.2298
  651Sol     MW 5632   2.717   0.600   4.503 -0.1210 -0.3266 -0.3923
  652Sol     OW 5633   2.116   1.363   6.518 -0.4111  0.0635 -0.0422
  652Sol     HW 5634   2.125   1.308   6.596  0.9713  0.4966  0.1246
  652Sol     HW 5635   2.060   1.435   6.546 -0.8276 -0.3608  0.2283
  652Sol     MW 5636   2.112   1.365   6.528  0.5757  0.3356 -0.0086
  653Sol     OW 5637   2.131   0.909   1.942 -0.3103 -0.1899  0.4821
  653Sol     HW 5638   2.209   0.902   1.997 -0.2628  0.2027  0.4630
  653Sol     HW 5639   2.082   0.983   1.979  0.5883  1.2026 -1.0879
  653Sol     MW 5640   2.134   0.915   1.951 -0.4728 -1.0109 -0.0607
  654Sol     OW 5641   1.357   0.985   9.080 -0.0942  0.1018  0.0525
  654Sol     HW 5642   1.412   1.061   9.098 -1.4283  0.8642  1.0632
  654Sol     HW 5643   1.400   0.912   9.125  1.2554  0.2263 -1.0213
  654Sol     MW 5644   1.365   0.985   9.086 -0.2530  0.1828  0.1284
  655Sol     OW 5645   1.060   0.615   6.244 -0.4479  0.0103  0.8623
  655Sol     HW 5646   1.003   0.604   6.168 -1.0841  3.5877  0.7213
  655Sol     HW 5647   1.005   0.590   6.319 -1.2801  0.6411  0.4773
  655Sol     MW 5648   1.050   0.612   6.244 -0.6516  0.5552 -0.1451
  656Sol     OW 5649   2.026   0.438   2.620 -0.1741 -0.6814  0.4748
  656Sol     HW 5650   2.047   0.448   2.713  0.1036  0.7385  0.2706
  656Sol     HW 5651   2.072   0.510   2.577 -1.5645 -0.4066 -0.5734
  656Sol     MW 5652   2.032   0.445   2.625  0.0764  0.0428 -0.2352
  657Sol     OW 5653   1.137   1.460   3.686  0.2543 -0.0602 -0.3038
  657Sol     HW 5654   1.132   1.366   3.701  0.0345  0.2022  1.3972
  657Sol     HW 5655   1.230   1.477   3.670  0.4018 -0.4609  0.1244
  657Sol     MW 5656   1.145   1.453   3.686  0.5207 -0.5586 -0.2919
  658Sol     OW 5657   2.347   0.635   2.323 -0.4894  0.2780 -0.2004
  658Sol     HW 5658   2.267   0.636   2.377 -0.3697 -0.4421 -0.0079
  658Sol     HW 5659   2.416   0.663   2.383 -0.0747 -2.1282  0.4828
  658Sol     MW 5660   2.346   0.637   2.334 -0.1813  0.8422  0.1282
  659Sol     OW 5661   2.908   2.436   2.277  0.0967  0.2964  0.6449
  659Sol     HW 5662   2.963   2.389   2.339 -0.2939 -0.0311  0.7431
  659Sol     HW 5663   2.931   2.399   2.192 -0.0848  0.0478  0.7029
  659Sol     MW 5664   2.915   2.429   2.275  0.1328 -0.2076  0.0841
  660Sol     OW 5665   0.456   2.213   8.562 -0.1938 -0.4868  0.0607
  660Sol     HW 5666   0.504   2.130   8.560  1.6173  0.5441 -1.7730
  660Sol     HW 5667   0.462   2.246   8.473 -1.0260  1.5592  0.7307
  660Sol     MW 5668   0.461   2.209   8.554 -0.0696 -0.1400  0.2234
  661Sol     OW 5669   2.074   1.523   4.632 -0.6091  0.6875 -0.7297
  661Sol     HW 5670   2.007   1.581   4.668 -2.4319 -2.0320  0.4141
  661Sol     HW 5671   2.141   1.518   4.700 -0.2304  1.7930 -1.0199
  661Sol     MW 5672   2.074   1.527   4.641  0.1172  0.1943 -0.0170
  662Sol     OW 5673   1.101   0.240   3.810 -0.3063 -0.1603 -0.3801
  662Sol     HW 5674   1.089   0.163   3.865 -0.1804  0.0286 -0.0851
  662Sol     HW 5675   1.050   0.309   3.853  0.4432  0.1972 -0.0531
  662Sol     MW 5676   1.095   0.239   3.819 -0.5429 -0.2415  0.0061
  663Sol     OW 5677   0.887   2.400   7.033 -0.1042  0.2618  0.0239
  663Sol     HW 5678   0.807   2.418   6.983 -1.5719 -0.9641  1.8806
  663Sol     HW 5679   0.928   2.327   6.987  0.4253  1.4537 -1.4398
  663Sol     MW 5680   0.884   2.395   7.024 -0.3695  0.1115 -0.9426
  664Sol     OW 5681   2.496   2.825   1.607 -0.2206  0.2506  0.0444
  664Sol     HW 5682   2.578   2.791   1.641  0.1056  0.9540 -0.0243
  664Sol     HW 5683   2.522   2.895   1.546 -0.7846 -0.8317 -1.4838
  664Sol     MW 5684   2.505   2.828   1.604  0.2606 -0.5068 -0.1164
  665Sol     OW 5685   0.646   1.030   4.413 -0.0891  0.3336 -0.4883
  665Sol     HW 5686   0.603   0.963   4.359  0.2005  0.4384 -0.8536
  665Sol     HW 5687   0.578   1.095   4.430 -0.3132  0.0539 -0.3191
  665Sol     MW 5688   0.636   1.030   4.409  0.1095  0.3983  0.8435
  666Sol     OW 5689   2.323   3.197   3.771  0.3849 -0.2779  0.2383
  666Sol     HW 5690   2.414   3.221   3.753 -0.2186  2.4500  0.5851
  666Sol     HW 5691   2.282   3.194   3.685  0.4304  0.1685  0.1970
  666Sol     MW 5692   2.328   3.199   3.762  0.2763  0.6665 -0.0502
  667Sol     OW 5693   2.780   3.441   5.117  0.3142 -0.0960  0.4252
  667Sol     HW 5694   2.817   3.521   5.154 -1.7835  0.5577  1.1630
  667Sol     HW 5695   2.747   3.392   5.192 -1.1866 -0.2062 -0.2821
  667Sol     MW 5696   2.781   3.443   5.127  0.0008 -0.0165 -0.2327
  668Sol     OW 5697   0.609   1.435   6.736  0.2939 -0.2062  0.0069
  668Sol     HW 5698   0.683   1.381   6.710  0.1664 -0.4277  0.1063
  668Sol     HW 5699   0.629   1.459   6.827  1.5956  1.9887 -0.8159
  668Sol     MW 5700   0.618   1.433   6.742 -0.1984 -0.3545 -0.0053
  669Sol     OW 5701   0.905   1.841   2.228 -0.1914 -0.6594 -0.0250
  669Sol     HW 5702   0.842   1.902   2.266  0.0301 -0.2010 -0.3846
  669Sol     HW 5703   0.878   1.834   2.136  2.1626  2.0060 -0.9833
  669Sol     MW 5704   0.897   1.846   2.223 -0.0839 -0.1762 -0.2623
  670Sol     OW 5705   2.123   0.919   9.567 -0.2033  0.0764 -0.6181
  670Sol     HW 5706   2.061   0.850   9.544 -1.0420  0.6176  0.0020
  670Sol     HW 5707   2.196   0.872   9.608  0.5680 -0.7252 -2.8550
  670Sol     MW 5708   2.124   0.909   9.569 -0.3550 -0.0642 -0.4835
  671Sol     OW 5709   2.052   3.357   9.061  0.6814 -0.1087 -0.1292
  671Sol     HW 5710   1.979   3.369   9.122 -0.0489  1.7991 -1.3148
  671Sol     HW 5711   2.127   3.338   9.117 -0.7244 -2.1965  1.1048
  671Sol     MW 5712   2.052   3.357   9.072  0.3402  0.8114 -0.5959
  672Sol     OW 5713   2.411   0.106   7.191  0.3498 -0.3513 -0.2719
  672Sol     HW 5714   2.373   0.188   7.161 -0.4471 -1.1243 -1.4366
  672Sol     HW 5715   2.427   0.119   7.284 -1.0371  0.6516 -0.1651
  672Sol     MW 5716   2.409   0.114   7.197  0.0561 -0.3611 -0.0200
  673Sol     OW 5717   0.116   0.416   6.602 -0.6265 -0.2779 -0.0012
  673Sol     HW 5718   0.081   0.381   6.520 -0.5135 -0.8980  0.2080
  673Sol     HW 5719   0.064   0.494   6.620 -0.0858  0.3298 -1.1015
  673Sol     MW 5720   0.108   0.420   6.597 -0.0145  0.3101 -0.3483
  674Sol     OW 5721   0.737   2.345   5.512  0.4315  0.2477  0.1245
  674Sol     HW 5722   0.786   2.428   5.508  0.0332  0.5591  1.6304
  674Sol     HW 5723   0.759   2.301   5.430  1.6359  1.2893 -0.1268
  674Sol     MW 5724   0.743   2.349   5.504 -0.2340 -0.1172  0.1399
  675Sol     OW 5725   0.963   2.803   9.342 -0.3835 -0.1111 -0.2300
  675Sol     HW 5726   1.050   2.835   9.316 -0.5088  0.3978 -0.0141
  675Sol     HW 5727   0.913   2.882   9.361 -0.3892 -0.4727  1.2570
  675Sol     MW 5728   0.967   2.813   9.341 -0.0405  0.2258 -0.1360
  676Sol     OW 5729   0.137   3.443   8.200 -0.0424 -0.1210  0.5090
  676Sol     HW 5730   0.146   3.355   8.237  0.8504  0.0276  0.6430
  676Sol     HW 5731   0.224   3.464   8.166 -0.3717  0.5223  0.0540
  676Sol     MW 5732   0.145   3.437   8.200  0.6018  0.6081  0.1279
  677Sol     OW 5733   0.294   0.358   3.435 -0.1066  0.7681  0.5751
  677Sol     HW 5734   0.303   0.281   3.491  3.7265  0.2573 -0.5566
  677Sol     HW 5735   0.266   0.428   3.493 -2.0321 -1.0945  1.9441
  677Sol     MW 5736   0.293   0.357   3.445 -0.3005  0.0734  0.4079
  678Sol     OW 5737   0.079   1.686   2.529 -0.2701 -0.0545 -0.3522
  678Sol     HW 5738   0.044   1.597   2.525  0.1916 -0.2175 -0.8550
  678Sol     HW 5739   0.087   1.704   2.623  0.5230 -0.9088 -0.2516
  678Sol     MW 5740   0.077   1.680   2.537  0.4688  0.0868 -0.2990
  679Sol     OW 5741   3.291   3.285   3.155  0.7381  0.3344  0.1726
  679Sol     HW 5742   3.261   3.305   3.244  1.2340  0.1489  0.3847
  679Sol     HW 5743   3.361   3.349   3.139 -1.2800  2.2679 -1.1810
  679Sol     MW 5744   3.295   3.293   3.162  0.0914 -0.0624  0.3630
  680Sol     OW 5745   2.206   2.548   7.779  0.1369  0.0690 -0.0214
  680Sol     HW 5746   2.208   2.492   7.856 -1.9642 -0.0403 -0.0102
  680Sol     HW 5747   2.199   2.637   7.814  2.0598  0.2689 -0.0680
  680Sol     MW 5748   2.206   2.551   7.789 -0.3844 -0.2870  0.5926
  681Sol     OW 5749   3.249   0.506   7.735  0.0957 -0.4821  0.6095
  681Sol     HW 5750   3.226   0.577   7.795  2.3820  0.1809  0.7559
  681Sol     HW 5751   3.309   0.546   7.673 -0.3181 -1.7739 -0.6507
  681Sol     MW 5752   3.252   0.516   7.735  0.0101 -0.4738 -0.2434
  682Sol     OW 5753   2.267   1.731   3.156 -0.1883  0.1053  0.5647
  682Sol     HW 5754   2.217   1.650   3.165  0.6088 -0.2555  1.9475
  682Sol     HW 5755   2.226   1.777   3.083 -3.0053  0.1762  2.1404
  682Sol     MW 5756   2.259   1.728   3.150 -0.5344 -0.4833  0.3045
  683Sol     OW 5757   0.793   1.173   6.706  0.5436  0.0499  0.4528
  683Sol     HW 5758   0.865   1.236   6.709  0.3201  0.4466 -1.3132
  683Sol     HW 5759   0.830   1.095   6.665 -0.1054  0.4060 -0.8549
  683Sol     MW 5760   0.803   1.172   6.702 -0.1547 -0.8351 -0.3824
  684Sol     OW 5761   2.896   0.506   5.579 -0.0076 -0.2201 -0.0598
  684Sol     HW 5762   2.859   0.580   5.530 -1.8958 -0.6996  0.6354
  684Sol     HW 5763   2.898   0.434   5.516 -1.4608 -0.5447  0.2487
  684Sol     MW 5764   2.893   0.507   5.569  0.2211  0.0929 -0.4734
  685Sol     OW 5765   1.774   0.792   6.513 -0.3163  0.0536 -0.4065
  685Sol     HW 5766   1.820   0.764   6.433 -0.1617 -0.6184 -0.0885
  685Sol     HW 5767   1.843   0.806   6.577 -0.5784 -1.5636  0.2576
  685Sol     MW 5768   1.784   0.790   6.511  0.3968  0.1223  0.3640
  686Sol     OW 5769   3.009   2.608   4.620  0.7490  0.0228 -0.1381
  686Sol     HW 5770   3.103   2.608   4.636  0.7813 -0.1869 -0.3110
  686Sol     HW 5771   2.992   2.524   4.577  0.6004  0.3718 -0.7778
  686Sol     MW 5772   3.016   2.600   4.617 -0.5734 -0.5074 -0.8978
  687Sol     OW 5773   3.074   2.712   9.814 -0.4840  0.4482 -0.0129
  687Sol     HW 5774   3.006   2.653   9.782 -0.5166  0.2866  0.3597
  687Sol     HW 5775   3.119   2.662   9.882  0.7640  0.0988 -1.0730
  687Sol     MW 5776   3.072   2.702   9.817 -0.4241 -0.3280 -0.2445
  688Sol     OW 5777   2.465   3.115   3.432  0.4628 -0.3197 -0.2289
  688Sol     HW 5778   2.468   3.166   3.351  0.4671 -0.4203 -0.2922
  688Sol     HW 5779   2.489   3.177   3.501 -1.0607  0.1800 -0.1137
  688Sol     MW 5780   2.467   3.125   3.431  0.5235 -0.0104 -0.0151
  689Sol     OW 5781   1.245   2.886   2.071 -0.0243  0.4494 -0.1725
  689Sol     HW 5782   1.168   2.896   2.015 -0.2805  0.7413  0.2308
  689Sol     HW 5783   1.314   2.855   2.012 -0.5347 -0.1296 -0.4697
  689Sol     MW 5784   1.244   2.884   2.061 -0.4729  0.9060 -0.3866
  690Sol     OW 5785   2.354   2.460   7.338  0.0810 -0.3539 -0.1860
  690Sol     HW 5786   2.350   2.389   7.274  1.4083 -0.4137 -0.2042
  690Sol     HW 5787   2.303   2.531   7.299  0.2045 -0.6806 -0.9369
  690Sol     MW 5788   2.349   2.460   7.329  0.0816  0.3735 -0.5321
  691Sol     OW 5789   1.946   2.367   2.713  0.1991 -0.1600  0.6741
  691Sol     HW 5790   2.037   2.397   2.719  1.1157 -2.2054 -1.8280
  691Sol     HW 5791   1.915   2.401   2.629 -0.5806 -1.3740  0.4547
  691Sol     MW 5792   1.951   2.373   2.706  0.7373  0.5646  0.1335
  692Sol     OW 5793   0.897   2.050   6.574  0.1958  0.4154  0.0435
  692Sol     HW 5794   0.953   2.125   6.554  1.5051 -0.4192  0.5180
  692Sol     HW 5795   0.811   2.075   6.541  0.8046  1.7902 -0.5437
  692Sol     MW 5796   0.895   2.059   6.569  0.4532  0.2044 -0.2039
  693Sol     OW 5797   3.226   2.059   3.817 -0.0105 -0.2150 -0.0157
  693Sol     HW 5798   3.291   2.126   3.839  0.1237 -0.5649  0.6776
  693Sol     HW 5799   3.270   2.004   3.753  0.1170 -0.0234 -0.0956
  693Sol     MW 5800   3.236   2.060   3.813 -0.0620 -0.2108 -0.6091
  694Sol     OW 5801   0.688   3.085   7.687  0.1197 -0.1255  0.4679
  694Sol     HW 5802   0.653   3.131   7.764  2.1862  0.6007  1.0050
  694Sol     HW 5803   0.757   3.143   7.654  0.6879 -1.4312 -0.6684
  694Sol     MW 5804   0.691   3.094   7.691 -0.4262 -0.2363 -0.5591
  695Sol     OW 5805   0.481   1.862   8.784 -0.0943  0.0041  0.1902
  695Sol     HW 5806   0.457   1.799   8.852  1.4348 -1.9155 -1.0393
  695Sol     HW 5807   0.496   1.944   8.832 -0.6544 -0.8984  1.9490
  695Sol     MW 5808   0.480   1.864   8.794 -0.6223 -0.5840 -0.2194
  696Sol     OW 5809   1.150   1.309   1.443  0.0461  0.6328  0.9491
  696Sol     HW 5810   1.146   1.390   1.391  0.1095 -0.0339 -0.0998
  696Sol     HW 5811   1.242   1.299   1.464  0.4913 -0.7508 -1.4680
  696Sol     MW 5812   1.158   1.316   1.440 -0.6558  0.0519  0.1516
  697Sol     OW 5813   2.602   3.419   4.021 -0.5085  0.3901 -0.3881
  697Sol     HW 5814   2.626   3.443   3.932 -0.5526  0.4030 -0.3968
  697Sol     HW 5815   2.673   3.453   4.075 -0.4680  0.3586 -0.4213
  697Sol     MW 5816   2.611   3.424   4.018 -0.4501 -0.6852 -0.1548
  698Sol     OW 5817   0.834   2.606   5.811  0.1610  0.0383  0.5124
  698Sol     HW 5818   0.764   2.566   5.863  0.3288 -1.8441 -0.6569
  698Sol     HW 5819   0.875   2.670   5.870  0.9975 -2.7349  3.0611
  698Sol     MW 5820   0.832   2.608   5.821 -0.0131  0.8395  0.5083
  699Sol     OW 5821   3.313   1.092   6.777 -0.5546  0.8123 -0.0559
  699Sol     HW 5822   3.294   1.156   6.846 -0.7214  0.2058  0.4621
  699Sol     HW 5823   3.244   1.027   6.785  0.4404 -0.2092  0.3659
  699Sol     MW 5824   3.305   1.092   6.784  0.0980  0.2094 -0.2389
  700Sol     OW 5825   0.926   1.467   1.672 -0.6672 -0.8138  0.6761
  700Sol     HW 5826   1.020   1.465   1.693 -0.1257  0.1837 -1.5086
  700Sol     HW 5827   0.889   1.530   1.734  0.9855  2.5068 -1.5555
  700Sol     MW 5828   0.931   1.472   1.679 -0.3642  0.0194  0.0383
  701Sol     OW 5829   0.954   2.846   1.661  0.4289 -0.0951  0.3868
  701Sol     HW 5830   0.861   2.825   1.662  0.6240 -1.1055 -0.9726
  701Sol     HW 5831   0.967   2.900   1.739 -1.3225  0.2298  0.4792
  701Sol     MW 5832   0.947   2.849   1.668 -0.8676  0.4722 -0.0982
  702Sol     OW 5833   2.217   0.289   2.331 -0.0363 -0.8472  0.1685
  702Sol     HW 5834   2.223   0.333   2.246 -1.3098  1.3328  1.1743
  702Sol     HW 5835   2.125   0.294   2.355  0.5788  0.3011  2.5405
  702Sol     MW 5836   2.210   0.293   2.326 -0.6268  0.0774  1.5679
  703Sol     OW 5837   0.027   0.356   9.697  0.8012 -0.4330 -0.3341
  703Sol     HW 5838   0.008   0.269   9.662  1.3220  0.1890 -2.2639
  703Sol     HW 5839  -0.023   0.415   9.640  1.0944  0.5765  0.4503
  703Sol     MW 5840   0.021   0.354   9.689  0.0863 -0.3323 -0.1403
  704Sol     OW 5841   0.882   2.571   5.529 -0.7607 -0.1062  0.4655
  704Sol     HW 5842   0.954   2.619   5.489  0.2613 -1.2008  0.9469
  704Sol     HW 5843   0.887   2.593   5.622 -2.2077  1.2608  0.2534
  704Sol     MW 5844   0.889   2.578   5.534  0.4519  0.0424  0.9658
  705Sol     OW 5845   2.232   2.794   4.458  0.2756  0.6475 -0.2722
  705Sol     HW 5846   2.214   2.819   4.549  0.2014 -2.5385  0.6330
  705Sol     HW 5847   2.145   2.780   4.420  0.3614 -0.0957 -0.2048
  705Sol     MW 5848   2.223   2.795   4.463  0.3322 -0.3184  0.4031
  706Sol     OW 5849   0.393   0.212   6.189 -0.1797 -0.8347  0.8469
  706Sol     HW 5850   0.427   0.274   6.125  2.9452 -3.2479  0.0192
  706Sol     HW 5851   0.301   0.200   6.165  0.2971  0.1745 -1.6280
  706Sol     MW 5852   0.388   0.216   6.182 -0.6114  0.1513 -0.1320
  707Sol     OW 5853   1.697   0.791   2.425 -0.4075  0.0566 -0.5135
  707Sol     HW 5854   1.610   0.753   2.437 -0.3977  0.5005  1.0344
  707Sol     HW 5855   1.754   0.715   2.409 -0.9826 -0.2752 -1.0219
  707Sol     MW 5856   1.694   0.781   2.425  0.4370  0.7440 -0.6294
  708Sol     OW 5857   1.301   2.668   8.139 -0.1546 -0.0743  0.6183
  708Sol     HW 5858   1.318   2.709   8.055 -0.1962 -0.3193  0.4890
  708Sol     HW 5859   1.363   2.595   8.143 -0.8204 -0.6678  0.3661
  708Sol     MW 5860   1.308   2.665   8.132 -0.0240 -0.0666  0.5275
  709Sol     OW 5861   1.987   0.169   8.530 -0.0531 -0.0483 -0.6529
  709Sol     HW 5862   1.962   0.221   8.606  0.8379  0.1122 -0.4700
  709Sol     HW 5863   2.032   0.093   8.566  1.5717  0.6941 -1.0731
  709Sol     MW 5864   1.989   0.166   8.540 -0.1055  0.1944  0.3020
  710Sol     OW 5865   2.079   2.091   9.784  0.8874  0.3195  0.2582
  710Sol     HW 5866   2.115   2.140   9.858  0.5911  1.6234 -0.4426
  710Sol     HW 5867   2.143   2.105   9.714  0.7932 -0.2999  0.0442
  710Sol     MW 5868   2.088   2.097   9.784 -0.8348  0.4813 -0.3329
  711Sol     OW 5869   1.790   2.788   8.601 -0.7538  0.1935  0.6848
  711Sol     HW 5870   1.833   2.823   8.523 -2.3591  1.2995  0.2551
  711Sol     HW 5871   1.854   2.798   8.671 -0.1144  1.3123 -0.0466
  711Sol     MW 5872   1.799   2.792   8.600 -0.1117  0.6835  0.2758
  712Sol     OW 5873   0.422   2.204   4.176  0.0839  0.1743 -0.2219
  712Sol     HW 5874   0.465   2.129   4.135 -1.4001 -0.9316  0.2276
  712Sol     HW 5875   0.351   2.167   4.227 -0.8952  1.9256 -0.2663
  712Sol     MW 5876   0.420   2.194   4.177  0.3435  0.4875  0.6801
  713Sol     OW 5877   3.317   2.446   3.807  0.1436  0.6328  0.3018
  713Sol     HW 5878   3.264   2.458   3.728  1.3769  0.6358 -0.5379
  713Sol     HW 5879   3.261   2.478   3.878 -1.5744 -0.8236 -0.3676
  713Sol     MW 5880   3.307   2.450   3.807  0.5064 -0.1319  0.1109
  714Sol     OW 5881   2.436   0.956   8.590 -0.1341 -0.1272  0.7799
  714Sol     HW 5882   2.430   1.052   8.598 -1.0856 -0.0672 -0.4735
  714Sol     HW 5883   2.512   0.942   8.533  1.1201 -0.2062  2.4341
  714Sol     MW 5884   2.442   0.964   8.585 -0.1543 -0.4908  0.0185
  715Sol     OW 5885   0.701   2.792   2.001  0.6243  0.0494  0.0313
  715Sol     HW 5886   0.699   2.766   1.908 -0.6115  0.2392 -0.0005
  715Sol     HW 5887   0.689   2.710   2.049 -0.1850  0.1460 -0.0062
  715Sol     MW 5888   0.700   2.782   1.997  0.2012  0.1567 -0.0605
  716Sol     OW 5889   2.482   0.015   2.646 -0.5435  0.5132  0.3704
  716Sol     HW 5890   2.507  -0.069   2.683  3.5076  1.5371  0.1179
  716Sol     HW 5891   2.462  -0.004   2.555 -2.3148 -0.5717  0.9442
  716Sol     MW 5892   2.482   0.006   2.642  0.0352 -0.0447  0.3133
  717Sol     OW 5893   1.910   3.011   3.076  0.2531  0.4847 -0.3123
  717Sol     HW 5894   1.849   2.940   3.059  0.4699  0.3794 -0.6580
  717Sol     HW 5895   1.921   3.054   2.991 -0.0791  1.0929 -0.0534
  717Sol     MW 5896   1.905   3.009   3.067 -0.0146  0.6415 -0.3343
  718Sol     OW 5897   2.360   0.359   6.733 -0.1346 -0.4838  0.1572
  718Sol     HW 5898   2.356   0.451   6.760 -0.0456 -1.0230  2.1088
  718Sol     HW 5899   2.291   0.350   6.668  0.9773  1.3656 -1.3325
  718Sol     MW 5900   2.354   0.367   6.730  0.4209  0.0862 -0.2857
  719Sol     OW 5901   1.128   2.250   4.173 -0.1234 -0.0559 -0.2610
  719Sol     HW 5902   1.063   2.305   4.216  0.6511  1.4470 -0.9740
  719Sol     HW 5903   1.076   2.187   4.123 -1.0261 -1.4335  2.3172
  719Sol     MW 5904   1.118   2.249   4.172 -0.0427  0.5557 -0.0717
  720Sol     OW 5905   1.644   3.210   6.548 -0.3596 -0.2974 -0.1731
  720Sol     HW 5906   1.556   3.232   6.519  0.3227  1.8563 -0.7458
  720Sol     HW 5907   1.687   3.174   6.470 -0.2445  0.1548 -0.3174
  720Sol     MW 5908   1.640   3.209   6.538  0.2193  0.0585  0.5772
  721Sol     OW 5909   0.660   2.183   7.351 -0.3923  0.2032 -0.2685
  721Sol     HW 5910   0.566   2.174   7.370  0.1256 -2.1788  1.2896
  721Sol     HW 5911   0.670   2.152   7.261 -0.9032 -0.8120  0.0190
  721Sol     MW 5912   0.652   2.180   7.345 -0.0572  0.0283  0.5659
  722Sol     OW 5913   2.017   2.920   2.193 -0.5174 -0.1517 -0.6342
  722Sol     HW 5914   2.060   3.000   2.163  1.1239 -0.6951  0.2482
  722Sol     HW 5915   2.026   2.859   2.120  0.6186 -0.4177 -0.2701
  722Sol     MW 5916   2.021   2.922   2.183  0.6833  0.3143 -0.0632
  723Sol     OW 5917   2.208   0.950   6.780 -0.0193 -0.6763  0.0583
  723Sol     HW 5918   2.291   0.954   6.734 -0.1067  0.1406 -0.0386
  723Sol     HW 5919   2.232   0.946   6.873  0.1615 -2.5665 -0.0535
  723Sol     MW 5920   2.217   0.950   6.784 -0.0095 -0.3730  0.2293
  724Sol     OW 5921   0.076   0.774   2.028  0.2736 -0.5484  0.0326
  724Sol     HW 5922   0.161   0.788   1.985 -0.4205 -2.2417 -2.0342
  724Sol     HW 5923   0.083   0.685   2.064 -0.4998 -0.5829  0.0959
  724Sol     MW 5924   0.084   0.767   2.027 -0.3412 -0.0705  0.5269
  725Sol     OW 5925   2.513   0.243   1.719  0.8455  0.2495 -0.2084
  725Sol     HW 5926   2.536   0.208   1.805  0.1006 -0.1089 -0.1439
  725Sol     HW 5927   2.533   0.172   1.658  1.3887  0.5096 -0.3338
  725Sol     MW 5928   2.517   0.233   1.721  0.1227 -0.3465  0.4249
  726Sol     OW 5929   1.711   2.386   7.666 -0.2079 -0.8019 -0.0510
  726Sol     HW 5930   1.658   2.424   7.596 -0.8063 -0.4250  0.6057
  726Sol     HW 5931   1.672   2.300   7.681 -1.4379 -0.0136  1.3125
  726Sol     MW 5932   1.703   2.381   7.661 -0.0727  0.2202 -0.4312
  727Sol     OW 5933   3.224   2.787   8.082  0.4632 -0.0004 -0.0424
  727Sol     HW 5934   3.226   2.715   8.019  0.7111 -0.2646  0.2673
  727Sol     HW 5935   3.290   2.849   8.050  1.7166 -0.8745  0.8329
  727Sol     MW 5936   3.230   2.786   8.073  0.6062 -0.3487  0.1513
  728Sol     OW 5937   2.675   2.017   2.306  0.0404  0.0995  0.3141
  728Sol     HW 5938   2.651   1.928   2.331 -1.0304  0.8061  1.9267
  728Sol     HW 5939   2.607   2.044   2.244  1.0953 -0.6491 -1.1890
  728Sol     MW 5940   2.667   2.012   2.302  0.2592  0.0444 -0.3638
  729Sol     OW 5941   0.971   2.348   6.698  0.2945 -0.0186 -0.7299
  729Sol     HW 5942   1.029   2.313   6.630  1.2479 -1.5704  0.8546
  729Sol     HW 5943   1.003   2.436   6.715  1.7237 -0.5989 -0.3898
  729Sol     MW 5944   0.979   2.353   6.693 -0.1603 -0.1536 -0.4140
  730Sol     OW 5945   1.118   0.965   5.177  0.0515  0.1960 -0.5547
  730Sol     HW 5946   1.024   0.980   5.164  0.0328  0.9200  0.3555
  730Sol     HW 5947   1.123   0.914   5.258  0.5584  2.4038  0.8590
  730Sol     MW 5948   1.110   0.962   5.183 -0.1643  0.6168  0.4047
  731Sol     OW 5949   2.841   1.653   9.799 -0.1980  0.4662  0.3123
  731Sol     HW 5950   2.812   1.569   9.763  1.2554  0.9453 -2.0921
  731Sol     HW 5951   2.777   1.673   9.867  0.7600 -3.7102  2.5857
  731Sol     MW 5952   2.832   1.647   9.802  0.5215 -0.6986  0.1529
  732Sol     OW 5953   3.139   1.855   4.918 -0.0140  0.0661 -0.4243
  732Sol     HW 5954   3.153   1.911   4.995 -0.0765 -0.6959  0.1520
  732Sol     HW 5955   3.051   1.879   4.887 -0.6107 -0.6910  0.6503
  732Sol     MW 5956   3.132   1.862   4.922  0.0841 -0.0004  0.3300
  733Sol     OW 5957   3.085   2.303   2.457 -0.4565  0.3137 -0.3182
  733Sol     HW 5958   3.079   2.208   2.448  0.6726  0.2614 -0.6952
  733Sol     HW 5959   3.022   2.325   2.525 -1.5802 -0.5624 -1.0706
  733Sol     MW 5960   3.079   2.296   2.462 -0.1926 -0.4307 -0.1495
  734Sol     OW 5961   1.985   0.116   5.610 -0.1940  0.4007  0.2170
  734Sol     HW 5962   1.979   0.200   5.657 -0.2783  1.4234 -1.5744
  734Sol     HW 5963   1.906   0.114   5.556  0.4111 -0.2788 -0.6501
  734Sol     MW 5964   1.977   0.123   5.609 -0.4618  0.3817  0.3757
  735Sol     OW 5965   2.816   0.673   5.308 -0.1876 -0.0803  0.3693
  735Sol     HW 5966   2.763   0.750   5.329 -0.6167 -0.8045  2.0291
  735Sol     HW 5967   2.906   0.707   5.304 -0.4585  0.6441  0.3301
  735Sol     MW 5968   2.819   0.683   5.310  0.4323  0.1337  0.0503
  736Sol     OW 5969   0.449   1.785   6.597 -0.2275 -0.2040 -0.0665
  736Sol     HW 5970   0.497   1.789   6.680 -1.5318 -0.4234  0.7089
  736Sol     HW 5971   0.516   1.798   6.530  0.7164  0.7990  1.0505
  736Sol     MW 5972   0.459   1.786   6.599 -0.1513  0.0967  0.7087
  737Sol     OW 5973   1.128   3.305   7.344 -0.0708 -0.1056  0.9213
  737Sol     HW 5974   1.177   3.380   7.310  1.5664 -1.7337 -0.3986
  737Sol     HW 5975   1.192   3.255   7.395 -1.2506 -0.4059  2.1456
  737Sol     MW 5976   1.138   3.307   7.346  1.2717  0.0343  0.2590
  738Sol     OW 5977   0.195   2.524   2.894  0.3424  0.2826  0.2999
  738Sol     HW 5978   0.233   2.611   2.902  0.4386  0.4006 -1.2455
  738Sol     HW 5979   0.249   2.480   2.828  1.1059 -1.4081  2.0172
  738Sol     MW 5980   0.203   2.527   2.889  0.2410  0.3140  0.1424
  739Sol     OW 5981   2.262   1.219   5.375  0.0467 -0.1209 -0.4812
  739Sol     HW 5982   2.271   1.286   5.443 -1.8384 -1.8585  1.5166
  739Sol     HW 5983   2.352   1.195   5.353  0.6701  0.1007  1.7469
  739Sol     MW 5984   2.271   1.223   5.379  0.5877  0.5194 -0.7674
  740Sol     OW 5985   1.191   3.145   3.456 -0.0500  0.2395  0.2820
  740Sol     HW 5986   1.214   3.236   3.438 -0.0079  0.2259  0.2672
  740Sol     HW 5987   1.127   3.150   3.527 -1.3517  0.3828 -0.8752
  740Sol     MW 5988   1.187   3.154   3.461  0.1090 -0.1023  0.0535
  741Sol     OW 5989   0.995   3.128   3.653 -0.4933  0.1673 -0.0367
  741Sol     HW 5990   1.047   3.175   3.718  0.5750 -0.2522 -0.5851
  741Sol     HW 5991   0.913   3.108   3.698  0.2491 -0.1427  1.1979
  741Sol     MW 5992   0.992   3.130   3.663 -0.6489 -0.3744 -0.0117
  742Sol     OW 5993   0.924   1.905   1.897  0.0652 -0.0898  0.4430
  742Sol     HW 5994   0.908   1.983   1.950  1.3177 -0.9082  2.0957
  742Sol     HW 5995   0.982   1.935   1.827  2.6121 -0.0129  2.5186
  742Sol     MW 5996   0.928   1.914   1.896  0.4670  0.4682 -0.3856
  743Sol     OW 5997   3.153   0.566   6.361  0.0212  0.3245  0.4246
  743Sol     HW 5998   3.138   0.630   6.291 -0.4500 -1.2654 -0.9600
  743Sol     HW 5999   3.074   0.511   6.359  1.1912 -1.3708  0.4116
  743Sol     MW 6000   3.144   0.567   6.354  0.0526  0.5418 -0.8041
  744Sol     OW 6001   1.648   0.309   6.493  0.4058  0.0487 -0.0902
  744Sol     HW 6002   1.686   0.238   6.545 -0.6273 -0.0689  0.5198
  744Sol     HW 6003   1.666   0.388   6.545  0.8716  0.1455 -0.3926
  744Sol     MW 6004   1.653   0.310   6.502 -0.1752 -0.0719 -0.4431
  745Sol     OW 6005   1.053   3.438   3.918  0.3233 -0.3296 -0.0355
  745Sol     HW 6006   0.968   3.432   3.875  1.3232 -0.5633 -2.0513
  745Sol     HW 6007   1.057   3.359   3.973 -1.0949  0.1311  0.7622
  745Sol     MW 6008   1.046   3.430   3.919 -0.1117 -0.0244 -0.1014
  746Sol     OW 6009   3.161   0.699   5.092 -0.2503  0.4563  0.2742
  746Sol     HW 6010   3.166   0.738   5.179 -1.7360 -0.8435  0.9661
  746Sol     HW 6011   3.144   0.606   5.109 -1.2053  0.3119 -1.4260
  746Sol     MW 6012   3.160   0.694   5.102 -0.1999 -0.1115 -0.1283
  747Sol     OW 6013   2.220   1.930   3.804 -0.3352  0.1951 -0.5573
  747Sol     HW 6014   2.206   1.869   3.877  1.3598  1.2032  0.6313
  747Sol     HW 6015   2.133   1.967   3.787 -0.7829 -0.2203  0.7883
  747Sol     MW 6016   2.211   1.927   3.809 -0.0297 -0.2587  0.0597
  748Sol     OW 6017   1.903   3.375   7.212  0.7522  0.2500  0.5516
  748Sol     HW 6018   1.949   3.347   7.133  0.7195  3.7687 -0.7829
  748Sol     HW 6019   1.817   3.335   7.205  0.8080  0.3922 -1.1314
  748Sol     MW 6020   1.900   3.369   7.205  0.3945  0.5415 -0.2373
  749Sol     OW 6021   0.039   3.058   4.608 -0.0400 -0.1179 -0.5111
  749Sol     HW 6022   0.052   2.970   4.642  2.3369 -0.2007 -1.5348
  749Sol     HW 6023  -0.004   3.106   4.679 -0.1967 -1.7525  0.5056
  749Sol     MW 6024   0.036   3.055   4.617  0.2946 -0.5956  0.6674
  750Sol     OW 6025   1.354   0.968   2.558 -0.2498  0.0664  0.1636
  750Sol     HW 6026   1.310   0.886   2.577 -1.1269  0.0237 -1.8436
  750Sol     HW 6027   1.440   0.960   2.597 -1.0042 -1.0337  1.6208
  750Sol     MW 6028   1.357   0.960   2.563 -0.5005  0.1399  0.5841
  751Sol     OW 6029   0.859   1.382   9.167  0.2300  0.5409 -0.3503
  751Sol     HW 6030   0.923   1.423   9.226 -0.6220 -0.0850  1.0483
  751Sol     HW 6031   0.805   1.455   9.136  2.6753  1.3205 -2.9265
  751Sol     MW 6032   0.860   1.392   9.170 -0.4119  0.1832  0.2864
  752Sol     OW 6033   3.322   2.839   2.284  0.0688  0.2574 -0.5638
  752Sol     HW 6034   3.378   2.851   2.207 -0.6666 -1.0893 -1.3309
  752Sol     HW 6035   3.357   2.762   2.327 -0.5528  0.0180 -0.4819
  752Sol     MW 6036   3.330   2.833   2.281  1.1062 -0.1186 -0.0127
  753Sol     OW 6037   2.168   2.099   6.347  0.7555  0.4988  0.4469
  753Sol     HW 6038   2.170   2.011   6.308  1.9559  1.0515 -0.7434
  753Sol     HW 6039   2.141   2.156   6.275 -2.4659  0.8238  1.8181
  753Sol     MW 6040   2.165   2.096   6.337  0.2229  0.2008 -0.2206
  754Sol     OW 6041   2.084   2.629   4.857 -0.1462  0.1483  0.1083
  754Sol     HW 6042   2.113   2.650   4.945  1.0532 -1.1181  0.0318
  754Sol     HW 6043   2.155   2.576   4.820 -1.4163 -0.8348 -0.9814
  754Sol     MW 6044   2.093   2.626   4.861  0.0595 -0.1096 -0.0338
  755Sol     OW 6045   0.189   2.941   6.964  0.3558 -0.5216  0.4298
  755Sol     HW 6046   0.199   3.024   6.917 -2.7005 -1.2424 -1.6497
  755Sol     HW 6047   0.231   2.876   6.907 -1.2265 -1.0479 -0.1488
  755Sol     MW 6048   0.194   2.942   6.955 -0.2347  0.3656 -0.3027
  756Sol     OW 6049   0.005   2.666   4.407  0.2796  0.0168  0.0577
  756Sol     HW 6050  -0.065   2.686   4.346  0.3777  0.1565 -0.0102
  756Sol     HW 6051  -0.039   2.647   4.490  0.1752  0.3381  0.0755
  756Sol     MW 6052  -0.005   2.666   4.409 -0.3766  0.2221  0.5345
  757Sol     OW 6053   0.972   3.214   2.486 -0.8422 -0.1151  0.1991
  757Sol     HW 6054   0.924   3.180   2.410  0.1118 -0.0506 -0.4437
  757Sol     HW 6055   0.997   3.136   2.536 -0.7030 -0.2104 -0.0207
  757Sol     MW 6056   0.970   3.204   2.484  0.2901  0.1181 -0.1830
  758Sol     OW 6057   0.645   0.476   6.535 -0.2202  0.7679  0.3225
  758Sol     HW 6058   0.670   0.449   6.623 -2.2573  1.9270  1.3100
  758Sol     HW 6059   0.618   0.396   6.491  0.1646  0.2793  0.9768
  758Sol     MW 6060   0.645   0.467   6.539 -1.0341  0.3313  0.3721
  759Sol     OW 6061   2.561   1.052   3.143 -0.6090  0.9827 -0.4406
  759Sol     HW 6062   2.527   0.966   3.119 -2.0846  1.5665 -0.5035
  759Sol     HW 6063   2.536   1.063   3.235  1.3560  0.5103  0.1723
  759Sol     MW 6064   2.556   1.045   3.149 -0.1760  0.6118 -0.0649
  760Sol     OW 6065   0.709   0.801   4.862 -0.6127 -0.6222  0.4057
  760Sol     HW 6066   0.740   0.869   4.803 -2.2914  2.2321  2.6825
  760Sol     HW 6067   0.614   0.796   4.847 -1.0254 -0.0683  2.5343
  760Sol     MW 6068   0.703   0.807   4.856  0.5915  0.1288 -0.2901
  761Sol     OW 6069   0.910   1.806   1.549  0.0577 -0.1306  0.1157
  761Sol     HW 6070   0.863   1.727   1.521  1.0824 -0.4400 -0.7656
  761Sol     HW 6071   0.841   1.871   1.561 -0.9592 -1.5096  2.1638
  761Sol     MW 6072   0.899   1.804   1.548 -0.2902 -0.4385  0.0860
  762Sol     OW 6073   2.527   1.591   6.513 -0.8371  0.2720 -0.4381
  762Sol     HW 6074   2.461   1.638   6.564 -1.2213  1.0916 -1.6492
  762Sol     HW 6075   2.483   1.511   6.485 -0.9004  0.2196 -0.1887
  762Sol     MW 6076   2.517   1.588   6.515  0.0292  0.5402 -0.5735
  763Sol     OW 6077   0.811   2.969   5.654 -0.0454 -0.3331 -0.1301
  763Sol     HW 6078   0.813   3.013   5.569  0.0661 -0.0547  0.0186
  763Sol     HW 6079   0.900   2.936   5.667 -0.1807 -0.7934 -0.3405
  763Sol     MW 6080   0.819   2.970   5.648 -0.3146  0.3893 -0.2611
  764Sol     OW 6081   1.080   1.358   5.002  0.3909  0.0480  0.3398
  764Sol     HW 6082   1.014   1.296   4.970 -1.8062  3.1076 -1.3435
  764Sol     HW 6083   1.157   1.304   5.019 -2.4053 -3.6176  2.1199
  764Sol     MW 6084   1.081   1.348   5.000 -0.0815  0.3729  0.2576
  765Sol     OW 6085   0.881   0.643   3.583  0.4610  0.0416  0.1230
  765Sol     HW 6086   0.923   0.558   3.593  1.7186  0.5952 -0.2501
  765Sol     HW 6087   0.855   0.647   3.491 -0.2474 -0.2259  0.3100
  765Sol     MW 6088   0.883   0.636   3.576 -0.9964  0.7496  0.0909
  766Sol     OW 6089   2.885   2.993   2.622  0.2809 -0.0903  0.4980
  766Sol     HW 6090   2.885   3.060   2.691 -0.5651  1.1057 -0.6332
  766Sol     HW 6091   2.977   2.984   2.598  0.5608 -0.3775  1.6532
  766Sol     MW 6092   2.893   2.999   2.626  0.6091 -0.4411  0.3771
  767Sol     OW 6093   1.288   3.209   6.891 -0.0657  0.2941  0.1584
  767Sol     HW 6094   1.341   3.138   6.856  0.9151  1.8678 -1.6133
  767Sol     HW 6095   1.197   3.184   6.872  0.1137 -1.4978  1.5226
  767Sol     MW 6096   1.284   3.200   6.886  0.7864 -0.0272  0.1356
  768Sol     OW 6097   1.251   0.242   9.107 -0.7229  0.3647 -0.4593
  768Sol     HW 6098   1.297   0.260   9.026  0.2224  0.7880  0.1619
  768Sol     HW 6099   1.174   0.300   9.105 -1.3617 -0.5025 -1.5941
  768Sol     MW 6100   1.248   0.249   9.100  0.0480  0.2564 -0.5985
  769Sol     OW 6101   2.940   2.308   5.571 -0.1152  0.1765 -0.1223
  769Sol     HW 6102   3.019   2.258   5.555 -0.3386  0.2857 -1.6064
  769Sol     HW 6103   2.970   2.388   5.615  0.6174  0.2876 -0.8237
  769Sol     MW 6104   2.950   2.311   5.574  0.7362 -0.0406  0.3582
  770Sol     OW 6105   0.307   1.988   6.453 -0.2596 -0.2064  0.2701
  770Sol     HW 6106   0.369   1.918   6.473  0.6720  0.8201  1.0567
  770Sol     HW 6107   0.361   2.057   6.413 -0.6943  1.0583  1.7722
  770Sol     MW 6108   0.318   1.988   6.451  0.0361 -0.1381  0.1126
  771Sol     OW 6109   0.428   2.517   3.143  0.1255  0.5443 -0.0846
  771Sol     HW 6110   0.440   2.468   3.061  2.1226  1.0347 -0.1194
  771Sol     HW 6111   0.336   2.504   3.165  0.0918 -1.4510 -1.2230
  771Sol     MW 6112   0.421   2.511   3.137  0.1610  0.3220  0.6044
  772Sol     OW 6113   1.275   1.794   4.649  0.1159  0.4335 -0.4278
  772Sol     HW 6114   1.306   1.883   4.664  1.0532  0.3638 -1.8939
  772Sol     HW 6115   1.179   1.802   4.647  0.0913  0.9652  2.0854
  772Sol     MW 6116   1.269   1.802   4.650 -0.1090 -0.6686 -0.5576
  773Sol     OW 6117   2.894   1.573   2.884  0.4251  0.0775  0.2368
  773Sol     HW 6118   2.872   1.510   2.816  0.8779 -2.0199  1.9624
  773Sol     HW 6119   2.814   1.625   2.896 -0.0415 -0.3506 -1.0328
  773Sol     MW 6120   2.885   1.572   2.879  0.5170 -0.1183 -0.4887
  774Sol     OW 6121   0.146   0.797   5.865  0.4051  0.1799  0.1249
  774Sol     HW 6122   0.163   0.724   5.805  0.2032  0.8891 -0.7982
  774Sol     HW 6123   0.140   0.756   5.952  1.3588 -0.7564 -0.2535
  774Sol     MW 6124   0.147   0.787   5.868 -0.3500  0.0943  0.2441
  775Sol     OW 6125   0.908   2.101   3.400  0.1870 -0.5929 -0.3563
  775Sol     HW 6126   0.995   2.062   3.408  0.5947 -0.0010 -1.7106
  775Sol     HW 6127   0.898   2.154   3.479  1.3449 -0.1068 -0.5222
  775Sol     MW 6128   0.915   2.102   3.408 -0.4000  0.3888 -0.3166
  776Sol     OW 6129   0.780   0.372   7.024  0.2536 -0.1836  0.2025
  776Sol     HW 6130   0.712   0.400   6.963 -0.6921 -0.8572  0.9270
  776Sol     HW 6131   0.841   0.321   6.970 -0.8001 -1.1392 -0.1250
  776Sol     MW 6132   0.780   0.370   7.014 -0.9686  0.1945 -0.0652
  777Sol     OW 6133   2.484   1.550   8.302  0.1026 -0.1189  0.3517
  777Sol     HW 6134   2.391   1.527   8.301  0.2541 -0.7294 -0.1698
  777Sol     HW 6135   2.527   1.475   8.343  0.5171 -0.4629 -0.6905
  777Sol     MW 6136   2.480   1.541   8.306  0.4344 -0.6120  0.2174
  778Sol     OW 6137   3.012   0.065   3.378  0.1138 -0.6336  0.1153
  778Sol     HW 6138   3.067   0.138   3.348 -0.1231 -0.1004  0.9746
  778Sol     HW 6139   2.934   0.070   3.322  0.0266 -0.1263  0.2767
  778Sol     MW 6140   3.010   0.072   3.370 -0.0747  0.7587 -0.6372
  779Sol     OW 6141   1.348   1.922   2.888 -0.6274  0.2730  0.4947
  779Sol     HW 6142   1.293   1.959   2.957  0.6938  1.9418  0.6702
  779Sol     HW 6143   1.436   1.954   2.907  0.0301 -0.5516 -1.0665
  779Sol     MW 6144   1.351   1.928   2.896  0.1967  0.4741  0.4634
  780Sol     OW 6145   2.973   2.024   5.346 -0.5468 -0.1603 -0.1519
  780Sol     HW 6146   2.882   2.056   5.346 -0.4825  0.0448  0.5361
  780Sol     HW 6147   2.969   1.941   5.395 -0.3532 -0.1125 -0.0534
  780Sol     MW 6148   2.964   2.019   5.351 -0.0870 -0.7355  0.4336
  781Sol     OW 6149   3.090   2.720   8.481 -0.1253 -0.4465  0.4710
  781Sol     HW 6150   3.174   2.734   8.437 -1.4208 -1.1871 -2.3227
  781Sol     HW 6151   3.090   2.627   8.503 -0.8270 -0.7697 -0.8689
  781Sol     MW 6152   3.097   2.713   8.479  0.0277 -0.2586  0.1101
  782Sol     OW 6153   0.741   3.321   2.327 -0.4612  0.1696 -0.0495
  782Sol     HW 6154   0.806   3.271   2.279 -1.3250 -0.9436 -0.0717
  782Sol     HW 6155   0.664   3.321   2.270 -0.8806  0.4390  0.5084
  782Sol     MW 6156   0.740   3.317   2.318 -0.1614 -0.2540  0.2740
  783Sol     OW 6157   0.654   2.888   3.928  0.0831  0.4133 -0.0851
  783Sol     HW 6158   0.578   2.901   3.986 -0.8403 -0.2386 -1.1335
  783Sol     HW 6159   0.667   2.793   3.928  0.8654  0.5221  0.0445
  783Sol     MW 6160   0.648   2.880   3.934  0.5018 -0.3972  0.2571
  784Sol     OW 6161   1.489   2.053   1.493  0.4869  0.4505  0.5661
  784Sol     HW 6162   1.438   2.071   1.571 -0.4633  0.7054 -0.1056
  784Sol     HW 6163   1.474   2.128   1.436  2.1887  0.8772  0.6392
  784Sol     MW 6164   1.483   2.061   1.495  0.3410  0.2042 -0.4260
  785Sol     OW 6165   0.123   2.200   4.902 -0.1976  0.5770  0.2091
  785Sol     HW 6166   0.176   2.189   4.981  2.0716 -1.1138 -1.4822
  785Sol     HW 6167   0.166   2.270   4.854 -1.0623  1.0126  0.0680
  785Sol     MW 6168   0.132   2.205   4.905 -0.0862 -0.2699 -0.2782
  786Sol     OW 6169   2.355   1.224   2.955  0.4714 -0.0808  0.2107
  786Sol     HW 6170   2.356   1.258   2.866 -0.0349  1.0092  0.6095
  786Sol     HW 6171   2.448   1.218   2.979  0.5691  1.2404  0.2025
  786Sol     MW 6172   2.364   1.226   2.949  0.0849 -0.4067 -0.2455
  787Sol     OW 6173   0.290   1.144   4.810 -0.1289  0.1459  0.1391
  787Sol     HW 6174   0.271   1.106   4.896 -1.8377  1.3206  0.3032
  787Sol     HW 6175   0.231   1.220   4.804  1.3364  1.1956 -1.2723
  787Sol     MW 6176   0.283   1.147   4.817 -0.6265  0.1294  0.4325
  788Sol     OW 6177   1.840   1.287   8.858 -0.0291 -0.1247  0.2636
  788Sol     HW 6178   1.883   1.202   8.853 -0.0211 -0.0401 -1.2192
  788Sol     HW 6179   1.767   1.282   8.796 -0.7372  0.5511  1.0228
  788Sol     MW 6180   1.837   1.279   8.852 -0.2579 -0.4952  0.2554
  789Sol     OW 6181   0.930   0.217   5.134  0.1974 -0.5466  0.3590
  789Sol     HW 6182   0.948   0.156   5.062  1.9996  0.4511 -0.0586
  789Sol     HW 6183   0.890   0.293   5.092 -1.0683 -0.9755  0.7507
  789Sol     MW 6184   0.928   0.218   5.124 -0.2218  0.7311 -0.0751
  790Sol     OW 6185   2.734   1.881   9.668  0.0690 -0.4005 -0.2316
  790Sol     HW 6186   2.782   1.958   9.701 -0.6918 -0.2786  0.6120
  790Sol     HW 6187   2.789   1.807   9.692  1.3381 -0.0547 -2.0067
  790Sol     MW 6188   2.743   1.882   9.673  0.7471 -0.2680 -0.3775
  791Sol     OW 6189   0.180   1.582   7.176  0.1662 -0.3706  0.3432
  791Sol     HW 6190   0.239   1.548   7.244 -1.1077 -2.5431  0.3954
  791Sol     HW 6191   0.093   1.575   7.215 -0.5684 -1.5647 -1.5057
  791Sol     MW 6192   0.178   1.579   7.186  0.2138 -0.2572  1.3384
  792Sol     OW 6193   2.440   1.711   9.538 -0.4223 -0.3742 -0.3350
  792Sol     HW 6194   2.436   1.631   9.590 -0.0204 -0.1553  0.0338
  792Sol     HW 6195   2.452   1.781   9.602 -0.3792 -0.0596 -0.6855
  792Sol     MW 6196   2.441   1.710   9.548 -0.3274 -0.5788  0.5194
  793Sol     OW 6197   2.858   0.005   9.819  0.7811  0.1887  0.1558
  793Sol     HW 6198   2.906   0.085   9.841  0.8946 -0.1412  1.1441
  793Sol     HW 6199   2.815   0.024   9.736  0.1140  1.5902  0.8080
  793Sol     MW 6200   2.858   0.014   9.813 -0.3385 -0.3481 -0.0990
  794Sol     OW 6201   2.189   2.425   3.983 -0.2298  0.0524  0.0776
  794Sol     HW 6202   2.142   2.478   4.047 -1.2511 -0.7349 -0.0176
  794Sol     HW 6203   2.204   2.341   4.026 -2.1917 -0.9960 -1.1806
  794Sol     MW 6204   2.186   2.422   3.992 -0.6421 -0.3331 -0.0561
  795Sol     OW 6205   0.822   3.450   6.994 -0.7382 -0.2700  0.1255
  795Sol     HW 6206   0.757   3.408   6.937 -0.4162 -0.4484 -0.1193
  795Sol     HW 6207   0.849   3.528   6.946 -0.1260 -0.6637 -0.1934
  795Sol     MW 6208   0.819   3.453   6.984 -0.4333  0.0084 -0.0621
  796Sol     OW 6209   0.495   3.100   7.488 -0.4349  0.3590  0.0892
  796Sol     HW 6210   0.543   3.074   7.567 -2.1728  0.6135  1.2608
  796Sol     HW 6211   0.558   3.089   7.417  0.3702 -2.4265  1.1583
  796Sol     MW 6212   0.505   3.097   7.489  0.2058 -0.3545  0.1284
  797Sol     OW 6213   0.899   0.444   8.591  0.0291  0.2738  0.0646
  797Sol     HW 6214   0.961   0.394   8.644  2.5999  2.2413 -0.9965
  797Sol     HW 6215   0.813   0.419   8.625  1.4003 -2.0024  2.0298
  797Sol     MW 6216   0.897   0.437   8.599  0.5176  0.3747 -0.0782
  798Sol     OW 6217   1.950   0.706   8.163 -0.5316 -0.0368 -0.2416
  798Sol     HW 6218   2.018   0.757   8.207  0.9269 -0.0781 -2.3422
  798Sol     HW 6219   1.899   0.772   8.114 -0.1661 -0.3209 -1.0101
  798Sol     MW 6220   1.951   0.717   8.162 -0.0864 -0.2265 -0.2018
  799Sol     OW 6221   1.397   0.622   7.817 -0.4215 -0.7483  0.4171
  799Sol     HW 6222   1.344   0.642   7.894  1.0108  0.7934  1.0419
  799Sol     HW 6223   1.398   0.527   7.812 -1.8099 -0.8226  1.3952
  799Sol     MW 6224   1.393   0.615   7.823  0.4264  0.5028 -0.2142
  800Sol     OW 6225   2.775   0.624   3.936 -0.3087  0.2905  0.1717
  800Sol     HW 6226   2.691   0.641   3.894  0.5507  1.3708 -1.1364
  800Sol     HW 6227   2.787   0.529   3.929 -2.1379 -0.0918  1.7839
  800Sol     MW 6228   2.768   0.617   3.932  0.0938 -0.2757  0.0747
  801Sol     OW 6229   1.999   0.341   6.735  0.4392 -0.0494  0.4700
  801Sol     HW 6230   2.032   0.357   6.824 -0.2247  0.0202  0.7121
  801Sol     HW 6231   2.008   0.425   6.690 -1.3535  0.5472  1.1820
  801Sol     MW 6232   2.003   0.350   6.739  0.1936  0.6088 -0.4211
  802Sol     OW 6233   3.147   1.451   3.102 -0.5435  0.0510 -0.4816
  802Sol     HW 6234   3.166   1.370   3.149 -3.4077  0.0016  0.6396
  802Sol     HW 6235   3.162   1.429   3.010 -1.0441 -1.6639 -0.1645
  802Sol     MW 6236   3.150   1.441   3.098  0.2329 -0.8580 -0.1157
  803Sol     OW 6237   0.683   2.270   4.262 -0.1087 -0.0440 -0.0596
  803Sol     HW 6238   0.590   2.266   4.239 -0.4533 -0.0044  1.3129
  803Sol     HW 6239   0.701   2.185   4.301 -0.1980  0.8653  2.0153
  803Sol     MW 6240   0.676   2.262   4.263  0.4964 -0.0439 -0.4199
  804Sol     OW 6241   0.954   1.830   5.880  0.0047  0.3734  0.1382
  804Sol     HW 6242   0.883   1.880   5.839 -1.0547 -0.9883  0.2599
  804Sol     HW 6243   1.032   1.884   5.866 -0.9658  1.6867 -0.4038
  804Sol     MW 6244   0.955   1.840   5.875 -0.6515 -0.3152 -0.1158
  805Sol     OW 6245   0.563   2.023   5.495 -0.1214  0.1389  0.0456
  805Sol     HW 6246   0.516   2.098   5.458 -0.6188 -1.1923 -2.1481
  805Sol     HW 6247   0.494   1.958   5.514  0.3649 -0.0286  1.3035
  805Sol     MW 6248   0.553   2.024   5.493  0.3478  0.1422 -0.0902
  806Sol     OW 6249   1.224   2.259   9.313 -0.5413 -0.0131 -0.5554
  806Sol     HW 6250   1.255   2.170   9.299 -1.1603 -0.0296 -1.9247
  806Sol     HW 6251   1.142   2.264   9.264 -0.3011  1.4310 -0.8491
  806Sol     MW 6252   1.219   2.251   9.308 -0.7081 -0.2336 -0.5288
  807Sol     OW 6253   2.860   3.258   7.081 -0.0215 -0.0292 -0.5131
  807Sol     HW 6254   2.778   3.307   7.090  0.8235  1.0344  1.6364
  807Sol     HW 6255   2.835   3.178   7.033 -2.0800  0.8144 -0.8981
  807Sol     MW 6256   2.850   3.255   7.078  0.6527 -0.0353  0.1312
  808Sol     OW 6257   1.781   3.021   7.608  0.5933 -0.1562 -0.2905
  808Sol     HW 6258   1.843   3.046   7.539  0.8469 -0.3159 -0.1262
  808Sol     HW 6259   1.834   2.970   7.669  0.0847 -1.1095 -0.6341
  808Sol     MW 6260   1.792   3.018   7.607 -0.0485  0.2933  0.1457
  809Sol     OW 6261   2.531   1.099   8.289  0.1822  0.2218  0.2413
  809Sol     HW 6262   2.542   1.183   8.334  0.2931  0.7142 -0.7031
  809Sol     HW 6263   2.561   1.034   8.353 -0.2937  0.8665  1.1262
  809Sol     MW 6264   2.535   1.100   8.299  0.2327 -0.1635  0.3821
  810Sol     OW 6265   2.558   0.276   6.200  0.2957  0.5870 -0.4922
  810Sol     HW 6266   2.554   0.312   6.111 -2.1318  0.7915 -0.3419
  810Sol     HW 6267   2.481   0.220   6.207  0.3441  0.7248  1.5484
  810Sol     MW 6268   2.551   0.274   6.193  0.1168  0.3411 -0.0676
  811Sol     OW 6269   2.025   1.479   5.111  0.0569 -0.3836  0.1301
  811Sol     HW 6270   2.073   1.553   5.075 -1.0375  0.5843  0.6539
  811Sol     HW 6271   2.005   1.424   5.034  1.4084 -0.4636 -0.1705
  811Sol     MW 6272   2.027   1.480   5.101  0.2019  0.2322 -0.4923
  812Sol     OW 6273   0.244   2.683   2.197  0.3506  0.1773 -0.0171
  812Sol     HW 6274   0.226   2.732   2.117 -1.4814 -0.5450 -0.0776
  812Sol     HW 6275   0.201   2.599   2.184 -2.0866  0.8980  2.6583
  812Sol     MW 6276   0.239   2.680   2.189 -0.2541  0.3346 -0.4444
  813Sol     OW 6277   2.757   0.876   4.589  0.5229 -0.2122  0.0512
  813Sol     HW 6278   2.784   0.785   4.574  0.3324 -0.2841  0.1371
  813Sol     HW 6279   2.834   0.918   4.628  0.3358 -0.5500  0.7790
  813Sol     MW 6280   2.766   0.872   4.591  0.1856 -0.1532  0.0154
  814Sol     OW 6281   1.990   2.644   4.595 -0.5949  0.3791 -0.6336
  814Sol     HW 6282   1.989   2.686   4.681  2.0202  1.1319 -0.9316
  814Sol     HW 6283   1.983   2.551   4.614 -0.7757  0.5899  0.3487
  814Sol     MW 6284   1.989   2.639   4.604  0.0637 -0.5558 -0.3053
  815Sol     OW 6285   1.413   3.282   7.109  0.3263  0.0456 -0.4925
  815Sol     HW 6286   1.376   3.283   7.020  2.7896  1.0948 -1.5486
  815Sol     HW 6287   1.378   3.361   7.150 -3.2301 -1.9524  0.5807
  815Sol     MW 6288   1.406   3.289   7.105 -0.0710 -0.4425 -0.2017
  816Sol     OW 6289   1.590   0.952   2.639 -0.5469 -0.3150 -0.6620
  816Sol     HW 6290   1.657   0.897   2.598 -1.2628 -0.5509 -1.5204
  816Sol     HW 6291   1.637   1.033   2.661  0.0199 -0.4758 -1.2630
  816Sol     MW 6292   1.600   0.955   2.637  0.6269  0.4255 -0.3776
  817Sol     OW 6293   0.624   2.299   4.876  0.3183 -0.1738 -0.4436
  817Sol     HW 6294   0.659   2.249   4.802  3.1365 -0.1868  0.8393
  817Sol     HW 6295   0.634   2.241   4.951  0.6729  1.1157  0.5187
  817Sol     MW 6296   0.628   2.290   4.876  0.8355  0.0331  0.8177
  818Sol     OW 6297   2.061   2.275   7.622 -0.1682  0.3596 -0.4136
  818Sol     HW 6298   2.140   2.255   7.672  0.6732  3.9940 -0.1515
  818Sol     HW 6299   2.058   2.208   7.554  1.8929 -1.1683  0.9590
  818Sol     MW 6300   2.068   2.267   7.620  0.6989  0.1888 -0.7909
  819Sol     OW 6301   3.108   2.503   5.644 -0.1414  0.1690 -0.0789
  819Sol     HW 6302   3.193   2.522   5.606  0.8288 -2.3565  0.7466
  819Sol     HW 6303   3.088   2.579   5.699  1.3685  0.9614 -0.6206
  819Sol     MW 6304   3.114   2.511   5.645 -0.2001 -0.3664 -0.3625
  820Sol     OW 6305   0.134   0.226   8.303  0.1708 -0.0949  0.2283
  820Sol     HW 6306   0.136   0.134   8.274 -0.9094 -0.7097  2.0187
  820Sol     HW 6307   0.115   0.276   8.223  0.6070 -1.4464 -0.7358
  820Sol     MW 6308   0.132   0.222   8.293 -0.0084 -0.1307  0.5626
  821Sol     OW 6309   0.733   0.803   2.506 -0.4771 -0.6015  0.7718
  821Sol     HW 6310   0.650   0.807   2.458 -0.5521 -1.5670  0.8120
  821Sol     HW 6311   0.716   0.743   2.578  0.4477 -1.2954  0.4183
  821Sol     MW 6312   0.724   0.798   2.508 -0.6012  0.0502 -0.0690
  822Sol     OW 6313   1.816   2.709   5.764 -0.6003 -0.3728  0.0177
  822Sol     HW 6314   1.777   2.758   5.837  1.0727  1.4744 -0.2571
  822Sol     HW 6315   1.819   2.619   5.795 -3.5510 -0.3132  0.6509
  822Sol     MW 6316   1.813   2.705   5.773 -0.3232 -0.6116  0.4157
  823Sol     OW 6317   2.371   0.004   7.445  0.0506 -0.0290  0.1156
  823Sol     HW 6318   2.361   0.090   7.486 -1.2464 -0.2297  0.2596
  823Sol     HW 6319   2.456  -0.027   7.475  1.0553  1.7028 -0.9066
  823Sol     MW 6320   2.377   0.009   7.452  0.3104 -0.6639  0.3637
  824Sol     OW 6321   2.622   3.210   4.810  0.2352  0.1049  0.2820
  824Sol     HW 6322   2.630   3.127   4.859  1.4649  0.3469  0.5240
  824Sol     HW 6323   2.591   3.273   4.875  0.2072  0.0441  0.3284
  824Sol     MW 6324   2.620   3.208   4.820 -0.2554 -0.0404 -0.4956
  825Sol     OW 6325   2.706   2.288   5.430  0.3126  0.1505 -0.1806
  825Sol     HW 6326   2.630   2.318   5.481 -0.9335 -1.0948 -1.2589
  825Sol     HW 6327   2.777   2.285   5.494 -0.0232  3.2489  0.4201
  825Sol     MW 6328   2.705   2.290   5.441  0.4857  0.5810  0.7376
  826Sol     OW 6329   1.325   0.295   6.476 -0.1859  0.7933  0.3687
  826Sol     HW 6330   1.300   0.335   6.393  1.1405 -0.1524 -0.5043
  826Sol     HW 6331   1.420   0.304   6.479 -0.2163  0.7593  1.7545
  826Sol     MW 6332   1.331   0.300   6.469 -0.4185  0.3392 -0.2511
  827Sol     OW 6333   2.432   3.129   4.359 -0.2919  0.3188 -0.0165
  827Sol     HW 6334   2.446   3.035   4.353  0.0495  0.4262 -0.9279
  827Sol     HW 6335   2.353   3.145   4.306  0.1308  0.6565 -0.5471
  827Sol     MW 6336   2.426   3.122   4.354 -0.0025  0.0911 -0.6875
  828Sol     OW 6337   2.219   2.892   6.635  0.0208 -1.2650  0.0200
  828Sol     HW 6338   2.305   2.932   6.619 -1.2202  1.1124 -1.0883
  828Sol     HW 6339   2.215   2.882   6.730  0.2464  1.8101  0.4337
  828Sol     MW 6340   2.227   2.895   6.642 -0.4005  0.2425  0.0763
  829Sol     OW 6341   1.355   0.182   5.976  0.0906 -0.5543  0.1475
  829Sol     HW 6342   1.332   0.182   5.883 -1.1727 -1.5664  0.4430
  829Sol     HW 6343   1.281   0.224   6.019  0.5946 -0.2444  0.7231
  829Sol     MW 6344   1.347   0.186   5.972  0.5099 -0.4519 -0.3660
  830Sol     OW 6345   2.712   2.127   6.827 -0.1278  0.2698  0.2769
  830Sol     HW 6346   2.619   2.104   6.828 -0.5857  1.9904  2.9325
  830Sol     HW 6347   2.744   2.099   6.913  1.3852  1.2492  0.0492
  830Sol     MW 6348   2.707   2.123   6.835  0.6004 -0.0860 -0.4992
  831Sol     OW 6349   1.075   0.310   3.169 -0.1264 -0.2039  0.2567
  831Sol     HW 6350   0.996   0.313   3.115 -0.3463  0.7390  0.6171
  831Sol     HW 6351   1.084   0.400   3.201 -0.4390 -0.9339  2.4177
  831Sol     MW 6352   1.068   0.318   3.167  0.1131 -0.2119  0.0718
  832Sol     OW 6353   0.155   0.562   3.649  0.0405 -0.1238  0.2728
  832Sol     HW 6354   0.091   0.511   3.699  2.6817 -2.5532  1.3165
  832Sol     HW 6355   0.111   0.580   3.566 -1.7909 -2.2520  0.7069
  832Sol     MW 6356   0.145   0.559   3.646 -0.2386  0.0654  0.1255
  833Sol     OW 6357   1.885   2.784   3.407  0.5789  0.1310 -0.1377
  833Sol     HW 6358   1.913   2.702   3.366  0.3813  0.2583 -0.5285
  833Sol     HW 6359   1.901   2.771   3.500 -0.0801 -0.6104 -0.1220
  833Sol     MW 6360   1.889   2.776   3.411  0.3536 -0.6718 -0.5114
  834Sol     OW 6361   2.496   2.558   3.925 -0.1105  0.1485 -0.2667
  834Sol     HW 6362   2.582   2.582   3.961 -0.7701  0.2895  1.2774
  834Sol     HW 6363   2.473   2.477   3.971  0.1979 -1.1490 -2.3439
  834Sol     MW 6364   2.502   2.553   3.933 -0.1994  0.2583  0.1113
  835Sol     OW 6365   1.218   1.862   6.201 -0.3497 -0.3170 -0.3932
  835Sol     HW 6366   1.257   1.864   6.289  0.3319 -0.7242 -0.6815
  835Sol     HW 6367   1.124   1.853   6.217 -0.6125  2.9926  0.3621
  835Sol     MW 6368   1.213   1.861   6.210 -0.0083  0.5542  0.6583
  836Sol     OW 6369   1.502   3.326   4.289  0.1011 -0.9058  0.0944
  836Sol     HW 6370   1.487   3.256   4.352  0.3487 -2.1986 -1.2560
  836Sol     HW 6371   1.503   3.283   4.204  0.2696  0.7366 -0.7697
  836Sol     MW 6372   1.501   3.316   4.287  0.0143  0.1605  0.0726
  837Sol     OW 6373   2.964   3.134   4.678  0.3352 -0.2968 -0.0701
  837Sol     HW 6374   2.958   3.045   4.642  0.8186 -0.9401  1.4285
  837Sol     HW 6375   2.880   3.174   4.654 -1.1097 -2.1146  1.7286
  837Sol     MW 6376   2.956   3.129   4.673 -0.3605  0.4058 -0.2444
  838Sol     OW 6377   2.835   0.644   6.127 -0.2574 -0.0505  0.2999
  838Sol     HW 6378   2.918   0.685   6.154 -0.8500  0.1132  1.9197
  838Sol     HW 6379   2.842   0.554   6.158  0.2812 -0.7051 -1.6565
  838Sol     MW 6380   2.843   0.640   6.133  0.2193 -0.4760 -0.2816
  839Sol     OW 6381   2.242   2.614   3.767  0.0222  1.1098 -0.2484
  839Sol     HW 6382   2.301   2.677   3.807  0.2701  0.9760 -0.4063
  839Sol     HW 6383   2.232   2.545   3.833  0.1888  1.0405 -0.2956
  839Sol     MW 6384   2.246   2.613   3.776 -0.1983  0.0876  0.2371
  840Sol     OW 6385   2.379   0.537   1.412 -0.1878 -0.1632 -0.5438
  840Sol     HW 6386   2.458   0.509   1.458 -0.0518  0.9212 -0.1127
  840Sol     HW 6387   2.313   0.472   1.436 -0.0586  0.2612  1.0133
  840Sol     MW 6388   2.381   0.528   1.418  0.0944  0.2999 -0.1675
  841Sol     OW 6389   0.343   2.788   2.574 -0.3066  0.3290  0.2939
  841Sol     HW 6390   0.348   2.883   2.564 -0.5632  0.2707 -0.4245
  841Sol     HW 6391   0.273   2.761   2.514  0.6311 -0.4494 -0.4665
  841Sol     MW 6392   0.337   2.794   2.568  0.2750 -0.0889  0.2767
  842Sol     OW 6393   2.640   2.857   6.775  0.7773 -0.4887 -0.1800
  842Sol     HW 6394   2.703   2.794   6.740 -1.0442 -1.8640 -1.0627
  842Sol     HW 6395   2.608   2.817   6.856  2.5834  1.1882  1.3832
  842Sol     MW 6396   2.643   2.848   6.779  0.3084 -0.2541  0.3405
  843Sol     OW 6397   2.294   3.167   2.533  0.6525  0.1614 -0.7674
  843Sol     HW 6398   2.331   3.234   2.475  0.7016  0.1238 -0.7806
  843Sol     HW 6399   2.369   3.135   2.583  0.7033 -0.1685 -1.0494
  843Sol     MW 6400   2.304   3.170   2.532 -0.2463 -0.6076  0.2189
  844Sol     OW 6401   1.246   2.237   8.447 -0.2405 -0.6277  0.0940
  844Sol     HW 6402   1.198   2.185   8.511 -1.2627  2.7371  2.1887
  844Sol     HW 6403   1.338   2.222   8.467 -0.5448 -0.4515  1.6427
  844Sol     MW 6404   1.250   2.231   8.454  0.5970  0.2558 -0.3680
  845Sol     OW 6405   3.171   2.269   4.121 -0.5577 -0.1273 -0.0703
  845Sol     HW 6406   3.259   2.244   4.092 -0.7154 -1.1430  0.3077
  845Sol     HW 6407   3.166   2.363   4.103 -0.3714 -0.5587 -2.6165
  845Sol     MW 6408   3.178   2.275   4.116 -0.1473  0.4661  0.4476
  846Sol     OW 6409   3.198   1.191  10.025 -0.0127 -0.2638 -0.4364
  846Sol     HW 6410   3.219   1.199  10.118 -0.4268  0.0965 -0.3720
  846Sol     HW 6411   3.280   1.162   9.984 -0.1649 -1.7072  0.2307
  846Sol     MW 6412   3.207   1.189  10.030 -0.6397 -0.3364 -0.7440
  847Sol     OW 6413   1.219   3.201   8.692 -0.7681 -0.6599 -0.3775
  847Sol     HW 6414   1.132   3.171   8.665 -1.4512 -0.6652  1.7607
  847Sol     HW 6415   1.251   3.133   8.751  0.4336 -0.3527 -0.6590
  847Sol     MW 6416   1.214   3.192   8.695  0.1934 -0.6307  0.1874
  848Sol     OW 6417   0.069   3.301   9.064  0.4513  0.5169 -0.3023
  848Sol     HW 6418   0.150   3.251   9.062  1.0085  1.3041  1.2730
  848Sol     HW 6419   0.097   3.393   9.062 -0.4059  0.7931  0.0756
  848Sol     MW 6420   0.079   3.305   9.064 -0.6241 -0.3403 -0.0204
  849Sol     OW 6421   0.237   1.614   7.860  0.2517 -0.6240  0.4521
  849Sol     HW 6422   0.277   1.528   7.845  0.0728 -0.7310  0.5746
  849Sol     HW 6423   0.277   1.645   7.941  0.6174 -0.4105  0.1896
  849Sol     MW 6424   0.244   1.609   7.866  0.8011  0.2932 -0.2858
  850Sol     OW 6425   2.034   3.296   5.684 -0.3206  0.4034 -0.1784
  850Sol     HW 6426   2.118   3.267   5.647 -0.8708  0.1228 -1.2342
  850Sol     HW 6427   2.039   3.392   5.682 -0.6535  0.4123 -1.7608
  850Sol     MW 6428   2.042   3.302   5.680 -0.4359  0.2318 -0.2139
  851Sol     OW 6429   2.699   0.065   3.793 -0.0940  0.1099  0.2313
  851Sol     HW 6430   2.779   0.030   3.753 -1.1262 -2.3615  0.2114
  851Sol     HW 6431   2.646   0.094   3.719  0.1517  0.3383  0.1451
  851Sol     MW 6432   2.701   0.064   3.783  0.4453  0.0291  0.1862
  852Sol     OW 6433   1.863   0.295   2.027  0.0699 -0.3950 -0.2436
  852Sol     HW 6434   1.870   0.353   2.103 -0.7295 -2.4854  1.4683
  852Sol     HW 6435   1.791   0.332   1.975 -0.4840  0.1005  0.8640
  852Sol     MW 6436   1.857   0.304   2.029  0.0370  0.2505 -0.2806
  853Sol     OW 6437   1.547   1.857   8.457 -0.0264 -0.2733  0.1351
  853Sol     HW 6438   1.642   1.859   8.447 -0.2501  0.1721 -2.2171
  853Sol     HW 6439   1.519   1.778   8.410 -0.7933 -0.5218  1.0047
  853Sol     MW 6440   1.553   1.850   8.452 -0.6412  0.1423  0.0454
  854Sol     OW 6441   2.685   1.438   1.808 -0.2813 -0.0386 -0.1784
  854Sol     HW 6442   2.736   1.515   1.832 -1.5940  1.6689 -2.6856
  854Sol     HW 6443   2.743   1.388   1.749 -0.0285 -0.1776  0.1837
  854Sol     MW 6444   2.695   1.440   1.805 -0.6755 -0.2679 -0.2167
  855Sol     OW 6445   2.094   1.203   6.755 -0.4017 -0.5823  0.1667
  855Sol     HW 6446   2.141   1.119   6.760  0.5632 -0.0873 -0.5208
  855Sol     HW 6447   2.143   1.261   6.813 -1.6051 -0.7341  1.3558
  855Sol     MW 6448   2.103   1.200   6.761 -0.6339  0.7647  0.4966
  856Sol     OW 6449   1.497   0.124   3.180 -0.0596  0.3700 -0.4182
  856Sol     HW 6450   1.406   0.105   3.160 -0.2438  0.3143  0.4509
  856Sol     HW 6451   1.498   0.218   3.200 -0.0500  0.2341  0.2339
  856Sol     MW 6452   1.489   0.131   3.180  0.0310 -0.2010  0.8445
  857Sol     OW 6453   1.262   2.986   6.531 -0.0688  0.5170  0.1281
  857Sol     HW 6454   1.188   2.984   6.590  1.2841  1.1486  1.8825
  857Sol     HW 6455   1.286   2.894   6.518 -1.4913  0.2828 -0.9001
  857Sol     MW 6456   1.258   2.978   6.535 -0.1415 -0.2908  0.5372
  858Sol     OW 6457   0.707   2.892   9.618 -0.2143 -0.5351  0.1440
  858Sol     HW 6458   0.668   2.961   9.672 -0.3436 -0.1084 -0.4879
  858Sol     HW 6459   0.799   2.892   9.642 -0.3533 -0.6578  0.6924
  858Sol     MW 6460   0.711   2.898   9.625 -0.2682  0.0080 -0.1213
  859Sol     OW 6461   1.557   0.161   2.678 -0.2569 -0.4022 -0.4494
  859Sol     HW 6462   1.529   0.209   2.756 -0.9887  0.1405 -1.0332
  859Sol     HW 6463   1.635   0.113   2.705  0.4632  1.0963  0.1479
  859Sol     MW 6464   1.561   0.161   2.688 -0.1866 -0.5167  0.3184
  860Sol     OW 6465   2.518   2.515   6.602 -0.1507 -0.0596  0.5270
  860Sol     HW 6466   2.486   2.477   6.520  0.3849 -0.7209  0.6233
  860Sol     HW 6467   2.609   2.538   6.584 -0.3989  0.9764  0.5458
  860Sol     MW 6468   2.523   2.514   6.593 -0.0958 -0.3072 -0.2229
  861Sol     OW 6469   2.712   2.406   3.000  0.6422  0.0610 -0.1906
  861Sol     HW 6470   2.803   2.404   3.030  1.4886  2.6879 -2.3516
  861Sol     HW 6471   2.664   2.449   3.071  1.8497  2.2778 -0.6548
  861Sol     MW 6472   2.716   2.410   3.009 -0.1438 -0.2230 -0.1320
  862Sol     OW 6473   1.500   0.295   8.634 -0.0035  0.0878  0.2028
  862Sol     HW 6474   1.497   0.267   8.542 -0.3935  2.6147 -0.5713
  862Sol     HW 6475   1.579   0.349   8.639 -0.0188 -0.0045  1.3623
  862Sol     MW 6476   1.507   0.297   8.626  0.3260  0.4537  0.4339
  863Sol     OW 6477   1.364   0.313   4.916 -0.6801  0.3288 -0.5932
  863Sol     HW 6478   1.420   0.316   4.993 -0.1298  1.3784 -1.0206
  863Sol     HW 6479   1.417   0.352   4.846 -1.7299  0.8239 -1.1323
  863Sol     MW 6480   1.374   0.317   4.916 -0.5650  0.8811  0.1381
  864Sol     OW 6481   0.989   0.974   3.251 -0.3760  0.0628 -0.0503
  864Sol     HW 6482   1.003   1.001   3.160 -0.7419 -0.9646 -0.4243
  864Sol     HW 6483   0.936   0.895   3.244 -0.2042 -0.1570  1.0576
  864Sol     MW 6484   0.985   0.969   3.242 -0.9779 -0.3006  0.0844
  865Sol     OW 6485   3.161   0.412   9.942  0.8271  0.6200 -0.0216
  865Sol     HW 6486   3.211   0.393   9.863 -0.6445  0.1316 -0.8566
  865Sol     HW 6487   3.195   0.497   9.971  0.9994  1.0856 -1.5036
  865Sol     MW 6488   3.168   0.418   9.937 -0.0002 -0.0674  0.1463
  866Sol     OW 6489   1.077   2.635   8.268 -0.0836  0.5986  0.9806
  866Sol     HW 6490   1.006   2.662   8.209 -0.7336  2.4253  2.5705
  866Sol     HW 6491   1.157   2.656   8.221 -0.5896 -0.1847 -0.2527
  866Sol     MW 6492   1.078   2.639   8.259  0.1730  0.2462 -0.2143
  867Sol     OW 6493   2.288   1.433   5.574 -0.0831 -0.0258 -0.1663
  867Sol     HW 6494   2.271   1.524   5.597 -2.0341 -0.5900  0.6758
  867Sol     HW 6495   2.378   1.417   5.602 -0.5603  0.9260  1.9609
  867Sol     MW 6496   2.295   1.440   5.578 -0.2442 -0.2948  0.6485
  868Sol     OW 6497   2.879   1.685   8.386  0.2137 -0.0624  0.2172
  868Sol     HW 6498   2.852   1.684   8.294  1.5713 -1.4306 -0.1736
  868Sol     HW 6499   2.933   1.764   8.394 -0.0024  0.1214 -0.1167
  868Sol     MW 6500   2.881   1.692   8.379  1.0151 -0.7132 -0.9683
  869Sol     OW 6501   2.514   0.559   2.035  0.0128 -0.2929 -0.6375
  869Sol     HW 6502   2.530   0.579   1.943 -0.1633 -1.1279 -0.8546
  869Sol     HW 6503   2.582   0.606   2.082 -0.2133  0.5636 -1.1568
  869Sol     MW 6504   2.521   0.565   2.031  0.0660 -0.0143  0.9226
  870Sol     OW 6505   1.679   0.773   8.574  0.2807  0.2637  0.1620
  870Sol     HW 6506   1.634   0.704   8.622 -2.5103  0.4022 -2.1158
  870Sol     HW 6507   1.759   0.731   8.541 -0.6685 -1.4659  0.0286
  870Sol     MW 6508   1.682   0.763   8.575 -1.1626 -0.7732  0.2386
  871Sol     OW 6509   0.925   1.466   3.859 -0.2417  0.4710  0.0274
  871Sol     HW 6510   0.986   1.458   3.786  1.9876  2.6793  1.5775
  871Sol     HW 6511   0.840   1.479   3.817  1.0937  2.4010 -2.2070
  871Sol     MW 6512   0.923   1.466   3.848 -0.7306  0.4044  0.2755
  872Sol     OW 6513   0.997   1.206   5.361  0.2633 -0.6498 -0.1058
  872Sol     HW 6514   1.069   1.263   5.332 -2.0673  0.4660 -4.1471
  872Sol     HW 6515   1.020   1.120   5.326 -0.7750 -0.0859 -2.2445
  872Sol     MW 6516   1.006   1.204   5.355  0.5456 -0.5039 -0.0467
  873Sol     OW 6517   0.465   0.750   4.553 -0.4626 -0.5484 -0.1315
  873Sol     HW 6518   0.415   0.668   4.548 -0.9095 -0.2528 -0.6374
  873Sol     HW 6519   0.465   0.782   4.463  1.1585 -0.8451 -0.2377
  873Sol     MW 6520   0.460   0.745   4.544 -0.7643 -0.3484 -0.1293
  874Sol     OW 6521   3.168   1.426   5.814  0.5149 -0.2578 -0.2574
  874Sol     HW 6522   3.096   1.368   5.842  0.9124  0.0543  1.4928
  874Sol     HW 6523   3.125   1.507   5.790  0.0497 -0.9190 -1.7113
  874Sol     MW 6524   3.158   1.428   5.814 -0.4913 -0.5130  0.7321
  875Sol     OW 6525   0.591   3.203   3.049  0.4352 -0.2772 -0.5970
  875Sol     HW 6526   0.580   3.144   3.124 -0.7750  0.0813 -0.4812
  875Sol     HW 6527   0.654   3.159   2.993  2.2323 -0.0338  1.1694
  875Sol     MW 6528   0.596   3.194   3.051  0.3578  0.1823 -0.0468
  876Sol     OW 6529   0.599   0.019   8.722 -0.5539 -0.0041  0.3008
  876Sol     HW 6530   0.679   0.039   8.673  0.0061 -0.2940  1.0922
  876Sol     HW 6531   0.583   0.098   8.774  0.4489 -0.7712  1.7956
  876Sol     MW 6532   0.605   0.028   8.722  0.7194 -0.5075  0.2959
  877Sol     OW 6533   1.219   0.098   9.336 -0.1938 -0.1136  0.0098
  877Sol     HW 6534   1.228   0.133   9.247  1.9209  0.9239  0.5942
  877Sol     HW 6535   1.224   0.174   9.392 -1.3209 -0.7915  1.0447
  877Sol     MW 6536   1.220   0.108   9.333  0.3034 -0.0439  0.4839
  878Sol     OW 6537   3.323   1.643   7.503  0.3187  0.2638  0.1413
  878Sol     HW 6538   3.238   1.686   7.513  0.7814  1.2680 -0.1813
  878Sol     HW 6539   3.317   1.597   7.419 -0.5060 -1.0937  0.9191
  878Sol     MW 6540   3.315   1.642   7.496 -0.3039 -0.0240 -0.5511
  879Sol     OW 6541   3.273   0.295   5.344  0.2998 -0.3750  0.1189
  879Sol     HW 6542   3.314   0.240   5.410  2.4618 -0.5956 -1.3587
  879Sol     HW 6543   3.340   0.359   5.321 -1.6383  1.9522  0.6813
  879Sol     MW 6544   3.283   0.296   5.348  0.1148 -0.0071 -0.0442
  880Sol     OW 6545   2.848   0.704   6.440  0.5027 -0.5051  0.1394
  880Sol     HW 6546   2.854   0.615   6.405  0.3719 -1.1462  1.7003
  880Sol     HW 6547   2.926   0.713   6.495  0.5079  0.3429 -0.0099
  880Sol     MW 6548   2.855   0.697   6.442  0.3757 -0.0278 -0.3124
  881Sol     OW 6549   1.528   2.766   2.680  0.1422 -0.1046 -0.0564
  881Sol     HW 6550   1.528   2.670   2.678 -0.8475 -0.1442  0.9506
  881Sol     HW 6551   1.510   2.787   2.772 -0.7218  1.0359 -0.4873
  881Sol     MW 6552   1.526   2.759   2.688 -0.0304 -0.2129  0.5605
  882Sol     OW 6553   0.420   1.502   3.828 -0.7824 -0.4099  0.5130
  882Sol     HW 6554   0.420   1.523   3.735  0.0127  0.6650  0.7464
  882Sol     HW 6555   0.410   1.407   3.831 -2.5478 -0.2917 -0.6248
  882Sol     MW 6556   0.419   1.496   3.820  0.0269 -0.3278 -0.3069
  883Sol     OW 6557   0.788   2.235   8.408  0.9755  0.4318 -0.0054
  883Sol     HW 6558   0.755   2.291   8.338 -1.2920  2.3835  2.4881
  883Sol     HW 6559   0.878   2.265   8.423  0.9789  0.9900 -1.1265
  883Sol     MW 6560   0.793   2.243   8.403  1.0579  0.7689 -0.1800
  884Sol     OW 6561   0.620   1.357   7.773  0.2364 -0.2292 -0.3957
  884Sol     HW 6562   0.675   1.315   7.839 -1.6269 -0.1285  1.2698
  884Sol     HW 6563   0.589   1.286   7.717 -0.2137 -0.6529  0.3867
  884Sol     MW 6564   0.622   1.347   7.774  0.2362 -0.7440 -0.0075
  885Sol     OW 6565   0.957   0.793   7.236 -0.6432  0.4624  0.2534
  885Sol     HW 6566   0.908   0.813   7.315 -0.5586 -1.0324  0.7060
  885Sol     HW 6567   0.934   0.702   7.216  0.7299  0.2457 -0.4140
  885Sol     MW 6568   0.951   0.786   7.241 -0.1612  0.0185  0.4676
  886Sol     OW 6569   0.823   1.261   8.394  0.5397 -0.0684  0.2541
  886Sol     HW 6570   0.756   1.312   8.348 -0.1861 -0.7896  0.5196
  886Sol     HW 6571   0.904   1.281   8.347 -0.0887 -0.2898 -0.9346
  886Sol     MW 6572   0.824   1.268   8.386 -0.2547  0.3574  0.0527
  887Sol     OW 6573   2.251   3.105   7.473 -0.0507  0.2629 -0.2025
  887Sol     HW 6574   2.281   3.159   7.400 -2.6512  1.3237 -0.5621
  887Sol     HW 6575   2.157   3.124   7.479 -0.3242 -1.5825  1.9282
  887Sol     MW 6576   2.245   3.112   7.467 -0.5600 -0.7023  0.5769
  888Sol     OW 6577   0.272   1.604   9.870  0.1417 -0.6485 -0.3276
  888Sol     HW 6578   0.364   1.591   9.890  0.0631 -0.4488  0.1736
  888Sol     HW 6579   0.242   1.519   9.838  0.2352 -1.0069  0.5425
  888Sol     MW 6580   0.277   1.595   9.869  0.2298 -0.0837 -0.3580
  889Sol     OW 6581   1.541   1.102   8.002 -0.0542  0.2955  0.7945
  889Sol     HW 6582   1.508   1.130   8.087 -0.8687  0.1731  0.5257
  889Sol     HW 6583   1.634   1.125   8.003 -0.5839  2.4790  0.8043
  889Sol     MW 6584   1.547   1.106   8.010 -0.2738  0.7449  0.3870
  890Sol     OW 6585   1.961   3.217   6.970  0.0551  0.1240  0.5121
  890Sol     HW 6586   1.893   3.153   6.992  1.0798 -1.3900 -0.6268
  890Sol     HW 6587   1.933   3.252   6.885  0.2906  0.0481  0.4028
  890Sol     MW 6588   1.952   3.214   6.964  0.5585 -0.3565 -0.1167
  891Sol     OW 6589   1.674   2.310   3.668  0.1098 -0.1516 -0.3672
  891Sol     HW 6590   1.759   2.322   3.627 -0.6235  0.5209 -1.7162
  891Sol     HW 6591   1.611   2.341   3.603 -1.1470 -0.3066  0.7502
  891Sol     MW 6592   1.676   2.314   3.659 -0.2580 -0.6375 -0.4442
  892Sol     OW 6593   1.450   1.170   3.705 -0.4968  0.4692 -0.3502
  892Sol     HW 6594   1.495   1.254   3.697 -0.6241  0.3572 -2.3965
  892Sol     HW 6595   1.357   1.192   3.697 -0.5085  0.0958 -1.2966
  892Sol     MW 6596   1.445   1.179   3.704 -0.7312  0.1811  0.1821
  893Sol     OW 6597   1.972   2.861   9.782 -0.3580  0.4817  0.4040
  893Sol     HW 6598   2.026   2.927   9.738  0.7647 -1.3316 -1.0132
  893Sol     HW 6599   2.024   2.834   9.858 -1.0347  1.5579  1.2619
  893Sol     MW 6600   1.981   2.865   9.785 -0.6818  0.3746 -0.8206
  894Sol     OW 6601   0.569   0.843   9.348  0.0515  0.2584 -0.2194
  894Sol     HW 6602   0.515   0.777   9.303 -0.2428 -1.2257  2.2050
  894Sol     HW 6603   0.627   0.791   9.404 -0.0592  2.0595  1.6044
  894Sol     MW 6604   0.569   0.832   9.349 -0.0802 -0.5027 -0.4843
  895Sol     OW 6605   2.301   1.843   4.613  0.6581  0.2856  0.2075
  895Sol     HW 6606   2.221   1.896   4.623  0.4253 -0.1780  0.8110
  895Sol     HW 6607   2.369   1.907   4.595 -0.1233  0.5673 -1.9295
  895Sol     MW 6608   2.300   1.854   4.613 -0.1096 -0.4978 -0.0234
  896Sol     OW 6609   0.442   0.487   2.658  0.2031  0.9032 -0.3170
  896Sol     HW 6610   0.520   0.533   2.690  0.9111 -0.7401  0.3558
  896Sol     HW 6611   0.441   0.505   2.564 -0.3431  3.4786  0.1441
  896Sol     MW 6612   0.449   0.493   2.653  0.3633 -0.4750  0.2787
  897Sol     OW 6613   2.255   0.798   1.449 -0.1655  0.6541 -0.9707
  897Sol     HW 6614   2.271   0.703   1.454  1.2501  0.9664  2.2258
  897Sol     HW 6615   2.159   0.806   1.450 -0.2976 -0.7567 -0.9359
  897Sol     MW 6616   2.248   0.790   1.450  0.1024 -0.3196  0.4680
  898Sol     OW 6617   2.567   2.068   2.605 -0.5511  0.4253  0.1191
  898Sol     HW 6618   2.478   2.044   2.579 -1.1342 -0.4664  2.7510
  898Sol     HW 6619   2.615   1.985   2.605  0.2050  0.8599 -1.0016
  898Sol     MW 6620   2.563   2.058   2.603 -0.1151 -0.5784 -0.3478
  899Sol     OW 6621   1.842   2.990   1.905  0.2581  0.8762  0.1877
  899Sol     HW 6622   1.876   3.073   1.938  0.9448  1.0056 -0.8148
  899Sol     HW 6623   1.865   2.926   1.973 -0.6487  1.5710  1.1600
  899Sol     MW 6624   1.847   2.991   1.914 -0.5571 -0.1776 -0.2231
  900Sol     OW 6625   3.035   1.518   7.781  0.1341  0.4571  0.1883
  900Sol     HW 6626   2.999   1.546   7.865  0.5240 -0.0755  0.5433
  900Sol     HW 6627   3.130   1.514   7.796  0.1821  0.0814 -0.1899
  900Sol     MW 6628   3.041   1.520   7.790 -0.3299  0.0475 -0.1353
  901Sol     OW 6629   1.717   0.987   8.384  0.9707 -0.9555 -0.4182
  901Sol     HW 6630   1.803   0.981   8.424 -0.1064 -0.4894  2.0522
  901Sol     HW 6631   1.660   0.933   8.439 -0.8020  0.6793 -0.5766
  901Sol     MW 6632   1.720   0.982   8.392  0.7976 -0.0564  0.0303
  902Sol     OW 6633   2.584   1.911   4.093 -0.2982 -0.2762 -0.3175
  902Sol     HW 6634   2.606   1.822   4.119  2.5987  0.4444 -0.1782
  902Sol     HW 6635   2.530   1.944   4.165  0.9226 -0.9980  0.9588
  902Sol     MW 6636   2.581   1.906   4.102  0.9409 -0.2021  0.0086
  903Sol     OW 6637   0.380   2.223   5.366  0.6041  0.0490 -0.1259
  903Sol     HW 6638   0.417   2.308   5.340  1.9441 -0.9230 -1.4133
  903Sol     HW 6639   0.346   2.239   5.454 -0.1646  2.2317 -0.7763
  903Sol     MW 6640   0.380   2.232   5.372  0.0694  0.3606  0.4781
  904Sol     OW 6641   0.601   0.392   6.814 -0.1464 -0.0571  0.5616
  904Sol     HW 6642   0.513   0.429   6.805 -0.4829 -0.8954  0.3104
  904Sol     HW 6643   0.589   0.299   6.794  0.7454 -0.2281  0.8297
  904Sol     MW 6644   0.592   0.387   6.811  0.1225  0.1984 -0.4623
  905Sol     OW 6645   2.958   0.563   1.677  0.0867  0.3847  0.0234
  905Sol     HW 6646   3.041   0.553   1.723  0.3459 -1.3888 -0.7847
  905Sol     HW 6647   2.958   0.653   1.644  0.5870  1.1775  2.1184
  905Sol     MW 6648   2.965   0.570   1.678  0.3433 -0.0068  0.4047
  906Sol     OW 6649   2.546   1.920   6.318 -0.2849 -0.2480  0.3737
  906Sol     HW 6650   2.484   1.857   6.281 -0.3860  1.5608 -2.7150
  906Sol     HW 6651   2.615   1.865   6.356 -1.0127 -2.2625 -1.1070
  906Sol     MW 6652   2.547   1.909   6.318  0.2516 -0.0312 -0.3440
  907Sol     OW 6653   1.658   2.805   6.429 -0.8073 -0.0182  0.0031
  907Sol     HW 6654   1.693   2.892   6.412  0.7615 -0.2683  1.8040
  907Sol     HW 6655   1.694   2.750   6.359 -0.3896  0.4249 -0.1322
  907Sol     MW 6656   1.664   2.808   6.421  0.2079 -0.0474 -0.1109
  908Sol     OW 6657   3.225   0.901   2.447  0.0454  0.2116 -0.5230
  908Sol     HW 6658   3.176   0.982   2.467  0.7003  0.7414 -1.0605
  908Sol     HW 6659   3.160   0.844   2.407 -0.5770  0.2318  0.4204
  908Sol     MW 6660   3.214   0.903   2.445  0.6254  0.1562  0.5024
  909Sol     OW 6661   3.257   2.404   2.894 -0.5045  0.0524  0.1286
  909Sol     HW 6662   3.343   2.434   2.922 -0.6554  1.7663 -1.2000
  909Sol     HW 6663   3.251   2.429   2.802 -2.7494  0.7152  0.4193
  909Sol     MW 6664   3.264   2.409   2.888  0.3054  0.0171 -0.3805
  910Sol     OW 6665   2.484   1.124   5.245 -0.1604  0.1742 -0.3990
  910Sol     HW 6666   2.490   1.108   5.151 -0.5913  0.0569 -0.4069
  910Sol     HW 6667   2.543   1.061   5.285 -2.7501 -2.3292 -0.3411
  910Sol     MW 6668   2.490   1.117   5.240  0.5231 -0.2441  0.2392
  911Sol     OW 6669   1.746   0.843   3.851  0.1029 -0.2619  0.9865
  911Sol     HW 6670   1.774   0.753   3.840 -1.0984 -0.6283  0.8540
  911Sol     HW 6671   1.826   0.891   3.874  1.1330 -0.9723 -1.0004
  911Sol     MW 6672   1.756   0.840   3.852  0.0641 -0.0972 -0.2289
  912Sol     OW 6673   1.999   2.041   3.184 -0.9663  0.2369 -0.1949
  912Sol     HW 6674   1.922   2.086   3.218 -0.0078  0.1514  2.1605
  912Sol     HW 6675   2.013   1.968   3.244 -0.0502 -0.7580 -1.5842
  912Sol     MW 6676   1.993   2.038   3.192  0.7443 -0.3353  0.4755
  913Sol     OW 6677   0.316   3.372   4.682  0.1521 -0.8849 -0.4039
  913Sol     HW 6678   0.247   3.424   4.723  0.2239 -0.3423 -0.9479
  913Sol     HW 6679   0.299   3.282   4.709  0.0638 -0.5624  0.6095
  913Sol     MW 6680   0.308   3.369   4.688 -0.3287 -0.1955  0.1660
  914Sol     OW 6681   0.616   1.494   2.807 -0.2770 -0.7048 -0.0049
  914Sol     HW 6682   0.585   1.561   2.747  1.0862 -0.0558 -0.0191
  914Sol     HW 6683   0.537   1.452   2.840 -1.1209  0.4692 -0.5059
  914Sol     MW 6684   0.606   1.496   2.805 -0.3909 -0.3191 -0.4329
  915Sol     OW 6685   0.499   1.549   6.310 -0.2583  0.4909 -0.6034
  915Sol     HW 6686   0.481   1.517   6.398  0.5665 -0.0815 -0.6334
  915Sol     HW 6687   0.554   1.627   6.324 -1.0465  1.0422 -0.5765
  915Sol     MW 6688   0.503   1.553   6.319 -0.0080  0.0596  0.5679
  916Sol     OW 6689   3.115   3.140   5.290  0.6727 -0.1800  0.4279
  916Sol     HW 6690   3.110   3.229   5.256  0.2952 -0.5761 -0.5699
  916Sol     HW 6691   3.087   3.147   5.381 -1.6406  0.3490 -0.3046
  916Sol     MW 6692   3.112   3.149   5.295  0.4622  0.2345 -0.2183
  917Sol     OW 6693   2.360   2.999   2.116  0.0003  0.0672  0.8420
  917Sol     HW 6694   2.382   2.993   2.023  0.8188  1.3980  0.9343
  917Sol     HW 6695   2.371   2.910   2.149 -2.0805 -0.8125 -0.7021
  917Sol     MW 6696   2.363   2.990   2.111  0.3484  0.1887 -1.0125
  918Sol     OW 6697   0.335   1.885   4.281  0.1731 -0.3623 -0.2961
  918Sol     HW 6698   0.374   1.803   4.312 -0.3142 -1.0145 -1.3490
  918Sol     HW 6699   0.243   1.862   4.263  0.0123  0.4339 -0.5039
  918Sol     MW 6700   0.330   1.876   4.282 -0.3148 -0.2503  0.0302
  919Sol     OW 6701   1.097   3.182   9.517  0.1714  0.3911  0.1503
  919Sol     HW 6702   1.037   3.118   9.556  1.1388  0.1954  1.3313
  919Sol     HW 6703   1.183   3.140   9.522  0.6681  1.4051  0.0860
  919Sol     MW 6704   1.099   3.172   9.521  0.3024 -0.2832 -0.5067
  920Sol     OW 6705   3.256   0.374   5.748 -0.6703  0.5790  0.4281
  920Sol     HW 6706   3.202   0.433   5.695  2.8294  2.0402 -1.6469
  920Sol     HW 6707   3.268   0.296   5.694 -0.4442  0.3834  0.7588
  920Sol     MW 6708   3.252   0.373   5.739 -0.1364  0.3549 -0.4487
  921Sol     OW 6709   2.306   2.256   3.407 -0.1034  0.0112  0.9278
  921Sol     HW 6710   2.257   2.329   3.445 -3.1943 -0.2524 -2.1885
  921Sol     HW 6711   2.274   2.179   3.454  1.4410  0.4045  2.6449
  921Sol     MW 6712   2.299   2.256   3.414 -0.3375 -0.5772 -0.3184
  922Sol     OW 6713   1.062   2.346   5.474 -0.3293 -0.5546 -0.3026
  922Sol     HW 6714   1.003   2.417   5.499  0.2405  0.0751 -0.7245
  922Sol     HW 6715   1.079   2.298   5.556 -1.9353 -1.1439 -0.2952
  922Sol     MW 6716   1.058   2.348   5.484 -0.2130  0.2325 -0.0910
  923Sol     OW 6717   2.610   1.178   2.003  0.1789 -0.0904 -0.1758
  923Sol     HW 6718   2.565   1.104   1.962  1.3669 -0.8838 -0.0526
  923Sol     HW 6719   2.619   1.242   1.932 -1.6747  0.3402 -0.0563
  923Sol     MW 6720   2.606   1.177   1.993  0.7425  0.1371 -0.0969
  924Sol     OW 6721   2.209   3.105   9.430 -0.3458  0.2812  0.4858
  924Sol     HW 6722   2.255   3.039   9.482 -0.1456 -0.0602 -0.1134
  924Sol     HW 6723   2.278   3.146   9.378 -0.6439  0.0813 -0.0805
  924Sol     MW 6724   2.220   3.103   9.430 -0.2519 -0.0871 -0.2242
  925Sol     OW 6725   2.983   1.632   5.768 -0.5101  0.6494  0.8623
  925Sol     HW 6726   2.927   1.650   5.843 -1.4173 -0.2605  0.4192
  925Sol     HW 6727   3.003   1.718   5.731 -0.2756  1.0789  1.9825
  925Sol     MW 6728   2.980   1.642   5.771 -0.7207 -0.2868 -0.0886
  926Sol     OW 6729   2.767   1.023   3.745  0.3705 -0.0306  0.1864
  926Sol     HW 6730   2.833   1.089   3.726  0.2531 -0.1462 -0.6537
  926Sol     HW 6731   2.686   1.058   3.710 -0.5266  1.1758  3.3268
  926Sol     MW 6732   2.766   1.032   3.740  0.6062  0.8483  0.4089
  927Sol     OW 6733   2.854   0.248   2.538  0.0870  0.2794  0.0532
  927Sol     HW 6734   2.943   0.212   2.536 -0.4729 -1.1592  0.2805
  927Sol     HW 6735   2.824   0.241   2.447 -1.2037 -2.9584  0.6448
  927Sol     MW 6736   2.859   0.244   2.530 -0.6773  0.9763 -0.1428
  928Sol     OW 6737   1.894   2.371   4.692  0.0256  0.2389  0.2735
  928Sol     HW 6738   1.903   2.340   4.782 -2.1049  0.8106  0.6912
  928Sol     HW 6739   1.808   2.412   4.689  0.4046  0.9109 -1.8273
  928Sol     MW 6740   1.888   2.372   4.700 -0.0164 -0.4744 -0.4612
  929Sol     OW 6741   0.421   0.663   8.776 -0.4435  0.1554  0.1078
  929Sol     HW 6742   0.372   0.745   8.777  0.5604  0.7794  1.5140
  929Sol     HW 6743   0.505   0.686   8.737 -1.3265 -0.9597 -2.5183
  929Sol     MW 6744   0.424   0.673   8.773 -0.1386 -0.1552 -0.3960
  930Sol     OW 6745   1.533   1.796   3.217  0.0043 -0.0105  0.2439
  930Sol     HW 6746   1.472   1.861   3.183  0.6867  1.5603  1.9487
  930Sol     HW 6747   1.593   1.780   3.144  0.2882  1.8483  0.0446
  930Sol     MW 6748   1.533   1.800   3.207 -0.3009  0.5013  0.1395
  931Sol     OW 6749   0.211   2.479   8.040  0.0678  0.3047 -0.3261
  931Sol     HW 6750   0.156   2.476   8.118  1.1608  0.6473  0.4710
  931Sol     HW 6751   0.216   2.388   8.010  0.8808 -0.0830  0.8996
  931Sol     MW 6752   0.207   2.471   8.044 -0.1100 -0.4869 -0.3738
  932Sol     OW 6753   1.054   2.285   8.085  0.3478 -0.1576  0.2972
  932Sol     HW 6754   1.001   2.324   8.155 -1.1514 -0.3208 -0.7253
  932Sol     HW 6755   1.105   2.358   8.050  0.4319  0.1041  0.9592
  932Sol     MW 6756   1.054   2.295   8.088  0.7849  0.1711 -0.3085
  933Sol     OW 6757   1.704   1.402   5.434 -0.3971 -0.3269  0.4670
  933Sol     HW 6758   1.736   1.428   5.521 -0.1958 -0.0432  0.3090
  933Sol     HW 6759   1.784   1.388   5.383 -0.5174 -0.4376  0.3112
  933Sol     MW 6760   1.714   1.403   5.437  0.0662  0.1692  0.5390
  934Sol     OW 6761   0.525   1.434   5.726  0.0852  0.9395  0.5997
  934Sol     HW 6762   0.470   1.422   5.649  0.1743  0.8040  0.5569
  934Sol     HW 6763   0.615   1.425   5.693  0.2363  3.4170  0.2451
  934Sol     MW 6764   0.528   1.432   5.716  0.0506 -0.5960 -0.3400
  935Sol     OW 6765   1.689   2.370   2.790 -0.1369  0.1273 -0.4231
  935Sol     HW 6766   1.685   2.329   2.876 -0.7717  0.3061 -0.3655
  935Sol     HW 6767   1.779   2.355   2.760  0.1570  0.2859  0.3787
  935Sol     MW 6768   1.697   2.365   2.795 -0.3108  0.7647  0.0443
  936Sol     OW 6769   1.628   1.417   1.732 -0.0036 -0.0115 -0.1672
  936Sol     HW 6770   1.635   1.498   1.681  0.8422 -0.2637 -0.4616
  936Sol     HW 6771   1.617   1.447   1.822  0.2778  0.4316 -0.2799
  936Sol     MW 6772   1.628   1.427   1.735  0.0227 -0.2500 -0.2126
  937Sol     OW 6773   0.743   3.098   3.749  0.0369 -0.2187  0.6866
  937Sol     HW 6774   0.673   3.107   3.684  1.3115 -0.4459 -0.7442
  937Sol     HW 6775   0.710   3.034   3.812 -2.0163  1.4512  1.3588
  937Sol     MW 6776   0.734   3.093   3.749 -0.4238 -0.5894 -0.1355
  938Sol     OW 6777   2.243   2.186   7.789 -0.0068  0.5487  0.5126
  938Sol     HW 6778   2.217   2.094   7.793 -1.4626  0.8203 -1.8051
  938Sol     HW 6779   2.336   2.184   7.767 -0.0714 -0.3810  0.2838
  938Sol     MW 6780   2.249   2.178   7.787 -0.6391 -0.0927  0.2308
  939Sol     OW 6781   1.478   2.288   2.107  0.2157 -0.2147 -0.0693
  939Sol     HW 6782   1.487   2.234   2.029  0.0935 -0.4041  0.0482
  939Sol     HW 6783   1.413   2.243   2.161 -0.4723  0.4512 -0.3196
  939Sol     MW 6784   1.473   2.279   2.105  0.1143  0.3593  0.2985
  940Sol     OW 6785   1.966   1.880   8.707 -0.2012 -0.0111  0.0066
  940Sol     HW 6786   1.873   1.858   8.714  0.2268 -1.9054 -0.1562
  940Sol     HW 6787   2.011   1.796   8.702  1.4201  0.9059 -1.4879
  940Sol     MW 6788   1.962   1.871   8.707 -0.6823  0.5140 -0.3686
  941Sol     OW 6789   1.295   1.095   5.698 -0.6339 -0.5047 -0.5273
  941Sol     HW 6790   1.378   1.060   5.730 -1.0322  0.1275  1.2362
  941Sol     HW 6791   1.311   1.114   5.605  0.4432 -2.6487 -0.7992
  941Sol     MW 6792   1.304   1.094   5.692  0.2027 -0.9345  0.1810
  942Sol     OW 6793   1.462   2.504   3.497  0.6442 -0.0826  0.6020
  942Sol     HW 6794   1.371   2.522   3.522  0.5402  0.1128  0.0889
  942Sol     HW 6795   1.485   2.577   3.440  0.8482 -0.5836  0.0443
  942Sol     MW 6796   1.456   2.512   3.494 -0.7276  0.0992  0.0974
  943Sol     OW 6797   1.055   1.755   7.106 -0.1108 -0.1911  0.2589
  943Sol     HW 6798   1.028   1.843   7.079 -0.1670 -0.1086  0.5808
  943Sol     HW 6799   0.980   1.720   7.154  0.6764  0.3802  1.9453
  943Sol     MW 6800   1.046   1.760   7.108  0.4724  0.7406  0.1466
  944Sol     OW 6801   2.403   2.785   9.903 -0.0353  0.2863  0.5064
  944Sol     HW 6802   2.457   2.788   9.982  0.0656  0.1925  0.4414
  944Sol     HW 6803   2.463   2.809   9.832 -0.1207  0.3499  0.4562
  944Sol     MW 6804   2.413   2.787   9.904 -0.3798  0.5363 -0.8993
  945Sol     OW 6805   1.606   0.374   8.036 -0.0893 -0.0180 -0.2713
  945Sol     HW 6806   1.601   0.464   8.068 -2.6119 -0.5978  1.1670
  945Sol     HW 6807   1.685   0.339   8.077  0.2761  1.2015  0.0988
  945Sol     MW 6808   1.613   0.379   8.043 -0.1096 -0.7363 -0.0258
  946Sol     OW 6809   2.788   2.204   9.284 -0.0506  0.5897  0.4015
  946Sol     HW 6810   2.716   2.254   9.321 -0.5680  1.3032 -1.4823
  946Sol     HW 6811   2.755   2.176   9.198  0.7557 -1.7760  0.8368
  946Sol     MW 6812   2.778   2.206   9.279 -0.9841  0.0650  0.1622
  947Sol     OW 6813   2.957   2.050   3.725 -0.0515 -0.5194 -0.2185
  947Sol     HW 6814   3.039   2.013   3.758  0.0135  1.4144  1.9042
  947Sol     HW 6815   2.979   2.083   3.638  0.9252 -1.6798 -0.4299
  947Sol     MW 6816   2.966   2.049   3.720 -0.5949 -0.1764  0.0978
  948Sol     OW 6817   3.055   1.221   6.485 -0.5473  0.1194  0.4050
  948Sol     HW 6818   3.120   1.252   6.422  0.5917  1.2327  2.0456
  948Sol     HW 6819   2.979   1.276   6.470 -0.6386 -0.2867 -0.6479
  948Sol     MW 6820   3.054   1.229   6.478 -0.3823  0.4121  0.1310
  949Sol     OW 6821   0.454   3.397   7.689 -0.0967  0.5811  0.0149
  949Sol     HW 6822   0.509   3.339   7.742 -1.2491 -1.5495 -1.0944
  949Sol     HW 6823   0.432   3.469   7.749 -1.0373 -1.5717  2.3784
  949Sol     MW 6824   0.457   3.399   7.699 -0.7832 -0.3904 -0.2471
  950Sol     OW 6825   0.368   2.385   4.883  0.1685  0.1481  0.4343
  950Sol     HW 6826   0.463   2.374   4.872  0.0124  0.2562 -1.2498
  950Sol     HW 6827   0.358   2.422   4.970  1.7328  0.8184  0.3523
  950Sol     MW 6828   0.376   2.387   4.890  0.0711  0.0590 -0.7445
  951Sol     OW 6829   1.743   1.369   9.123 -0.3275 -0.5036  0.1771
  951Sol     HW 6830   1.775   1.282   9.147 -1.0161 -0.3543  1.6824
  951Sol     HW 6831   1.738   1.367   9.027 -0.6455 -2.2249  0.2150
  951Sol     MW 6832   1.745   1.361   9.116  0.5568 -0.5940  0.5372
  952Sol     OW 6833   1.793   0.532   9.646 -0.0981  0.0580  0.5515
  952Sol     HW 6834   1.798   0.446   9.689 -0.7916  0.3140  1.1636
  952Sol     HW 6835   1.730   0.520   9.575  1.2324 -0.4293 -0.5518
  952Sol     MW 6836   1.787   0.523   9.644  0.0835  0.4399  0.2605
  953Sol     OW 6837   1.324   2.157   2.274 -0.2472  0.0830 -0.4708
  953Sol     HW 6838   1.276   2.074   2.274 -0.2952  0.1061 -0.0084
  953Sol     HW 6839   1.291   2.203   2.352 -1.0557  1.0185 -1.3506
  953Sol     MW 6840   1.316   2.154   2.281  0.2093  0.0875 -0.2792
  954Sol     OW 6841   0.435   1.689   2.331 -0.0349  0.0029 -0.4560
  954Sol     HW 6842   0.365   1.749   2.304 -1.1403 -1.5314 -1.1163
  954Sol     HW 6843   0.506   1.706   2.270 -0.2360  0.8508 -0.4542
  954Sol     MW 6844   0.435   1.696   2.323 -0.2264  0.1632  0.1049
  955Sol     OW 6845   1.747   0.892   5.016  0.3537  0.8487  0.1494
  955Sol     HW 6846   1.658   0.901   4.983  0.7913  1.0639 -0.9676
  955Sol     HW 6847   1.749   0.805   5.057 -0.3782  0.8724  0.2305
  955Sol     MW 6848   1.740   0.885   5.017  0.9781 -0.3282  0.3628
  956Sol     OW 6849   0.023   0.392   6.000 -0.1594  0.2089 -0.0203
  956Sol     HW 6850  -0.054   0.378   6.056  0.5671 -0.4607  0.8198
  956Sol     HW 6851  -0.010   0.382   5.911 -1.0583 -0.0231  0.3326
  956Sol     MW 6852   0.013   0.390   5.997 -0.3732 -0.2041 -0.4142
  957Sol     OW 6853   1.194   3.262   5.392  0.3851 -0.3055 -0.3190
  957Sol     HW 6854   1.251   3.238   5.465  0.8169  0.1654 -0.4914
  957Sol     HW 6855   1.188   3.183   5.339 -0.9288 -1.0024  0.8635
  957Sol     MW 6856   1.199   3.253   5.394 -0.1551  0.2318 -0.1140
  958Sol     OW 6857   1.961   0.285   2.419 -0.1954 -0.2034  0.4087
  958Sol     HW 6858   1.982   0.192   2.424  1.3657  0.1452  0.3454
  958Sol     HW 6859   1.970   0.317   2.508 -2.6165 -0.4969  0.7916
  958Sol     MW 6860   1.963   0.280   2.427 -0.4052 -0.1188 -0.2926
  959Sol     OW 6861   2.111   2.277   4.568  0.3121 -0.3321 -0.0689
  959Sol     HW 6862   2.083   2.252   4.480  1.3241  0.4238 -0.6192
  959Sol     HW 6863   2.034   2.318   4.607  0.7366  2.1799 -1.7268
  959Sol     MW 6864   2.102   2.278   4.563  0.2111 -0.1297 -0.5788
  960Sol     OW 6865   0.789   0.971   4.644  0.0065 -0.0262 -0.1564
  960Sol     HW 6866   0.731   0.966   4.567 -0.4961  1.0166  0.1366
  960Sol     HW 6867   0.792   1.065   4.664 -0.8961 -0.4073  1.8667
  960Sol     MW 6868   0.784   0.979   4.639 -0.8576  0.1197  0.3456
  961Sol     OW 6869   0.666   0.356   2.829  0.3913  0.0678 -0.4420
  961Sol     HW 6870   0.754   0.375   2.795  0.2347  1.9548  0.1458
  961Sol     HW 6871   0.636   0.282   2.777  1.9577  0.0035 -1.2993
  961Sol     MW 6872   0.671   0.351   2.822 -0.7709  0.1041 -0.4578
  962Sol     OW 6873   1.976   0.366   5.795  0.1058 -0.5126 -0.1043
  962Sol     HW 6874   1.882   0.346   5.793 -0.3446  1.4977  0.0787
  962Sol     HW 6875   1.988   0.431   5.727  0.8107  1.5171  1.9180
  962Sol     MW 6876   1.968   0.370   5.789  0.0577 -0.1935 -0.0563
  963Sol     OW 6877   2.353   0.844   2.103 -0.4898  0.6094 -0.8743
  963Sol     HW 6878   2.336   0.761   2.148  1.2521 -0.1016 -1.5061
  963Sol     HW 6879   2.391   0.900   2.171  1.7399 -0.3244 -1.3082
  963Sol     MW 6880   2.355   0.841   2.113 -0.1861 -0.0870  0.2247
  964Sol     OW 6881   2.825   1.396   9.662 -0.0962 -0.0383 -0.2448
  964Sol     HW 6882   2.767   1.327   9.629 -0.5073 -0.0762  0.5370
  964Sol     HW 6883   2.900   1.349   9.698  0.4328  0.0105 -1.2518
  964Sol     MW 6884   2.827   1.386   9.662  0.1900 -0.0670 -0.3117
  965Sol     OW 6885   2.507   1.831   1.896 -0.3877 -0.3083  0.1839
  965Sol     HW 6886   2.573   1.899   1.882 -1.2606  1.1137  2.6614
  965Sol     HW 6887   2.520   1.804   1.987 -4.0065  0.8846  1.1239
  965Sol     MW 6888   2.514   1.835   1.903 -0.2335  0.6047  0.4664
  966Sol     OW 6889   1.999   2.598   9.206  0.3363 -0.4565 -0.4018
  966Sol     HW 6890   2.092   2.580   9.213  0.3002 -0.1538  0.9214
  966Sol     HW 6891   1.957   2.513   9.220  0.3955 -0.5636 -0.8435
  966Sol     MW 6892   2.003   2.589   9.208  0.2354  0.6442  0.2809
  967Sol     OW 6893   3.239   0.188   3.156 -0.6832 -0.6329  0.5149
  967Sol     HW 6894   3.301   0.120   3.129  0.5428  1.1670 -1.4182
  967Sol     HW 6895   3.167   0.182   3.093  0.8148  1.6985 -1.5191
  967Sol     MW 6896   3.238   0.181   3.148  0.2201 -0.5529  0.0021
  968Sol     OW 6897   1.675   1.998   4.023  0.2207 -0.2663  0.0404
  968Sol     HW 6898   1.731   2.061   4.069 -0.5060 -0.1741  0.8135
  968Sol     HW 6899   1.614   2.051   3.973 -0.9028 -0.3238  1.3087
  968Sol     MW 6900   1.674   2.008   4.023  0.0681 -0.3235 -0.2848
  969Sol     OW 6901   1.964   1.912   2.914  0.0060  0.8950  0.0568
  969Sol     HW 6902   2.056   1.904   2.889 -0.2372  1.0503 -0.8933
  969Sol     HW 6903   1.967   1.939   3.006  0.9019  0.2105  0.2443
  969Sol     MW 6904   1.973   1.914   2.920 -0.3637  0.3822  0.5456
  970Sol     OW 6905   1.210   0.593   3.500 -0.2955 -0.0282 -0.1026
  970Sol     HW 6906   1.295   0.551   3.489 -0.1366  0.7442 -2.1569
  970Sol     HW 6907   1.151   0.521   3.523  1.0274 -0.4458  2.1439
  970Sol     MW 6908   1.212   0.583   3.501  0.8426 -0.5548 -0.1642
  971Sol     OW 6909   2.568   2.942   9.494  0.4669  0.1002 -0.3048
  971Sol     HW 6910   2.617   2.902   9.423  0.7556 -0.6893  0.3253
  971Sol     HW 6911   2.483   2.898   9.492  0.3364  0.3628 -0.4222
  971Sol     MW 6912   2.565   2.934   9.488  0.4093  0.5470 -0.1864
  972Sol     OW 6913   2.104   1.027   7.189  0.4898 -0.0652 -0.0743
  972Sol     HW 6914   2.039   1.027   7.259 -0.2366 -1.4380 -0.7426
  972Sol     HW 6915   2.157   1.105   7.206  0.0428 -0.1350  1.7383
  972Sol     MW 6916   2.103   1.034   7.197 -0.5394  0.9432  0.1295
  973Sol     OW 6917   2.138   1.014   9.079 -0.0639 -0.6066 -0.0810
  973Sol     HW 6918   2.166   1.094   9.124 -0.4515 -0.8286  0.5582
  973Sol     HW 6919   2.220   0.970   9.056  0.2392  1.2732 -2.8309
  973Sol     MW 6920   2.148   1.017   9.081  0.6266  0.2540 -0.0932
  974Sol     OW 6921   0.053   2.288   6.667 -0.4207  0.4134  0.0074
  974Sol     HW 6922   0.044   2.264   6.575 -0.1744 -0.5604  0.2389
  974Sol     HW 6923  -0.034   2.316   6.694 -1.3795 -2.9599  0.5321
  974Sol     MW 6924   0.045   2.289   6.661 -0.1573 -0.2567  0.3917
  975Sol     OW 6925   2.349   0.118   6.135 -0.4602  0.6090 -0.3255
  975Sol     HW 6926   2.322   0.074   6.216 -1.7632  0.1927 -0.9715
  975Sol     HW 6927   2.418   0.063   6.099 -0.6549  0.2032 -0.0750
  975Sol     MW 6928   2.353   0.109   6.139 -0.3744 -0.3557 -0.2048
  976Sol     OW 6929   1.207   2.843   7.345 -0.5350  0.0790 -0.1653
  976Sol     HW 6930   1.126   2.889   7.367 -0.3071  0.8191 -0.8429
  976Sol     HW 6931   1.270   2.913   7.327 -0.1087 -0.5004 -0.9424
  976Sol     MW 6932   1.205   2.854   7.345 -0.1139  0.5504 -0.0481
  977Sol     OW 6933   0.330   2.052   2.503 -0.3413 -0.2553 -0.0675
  977Sol     HW 6934   0.404   2.039   2.563 -0.4378 -0.7857 -0.0631
  977Sol     HW 6935   0.359   2.123   2.445  0.3350 -0.7409 -0.3262
  977Sol     MW 6936   0.339   2.058   2.503  0.0203  0.2330 -0.0663
  978Sol     OW 6937   3.319   1.496   7.774 -0.1158 -0.3658  0.0787
  978Sol     HW 6938   3.304   1.529   7.686  0.5435 -0.4563 -0.0733
  978Sol     HW 6939   3.396   1.544   7.805 -0.2508 -0.4438  0.5467
  978Sol     MW 6940   3.325   1.503   7.769 -0.4265 -0.2309 -0.3504
  979Sol     OW 6941   1.795   2.428   4.331  0.2439 -0.5298  0.7975
  979Sol     HW 6942   1.714   2.389   4.363 -0.5412  1.1369  0.9239
  979Sol     HW 6943   1.812   2.382   4.249 -0.8206 -0.9244  0.7807
  979Sol     MW 6944   1.789   2.421   4.326  0.1355  0.4975 -0.2459
  980Sol     OW 6945   1.156   3.166   9.112 -0.8114  0.1801 -0.8397
  980Sol     HW 6946   1.245   3.178   9.079  0.2568  0.6950  2.0952
  980Sol     HW 6947   1.162   3.090   9.169 -2.2025  0.3461 -0.4568
  980Sol     MW 6948   1.165   3.160   9.114  0.0808 -0.3963  0.0999
  981Sol     OW 6949   2.619   1.569   8.885 -0.1394 -0.3347 -0.9129
  981Sol     HW 6950   2.698   1.581   8.937 -0.8233  0.3106 -0.0035
  981Sol     HW 6951   2.647   1.587   8.795  0.9733 -1.1374 -0.7376
  981Sol     MW 6952   2.628   1.572   8.882 -0.3678  0.1369  0.5906
  982Sol     OW 6953   0.310   1.903   4.695  0.1954 -0.4033  0.1001
  982Sol     HW 6954   0.253   1.927   4.767  0.1773  0.0267 -0.0553
  982Sol     HW 6955   0.280   1.817   4.667 -0.3184 -0.2165  0.0774
  982Sol     MW 6956   0.303   1.897   4.699 -0.4462  0.9024 -0.3419
  983Sol     OW 6957   1.009   1.409   7.269  0.9601  0.5776 -0.2642
  983Sol     HW 6958   0.945   1.466   7.311  1.3493  0.6322  0.2575
  983Sol     HW 6959   1.088   1.462   7.262  1.3176  0.1119  0.2060
  983Sol     MW 6960   1.010   1.419   7.272  0.1833  0.3181 -0.3469
  984Sol     OW 6961   0.512   1.975   4.080 -0.5086  0.2997  0.0858
  984Sol     HW 6962   0.466   1.948   4.000 -0.2156  0.0740 -0.0084
  984Sol     HW 6963   0.464   1.933   4.151 -1.4146  1.3539  0.1164
  984Sol     MW 6964   0.504   1.969   4.079  0.5243  0.4505  0.4186
  985Sol     OW 6965   1.682   3.424   2.234  0.2421  0.5000 -0.4511
  985Sol     HW 6966   1.633   3.460   2.307 -1.9105 -0.1737 -1.5255
  985Sol     HW 6967   1.659   3.331   2.233  0.2197  0.5036 -1.9994
  985Sol     MW 6968   1.676   3.419   2.241 -0.1281 -0.0129 -0.3762
  986Sol     OW 6969   0.363   2.833   1.589  0.4973 -0.4780  0.1749
  986Sol     HW 6970   0.424   2.901   1.559  1.2374 -0.4032  1.8067
  986Sol     HW 6971   0.280   2.856   1.548  0.8213  1.2496  0.4354
  986Sol     MW 6972   0.361   2.841   1.583  0.7047 -0.0729 -0.6012
  987Sol     OW 6973   0.669   0.749   8.658 -0.5293 -0.6957  0.3065
  987Sol     HW 6974   0.672   0.754   8.562 -2.4941  1.4017  0.3184
  987Sol     HW 6975   0.685   0.839   8.687 -0.8944 -1.1419  1.9254
  987Sol     MW 6976   0.671   0.757   8.652  0.1704  0.0742  0.8720
  988Sol     OW 6977   2.936   0.164   5.245 -0.4387 -0.2585  0.2955
  988Sol     HW 6978   2.903   0.250   5.272 -1.1272 -0.2269 -0.6381
  988Sol     HW 6979   2.957   0.174   5.153  1.7009 -0.4358  0.7413
  988Sol     MW 6980   2.935   0.172   5.240 -0.0811 -0.2081 -0.4059
  989Sol     OW 6981   1.922   3.105   8.180  0.2497 -0.1628 -0.1620
  989Sol     HW 6982   1.889   3.195   8.181  1.8277  0.4309 -0.4396
  989Sol     HW 6983   1.956   3.092   8.092 -0.0537 -1.0648 -0.1540
  989Sol     MW 6984   1.922   3.112   8.172 -0.5831 -0.3069 -0.0868
  990Sol     OW 6985   1.200   2.341   3.435  0.1274  0.6351 -0.2279
  990Sol     HW 6986   1.293   2.323   3.442  0.1431  0.7210 -0.2068
  990Sol     HW 6987   1.174   2.372   3.522 -0.4520 -1.7249  0.4725
  990Sol     MW 6988   1.206   2.343   3.443  0.0933  0.0367 -0.7269
  991Sol     OW 6989   0.946   2.444   3.911  0.0725  0.2946 -0.0060
  991Sol     HW 6990   0.935   2.482   3.824 -2.5150 -1.2952 -0.4504
  991Sol     HW 6991   0.993   2.362   3.896  1.7519  1.1702  0.4072
  991Sol     MW 6992   0.949   2.440   3.902  0.1914 -0.1090 -0.0727
  992Sol     OW 6993   2.585   0.841   8.807 -0.2199  0.5120  0.3694
  992Sol     HW 6994   2.608   0.762   8.757  1.1829  0.9219  0.3634
  992Sol     HW 6995   2.543   0.898   8.743  0.3049  0.4631 -0.0262
  992Sol     MW 6996   2.583   0.839   8.797 -0.3026 -0.4472 -0.2017
  993Sol     OW 6997   3.012   0.111   9.372 -0.5949 -0.4719 -0.5730
  993Sol     HW 6998   2.953   0.046   9.335  0.2662 -0.8448 -1.3045
  993Sol     HW 6999   3.097   0.067   9.375 -0.1198  0.4437 -0.5778
  993Sol     MW 7000   3.014   0.101   9.369 -0.3039  0.7959 -0.4123
  994Sol     OW 7001   1.111   1.016   3.972 -0.4632 -0.1293  0.1903
  994Sol     HW 7002   1.146   0.962   3.902  0.3244 -1.0782  1.2913
  994Sol     HW 7003   1.033   0.969   4.002 -0.8703  0.3385 -0.1363
  994Sol     MW 7004   1.108   1.007   3.969 -0.3129 -0.2069 -0.0022
  995Sol     OW 7005   2.191   1.288   3.159  0.1219  0.2481 -0.1115
  995Sol     HW 7006   2.148   1.369   3.131  1.1755  0.6710 -0.5544
  995Sol     HW 7007   2.245   1.262   3.084  0.9046 -0.0693  0.5487
  995Sol     MW 7008   2.192   1.293   3.150 -0.1154 -0.2320 -1.1037
  996Sol     OW 7009   2.493   1.107   4.107 -0.1785 -0.5124  0.5683
  996Sol     HW 7010   2.486   1.168   4.034  0.3575  0.3662  1.2422
  996Sol     HW 7011   2.579   1.125   4.145 -0.0184 -1.6769  0.7844
  996Sol     MW 7012   2.500   1.114   4.104 -0.1615  0.3354  0.2792
  997Sol     OW 7013   2.391   2.862   5.619  0.4305  0.5460 -0.0903
  997Sol     HW 7014   2.426   2.799   5.557  0.5894  1.2977 -0.7720
  997Sol     HW 7015   2.466   2.888   5.672  0.1024 -0.8409  1.0893
  997Sol     MW 7016   2.401   2.859   5.618 -0.3092  0.0460 -0.3116
  998Sol     OW 7017   0.970   2.942   9.666  0.5744  0.2914  0.0186
  998Sol     HW 7018   1.047   2.887   9.651  0.6753 -0.1973  2.1626
  998Sol     HW 7019   0.989   2.989   9.748 -0.3744  1.9984 -0.7183
  998Sol     MW 7020   0.979   2.941   9.672 -0.5479  0.7968  0.4190
  999Sol     OW 7021   3.255   2.648   6.990  0.2347 -0.0660  0.5461
  999Sol     HW 7022   3.330   2.604   6.951  0.3846  2.3077 -2.0209
  999Sol     HW 7023   3.293   2.710   7.053  0.2256 -0.9852  1.4702
  999Sol     MW 7024   3.265   2.650   6.992 -0.2449  0.4392  0.2861
 1000Sol     OW 7025   1.976   2.466   6.439  0.3679 -0.1303  0.2563
 1000Sol     HW 7026   1.999   2.388   6.490  0.7251  0.3780  0.8758
 1000Sol     HW 7027   1.999   2.540   6.496  0.3755  0.4338 -0.4724
 1000Sol     MW 7028   1.980   2.465   6.449  0.4814 -0.1067  0.0365
 1001Sol     OW 7029   2.225   0.662   7.741  0.3926 -0.1285  0.0999
 1001Sol     HW 7030   2.178   0.709   7.810  0.6946  0.0656  0.1744
 1001Sol     HW 7031   2.256   0.731   7.683  1.1525 -0.2140  0.4056
 1001Sol     MW 7032   2.223   0.672   7.742 -0.6706  0.3694 -0.4004
 1002Sol     OW 7033   0.815   3.134   4.689 -1.1263 -0.5378 -0.3051
 1002Sol     HW 7034   0.790   3.131   4.597  2.1814 -1.7264 -1.2482
 1002Sol     HW 7035   0.836   3.226   4.706  1.5479 -0.8012 -1.7766
 1002Sol     MW 7036   0.815   3.142   4.682 -0.1479  0.2643  0.3735
 1003Sol     OW 7037   1.539   2.762   6.963 -0.2531  0.2648  0.0768
 1003Sol     HW 7038   1.593   2.781   7.039 -0.3968 -0.3085  0.3298
 1003Sol     HW 7039   1.462   2.717   6.999 -0.4612  0.2529 -0.3731
 1003Sol     MW 7040   1.537   2.760   6.973 -0.0343 -0.3543 -0.4497
 1004Sol     OW 7041   2.241   0.453   8.240 -0.5054  0.4611  0.2120
 1004Sol     HW 7042   2.318   0.486   8.194 -1.4224  2.5115  0.0752
 1004Sol     HW 7043   2.173   0.450   8.173 -1.0216  0.4007  0.7410
 1004Sol     MW 7044   2.242   0.456   8.230 -0.4630  0.7480 -0.2012
 1005Sol     OW 7045   1.152   0.908   7.683 -0.3994 -0.2164  0.6127
 1005Sol     HW 7046   1.240   0.938   7.706  0.8506 -1.7041 -1.9834
 1005Sol     HW 7047   1.121   0.972   7.618 -1.4587  0.5530  1.8344
 1005Sol     MW 7048   1.157   0.916   7.679 -0.3499  0.2674 -0.1363
 1006Sol     OW 7049   2.455   0.627   5.968  0.5067 -0.1498 -0.1812
 1006Sol     HW 7050   2.482   0.628   6.060 -0.5668 -1.3668  0.1734
 1006Sol     HW 7051   2.439   0.534   5.949 -0.0273  0.1730 -1.3729
 1006Sol     MW 7052   2.456   0.619   5.974  0.1969 -0.8195 -0.5334
 1007Sol     OW 7053   1.298   0.094   7.267 -0.2189  0.4217  0.2567
 1007Sol     HW 7054   1.218   0.139   7.239 -0.3426  1.1892  1.8353
 1007Sol     HW 7055   1.369   0.148   7.231 -0.3659  1.8930  2.1148
 1007Sol     MW 7056   1.297   0.103   7.261 -0.5470  0.2853 -0.4524
 1008Sol     OW 7057   0.392   2.491   1.547 -0.4632 -0.4858 -0.4638
 1008Sol     HW 7058   0.401   2.586   1.534  0.2825 -0.5166 -0.2297
 1008Sol     HW 7059   0.298   2.475   1.546 -0.5934  0.2660 -0.4835
 1008Sol     MW 7060   0.385   2.499   1.546  0.2138 -0.4034 -0.3373
 1009Sol     OW 7061   1.817   3.338   8.126  0.2243 -0.0684  0.4293
 1009Sol     HW 7062   1.737   3.315   8.078 -0.1243 -0.6926  1.3122
 1009Sol     HW 7063   1.796   3.421   8.169  0.2795  0.0990  0.1398
 1009Sol     MW 7064   1.808   3.344   8.125  0.0027  0.2084  0.0683
 1010Sol     OW 7065   0.295   0.379   2.048  0.1005 -0.2373 -0.3319
 1010Sol     HW 7066   0.344   0.330   2.114  0.7226 -1.6499 -1.8050
 1010Sol     HW 7067   0.247   0.445   2.098  0.7681 -1.0949  1.4984
 1010Sol     MW 7068   0.295   0.380   2.058  0.5472 -0.0083 -0.6091
 1011Sol     OW 7069   1.744   1.073   1.389 -0.0925  0.4518  0.0195
 1011Sol     HW 7070   1.823   1.070   1.335 -1.0582 -0.8340 -1.3531
 1011Sol     HW 7071   1.734   1.165   1.411  1.6880  0.6583  0.0568
 1011Sol     MW 7072   1.750   1.081   1.386 -0.9699  0.3709 -0.1998
 1012Sol     OW 7073   0.849   2.670   7.785  0.3416 -0.1010  0.2996
 1012Sol     HW 7074   0.862   2.676   7.880 -0.5609 -0.1987  0.4295
 1012Sol     HW 7075   0.766   2.714   7.769  0.2963 -0.4320 -0.4009
 1012Sol     MW 7076   0.843   2.674   7.792  0.1612 -0.9844 -0.4793
 1013Sol     OW 7077   2.344   1.497   7.921 -0.2617  0.5942 -0.3396
 1013Sol     HW 7078   2.403   1.437   7.875 -0.4571  0.6381 -0.6465
 1013Sol     HW 7079   2.403   1.562   7.960 -0.1629  1.1052 -1.3363
 1013Sol     MW 7080   2.355   1.498   7.920  0.0068  0.5384  0.3130
 1014Sol     OW 7081   2.813   2.482   6.480  0.0856  0.0645  0.3120
 1014Sol     HW 7082   2.814   2.442   6.393  1.7528  0.2069  0.2370
 1014Sol     HW 7083   2.819   2.407   6.540 -0.6916 -0.0148  0.2866
 1014Sol     MW 7084   2.814   2.471   6.478 -0.1829  0.3760 -0.4277
 1015Sol     OW 7085   1.832   2.723   6.689  0.3117 -0.1320  0.5883
 1015Sol     HW 7086   1.810   2.632   6.706 -1.5443  0.0597 -0.6756
 1015Sol     HW 7087   1.788   2.743   6.607  0.1904  2.1045  1.1820
 1015Sol     MW 7088   1.826   2.717   6.683  0.4064  0.0719 -0.0708
 1016Sol     OW 7089   0.288   1.637   5.440  0.5652 -0.5114 -0.3748
 1016Sol     HW 7090   0.317   1.642   5.348 -0.7224 -0.4583 -0.7905
 1016Sol     HW 7091   0.193   1.643   5.435  0.2577 -3.3394  0.7479
 1016Sol     MW 7092   0.282   1.638   5.431 -0.0426 -0.4953  0.2607
 1017Sol     OW 7093   0.145   1.364   8.578 -0.5010 -0.2635  0.1489
 1017Sol     HW 7094   0.145   1.458   8.599 -0.2421 -0.0331 -0.8416
 1017Sol     HW 7095   0.054   1.346   8.554 -0.1186  0.2516 -1.8142
 1017Sol     MW 7096   0.137   1.371   8.577 -0.0184  0.3021 -0.3397
 1018Sol     OW 7097   0.176   2.577   6.398  0.4399 -0.4103 -1.1768
 1018Sol     HW 7098   0.086   2.607   6.410  0.1826 -0.4886 -2.7623
 1018Sol     HW 7099   0.168   2.482   6.387  0.9330 -0.6903  0.6522
 1018Sol     MW 7100   0.167   2.571   6.398 -0.3354 -0.5593 -0.7282
 1019Sol     OW 7101   1.762   2.561   2.016 -0.7310 -0.2165  0.6484
 1019Sol     HW 7102   1.786   2.501   1.945  0.8701  1.4566 -0.2373
 1019Sol     HW 7103   1.666   2.554   2.021 -0.8289 -0.7029 -1.3639
 1019Sol     MW 7104   1.755   2.555   2.010  0.3708 -0.0339  0.1180
 1020Sol     OW 7105   3.166   1.255   9.281  0.3779 -0.0906 -0.6651
 1020Sol     HW 7106   3.175   1.239   9.375  0.4277 -0.2787 -0.7016
 1020Sol     HW 7107   3.164   1.351   9.274  1.4548 -0.0545 -0.5712
 1020Sol     MW 7108   3.167   1.262   9.289  0.0476  0.2220  0.3612
 1021Sol     OW 7109   2.809   0.933   7.126  0.1259  0.5519  0.1504
 1021Sol     HW 7110   2.768   0.938   7.212  1.2382 -0.1363  0.7291
 1021Sol     HW 7111   2.751   0.876   7.075 -1.8569  2.9474 -0.3470
 1021Sol     MW 7112   2.800   0.928   7.129 -0.3377  0.0634 -1.0773
 1022Sol     OW 7113   2.298   0.178   2.778  0.2336 -0.1160  0.1609
 1022Sol     HW 7114   2.317   0.239   2.707  0.5823  0.4829  0.7633
 1022Sol     HW 7115   2.374   0.121   2.781  0.5606  0.3373  0.5482
 1022Sol     MW 7116   2.306   0.178   2.772  0.2214 -0.1644 -0.1143
 1023Sol     OW 7117   1.622   2.297   2.408  0.0292  0.3311 -0.1247
 1023Sol     HW 7118   1.621   2.206   2.437 -1.4257  1.2874  3.0154
 1023Sol     HW 7119   1.584   2.295   2.321  3.1476 -2.4707 -1.5379
 1023Sol     MW 7120   1.619   2.289   2.403  0.0274 -0.0878 -0.1972
 1024Sol     OW 7121   0.223   2.363   7.065  0.2206 -0.1261  0.2065
 1024Sol     HW 7122   0.296   2.401   7.114 -1.0360  0.1861  1.8843
 1024Sol     HW 7123   0.147   2.377   7.121 -1.1526 -0.3242 -1.5854
 1024Sol     MW 7124   0.223   2.367   7.075 -0.0703 -0.2590 -0.1918
 1025Sol     OW 7125   1.447   2.554   8.724 -0.2847  0.1721  0.0274
 1025Sol     HW 7126   1.496   2.581   8.802 -0.2446 -0.5794  0.2694
 1025Sol     HW 7127   1.416   2.466   8.745 -0.5987  0.1176 -0.6591
 1025Sol     MW 7128   1.449   2.549   8.733  0.1510 -0.4685 -0.3804
 1026Sol     OW 7129   0.958   2.624   6.622 -0.0344 -0.5547 -0.5280
 1026Sol     HW 7130   0.927   2.582   6.542  0.3638  1.1898 -1.6303
 1026Sol     HW 7131   1.048   2.652   6.601 -0.8511  2.3359 -0.4485
 1026Sol     MW 7132   0.963   2.623   6.613 -0.2018 -0.1597 -0.1573
 1027Sol     OW 7133   3.152   1.082   7.853 -0.0555  0.1736  0.5635
 1027Sol     HW 7134   3.141   1.012   7.788  2.4229 -1.5910  1.9668
 1027Sol     HW 7135   3.218   1.140   7.815  1.3491 -0.8253  1.4192
 1027Sol     MW 7136   3.157   1.081   7.844 -0.2493  0.0363 -0.2716
 1028Sol     OW 7137   1.477   1.480   9.064  0.4363  0.0307 -0.3297
 1028Sol     HW 7138   1.393   1.480   9.020  0.8086 -0.0687 -1.0465
 1028Sol     HW 7139   1.535   1.530   9.007  0.6866  0.7230  0.5118
 1028Sol     MW 7140   1.475   1.484   9.055  0.0913 -0.2785 -0.3170
 1029Sol     OW 7141   0.788   0.118   7.483 -0.0478  0.0161 -0.3390
 1029Sol     HW 7142   0.864   0.067   7.512  0.3013  0.1318 -1.0361
 1029Sol     HW 7143   0.802   0.131   7.389  1.2104  3.6575  0.2668
 1029Sol     MW 7144   0.796   0.115   7.477  0.0706  0.0852 -0.1665
 1030Sol     OW 7145   2.438   1.117   5.590  0.2556 -0.0476 -0.4228
 1030Sol     HW 7146   2.416   1.065   5.668  0.0753 -0.0264 -0.4583
 1030Sol     HW 7147   2.389   1.076   5.519 -0.0105  0.2642 -0.4222
 1030Sol     MW 7148   2.431   1.109   5.591 -0.2405 -0.3958  0.4872
 1031Sol     OW 7149   1.039   3.273   5.886 -0.0127 -0.1652  0.3648
 1031Sol     HW 7150   0.954   3.235   5.865  0.4877 -1.9692  1.5062
 1031Sol     HW 7151   1.027   3.367   5.875 -1.7424 -0.5178 -0.8939
 1031Sol     MW 7152   1.031   3.278   5.883 -0.2915 -0.2053  0.2137
 1032Sol     OW 7153   2.884   1.469   3.175 -0.5164  0.0896 -0.5104
 1032Sol     HW 7154   2.968   1.480   3.132 -1.3505  3.2198 -1.4931
 1032Sol     HW 7155   2.836   1.408   3.120  0.8084 -1.0661 -0.3908
 1032Sol     MW 7156   2.887   1.465   3.166  0.2597 -0.1696 -0.3538
 1033Sol     OW 7157   0.628   1.255   8.614  0.2295  0.2931  0.5089
 1033Sol     HW 7158   0.692   1.245   8.544  0.7753 -0.4824  1.1090
 1033Sol     HW 7159   0.657   1.331   8.664 -1.5834  2.4427 -1.5874
 1033Sol     MW 7160   0.636   1.261   8.613 -0.0219  0.1526 -0.5313
 1034Sol     OW 7161   2.063   2.287   8.830  0.5184 -0.0113  0.1831
 1034Sol     HW 7162   1.980   2.334   8.820 -0.3757 -1.6756 -0.3664
 1034Sol     HW 7163   2.054   2.239   8.912  0.3417 -1.3518 -0.6022
 1034Sol     MW 7164   2.055   2.287   8.836 -0.1010 -0.2573 -0.1272
 1035Sol     OW 7165   3.188   2.917   8.639 -0.2059  0.4643 -0.2790
 1035Sol     HW 7166   3.172   2.855   8.711 -1.4314  0.5999 -0.4230
 1035Sol     HW 7167   3.142   2.878   8.564 -0.2826  1.1330 -0.5810
 1035Sol     MW 7168   3.182   2.908   8.639 -0.3222 -0.1946 -0.1917
 1036Sol     OW 7169   2.952   0.749   6.832  0.0945  0.7753  0.0086
 1036Sol     HW 7170   3.025   0.800   6.798  0.3081  0.8185  0.5381
 1036Sol     HW 7171   2.983   0.659   6.831  0.3723  0.8612  0.8058
 1036Sol     MW 7172   2.961   0.746   6.829 -0.0623  0.5551  0.6115
 1037Sol     OW 7173   1.133   1.300   4.002 -0.2816  0.2949 -0.2664
 1037Sol     HW 7174   1.068   1.328   3.937 -1.9354 -0.8336  0.8490
 1037Sol     HW 7175   1.142   1.206   3.987  0.0189  0.1951  0.5150
 1037Sol     MW 7176   1.128   1.294   3.995 -0.2122  0.4438 -0.2170
 1038Sol     OW 7177   1.213   1.726   8.748  0.6189 -0.8368 -0.2823
 1038Sol     HW 7178   1.305   1.749   8.736  0.8041 -1.2320  0.3660
 1038Sol     HW 7179   1.205   1.704   8.841 -1.1207  3.7046  0.7733
 1038Sol     MW 7180   1.220   1.726   8.755  0.2631  0.1876 -0.5030
 1039Sol     OW 7181   1.826   1.305   1.603  0.6418  0.4335 -0.0302
 1039Sol     HW 7182   1.755   1.329   1.663 -0.0168 -0.5412 -0.3878
 1039Sol     HW 7183   1.851   1.216   1.630 -0.8553 -0.7233 -2.2582
 1039Sol     MW 7184   1.822   1.299   1.611  0.2726  0.2669  0.0992
 1040Sol     OW 7185   1.309   2.017   9.254 -0.1302  0.0658  0.2993
 1040Sol     HW 7186   1.241   2.010   9.187 -0.1939  0.5497  0.3117
 1040Sol     HW 7187   1.391   2.024   9.205 -0.1825  0.4827  0.2662
 1040Sol     MW 7188   1.310   2.017   9.244 -0.1953  0.8008 -0.0837
 1041Sol     OW 7189   1.911   2.357   8.095 -0.2969 -0.4140 -0.1996
 1041Sol     HW 7190   1.875   2.372   8.007 -0.5787  0.7988  0.1075
 1041Sol     HW 7191   1.838   2.318   8.144 -0.9523  1.2540  0.1848
 1041Sol     MW 7192   1.901   2.355   8.091  0.3524  0.4757 -0.1760
 1042Sol     OW 7193   0.965   2.007   4.930 -0.1328  0.2493 -0.2284
 1042Sol     HW 7194   0.929   2.090   4.962  0.5873 -0.1030  1.5838
 1042Sol     HW 7195   0.991   1.960   5.010  2.2282 -0.4571 -1.3614
 1042Sol     MW 7196   0.964   2.010   4.940  0.4220 -0.1771  0.4293
 1043Sol     OW 7197   2.116   1.647   3.411  0.0645 -0.5352  0.1839
 1043Sol     HW 7198   2.195   1.605   3.376  0.2227  0.7399 -1.0043
 1043Sol     HW 7199   2.088   1.589   3.482  3.0390 -0.0948  1.7746
 1043Sol     MW 7200   2.121   1.638   3.414  0.1576 -0.5385 -0.4297
 1044Sol     OW 7201   1.424   0.942   7.147  0.0040  0.5867  0.3459
 1044Sol     HW 7202   1.346   0.899   7.183 -0.6193  1.5723  0.1718
 1044Sol     HW 7203   1.485   0.945   7.220 -0.5172  0.7782  0.7737
 1044Sol     MW 7204   1.422   0.938   7.157  0.0195 -1.1290  0.7871
 1045Sol     OW 7205   1.765   0.648   5.198 -0.1332 -0.0180 -0.5743
 1045Sol     HW 7206   1.669   0.640   5.201  0.0217 -1.3098  2.0979
 1045Sol     HW 7207   1.790   0.667   5.288  2.3293 -2.0878 -0.7885
 1045Sol     MW 7208   1.759   0.649   5.206  0.8832  0.5598  0.1616
 1046Sol     OW 7209   0.093   1.452   3.482 -0.0045 -0.5532  0.2280
 1046Sol     HW 7210   0.104   1.358   3.466 -0.7935 -0.7195  0.6402
 1046Sol     HW 7211   0.024   1.457   3.548 -2.5609  0.4375 -2.3856
 1046Sol     MW 7212   0.087   1.444   3.486 -0.1175  0.3510 -0.1860
 1047Sol     OW 7213   0.121   3.008   5.525  0.4247  0.3515  0.5081
 1047Sol     HW 7214   0.090   3.002   5.435  0.2147  1.4262  0.5016
 1047Sol     HW 7215   0.075   2.937   5.571  0.8425 -0.4565 -0.3043
 1047Sol     MW 7216   0.114   3.001   5.521  0.3796 -0.9133  0.2790
 1048Sol     OW 7217   2.347   0.584   3.249  0.1972  0.1178 -0.0494
 1048Sol     HW 7218   2.382   0.517   3.190  1.1004  0.2093  0.3732
 1048Sol     HW 7219   2.260   0.552   3.274 -0.1504  0.0244 -1.3392
 1048Sol     MW 7220   2.342   0.575   3.246  0.5452  0.3082 -0.3008
 1049Sol     OW 7221   0.541   0.075   4.613  0.1908  0.1365 -0.4808
 1049Sol     HW 7222   0.454   0.042   4.637  0.4645  0.1497  0.5202
 1049Sol     HW 7223   0.561   0.030   4.531  0.3133 -1.7832  0.5665
 1049Sol     MW 7224   0.535   0.068   4.608 -0.0238  0.1195  0.2013
 1050Sol     OW 7225   2.710   3.421   7.698  0.0074 -0.2209 -0.1891
 1050Sol     HW 7226   2.786   3.417   7.756 -0.2267  1.2188  0.2167
 1050Sol     HW 7227   2.714   3.508   7.659 -1.3411 -0.2115 -0.3055
 1050Sol     MW 7228   2.717   3.428   7.700  1.0910  0.8060 -0.0685
 1051Sol     OW 7229   0.194   1.010   7.183 -0.2756 -0.0634 -0.1557
 1051Sol     HW 7230   0.249   0.992   7.259  1.1361 -2.0223 -1.5890
 1051Sol     HW 7231   0.238   0.965   7.111 -2.8521 -0.2120 -1.6889
 1051Sol     MW 7232   0.203   1.005   7.183  0.0648 -0.0953  0.4160
 1052Sol     OW 7233   3.226   2.295   3.417 -0.2796 -0.2803  0.6639
 1052Sol     HW 7234   3.217   2.280   3.323 -1.5246  0.1865  0.6987
 1052Sol     HW 7235   3.320   2.292   3.433  0.1240  2.1018 -1.0212
 1052Sol     MW 7236   3.233   2.293   3.410 -0.9421  0.1311 -0.3154
 1053Sol     OW 7237   1.971   2.132   9.045  0.1710  0.5755 -0.5969
 1053Sol     HW 7238   1.924   2.106   8.966 -0.6987  1.5072 -0.4124
 1053Sol     HW 7239   1.959   2.059   9.106 -2.3886  1.3964 -0.0086
 1053Sol     MW 7240   1.965   2.123   9.044 -0.2479 -0.7313 -0.4213
 1054Sol     OW 7241   1.663   3.346   7.496 -0.2838  0.3617  0.6092
 1054Sol     HW 7242   1.742   3.395   7.474  1.5908 -2.5199  0.5441
 1054Sol     HW 7243   1.682   3.307   7.582 -1.3986 -0.8283  0.3335
 1054Sol     MW 7244   1.672   3.347   7.502  0.1723  0.4244 -0.2252
 1055Sol     OW 7245   1.360   2.096   4.154 -0.0280  0.4286 -0.3776
 1055Sol     HW 7246   1.280   2.143   4.177  0.6538  0.7356  1.4195
 1055Sol     HW 7247   1.416   2.162   4.114  0.5905  0.9719  1.3555
 1055Sol     MW 7248   1.358   2.106   4.152 -0.2740 -0.2784  0.5052
 1056Sol     OW 7249   0.491   3.243   4.040 -0.5110 -0.4682 -0.0474
 1056Sol     HW 7250   0.519   3.316   4.097 -2.3540 -0.0928  0.4264
 1056Sol     HW 7251   0.531   3.262   3.956  0.9069 -0.1332  0.6855
 1056Sol     MW 7252   0.497   3.252   4.038  0.4055 -0.5679 -0.1658
 1057Sol     OW 7253   1.831   2.007   9.732  0.1492  0.0297  0.0788
 1057Sol     HW 7254   1.915   2.045   9.758  1.9501 -2.3585 -1.8837
 1057Sol     HW 7255   1.831   2.013   9.636 -1.0465 -1.7064 -0.0502
 1057Sol     MW 7256   1.839   2.011   9.726 -0.7308 -0.4968  0.4713
 1058Sol     OW 7257   0.598   2.447   8.622 -0.6036 -0.3965  0.3402
 1058Sol     HW 7258   0.693   2.444   8.609 -0.4621  0.5490  1.1136
 1058Sol     HW 7259   0.571   2.355   8.622  0.2348 -0.6454 -0.4411
 1058Sol     MW 7260   0.604   2.438   8.621 -0.7049  0.1351 -0.4175
 1059Sol     OW 7261   1.975   1.289   4.917  0.5767  0.3111  0.0644
 1059Sol     HW 7262   1.964   1.202   4.955 -0.0442  1.1406  1.8556
 1059Sol     HW 7263   2.010   1.273   4.830  0.8033 -1.7144  0.5027
 1059Sol     MW 7264   1.977   1.280   4.913 -0.6023 -0.6866 -0.2245
 1060Sol     OW 7265   1.598   2.002   2.985 -0.0375  0.0481 -0.1668
 1060Sol     HW 7266   1.677   1.971   3.029  0.8265 -0.2010 -1.8994
 1060Sol     HW 7267   1.607   2.098   2.984  0.5109 -0.0097 -0.8618
 1060Sol     MW 7268   1.606   2.008   2.989  0.2130  0.4634  0.0900
 1061Sol     OW 7269   0.588   1.213   5.386  0.3623 -0.3161 -0.1751
 1061Sol     HW 7270   0.662   1.272   5.375  0.6951 -0.2599  2.0486
 1061Sol     HW 7271   0.620   1.128   5.355  0.4333  0.2779 -1.7809
 1061Sol     MW 7272   0.597   1.211   5.382 -0.2605  0.0185  0.0954
 1062Sol     OW 7273   2.036   1.918   3.414 -0.1120  0.0522 -0.4036
 1062Sol     HW 7274   2.109   1.947   3.468  2.4816 -2.0211 -2.6168
 1062Sol     HW 7275   2.061   1.830   3.386 -2.7138 -0.0613 -2.5692
 1062Sol     MW 7276   2.045   1.913   3.416 -0.7631  0.5869 -1.0326
 1063Sol     OW 7277   3.174   0.676   7.954  0.4177  0.2934 -0.7835
 1063Sol     HW 7278   3.114   0.736   7.909 -0.0841  1.2893  1.1645
 1063Sol     HW 7279   3.253   0.728   7.969  0.4158  0.1104 -0.1176
 1063Sol     MW 7280   3.176   0.686   7.951 -0.4458 -0.2426 -0.2050
 1064Sol     OW 7281   2.975   0.003   6.331  0.2238  0.1128  0.1920
 1064Sol     HW 7282   2.946  -0.029   6.416 -0.7073 -0.8326 -0.4638
 1064Sol     HW 7283   3.057   0.048   6.349  1.0590 -1.7968  1.2947
 1064Sol     MW 7284   2.979   0.004   6.340 -0.1989  0.5437 -0.5505
 1065Sol     OW 7285   2.642   2.950   4.580  0.3147  0.1125  0.3315
 1065Sol     HW 7286   2.629   2.886   4.650 -0.3217 -0.8405 -0.6458
 1065Sol     HW 7287   2.735   2.942   4.558  0.5028  0.3674  1.0110
 1065Sol     MW 7288   2.649   2.943   4.585 -0.6120 -1.0214  0.5630
 1066Sol     OW 7289   1.268   1.405   6.832 -0.4903  0.1990 -0.1573
 1066Sol     HW 7290   1.342   1.419   6.772  0.4710  0.6699  1.1135
 1066Sol     HW 7291   1.292   1.326   6.881 -0.4130  0.8444  0.8581
 1066Sol     MW 7292   1.277   1.399   6.831  0.1773 -0.2127  0.4519
 1067Sol     OW 7293   0.920   1.176   1.827 -0.7311 -0.1457 -0.2661
 1067Sol     HW 7294   0.975   1.098   1.841  1.7769  1.5927 -0.0662
 1067Sol     HW 7295   0.941   1.203   1.738 -1.0026  0.7517 -0.0568
 1067Sol     MW 7296   0.927   1.171   1.820  0.0506 -0.0258 -0.0988
 1068Sol     OW 7297   2.334   1.186   7.167  0.3951 -0.2177 -0.2367
 1068Sol     HW 7298   2.328   1.261   7.227 -1.8557 -1.2998  0.9737
 1068Sol     HW 7299   2.373   1.116   7.220  1.0431 -0.3655 -0.9024
 1068Sol     MW 7300   2.337   1.187   7.177 -0.3231  0.2213 -0.3709
 1069Sol     OW 7301   0.004   2.857   7.182  1.0105  0.3752 -0.3431
 1069Sol     HW 7302   0.004   2.902   7.267 -1.1818 -1.0724  0.4623
 1069Sol     HW 7303   0.056   2.914   7.125  0.9007  2.3435  1.4526
 1069Sol     MW 7304   0.009   2.866   7.185  0.8052 -0.2328 -0.1625
 1070Sol     OW 7305   1.289   3.349   2.746 -0.4122  0.2236 -0.1676
 1070Sol     HW 7306   1.359   3.291   2.717 -2.0510 -1.4282 -0.8917
 1070Sol     HW 7307   1.262   3.397   2.667 -0.1620  0.8069  0.0937
 1070Sol     MW 7308   1.293   3.348   2.737 -0.2734 -0.6175 -0.3317
 1071Sol     OW 7309   2.035   0.178   4.281 -0.3799  0.0409 -0.0843
 1071Sol     HW 7310   1.991   0.245   4.228 -1.3879  0.2332  0.9656
 1071Sol     HW 7311   2.126   0.209   4.287 -0.0293 -0.4893 -2.4735
 1071Sol     MW 7312   2.040   0.187   4.277 -0.2998  0.1233 -0.6077
 1072Sol     OW 7313   2.081   2.172   1.611  0.7874  0.1431 -0.3473
 1072Sol     HW 7314   1.990   2.199   1.620  0.5582 -0.0226 -2.0186
 1072Sol     HW 7315   2.124   2.207   1.689 -1.0018 -1.0621  1.2344
 1072Sol     MW 7316   2.076   2.177   1.619 -0.1196 -0.0263  0.0967
 1073Sol     OW 7317   1.100   2.448   6.301  0.7623  0.2229 -0.3934
 1073Sol     HW 7318   1.150   2.526   6.277  0.1570  0.5192 -0.6905
 1073Sol     HW 7319   1.079   2.406   6.217 -0.2304  0.5677 -0.3319
 1073Sol     MW 7320   1.102   2.451   6.291  0.2948 -0.1669  0.2216
 1074Sol     OW 7321   3.194   1.639   6.590  0.2305 -0.1411  0.9473
 1074Sol     HW 7322   3.181   1.547   6.613 -0.3149 -0.5769 -1.0080
 1074Sol     HW 7323   3.289   1.651   6.588  0.3068 -0.7843  0.7796
 1074Sol     MW 7324   3.202   1.632   6.592  0.0038  0.0232  0.4868
 1075Sol     OW 7325   2.202   0.262   6.531 -0.6050  0.8039  1.2604
 1075Sol     HW 7326   2.120   0.248   6.577 -0.0761 -2.4518  1.3839
 1075Sol     HW 7327   2.179   0.311   6.453 -3.0384 -1.7792  0.2715
 1075Sol     MW 7328   2.193   0.265   6.529  0.1086  0.1591  0.1004
 1076Sol     OW 7329   0.138   0.516   2.997  0.3497 -0.3879  0.0385
 1076Sol     HW 7330   0.115   0.451   3.064  1.5702  0.0203  0.8795
 1076Sol     HW 7331   0.232   0.505   2.984  0.5709  1.2065  0.1922
 1076Sol     MW 7332   0.144   0.509   3.002 -0.5742  0.4946  0.6712
 1077Sol     OW 7333   0.188   0.040   7.066 -0.1201 -0.0827  0.0962
 1077Sol     HW 7334   0.094   0.032   7.085 -0.4393  0.9751 -0.9364
 1077Sol     HW 7335   0.210  -0.040   7.019 -1.2828  1.0723 -2.5352
 1077Sol     MW 7336   0.181   0.032   7.064 -0.4244  0.0061  0.6238
 1078Sol     OW 7337   2.580   3.130   9.309 -0.4143  0.2590  0.6450
 1078Sol     HW 7338   2.581   3.063   9.378  2.8162 -1.8703 -1.3330
 1078Sol     HW 7339   2.555   3.083   9.230  2.5317  1.1473 -0.9130
 1078Sol     MW 7340   2.578   3.120   9.308 -0.1332  0.8651 -0.2016
 1079Sol     OW 7341   2.420   1.426   1.800 -0.5221  0.1864  0.1306
 1079Sol     HW 7342   2.515   1.434   1.789 -0.8279  0.5958 -2.6572
 1079Sol     HW 7343   2.403   1.332   1.797 -0.0876  0.0196  2.1060
 1079Sol     MW 7344   2.427   1.418   1.799 -0.1545 -0.2173  0.4128
 1080Sol     OW 7345   0.389   0.512   3.767 -0.2187 -0.0608  0.1994
 1080Sol     HW 7346   0.304   0.524   3.724  0.0298  1.2127  0.0328
 1080Sol     HW 7347   0.444   0.470   3.700 -0.8367 -1.3314  0.4656
 1080Sol     MW 7348   0.386   0.509   3.757  0.6625  0.4583 -0.2482
 1081Sol     OW 7349   0.810   0.283   3.072  0.2293  0.3649  0.0631
 1081Sol     HW 7350   0.753   0.265   2.997 -0.0438 -1.5230  0.6948
 1081Sol     HW 7351   0.813   0.201   3.120  1.4309  1.1902  1.4465
 1081Sol     MW 7352   0.805   0.274   3.069  0.0596 -0.1377 -0.5632
 1082Sol     OW 7353   0.477   2.848   8.911  0.4399  0.0274  0.2901
 1082Sol     HW 7354   0.510   2.920   8.964  0.1785 -0.0205  0.5207
 1082Sol     HW 7355   0.472   2.774   8.971 -1.0425  0.2931  0.5243
 1082Sol     MW 7356   0.479   2.848   8.921 -0.4203 -0.1623 -0.4446
 1083Sol     OW 7357   0.687   1.467   2.130  0.6552 -0.3367 -0.1619
 1083Sol     HW 7358   0.639   1.539   2.089  0.5690 -0.6633 -0.6390
 1083Sol     HW 7359   0.722   1.505   2.211 -1.3856 -0.4224  0.7795
 1083Sol     MW 7360   0.686   1.477   2.134  0.3800 -0.0809  0.8869
 1084Sol     OW 7361   0.375   2.547   5.387  0.0100 -0.5138  0.1468
 1084Sol     HW 7362   0.368   2.541   5.483 -0.0783  1.5653  0.2959
 1084Sol     HW 7363   0.451   2.602   5.372 -1.8651  1.8787 -0.8965
 1084Sol     MW 7364   0.381   2.551   5.394  0.1045  0.5385 -0.5124
 1085Sol     OW 7365   2.787   0.722   7.745  0.4516  0.3025 -0.1369
 1085Sol     HW 7366   2.692   0.720   7.736  0.5605 -0.6773 -1.1614
 1085Sol     HW 7367   2.810   0.638   7.783  0.8150  0.9832  1.1777
 1085Sol     MW 7368   2.781   0.714   7.747 -0.1823  0.1086  0.2193
 1086Sol     OW 7369   2.074   2.459   6.970 -0.1608 -0.0614  0.3820
 1086Sol     HW 7370   2.144   2.519   6.994 -0.4712 -0.0111  1.1801
 1086Sol     HW 7371   2.086   2.445   6.876 -0.1962  1.3745  0.1531
 1086Sol     MW 7372   2.082   2.463   6.964  0.3092 -0.8275  0.0213
 1087Sol     OW 7373   2.386   1.902   9.935  0.1919 -0.5420  0.1804
 1087Sol     HW 7374   2.403   1.905   9.841  2.4896 -1.0853  0.5418
 1087Sol     HW 7375   2.297   1.870   9.943  0.3093 -1.3999 -1.7892
 1087Sol     MW 7376   2.380   1.900   9.927  0.2684  0.0994 -0.5072
 1088Sol     OW 7377   2.292   2.024   3.552 -0.2234  0.2538 -0.1737
 1088Sol     HW 7378   2.343   1.955   3.510 -1.5338 -0.3115 -0.8612
 1088Sol     HW 7379   2.291   2.000   3.645 -0.2932 -0.4208 -0.3453
 1088Sol     MW 7380   2.296   2.016   3.557  0.6961 -0.2156  0.3633
 1089Sol     OW 7381   2.693   0.698   5.846  0.0994  0.2266 -0.2285
 1089Sol     HW 7382   2.612   0.687   5.895 -0.1598  1.5135 -0.3399
 1089Sol     HW 7383   2.754   0.636   5.884 -0.2645  0.8300  1.3622
 1089Sol     MW 7384   2.691   0.692   5.854 -0.7190 -0.2687  0.1427
 1090Sol     OW 7385   3.208   1.205   2.334  0.0385 -0.3344 -0.1521
 1090Sol     HW 7386   3.245   1.283   2.293  0.1833 -1.1620 -1.6558
 1090Sol     HW 7387   3.256   1.132   2.294 -1.4188 -1.2808 -0.1962
 1090Sol     MW 7388   3.216   1.205   2.327  0.0872  0.1631 -0.1939
 1091Sol     OW 7389   2.002   1.268   4.624 -0.5454 -0.2182 -0.2813
 1091Sol     HW 7390   2.016   1.361   4.641 -0.0436 -0.3353 -0.0671
 1091Sol     HW 7391   2.068   1.245   4.558 -0.3309 -0.5505  0.0506
 1091Sol     MW 7392   2.009   1.274   4.619  0.7958  0.4132 -0.5032
 1092Sol     OW 7393   1.993   0.574   5.635  0.2410  0.4040  0.3140
 1092Sol     HW 7394   1.996   0.627   5.715 -1.3622  0.3004  0.4602
 1092Sol     HW 7395   1.914   0.604   5.590  0.2827 -0.6426 -0.4658
 1092Sol     MW 7396   1.986   0.582   5.638  0.0466 -0.1109  0.4017
 1093Sol     OW 7397   1.011   0.209   1.681  0.6516  0.2497  0.3256
 1093Sol     HW 7398   1.050   0.169   1.758  0.0302 -2.8742 -0.8771
 1093Sol     HW 7399   0.964   0.285   1.714  1.7308 -0.1080  2.7789
 1093Sol     MW 7400   1.010   0.212   1.690  0.0024  0.9784  0.3310
 1094Sol     OW 7401   1.896   2.500   3.301 -0.2162  0.1300  0.7490
 1094Sol     HW 7402   1.802   2.482   3.298 -0.3180  0.7308  0.3244
 1094Sol     HW 7403   1.930   2.463   3.219 -0.3726  1.5359  0.0306
 1094Sol     MW 7404   1.891   2.495   3.293  0.4577 -0.5937  0.4654
 1095Sol     OW 7405   2.466   0.965   1.887 -0.2864 -0.3062 -0.1849
 1095Sol     HW 7406   2.427   0.925   1.965 -3.8319 -1.7404 -2.5627
 1095Sol     HW 7407   2.555   0.931   1.885 -0.1235 -0.2446  3.2119
 1095Sol     MW 7408   2.470   0.958   1.894 -0.2824  0.5285  0.2445
 1096Sol     OW 7409   1.302   2.001   6.970  0.4731 -0.4430 -0.8688
 1096Sol     HW 7410   1.209   1.997   6.993  0.8358 -0.6082  0.6363
 1096Sol     HW 7411   1.317   1.923   6.917  0.1994 -1.5668  0.6596
 1096Sol     MW 7412   1.295   1.993   6.967 -0.6361  0.1540  0.1951
 1097Sol     OW 7413   1.479   0.773   4.968 -0.5636 -0.1769  0.4410
 1097Sol     HW 7414   1.459   0.710   4.899 -1.0462 -2.4337  2.5787
 1097Sol     HW 7415   1.407   0.836   4.964 -1.3685 -1.1154 -0.1534
 1097Sol     MW 7416   1.471   0.773   4.961  0.7672  0.2834 -0.4028
 1098Sol     OW 7417   1.991   0.324   8.768 -0.0951 -0.1623  0.3164
 1098Sol     HW 7418   1.913   0.378   8.782  0.7795  1.1108  0.4027
 1098Sol     HW 7419   1.978   0.248   8.824 -2.5641 -1.3351 -1.7618
 1098Sol     MW 7420   1.983   0.322   8.774  0.0297  0.1915  0.2068
 1099Sol     OW 7421   1.524   0.720   5.898  0.1666  0.3345  0.1488
 1099Sol     HW 7422   1.597   0.667   5.931  1.1610 -0.4619 -3.1334
 1099Sol     HW 7423   1.535   0.805   5.939  1.7468 -0.3898  1.2752
 1099Sol     MW 7424   1.531   0.723   5.904  0.0785 -0.1288 -0.5844
 1100Sol     OW 7425   1.504   2.117   5.905 -0.4048 -0.0692  1.0208
 1100Sol     HW 7426   1.586   2.163   5.886 -0.0890  0.0663  2.6376
 1100Sol     HW 7427   1.448   2.184   5.944 -1.7646  0.1587 -1.2732
 1100Sol     MW 7428   1.507   2.127   5.907 -0.1205 -0.6427  0.1753
 1101Sol     OW 7429   2.097   1.103   3.950  0.5592  0.3355  0.1226
 1101Sol     HW 7430   2.130   1.014   3.959 -1.3091 -0.3620  0.2597
 1101Sol     HW 7431   2.062   1.124   4.037 -0.8621  0.4267 -0.4595
 1101Sol     MW 7432   2.096   1.097   3.959 -0.0321  0.7917 -0.2045
 1102Sol     OW 7433   1.346   1.638   7.554  0.4086  0.2550 -0.0207
 1102Sol     HW 7434   1.323   1.592   7.634 -0.1839  0.4506 -0.0753
 1102Sol     HW 7435   1.425   1.594   7.522  1.0852  0.6630  1.0659
 1102Sol     MW 7436   1.351   1.630   7.558 -0.1586  0.5244 -0.5310
 1103Sol     OW 7437   0.856   1.225   3.130 -0.3250  0.4714  0.1661
 1103Sol     HW 7438   0.850   1.304   3.076  1.1142  0.4927  0.0315
 1103Sol     HW 7439   0.768   1.215   3.167 -0.9139  1.2981 -0.9944
 1103Sol     MW 7440   0.847   1.231   3.129 -0.0063 -0.0731 -0.8593
 1104Sol     OW 7441   3.237   0.516   3.804  1.0487 -0.3934  0.5761
 1104Sol     HW 7442   3.160   0.551   3.758  0.6235 -0.8342  0.9523
 1104Sol     HW 7443   3.275   0.592   3.848  0.7008 -0.2186  0.5777
 1104Sol     MW 7444   3.233   0.526   3.803  0.2148 -0.1680 -0.0183
 1105Sol     OW 7445   0.672   2.029   7.135 -0.3734  0.7442  0.0242
 1105Sol     HW 7446   0.726   2.025   7.056 -1.5625 -0.7130 -0.7453
 1105Sol     HW 7447   0.596   1.974   7.115 -0.7636  0.4668  2.1306
 1105Sol     MW 7448   0.670   2.023   7.126 -0.4209  0.0710  0.5101
 1106Sol     OW 7449   0.245   1.937   6.166  0.4703 -0.5021 -0.3206
 1106Sol     HW 7450   0.184   1.868   6.194  0.3792 -0.2842  0.0200
 1106Sol     HW 7451   0.277   1.975   6.248 -0.1600  0.4512 -0.5065
 1106Sol     MW 7452   0.242   1.934   6.176 -0.0774 -0.0949 -0.0684
 1107Sol     OW 7453   0.492   1.934   9.618  0.4870 -0.0844 -0.2927
 1107Sol     HW 7454   0.486   1.921   9.524 -0.5631 -0.9256 -0.1182
 1107Sol     HW 7455   0.569   1.883   9.644  2.2372  2.1075 -1.0231
 1107Sol     MW 7456   0.498   1.928   9.612 -0.0800  0.4821  0.3179
 1108Sol     OW 7457   1.978   3.001   4.186  0.6256  0.4524 -0.4993
 1108Sol     HW 7458   1.917   3.014   4.258  0.9221  1.1832 -0.3816
 1108Sol     HW 7459   1.956   3.069   4.123  0.2081 -0.3318 -1.2123
 1108Sol     MW 7460   1.970   3.008   4.187 -0.3905  0.0310  0.1778
 1109Sol     OW 7461   0.516   2.646   9.125  0.4397  0.1699 -0.2295
 1109Sol     HW 7462   0.460   2.682   9.193  1.0339 -1.0103  0.8958
 1109Sol     HW 7463   0.600   2.691   9.135  0.8304 -0.6839  0.4609
 1109Sol     MW 7464   0.519   2.653   9.132  0.2892  0.2011  0.2442
 1110Sol     OW 7465   0.327   2.751   4.469  0.5068 -0.0269 -0.2667
 1110Sol     HW 7466   0.256   2.739   4.405  0.4509 -0.4114 -0.1290
 1110Sol     HW 7467   0.291   2.718   4.551  1.4558 -1.8317 -0.5526
 1110Sol     MW 7468   0.317   2.747   4.470 -0.3914 -0.5540 -0.5616
 1111Sol     OW 7469   0.366   2.086   4.475  0.1424 -0.1208 -0.0911
 1111Sol     HW 7470   0.325   2.054   4.555  1.1949  0.0742  0.5326
 1111Sol     HW 7471   0.337   2.025   4.407 -1.5414  0.2833  0.2459
 1111Sol     MW 7472   0.360   2.077   4.476 -0.0218  0.1076 -0.1426
 1112Sol     OW 7473   1.638   2.395   3.297  0.3122  0.3306 -0.0364
 1112Sol     HW 7474   1.581   2.433   3.230  0.9977  0.7692 -0.3681
 1112Sol     HW 7475   1.579   2.339   3.348 -0.4167  0.7554 -0.3930
 1112Sol     MW 7476   1.627   2.394   3.296 -0.5394 -0.0740  0.1370
 1113Sol     OW 7477   0.928   0.394   2.775 -0.4056  0.2469 -0.5869
 1113Sol     HW 7478   1.011   0.347   2.761 -0.3847 -0.1719  0.8087
 1113Sol     HW 7479   0.955   0.482   2.803 -0.4443  0.6655 -1.8379
 1113Sol     MW 7480   0.938   0.398   2.776  0.2046  0.2730 -0.2519
 1114Sol     OW 7481   2.117   0.593   8.748  0.1263  0.2879  0.2947
 1114Sol     HW 7482   2.155   0.511   8.719 -0.9030 -0.2971  0.5597
 1114Sol     HW 7483   2.099   0.579   8.841  0.1115  0.8775  0.3811
 1114Sol     MW 7484   2.119   0.585   8.754 -0.5496 -0.3205  0.0075
 1115Sol     OW 7485   2.057   2.078   2.189 -0.1621  0.2307  0.0113
 1115Sol     HW 7486   2.032   2.163   2.153 -0.8212 -0.2786 -0.7675
 1115Sol     HW 7487   2.032   2.082   2.281  1.3501  1.4872  0.3909
 1115Sol     MW 7488   2.053   2.086   2.194 -0.1941 -0.6929 -0.2819
 1116Sol     OW 7489   1.800   3.092   3.314  0.3103  0.2854 -0.2415
 1116Sol     HW 7490   1.801   3.082   3.219  1.6369  0.5464 -0.2684
 1116Sol     HW 7491   1.742   3.022   3.345 -1.4875  1.2487 -1.3433
 1116Sol     MW 7492   1.795   3.085   3.309  0.2548 -0.2025 -0.1638
 1117Sol     OW 7493   0.368   2.731   3.968 -0.2202 -0.3463  0.2072
 1117Sol     HW 7494   0.325   2.795   4.024 -1.5196 -1.8420  0.9760
 1117Sol     HW 7495   0.413   2.672   4.028  2.5323  0.8550 -0.5596
 1117Sol     MW 7496   0.368   2.731   3.978  0.1120  0.0842 -0.0943
 1118Sol     OW 7497   3.214   2.792   1.967 -0.3833 -0.4406 -0.2968
 1118Sol     HW 7498   3.242   2.714   2.015  0.4946 -0.0527 -0.1848
 1118Sol     HW 7499   3.263   2.790   1.885  3.4862  2.6605  1.7978
 1118Sol     MW 7500   3.221   2.785   1.964 -0.1801  0.0172  0.5486
 1119Sol     OW 7501   2.855   2.523   5.926 -0.2515 -0.3498 -0.4159
 1119Sol     HW 7502   2.918   2.591   5.902  0.2609 -0.8688 -0.5527
 1119Sol     HW 7503   2.907   2.442   5.928 -0.7749 -0.6774  0.1206
 1119Sol     MW 7504   2.866   2.522   5.924 -0.0790  0.1494  0.6924
 1120Sol     OW 7505   1.859   0.111   4.503  0.9027 -0.2469  0.8098
 1120Sol     HW 7506   1.917   0.121   4.427  0.9116 -1.6186  0.6245
 1120Sol     HW 7507   1.913   0.139   4.578  0.7770  1.4471  0.2840
 1120Sol     MW 7508   1.869   0.114   4.503 -0.0223  0.2474  0.3555
 1121Sol     OW 7509   2.030   0.074   5.986 -0.1200 -0.1248  0.2567
 1121Sol     HW 7510   1.952   0.048   5.937 -1.6453  3.1233  0.8239
 1121Sol     HW 7511   2.011   0.052   6.077  0.6788 -1.5667  0.1002
 1121Sol     MW 7512   2.022   0.070   5.990  0.3187 -0.3257 -0.2549
 1122Sol     OW 7513   0.020   2.990   7.413  0.5908  0.1547 -0.3302
 1122Sol     HW 7514   0.028   3.079   7.378  0.1131  0.1190 -0.5341
 1122Sol     HW 7515   0.101   2.976   7.462  1.0126  0.4062 -0.9633
 1122Sol     MW 7516   0.028   2.997   7.415 -0.7264  0.2494 -1.1614
 1123Sol     OW 7517   1.600   1.807   5.359  0.2992 -0.2776 -0.1869
 1123Sol     HW 7518   1.587   1.865   5.434 -0.0258 -0.6125  0.0151
 1123Sol     HW 7519   1.695   1.803   5.349  0.2834  2.4293 -1.8726
 1123Sol     MW 7520   1.607   1.811   5.365  0.3445  0.4074  0.0893
 1124Sol     OW 7521   2.049   0.547   4.019 -0.5528  0.4382 -0.1076
 1124Sol     HW 7522   2.118   0.544   4.085 -1.6237 -1.0531  0.9834
 1124Sol     HW 7523   2.058   0.464   3.972 -2.2551 -0.2388  0.7394
 1124Sol     MW 7524   2.056   0.540   4.021 -0.6384  0.3663 -0.0019
 1125Sol     OW 7525   2.210   2.209   3.041 -0.1048 -0.3251  0.0363
 1125Sol     HW 7526   2.176   2.130   3.082  0.2552  0.2012  1.3721
 1125Sol     HW 7527   2.277   2.177   2.980 -1.1678 -1.1680 -0.6958
 1125Sol     MW 7528   2.213   2.199   3.039  0.3817  0.2984  0.2410
 1126Sol     OW 7529   0.934   0.505   7.212 -0.0151 -0.1575 -0.2842
 1126Sol     HW 7530   1.001   0.438   7.229 -0.8675 -1.2797 -1.2962
 1126Sol     HW 7531   0.876   0.466   7.148 -1.8592  0.6927  0.8216
 1126Sol     MW 7532   0.935   0.496   7.208 -0.1402  0.7846  0.2751
 1127Sol     OW 7533   1.658   3.024   9.331 -0.1746 -0.2386  0.4688
 1127Sol     HW 7534   1.664   2.930   9.349 -0.5286  0.0789  2.2576
 1127Sol     HW 7535   1.742   3.060   9.361  0.3665 -0.1089 -1.1323
 1127Sol     MW 7536   1.666   3.019   9.335  0.3443  0.3901 -0.7026
 1128Sol     OW 7537   2.649   0.685   5.579  0.2137 -0.1956  0.6093
 1128Sol     HW 7538   2.619   0.599   5.550  1.7035 -0.5398  0.0568
 1128Sol     HW 7539   2.671   0.674   5.672  0.3521 -0.3990  0.5515
 1128Sol     MW 7540   2.648   0.677   5.585 -0.4391 -0.2036 -0.9514
 1129Sol     OW 7541   2.275   2.927   2.780 -0.2053  0.4294  0.1370
 1129Sol     HW 7542   2.248   2.913   2.689  0.2213 -0.9245  0.2016
 1129Sol     HW 7543   2.241   2.851   2.827 -0.6960  1.2820  1.1741
 1129Sol     MW 7544   2.269   2.919   2.776 -0.0797  0.4562 -0.4852
 1130Sol     OW 7545   0.759   2.624   2.861 -0.3597  0.4504  0.2436
 1130Sol     HW 7546   0.696   2.679   2.908 -0.5589 -0.0081  0.5062
 1130Sol     HW 7547   0.837   2.624   2.916 -0.0186  1.2659 -0.2267
 1130Sol     MW 7548   0.760   2.629   2.870 -0.8383  0.1570 -0.6510
 1131Sol     OW 7549   2.151   3.355   7.784 -0.1977 -0.0032  0.1286
 1131Sol     HW 7550   2.240   3.332   7.807 -0.2820 -0.8200 -0.3296
 1131Sol     HW 7551   2.107   3.371   7.867 -0.4190 -2.5670  0.5267
 1131Sol     MW 7552   2.155   3.355   7.793 -0.1609  0.1162 -0.2442
 1132Sol     OW 7553   0.362   3.167   7.255 -0.2428  0.1555  0.3830
 1132Sol     HW 7554   0.365   3.076   7.224 -0.3000  0.0285  0.7377
 1132Sol     HW 7555   0.411   3.165   7.338  0.4725  0.6198 -0.0218
 1132Sol     MW 7556   0.367   3.159   7.260  0.1483 -0.4133 -1.1987
 1133Sol     OW 7557   2.711   0.367   4.352 -0.3466  0.4938  0.2210
 1133Sol     HW 7558   2.680   0.284   4.389 -0.1467  0.2428 -0.1765
 1133Sol     HW 7559   2.645   0.389   4.287  0.7146 -0.4454 -1.1915
 1133Sol     MW 7560   2.702   0.361   4.350  0.1276 -0.1855  0.3328
 1134Sol     OW 7561   1.149   1.061   8.672  0.0807 -0.9307 -0.7922
 1134Sol     HW 7562   1.111   1.033   8.755 -2.7333 -0.4057 -1.8264
 1134Sol     HW 7563   1.091   1.024   8.606  1.1707  0.2493 -2.4510
 1134Sol     MW 7564   1.140   1.055   8.673 -0.4024  0.2550 -0.8521
 1135Sol     OW 7565   0.970   1.885   3.018 -0.1964 -0.5155 -0.3950
 1135Sol     HW 7566   0.948   1.822   3.086  0.8683  1.2011  1.5983
 1135Sol     HW 7567   0.894   1.944   3.014  0.3054  0.1910  0.2906
 1135Sol     MW 7568   0.961   1.885   3.023 -0.5167 -0.2421  0.2107
 1136Sol     OW 7569   0.736   2.042   1.612 -0.7000 -0.4087  0.1232
 1136Sol     HW 7570   0.789   2.076   1.539 -0.3782 -0.0964  0.5044
 1136Sol     HW 7571   0.775   2.081   1.690 -2.1093  0.5929  0.3351
 1136Sol     MW 7572   0.744   2.048   1.612  0.0261 -0.0946 -0.1856
 1137Sol     OW 7573   2.944   1.665   4.468  0.5876 -0.5149 -0.2578
 1137Sol     HW 7574   2.936   1.758   4.487 -2.9059 -0.3548 -2.2798
 1137Sol     HW 7575   3.014   1.659   4.403  0.0096  0.8148 -1.0005
 1137Sol     MW 7576   2.950   1.673   4.464  0.0542  0.3022 -0.8977
 1138Sol     OW 7577   1.164   2.295   1.490 -0.0331  0.4971  0.2697
 1138Sol     HW 7578   1.152   2.388   1.510  0.6838  0.8570 -0.9282
 1138Sol     HW 7579   1.245   2.292   1.439 -0.0434 -0.7930  0.3130
 1138Sol     MW 7580   1.171   2.303   1.487 -0.2075  0.2558  0.4377
 1139Sol     OW 7581   2.231   2.090   5.942 -0.0593  0.1020 -0.1754
 1139Sol     HW 7582   2.234   2.014   6.000 -0.5588 -0.8572 -1.3901
 1139Sol     HW 7583   2.275   2.062   5.863  1.3637  1.6903  0.0344
 1139Sol     MW 7584   2.235   2.081   5.940 -0.1729  0.1569  0.1480
 1140Sol     OW 7585   2.715   0.476   9.818  0.6195 -0.4589  0.1854
 1140Sol     HW 7586   2.797   0.429   9.834  1.3460  1.0066  0.8806
 1140Sol     HW 7587   2.649   0.408   9.809  2.0851 -1.7045 -1.4190
 1140Sol     MW 7588   2.717   0.466   9.819  0.1852  0.1715 -0.2837
 1141Sol     OW 7589   0.841   2.417   7.667 -0.2002 -0.4167  0.3209
 1141Sol     HW 7590   0.820   2.505   7.697  1.5586 -0.2453  1.1255
 1141Sol     HW 7591   0.819   2.417   7.574 -1.9620  0.2861  0.7302
 1141Sol     MW 7592   0.837   2.425   7.661  0.7494  0.1265 -0.4965
 1142Sol     OW 7593   0.295   2.937   8.468  0.1247  0.7073 -0.2562
 1142Sol     HW 7594   0.264   2.856   8.429 -0.9891 -0.8469  3.6471
 1142Sol     HW 7595   0.389   2.938   8.450 -0.2435 -0.2490 -2.3509
 1142Sol     MW 7596   0.301   2.930   8.463  0.3450 -0.2633 -0.1356
 1143Sol     OW 7597   0.940   1.837   6.207  0.5865 -0.5020 -0.0502
 1143Sol     HW 7598   0.880   1.773   6.170  0.5594  0.1231 -1.1367
 1143Sol     HW 7599   0.942   1.819   6.301 -1.4697 -0.3990  0.0284
 1143Sol     MW 7600   0.935   1.830   6.212 -0.9076 -0.0782  0.0090
 1144Sol     OW 7601   1.475   2.472   7.546 -0.4950 -0.4231 -0.4299
 1144Sol     HW 7602   1.407   2.408   7.525 -1.5563 -0.1033  1.8093
 1144Sol     HW 7603   1.432   2.557   7.534 -0.4101 -0.2127  0.6924
 1144Sol     MW 7604   1.465   2.474   7.543  0.1723  0.2820  0.0299
 1145Sol     OW 7605   1.183   1.344   8.558 -0.0112  0.5368  0.4812
 1145Sol     HW 7606   1.179   1.248   8.560  0.1172  0.5477  1.5538
 1145Sol     HW 7607   1.275   1.364   8.542  0.1407  0.4809  1.2508
 1145Sol     MW 7608   1.191   1.337   8.557  0.2842 -0.3294  0.1807
 1146Sol     OW 7609   0.689   1.952   3.307 -0.5740 -0.0875  0.0548
 1146Sol     HW 7610   0.706   1.959   3.213 -1.9184  0.5253 -0.1669
 1146Sol     HW 7611   0.764   1.994   3.348 -0.2493  0.1488 -0.7618
 1146Sol     MW 7612   0.697   1.956   3.302 -0.6061  0.1214  0.1913
 1147Sol     OW 7613   2.029   3.429   3.423  0.0779  0.3410 -0.0114
 1147Sol     HW 7614   2.034   3.517   3.385 -0.0981  0.7782  0.9632
 1147Sol     HW 7615   1.940   3.400   3.405  0.2699  0.1989 -0.7090
 1147Sol     MW 7616   2.022   3.434   3.418 -0.3885 -1.0260  0.2750
 1148Sol     OW 7617   0.868   3.447   4.705  0.0011  0.1587 -0.4738
 1148Sol     HW 7618   0.905   3.447   4.616  0.3949 -0.2993 -0.3142
 1148Sol     HW 7619   0.788   3.499   4.697  0.2763  0.5144 -0.9945
 1148Sol     MW 7620   0.864   3.451   4.696 -0.7250 -0.1565 -0.2658
 1149Sol     OW 7621   1.236   1.850   7.729  0.0795  0.3300  0.8057
 1149Sol     HW 7622   1.150   1.886   7.707  0.4193  1.1609  0.8238
 1149Sol     HW 7623   1.269   1.816   7.645 -0.6786 -0.8892  0.9893
 1149Sol     MW 7624   1.232   1.850   7.719  0.2791  0.2872 -0.1643
 1150Sol     OW 7625   3.170   0.667   7.217  0.0007  0.1131 -0.4127
 1150Sol     HW 7626   3.191   0.761   7.215  0.4902  0.0333  0.5679
 1150Sol     HW 7627   3.076   0.663   7.200  0.6296  0.5300 -4.2734
 1150Sol     MW 7628   3.164   0.675   7.216  0.3575  0.2239 -0.1203
 1151Sol     OW 7629   0.974   0.582   8.193  0.4961 -0.2721 -0.0957
 1151Sol     HW 7630   1.007   0.544   8.112 -0.4031  1.3541 -1.2619
 1151Sol     HW 7631   0.912   0.517   8.226  2.3887 -1.8622  0.3909
 1151Sol     MW 7632   0.971   0.572   8.189 -0.0679  0.1760  0.4698
 1152Sol     OW 7633   1.571   0.246   9.123  0.3784  0.3473 -0.0908
 1152Sol     HW 7634   1.497   0.272   9.178  0.1147  1.2718 -0.8500
 1152Sol     HW 7635   1.634   0.207   9.183  0.0420  1.2307  0.8450
 1152Sol     MW 7636   1.570   0.245   9.133 -1.0338 -0.1395 -0.1226
 1153Sol     OW 7637   1.600   0.171   6.114  0.0690  0.2595  0.3122
 1153Sol     HW 7638   1.523   0.182   6.059  0.0350 -2.1535 -0.1675
 1153Sol     HW 7639   1.584   0.090   6.162 -0.0325  2.3714  4.1359
 1153Sol     MW 7640   1.592   0.165   6.114 -0.7870 -0.2667  0.0790
 1154Sol     OW 7641   1.508   1.037   1.704 -0.3258 -0.1005  0.5843
 1154Sol     HW 7642   1.497   0.979   1.629  0.9516 -0.2173  0.4762
 1154Sol     HW 7643   1.590   1.008   1.745  0.1358  1.3821  0.7391
 1154Sol     MW 7644   1.514   1.029   1.701 -0.0342 -0.6094 -0.3234
 1155Sol     OW 7645   2.468   2.033   6.699 -0.1414  0.0964  0.4235
 1155Sol     HW 7646   2.478   2.061   6.608  0.0084 -1.6655 -0.1153
 1155Sol     HW 7647   2.442   1.941   6.693  1.4822 -0.4982  2.1947
 1155Sol     MW 7648   2.467   2.028   6.690 -0.1179 -0.2183 -0.5299
 1156Sol     OW 7649   2.956   2.303   2.020 -0.3343  0.0446  0.2859
 1156Sol     HW 7650   2.999   2.219   2.003 -2.1154 -0.6803 -0.8054
 1156Sol     HW 7651   2.868   2.293   1.984 -0.6339  2.3358  0.2715
 1156Sol     MW 7652   2.952   2.295   2.015 -0.2453 -0.5496  0.1868
 1157Sol     OW 7653   3.030   2.300   5.907 -0.5453 -0.1312  0.5055
 1157Sol     HW 7654   3.125   2.295   5.923 -0.5972  0.5754  1.0600
 1157Sol     HW 7655   3.020   2.280   5.814  0.2727  1.1745  0.1226
 1157Sol     MW 7656   3.038   2.297   5.900 -0.2788  0.9252 -0.2103
 1158Sol     OW 7657   0.212   3.182   7.886 -0.1897 -0.5750  0.1034
 1158Sol     HW 7658   0.242   3.216   7.802  0.3066 -1.5846 -0.1438
 1158Sol     HW 7659   0.145   3.244   7.915 -2.2857 -1.6063 -2.2966
 1158Sol     MW 7660   0.209   3.190   7.881 -0.1064 -0.0280 -0.1738
 1159Sol     OW 7661   2.043   1.930   1.777  0.1687  0.1069  0.5136
 1159Sol     HW 7662   2.046   1.890   1.690  1.4601 -0.7887  0.9489
 1159Sol     HW 7663   2.024   2.022   1.760  0.1210 -0.1093 -0.6992
 1159Sol     MW 7664   2.041   1.935   1.768  0.6139 -0.5199  0.5914
 1160Sol     OW 7665   0.042   2.963   2.833 -0.2577 -0.4872  0.4053
 1160Sol     HW 7666  -0.003   2.890   2.791 -0.0628 -1.0120  1.0950
 1160Sol     HW 7667   0.105   2.922   2.892 -0.5827  0.2386  1.2724
 1160Sol     MW 7668   0.044   2.953   2.834 -0.0346 -0.2425  0.0163
 1161Sol     OW 7669   1.250   0.569   2.793 -0.0774  0.3484 -0.0909
 1161Sol     HW 7670   1.231   0.481   2.759 -1.6140  0.9738 -0.8871
 1161Sol     HW 7671   1.342   0.564   2.820  0.5955 -0.7855 -2.4247
 1161Sol     MW 7672   1.256   0.560   2.792  0.3225  0.2313  0.3237
 1162Sol     OW 7673   1.516   1.961   7.117  0.7773  0.0619 -0.2197
 1162Sol     HW 7674   1.435   1.973   7.067  1.0622 -0.9744 -0.9589
 1162Sol     HW 7675   1.560   1.888   7.073  1.7029  0.0588  0.7021
 1162Sol     MW 7676   1.512   1.955   7.108  0.2000  0.0016 -0.3629
 1163Sol     OW 7677   0.066   3.109   6.672 -0.1120 -0.5989 -0.1042
 1163Sol     HW 7678   0.029   3.154   6.595 -0.1410 -0.9480 -0.2946
 1163Sol     HW 7679  -0.008   3.062   6.710  0.0754 -1.0812 -0.3305
 1163Sol     MW 7680   0.056   3.109   6.668 -0.2435 -0.2803 -0.2208
 1164Sol     OW 7681   1.158   1.041   6.931  0.3549  0.4251  0.3183
 1164Sol     HW 7682   1.088   1.040   6.997  1.1715 -0.0248  1.1788
 1164Sol     HW 7683   1.180   0.949   6.918 -0.1039  0.4728 -0.9209
 1164Sol     MW 7684   1.153   1.032   6.936 -0.0024 -0.1220 -0.6227
 1165Sol     OW 7685   0.465   0.776   4.266 -0.1982 -0.3815 -0.0751
 1165Sol     HW 7686   0.379   0.741   4.244  0.4545 -1.1379 -1.4786
 1165Sol     HW 7687   0.526   0.704   4.249  0.8546  0.5491 -0.3238
 1165Sol     MW 7688   0.463   0.767   4.262 -0.2373 -0.0547  0.6484
 1166Sol     OW 7689   1.320   0.090   5.707  0.3726 -0.2951 -0.2308
 1166Sol     HW 7690   1.262   0.019   5.734 -1.1053  1.6396  1.8426
 1166Sol     HW 7691   1.322   0.085   5.612 -2.2014 -1.1772 -0.2655
 1166Sol     MW 7692   1.315   0.083   5.701 -0.5145 -0.4194 -0.8145
 1167Sol     OW 7693   0.190   0.103   9.020  0.2811 -0.0777  0.0012
 1167Sol     HW 7694   0.181   0.137   8.931  0.3221  0.6943  0.2946
 1167Sol     HW 7695   0.263   0.041   9.014 -0.5966 -1.0521 -0.8039
 1167Sol     MW 7696   0.196   0.100   9.011  0.3477 -0.5048  0.6961
 1168Sol     OW 7697   0.025   0.924   4.154 -0.2291  0.3874 -0.0073
 1168Sol     HW 7698  -0.052   0.961   4.196 -0.9202 -1.8726  0.7927
 1168Sol     HW 7699   0.092   0.992   4.161 -0.5176  0.3760  4.2008
 1168Sol     MW 7700   0.024   0.933   4.158  0.0972  0.7098 -0.0153
 1169Sol     OW 7701   1.191   1.515   6.207 -0.1148 -0.0280 -0.9990
 1169Sol     HW 7702   1.193   1.586   6.272  1.0025  0.6341 -1.7428
 1169Sol     HW 7703   1.123   1.540   6.146 -0.1924  0.0535 -0.8801
 1169Sol     MW 7704   1.185   1.523   6.208 -0.2300 -0.0179 -0.1137
 1170Sol     OW 7705   1.943   0.966   6.300 -0.1760 -0.1434 -0.2387
 1170Sol     HW 7706   1.875   0.977   6.366  1.3457  1.4012  1.1360
 1170Sol     HW 7707   1.908   1.006   6.221 -0.8368  0.6941  0.4741
 1170Sol     MW 7708   1.934   0.970   6.299  0.2517 -0.0503 -0.7697
 1171Sol     OW 7709   1.567   0.145   6.903  0.1281  0.1629 -0.7425
 1171Sol     HW 7710   1.501   0.098   6.853  0.9840 -2.5944  0.5798
 1171Sol     HW 7711   1.643   0.150   6.845 -0.2695  0.6625 -1.2092
 1171Sol     MW 7712   1.568   0.141   6.893  0.5261 -0.5083  0.5583
 1172Sol     OW 7713   2.541   3.196   2.187  0.1082 -0.3339  0.1721
 1172Sol     HW 7714   2.488   3.120   2.166  0.0133 -0.1329 -0.3112
 1172Sol     HW 7715   2.576   3.226   2.103  1.0277 -0.4878  0.4901
 1172Sol     MW 7716   2.539   3.192   2.178 -0.3555  0.4686 -0.1626
 1173Sol     OW 7717   2.437   3.138   9.939 -0.1444  0.2388  0.1312
 1173Sol     HW 7718   2.474   3.155  10.026  1.4686 -2.4743  0.0255
 1173Sol     HW 7719   2.509   3.099   9.890 -1.8104 -0.7281 -1.5953
 1173Sol     MW 7720   2.446   3.136   9.943  0.1096  0.0138  0.1100
 1174Sol     OW 7721   2.706   1.382   5.458 -0.0461  0.0588 -0.4542
 1174Sol     HW 7722   2.686   1.336   5.376  1.7364  0.2305 -0.9964
 1174Sol     HW 7723   2.795   1.354   5.480 -0.6665 -0.3401  1.6749
 1174Sol     MW 7724   2.712   1.375   5.453  0.7412  0.0088 -0.6591
 1175Sol     OW 7725   1.446   3.182   7.845  0.5683  0.1370 -0.2526
 1175Sol     HW 7726   1.478   3.185   7.935  1.0776  0.3398 -0.4330
 1175Sol     HW 7727   1.474   3.096   7.812 -1.5269 -0.8296  0.4634
 1175Sol     MW 7728   1.452   3.175   7.850  0.7939 -0.2338 -0.3508
 1176Sol     OW 7729   2.344   2.582   6.053  0.0803 -0.0310 -0.0496
 1176Sol     HW 7730   2.359   2.488   6.046 -0.8354 -0.3183  1.5964
 1176Sol     HW 7731   2.290   2.592   6.132 -1.0475  1.7380 -1.0207
 1176Sol     MW 7732   2.340   2.574   6.060  0.3067  0.1522 -0.0086
 1177Sol     OW 7733   1.992   0.068   8.852 -0.0911 -0.1298 -0.0666
 1177Sol     HW 7734   2.020   0.041   8.940 -0.9371 -0.6501  0.0558
 1177Sol     HW 7735   2.031   0.003   8.793  0.5842  0.2953 -0.0872
 1177Sol     MW 7736   1.998   0.060   8.855 -0.0117  0.1324  0.3234
 1178Sol     OW 7737   2.546   0.235   4.779  0.7434 -0.6913  0.4895
 1178Sol     HW 7738   2.502   0.213   4.697  2.8197 -0.7096 -0.6517
 1178Sol     HW 7739   2.479   0.279   4.831 -0.5934 -0.6236 -1.2420
 1178Sol     MW 7740   2.536   0.237   4.776 -0.4975 -0.2630  0.2743
 1179Sol     OW 7741   2.883   3.219   2.789 -0.4743  0.0815  0.3765
 1179Sol     HW 7742   2.851   3.265   2.867 -0.6538 -1.1829  1.0629
 1179Sol     HW 7743   2.963   3.265   2.765 -1.8561  2.1856 -0.3125
 1179Sol     MW 7744   2.887   3.227   2.794  0.0080 -0.0170 -0.1839
 1180Sol     OW 7745   1.079   2.246   8.975  0.3605  0.0759  0.1437
 1180Sol     HW 7746   1.037   2.274   9.056 -0.5031 -0.6979 -0.0381
 1180Sol     HW 7747   1.016   2.268   8.906  1.8332  2.4206 -0.5373
 1180Sol     MW 7748   1.070   2.251   8.976 -0.2887 -0.4679 -0.3643
 1181Sol     OW 7749   0.515   3.057   9.779  0.1951  0.1383 -0.2636
 1181Sol     HW 7750   0.446   2.996   9.805 -0.4683  0.1471 -1.9139
 1181Sol     HW 7751   0.474   3.110   9.710  0.9400  2.0679  0.7336
 1181Sol     MW 7752   0.505   3.056   9.775  0.0341 -0.3642 -0.0462
 1182Sol     OW 7753   0.403   2.456   3.586 -0.1390  0.4106 -0.6807
 1182Sol     HW 7754   0.463   2.466   3.512  0.2208  1.9976 -0.1857
 1182Sol     HW 7755   0.460   2.444   3.662 -0.4597  1.2224 -0.3102
 1182Sol     MW 7756   0.414   2.456   3.586  0.3075 -0.0271  0.0961
 1183Sol     OW 7757   2.599   1.688   2.138 -0.3182  0.3439 -0.2524
 1183Sol     HW 7758   2.669   1.746   2.107 -1.0707  1.1560 -0.4531
 1183Sol     HW 7759   2.602   1.695   2.233  0.1486  0.0529 -0.2461
 1183Sol     MW 7760   2.606   1.694   2.143  0.8580  0.7100 -0.4710
 1184Sol     OW 7761   0.803   2.425   1.481 -0.2698 -0.0266 -0.1759
 1184Sol     HW 7762   0.836   2.335   1.476 -0.2142  0.0077 -0.4210
 1184Sol     HW 7763   0.866   2.470   1.537 -1.0267 -0.4689  1.0591
 1184Sol     MW 7764   0.812   2.421   1.485  0.4483 -0.1556 -0.1178
 1185Sol     OW 7765   2.210   1.859   4.340  0.0540 -0.0494 -0.1315
 1185Sol     HW 7766   2.238   1.855   4.431  0.7290  0.4932 -0.3115
 1185Sol     HW 7767   2.281   1.906   4.295 -1.7716  2.5992 -0.3375
 1185Sol     MW 7768   2.219   1.863   4.344  0.4939  0.2339  0.0314
 1186Sol     OW 7769   1.835   0.862   7.978 -0.0771 -0.7983  0.2573
 1186Sol     HW 7770   1.808   0.954   7.975  2.1149 -0.1531 -0.7966
 1186Sol     HW 7771   1.772   0.818   7.921 -0.4029  0.2550 -0.2216
 1186Sol     MW 7772   1.827   0.866   7.972 -0.2993 -0.1621  0.1968
 1187Sol     OW 7773   1.649   0.612   8.148 -0.4758 -0.5185 -0.0024
 1187Sol     HW 7774   1.592   0.689   8.150  0.6911  0.3562 -0.1144
 1187Sol     HW 7775   1.737   0.648   8.139 -0.1122 -1.9472 -2.3958
 1187Sol     MW 7776   1.652   0.622   8.148 -0.2427 -0.6676 -0.0685
 1188Sol     OW 7777   1.022   1.456   2.451  0.3896 -0.2241  0.3444
 1188Sol     HW 7778   1.072   1.377   2.429 -0.3855 -0.7831  0.5350
 1188Sol     HW 7779   1.069   1.494   2.525  1.0660 -0.2196 -0.0818
 1188Sol     MW 7780   1.031   1.452   2.456 -0.1303  0.2044 -0.4674
 1189Sol     OW 7781   3.039   0.539   8.382 -0.5029 -0.3446 -0.0344
 1189Sol     HW 7782   3.072   0.470   8.440  3.3627 -0.2785 -1.9773
 1189Sol     HW 7783   3.068   0.621   8.423 -1.1657 -0.0843 -0.0752
 1189Sol     MW 7784   3.044   0.540   8.391  0.9630 -0.0708  0.3384
 1190Sol     OW 7785   0.207   1.112   2.427 -0.4121 -0.1686  0.3040
 1190Sol     HW 7786   0.266   1.150   2.362 -0.5730  2.2248  1.4934
 1190Sol     HW 7787   0.197   1.021   2.400  0.7132  0.3856 -2.1454
 1190Sol     MW 7788   0.211   1.108   2.419 -0.7223 -0.4512  0.4249
 1191Sol     OW 7789   2.137   0.155   5.186 -1.0722  0.4660 -0.5840
 1191Sol     HW 7790   2.200   0.101   5.138 -0.3978  1.7216 -1.1452
 1191Sol     HW 7791   2.057   0.103   5.187 -0.5462 -0.3869 -1.4317
 1191Sol     MW 7792   2.135   0.145   5.182  0.5443 -0.4782 -0.5230
 1192Sol     OW 7793   1.705   2.883   2.227 -0.4594  0.4920 -0.0240
 1192Sol     HW 7794   1.616   2.846   2.229 -0.5548  0.7475  0.3804
 1192Sol     HW 7795   1.762   2.806   2.233 -0.6490  0.3144 -0.4426
 1192Sol     MW 7796   1.702   2.872   2.228  0.0855  0.0724 -0.1643
 1193Sol     OW 7797   0.803   2.695   4.226  0.0888 -0.3559  0.1531
 1193Sol     HW 7798   0.749   2.635   4.175 -1.0087  2.1237 -1.6627
 1193Sol     HW 7799   0.881   2.644   4.247 -0.7169 -2.3538 -1.4971
 1193Sol     MW 7800   0.805   2.685   4.224  0.2360  0.2122 -0.1771
 1194Sol     OW 7801   2.515   1.044   8.039  0.4245 -0.0089  0.2077
 1194Sol     HW 7802   2.579   1.108   8.007 -1.4834  2.1405  0.5392
 1194Sol     HW 7803   2.517   1.055   8.134  2.3235 -2.7024  0.5361
 1194Sol     MW 7804   2.521   1.051   8.045  0.3722 -0.5638 -0.3101
 1195Sol     OW 7805   1.308   1.122   7.818  0.2571 -0.0690  0.4488
 1195Sol     HW 7806   1.383   1.119   7.877  1.1458 -0.6475 -0.7050
 1195Sol     HW 7807   1.345   1.136   7.731 -0.9268 -0.9236 -0.2098
 1195Sol     MW 7808   1.318   1.123   7.816  0.0834 -0.2200 -0.7185
 1196Sol     OW 7809   1.771   1.862   6.266 -0.2232  0.1466  0.1740
 1196Sol     HW 7810   1.789   1.811   6.187  1.3456  0.3347  0.3922
 1196Sol     HW 7811   1.678   1.886   6.259 -0.6013 -1.5143 -0.6264
 1196Sol     MW 7812   1.764   1.860   6.258 -0.0258 -0.4647 -0.6483
 1197Sol     OW 7813   3.193   0.511   9.528  0.0835  0.2905  0.3989
 1197Sol     HW 7814   3.111   0.461   9.531  0.0050  0.4857  2.0320
 1197Sol     HW 7815   3.210   0.523   9.435 -1.9514  0.5618  0.0333
 1197Sol     MW 7816   3.187   0.508   9.520  0.8865 -0.1028  0.4505
 1198Sol     OW 7817   0.541   0.025   3.071  0.0042  0.4100  0.1821
 1198Sol     HW 7818   0.477   0.042   3.002 -0.6356 -1.4430  0.2767
 1198Sol     HW 7819   0.558  -0.070   3.065  2.1872  0.7330  0.6275
 1198Sol     MW 7820   0.537   0.018   3.064  0.3031 -0.0771 -0.3939
 1199Sol     OW 7821   1.546   3.389   6.241  0.3569  0.2833 -0.1537
 1199Sol     HW 7822   1.509   3.322   6.299  2.2389 -0.1832  0.5423
 1199Sol     HW 7823   1.518   3.363   6.153 -0.1601 -0.5976  0.2699
 1199Sol     MW 7824   1.540   3.381   6.238  0.5284  0.3567 -0.0514
 1200Sol     OW 7825   0.534   3.009   1.453 -0.4612  0.4519  0.3079
 1200Sol     HW 7826   0.528   3.103   1.468  1.4816  0.9923 -2.0558
 1200Sol     HW 7827   0.627   2.989   1.467 -0.7747 -1.0438  0.3239
 1200Sol     MW 7828   0.542   3.015   1.456  0.0260  0.3581 -0.1981
 1201Sol     OW 7829   0.839   2.117   6.160  0.6497 -0.1577 -0.2075
 1201Sol     HW 7830   0.806   2.156   6.241  0.2738  0.3248 -0.5962
 1201Sol     HW 7831   0.876   2.033   6.188 -2.4002 -1.5275  0.0281
 1201Sol     MW 7832   0.839   2.113   6.170 -0.4084 -0.0219 -0.0736
 1202Sol     OW 7833   0.296   2.993   6.547  0.1563 -0.2113  0.2758
 1202Sol     HW 7834   0.263   2.969   6.460  0.2369  2.3576 -0.4905
 1202Sol     HW 7835   0.236   3.062   6.577  0.4896 -0.6533  2.0215
 1202Sol     MW 7836   0.287   2.997   6.542  0.3331  0.8399 -0.0034
 1203Sol     OW 7837   2.247   0.549   5.518 -0.7799 -0.3070 -0.0557
 1203Sol     HW 7838   2.156   0.551   5.549 -1.4664 -0.3345 -1.9672
 1203Sol     HW 7839   2.252   0.468   5.466  0.4002 -0.4123  0.2206
 1203Sol     MW 7840   2.239   0.542   5.516 -0.8788 -0.2081  0.4213
 1204Sol     OW 7841   2.088   1.811   8.043  0.0797  0.6035  0.3808
 1204Sol     HW 7842   2.030   1.738   8.023  1.3370 -1.0249  2.4550
 1204Sol     HW 7843   2.035   1.870   8.096 -0.9710  1.2556 -1.3807
 1204Sol     MW 7844   2.078   1.810   8.046  0.1451 -0.6313  0.0101
 1205Sol     OW 7845   1.537   1.163   4.044 -0.0559  0.2820 -0.1627
 1205Sol     HW 7846   1.585   1.241   4.072 -1.9181  1.6609 -0.7412
 1205Sol     HW 7847   1.531   1.171   3.949 -2.1309  0.5494 -0.0219
 1205Sol     MW 7848   1.541   1.171   4.038 -0.0607  0.1573  0.4906
 1206Sol     OW 7849   1.493   1.542   1.452  0.1926  0.5333  0.0151
 1206Sol     HW 7850   1.569   1.566   1.505  2.1745 -1.1597 -1.9410
 1206Sol     HW 7851   1.464   1.625   1.414 -0.2977  1.5229  2.4728
 1206Sol     MW 7852   1.497   1.552   1.453 -0.2154  0.4205  0.2297
 1207Sol     OW 7853   1.555   1.835   5.966 -0.0148  0.3005 -0.4052
 1207Sol     HW 7854   1.475   1.783   5.965 -0.9697  1.7517 -0.8876
 1207Sol     HW 7855   1.526   1.923   5.989  1.5073  0.7460 -0.1277
 1207Sol     MW 7856   1.546   1.838   5.968 -0.3930 -0.3838 -0.1234
 1208Sol     OW 7857   1.988   0.399   8.358  0.3118 -0.3058  0.1024
 1208Sol     HW 7858   2.006   0.324   8.415  1.2065  0.0829  0.3251
 1208Sol     HW 7859   2.073   0.423   8.321  0.4320  2.0035  1.7502
 1208Sol     MW 7860   1.997   0.394   8.360 -0.1178 -0.6738 -0.4711
 1209Sol     OW 7861   1.707   0.916   4.610 -0.1240  0.6618 -0.0773
 1209Sol     HW 7862   1.708   1.012   4.608 -1.4396  0.6711 -1.4442
 1209Sol     HW 7863   1.785   0.890   4.561 -0.6737  1.0492 -1.1764
 1209Sol     MW 7864   1.714   0.922   4.605 -0.0994 -0.0326  0.2187
 1210Sol     OW 7865   2.966   1.937   7.266  0.7498  0.6228 -0.4659
 1210Sol     HW 7866   3.025   2.004   7.300 -0.5505  1.4974  0.0983
 1210Sol     HW 7867   2.895   1.932   7.329  0.6992 -1.1407 -0.6227
 1210Sol     MW 7868   2.965   1.942   7.274  0.1924  0.3176  0.0446
 1211Sol     OW 7869   1.882   0.601   2.381 -0.1153 -0.1025  0.4581
 1211Sol     HW 7870   1.896   0.514   2.418 -1.6801 -1.0128 -1.0163
 1211Sol     HW 7871   1.895   0.590   2.287 -2.1748  0.8216  0.0406
 1211Sol     MW 7872   1.884   0.593   2.376 -0.1695 -0.4393 -0.0576
 1212Sol     OW 7873   0.784   1.163   3.899 -0.3522 -0.2237  0.0398
 1212Sol     HW 7874   0.735   1.171   3.818  0.0384  0.3094 -0.1433
 1212Sol     HW 7875   0.736   1.218   3.962 -0.8552 -0.9159  0.2678
 1212Sol     MW 7876   0.775   1.169   3.898 -0.1046 -0.6777  0.5775
 1213Sol     OW 7877   2.621   0.650   9.629  0.2637  0.3831  0.6438
 1213Sol     HW 7878   2.645   0.603   9.709  1.1942 -1.8834 -0.9050
 1213Sol     HW 7879   2.549   0.599   9.591  0.0301  1.2597 -0.1072
 1213Sol     MW 7880   2.617   0.641   9.632 -0.5993 -0.7572 -0.5736
 1214Sol     OW 7881   3.031   1.402   2.061  0.0364 -0.5307 -0.2995
 1214Sol     HW 7882   2.997   1.353   2.135 -0.2374  3.7760  2.5982
 1214Sol     HW 7883   3.120   1.425   2.087  1.3660 -2.2538 -3.0728
 1214Sol     MW 7884   3.036   1.399   2.070 -0.4492 -0.2061 -0.5619
 1215Sol     OW 7885   1.560   0.714   1.883 -0.4060  0.0043 -0.0007
 1215Sol     HW 7886   1.608   0.795   1.867 -3.6033  1.9584 -0.2712
 1215Sol     HW 7887   1.516   0.696   1.800 -1.2972 -0.8657  0.6496
 1215Sol     MW 7888   1.560   0.720   1.874 -0.0961 -0.9035 -0.2387
 1216Sol     OW 7889   0.197   1.035   5.058  0.4896  0.2534 -0.0744
 1216Sol     HW 7890   0.138   1.096   5.101  0.5150  0.5390 -0.4447
 1216Sol     HW 7891   0.280   1.046   5.103  1.3588  2.7802 -2.1827
 1216Sol     MW 7892   0.199   1.041   5.066  0.1946  0.5718 -0.6517
 1217Sol     OW 7893   2.984   0.202   4.981 -0.1648 -0.1819 -0.0987
 1217Sol     HW 7894   2.941   0.224   4.899 -1.2397  0.1809  0.5563
 1217Sol     HW 7895   3.055   0.265   4.989 -1.0000  0.7520 -0.0082
 1217Sol     MW 7896   2.987   0.209   4.974  0.1977  0.1683  0.0312
 1218Sol     OW 7897   1.347   1.684   6.038 -0.3266 -0.3895 -0.1762
 1218Sol     HW 7898   1.340   1.593   6.066  0.2993  0.0613  1.5446
 1218Sol     HW 7899   1.310   1.735   6.110 -0.0327  0.7514 -0.8016
 1218Sol     MW 7900   1.343   1.681   6.047  0.3055 -0.3890 -0.0075
 1219Sol     OW 7901   0.015   3.401   7.955  0.6263 -0.1352 -0.0102
 1219Sol     HW 7902   0.024   3.446   8.039 -0.5986  1.3661 -0.6596
 1219Sol     HW 7903  -0.076   3.417   7.929  0.8001 -1.1629 -1.3100
 1219Sol     MW 7904   0.008   3.406   7.960  0.7080 -0.2036  0.2711
 1220Sol     OW 7905   1.837   1.902   3.609  0.6490 -0.0182  0.2019
 1220Sol     HW 7906   1.906   1.880   3.546  0.7819  0.8533  0.0413
 1220Sol     HW 7907   1.755   1.887   3.562  0.7392 -0.1318  0.0818
 1220Sol     MW 7908   1.836   1.899   3.599 -0.6279  0.0348 -0.0162
 1221Sol     OW 7909   0.045   0.889   8.567  0.2291  0.8888 -0.1247
 1221Sol     HW 7910   0.091   0.945   8.504  0.4998  0.6240 -0.1656
 1221Sol     HW 7911   0.111   0.825   8.594 -0.6022 -0.6163 -1.5487
 1221Sol     MW 7912   0.055   0.888   8.564 -0.3894  0.1844  0.1366
 1222Sol     OW 7913   0.924   1.511   4.635  0.2667  0.2736  0.3260
 1222Sol     HW 7914   0.949   1.587   4.686  1.0422 -0.1075  0.5170
 1222Sol     HW 7915   0.897   1.546   4.550 -0.4049  0.8463  0.7704
 1222Sol     MW 7916   0.924   1.521   4.632 -0.4645  0.3118 -0.2152
 1223Sol     OW 7917   3.233   3.146   7.048  0.3255  0.0661  0.0541
 1223Sol     HW 7918   3.167   3.084   7.079 -0.6587  1.0798  0.0229
 1223Sol     HW 7919   3.292   3.158   7.123  0.4429 -0.8013  0.1017
 1223Sol     MW 7920   3.232   3.141   7.058 -0.2132  0.1283 -0.0052
 1224Sol     OW 7921   2.729   0.409   7.420  0.3694  0.2965 -0.1233
 1224Sol     HW 7922   2.638   0.434   7.434  0.4680 -1.0694  3.6634
 1224Sol     HW 7923   2.746   0.428   7.328 -2.9071  3.1752 -0.2356
 1224Sol     MW 7924   2.723   0.413   7.413  0.5407 -0.1217 -0.3848
 1225Sol     OW 7925   2.323   1.712   2.189 -0.2944 -0.0029 -0.0189
 1225Sol     HW 7926   2.417   1.705   2.174 -0.1936 -0.5987  0.8874
 1225Sol     HW 7927   2.284   1.655   2.122 -0.0443  0.6926 -0.7648
 1225Sol     MW 7928   2.328   1.706   2.181 -0.1375 -0.0845  0.4339
 1226Sol     OW 7929   1.125   1.993   9.042  0.1017  0.5315 -0.3507
 1226Sol     HW 7930   1.070   1.929   8.998  0.1664 -0.2928  0.7591
 1226Sol     HW 7931   1.104   2.076   8.999 -0.1123 -0.1954 -1.6700
 1226Sol     MW 7932   1.118   1.995   9.034  0.4277  0.1919 -0.0401
 1227Sol     OW 7933   2.240   2.287   8.269 -0.0866 -0.5156  0.0795
 1227Sol     HW 7934   2.327   2.251   8.249  0.2456  0.6168 -0.5919
 1227Sol     HW 7935   2.215   2.335   8.189 -0.7350  0.2916  0.7490
 1227Sol     MW 7936   2.246   2.288   8.260  0.2726 -0.1477 -0.8273
 1228Sol     OW 7937   0.403   0.408   5.977  0.3344 -0.5098  0.3682
 1228Sol     HW 7938   0.318   0.432   6.014 -0.4725  0.3137 -1.9748
 1228Sol     HW 7939   0.443   0.491   5.952  1.2594 -0.9995  0.1840
 1228Sol     MW 7940   0.399   0.418   5.978 -0.3314  0.4458  0.2016
 1229Sol     OW 7941   1.696   2.191   9.361 -0.5639 -0.0747  0.1558
 1229Sol     HW 7942   1.646   2.186   9.443 -1.2197  0.8032 -0.1836
 1229Sol     HW 7943   1.643   2.141   9.299 -1.2391  1.2248 -0.3130
 1229Sol     MW 7944   1.686   2.186   9.363 -0.3433  0.4242 -0.2335
 1230Sol     OW 7945   2.300   1.542   7.081  0.8598  0.2733 -0.1874
 1230Sol     HW 7946   2.268   1.580   7.163 -1.5124  0.0294 -0.9708
 1230Sol     HW 7947   2.300   1.614   7.019  0.9317  0.0640 -0.4311
 1230Sol     MW 7948   2.297   1.552   7.083  0.1356  0.3420 -0.3198
 1231Sol     OW 7949   3.180   1.101   7.522 -0.0867 -0.0130  0.1344
 1231Sol     HW 7950   3.241   1.127   7.591  1.0891 -1.0753 -0.4678
 1231Sol     HW 7951   3.200   1.008   7.507 -1.6691 -0.3022 -0.2773
 1231Sol     MW 7952   3.188   1.095   7.527  0.0089 -0.2587 -0.1261
 1232Sol     OW 7953   3.283   2.223   8.499 -0.0551  0.0207 -0.0261
 1232Sol     HW 7954   3.371   2.197   8.528  1.0272  1.4366 -1.8453
 1232Sol     HW 7955   3.265   2.304   8.547 -0.4540 -0.3690  0.4848
 1232Sol     MW 7956   3.290   2.228   8.506  0.0025 -0.3427  1.0099
 1233Sol     OW 7957   1.947   2.551   6.104 -0.2841  0.3251 -0.1553
 1233Sol     HW 7958   1.894   2.516   6.032 -0.6022  1.2580 -0.3866
 1233Sol     HW 7959   1.883   2.568   6.174 -0.0114 -0.3468  0.2601
 1233Sol     MW 7960   1.936   2.549   6.104 -0.1254  0.2036 -0.4855
 1234Sol     OW 7961   2.605   3.239   2.775 -0.4720  0.0339  0.2848
 1234Sol     HW 7962   2.567   3.154   2.750  0.9315 -1.3421  2.6627
 1234Sol     HW 7963   2.698   3.229   2.758 -0.3204  1.1882  0.4348
 1234Sol     MW 7964   2.610   3.230   2.771  0.3820 -0.7087 -0.3135
 1235Sol     OW 7965   1.011   3.066   3.259  0.2774  0.0510  0.6929
 1235Sol     HW 7966   0.951   3.004   3.298  0.8736 -0.7360  0.3731
 1235Sol     HW 7967   1.078   3.080   3.326 -0.2884  0.9751  1.0737
 1235Sol     MW 7968   1.012   3.062   3.268 -0.4201 -0.0809 -0.0748
 1236Sol     OW 7969   0.531   1.016   6.186  0.0144  0.1384  0.1677
 1236Sol     HW 7970   0.582   1.076   6.131 -1.6277  0.1837 -1.4023
 1236Sol     HW 7971   0.510   1.067   6.264 -0.9750  1.5091 -0.9493
 1236Sol     MW 7972   0.533   1.026   6.188  0.2893  0.6016 -0.3201
 1237Sol     OW 7973   0.671   3.261   8.955  0.4020  0.2948  0.2521
 1237Sol     HW 7974   0.625   3.262   8.870  1.5359  1.9165 -0.3769
 1237Sol     HW 7975   0.758   3.228   8.934  0.2117 -0.7142  1.0546
 1237Sol     MW 7976   0.675   3.258   8.945  0.2863  0.1937 -0.3912
 1238Sol     OW 7977   1.311   0.342   2.258 -0.7443  0.3328  0.5761
 1238Sol     HW 7978   1.288   0.249   2.262  0.0490  0.0301 -1.3873
 1238Sol     HW 7979   1.290   0.368   2.168 -0.3682  1.9024  0.9244
 1238Sol     MW 7980   1.307   0.336   2.250  0.1118  0.2300  0.3928
 1239Sol     OW 7981   2.751   2.188   4.143  0.5586  0.1369 -0.1496
 1239Sol     HW 7982   2.815   2.192   4.072  0.0498  1.6681 -0.5395
 1239Sol     HW 7983   2.666   2.187   4.098  0.2662 -0.0501  0.4060
 1239Sol     MW 7984   2.749   2.188   4.132 -0.0256  0.9322 -0.3489
 1240Sol     OW 7985   0.478   1.562   4.824  0.2418 -0.5052 -0.1470
 1240Sol     HW 7986   0.532   1.591   4.897  1.2579 -0.4064 -0.9390
 1240Sol     HW 7987   0.512   1.608   4.748 -1.6908  0.4508 -0.4747
 1240Sol     MW 7988   0.486   1.569   4.824 -0.3850 -0.1009  0.5805
 1241Sol     OW 7989   2.177   0.023   6.905  0.0423  0.8032 -0.5660
 1241Sol     HW 7990   2.211   0.006   6.993 -0.0242 -0.1195 -0.7164
 1241Sol     HW 7991   2.099  -0.031   6.898 -1.0020  2.2748 -0.5312
 1241Sol     MW 7992   2.173   0.017   6.912  0.0783  0.1807 -0.0637
 1242Sol     OW 7993   0.787   2.321   4.514 -0.5225  0.1169  0.2301
 1242Sol     HW 7994   0.768   2.334   4.421 -3.1534 -0.6651  0.6130
 1242Sol     HW 7995   0.738   2.391   4.558  0.0244 -0.0287  1.0815
 1242Sol     MW 7996   0.781   2.329   4.510 -0.0135  0.5346 -0.4379
 1243Sol     OW 7997   0.704   0.389   3.372  0.2103 -0.2102  0.1728
 1243Sol     HW 7998   0.679   0.301   3.346 -0.6976  0.1085 -0.0775
 1243Sol     HW 7999   0.643   0.446   3.325 -1.0726  0.4121  2.5040
 1243Sol     MW 8000   0.696   0.386   3.366  0.2101  0.0943  0.1324
 1244Sol     OW 8001   1.273   1.953   4.362 -0.6670 -0.0427 -0.1067
 1244Sol     HW 8002   1.291   2.010   4.287  1.1497 -0.4680 -0.0140
 1244Sol     HW 8003   1.256   1.867   4.324  0.0940 -0.2232 -0.0301
 1244Sol     MW 8004   1.273   1.950   4.352  0.1685 -0.1428  0.0084
 1245Sol     OW 8005   2.036   3.318   4.385  0.2098  0.3359 -0.0310
 1245Sol     HW 8006   2.036   3.410   4.360 -0.1933  0.3262 -0.0650
 1245Sol     HW 8007   2.102   3.278   4.329  0.6987  0.6826  0.2789
 1245Sol     MW 8008   2.042   3.323   4.378 -0.0207  0.1269 -0.5343
 1246Sol     OW 8009   2.060   2.291   6.185 -0.1852 -0.5341 -0.2531
 1246Sol     HW 8010   2.034   2.382   6.171  2.3075  0.1984 -0.3242
 1246Sol     HW 8011   1.989   2.254   6.238 -1.9767  1.0075 -1.5265
 1246Sol     MW 8012   2.051   2.296   6.189 -0.4380  0.9624 -0.2329
 1247Sol     OW 8013   0.357   2.214   3.292 -0.2895 -0.0285 -0.1967
 1247Sol     HW 8014   0.325   2.290   3.340  2.6159  2.2294 -1.6783
 1247Sol     HW 8015   0.405   2.163   3.357  3.3699  2.8571 -0.5050
 1247Sol     MW 8016   0.358   2.216   3.302  0.0318 -0.1568  0.2936
 1248Sol     OW 8017   2.996   1.053   6.810  0.3949 -0.6935  0.0796
 1248Sol     HW 8018   2.918   0.998   6.799  0.7369 -0.5573 -3.3278
 1248Sol     HW 8019   2.968   1.140   6.784  1.1454 -0.1911  0.9230
 1248Sol     MW 8020   2.986   1.056   6.807  0.1747  0.1869  0.3309
 1249Sol     OW 8021   0.808   0.417   7.430 -0.2809  0.2547 -0.3685
 1249Sol     HW 8022   0.854   0.451   7.353  0.8309 -0.7866 -0.1818
 1249Sol     HW 8023   0.827   0.323   7.430 -0.3780  0.2189  1.1032
 1249Sol     MW 8024   0.814   0.412   7.423 -0.2556 -0.1512 -0.1881
 1250Sol     OW 8025   2.382   1.650   3.604  0.1607  0.0263 -0.6827
 1250Sol     HW 8026   2.417   1.711   3.670  1.6759 -0.6923 -0.7954
 1250Sol     HW 8027   2.392   1.697   3.521  3.3435 -1.1276 -1.0484
 1250Sol     MW 8028   2.386   1.660   3.602 -0.0088  0.0932 -0.9420
 1251Sol     OW 8029   0.046   0.482   7.261 -0.0935  0.3479  0.2172
 1251Sol     HW 8030   0.060   0.471   7.355  0.0994 -0.4148  0.0996
 1251Sol     HW 8031  -0.013   0.557   7.255  0.5903  0.9545  0.9069
 1251Sol     MW 8032   0.042   0.488   7.269 -0.5409 -0.5339  0.0303
 1252Sol     OW 8033   2.664   2.886   9.791 -0.1734 -0.5123 -0.5213
 1252Sol     HW 8034   2.665   2.835   9.710 -1.4425 -0.6433 -0.4585
 1252Sol     HW 8035   2.719   2.962   9.772  1.1365 -1.5212 -0.8601
 1252Sol     MW 8036   2.669   2.888   9.782 -0.5482  0.0952 -0.7089
 1253Sol     OW 8037   0.842   0.229   2.038 -0.9091 -0.3552  0.6333
 1253Sol     HW 8038   0.812   0.246   2.127 -1.8624  0.2176  0.2060
 1253Sol     HW 8039   0.801   0.298   1.985  0.4708 -0.0651 -0.0857
 1253Sol     MW 8040   0.836   0.237   2.041  0.5442 -0.2292  0.4191
 1254Sol     OW 8041   2.264   0.590   6.404 -0.4598 -0.0366 -0.2068
 1254Sol     HW 8042   2.354   0.598   6.373 -0.6223 -0.9569 -0.9352
 1254Sol     HW 8043   2.234   0.507   6.369 -1.2822 -0.1906  0.8373
 1254Sol     MW 8044   2.270   0.584   6.398  0.3695  0.3644  0.5225
 1255Sol     OW 8045   2.241   0.326   4.769  0.3830  0.4398 -0.2308
 1255Sol     HW 8046   2.221   0.341   4.861  1.2815 -2.8166  0.5275
 1255Sol     HW 8047   2.163   0.284   4.733  0.8673 -0.2927 -0.4296
 1255Sol     MW 8048   2.232   0.324   4.774 -0.2550  0.5248  0.1929
 1256Sol     OW 8049   2.783   2.291   7.766 -0.7037 -0.1214 -0.2295
 1256Sol     HW 8050   2.801   2.362   7.704 -1.3734 -0.8122 -1.2250
 1256Sol     HW 8051   2.690   2.272   7.755 -0.2539 -1.9980 -0.8748
 1256Sol     MW 8052   2.777   2.296   7.760  0.2748  0.2582 -0.1242
 1257Sol     OW 8053   0.962   3.430   8.416  0.3646 -0.0848  0.2313
 1257Sol     HW 8054   0.872   3.443   8.446 -0.0153 -1.2359 -0.3545
 1257Sol     HW 8055   0.994   3.518   8.396 -0.4571  0.3805  0.9344
 1257Sol     MW 8056   0.957   3.439   8.417  0.6990 -0.5129 -0.0113
 1258Sol     OW 8057   0.051   2.793   1.745  0.3182 -0.4551 -0.2452
 1258Sol     HW 8058   0.035   2.723   1.681  0.1228 -0.7826  0.1651
 1258Sol     HW 8059   0.046   2.874   1.693  0.9807 -0.7662 -0.8017
 1258Sol     MW 8060   0.049   2.794   1.734  0.2987 -0.0146  0.5273
 1259Sol     OW 8061   1.378   0.687   3.080 -0.6738 -0.0523  0.4648
 1259Sol     HW 8062   1.431   0.767   3.078 -1.4767  0.4706 -0.3268
 1259Sol     HW 8063   1.323   0.693   3.002  0.6218 -2.3246 -0.6769
 1259Sol     MW 8064   1.378   0.695   3.073  0.2391 -0.4009 -0.5507
 1260Sol     OW 8065   2.577   1.782   2.390  0.2022 -0.1920 -0.1624
 1260Sol     HW 8066   2.627   1.801   2.470 -0.3701  1.2491 -0.1210
 1260Sol     HW 8067   2.499   1.736   2.421  0.1918 -0.0218  0.0688
 1260Sol     MW 8068   2.575   1.780   2.400 -0.0007 -0.2757 -0.1621
 1261Sol     OW 8069   0.106   1.246   7.009 -0.1123  0.5402 -0.2207
 1261Sol     HW 8070   0.189   1.280   6.975  0.3461 -2.9815 -2.8754
 1261Sol     HW 8071   0.129   1.163   7.050 -1.8955  1.0694  2.0142
 1261Sol     MW 8072   0.115   1.242   7.010  0.4841 -0.1883 -0.0658
 1262Sol     OW 8073   3.044   0.863   1.314 -0.1240 -0.8351  0.9261
 1262Sol     HW 8074   3.090   0.945   1.332  0.6668 -1.1099  0.2108
 1262Sol     HW 8075   3.010   0.874   1.224  1.8293 -2.1111  0.0010
 1262Sol     MW 8076   3.045   0.872   1.307  0.0173 -0.7708 -0.0965
 1263Sol     OW 8077   0.499   1.243   3.584  0.2495  0.3892  0.2351
 1263Sol     HW 8078   0.482   1.302   3.510  1.8217  0.2691 -0.2479
 1263Sol     HW 8079   0.554   1.174   3.547 -1.0527 -1.0625  0.9549
 1263Sol     MW 8080   0.503   1.242   3.574  0.1275  0.4537 -0.6237
 1264Sol     OW 8081   0.854   0.393   4.910  0.1385 -0.4001 -0.4254
 1264Sol     HW 8082   0.947   0.374   4.920 -0.2785 -1.5805  1.4932
 1264Sol     HW 8083   0.836   0.378   4.817  1.5619 -1.5090 -0.5353
 1264Sol     MW 8084   0.860   0.390   4.902  0.5032 -0.0354 -0.7681
 1265Sol     OW 8085   2.742   2.640   2.735 -0.4004 -0.3542  0.1387
 1265Sol     HW 8086   2.729   2.562   2.789 -0.2613 -0.5766 -0.1497
 1265Sol     HW 8087   2.806   2.692   2.784 -1.4198  0.1599  0.9404
 1265Sol     MW 8088   2.746   2.638   2.744  0.9612 -0.9177 -0.2593
 1266Sol     OW 8089   2.910   0.475   9.016  0.2551  0.1508  0.0982
 1266Sol     HW 8090   2.991   0.524   9.006  0.5924 -0.5715 -0.8315
 1266Sol     HW 8091   2.845   0.525   8.966  0.1134  0.7489  0.8724
 1266Sol     MW 8092   2.911   0.484   9.011 -0.1233  0.9654  0.2205
 1267Sol     OW 8093   2.422   2.465   1.842 -0.1270 -0.1110 -0.7723
 1267Sol     HW 8094   2.402   2.375   1.817  0.4698 -0.5606  0.3228
 1267Sol     HW 8095   2.499   2.488   1.790  0.3580 -0.6109 -0.2889
 1267Sol     MW 8096   2.427   2.459   1.835 -0.4208  0.1007  0.0842
 1268Sol     OW 8097   2.002   1.805   1.505 -0.5005  0.0483  0.4999
 1268Sol     HW 8098   1.977   1.714   1.520 -0.8530  0.2540  1.1867
 1268Sol     HW 8099   2.009   1.813   1.410  1.7376 -1.2795  0.5198
 1268Sol     MW 8100   2.000   1.798   1.498 -0.3377 -0.2626 -0.2672
 1269Sol     OW 8101   0.740   0.802   3.783  0.5332  0.0878  0.3068
 1269Sol     HW 8102   0.792   0.839   3.854 -0.5884 -0.5519  1.5137
 1269Sol     HW 8103   0.800   0.743   3.737  1.7849  1.9316 -0.4511
 1269Sol     MW 8104   0.750   0.800   3.785  0.3986 -0.2630 -0.4055
 1270Sol     OW 8105   1.612   0.040   5.527 -0.4544 -0.3267 -0.1169
 1270Sol     HW 8106   1.681   0.088   5.481  1.0799 -2.9221 -0.6441
 1270Sol     HW 8107   1.533   0.057   5.476 -0.0131  1.7957 -0.1431
 1270Sol     MW 8108   1.611   0.045   5.519 -0.4788 -0.0653  0.4345
 1271Sol     OW 8109   3.125   2.134   7.401  0.7720 -0.0277 -0.2096
 1271Sol     HW 8110   3.220   2.132   7.393  0.6455 -1.8525 -1.6184
 1271Sol     HW 8111   3.109   2.166   7.489  2.6525  1.9143 -0.5254
 1271Sol     MW 8112   3.132   2.136   7.408 -0.2735 -0.3708  0.5474
 1272Sol     OW 8113   2.545   1.344   5.674 -0.0069  0.0235  0.2007
 1272Sol     HW 8114   2.619   1.349   5.614  0.1082  0.7028  0.3907
 1272Sol     HW 8115   2.496   1.267   5.646  0.0434  0.3466 -0.7747
 1272Sol     MW 8116   2.547   1.338   5.666 -0.2831 -0.0416  0.5984
 1273Sol     OW 8117   0.577   0.096   2.710 -0.4088 -0.0521  1.0613
 1273Sol     HW 8118   0.651   0.074   2.654  1.5358  1.8664  2.7672
 1273Sol     HW 8119   0.534   0.013   2.728  0.9407 -1.1057 -0.4769
 1273Sol     MW 8120   0.579   0.087   2.707 -0.2437 -0.2734  0.0857
 1274Sol     OW 8121   1.767   0.114   2.845  0.4051 -0.5629  0.4498
 1274Sol     HW 8122   1.768   0.070   2.930  0.9966 -1.0350  0.2064
 1274Sol     HW 8123   1.850   0.089   2.804  1.0908  1.3711  0.5906
 1274Sol     MW 8124   1.774   0.108   2.849 -0.4131 -0.4724  0.0745
 1275Sol     OW 8125   0.207   1.853   5.114  0.0334  0.0533  0.1830
 1275Sol     HW 8126   0.175   1.847   5.024 -1.0068 -1.1680  0.6185
 1275Sol     HW 8127   0.273   1.784   5.120 -1.3609 -1.2597  0.9219
 1275Sol     MW 8128   0.210   1.846   5.107  0.6649  0.3075 -0.2058
 1276Sol     OW 8129   1.766   0.419   7.200 -0.1898 -0.1459  0.0226
 1276Sol     HW 8130   1.845   0.364   7.201  0.0416  0.1449  3.0748
 1276Sol     HW 8131   1.694   0.356   7.192  0.1953 -0.7180  0.9194
 1276Sol     MW 8132   1.767   0.408   7.199 -0.0626 -0.1899  0.6976
 1277Sol     OW 8133   1.961   2.066   3.786  0.3801  0.3637  0.1653
 1277Sol     HW 8134   1.913   2.034   3.710 -0.1470  0.6418  0.3763
 1277Sol     HW 8135   1.952   2.161   3.782  1.4703  0.4554 -0.1524
 1277Sol     MW 8136   1.956   2.071   3.779 -0.6848  0.7964  0.4179
 1278Sol     OW 8137   1.466   0.696   6.599  0.3892  0.3699  0.3046
 1278Sol     HW 8138   1.461   0.696   6.503 -1.9767  0.3098  0.4101
 1278Sol     HW 8139   1.461   0.789   6.623 -0.7573  0.2710  0.4479
 1278Sol     MW 8140   1.465   0.704   6.592 -0.4952  0.1551  0.3644
 1279Sol     OW 8141   0.774   3.183   5.841  0.3073  0.0629  0.3976
 1279Sol     HW 8142   0.777   3.127   5.763  1.2079 -0.5063  0.8265
 1279Sol     HW 8143   0.735   3.265   5.810  1.6995  0.2533 -0.9267
 1279Sol     MW 8144   0.771   3.185   5.831  1.0878 -0.1894  0.7090
 1280Sol     OW 8145   1.674   1.010   6.830  0.5516 -0.6186  0.2952
 1280Sol     HW 8146   1.594   1.062   6.826  0.7958 -0.1946  0.7932
 1280Sol     HW 8147   1.644   0.921   6.844  0.0506 -0.8918 -2.4025
 1280Sol     MW 8148   1.664   1.007   6.831 -0.4092 -0.0755 -0.6135
 1281Sol     OW 8149   3.280   0.915   7.274 -0.2313  0.5025  0.4876
 1281Sol     HW 8150   3.359   0.922   7.220  1.0006 -1.4633  1.9819
 1281Sol     HW 8151   3.231   0.996   7.255  0.5675  0.2730 -2.8571
 1281Sol     MW 8152   3.283   0.923   7.268  0.5263 -0.7049 -0.3059
 1282Sol     OW 8153   0.262   3.397   4.393  0.1848  0.0096 -0.1424
 1282Sol     HW 8154   0.296   3.371   4.479 -1.3467 -0.9977  0.1870
 1282Sol     HW 8155   0.194   3.461   4.413 -0.4496 -0.5248 -0.5735
 1282Sol     MW 8156   0.259   3.401   4.403  1.3262  0.5014  0.1370
 1283Sol     OW 8157   1.929   3.187   3.991  0.4325  0.4355  0.1789
 1283Sol     HW 8158   2.005   3.244   3.990 -0.2308  1.3276 -1.0805
 1283Sol     HW 8159   1.936   3.135   3.911 -1.0291  1.5825 -0.7383
 1283Sol     MW 8160   1.936   3.188   3.984 -0.3928 -0.0120 -0.0449
 1284Sol     OW 8161   0.084   2.236   3.952  0.5721  0.2964 -0.1756
 1284Sol     HW 8162   0.164   2.274   3.987  0.2560 -0.3146  1.2181
 1284Sol     HW 8163   0.051   2.301   3.890  1.6688  0.9267 -0.0993
 1284Sol     MW 8164   0.088   2.245   3.949  0.1228 -0.3995 -0.2378
 1285Sol     OW 8165   0.301   1.104   1.971  0.0563  0.7430 -0.0706
 1285Sol     HW 8166   0.316   1.011   1.955 -3.6576  0.1394 -0.5259
 1285Sol     HW 8167   0.360   1.149   1.911 -0.2407 -1.3594 -1.9837
 1285Sol     MW 8168   0.308   1.100   1.964  0.5655  0.6954  0.7863
 1286Sol     OW 8169   2.319   1.825   9.116 -0.3321 -0.0605  0.1628
 1286Sol     HW 8170   2.241   1.771   9.122 -0.9426  0.9867  2.5040
 1286Sol     HW 8171   2.385   1.778   9.168 -0.2196  0.3421  0.3905
 1286Sol     MW 8172   2.318   1.816   9.121 -0.0167 -0.3059  0.1405
 1287Sol     OW 8173   1.837   3.324   9.241  0.0226 -0.0276 -0.0412
 1287Sol     HW 8174   1.860   3.248   9.294  2.0684  0.5299 -0.1034
 1287Sol     HW 8175   1.793   3.287   9.164  0.2476 -1.0842  0.3364
 1287Sol     MW 8176   1.835   3.314   9.239  0.5198 -0.6827 -0.4161
 1288Sol     OW 8177   1.804   1.409   9.431 -0.4343  0.2713  0.5330
 1288Sol     HW 8178   1.792   1.423   9.337  1.2072  0.4715  0.3325
 1288Sol     HW 8179   1.858   1.482   9.460  2.2650 -1.7811  0.8668
 1288Sol     MW 8180   1.808   1.417   9.425  0.2138 -0.0103 -0.0803
 1289Sol     OW 8181   1.100   2.155   4.708 -1.0791 -0.0171 -0.4555
 1289Sol     HW 8182   1.048   2.105   4.770 -0.1951  0.7520  0.9262
 1289Sol     HW 8183   1.190   2.127   4.724 -0.5957  1.8070  0.1849
 1289Sol     MW 8184   1.103   2.148   4.715  1.0023 -0.5503  0.4667
 1290Sol     OW 8185   0.061   0.777   2.680  0.3303  0.2041  0.0890
 1290Sol     HW 8186  -0.006   0.785   2.612  0.3516  0.2865  0.0780
 1290Sol     HW 8187   0.013   0.794   2.762  0.6632  1.8913 -0.0400
 1290Sol     MW 8188   0.051   0.779   2.681 -0.0763 -0.6169 -0.2573
 1291Sol     OW 8189   1.655   3.235   7.220 -0.3603 -0.2444  0.4467
 1291Sol     HW 8190   1.641   3.242   7.315 -1.7421  2.0684  0.1124
 1291Sol     HW 8191   1.567   3.243   7.182  0.3411  0.2662 -1.1028
 1291Sol     MW 8192   1.646   3.236   7.225  0.4394 -0.2495 -0.1946
 1292Sol     OW 8193   2.194   2.858   6.918  0.7230  0.0549 -0.4540
 1292Sol     HW 8194   2.218   2.949   6.933  0.1414  0.8186 -3.6497
 1292Sol     HW 8195   2.101   2.853   6.940  0.2066  0.8311 -2.3064
 1292Sol     MW 8196   2.187   2.865   6.921 -0.3555 -0.7583  0.1746
 1293Sol     OW 8197   3.159   0.245   6.138  0.2415  0.5999 -0.1044
 1293Sol     HW 8198   3.210   0.169   6.112 -0.7582  0.2956 -1.2540
 1293Sol     HW 8199   3.077   0.236   6.089 -1.6704  0.1227  3.0270
 1293Sol     MW 8200   3.156   0.237   6.131 -0.0614 -0.4649  0.1520
 1294Sol     OW 8201   2.028   0.446   2.892  0.0453  0.2858 -0.3290
 1294Sol     HW 8202   1.933   0.440   2.902 -0.3433  1.5076 -2.8124
 1294Sol     HW 8203   2.051   0.533   2.924  0.5275 -0.4671  1.4300
 1294Sol     MW 8204   2.022   0.453   2.896 -0.3772  0.4094  0.2533
 1295Sol     OW 8205   2.192   0.327   1.407 -0.1415  0.4691  0.0630
 1295Sol     HW 8206   2.172   0.298   1.318 -0.1778  0.8414 -0.0510
 1295Sol     HW 8207   2.157   0.258   1.463  1.5507 -0.7060 -0.2786
 1295Sol     MW 8208   2.187   0.319   1.404  0.2813  0.2235  0.4775
 1296Sol     OW 8209   3.208   1.293   8.537  0.1146 -0.4489 -0.4130
 1296Sol     HW 8210   3.188   1.214   8.588 -0.9883 -1.7619 -2.8409
 1296Sol     HW 8211   3.176   1.365   8.592  0.6514 -1.6814  1.5908
 1296Sol     MW 8212   3.203   1.292   8.547 -0.0785 -0.6807  0.2015
 1297Sol     OW 8213   0.635   0.330   8.642 -0.0371 -0.2393  0.2304
 1297Sol     HW 8214   0.557   0.335   8.588 -0.6854 -1.9452  0.9678
 1297Sol     HW 8215   0.606   0.291   8.724  1.4739 -0.3491  0.7417
 1297Sol     MW 8216   0.626   0.327   8.644  0.1260  0.5321 -0.8867
 1298Sol     OW 8217   1.956   2.368   3.056  0.3937  0.0676  0.2244
 1298Sol     HW 8218   2.034   2.312   3.049 -0.2436 -0.6435 -1.4586
 1298Sol     HW 8219   1.969   2.436   2.990 -0.6094 -0.3397 -0.4220
 1298Sol     MW 8220   1.964   2.369   3.049 -1.0243  0.3233 -0.0596
 1299Sol     OW 8221   2.010   2.792   3.662 -0.0448  0.2335 -0.3450
 1299Sol     HW 8222   2.091   2.742   3.672  0.3939  1.3572  1.7934
 1299Sol     HW 8223   1.953   2.759   3.731 -1.5226 -0.7146 -1.9833
 1299Sol     MW 8224   2.012   2.784   3.669 -0.3307 -0.2778  0.1623
 1300Sol     OW 8225   3.251   2.806   5.999 -0.0157  0.5460 -0.1480
 1300Sol     HW 8226   3.232   2.863   6.074  2.7389  0.4842  0.6604
 1300Sol     HW 8227   3.289   2.865   5.934  0.9919 -0.0103 -0.0686
 1300Sol     MW 8228   3.253   2.817   6.000  0.3900 -0.0150 -0.2737
 1301Sol     OW 8229   0.013   1.974   3.334  0.4590 -0.0603 -0.3645
 1301Sol     HW 8230   0.072   2.022   3.392 -0.0730 -0.5938  0.6444
 1301Sol     HW 8231   0.052   1.887   3.328 -1.0464 -0.9390  1.6525
 1301Sol     MW 8232   0.021   1.970   3.339 -0.5935 -0.6099 -0.4122
 1302Sol     OW 8233   0.808   3.420   3.492  0.3573 -0.6454 -0.2209
 1302Sol     HW 8234   0.791   3.412   3.586 -2.0735  2.5858 -0.2898
 1302Sol     HW 8235   0.865   3.498   3.485  2.1107 -1.9902 -1.3113
 1302Sol     MW 8236   0.812   3.427   3.500  0.6335  0.4954 -0.1499
 1303Sol     OW 8237   2.002   2.009   6.557 -0.0079  0.0418  0.8366
 1303Sol     HW 8238   2.040   2.039   6.475 -1.6595 -1.7284 -0.6023
 1303Sol     HW 8239   1.989   2.089   6.608  0.4224  1.2259 -0.8584
 1303Sol     MW 8240   2.005   2.019   6.555 -0.2374 -0.6526 -0.5222
 1304Sol     OW 8241   2.988   1.577   9.507  0.4116 -0.2404 -0.3844
 1304Sol     HW 8242   2.944   1.499   9.541 -0.1118  0.2434  0.0276
 1304Sol     HW 8243   3.033   1.614   9.582 -1.7455  1.5196  0.0647
 1304Sol     MW 8244   2.988   1.573   9.516  0.7515 -0.1488 -0.5307
 1305Sol     OW 8245   0.508   1.864   6.133  0.1087 -0.4905  0.0377
 1305Sol     HW 8246   0.414   1.861   6.147  0.2362 -2.4814  0.7292
 1305Sol     HW 8247   0.522   1.816   6.051  0.4828  0.0153 -0.1923
 1305Sol     MW 8248   0.501   1.859   6.127  0.5720  0.9337 -0.1640
 1306Sol     OW 8249   1.036   0.166   4.303  0.0856 -0.1575 -0.2083
 1306Sol     HW 8250   1.014   0.088   4.355 -1.9544  1.2280  1.0406
 1306Sol     HW 8251   1.010   0.240   4.357  2.4840  1.4651 -1.1640
 1306Sol     MW 8252   1.032   0.165   4.312  0.0106  0.4151 -0.6321
 1307Sol     OW 8253   0.313   1.406   5.207  0.5191  0.3599 -0.2319
 1307Sol     HW 8254   0.225   1.383   5.177  1.4312 -0.4653 -2.3657
 1307Sol     HW 8255   0.347   1.327   5.248  0.6845  0.3597 -0.3714
 1307Sol     MW 8256   0.308   1.397   5.208  0.0690 -1.0023 -0.3753
 1308Sol     OW 8257   0.727   2.577   3.568 -0.7499  0.4089  0.1605
 1308Sol     HW 8258   0.662   2.648   3.573 -0.1881  0.9991 -0.7704
 1308Sol     HW 8259   0.685   2.511   3.514 -0.5142  0.8624 -0.5803
 1308Sol     MW 8260   0.717   2.578   3.564  0.0718  0.3837  0.3881
 1309Sol     OW 8261   1.586   2.253   4.449  0.2340 -0.3377  0.5271
 1309Sol     HW 8262   1.600   2.236   4.542  1.5917  0.8173  0.5496
 1309Sol     HW 8263   1.566   2.168   4.412  0.6071 -0.9547  1.7186
 1309Sol     MW 8264   1.585   2.244   4.454 -0.6808  0.8051  0.6913
 1310Sol     OW 8265   1.078   1.429   5.781 -0.5854 -0.0535 -0.0288
 1310Sol     HW 8266   1.002   1.385   5.742  0.9975 -3.4768  0.5915
 1310Sol     HW 8267   1.129   1.459   5.706 -1.2687  0.0173 -0.4752
 1310Sol     MW 8268   1.076   1.428   5.771 -0.1604 -0.2864  0.0998
 1311Sol     OW 8269   1.458   2.404   9.463 -0.3864  0.7154  0.3042
 1311Sol     HW 8270   1.375   2.438   9.496 -0.2970 -1.1503  2.5592
 1311Sol     HW 8271   1.479   2.330   9.521  1.9988  0.1023 -1.2631
 1311Sol     MW 8272   1.453   2.400   9.472  0.1061 -0.2601  0.2272
 1312Sol     OW 8273   2.180   0.758   5.989 -0.1972  0.0212  0.0535
 1312Sol     HW 8274   2.267   0.722   5.972 -0.2641 -0.0180 -0.2069
 1312Sol     HW 8275   2.163   0.737   6.081 -0.6380 -1.4378 -0.3633
 1312Sol     MW 8276   2.186   0.753   5.996 -0.0274  0.3565  0.0134
 1313Sol     OW 8277   1.198   1.400   4.542 -0.3773  0.4147  0.5512
 1313Sol     HW 8278   1.198   1.371   4.451 -1.4160 -1.5072  1.1410
 1313Sol     HW 8279   1.123   1.459   4.549 -0.0038  0.9591  0.0645
 1313Sol     MW 8280   1.191   1.403   4.535 -0.4177  0.1315  0.7141
 1314Sol     OW 8281   1.499   0.894   3.726 -0.2550  0.3242 -0.1093
 1314Sol     HW 8282   1.576   0.883   3.781  1.4972 -1.8547 -2.8638
 1314Sol     HW 8283   1.500   0.986   3.702  1.4409  0.3434 -0.0371
 1314Sol     MW 8284   1.506   0.901   3.729  0.0476 -0.7185  0.6537
 1315Sol     OW 8285   1.963   1.124   4.238 -0.4031 -0.0661 -0.0500
 1315Sol     HW 8286   1.914   1.049   4.273 -1.9887  1.2163  0.5724
 1315Sol     HW 8287   2.033   1.138   4.301 -1.2375  0.1256  0.8552
 1315Sol     MW 8288   1.965   1.118   4.247 -0.0096 -0.0893  0.0965
 1316Sol     OW 8289   0.340   0.450   6.778  0.0012  0.0362  0.5482
 1316Sol     HW 8290   0.280   0.424   6.708  3.0768 -3.0390 -1.0709
 1316Sol     HW 8291   0.327   0.386   6.847 -0.8378  1.2775  1.5700
 1316Sol     MW 8292   0.334   0.442   6.778  0.7515 -0.0111 -0.1699
 1317Sol     OW 8293   1.679   0.196   4.685  0.3486  0.1868  0.3249
 1317Sol     HW 8294   1.701   0.164   4.772 -3.5353 -0.9666  0.9547
 1317Sol     HW 8295   1.729   0.140   4.625  1.9832  0.1183  1.7101
 1317Sol     MW 8296   1.686   0.188   4.687  0.4942  0.0041  0.2124
 1318Sol     OW 8297   0.157   3.273   5.543  0.6948  0.0037  0.1110
 1318Sol     HW 8298   0.086   3.322   5.584  1.0757  0.3868  0.3276
 1318Sol     HW 8299   0.137   3.182   5.562 -1.0334 -0.0778 -1.9207
 1318Sol     MW 8300   0.149   3.270   5.548 -0.2100 -0.1126  0.1648
 1319Sol     OW 8301   1.567   0.977   6.010 -0.2079  0.6131  0.6763
 1319Sol     HW 8302   1.506   1.047   6.033  0.9515  2.0875 -0.6449
 1319Sol     HW 8303   1.654   1.016   6.021  0.5445 -1.4340  2.4529
 1319Sol     MW 8304   1.569   0.987   6.013  0.6723 -0.6888 -0.0556
 1320Sol     OW 8305   1.282   0.009   6.503 -0.3559 -0.2721  0.5454
 1320Sol     HW 8306   1.194   0.004   6.542  0.1454 -1.4921  1.5710
 1320Sol     HW 8307   1.294   0.102   6.482 -0.8475  0.3492  2.8681
 1320Sol     MW 8308   1.275   0.017   6.505 -0.2210  0.1418 -0.1178
 1321Sol     OW 8309   1.728   2.914   9.043  0.1494 -0.3096  0.2803
 1321Sol     HW 8310   1.721   3.000   9.001 -0.0905 -0.9276 -0.9542
 1321Sol     HW 8311   1.690   2.927   9.130 -0.2884  0.7232 -0.0560
 1321Sol     MW 8312   1.724   2.923   9.047  0.0221  0.3749  0.7178
 1322Sol     OW 8313   0.535   1.205   6.408 -0.0652  0.1740  0.4068
 1322Sol     HW 8314   0.474   1.140   6.443 -0.7280  0.1484 -0.7410
 1322Sol     HW 8315   0.510   1.287   6.451  0.5386 -0.2552  1.5890
 1322Sol     MW 8316   0.527   1.206   6.415 -0.0521  0.1866  0.1126
 1323Sol     OW 8317   0.350   2.690   8.036 -0.1755  0.2173  0.3400
 1323Sol     HW 8318   0.297   2.610   8.032 -2.0811  1.4610  0.4262
 1323Sol     HW 8319   0.352   2.721   7.945 -0.4631  0.7303  0.5082
 1323Sol     MW 8320   0.345   2.685   8.027 -0.1589 -0.3408  0.1506
 1324Sol     OW 8321   2.490   0.351   5.925  0.3618  0.1687  0.5787
 1324Sol     HW 8322   2.405   0.309   5.938  1.8282 -2.1669  2.9133
 1324Sol     HW 8323   2.512   0.331   5.834 -0.2955 -1.6113  0.7966
 1324Sol     MW 8324   2.484   0.346   5.918  0.4048  0.3337 -0.2050
 1325Sol     OW 8325   1.738   1.589   6.737 -0.3629  0.2638  1.0536
 1325Sol     HW 8326   1.829   1.560   6.734 -0.8106 -1.1114  0.3244
 1325Sol     HW 8327   1.689   1.520   6.692 -1.5541  1.8332 -0.0919
 1325Sol     MW 8328   1.742   1.580   6.733 -0.2148 -0.9581  0.1878
 1326Sol     OW 8329   0.683   1.216   6.024 -0.3218  0.0935 -0.2800
 1326Sol     HW 8330   0.603   1.209   5.973 -0.7325  1.0290  0.2184
 1326Sol     HW 8331   0.753   1.190   5.964 -0.8235  0.9570 -1.2469
 1326Sol     MW 8332   0.682   1.213   6.014 -0.2716 -0.8072  0.2756
 1327Sol     OW 8333   3.183   1.174   4.051 -0.3591  0.0128 -0.1692
 1327Sol     HW 8334   3.175   1.112   3.978  1.2476  0.2613 -0.5685
 1327Sol     HW 8335   3.165   1.122   4.129 -1.5475 -0.3826 -0.6857
 1327Sol     MW 8336   3.180   1.164   4.051 -1.6577  0.8542  0.0678
 1328Sol     OW 8337   1.596   2.947   1.775 -0.2073 -0.4332 -0.6976
 1328Sol     HW 8338   1.666   2.979   1.833  0.9803  0.9222 -2.8317
 1328Sol     HW 8339   1.558   2.874   1.823  0.2081  1.1332  2.1783
 1328Sol     MW 8340   1.599   2.944   1.785 -0.3632  0.2045 -0.1379
 1329Sol     OW 8341   2.217   2.183   4.136 -0.0687 -0.1701 -0.5494
 1329Sol     HW 8342   2.163   2.114   4.097 -1.7291  1.1113 -0.6071
 1329Sol     HW 8343   2.169   2.208   4.215  1.5644 -0.4721  0.5508
 1329Sol     MW 8344   2.208   2.179   4.140 -0.6599 -0.8127 -0.1066
 1330Sol     OW 8345   3.012   2.407   2.991  0.3389  0.0292 -0.4742
 1330Sol     HW 8346   2.991   2.487   3.038  1.7302 -0.6513  1.3734
 1330Sol     HW 8347   3.095   2.426   2.947  0.3691 -0.1853 -0.5123
 1330Sol     MW 8348   3.018   2.416   2.991 -0.4217 -0.3302  0.3558
 1331Sol     OW 8349   0.594   1.870   2.169 -0.2502  0.4289  0.0634
 1331Sol     HW 8350   0.636   1.911   2.244 -1.2047  1.5607 -0.0049
 1331Sol     HW 8351   0.589   1.940   2.103 -3.5680  0.7512  0.6038
 1331Sol     MW 8352   0.597   1.880   2.170 -0.2115  0.2922 -0.5953
 1332Sol     OW 8353   0.819   1.640   1.857 -0.4448  0.3255 -0.5520
 1332Sol     HW 8354   0.730   1.639   1.893  0.3687  0.5647  1.5194
 1332Sol     HW 8355   0.849   1.730   1.868  0.4995 -0.0371 -0.1016
 1332Sol     MW 8356   0.813   1.648   1.862 -0.5709  0.1482  0.1550
 1333Sol     OW 8357   0.775   0.574   3.027 -0.4773 -0.1813 -0.3273
 1333Sol     HW 8358   0.858   0.609   2.994 -0.1051 -0.0660  0.7051
 1333Sol     HW 8359   0.789   0.480   3.034  0.5516  0.1413  2.5343
 1333Sol     MW 8360   0.784   0.569   3.024 -0.1333  0.1538 -0.2658
 1334Sol     OW 8361   0.803   3.179   7.385  0.6554 -0.3300 -0.0876
 1334Sol     HW 8362   0.756   3.254   7.421  2.5535  0.4876  0.8064
 1334Sol     HW 8363   0.855   3.216   7.313  1.7630 -0.7364  0.4973
 1334Sol     MW 8364   0.804   3.189   7.382 -0.4233 -0.2690 -0.2629
 1335Sol     OW 8365   1.463   1.900   2.167  0.7113  0.8594 -0.8065
 1335Sol     HW 8366   1.448   1.934   2.078  1.9122  0.8605 -1.0158
 1335Sol     HW 8367   1.436   1.808   2.162 -0.6694  1.2526 -0.7625
 1335Sol     MW 8368   1.459   1.895   2.158  0.0265  0.0166  0.7085
 1336Sol     OW 8369   2.941   2.069   2.376 -0.3412 -0.3913 -0.2363
 1336Sol     HW 8370   2.856   2.060   2.332 -0.6352 -1.7818  0.5918
 1336Sol     HW 8371   2.934   2.013   2.453  0.1367  2.1170  1.6726
 1336Sol     MW 8372   2.932   2.063   2.379 -0.4743 -0.2213  0.1920
 1337Sol     OW 8373   0.204   1.867   8.642  0.5184  0.1210  0.3028
 1337Sol     HW 8374   0.277   1.861   8.703  0.2652 -0.4589  0.5484
 1337Sol     HW 8375   0.196   1.960   8.624  1.8745  0.1246 -0.3945
 1337Sol     MW 8376   0.210   1.875   8.645  0.2843  0.2962  0.2228
 1338Sol     OW 8377   0.142   1.202   6.338 -0.7381 -0.5423 -0.1912
 1338Sol     HW 8378   0.149   1.119   6.291 -2.9435  0.3667 -2.2109
 1338Sol     HW 8379   0.201   1.261   6.293  0.0507 -0.7109  0.6050
 1338Sol     MW 8380   0.148   1.199   6.330  0.4692 -0.1591  0.2168
 1339Sol     OW 8381   0.222   0.103   5.764  0.0276 -0.3489 -0.3707
 1339Sol     HW 8382   0.205   0.013   5.793 -0.4932 -0.4799 -1.0798
 1339Sol     HW 8383   0.314   0.118   5.785 -0.4779 -0.2446  1.9021
 1339Sol     MW 8384   0.228   0.096   5.769 -0.0770 -0.0533  0.1112
 1340Sol     OW 8385   2.471   2.708   2.436  0.2671  0.3898 -0.3803
 1340Sol     HW 8386   2.554   2.747   2.464  0.1457  1.3102 -1.2613
 1340Sol     HW 8387   2.404   2.759   2.482  0.1352  0.6807 -0.8932
 1340Sol     MW 8388   2.472   2.716   2.443 -0.3474  0.0050  0.8581
 1341Sol     OW 8389   2.645   2.308   2.493  0.2865 -0.2913  0.0586
 1341Sol     HW 8390   2.626   2.253   2.569  2.9201  0.9651  1.7170
 1341Sol     HW 8391   2.662   2.246   2.423 -1.3563 -1.5011  0.7134
 1341Sol     MW 8392   2.645   2.297   2.494  0.6380 -0.3058 -1.1607
 1342Sol     OW 8393   2.108   2.809   9.364 -0.1479  0.7896  0.3014
 1342Sol     HW 8394   2.072   2.890   9.328 -0.5631 -0.8592 -3.1633
 1342Sol     HW 8395   2.070   2.739   9.311  0.7815 -1.6681  2.7256
 1342Sol     MW 8396   2.101   2.810   9.356  0.9546  0.9874  0.6521
 1343Sol     OW 8397   1.235   1.363   6.514 -0.3007  0.3573  0.0638
 1343Sol     HW 8398   1.209   1.280   6.555 -0.4247  0.3179 -0.0920
 1343Sol     HW 8399   1.312   1.341   6.461  0.2630  0.5482  0.8081
 1343Sol     MW 8400   1.239   1.353   6.513 -0.1613  0.3076  0.5104
 1344Sol     OW 8401   0.914   3.116   2.247  0.0482 -0.3207  0.0055
 1344Sol     HW 8402   0.880   3.079   2.165 -0.3620 -1.0610  0.5094
 1344Sol     HW 8403   1.005   3.140   2.226  0.0283 -0.7553 -0.5956
 1344Sol     MW 8404   0.919   3.115   2.238 -0.5921  0.0692 -0.0162
 1345Sol     OW 8405   2.909   0.506   5.855 -0.0664 -0.4501  0.0557
 1345Sol     HW 8406   2.989   0.555   5.875 -0.4275 -0.0719  0.5976
 1345Sol     HW 8407   2.900   0.512   5.760 -0.3066  0.8672  0.1500
 1345Sol     MW 8408   2.915   0.511   5.848 -0.2222  0.1352  0.1176
 1346Sol     OW 8409   0.599   3.245   7.886  0.4075 -0.4456  0.3573
 1346Sol     HW 8410   0.648   3.321   7.916  0.4882 -0.1004 -0.6262
 1346Sol     HW 8411   0.528   3.235   7.950  0.6541  0.1896  0.7345
 1346Sol     MW 8412   0.597   3.251   7.894  0.6842  0.2528 -0.5993
 1347Sol     OW 8413   2.604   0.095   4.446  0.1694  0.9528 -1.0627
 1347Sol     HW 8414   2.514   0.101   4.478  1.1123  1.2255  1.7450
 1347Sol     HW 8415   2.617   0.002   4.428  0.0317  0.5497  0.8158
 1347Sol     MW 8416   2.597   0.088   4.448  0.2827 -0.1974 -0.3898
 1348Sol     OW 8417   0.464   2.134   1.544  0.1440 -0.0688  0.6643
 1348Sol     HW 8418   0.494   2.185   1.469  0.0785 -0.2463  0.5169
 1348Sol     HW 8419   0.541   2.082   1.569  0.2264  0.1412  0.8474
 1348Sol     MW 8420   0.474   2.134   1.539  0.7859  0.8293 -0.4048
 1349Sol     OW 8421   1.334   1.862   3.964  0.3026  0.0015  0.2634
 1349Sol     HW 8422   1.361   1.937   4.016  1.2240  0.7414 -1.2762
 1349Sol     HW 8423   1.358   1.786   4.017  2.5199  0.7201  0.3047
 1349Sol     MW 8424   1.338   1.862   3.973  0.2137 -0.2444 -0.1206
 1350Sol     OW 8425   1.445   1.430   5.158 -0.5404  0.7663  0.0141
 1350Sol     HW 8426   1.483   1.344   5.176 -1.0144  0.9848  2.1111
 1350Sol     HW 8427   1.470   1.448   5.067 -0.4324 -1.5771 -0.4548
 1350Sol     MW 8428   1.451   1.424   5.151  0.5819  0.0800 -0.5972
 1351Sol     OW 8429   1.590   2.386   1.548  0.1378 -0.4447  0.4869
 1351Sol     HW 8430   1.669   2.334   1.566  0.1038 -0.6919 -0.0607
 1351Sol     HW 8431   1.615   2.475   1.571  0.1025 -0.7521  1.7193
 1351Sol     MW 8432   1.600   2.389   1.551 -0.2861  0.1073  0.8210
 1352Sol     OW 8433   0.130   1.307   9.759 -0.6675  0.7023 -0.4778
 1352Sol     HW 8434   0.223   1.313   9.739 -0.6294  1.8700 -0.0106
 1352Sol     HW 8435   0.120   1.224   9.806 -0.0326  0.1026 -1.3950
 1352Sol     MW 8436   0.137   1.300   9.762 -0.7121 -0.6037 -0.5276
 1353Sol     OW 8437   0.562   0.223   6.401 -0.3742  0.3065 -0.0644
 1353Sol     HW 8438   0.495   0.221   6.333  0.3852  1.7158 -0.8964
 1353Sol     HW 8439   0.627   0.159   6.373  0.0621  1.0705 -0.8046
 1353Sol     MW 8440   0.562   0.217   6.393 -0.1163  0.0741 -0.0872
 1354Sol     OW 8441   1.158   0.787   2.630  0.1055  0.0440  0.5014
 1354Sol     HW 8442   1.206   0.714   2.668  0.9692 -0.0442 -0.7036
 1354Sol     HW 8443   1.132   0.756   2.543 -0.6107  0.7175  0.4703
 1354Sol     MW 8444   1.160   0.778   2.625  0.4799  0.1252 -0.8006
 1355Sol     OW 8445   1.828   2.605   7.011  0.0998  0.3245  0.3810
 1355Sol     HW 8446   1.743   2.565   6.992 -0.4099  1.6471 -0.1867
 1355Sol     HW 8447   1.892   2.537   6.988 -0.6671  0.4104 -2.2568
 1355Sol     MW 8448   1.826   2.595   7.007  0.1515  0.0985 -0.8171
 1356Sol     OW 8449   0.348   2.911   3.239  0.4729 -0.5749  0.2130
 1356Sol     HW 8450   0.349   2.869   3.325 -1.9112 -0.9399  0.1042
 1356Sol     HW 8451   0.261   2.952   3.234  0.3351 -1.1068 -2.2612
 1356Sol     MW 8452   0.340   2.911   3.246 -0.1383  0.1056 -0.6058
 1357Sol     OW 8453   1.098   0.820   5.426 -0.3505  0.2068  0.1988
 1357Sol     HW 8454   1.045   0.743   5.405  0.1297 -0.1042  0.1104
 1357Sol     HW 8455   1.077   0.839   5.518  0.1585 -0.5402  0.4749
 1357Sol     MW 8456   1.091   0.815   5.433  0.0542 -0.3597  0.4149
 1358Sol     OW 8457   2.708   2.273   1.893 -0.7251  0.3406 -0.0623
 1358Sol     HW 8458   2.684   2.334   1.824  0.8179 -1.4109 -2.2122
 1358Sol     HW 8459   2.647   2.291   1.964 -1.1104  3.4802 -1.1452
 1358Sol     MW 8460   2.700   2.280   1.893 -0.3873  0.1384 -0.3164
 1359Sol     OW 8461   3.008   1.723   6.782 -0.2425 -0.4969 -0.1071
 1359Sol     HW 8462   3.048   1.720   6.869 -1.0018 -1.4699  0.2196
 1359Sol     HW 8463   3.079   1.701   6.722  0.4834  0.9773  0.1883
 1359Sol     MW 8464   3.018   1.721   6.784 -0.2522 -0.2796 -0.3817
 1360Sol     OW 8465   2.863   0.827   3.048  0.0470 -0.3188 -0.0091
 1360Sol     HW 8466   2.879   0.826   3.143 -1.2791 -0.5214  0.2177
 1360Sol     HW 8467   2.768   0.826   3.040  0.1262  1.0234 -1.3303
 1360Sol     MW 8468   2.856   0.827   3.056 -0.2124  0.0115  0.3762
 1361Sol     OW 8469   0.709   1.800   9.952 -0.2610  0.1242 -0.3756
 1361Sol     HW 8470   0.617   1.808   9.975  0.1776  0.7492  1.2326
 1361Sol     HW 8471   0.713   1.826   9.860 -1.9441 -1.7099 -1.0053
 1361Sol     MW 8472   0.701   1.803   9.946  0.1197  0.5627 -0.4098
 1362Sol     OW 8473   0.076   1.990   5.754 -0.1647 -0.2091 -0.3433
 1362Sol     HW 8474   0.076   2.066   5.812 -0.7521  1.1904 -2.1355
 1362Sol     HW 8475   0.126   1.924   5.802  0.3362  1.2772  1.2536
 1362Sol     MW 8476   0.080   1.991   5.764  0.2915  0.5898  0.0853
 1363Sol     OW 8477   0.803   2.923   6.765 -0.1581  0.2327  0.4023
 1363Sol     HW 8478   0.746   2.961   6.832  1.2563  1.7070  0.7754
 1363Sol     HW 8479   0.819   2.833   6.796 -1.0721  0.2758  1.0334
 1363Sol     MW 8480   0.799   2.918   6.774 -0.0980  0.7672  0.0750
 1364Sol     OW 8481   1.007   2.949   5.287  0.0838 -0.3757  0.7456
 1364Sol     HW 8482   0.953   3.012   5.335 -0.4761 -0.9761  0.9119
 1364Sol     HW 8483   0.955   2.924   5.211 -0.1838 -1.5037  1.2875
 1364Sol     MW 8484   0.998   2.952   5.285 -0.0376  0.3741 -0.3144
 1365Sol     OW 8485   1.431   3.107   2.334  0.4374  1.2488  0.0005
 1365Sol     HW 8486   1.344   3.141   2.312 -0.9632 -0.8810  2.0215
 1365Sol     HW 8487   1.421   3.070   2.422  2.8079 -0.9317 -0.5790
 1365Sol     MW 8488   1.422   3.106   2.340  0.1383 -0.0483  0.0881
 1366Sol     OW 8489   0.766   0.094   9.555 -0.2184 -0.1968  0.1666
 1366Sol     HW 8490   0.848   0.055   9.523 -0.9902 -0.5808 -1.3925
 1366Sol     HW 8491   0.702   0.072   9.487 -1.2041  1.7284  0.4567
 1366Sol     MW 8492   0.768   0.088   9.546  0.2621  0.0211  0.5906
 1367Sol     OW 8493   1.916   2.293   3.471 -0.6168  0.5113 -0.6001
 1367Sol     HW 8494   2.004   2.311   3.505 -0.6836 -1.4879  0.6875
 1367Sol     HW 8495   1.896   2.369   3.416  1.6545  1.2899 -0.4055
 1367Sol     MW 8496   1.922   2.302   3.469  0.0344 -0.0811  0.6578
 1368Sol     OW 8497   0.536   1.948   8.536 -0.4028  0.8445  0.5857
 1368Sol     HW 8498   0.459   1.927   8.483  0.1558 -0.6910  0.3625
 1368Sol     HW 8499   0.522   1.902   8.619  1.3352 -1.3866 -0.2970
 1368Sol     MW 8500   0.528   1.942   8.539 -0.5130 -0.5999 -0.0943
 1369Sol     OW 8501   2.865   0.330   1.541 -0.3638 -0.4337 -0.3400
 1369Sol     HW 8502   2.899   0.414   1.572  0.8121 -1.3939  1.0339
 1369Sol     HW 8503   2.941   0.285   1.504 -1.0419 -0.8037 -1.3229
 1369Sol     MW 8504   2.875   0.334   1.540 -0.2756  0.1873  0.1102
 1370Sol     OW 8505   3.170   2.447   8.634 -0.5501 -0.3736  0.0392
 1370Sol     HW 8506   3.185   2.483   8.721 -1.8224  0.0349  0.0981
 1370Sol     HW 8507   3.098   2.386   8.645 -2.4512  1.5882 -1.1853
 1370Sol     MW 8508   3.165   2.445   8.642 -0.5106 -0.2519  0.6892
 1371Sol     OW 8509   1.179   3.134   2.179 -0.3898 -0.3909 -0.0847
 1371Sol     HW 8510   1.176   3.201   2.110  0.9733  2.0999  2.1674
 1371Sol     HW 8511   1.215   3.057   2.136 -2.1904  0.2424 -2.8193
 1371Sol     MW 8512   1.182   3.133   2.169  0.0318  0.0254 -0.4995
 1372Sol     OW 8513   0.422   3.107   4.826  0.4422 -0.2185  0.6105
 1372Sol     HW 8514   0.402   3.084   4.735  0.6433  2.2597 -0.0851
 1372Sol     HW 8515   0.352   3.066   4.877 -2.0335  1.8291 -1.0576
 1372Sol     MW 8516   0.414   3.101   4.823  0.8233  0.1809 -0.4218
 1373Sol     OW 8517   1.944   1.383   6.173 -0.6855 -0.1866  0.1955
 1373Sol     HW 8518   1.999   1.317   6.215 -0.0125  0.2989  0.0974
 1373Sol     HW 8519   1.889   1.418   6.243 -0.8607 -0.6724  0.2964
 1373Sol     MW 8520   1.944   1.381   6.183  0.7524  0.5919  0.3019
 1374Sol     OW 8521   1.421   1.245   7.296 -0.5766  0.3359  0.3814
 1374Sol     HW 8522   1.366   1.175   7.261 -1.7407  1.6823 -0.5744
 1374Sol     HW 8523   1.502   1.239   7.246 -0.7877 -0.1235  0.0902
 1374Sol     MW 8524   1.423   1.238   7.288  0.7015  0.1351  0.0587
 1375Sol     OW 8525   3.133   2.927   2.514 -0.2734 -0.0988 -0.1995
 1375Sol     HW 8526   3.067   2.932   2.444 -1.0448 -0.5458  0.4857
 1375Sol     HW 8527   3.185   3.006   2.503 -1.1865  0.4758 -0.4885
 1375Sol     MW 8528   3.131   2.934   2.507  0.0212 -0.2157  0.3642
 1376Sol     OW 8529   0.529   1.301   4.783 -0.7724 -0.4771  0.8772
 1376Sol     HW 8530   0.497   1.388   4.806 -1.2300 -0.3528 -0.2400
 1376Sol     HW 8531   0.454   1.244   4.795 -0.6942 -0.5923  0.8189
 1376Sol     MW 8532   0.519   1.304   4.786  0.0684 -0.2906  1.0454
 1377Sol     OW 8533   0.883   0.769   9.142  0.1668  0.1447 -0.4982
 1377Sol     HW 8534   0.808   0.826   9.161  0.2887  0.3511 -0.6399
 1377Sol     HW 8535   0.864   0.733   9.055  1.5082  2.2624 -1.7103
 1377Sol     MW 8536   0.874   0.771   9.136 -0.2182 -0.2724  0.1618
 1378Sol     OW 8537   2.459   1.519   9.114 -0.6048  0.7306 -0.3085
 1378Sol     HW 8538   2.515   1.541   9.039  1.1946 -1.4756  0.3410
 1378Sol     HW 8539   2.494   1.570   9.186  1.5338 -1.6460  0.4241
 1378Sol     MW 8540   2.467   1.525   9.114  1.3814 -0.1250 -0.0322
 1379Sol     OW 8541   0.935   2.891   4.782 -0.1234  0.1644  0.2513
 1379Sol     HW 8542   0.908   2.834   4.710 -3.3530  2.1519 -0.2019
 1379Sol     HW 8543   0.905   2.978   4.756  3.1431  1.8228  1.7208
 1379Sol     MW 8544   0.930   2.894   4.773 -0.6834 -0.1323 -0.3749
 1380Sol     OW 8545   3.183   2.624   1.380  0.1639 -0.4865 -0.4724
 1380Sol     HW 8546   3.120   2.695   1.394  1.3878  0.4671  0.3334
 1380Sol     HW 8547   3.237   2.655   1.307  0.5391 -0.7144 -0.2903
 1380Sol     MW 8548   3.182   2.634   1.375 -0.1876  0.1465 -0.5756
 1381Sol     OW 8549   0.260   0.695   8.201 -0.7361  0.0703 -0.4440
 1381Sol     HW 8550   0.282   0.786   8.224 -0.7088 -0.0929  0.1730
 1381Sol     HW 8551   0.267   0.647   8.283 -2.6363 -0.1449 -0.3992
 1381Sol     MW 8552   0.263   0.699   8.210  0.1720 -0.1737 -0.0079
 1382Sol     OW 8553   2.170   2.435   3.557 -0.1051  0.3877  0.1826
 1382Sol     HW 8554   2.161   2.511   3.499  0.9611 -0.0795 -0.6145
 1382Sol     HW 8555   2.198   2.473   3.641  2.3741  0.7411 -0.7503
 1382Sol     MW 8556   2.172   2.446   3.559  0.2889  0.5707 -0.1888
 1383Sol     OW 8557   1.148   0.021   2.509 -0.5096 -0.2946  0.1305
 1383Sol     HW 8558   1.188   0.031   2.423  0.4852 -0.8160  0.5328
 1383Sol     HW 8559   1.096  -0.059   2.503 -1.4680  0.3365 -0.3615
 1383Sol     MW 8560   1.147   0.015   2.501  0.5319 -0.2179  0.3899
 1384Sol     OW 8561   0.835   0.834   5.896  0.2191 -0.0246 -0.6620
 1384Sol     HW 8562   0.772   0.814   5.965  0.2395  0.6559 -0.4402
 1384Sol     HW 8563   0.841   0.929   5.896  0.4786 -0.0391 -1.3734
 1384Sol     MW 8564   0.830   0.841   5.902  0.4960 -0.6725 -0.0515
 1385Sol     OW 8565   1.688   0.935   7.293  0.1631 -0.5052  0.8317
 1385Sol     HW 8566   1.710   0.842   7.300  1.6320 -0.2190  0.0566
 1385Sol     HW 8567   1.722   0.962   7.208  0.4403  0.9342  1.3821
 1385Sol     MW 8568   1.693   0.929   7.286 -0.1822  0.4448 -0.7048
 1386Sol     OW 8569   0.531   3.122   6.652  0.3138  0.0722 -0.1557
 1386Sol     HW 8570   0.446   3.091   6.621  0.3401  0.8570 -1.0223
 1386Sol     HW 8571   0.573   3.044   6.688 -1.3251 -0.0704  1.5571
 1386Sol     MW 8572   0.527   3.112   6.653 -0.4469 -0.0941 -0.1146
 1387Sol     OW 8573   2.672   1.994   5.144 -0.3004 -0.0377 -0.0366
 1387Sol     HW 8574   2.582   1.995   5.111  0.0524  1.3822 -1.0061
 1387Sol     HW 8575   2.669   1.936   5.220 -1.6048 -1.6332 -1.2686
 1387Sol     MW 8576   2.663   1.989   5.148 -0.5512  0.0622  0.1462
 1388Sol     OW 8577   0.859   2.594   6.334 -0.7538 -0.6090 -0.4011
 1388Sol     HW 8578   0.896   2.682   6.329  0.3145 -1.1095 -1.4064
 1388Sol     HW 8579   0.933   2.536   6.322 -1.6120 -1.6451 -0.7715
 1388Sol     MW 8580   0.869   2.597   6.332  0.3227 -0.5194 -0.3367
 1389Sol     OW 8581   2.515   3.009   5.238 -0.1101  0.2026 -0.1070
 1389Sol     HW 8582   2.570   3.011   5.160 -0.2145 -1.1919 -0.2221
 1389Sol     HW 8583   2.554   2.941   5.293  0.6288  1.9111  1.5592
 1389Sol     MW 8584   2.524   3.003   5.236  0.0001 -0.2764 -0.5043
 1390Sol     OW 8585   0.365   0.739   1.674 -0.8532  0.3254  0.0067
 1390Sol     HW 8586   0.340   0.811   1.615  0.3782  1.9846  1.4329
 1390Sol     HW 8587   0.460   0.744   1.678 -0.8308 -0.7266  0.9568
 1390Sol     MW 8588   0.371   0.746   1.669  0.1741  0.5785  0.0401
 1391Sol     OW 8589   0.821   0.247   4.134  0.3785  0.1514  0.5545
 1391Sol     HW 8590   0.873   0.294   4.069  1.9454 -2.5540 -0.2453
 1391Sol     HW 8591   0.880   0.237   4.209 -1.2849  2.9083  2.2835
 1391Sol     MW 8592   0.831   0.250   4.135 -0.2571 -0.1213 -0.4738
 1392Sol     OW 8593   0.241   1.314   6.689 -0.0230 -0.4794  0.1784
 1392Sol     HW 8594   0.152   1.340   6.663 -0.0880  0.0779  0.9548
 1392Sol     HW 8595   0.238   1.218   6.690 -0.6546 -0.4590  0.3370
 1392Sol     MW 8596   0.232   1.307   6.687  0.8816 -0.4404  0.4446
 1393Sol     OW 8597   0.991   3.413   9.423 -0.6298  0.5526 -0.5019
 1393Sol     HW 8598   1.065   3.458   9.382 -0.3602  0.9553  0.4228
 1393Sol     HW 8599   1.030   3.337   9.466 -0.8068  0.5899 -0.2791
 1393Sol     MW 8600   1.001   3.410   9.423  0.1226  0.0596 -0.1890
 1394Sol     OW 8601   2.791   0.599   4.799  0.3520 -0.4357 -0.0258
 1394Sol     HW 8602   2.715   0.655   4.783  1.0291  0.2635 -0.8354
 1394Sol     HW 8603   2.849   0.654   4.852  0.9767 -0.3934 -0.7440
 1394Sol     MW 8604   2.789   0.609   4.802  0.0887  0.3535 -1.1648
 1395Sol     OW 8605   0.110   1.045   3.131  0.2636 -0.1925 -0.4905
 1395Sol     HW 8606   0.175   1.039   3.201 -1.0941 -1.5885  0.6898
 1395Sol     HW 8607   0.161   1.068   3.053  2.2376 -1.5415  0.3411
 1395Sol     MW 8608   0.121   1.046   3.130  0.3151 -0.6925  0.2900
 1396Sol     OW 8609   1.976   0.965   8.488 -0.2061  0.5419  0.4804
 1396Sol     HW 8610   1.968   0.874   8.515 -0.8479  0.5203  0.2421
 1396Sol     HW 8611   2.016   0.961   8.401 -0.6339  0.4593  0.2851
 1396Sol     MW 8612   1.979   0.956   8.483 -0.1695  0.3601 -0.0945
 1397Sol     OW 8613   2.526   1.797   3.825 -0.2387  0.3389  0.1910
 1397Sol     HW 8614   2.523   1.838   3.911  1.8027  0.8275  0.0727
 1397Sol     HW 8615   2.593   1.846   3.778  1.1166 -2.0794 -0.4966
 1397Sol     MW 8616   2.532   1.805   3.829 -0.1188 -0.4643  1.0247
 1398Sol     OW 8617   1.817   0.616   9.205 -0.1855  0.5768 -0.2957
 1398Sol     HW 8618   1.767   0.573   9.136 -1.2318  1.6034 -0.1899
 1398Sol     HW 8619   1.876   0.676   9.158  0.7072 -0.3635 -0.4007
 1398Sol     MW 8620   1.818   0.617   9.194 -0.4582 -0.0503  0.2975
 1399Sol     OW 8621   2.909   2.614   4.932  0.4452 -0.1613 -0.2110
 1399Sol     HW 8622   2.846   2.610   4.860  0.7073 -1.4573 -0.3890
 1399Sol     HW 8623   2.865   2.570   5.004  1.0614 -0.9207 -0.2840
 1399Sol     MW 8624   2.900   2.609   4.932  0.6187  0.3764  0.2089
 1400Sol     OW 8625   0.663   2.071   8.073 -0.0935  0.1668  0.0464
 1400Sol     HW 8626   0.718   1.993   8.081 -1.6490 -0.9894 -0.3390
 1400Sol     HW 8627   0.700   2.119   7.999 -0.8350 -1.6418 -1.5378
 1400Sol     MW 8628   0.671   2.068   8.067 -0.3168 -0.4297 -0.2057
 1401Sol     OW 8629   2.221   2.011   5.278  0.0601 -0.2646  0.1739
 1401Sol     HW 8630   2.279   1.986   5.207  1.3124 -1.0381  1.4296
 1401Sol     HW 8631   2.163   2.077   5.241  1.3742  0.0995 -1.2606
 1401Sol     MW 8632   2.221   2.014   5.269 -0.4652  0.5405 -0.5608
 1402Sol     OW 8633   2.938   1.083   9.460  0.0815  1.0074  0.0140
 1402Sol     HW 8634   2.986   1.149   9.409 -1.3533  0.4303 -2.1210
 1402Sol     HW 8635   2.966   0.999   9.424 -0.4657  0.5612  0.6124
 1402Sol     MW 8636   2.945   1.082   9.452  0.4178  0.2659  0.1102
 1403Sol     OW 8637   2.574   0.620   1.767 -0.0828 -0.3867 -0.1662
 1403Sol     HW 8638   2.496   0.666   1.736  0.9030  1.0332 -0.6319
 1403Sol     HW 8639   2.597   0.561   1.695 -0.1270 -0.0416 -0.4653
 1403Sol     MW 8640   2.569   0.619   1.758 -0.5009  0.2216  0.5377
 1404Sol     OW 8641   0.014   2.564   5.523 -0.2842 -0.1608 -0.2151
 1404Sol     HW 8642   0.087   2.513   5.559  0.2463  1.1765  0.6427
 1404Sol     HW 8643  -0.009   2.518   5.442  2.8297  0.4719 -1.5638
 1404Sol     MW 8644   0.019   2.556   5.519  0.0181 -0.3121  0.1458
 1405Sol     OW 8645   1.051   2.861   3.520  0.2906  0.1769  0.4367
 1405Sol     HW 8646   1.085   2.950   3.514 -0.7959  0.6868  1.5507
 1405Sol     HW 8647   0.996   2.862   3.598  0.1879 -1.4495  0.3959
 1405Sol     MW 8648   1.049   2.869   3.527 -0.0852  0.4556  0.2235
 1406Sol     OW 8649   1.609   2.832   7.217 -0.3442  0.3892  0.5770
 1406Sol     HW 8650   1.573   2.827   7.306 -0.7570 -0.3495  0.3672
 1406Sol     HW 8651   1.682   2.894   7.225  0.9588 -1.2734  1.8868
 1406Sol     MW 8652   1.613   2.838   7.226 -0.4612  0.7864  0.2149
 1407Sol     OW 8653   2.470   0.739   7.234  0.1935 -0.7935  0.6126
 1407Sol     HW 8654   2.508   0.683   7.166 -1.7405  0.0296 -1.2073
 1407Sol     HW 8655   2.407   0.682   7.279  1.2032 -1.2282  1.5154
 1407Sol     MW 8656   2.468   0.729   7.232  0.4513  0.6618 -0.7421
 1408Sol     OW 8657   0.959   2.544   9.430  0.0216  0.4416 -0.6887
 1408Sol     HW 8658   0.866   2.523   9.443  0.6475 -1.4149  1.1048
 1408Sol     HW 8659   0.959   2.637   9.407 -2.2880  0.4385 -0.8484
 1408Sol     MW 8660   0.950   2.551   9.430 -0.5448  0.1326 -0.6302
 1409Sol     OW 8661   3.001   1.389   8.726  0.2052  0.3520  0.0351
 1409Sol     HW 8662   3.077   1.408   8.781  0.4893  0.3985 -0.3671
 1409Sol     HW 8663   2.967   1.306   8.760  0.2450  0.4943  0.4232
 1409Sol     MW 8664   3.005   1.383   8.734  0.6405 -0.9458  0.0276
 1410Sol     OW 8665   3.297   2.756   3.106 -0.1845  0.1648  0.3174
 1410Sol     HW 8666   3.211   2.722   3.080 -0.5018  1.5077 -0.4262
 1410Sol     HW 8667   3.355   2.733   3.034  0.3006 -1.5279  1.2149
 1410Sol     MW 8668   3.294   2.751   3.097 -0.1027  0.3135 -0.0994
 1411Sol     OW 8669   0.111   0.534   7.549 -0.4330 -0.6600 -1.1312
 1411Sol     HW 8670   0.154   0.619   7.537 -1.1091  0.1869  1.9889
 1411Sol     HW 8671   0.181   0.476   7.579 -0.5863 -0.3897 -0.2387
 1411Sol     MW 8672   0.121   0.536   7.551 -0.0411  0.2195 -0.3942
 1412Sol     OW 8673   3.158   1.044   8.741  0.3472 -0.3626  0.4181
 1412Sol     HW 8674   3.219   0.972   8.724  0.6609  0.4016 -1.9729
 1412Sol     HW 8675   3.173   1.068   8.832  1.1554 -2.4663  0.8584
 1412Sol     MW 8676   3.165   1.040   8.747 -0.5533 -0.2559  0.3471
 1413Sol     OW 8677   0.137   2.352   4.601  0.0742  0.3456 -0.3850
 1413Sol     HW 8678   0.103   2.278   4.550  0.9069 -0.8732  0.7868
 1413Sol     HW 8679   0.229   2.357   4.576  0.4711 -0.2148  0.9219
 1413Sol     MW 8680   0.142   2.346   4.594  0.4486 -0.8158 -0.1841
 1414Sol     OW 8681   2.912   2.541   9.701  0.0317 -0.3423 -0.1381
 1414Sol     HW 8682   2.828   2.584   9.689  0.0923  0.3656  1.7650
 1414Sol     HW 8683   2.946   2.528   9.613 -0.1399  3.2687 -0.7876
 1414Sol     MW 8684   2.908   2.544   9.692 -0.8602  0.1831 -0.2946
 1415Sol     OW 8685   0.655   1.016   8.740 -0.0273  0.1101  0.1998
 1415Sol     HW 8686   0.639   1.091   8.682 -0.8006 -1.4724 -1.7003
 1415Sol     HW 8687   0.646   1.051   8.828 -0.8737  2.1526 -0.6722
 1415Sol     MW 8688   0.653   1.026   8.742  0.6385 -0.4174  0.7998
 1416Sol     OW 8689   0.570   1.672   8.102  0.2184  0.4161  0.8275
 1416Sol     HW 8690   0.583   1.651   8.010 -1.3127 -0.8442  0.8739
 1416Sol     HW 8691   0.479   1.703   8.107  0.1452  0.0437  1.9755
 1416Sol     MW 8692   0.563   1.673   8.094 -0.5488  0.0787  0.0350
 1417Sol     OW 8693   1.660   2.763   3.896  0.3559 -0.0664 -0.0903
 1417Sol     HW 8694   1.602   2.795   3.966 -0.9419  0.0205 -1.1834
 1417Sol     HW 8695   1.666   2.836   3.835  1.9200  0.0465  0.1761
 1417Sol     MW 8696   1.655   2.772   3.897 -0.0610  0.3552  0.2891
 1418Sol     OW 8697   1.375   1.021   2.283  0.0909 -0.2585 -0.2956
 1418Sol     HW 8698   1.422   1.101   2.259 -2.2246  1.1460 -0.3408
 1418Sol     HW 8699   1.398   1.007   2.375  1.2773 -0.0840 -0.5625
 1418Sol     MW 8700   1.381   1.027   2.289 -0.2984  0.8500 -0.6391
 1419Sol     OW 8701   1.426   2.511   7.815  0.2133 -0.2583  0.1103
 1419Sol     HW 8702   1.438   2.491   7.722 -1.0646  1.1373 -0.3876
 1419Sol     HW 8703   1.422   2.607   7.819 -0.5239 -0.3238  1.4982
 1419Sol     MW 8704   1.426   2.518   7.807 -0.1311  0.3934  0.2863
 1420Sol     OW 8705   2.929   0.834   3.317  0.1450  0.2786  0.4097
 1420Sol     HW 8706   2.859   0.844   3.381 -0.5894 -0.1551 -0.3187
 1420Sol     HW 8707   3.002   0.885   3.353 -0.5998  0.8784  1.0808
 1420Sol     MW 8708   2.929   0.839   3.326  0.2281  0.1315 -0.3856
 1421Sol     OW 8709   1.670   2.199   5.232  0.0512 -0.5218  0.5241
 1421Sol     HW 8710   1.581   2.233   5.216  0.4419 -0.1960 -1.0857
 1421Sol     HW 8711   1.721   2.277   5.255 -0.2241 -0.8098  2.1490
 1421Sol     MW 8712   1.666   2.209   5.233  0.9287 -0.4400  0.0913
 1422Sol     OW 8713   2.969   1.241   2.766  0.5022  0.5006  0.2162
 1422Sol     HW 8714   3.015   1.209   2.688 -1.3507 -0.7559 -0.4001
 1422Sol     HW 8715   2.885   1.272   2.733  0.0346  0.7379  1.6058
 1422Sol     MW 8716   2.965   1.241   2.756 -0.6627 -0.7375  0.0247
 1423Sol     OW 8717   0.306   0.882   9.830 -0.1321 -0.0407 -0.1199
 1423Sol     HW 8718   0.274   0.801   9.790 -1.5837  0.8248 -0.7614
 1423Sol     HW 8719   0.341   0.932   9.756  0.0421  0.2636  0.1671
 1423Sol     MW 8720   0.307   0.879   9.820 -0.4369  0.2492  0.5375
 1424Sol     OW 8721   3.043   0.089   5.483  0.3094  0.3891 -0.2140
 1424Sol     HW 8722   3.015   0.100   5.393 -0.1160 -0.7625 -0.2263
 1424Sol     HW 8723   3.122   0.144   5.491 -0.0370  1.0176 -1.0834
 1424Sol     MW 8724   3.048   0.095   5.476 -0.2034  0.1226 -1.2652
 1425Sol     OW 8725   0.440   2.973   2.019  0.5903 -0.5848 -0.1469
 1425Sol     HW 8726   0.527   2.940   2.039  0.4954  0.4575  2.0770
 1425Sol     HW 8727   0.447   3.068   2.028 -0.6788 -0.4671 -0.2877
 1425Sol     MW 8728   0.448   2.978   2.021 -0.6409 -0.1606  0.1615
 1426Sol     OW 8729   2.804   2.708   6.983  0.1112  0.3039 -0.2271
 1426Sol     HW 8730   2.806   2.613   6.986  0.6645  0.3428  1.0442
 1426Sol     HW 8731   2.869   2.732   6.917 -1.2040 -0.2253 -1.7597
 1426Sol     MW 8732   2.810   2.702   6.978 -0.1654  0.5797 -0.2411
 1427Sol     OW 8733   2.957   2.150   3.116  0.3109  0.2481 -0.3203
 1427Sol     HW 8734   2.911   2.180   3.194  0.8969 -1.4314  0.6841
 1427Sol     HW 8735   3.010   2.225   3.090  0.0407  0.8540  0.8200
 1427Sol     MW 8736   2.957   2.160   3.120  0.1816 -0.2478 -0.0909
 1428Sol     OW 8737   2.786   0.388   5.323  0.2067  0.2731  0.3778
 1428Sol     HW 8738   2.766   0.474   5.288  1.2924  0.6239  0.5992
 1428Sol     HW 8739   2.712   0.368   5.381  0.4619  1.5157  1.1516
 1428Sol     MW 8740   2.777   0.394   5.325 -0.0612  0.3057 -0.2095
 1429Sol     OW 8741   1.863   1.371   2.947  0.8589 -0.2476  0.0149
 1429Sol     HW 8742   1.852   1.310   3.020  0.3259 -0.6815 -0.4238
 1429Sol     HW 8743   1.915   1.323   2.883  1.9519  0.3970  0.4135
 1429Sol     MW 8744   1.867   1.361   2.948  0.4247  0.3868 -0.0420
 1430Sol     OW 8745   2.321   0.204   3.861  0.4371 -0.5105 -0.3722
 1430Sol     HW 8746   2.317   0.137   3.929  1.8017 -0.2683 -0.0404
 1430Sol     HW 8747   2.232   0.237   3.855 -0.4861 -3.0591 -1.2554
 1430Sol     MW 8748   2.313   0.201   3.867 -0.5616 -0.3333  0.9308
 1431Sol     OW 8749   2.101   2.729   2.856 -0.0760  0.0610 -0.1473
 1431Sol     HW 8750   2.007   2.746   2.841 -0.4366 -1.3764  0.4139
 1431Sol     HW 8751   2.118   2.649   2.807  0.5514 -0.4164  0.8593
 1431Sol     MW 8752   2.094   2.723   2.850  0.5980 -0.2187 -0.1452
 1432Sol     OW 8753   2.522   2.080   2.107  0.0848  0.4080  0.3810
 1432Sol     HW 8754   2.440   2.057   2.151  1.4477 -1.0136  2.2445
 1432Sol     HW 8755   2.520   2.175   2.102 -1.0067  0.4865  1.8023
 1432Sol     MW 8756   2.514   2.086   2.111 -0.1206 -0.6104 -0.9205
 1433Sol     OW 8757   1.246   0.800   6.856  0.2430  0.1119  0.1634
 1433Sol     HW 8758   1.339   0.816   6.867  0.3636  0.6135 -1.4913
 1433Sol     HW 8759   1.231   0.714   6.896  1.3141  0.2200  0.8114
 1433Sol     MW 8760   1.253   0.794   6.861 -0.0757 -0.3526  0.7873
 1434Sol     OW 8761   2.719   3.442   8.443 -0.3556  0.2268 -0.4136
 1434Sol     HW 8762   2.683   3.491   8.517  1.3185  2.0900 -0.7982
 1434Sol     HW 8763   2.799   3.402   8.477  0.4798  1.1826 -1.2461
 1434Sol     MW 8764   2.723   3.443   8.452  0.2091  0.8594  0.3323
 1435Sol     OW 8765   1.695   2.997   3.722 -0.0707  0.7601 -0.1836
 1435Sol     HW 8766   1.774   3.021   3.771 -0.8497  0.8337  1.0389
 1435Sol     HW 8767   1.623   3.034   3.772 -0.9807 -0.4428 -0.5756
 1435Sol     MW 8768   1.696   3.002   3.731  0.2300 -0.1321  0.3328
 1436Sol     OW 8769   0.131   2.861   8.671 -0.7446 -0.5634 -0.0752
 1436Sol     HW 8770   0.041   2.885   8.651 -0.5670  1.1014  1.0429
 1436Sol     HW 8771   0.184   2.914   8.611 -0.4655 -0.6302  0.1103
 1436Sol     MW 8772   0.128   2.868   8.664 -0.0943 -0.5118  0.3353
 1437Sol     OW 8773   1.740   1.096   9.177  0.0458 -0.0926 -0.2199
 1437Sol     HW 8774   1.807   1.051   9.229  0.7858  0.1489 -0.9565
 1437Sol     HW 8775   1.739   1.048   9.094  0.2714  0.7607 -0.7149
 1437Sol     MW 8776   1.746   1.087   9.174  0.4147 -0.5152  0.5439
 1438Sol     OW 8777   2.332   1.168   1.757  0.5205  0.1793 -0.3942
 1438Sol     HW 8778   2.373   1.103   1.814 -0.5842 -1.1526 -1.0850
 1438Sol     HW 8779   2.342   1.133   1.669  0.9161  1.5109 -0.8961
 1438Sol     MW 8780   2.336   1.159   1.755 -0.0881 -0.3539 -0.3137
 1439Sol     OW 8781   0.836   2.967   1.439  0.1868  0.2751 -0.0735
 1439Sol     HW 8782   0.852   3.054   1.475  2.5153  0.0810 -0.5641
 1439Sol     HW 8783   0.888   2.908   1.494 -1.7730 -0.8964  0.5728
 1439Sol     MW 8784   0.842   2.970   1.447 -0.0454  0.3318  0.3549
 1440Sol     OW 8785   3.004   3.239   3.419  0.8731  0.2973 -0.3683
 1440Sol     HW 8786   3.011   3.331   3.393  0.5957  0.3332 -0.3239
 1440Sol     HW 8787   2.978   3.194   3.338  0.1104  0.3943 -0.1871
 1440Sol     MW 8788   3.002   3.244   3.409 -0.4510 -0.1475  0.2780
 1441Sol     OW 8789   2.483   1.862   8.856  0.2937  0.0943 -0.6294
 1441Sol     HW 8790   2.447   1.820   8.934 -1.5843 -1.9371 -2.5126
 1441Sol     HW 8791   2.442   1.949   8.854  0.8766  0.4271  0.9600
 1441Sol     MW 8792   2.476   1.866   8.862 -0.2562 -0.1757 -0.0679
 1442Sol     OW 8793   3.149   2.204   9.519 -0.1355 -0.2995  0.2519
 1442Sol     HW 8794   3.241   2.186   9.538  0.1038  0.1619 -0.4445
 1442Sol     HW 8795   3.136   2.174   9.429 -0.0385  1.8385 -0.5021
 1442Sol     MW 8796   3.156   2.200   9.513  0.2442  0.1800  0.2262
 1443Sol     OW 8797   2.903   0.856   2.139 -0.2302  0.3058  0.0369
 1443Sol     HW 8798   2.873   0.943   2.166  0.4885  0.3259  0.8026
 1443Sol     HW 8799   2.984   0.873   2.091 -0.5471  0.1251 -0.5581
 1443Sol     MW 8800   2.908   0.866   2.137  0.0147  0.4285  0.7661
 1444Sol     OW 8801   2.977   2.696   3.653  0.0393 -0.2606  0.1871
 1444Sol     HW 8802   2.942   2.613   3.687 -1.3513  0.2228 -0.0130
 1444Sol     HW 8803   3.062   2.673   3.616 -0.1390 -1.5177  0.5218
 1444Sol     MW 8804   2.981   2.686   3.653 -0.3364  0.8737  0.4754
 1445Sol     OW 8805   3.005   2.199   4.703  0.6017 -0.0263 -0.0964
 1445Sol     HW 8806   3.032   2.260   4.772 -0.4224  0.6633 -0.2911
 1445Sol     HW 8807   3.086   2.154   4.678  1.4458  1.4915 -0.1830
 1445Sol     MW 8808   3.015   2.200   4.707  0.0711  0.6510 -0.0328
 1446Sol     OW 8809   0.142   0.852   3.475  0.4443 -0.7340 -0.0002
 1446Sol     HW 8810   0.112   0.764   3.450 -0.2365 -1.1079  2.0483
 1446Sol     HW 8811   0.115   0.861   3.567 -0.7322  2.1563 -0.5813
 1446Sol     MW 8812   0.137   0.845   3.481  0.3007 -0.5270  0.4912
 1447Sol     OW 8813   0.671   2.091   8.922 -0.2192  0.0004  0.4296
 1447Sol     HW 8814   0.726   2.118   8.996  1.8147 -2.6552 -0.0529
 1447Sol     HW 8815   0.587   2.136   8.937  1.7745  3.4847  1.6083
 1447Sol     MW 8816   0.668   2.098   8.930  0.4573  0.1839  0.7948
 1448Sol     OW 8817   1.119   0.610   3.965 -0.2568 -0.3584 -0.6972
 1448Sol     HW 8818   1.139   0.677   3.900  2.5720 -0.1552  0.3097
 1448Sol     HW 8819   1.167   0.637   4.043 -1.5775 -1.9318  0.6965
 1448Sol     MW 8820   1.125   0.618   3.966 -0.2674 -0.0075  0.3590
 1449Sol     OW 8821   1.363   3.023   7.202 -0.2869  0.1284 -0.1172
 1449Sol     HW 8822   1.383   3.111   7.170  1.4077 -0.7034 -1.4652
 1449Sol     HW 8823   1.443   2.973   7.185 -1.3800 -1.7842  0.2033
 1449Sol     MW 8824   1.372   3.026   7.198  0.4024 -0.5750 -0.2478
 1450Sol     OW 8825   2.036   1.712   4.942 -0.6103 -0.0051  0.4716
 1450Sol     HW 8826   2.129   1.732   4.927 -0.4637  0.4095  1.8104
 1450Sol     HW 8827   2.018   1.751   5.028 -1.7878 -0.8620  0.6109
 1450Sol     MW 8828   2.043   1.717   4.949 -0.0073  0.3315  0.1280
 1451Sol     OW 8829   2.131   2.779   7.934  0.1516  0.0226 -0.2287
 1451Sol     HW 8830   2.225   2.787   7.915  0.5883  0.6214  2.0129
 1451Sol     HW 8831   2.128   2.751   8.025 -1.8955  1.4676  0.1679
 1451Sol     MW 8832   2.139   2.777   7.940  0.3523 -0.0342 -0.0471
 1452Sol     OW 8833   3.130   1.361   1.661 -0.2922  0.6962 -0.2194
 1452Sol     HW 8834   3.088   1.417   1.596  0.5070  1.3628 -0.1660
 1452Sol     HW 8835   3.201   1.414   1.697  0.2659 -0.2263  0.0719
 1452Sol     MW 8836   3.133   1.371   1.658  0.3002 -0.0366 -0.9763
 1453Sol     OW 8837   2.566   2.543   3.231 -0.2507 -0.5574 -0.4531
 1453Sol     HW 8838   2.539   2.565   3.321 -0.3091 -0.5679 -0.4683
 1453Sol     HW 8839   2.521   2.461   3.212 -0.7310 -0.2342 -0.7209
 1453Sol     MW 8840   2.560   2.538   3.238 -0.2986  0.0314 -0.0968
 1454Sol     OW 8841   2.645   0.853   8.427 -0.3790  0.6448  0.0003
 1454Sol     HW 8842   2.671   0.855   8.335 -0.9037 -0.4652 -0.1833
 1454Sol     HW 8843   2.720   0.817   8.473 -0.4527  0.3457 -0.1148
 1454Sol     MW 8844   2.654   0.850   8.423 -0.0108 -0.3318 -0.0028
 1455Sol     OW 8845   2.912   0.047   4.121 -0.5077  0.7045 -0.8026
 1455Sol     HW 8846   2.919   0.055   4.026  1.1435  2.3430 -0.5501
 1455Sol     HW 8847   2.977  -0.019   4.145 -0.6394  0.5910 -0.7516
 1455Sol     MW 8848   2.918   0.041   4.115  0.3111  0.1368 -0.5213
 1456Sol     OW 8849   2.893   2.962   6.566  0.1737  0.2333  0.1274
 1456Sol     HW 8850   2.852   2.876   6.569 -1.5221  1.0127 -0.1178
 1456Sol     HW 8851   2.986   2.944   6.553 -0.4688 -1.4958 -2.4473
 1456Sol     MW 8852   2.898   2.953   6.565  0.9308 -0.0362 -0.0152
 1457Sol     OW 8853   2.586   2.042   7.491  0.1793  0.6574  0.3968
 1457Sol     HW 8854   2.654   1.976   7.480 -0.0449  0.3203  1.0128
 1457Sol     HW 8855   2.519   2.018   7.427  0.0622  0.2452  0.6728
 1457Sol     MW 8856   2.586   2.034   7.484  0.0483 -0.2268 -0.6715
 1458Sol     OW 8857   2.928   2.847   3.410  0.0466 -0.0881 -0.1863
 1458Sol     HW 8858   2.833   2.836   3.408 -0.0869  1.0248  0.1485
 1458Sol     HW 8859   2.959   2.778   3.470 -0.5501 -0.3989 -0.2362
 1458Sol     MW 8860   2.922   2.840   3.415  0.1310  0.1835 -0.0211
 1459Sol     OW 8861   1.044   0.008   7.973 -0.1921  0.1265  0.6203
 1459Sol     HW 8862   1.071   0.016   7.882  0.8506  0.8781  0.9886
 1459Sol     HW 8863   1.114  -0.039   8.016 -0.0038  1.0288  1.3281
 1459Sol     MW 8864   1.052   0.005   7.969 -0.3689 -0.3439  0.6347
 1460Sol     OW 8865   2.331   2.202   6.886 -0.1070 -0.2021 -0.2754
 1460Sol     HW 8866   2.361   2.291   6.869 -1.2549  0.2511  0.0214
 1460Sol     HW 8867   2.385   2.147   6.829  0.0908  0.7555 -1.0159
 1460Sol     MW 8868   2.339   2.205   6.879 -0.2562  0.4577 -0.5175
 1461Sol     OW 8869   0.654   0.552   5.343 -0.4579  0.3969 -0.1915
 1461Sol     HW 8870   0.745   0.578   5.353 -0.8027  1.0859  1.2780
 1461Sol     HW 8871   0.658   0.458   5.326  0.7087  1.0822 -4.1254
 1461Sol     MW 8872   0.662   0.546   5.343 -0.1711 -0.5297  0.0927
 1462Sol     OW 8873   0.327   2.824   9.831  0.0061  0.3062  0.1315
 1462Sol     HW 8874   0.387   2.807   9.904  0.8112  0.0374 -0.5908
 1462Sol     HW 8875   0.251   2.769   9.850 -0.5699  1.5992  1.7065
 1462Sol     MW 8876   0.326   2.817   9.839  0.4779  0.1045  0.9960
 1463Sol     OW 8877   2.840   0.337   8.572 -0.0546 -0.2114 -0.3357
 1463Sol     HW 8878   2.859   0.384   8.490  0.4539 -1.1207 -0.7468
 1463Sol     HW 8879   2.748   0.313   8.564 -0.7283  1.9095  0.4992
 1463Sol     MW 8880   2.833   0.339   8.564 -0.0458 -0.0846  0.6841
 1464Sol     OW 8881   1.907   1.066   7.379  0.4407 -0.2923  0.6628
 1464Sol     HW 8882   1.824   1.025   7.354  0.0203  1.5486 -1.2202
 1464Sol     HW 8883   1.891   1.160   7.366  2.5173  0.1599  1.2280
 1464Sol     MW 8884   1.898   1.071   7.375 -0.1809 -0.4677  0.8988
 1465Sol     OW 8885   1.899   1.724   5.424 -0.1337 -0.4783 -0.5198
 1465Sol     HW 8886   1.929   1.638   5.392  1.6528  0.2806 -0.9645
 1465Sol     HW 8887   1.900   1.715   5.519  1.2371 -0.5856 -0.5327
 1465Sol     MW 8888   1.902   1.715   5.430  0.3426 -0.5160  0.3408
 1466Sol     OW 8889   0.568   2.452   1.826 -0.2896  0.6190  0.3164
 1466Sol     HW 8890   0.556   2.428   1.734 -0.3633 -0.4247  0.5919
 1466Sol     HW 8891   0.480   2.473   1.857 -0.4256 -0.1048  0.4358
 1466Sol     MW 8892   0.559   2.452   1.820 -0.1843  0.1317  0.2917
 1467Sol     OW 8893   1.680   2.676   7.868  0.1627  0.2559 -0.0569
 1467Sol     HW 8894   1.593   2.715   7.862 -1.0119 -2.1142  0.5720
 1467Sol     HW 8895   1.674   2.597   7.814  1.7779 -0.1857  0.3793
 1467Sol     MW 8896   1.671   2.672   7.863  0.1109 -0.1379  0.5170
 1468Sol     OW 8897   1.222   0.449   8.312 -0.4564  0.3844 -0.5885
 1468Sol     HW 8898   1.165   0.524   8.328 -0.6998  0.3224 -1.1717
 1468Sol     HW 8899   1.293   0.459   8.376 -0.7997  0.7889 -0.2712
 1468Sol     MW 8900   1.224   0.457   8.319 -0.4334 -0.1788 -0.1139
 1469Sol     OW 8901   2.715   3.303   5.348  0.7105 -0.3533  0.9036
 1469Sol     HW 8902   2.748   3.218   5.319  2.2520 -0.0336  1.6615
 1469Sol     HW 8903   2.749   3.313   5.437  0.4407  1.0121  0.8674
 1469Sol     MW 8904   2.721   3.296   5.353 -0.6011  0.3469  0.6180
 1470Sol     OW 8905   0.693   2.256   3.238  0.1750 -0.8052  0.0226
 1470Sol     HW 8906   0.769   2.236   3.293  1.6166 -1.9302 -2.3220
 1470Sol     HW 8907   0.712   2.341   3.200 -0.4499 -0.4061  0.5766
 1470Sol     MW 8908   0.701   2.262   3.240 -0.4069  0.0065  0.1182
 1471Sol     OW 8909   2.795   2.670   2.245  0.2125 -0.3453  0.3126
 1471Sol     HW 8910   2.816   2.584   2.281  0.0940  0.3422  2.0671
 1471Sol     HW 8911   2.749   2.715   2.316 -3.5291 -0.3072 -1.9480
 1471Sol     MW 8912   2.792   2.666   2.254  0.2908 -0.5053  0.5405
 1472Sol     OW 8913   2.062   2.796   1.381  0.1551  0.1020  0.3188
 1472Sol     HW 8914   2.034   2.825   1.467  0.7298 -0.0220  0.5464
 1472Sol     HW 8915   2.151   2.765   1.393  0.7253  1.3464 -0.5852
 1472Sol     MW 8916   2.067   2.796   1.389 -0.1476  0.1143 -0.0520
 1473Sol     OW 8917   3.017   0.483   2.029  0.4080  0.2138 -0.1409
 1473Sol     HW 8918   3.080   0.514   1.964  1.6077  1.6602  1.6734
 1473Sol     HW 8919   2.934   0.475   1.981  0.9323  2.6729 -1.5244
 1473Sol     MW 8920   3.015   0.485   2.019 -0.0583 -0.3007  0.1051
 1474Sol     OW 8921   0.245   1.202   1.590  0.1617 -0.4182 -0.3347
 1474Sol     HW 8922   0.312   1.225   1.654 -0.8548 -3.0670  1.7898
 1474Sol     HW 8923   0.264   1.111   1.567 -1.1463 -0.3749 -1.7046
 1474Sol     MW 8924   0.252   1.196   1.594 -0.7327 -0.0403  0.0181
 1475Sol     OW 8925   2.442   0.077   1.334  0.1461 -0.5051  0.9255
 1475Sol     HW 8926   2.355   0.036   1.338 -0.0580 -0.5208 -2.1105
 1475Sol     HW 8927   2.424   0.166   1.303  0.9695  0.5377  3.3548
 1475Sol     MW 8928   2.432   0.081   1.331 -0.4742  0.1629 -0.2125
 1476Sol     OW 8929   2.294   2.625   7.033 -0.4118 -0.1039  0.1156
 1476Sol     HW 8930   2.256   2.709   7.006 -1.1978  0.2362  2.2339
 1476Sol     HW 8931   2.384   2.647   7.059 -0.6548  0.0867  0.7817
 1476Sol     MW 8932   2.299   2.635   7.033 -0.8236  0.4246  0.0700
 1477Sol     OW 8933   3.140   3.134   3.624  0.5178  0.0463  0.0820
 1477Sol     HW 8934   3.088   3.169   3.551  0.2780  0.2965  0.3704
 1477Sol     HW 8935   3.168   3.048   3.594  2.0556  0.9301 -1.1028
 1477Sol     MW 8936   3.138   3.129   3.615 -0.4089 -0.3899  0.9403
 1478Sol     OW 8937   2.915   1.043   8.614  0.3937 -0.2474 -0.1720
 1478Sol     HW 8938   3.000   1.045   8.659 -0.1111  0.0956  0.7848
 1478Sol     HW 8939   2.935   1.010   8.527  1.3216 -1.5165  0.4892
 1478Sol     MW 8940   2.925   1.040   8.610 -0.0854  0.8623  0.5152
 1479Sol     OW 8941   1.689   1.051   6.413 -0.2241 -0.4502 -0.3290
 1479Sol     HW 8942   1.727   1.086   6.494 -0.0656 -0.3461 -0.4466
 1479Sol     HW 8943   1.683   0.956   6.428  3.3472 -0.9693 -1.5862
 1479Sol     MW 8944   1.692   1.045   6.422 -0.3669  0.6666 -0.1677
 1480Sol     OW 8945   1.342   1.479   2.337  0.5812  0.0170  0.2427
 1480Sol     HW 8946   1.279   1.413   2.307  1.6037 -1.2990  0.9657
 1480Sol     HW 8947   1.354   1.460   2.430  2.9666 -0.5047 -0.1489
 1480Sol     MW 8948   1.337   1.471   2.343 -0.4327  0.0938  0.2486
 1481Sol     OW 8949   3.297   2.046   6.172 -0.2278 -0.0613  0.2560
 1481Sol     HW 8950   3.388   2.050   6.141 -0.0399 -2.2567  0.4111
 1481Sol     HW 8951   3.249   2.006   6.100 -1.1461  1.3391  0.0722
 1481Sol     MW 8952   3.301   2.043   6.163 -0.4155  0.1392 -0.3529
 1482Sol     OW 8953   2.494   2.303   4.627 -0.1956  0.1816  0.0642
 1482Sol     HW 8954   2.440   2.316   4.705 -1.7910  1.1437 -1.1766
 1482Sol     HW 8955   2.584   2.309   4.659 -0.7865  4.1943  1.2704
 1482Sol     MW 8956   2.498   2.305   4.637  0.0610 -0.5181  0.4078
 1483Sol     OW 8957   1.336   0.311   3.698 -0.7721 -0.1979  0.0615
 1483Sol     HW 8958   1.385   0.230   3.707 -0.6903 -0.3616 -1.5793
 1483Sol     HW 8959   1.252   0.294   3.739 -0.1488 -0.5545  1.1951
 1483Sol     MW 8960   1.333   0.303   3.702  0.5928  0.1406 -0.5743
 1484Sol     OW 8961   1.687   1.825   9.088  0.9606 -0.5068 -0.3985
 1484Sol     HW 8962   1.666   1.762   9.019  0.4198 -1.7046  0.8145
 1484Sol     HW 8963   1.671   1.777   9.169 -0.5029  1.5330  0.5745
 1484Sol     MW 8964   1.684   1.815   9.089  0.5535  0.2191  0.4897
 1485Sol     OW 8965   1.830   2.674   2.852 -0.4722  0.3361 -0.3709
 1485Sol     HW 8966   1.819   2.587   2.813  0.4941  0.8553 -1.8313
 1485Sol     HW 8967   1.767   2.676   2.924 -1.1752 -1.2249 -0.9266
 1485Sol     MW 8968   1.823   2.666   2.855 -0.4593 -0.1872  0.0683
 1486Sol     OW 8969   1.054   1.500   9.632 -0.0064 -0.0838 -0.4795
 1486Sol     HW 8970   1.063   1.480   9.539  0.0402 -1.9062 -0.0911
 1486Sol     HW 8971   1.144   1.511   9.664 -0.0890  2.3599 -1.0213
 1486Sol     MW 8972   1.063   1.499   9.627  0.4219  0.3599 -0.3909
 1487Sol     OW 8973   0.139   1.664   6.193 -0.1548 -0.3607 -0.2469
 1487Sol     HW 8974   0.181   1.639   6.111  1.2788 -2.4388  1.0568
 1487Sol     HW 8975   0.054   1.621   6.191  0.7240 -2.1916  0.2347
 1487Sol     MW 8976   0.135   1.658   6.186  0.3254  0.0151  0.4677
 1488Sol     OW 8977   1.426   0.574   4.780  0.2037 -0.3940 -0.1525
 1488Sol     HW 8978   1.365   0.542   4.714 -0.4133  3.2344 -1.4242
 1488Sol     HW 8979   1.512   0.546   4.749 -0.3405 -1.2911 -0.8868
 1488Sol     MW 8980   1.428   0.568   4.771  0.1350 -0.2553  0.2989
 1489Sol     OW 8981   1.135   0.594   3.240 -0.2154  0.3761  0.0728
 1489Sol     HW 8982   1.163   0.592   3.332  1.2478 -1.4624 -0.3891
 1489Sol     HW 8983   1.214   0.616   3.191 -0.1533 -2.0956 -1.0166
 1489Sol     MW 8984   1.144   0.595   3.244  1.1249  0.2987 -0.3098
 1490Sol     OW 8985   1.624   0.675   9.004  0.0278 -0.1262  0.3889
 1490Sol     HW 8986   1.684   0.744   8.978 -0.8055  0.9478  1.2635
 1490Sol     HW 8987   1.575   0.712   9.078 -0.6911 -1.5065  0.6241
 1490Sol     MW 8988   1.625   0.684   9.008  0.5684  0.0314  0.3626
 1491Sol     OW 8989   0.418   0.889   5.805 -0.9638  0.3328  0.1061
 1491Sol     HW 8990   0.330   0.869   5.836 -1.5911 -0.6073 -2.2351
 1491Sol     HW 8991   0.439   0.973   5.845 -2.6364  0.2311  1.2420
 1491Sol     MW 8992   0.412   0.895   5.812 -0.2137 -0.0187  0.1609
 1492Sol     OW 8993   1.756   2.104   3.313  0.2449 -0.1101 -0.0520
 1492Sol     HW 8994   1.710   2.042   3.371 -2.4032  1.1636 -0.7194
 1492Sol     HW 8995   1.800   2.164   3.373 -2.2253  1.0082  0.6938
 1492Sol     MW 8996   1.756   2.104   3.324 -0.0984 -0.2489  0.3140
 1493Sol     OW 8997   2.207   0.368   6.249 -1.0198 -0.0041 -0.0306
 1493Sol     HW 8998   2.212   0.280   6.214 -2.8083  0.0207 -0.3970
 1493Sol     HW 8999   2.127   0.405   6.211 -1.0041  1.3118  1.1647
 1493Sol     MW 9000   2.201   0.364   6.242  0.2683 -0.1165  0.0361
 1494Sol     OW 9001   1.245   2.478   6.853  0.2691 -0.6256  0.2266
 1494Sol     HW 9002   1.259   2.401   6.909 -0.9991 -1.1660 -0.1877
 1494Sol     HW 9003   1.294   2.458   6.773  0.7351 -0.5668  0.4907
 1494Sol     MW 9004   1.251   2.469   6.851  0.4315  0.0517 -0.0913
 1495Sol     OW 9005   0.319   2.528   5.107 -0.2819  0.4847  0.2004
 1495Sol     HW 9006   0.363   2.603   5.065  0.2481 -0.6852 -1.3935
 1495Sol     HW 9007   0.340   2.537   5.200  1.0934  1.4457 -0.1862
 1495Sol     MW 9008   0.325   2.536   5.111  0.2270  0.4205  0.1830
 1496Sol     OW 9009   0.449   1.381   8.977 -0.2147  0.4348  0.1737
 1496Sol     HW 9010   0.496   1.307   9.017  0.2351  0.5296 -0.1755
 1496Sol     HW 9011   0.495   1.459   9.010 -1.3323  0.6070  1.3712
 1496Sol     MW 9012   0.457   1.381   8.984 -0.3974  0.3194 -0.8983
 1497Sol     OW 9013   0.133   2.301   6.369 -0.3008  0.1762  0.1195
 1497Sol     HW 9014   0.045   2.269   6.346  0.5268 -2.0199 -0.1348
 1497Sol     HW 9015   0.182   2.296   6.287  0.3904  0.2437  0.5292
 1497Sol     MW 9016   0.129   2.298   6.359  0.2398 -0.0013  0.1917
 1498Sol     OW 9017   1.546   2.499   2.600  0.4633 -0.4769  0.6899
 1498Sol     HW 9018   1.585   2.450   2.528  0.7219 -0.8610  1.0880
 1498Sol     HW 9019   1.560   2.444   2.677 -0.5761 -0.4759  0.8930
 1498Sol     MW 9020   1.551   2.490   2.601  0.0647  0.5866 -0.3157
 1499Sol     OW 9021   2.131   2.057   9.408 -0.0087  0.3468 -0.1961
 1499Sol     HW 9022   2.164   2.100   9.488  1.1160 -1.6216  0.4482
 1499Sol     HW 9023   2.040   2.035   9.429  0.2371 -0.0378  0.5165
 1499Sol     MW 9024   2.126   2.059   9.417 -0.5080  0.1932 -0.4865
 1500Sol     OW 9025   0.225   1.658   8.867  0.2842  0.1549  0.0469
 1500Sol     HW 9026   0.147   1.714   8.861 -0.9351 -1.6007 -1.2716
 1500Sol     HW 9027   0.194   1.579   8.913  2.0451  0.6549  2.1694
 1500Sol     MW 9028   0.215   1.656   8.870  0.2760  0.1089 -0.3024
 1501Sol     OW 9029   1.004   0.046   5.447  0.4134  0.4425  0.9653
 1501Sol     HW 9030   1.064  -0.020   5.412  0.7222  0.6280  1.1379
 1501Sol     HW 9031   1.003   0.115   5.380  0.4412  0.4686  0.9920
 1501Sol     MW 9032   1.009   0.046   5.437  0.7852 -0.0258  0.0033
 1502Sol     OW 9033   3.080   1.750   2.819  0.0736  0.1350  0.2456
 1502Sol     HW 9034   3.014   1.682   2.833 -0.4288  0.5554 -0.0676
 1502Sol     HW 9035   3.066   1.811   2.892  0.3560  0.0413  0.3813
 1502Sol     MW 9036   3.073   1.749   2.827 -1.1106 -0.2617 -0.1924
 1503Sol     OW 9037   1.805   0.178   5.379  0.6112  0.1832 -0.1773
 1503Sol     HW 9038   1.826   0.113   5.312 -0.7565 -0.3948 -0.0538
 1503Sol     HW 9039   1.826   0.262   5.339 -2.6894  0.0454 -2.3232
 1503Sol     MW 9040   1.809   0.180   5.370  0.9020  0.0545  0.0109
 1504Sol     OW 9041   1.176   1.168   4.730 -1.3261  0.1783  0.2578
 1504Sol     HW 9042   1.186   1.241   4.669 -0.0010 -0.2350 -0.0368
 1504Sol     HW 9043   1.217   1.198   4.811 -0.4686 -0.3446  0.0315
 1504Sol     MW 9044   1.181   1.177   4.732  0.0194  0.5839  0.0212
 1505Sol     OW 9045   1.206   2.633   6.147  0.0107  0.0785 -0.5128
 1505Sol     HW 9046   1.213   2.614   6.053 -0.5894  3.2105 -1.2627
 1505Sol     HW 9047   1.273   2.700   6.162 -0.2053 -0.0749  1.2129
 1505Sol     MW 9048   1.213   2.637   6.140  0.1429 -0.3186  0.3092
 1506Sol     OW 9049   3.312   2.072   4.415 -0.4028  0.3290  0.4361
 1506Sol     HW 9050   3.324   2.079   4.510  1.0021 -0.1876  0.3083
 1506Sol     HW 9051   3.225   2.108   4.399 -0.9582 -0.2581  2.0179
 1506Sol     MW 9052   3.305   2.076   4.423  0.1136 -0.3948  0.5577
 1507Sol     OW 9053   0.941   1.022   6.528 -0.0314  0.2833 -0.1909
 1507Sol     HW 9054   0.891   1.095   6.491  1.5629  1.5357  0.0900
 1507Sol     HW 9055   0.949   0.960   6.455 -0.8539  0.6610 -0.6135
 1507Sol     MW 9056   0.937   1.023   6.518 -0.8084  0.5382  0.4001
 1508Sol     OW 9057   1.956   0.551   7.805 -0.1977  0.0063  0.4590
 1508Sol     HW 9058   1.872   0.559   7.759 -0.1134 -0.1013  0.2850
 1508Sol     HW 9059   2.016   0.605   7.754  0.1168 -0.8544 -0.0989
 1508Sol     MW 9060   1.953   0.556   7.796 -0.1822 -0.1715  0.2793
 1509Sol     OW 9061   2.820   0.195   1.971  0.1529 -0.0522 -0.3018
 1509Sol     HW 9062   2.830   0.282   1.932 -1.4972  0.6990  0.9184
 1509Sol     HW 9063   2.728   0.173   1.958  0.1850 -0.9138  0.8581
 1509Sol     MW 9064   2.813   0.201   1.966  0.5343 -0.1614 -0.2065
 1510Sol     OW 9065   3.160   0.490   8.145  0.4826  0.1491 -0.0869
 1510Sol     HW 9066   3.147   0.554   8.075  1.1839  0.9588  0.5124
 1510Sol     HW 9067   3.122   0.532   8.222  0.8493 -0.2081  0.2889
 1510Sol     MW 9068   3.155   0.499   8.146  0.4465  0.4816 -0.3878
 1511Sol     OW 9069   2.679   0.763   6.949 -0.0211  0.4207 -0.8052
 1511Sol     HW 9070   2.763   0.741   6.909 -0.8528 -0.2770 -2.2284
 1511Sol     HW 9071   2.640   0.828   6.890  0.4770  2.4786  1.0348
 1511Sol     MW 9072   2.683   0.767   6.940  0.5898 -0.9285 -0.2499
 1512Sol     OW 9073   2.940   0.317   7.047  0.4872  0.4691  0.3366
 1512Sol     HW 9074   3.015   0.288   7.098  0.9196 -1.1392 -1.1739
 1512Sol     HW 9075   2.929   0.250   6.980 -0.4601  2.2166 -1.3000
 1512Sol     MW 9076   2.945   0.308   7.046  0.1456  0.6037  0.6556
 1513Sol     OW 9077   0.616   0.136   6.707 -0.6746 -0.9047  0.0523
 1513Sol     HW 9078   0.686   0.142   6.641 -0.9105 -0.7585 -0.1861
 1513Sol     HW 9079   0.609   0.042   6.726  2.5593 -0.6130  3.2903
 1513Sol     MW 9080   0.622   0.128   6.703 -0.5312 -0.0313 -0.1648
 1514Sol     OW 9081   1.930   2.728   8.976  0.3611 -0.1550  0.1204
 1514Sol     HW 9082   1.950   2.671   9.050 -1.7798 -0.4939  0.4823
 1514Sol     HW 9083   1.870   2.794   9.011 -2.3242 -1.5108 -1.7118
 1514Sol     MW 9084   1.926   2.729   8.985  0.0511  0.3779  0.4215
 1515Sol     OW 9085   1.083   0.472   7.958 -0.1271  0.5114 -0.1930
 1515Sol     HW 9086   1.035   0.452   7.877  2.6821  0.0889 -1.8092
 1515Sol     HW 9087   1.146   0.402   7.966 -0.2884  0.6180  2.3628
 1515Sol     MW 9088   1.084   0.464   7.951  0.1464  0.1437  0.2471
 1516Sol     OW 9089   3.209   0.330   7.526  0.1041 -0.2165  0.0978
 1516Sol     HW 9090   3.295   0.288   7.526 -0.3270 -1.1143  0.7948
 1516Sol     HW 9091   3.216   0.397   7.593  0.1435 -0.5351  0.4146
 1516Sol     MW 9092   3.217   0.332   7.532 -0.0554 -0.2371 -0.7168
 1517Sol     OW 9093   0.534   0.102   7.145  0.7409 -0.6281 -0.0453
 1517Sol     HW 9094   0.619   0.109   7.189  0.1805 -1.9296  1.2670
 1517Sol     HW 9095   0.470   0.103   7.216 -0.3768  0.5864 -1.0411
 1517Sol     MW 9096   0.536   0.103   7.155 -0.2803  0.2385  0.3738
 1518Sol     OW 9097   1.893   1.369   5.902  0.0820 -0.6079  0.1112
 1518Sol     HW 9098   1.975   1.365   5.853 -0.0905 -0.8452 -0.1620
 1518Sol     HW 9099   1.918   1.392   5.991  0.2021  2.3798 -0.6480
 1518Sol     MW 9100   1.902   1.371   5.906  0.2088 -0.0221 -0.1798
 1519Sol     OW 9101   0.404   1.673   5.157 -0.3637  0.3577  0.3771
 1519Sol     HW 9102   0.385   1.579   5.155  0.3190  0.1071  3.1604
 1519Sol     HW 9103   0.489   1.682   5.115 -0.0091 -0.3907  0.9286
 1519Sol     MW 9104   0.410   1.665   5.153  0.8060  0.0416  0.4758
 1520Sol     OW 9105   2.418   2.389   6.379 -0.1675  0.1053 -0.4972
 1520Sol     HW 9106   2.413   2.301   6.417 -0.9806  0.3496 -0.0403
 1520Sol     HW 9107   2.368   2.383   6.298 -1.2819  0.4734  0.1571
 1520Sol     MW 9108   2.413   2.381   6.375 -0.1135  0.3575 -0.1933
 1521Sol     OW 9109   0.178   0.396   5.220  0.4182 -0.0613  0.4320
 1521Sol     HW 9110   0.171   0.464   5.153 -0.1053 -0.4879  0.0479
 1521Sol     HW 9111   0.218   0.322   5.174  0.0755 -0.3493  0.5969
 1521Sol     MW 9112   0.181   0.395   5.210 -0.1561 -0.7522 -0.4375
 1522Sol     OW 9113   0.560   2.635   9.635 -0.1900  0.3156 -0.5591
 1522Sol     HW 9114   0.595   2.723   9.642 -1.9780  1.0396 -0.4028
 1522Sol     HW 9115   0.614   2.592   9.569  0.9873  1.3683 -0.2995
 1522Sol     MW 9116   0.568   2.639   9.630  0.9588  0.2760 -0.2194
 1523Sol     OW 9117   1.515   1.171   5.123 -0.7994  0.0594  0.3551
 1523Sol     HW 9118   1.568   1.150   5.201 -0.5329 -2.6850 -0.5135
 1523Sol     HW 9119   1.580   1.189   5.055 -0.9613 -2.2620 -0.4375
 1523Sol     MW 9120   1.526   1.171   5.124 -0.5440 -0.8111 -0.1282
 1524Sol     OW 9121   0.267   2.114   6.710  0.3887  0.8445 -0.4917
 1524Sol     HW 9122   0.204   2.186   6.705  1.6101  1.8711 -1.1269
 1524Sol     HW 9123   0.283   2.089   6.619 -2.0557 -2.0550 -0.2284
 1524Sol     MW 9124   0.262   2.118   6.701 -0.5560  0.5625  0.8428
 1525Sol     OW 9125   3.253   2.585   2.148 -0.5890 -0.3443 -0.1735
 1525Sol     HW 9126   3.189   2.549   2.087 -1.0530  0.0365  0.0927
 1525Sol     HW 9127   3.209   2.658   2.190  0.6121  1.0812 -1.3058
 1525Sol     MW 9128   3.244   2.589   2.146 -0.1587 -0.4026 -0.5318
 1526Sol     OW 9129   3.252   1.779   5.632  0.0936  0.4536 -0.5044
 1526Sol     HW 9130   3.312   1.704   5.637 -1.3365 -0.5872  2.0216
 1526Sol     HW 9131   3.300   1.851   5.671  0.3695  0.0920 -0.1792
 1526Sol     MW 9132   3.261   1.779   5.636 -0.8047 -0.4242  0.1698
 1527Sol     OW 9133   2.006   0.561   1.631 -0.3063  0.3667  0.1639
 1527Sol     HW 9134   2.032   0.481   1.675 -2.0988 -0.5133 -0.3279
 1527Sol     HW 9135   2.013   0.629   1.697 -0.3398 -0.4849  1.0475
 1527Sol     MW 9136   2.009   0.560   1.641  0.4223  0.6746 -0.4158
 1528Sol     OW 9137   2.775   1.071   2.223  0.6866 -0.2552  0.4088
 1528Sol     HW 9138   2.719   1.106   2.154  1.7418 -0.8362 -0.7495
 1528Sol     HW 9139   2.808   1.149   2.268  1.9063  0.2269 -1.2719
 1528Sol     MW 9140   2.773   1.081   2.221 -0.0947  0.4363 -0.5405
 1529Sol     OW 9141   2.347   2.151  10.036 -0.3510 -0.6089 -0.4960
 1529Sol     HW 9142   2.368   2.061  10.013  0.1168 -0.1394 -1.9176
 1529Sol     HW 9143   2.270   2.144  10.092  0.8823 -2.0328  1.0844
 1529Sol     MW 9144   2.342   2.143  10.039 -0.2674  0.0361 -0.7712
 1530Sol     OW 9145   0.639   0.768   1.756 -0.7226 -0.1381  0.2932
 1530Sol     HW 9146   0.696   0.845   1.765 -2.9600  1.4904  1.2432
 1530Sol     HW 9147   0.677   0.703   1.815  0.5064  0.6803  0.4305
 1530Sol     MW 9148   0.648   0.769   1.762  0.4404  0.0218  0.3713
 1531Sol     OW 9149   2.785   1.993   1.843  0.6799  0.0132 -0.4736
 1531Sol     HW 9150   2.881   1.998   1.845  0.7103  0.5734  5.0900
 1531Sol     HW 9151   2.757   2.083   1.832  0.8116  0.0308 -0.6645
 1531Sol     MW 9152   2.791   2.001   1.843 -0.1060 -0.8791 -0.4100
 1532Sol     OW 9153   2.892   1.129   7.550  0.1291  0.4731 -0.3642
 1532Sol     HW 9154   2.875   1.157   7.640 -0.3055 -2.3169  0.4773
 1532Sol     HW 9155   2.988   1.124   7.544  0.2102  1.9668 -0.5060
 1532Sol     MW 9156   2.899   1.131   7.557 -0.0273 -0.8641  0.5390
 1533Sol     OW 9157   1.077   1.664   3.538 -0.2151  0.3167  0.6153
 1533Sol     HW 9158   0.985   1.672   3.564 -0.3167 -0.4877  0.5112
 1533Sol     HW 9159   1.107   1.583   3.581 -0.1574 -0.6037 -1.1325
 1533Sol     MW 9160   1.071   1.657   3.545 -0.1565  0.4469  0.0249
 1534Sol     OW 9161   1.696   2.541   9.403 -0.5598 -0.2180  0.4432
 1534Sol     HW 9162   1.609   2.511   9.431  0.0415 -2.0705  0.4364
 1534Sol     HW 9163   1.756   2.497   9.464  0.2977  2.5283  1.6608
 1534Sol     MW 9164   1.694   2.534   9.411  0.2491 -0.2028 -0.0308
 1535Sol     OW 9165   0.072   1.418   5.060 -0.8084  0.5429 -0.2489
 1535Sol     HW 9166   0.139   1.425   4.992  0.0075  0.9780  0.5980
 1535Sol     HW 9167   0.017   1.495   5.048  0.4744  1.6511  0.7921
 1535Sol     MW 9168   0.073   1.425   5.053 -0.2452 -0.1573 -0.2272
 1536Sol     OW 9169   0.014   2.423   2.573  0.4220 -0.2796 -0.3529
 1536Sol     HW 9170  -0.066   2.424   2.520 -0.5548  0.6179  1.1153
 1536Sol     HW 9171   0.023   2.332   2.601 -1.5499  0.0896  1.6287
 1536Sol     MW 9172   0.008   2.415   2.570  0.4721  0.4012  0.2004
 1537Sol     OW 9173   0.068   0.545   5.002 -0.2637 -0.4519  0.0002
 1537Sol     HW 9174   0.010   0.470   4.982 -0.5973 -0.3921  0.7368
 1537Sol     HW 9175   0.012   0.621   4.991 -0.0952 -0.3453 -0.1138
 1537Sol     MW 9176   0.057   0.545   4.999 -0.1968 -0.7350 -0.4737
 1538Sol     OW 9177   2.639   3.290   8.070  0.2578 -0.5595  0.2451
 1538Sol     HW 9178   2.663   3.381   8.090 -0.4622 -0.3770  0.3216
 1538Sol     HW 9179   2.614   3.253   8.155  1.9989 -1.2816  0.4445
 1538Sol     MW 9180   2.639   3.295   8.079 -0.5039 -0.1316  0.5716
 1539Sol     OW 9181   1.052   0.930   8.173 -0.2089  0.1796 -0.4617
 1539Sol     HW 9182   1.083   1.016   8.144  3.2134 -0.3518  1.3865
 1539Sol     HW 9183   1.063   0.873   8.097 -0.0341  0.8216 -0.9132
 1539Sol     MW 9184   1.056   0.932   8.164  0.0872 -0.0474 -0.1327
 1540Sol     OW 9185   2.270   2.011   1.891  0.0998  0.6237 -0.7692
 1540Sol     HW 9186   2.357   1.977   1.913  1.0194  2.3073 -1.7360
 1540Sol     HW 9187   2.234   1.946   1.830  0.4977 -0.2967 -0.0368
 1540Sol     MW 9188   2.275   2.002   1.887  0.5822 -0.1932 -0.0033
 1541Sol     OW 9189   0.094   0.398   8.083  0.1074 -0.0873 -0.1640
 1541Sol     HW 9190   0.014   0.438   8.119  0.6233  1.2015 -0.4380
 1541Sol     HW 9191   0.064   0.351   8.006 -0.3349  0.7403 -0.5101
 1541Sol     MW 9192   0.084   0.398   8.080  0.3746  0.4981 -0.0748
 1542Sol     OW 9193   1.766   2.210   5.868  0.2560 -0.1528  0.4040
 1542Sol     HW 9194   1.828   2.160   5.922  0.5440 -0.3016 -0.0560
 1542Sol     HW 9195   1.803   2.205   5.780 -0.8134 -0.8780 -0.0084
 1542Sol     MW 9196   1.775   2.205   5.865 -0.6462  0.0229  0.0445
 1543Sol     OW 9197   2.931   1.046   1.725 -0.2626  0.9912 -0.5056
 1543Sol     HW 9198   2.860   1.010   1.778  1.1411 -0.7986  0.1868
 1543Sol     HW 9199   2.989   1.089   1.788  2.7192 -3.2603 -0.1306
 1543Sol     MW 9200   2.930   1.047   1.736 -0.5325 -0.5708  0.2758
 1544Sol     OW 9201   1.908   1.976   8.202  0.0053  0.0232 -0.0630
 1544Sol     HW 9202   1.906   2.025   8.119  1.1587  0.8770  0.3939
 1544Sol     HW 9203   1.981   2.015   8.251 -0.7445 -0.3818  1.4124
 1544Sol     MW 9204   1.914   1.984   8.199 -0.0254 -0.6895 -0.1196
 1545Sol     OW 9205   0.354   1.084   5.297  0.6324 -0.0175  0.3479
 1545Sol     HW 9206   0.325   1.055   5.383  1.3252  1.1511  0.9899
 1545Sol     HW 9207   0.448   1.102   5.307  0.6368  0.5163 -0.5353
 1545Sol     MW 9208   0.360   1.083   5.305  0.0707 -0.1471 -0.5167
 1546Sol     OW 9209   1.243   3.354   8.483 -0.1252  0.0773 -0.3488
 1546Sol     HW 9210   1.253   3.295   8.557 -0.3416 -0.6580 -0.9037
 1546Sol     HW 9211   1.155   3.389   8.492 -0.1842 -0.0816 -0.3109
 1546Sol     MW 9212   1.236   3.352   8.491 -0.0596 -0.5464  0.1929
 1547Sol     OW 9213   2.862   1.994   4.351  0.6873 -0.1422 -0.5947
 1547Sol     HW 9214   2.809   2.045   4.289 -1.3481 -0.5778  0.7299
 1547Sol     HW 9215   2.853   1.904   4.321 -0.7494 -0.4190  0.6322
 1547Sol     MW 9216   2.856   1.990   4.342  0.0352  0.0016 -0.0560
 1548Sol     OW 9217   1.667   1.131   5.340 -0.3074  0.2072 -0.0462
 1548Sol     HW 9218   1.748   1.089   5.369 -0.7852  0.1106  1.1823
 1548Sol     HW 9219   1.663   1.212   5.390  0.3856  1.5417 -2.0798
 1548Sol     MW 9220   1.674   1.134   5.347 -0.6489  0.1241 -0.5806
 1549Sol     OW 9221   3.309   0.220   9.188  0.2042 -0.4240 -0.0776
 1549Sol     HW 9222   3.357   0.232   9.106  0.2435 -1.1019 -0.1552
 1549Sol     HW 9223   3.218   0.242   9.166  0.6182  1.8002  0.3011
 1549Sol     MW 9224   3.305   0.223   9.178 -0.4824  0.4498  0.2766
 1550Sol     OW 9225   0.799   2.296   2.199  0.1384  0.6041  0.0677
 1550Sol     HW 9226   0.892   2.277   2.207  0.5602  2.2945 -0.5625
 1550Sol     HW 9227   0.762   2.275   2.285  1.1012 -0.0043  0.3345
 1550Sol     MW 9228   0.804   2.293   2.207  0.0772 -0.1930  0.5997
 1551Sol     OW 9229   0.473   0.240   8.864 -0.3777 -0.3757 -0.0353
 1551Sol     HW 9230   0.479   0.252   8.959  0.5545 -0.1614 -0.1211
 1551Sol     HW 9231   0.393   0.286   8.839  1.9201  3.8063 -0.0550
 1551Sol     MW 9232   0.466   0.245   8.871  0.1906  0.6456  0.0302
 1552Sol     OW 9233   1.297   0.576   5.986  1.0995 -0.2182 -0.3724
 1552Sol     HW 9234   1.376   0.622   5.959  1.5805 -1.3024 -0.8315
 1552Sol     HW 9235   1.228   0.642   5.981  2.2239  1.1291  1.4886
 1552Sol     MW 9236   1.298   0.586   5.983  0.7359  0.0131 -0.1623
 1553Sol     OW 9237   2.997   3.386   7.281 -0.4536 -0.4398  1.0261
 1553Sol     HW 9238   3.085   3.374   7.245 -0.6382 -1.0942  0.7866
 1553Sol     HW 9239   2.943   3.322   7.234 -0.8622 -0.7294  1.8864
 1553Sol     MW 9240   3.000   3.379   7.274 -0.3925  0.1356  0.0858
 1554Sol     OW 9241   0.468   2.267   8.292  0.6373  0.4141  0.1540
 1554Sol     HW 9242   0.411   2.201   8.254  1.7404  0.3095 -1.3311
 1554Sol     HW 9243   0.540   2.276   8.230  3.1214 -0.6398  2.7448
 1554Sol     MW 9244   0.469   2.262   8.283  0.2285 -0.3283 -0.6913
 1555Sol     OW 9245   0.773   1.646   6.085  0.0463  0.3638 -0.1810
 1555Sol     HW 9246   0.761   1.563   6.131  0.5319  0.3716 -0.0353
 1555Sol     HW 9247   0.846   1.629   6.025 -0.8589  0.2277 -1.2491
 1555Sol     MW 9248   0.779   1.637   6.084 -0.5792 -0.4604  0.3840
 1556Sol     OW 9249   0.621   2.503   6.257 -0.2163  0.0681  0.1714
 1556Sol     HW 9250   0.565   2.482   6.332  0.3028  1.3531  0.9485
 1556Sol     HW 9251   0.699   2.543   6.297 -0.0461  0.9991 -1.0747
 1556Sol     MW 9252   0.623   2.504   6.268 -0.8551 -0.0982 -0.0041
 1557Sol     OW 9253   3.029   0.129   2.978 -0.3526 -0.2894  0.1402
 1557Sol     HW 9254   3.081   0.143   2.898 -0.1666 -2.4121 -0.1351
 1557Sol     HW 9255   2.988   0.214   2.995  2.8138  1.3617  0.0883
 1557Sol     MW 9256   3.030   0.138   2.972  0.3379  0.0414 -0.3874
 1558Sol     OW 9257   2.659   2.456   1.696 -0.4137  0.5829  0.2261
 1558Sol     HW 9258   2.637   2.418   1.611 -1.7665  0.4552  0.6275
 1558Sol     HW 9259   2.716   2.530   1.675  0.2326 -0.1667 -0.7037
 1558Sol     MW 9260   2.662   2.459   1.687 -0.1914 -0.6837 -0.2891
 1559Sol     OW 9261   0.242   2.453   5.647  0.3734  0.0656  0.4992
 1559Sol     HW 9262   0.205   2.366   5.662  1.0153 -0.6934 -2.0053
 1559Sol     HW 9263   0.336   2.441   5.657  0.6180  0.0375 -1.5741
 1559Sol     MW 9264   0.247   2.444   5.649  0.2695 -0.8803  0.2387
 1560Sol     OW 9265   1.020   0.558   6.767  0.3460 -0.1517  0.3279
 1560Sol     HW 9266   1.042   0.620   6.697 -0.7431  1.3201  1.2497
 1560Sol     HW 9267   1.091   0.494   6.765  1.6816  1.2932 -0.4664
 1560Sol     MW 9268   1.029   0.558   6.761 -0.2493  0.4155 -0.1449
 1561Sol     OW 9269   2.598   3.315   1.926 -0.1314 -0.5987  0.3339
 1561Sol     HW 9270   2.685   3.327   1.889 -0.2760  1.3168  0.5844
 1561Sol     HW 9271   2.541   3.308   1.849 -0.0009 -0.0315  0.1882
 1561Sol     MW 9272   2.601   3.315   1.915  0.2083  0.8385  0.8579
 1562Sol     OW 9273   1.842   1.725   9.808 -0.0947  0.1191  0.3856
 1562Sol     HW 9274   1.762   1.707   9.857 -0.7331  0.5762 -0.4946
 1562Sol     HW 9275   1.834   1.816   9.780 -0.1625 -0.4133 -1.3725
 1562Sol     MW 9276   1.834   1.732   9.810  0.1013  0.2537 -0.4192
 1563Sol     OW 9277   3.095   0.681   3.626 -0.1959  0.6282  0.2137
 1563Sol     HW 9278   3.134   0.752   3.575 -1.2590  1.0489 -0.0232
 1563Sol     HW 9279   3.035   0.725   3.686  0.5621  0.0867  1.3990
 1563Sol     MW 9280   3.093   0.691   3.627  0.1639 -0.4223 -0.5385
 1564Sol     OW 9281   2.807   3.042   1.764  0.5104  0.4325 -0.1117
 1564Sol     HW 9282   2.864   3.017   1.836  1.6095  0.7836 -0.8520
 1564Sol     HW 9283   2.803   3.138   1.769  2.5858  0.6612 -1.9847
 1564Sol     MW 9284   2.812   3.049   1.771 -0.0838 -0.3684  0.1544
 1565Sol     OW 9285   1.324   2.853   3.851 -0.1002 -0.4090 -0.9324
 1565Sol     HW 9286   1.233   2.877   3.863  0.5199  1.5925 -0.0316
 1565Sol     HW 9287   1.372   2.936   3.858  1.6937 -1.2859 -2.3559
 1565Sol     MW 9288   1.320   2.863   3.853 -0.4422  0.6878  0.5131
 1566Sol     OW 9289   2.491   2.625   3.481  0.1020  0.1071 -0.1192
 1566Sol     HW 9290   2.533   2.565   3.542  0.0005 -0.7734 -0.9003
 1566Sol     HW 9291   2.491   2.709   3.526 -0.6826 -0.6939  1.4114
 1566Sol     MW 9292   2.495   2.627   3.491  0.5284  0.4301  0.1148
 1567Sol     OW 9293   1.699   1.862   1.840  0.3275 -0.6149  0.2072
 1567Sol     HW 9294   1.738   1.928   1.783  0.4622 -0.2338  0.7337
 1567Sol     HW 9295   1.613   1.897   1.862  0.6664 -0.2947  1.0337
 1567Sol     MW 9296   1.694   1.871   1.837 -0.0566  0.0932 -0.3531
 1568Sol     OW 9297   1.788   2.787   9.357 -0.0512  0.9653  0.1240
 1568Sol     HW 9298   1.748   2.701   9.369 -0.2067  0.7021 -2.0237
 1568Sol     HW 9299   1.874   2.768   9.319  0.0989  1.7413  0.0698
 1568Sol     MW 9300   1.792   2.778   9.354 -0.1642 -0.1882 -0.1450
 1569Sol     OW 9301   2.634   1.742   6.027 -0.0753 -0.6799  0.1593
 1569Sol     HW 9302   2.589   1.675   5.974  1.9748 -0.8139 -1.5001
 1569Sol     HW 9303   2.638   1.818   5.970  1.1784 -0.4586  0.5255
 1569Sol     MW 9304   2.631   1.742   6.017 -0.5872  0.4053 -0.0403
 1570Sol     OW 9305   2.119   0.938   2.635  0.0410  0.3553 -0.3169
 1570Sol     HW 9306   2.028   0.930   2.665 -0.5961  0.4738 -2.1527
 1570Sol     HW 9307   2.169   0.958   2.714 -1.3809 -0.7074  0.8854
 1570Sol     MW 9308   2.115   0.939   2.645  0.3476  0.0631  0.2762
 1571Sol     OW 9309   0.086   0.919   6.227  0.0042 -0.4179 -0.8039
 1571Sol     HW 9310  -0.006   0.943   6.241  0.5248  1.5081 -0.4460
 1571Sol     HW 9311   0.083   0.838   6.177 -1.9044  0.5227 -2.2844
 1571Sol     MW 9312   0.078   0.914   6.224  0.3173  0.3119  0.1442
 1572Sol     OW 9313   1.333   2.786   9.044 -0.3076 -0.0302  0.7790
 1572Sol     HW 9314   1.406   2.726   9.028 -0.4173 -0.1574  0.7531
 1572Sol     HW 9315   1.257   2.741   9.006 -0.4994 -0.1650  1.3168
 1572Sol     MW 9316   1.333   2.776   9.039  0.6875  0.1943 -0.5178
 1573Sol     OW 9317   0.741   1.720   8.858  0.0486 -0.3443 -0.4528
 1573Sol     HW 9318   0.826   1.764   8.862 -0.5161  0.6689  0.5561
 1573Sol     HW 9319   0.682   1.785   8.822 -1.4311  0.8343  3.7582
 1573Sol     MW 9320   0.744   1.730   8.856 -0.3180 -0.2359  0.3146
 1574Sol     OW 9321   3.281   1.755   1.522  0.1248 -0.4632 -0.0722
 1574Sol     HW 9322   3.266   1.669   1.483  1.1093 -0.3699 -0.6446
 1574Sol     HW 9323   3.372   1.776   1.502  0.3688  0.0123  1.4308
 1574Sol     MW 9324   3.288   1.749   1.517 -0.3077 -0.2549 -0.1756
 1575Sol     OW 9325   0.681   1.248   1.389  0.3550 -0.4108  0.6097
 1575Sol     HW 9326   0.728   1.297   1.321 -0.5660 -0.4090 -0.0302
 1575Sol     HW 9327   0.749   1.224   1.452  0.9008  1.3408  0.7233
 1575Sol     MW 9328   0.691   1.251   1.388 -0.3820 -0.7137  0.1757
 1576Sol     OW 9329   1.256   3.121   5.887  0.0944 -0.4903  0.3786
 1576Sol     HW 9330   1.313   3.178   5.939 -0.4930 -0.6441  1.1955
 1576Sol     HW 9331   1.169   3.159   5.896 -0.0580 -0.6785 -0.2708
 1576Sol     MW 9332   1.253   3.130   5.893  0.0702  0.3596  0.3409
 1577Sol     OW 9333   1.344   1.267   9.720  0.1013  0.1671 -0.0974
 1577Sol     HW 9334   1.270   1.256   9.781 -1.2497  1.4600 -1.4767
 1577Sol     HW 9335   1.421   1.256   9.775 -1.1066 -0.0021  1.6164
 1577Sol     MW 9336   1.344   1.265   9.731 -0.6595  0.3318  0.2072
 1578Sol     OW 9337   1.776   1.147   2.188  0.4589 -0.2209 -0.3762
 1578Sol     HW 9338   1.814   1.180   2.107  0.1321  0.8836 -0.0921
 1578Sol     HW 9339   1.701   1.204   2.204 -1.6752 -2.7336 -1.2097
 1578Sol     MW 9340   1.773   1.155   2.182  0.4996  0.2378 -0.0218
 1579Sol     OW 9341   0.248   2.611   5.858  0.5506 -0.0222  0.0602
 1579Sol     HW 9342   0.332   2.657   5.854 -0.2542  1.4171 -1.1106
 1579Sol     HW 9343   0.247   2.556   5.779  0.2195  0.2915 -0.1560
 1579Sol     MW 9344   0.255   2.610   5.850  0.1422  0.1433  0.0749
 1580Sol     OW 9345   2.246   0.538   4.214  0.1809 -0.1871  0.2656
 1580Sol     HW 9346   2.338   0.514   4.201 -0.0474 -0.6748 -0.4437
 1580Sol     HW 9347   2.249   0.610   4.278  1.0150 -0.5893  0.6837
 1580Sol     MW 9348   2.254   0.543   4.219 -0.3540 -0.4997  0.4094
 1581Sol     OW 9349   2.590   3.152   4.036  0.5968  0.0614  0.0263
 1581Sol     HW 9350   2.498   3.127   4.038  0.4821  0.2210 -2.1760
 1581Sol     HW 9351   2.590   3.248   4.038  0.7111  0.0649 -0.1057
 1581Sol     MW 9352   2.582   3.158   4.037  0.3082  0.4076  0.5541
 1582Sol     OW 9353   1.288   1.488   3.092  1.1775 -0.1646  0.2887
 1582Sol     HW 9354   1.246   1.541   3.160 -1.1634  0.7932 -1.8332
 1582Sol     HW 9355   1.230   1.413   3.079  3.0225 -1.7944  1.2527
 1582Sol     MW 9356   1.279   1.486   3.097 -0.0397 -0.2610 -0.0410
 1583Sol     OW 9357   0.753   2.042   3.069 -0.2154  0.0467 -0.7791
 1583Sol     HW 9358   0.667   2.043   3.027 -0.2653  0.0333 -0.6782
 1583Sol     HW 9359   0.754   2.120   3.123  0.1566  0.4839 -1.4140
 1583Sol     MW 9360   0.745   2.049   3.070  0.0142  0.7553 -0.4149
 1584Sol     OW 9361   0.665   2.539   2.080  0.1422  0.3718 -0.0342
 1584Sol     HW 9362   0.636   2.480   2.010 -3.0778  1.9697 -0.1283
 1584Sol     HW 9363   0.736   2.491   2.124  0.3912 -1.7906 -2.6698
 1584Sol     MW 9364   0.669   2.529   2.078  0.8604 -1.0519  0.3725
 1585Sol     OW 9365   1.376   2.409   4.288 -0.2203  0.0393 -0.4053
 1585Sol     HW 9366   1.308   2.347   4.260 -0.8547 -0.0350  1.2937
 1585Sol     HW 9367   1.426   2.361   4.354  0.3065  0.7717 -0.2700
 1585Sol     MW 9368   1.375   2.399   4.291  0.3492 -0.2014 -0.0149
 1586Sol     OW 9369   0.703   1.184   2.437 -0.1579 -0.2793 -0.1919
 1586Sol     HW 9370   0.743   1.257   2.485  0.4396 -0.3325 -0.6075
 1586Sol     HW 9371   0.620   1.168   2.483  1.0628 -1.2851  1.7385
 1586Sol     MW 9372   0.699   1.189   2.446  0.1370 -0.0670 -0.2494
 1587Sol     OW 9373   0.435   1.797   5.614  0.8325 -0.0851 -0.0469
 1587Sol     HW 9374   0.516   1.752   5.636  0.4758  0.0645  1.6665
 1587Sol     HW 9375   0.390   1.738   5.553  0.0960 -2.3800  2.6052
 1587Sol     MW 9376   0.438   1.787   5.611 -0.3272  0.0168  0.0135
 1588Sol     OW 9377   3.056   2.157   9.266 -0.0055  0.4252  0.4683
 1588Sol     HW 9378   3.042   2.207   9.185 -0.3495  3.0266  2.0873
 1588Sol     HW 9379   2.977   2.172   9.317 -0.5927 -2.7414  0.5369
 1588Sol     MW 9380   3.048   2.163   9.263 -0.6090 -0.2277  0.1554
 1589Sol     OW 9381   0.063   1.006   8.167 -0.3013  0.6149  1.1020
 1589Sol     HW 9382   0.099   1.026   8.254 -2.9786  1.4359  2.0870
 1589Sol     HW 9383  -0.010   1.068   8.157 -0.8595 -0.3634 -1.1937
 1589Sol     MW 9384   0.060   1.014   8.174 -0.3955  0.8876  0.1035
 1590Sol     OW 9385   2.473   0.473   7.483  0.0495  0.0112 -0.0923
 1590Sol     HW 9386   2.482   0.545   7.546 -0.6794 -0.3543  0.4306
 1590Sol     HW 9387   2.431   0.403   7.532 -1.4931  0.0896 -1.2568
 1590Sol     MW 9388   2.470   0.473   7.493  0.0323 -0.2603  0.2592
 1591Sol     OW 9389   0.253   1.623   9.201 -0.2403 -0.0424  0.0983
 1591Sol     HW 9390   0.213   1.579   9.126 -0.6655 -1.4361  1.1187
 1591Sol     HW 9391   0.180   1.667   9.244  0.2828  2.2254 -1.2658
 1591Sol     MW 9392   0.243   1.623   9.198 -0.0745 -0.0922 -0.9806
 1592Sol     OW 9393   0.853   0.691   8.864  0.3642 -0.0756 -0.0809
 1592Sol     HW 9394   0.800   0.699   8.785  1.2861  1.6669 -0.5358
 1592Sol     HW 9395   0.932   0.645   8.836  1.2322  1.6019 -0.4666
 1592Sol     MW 9396   0.855   0.688   8.855 -0.7956  0.8442 -0.0486
 1593Sol     OW 9397   1.650   3.029   1.517 -0.3087  0.3090 -0.4066
 1593Sol     HW 9398   1.617   2.992   1.599  0.6509  1.0439  0.3360
 1593Sol     HW 9399   1.572   3.057   1.470 -0.8151  1.2870  0.9664
 1593Sol     MW 9400   1.640   3.028   1.520  0.5199  0.0736  0.3939
 1594Sol     OW 9401   2.285   2.279   2.467 -0.6283 -0.0585  0.1626
 1594Sol     HW 9402   2.332   2.324   2.397 -0.3753  1.0715  1.0498
 1594Sol     HW 9403   2.193   2.281   2.440 -0.5930  0.8208  0.1050
 1594Sol     MW 9404   2.281   2.283   2.459 -0.7239  0.1686  0.4279
 1595Sol     OW 9405   3.151   0.124   6.693 -0.5128 -0.3611 -0.4620
 1595Sol     HW 9406   3.127   0.051   6.751 -0.7516 -0.3185 -0.5082
 1595Sol     HW 9407   3.213   0.176   6.745 -1.4485  0.1992  0.1110
 1595Sol     MW 9408   3.155   0.122   6.703  0.0847  0.5963  0.0876
 1596Sol     OW 9409   3.195   0.575   1.817  0.6937  0.2968  0.4787
 1596Sol     HW 9410   3.285   0.568   1.783  0.3986  1.2791 -0.5210
 1596Sol     HW 9411   3.185   0.668   1.840  0.5311 -0.1477  2.2905
 1596Sol     MW 9412   3.203   0.583   1.816  0.5326 -0.7152 -0.0503
 1597Sol     OW 9413   0.222   1.875   1.427  0.5702 -0.3350  0.2005
 1597Sol     HW 9414   0.163   1.881   1.353  0.9287 -1.3938 -0.1739
 1597Sol     HW 9415   0.285   1.946   1.413  0.7580 -0.6596 -0.6162
 1597Sol     MW 9416   0.223   1.882   1.419  0.2990  0.1789  0.3285
 1598Sol     OW 9417   2.295   1.432   6.098 -0.1023 -0.3150 -0.3771
 1598Sol     HW 9418   2.284   1.344   6.061 -0.8595 -0.8928  1.1687
 1598Sol     HW 9419   2.206   1.468   6.100 -0.0058 -0.1074  0.3983
 1598Sol     MW 9420   2.286   1.427   6.095 -0.4438  0.0856  0.1934
 1599Sol     OW 9421   2.217   2.523   9.580 -0.3844 -0.5462 -0.3622
 1599Sol     HW 9422   2.140   2.566   9.619 -0.9046 -2.8050  1.2148
 1599Sol     HW 9423   2.289   2.545   9.639 -0.0927  0.3826 -1.0530
 1599Sol     MW 9424   2.216   2.529   9.589 -0.0581  0.1185 -0.5560
 1600Sol     OW 9425   1.093   1.034   6.127  0.1692 -0.0412  0.1967
 1600Sol     HW 9426   1.058   0.988   6.203 -0.9055  0.9478  0.3046
 1600Sol     HW 9427   1.067   1.125   6.139  1.8256  0.5198 -0.2761
 1600Sol     MW 9428   1.088   1.038   6.135 -0.2729 -0.1585 -0.0958
 1601Sol     OW 9429   1.493   3.445   1.562  0.0450  0.0899  0.2849
 1601Sol     HW 9430   1.468   3.443   1.655  1.3068 -0.0371  0.6327
 1601Sol     HW 9431   1.568   3.504   1.559  1.8317 -2.1655 -0.2044
 1601Sol     MW 9432   1.497   3.450   1.570  0.1301 -0.7681  0.3482
 1602Sol     OW 9433   1.786   1.610   1.997  0.3442  0.1261  0.0959
 1602Sol     HW 9434   1.790   1.706   1.989 -0.4919  0.1260 -0.3573
 1602Sol     HW 9435   1.854   1.579   1.937 -0.7799  0.3806 -1.3470
 1602Sol     MW 9436   1.792   1.616   1.991 -0.0356 -0.6447 -0.0039
 1603Sol     OW 9437   1.741   0.442   8.683  0.2797  0.1817  0.2072
 1603Sol     HW 9438   1.754   0.447   8.588  0.5223 -0.2073  0.2174
 1603Sol     HW 9439   1.676   0.509   8.702  2.6975  2.5743  0.2419
 1603Sol     MW 9440   1.736   0.448   8.676  0.3382  0.0085 -0.0150
 1604Sol     OW 9441   3.004   3.075   8.962 -0.7065 -0.0034  0.2687
 1604Sol     HW 9442   2.938   3.130   8.920  0.5577  1.4079  0.0915
 1604Sol     HW 9443   3.084   3.127   8.959  0.2266 -1.3522  1.2306
 1604Sol     MW 9444   3.005   3.084   8.958 -0.0346  0.2261 -0.9628
 1605Sol     OW 9445   0.370   2.511   7.227 -0.3494  0.0171  0.4243
 1605Sol     HW 9446   0.316   2.573   7.275 -0.6547  2.1900 -2.6126
 1605Sol     HW 9447   0.435   2.565   7.182  0.0116 -1.9385 -1.4905
 1605Sol     MW 9448   0.371   2.521   7.227 -0.3012  0.4727  0.3913
 1606Sol     OW 9449   0.613   3.355   5.694 -0.3455  0.5835  0.4012
 1606Sol     HW 9450   0.667   3.381   5.620 -0.8740  1.0234  0.1642
 1606Sol     HW 9451   0.562   3.433   5.715 -0.5616  0.3084  0.9083
 1606Sol     MW 9452   0.613   3.364   5.690 -0.6359  0.2863 -0.5171
 1607Sol     OW 9453   0.100   0.375   3.221  0.1099 -0.1892  0.0790
 1607Sol     HW 9454   0.024   0.320   3.207 -0.4889  0.0765  2.2084
 1607Sol     HW 9455   0.155   0.326   3.282  0.7309  0.4759  0.0683
 1607Sol     MW 9456   0.098   0.366   3.225  0.4722 -0.1594 -0.1152
 1608Sol     OW 9457   1.550   0.713   9.469  0.2264 -0.1392 -0.1208
 1608Sol     HW 9458   1.621   0.755   9.518 -0.1486 -0.5837  0.8078
 1608Sol     HW 9459   1.569   0.620   9.474 -0.1677 -0.2285 -0.2878
 1608Sol     MW 9460   1.558   0.709   9.474  0.5436  0.1935 -0.3051
 1609Sol     OW 9461   1.864   3.280   6.717  0.0321 -0.0548 -0.7224
 1609Sol     HW 9462   1.919   3.218   6.670  1.7157  1.8818 -1.3857
 1609Sol     HW 9463   1.784   3.285   6.666  0.1193 -1.2539 -0.9782
 1609Sol     MW 9464   1.862   3.275   6.709 -0.1011 -0.0549 -0.4632
 1610Sol     OW 9465   3.142   1.860   5.999  0.2279 -0.5722  0.2385
 1610Sol     HW 9466   3.136   1.766   6.016 -0.4720 -0.7669 -1.0338
 1610Sol     HW 9467   3.097   1.873   5.915  1.3772  0.7119 -0.2099
 1610Sol     MW 9468   3.138   1.853   5.993  0.5067 -0.9263  0.4552
 1611Sol     OW 9469   2.779   1.819   8.832  0.9064 -0.7305 -0.6647
 1611Sol     HW 9470   2.767   1.763   8.756 -1.6017 -0.5688 -0.4251
 1611Sol     HW 9471   2.692   1.855   8.850  1.8248  0.7017  1.1401
 1611Sol     MW 9472   2.770   1.817   8.827  0.3204 -0.1949  0.0102
 1612Sol     OW 9473   2.117   3.364   7.505 -0.2308 -0.4296  0.3479
 1612Sol     HW 9474   2.115   3.363   7.601 -0.0658 -0.6702  0.3492
 1612Sol     HW 9475   2.202   3.402   7.484 -1.2629  1.9341  0.2967
 1612Sol     MW 9476   2.124   3.367   7.512  0.4395  0.8034 -0.8266
 1613Sol     OW 9477   0.338   0.381   8.653 -0.4205  0.0867  0.1844
 1613Sol     HW 9478   0.322   0.391   8.560  0.9087  1.4228  0.0895
 1613Sol     HW 9479   0.358   0.469   8.684  1.7659 -0.7415  1.2218
 1613Sol     MW 9480   0.338   0.390   8.648  0.1515  0.4095 -0.8290
 1614Sol     OW 9481   2.414   1.842   3.383 -0.2343  0.3764 -0.3256
 1614Sol     HW 9482   2.480   1.895   3.337 -0.9844  0.5516 -1.2116
 1614Sol     HW 9483   2.348   1.823   3.316  0.5571 -2.6092 -0.3177
 1614Sol     MW 9484   2.414   1.845   3.372  0.0422 -0.1692  0.5403
 1615Sol     OW 9485   1.135   1.950   3.588  0.2339  0.2943 -0.4609
 1615Sol     HW 9486   1.129   1.858   3.561 -1.0858  0.7202 -1.6777
 1615Sol     HW 9487   1.123   1.948   3.683  3.0142 -1.0502 -0.0763
 1615Sol     MW 9488   1.133   1.941   3.594 -0.4689 -0.0213  0.5924
 1616Sol     OW 9489   1.872   0.393   5.177  0.4237  0.1991  0.5777
 1616Sol     HW 9490   1.818   0.471   5.167  0.2146 -0.0427 -0.1718
 1616Sol     HW 9491   1.960   0.421   5.154  0.3406  0.2061  0.2683
 1616Sol     MW 9492   1.875   0.402   5.174 -0.6026  0.7862  0.7914
 1617Sol     OW 9493   1.280   3.414   7.798 -0.2980 -0.3563  0.1217
 1617Sol     HW 9494   1.327   3.335   7.824 -1.0361 -0.7421  0.3154
 1617Sol     HW 9495   1.314   3.435   7.711  0.1390 -0.6962  0.2088
 1617Sol     MW 9496   1.287   3.408   7.792  0.4220  0.7855  0.6382
 1618Sol     OW 9497   1.482   2.703   4.622 -0.8808 -0.3992  0.4014
 1618Sol     HW 9498   1.462   2.692   4.529 -0.6958 -2.9535  0.6339
 1618Sol     HW 9499   1.417   2.649   4.667  0.1150 -0.5649  1.6538
 1618Sol     MW 9500   1.474   2.697   4.618  0.0285  0.1954 -0.1243
 1619Sol     OW 9501   0.520   3.013   5.994  0.2220 -0.1287 -0.0980
 1619Sol     HW 9502   0.514   3.065   5.913 -0.1897 -0.5519 -0.3427
 1619Sol     HW 9503   0.614   3.005   6.010  0.3609 -1.3818 -1.4049
 1619Sol     MW 9504   0.528   3.017   5.988 -0.1513  0.2900 -0.1675
 1620Sol     OW 9505   0.658   1.565   9.081 -0.4079 -0.4263 -0.6711
 1620Sol     HW 9506   0.673   1.639   9.140  0.7421  0.1521 -1.6508
 1620Sol     HW 9507   0.674   1.601   8.993 -1.0039 -1.5427 -1.2458
 1620Sol     MW 9508   0.661   1.575   9.078 -0.2193 -0.1533 -0.0671
 1621Sol     OW 9509   0.728   1.991   2.393 -0.3922 -0.1124  0.7278
 1621Sol     HW 9510   0.730   2.085   2.410  1.3297  0.0653 -0.3609
 1621Sol     HW 9511   0.757   1.951   2.475  1.7933  0.4600  0.2613
 1621Sol     MW 9512   0.731   1.996   2.402 -0.3581  0.0475  0.4117
 1622Sol     OW 9513   2.169   0.401   7.646  0.4118  0.5768 -0.2990
 1622Sol     HW 9514   2.147   0.349   7.723  0.9685  1.0895  0.2120
 1622Sol     HW 9515   2.189   0.488   7.681  0.4805  0.8607 -1.0399
 1622Sol     MW 9516   2.169   0.404   7.656 -0.4367  0.0033 -0.3070
 1623Sol     OW 9517   1.761   1.813   3.839  0.4763  0.1607 -0.2917
 1623Sol     HW 9518   1.735   1.887   3.894  2.9977  0.9604 -0.0949
 1623Sol     HW 9519   1.802   1.853   3.762 -1.9979 -0.9745 -2.2892
 1623Sol     MW 9520   1.762   1.823   3.837 -0.3589 -0.3657  0.3166
 1624Sol     OW 9521   2.526   1.419   4.701  0.3680 -0.3698 -0.2035
 1624Sol     HW 9522   2.560   1.445   4.787  0.1860 -0.2191 -0.1780
 1624Sol     HW 9523   2.603   1.422   4.643 -0.0406  2.1591 -0.6321
 1624Sol     MW 9524   2.536   1.421   4.704  0.4868 -0.1654 -0.4611
 1625Sol     OW 9525   2.940   2.026   8.775  0.0070  0.1087  0.1592
 1625Sol     HW 9526   2.892   1.947   8.800 -0.3676 -0.0870 -1.1333
 1625Sol     HW 9527   2.884   2.068   8.710 -0.2488  1.9384  1.5067
 1625Sol     MW 9528   2.930   2.023   8.772  0.3146  0.1883 -0.0159
 1626Sol     OW 9529   2.419   2.103   6.454 -0.1832 -0.0297 -0.4134
 1626Sol     HW 9530   2.471   2.046   6.397  1.2891 -1.0304  1.8613
 1626Sol     HW 9531   2.333   2.106   6.412  0.3105 -2.2367 -1.6840
 1626Sol     MW 9532   2.416   2.098   6.445  0.8681  0.8103  0.0675
 1627Sol     OW 9533   2.024   2.033   2.463 -0.1795  0.2402 -0.0412
 1627Sol     HW 9534   1.974   2.045   2.543 -1.0516 -2.1726 -0.1840
 1627Sol     HW 9535   2.115   2.036   2.490 -0.3551  3.7487  0.3597
 1627Sol     MW 9536   2.027   2.034   2.472  0.2860  0.0347 -0.0805
 1628Sol     OW 9537   2.595   3.186   8.324  0.0511 -0.1987  0.4415
 1628Sol     HW 9538   2.659   3.116   8.339 -0.9050 -0.7999  1.8183
 1628Sol     HW 9539   2.628   3.260   8.375 -0.9486 -0.8804  2.1039
 1628Sol     MW 9540   2.604   3.186   8.330  0.6663 -0.2093 -0.1739
 1629Sol     OW 9541   2.162   1.334   3.861 -0.1544 -0.8105 -0.2514
 1629Sol     HW 9542   2.142   1.391   3.936 -0.7962 -0.3044 -0.8073
 1629Sol     HW 9543   2.140   1.246   3.892  2.2976 -1.0029  1.1608
 1629Sol     MW 9544   2.158   1.331   3.871  0.2220 -0.1249  0.2083
 1630Sol     OW 9545   1.820   2.579   4.925  0.3676  0.2369 -0.7843
 1630Sol     HW 9546   1.911   2.573   4.895  0.8700 -1.9759  1.0896
 1630Sol     HW 9547   1.823   2.642   4.997  0.5481 -0.4418 -0.2016
 1630Sol     MW 9548   1.828   2.584   4.929  0.6321  0.6186 -0.2931
 1631Sol     OW 9549   1.623   1.705   6.972 -0.0718 -0.2771  0.6305
 1631Sol     HW 9550   1.702   1.683   6.922  0.9878  2.3569  1.1130
 1631Sol     HW 9551   1.609   1.629   7.028 -0.2671 -2.5466 -2.3497
 1631Sol     MW 9552   1.629   1.696   6.973 -0.0680 -0.1126 -0.1102
 1632Sol     OW 9553   2.144   2.250   1.891  0.1508 -0.0977 -0.5156
 1632Sol     HW 9554   2.195   2.172   1.912 -0.7780 -0.5437  0.1349
 1632Sol     HW 9555   2.199   2.323   1.921  0.2659 -0.5843  0.4926
 1632Sol     MW 9556   2.154   2.250   1.896  0.3561 -0.6481 -0.4180
 1633Sol     OW 9557   0.590   1.826   6.840  0.3005  0.7359  0.8213
 1633Sol     HW 9558   0.557   1.770   6.910  0.0402  1.1576  1.0388
 1633Sol     HW 9559   0.683   1.836   6.860  0.3588  0.3408  0.7527
 1633Sol     MW 9560   0.596   1.822   6.848 -0.9450  0.0193  0.4102
 1634Sol     OW 9561   0.670   2.431   7.444  0.6422 -0.0301 -0.8286
 1634Sol     HW 9562   0.683   2.345   7.404  1.6785 -0.0055 -0.5726
 1634Sol     HW 9563   0.605   2.417   7.512 -0.0594 -0.3695 -1.5710
 1634Sol     MW 9564   0.666   2.422   7.446  0.1607  0.0980 -0.4325
 1635Sol     OW 9565   3.319   1.160   1.680  0.0581  0.4638  0.6075
 1635Sol     HW 9566   3.268   1.240   1.665 -1.7978 -0.5753  1.2349
 1635Sol     HW 9567   3.403   1.177   1.637 -1.9103  1.0012 -3.1885
 1635Sol     MW 9568   3.322   1.169   1.675  0.4424 -0.3018  0.1669
 1636Sol     OW 9569   2.736   1.154   9.086 -0.3933 -0.0096  0.6518
 1636Sol     HW 9570   2.737   1.127   8.994  1.4328 -3.3060  1.5775
 1636Sol     HW 9571   2.789   1.233   9.088 -0.9975  0.4804 -1.2044
 1636Sol     MW 9572   2.741   1.159   9.078 -0.3668  0.9216  0.4723
 1637Sol     OW 9573   0.528   0.802   5.459  0.0609  0.1840 -0.4467
 1637Sol     HW 9574   0.541   0.713   5.425 -0.1181  0.2718 -0.7507
 1637Sol     HW 9575   0.555   0.859   5.387 -0.2313  0.3745 -0.4064
 1637Sol     MW 9576   0.532   0.799   5.449 -0.9128  0.1496  0.4535
 1638Sol     OW 9577   2.620   2.479   3.678 -0.1916 -0.1509 -0.3034
 1638Sol     HW 9578   2.556   2.505   3.744  0.1979 -0.5693  0.2353
 1638Sol     HW 9579   2.699   2.458   3.727  0.8680  1.8584 -1.0734
 1638Sol     MW 9580   2.622   2.480   3.688 -0.3363 -0.3798 -0.6160
 1639Sol     OW 9581   1.053   2.265   6.091 -0.2716  0.1030 -0.4647
 1639Sol     HW 9582   1.031   2.333   6.028  0.5514 -0.8405 -1.7807
 1639Sol     HW 9583   0.969   2.226   6.113 -0.5210  0.1701 -1.2801
 1639Sol     MW 9584   1.043   2.268   6.088 -0.0302 -0.4072  0.5580
 1640Sol     OW 9585   2.926   1.290   5.830 -0.1987 -0.0058  0.6528
 1640Sol     HW 9586   2.844   1.328   5.861 -0.8800 -1.7398  1.0355
 1640Sol     HW 9587   2.930   1.204   5.873  0.5980 -0.9544 -1.2729
 1640Sol     MW 9588   2.919   1.286   5.837 -0.2449 -0.0189 -0.0444
 1641Sol     OW 9589   0.689   0.600   1.962  0.4038 -0.1949  0.3948
 1641Sol     HW 9590   0.650   0.648   2.035 -2.2551  2.0009 -2.3335
 1641Sol     HW 9591   0.637   0.520   1.955 -2.0120  1.4422 -1.4832
 1641Sol     MW 9592   0.681   0.597   1.968 -0.1370 -0.3678 -0.0449
 1642Sol     OW 9593   0.052   1.195   1.938 -0.1419 -0.6168 -0.1005
 1642Sol     HW 9594   0.028   1.198   1.845  0.4766 -0.4045 -0.2527
 1642Sol     HW 9595   0.140   1.157   1.939 -0.7786 -2.1490  0.5095
 1642Sol     MW 9596   0.058   1.192   1.930  0.4177  0.4815 -0.4860
 1643Sol     OW 9597   1.237   2.868   5.931  0.1517 -0.0469 -0.6025
 1643Sol     HW 9598   1.316   2.838   5.978 -0.1616 -1.7991 -1.1403
 1643Sol     HW 9599   1.244   2.963   5.931  1.5953 -0.1247  0.5320
 1643Sol     MW 9600   1.245   2.873   5.935 -0.2250 -0.3278 -0.2489
 1644Sol     OW 9601   2.663   3.063   3.140 -0.4774 -0.5524  0.1585
 1644Sol     HW 9602   2.642   3.151   3.172 -1.1821 -0.6010 -0.1675
 1644Sol     HW 9603   2.580   3.028   3.109  0.2157 -0.4483 -1.8784
 1644Sol     MW 9604   2.654   3.068   3.140 -0.4343  0.7756 -0.2250
 1645Sol     OW 9605   1.886   1.556   4.148  0.1762  0.5666 -0.2508
 1645Sol     HW 9606   1.931   1.586   4.069  0.5682  0.2760 -0.1367
 1645Sol     HW 9607   1.951   1.564   4.217  0.0946  0.0248 -0.1108
 1645Sol     MW 9608   1.896   1.559   4.147  0.2339  0.2741 -0.0644
 1646Sol     OW 9609   0.034   3.344   8.511 -0.0750 -0.1587 -0.0565
 1646Sol     HW 9610   0.077   3.267   8.474  1.2888  0.8754 -0.6430
 1646Sol     HW 9611  -0.040   3.308   8.561  1.1993 -1.9092  0.6102
 1646Sol     MW 9612   0.031   3.334   8.512  0.1526 -0.2507  0.5691
 1647Sol     OW 9613   2.710   1.653   8.626 -0.3622 -0.1209 -0.2567
 1647Sol     HW 9614   2.772   1.673   8.556 -0.0908 -2.5481 -0.7446
 1647Sol     HW 9615   2.626   1.686   8.593  0.1813  0.7972 -0.7288
 1647Sol     MW 9616   2.708   1.658   8.617 -0.8322 -0.2087  0.4373
 1648Sol     OW 9617   1.033   1.857   5.400 -0.1976  0.2233 -0.3282
 1648Sol     HW 9618   1.072   1.787   5.347  0.9909  0.4997  0.1634
 1648Sol     HW 9619   1.059   1.938   5.356  1.3379  0.4816  0.9959
 1648Sol     MW 9620   1.039   1.858   5.391  0.4390  0.5989 -0.7959
 1649Sol     OW 9621   2.548   2.050   1.559 -0.2521  0.3070  0.1452
 1649Sol     HW 9622   2.581   1.964   1.533 -1.0403  0.0830 -0.1051
 1649Sol     HW 9623   2.471   2.064   1.505 -1.4513  0.1765  1.7848
 1649Sol     MW 9624   2.544   2.043   1.552  0.0667 -0.5140 -0.3150
 1650Sol     OW 9625   2.466   2.645   2.776  0.0567  0.4236  0.4124
 1650Sol     HW 9626   2.448   2.663   2.868  0.9666 -0.5009  0.7816
 1650Sol     HW 9627   2.561   2.660   2.767  0.3437 -1.4640  0.1031
 1650Sol     MW 9628   2.473   2.648   2.783 -0.2975 -0.0804  0.1626
 1651Sol     OW 9629   0.688   1.465   3.698 -0.3233  0.1734  0.3113
 1651Sol     HW 9630   0.674   1.389   3.642  1.0958  0.1219 -0.0004
 1651Sol     HW 9631   0.610   1.469   3.753  0.2121 -2.3643  1.3195
 1651Sol     MW 9632   0.680   1.458   3.698 -0.0922 -0.5599 -0.6209
 1652Sol     OW 9633   2.505   2.378   2.793 -0.5751 -0.1220  0.1109
 1652Sol     HW 9634   2.501   2.467   2.758  0.2380  0.0718  0.4964
 1652Sol     HW 9635   2.589   2.374   2.840 -1.5829 -0.4085  1.9302
 1652Sol     MW 9636   2.512   2.386   2.795  0.2215 -0.1376  0.8018
 1653Sol     OW 9637   2.124   2.089   8.651  0.3640  0.1219  0.2836
 1653Sol     HW 9638   2.083   2.016   8.698 -0.7635  0.9557  0.6222
 1653Sol     HW 9639   2.089   2.167   8.694  1.6859  0.8583  0.0216
 1653Sol     MW 9640   2.117   2.089   8.659  0.1923 -0.2133  0.8394
 1654Sol     OW 9641   2.746   2.327   4.759 -0.3737 -0.1222  0.1638
 1654Sol     HW 9642   2.759   2.287   4.845 -1.2547 -0.9201 -0.0613
 1654Sol     HW 9643   2.827   2.311   4.712  0.6426  1.5135  1.3023
 1654Sol     MW 9644   2.754   2.322   4.763  0.2262  0.4292  0.1399
 1655Sol     OW 9645   0.523   0.329   4.525 -0.4621 -0.1911  0.6826
 1655Sol     HW 9646   0.593   0.364   4.580  0.2390  0.9157 -0.8883
 1655Sol     HW 9647   0.516   0.237   4.550  3.0985 -0.9046 -0.6993
 1655Sol     MW 9648   0.528   0.324   4.532 -0.0085  0.1872 -0.3423
 1656Sol     OW 9649   3.191   2.135   5.460 -0.0365  0.2091 -0.1631
 1656Sol     HW 9650   3.249   2.060   5.452 -0.7416 -0.2811 -0.7697
 1656Sol     HW 9651   3.103   2.099   5.449 -0.4903  0.8654  1.2515
 1656Sol     MW 9652   3.188   2.125   5.458 -0.1132 -0.4405  0.2716
 1657Sol     OW 9653   2.452   1.125   4.940  0.2349 -0.4516  0.2247
 1657Sol     HW 9654   2.374   1.079   4.909 -0.2136  1.1910 -1.1109
 1657Sol     HW 9655   2.512   1.123   4.865  0.6065  0.2380  0.5021
 1657Sol     MW 9656   2.451   1.120   4.930 -0.1607 -0.5415  0.3236
 1658Sol     OW 9657   0.714   0.718   5.642  0.6708  0.6028  0.1189
 1658Sol     HW 9658   0.659   0.769   5.583  1.3760  0.4433 -0.6916
 1658Sol     HW 9659   0.733   0.778   5.715 -1.8556  0.1355  1.2175
 1658Sol     MW 9660   0.711   0.728   5.644 -0.2030  0.5138 -0.2185
 1659Sol     OW 9661   0.900   2.228   5.048  0.1523  0.3808 -0.1501
 1659Sol     HW 9662   0.953   2.306   5.059 -0.6311  0.9916 -0.6431
 1659Sol     HW 9663   0.852   2.220   5.131  0.1825  0.4568 -0.1253
 1659Sol     MW 9664   0.900   2.234   5.057  0.3587 -0.4898  0.1791
 1660Sol     OW 9665   2.288   0.012   9.994 -0.3265  0.3668 -0.7455
 1660Sol     HW 9666   2.269  -0.070   9.948  0.7322 -0.1304 -0.3122
 1660Sol     HW 9667   2.382   0.024   9.983 -0.3239  1.0384 -0.0155
 1660Sol     MW 9668   2.295   0.005   9.989  0.5055  0.1632 -0.4142
 1661Sol     OW 9669   2.564   0.144   1.970  0.0527  0.4789  0.1909
 1661Sol     HW 9670   2.522   0.166   2.052 -1.9989  0.2278 -0.7636
 1661Sol     HW 9671   2.585   0.051   1.978 -2.8905 -0.3280 -0.6680
 1661Sol     MW 9672   2.562   0.137   1.978  0.2894  0.3386  0.3825
 1662Sol     OW 9673   1.480   1.631   8.339  0.3772 -0.3983 -1.3205
 1662Sol     HW 9674   1.395   1.656   8.304  0.1398 -0.9080 -1.1134
 1662Sol     HW 9675   1.462   1.555   8.394  1.0093 -0.6806 -1.5000
 1662Sol     MW 9676   1.471   1.626   8.341  0.0880  0.3530  0.0979
 1663Sol     OW 9677   1.612   2.321   6.199  0.8947 -0.3435 -0.3916
 1663Sol     HW 9678   1.706   2.306   6.207  0.5263 -2.2643  0.6250
 1663Sol     HW 9679   1.572   2.238   6.226 -1.0724  0.2507 -1.3898
 1663Sol     MW 9680   1.617   2.312   6.202  0.2614 -0.1464 -0.3818
 1664Sol     OW 9681   1.787   1.177   8.016 -0.3162  0.1263  0.1064
 1664Sol     HW 9682   1.775   1.264   8.053 -0.0304  0.3781 -0.3860
 1664Sol     HW 9683   1.863   1.141   8.062 -0.3708  0.1808  0.2370
 1664Sol     MW 9684   1.793   1.182   8.023 -0.5796 -0.3257  0.3421
 1665Sol     OW 9685   0.300   0.438   8.379 -0.0620  0.2825  0.4016
 1665Sol     HW 9686   0.256   0.369   8.329  1.0096 -0.4812  0.5171
 1665Sol     HW 9687   0.392   0.430   8.356 -0.1420  2.8172 -0.9575
 1665Sol     MW 9688   0.304   0.431   8.373  0.2590 -0.2291 -0.5232
 1666Sol     OW 9689   2.514   3.006   2.660 -0.3996 -0.5056  0.0103
 1666Sol     HW 9690   2.564   2.930   2.632 -0.8991 -0.8177 -0.0565
 1666Sol     HW 9691   2.433   2.969   2.697 -0.8463  0.0113 -0.4333
 1666Sol     MW 9692   2.511   2.996   2.661 -0.2069 -0.5448  0.5778
 1667Sol     OW 9693   0.614   0.952   5.231  0.1600 -0.5707  0.1154
 1667Sol     HW 9694   0.554   0.949   5.157  1.0660 -0.7129 -0.6312
 1667Sol     HW 9695   0.699   0.971   5.191  0.1041  2.6243  1.4660
 1667Sol     MW 9696   0.617   0.953   5.221 -0.1188 -0.3609 -0.4603
 1668Sol     OW 9697   1.332   0.372   8.852  1.2808  0.3106 -0.6858
 1668Sol     HW 9698   1.368   0.336   8.771  1.2767  0.5513 -0.7977
 1668Sol     HW 9699   1.408   0.405   8.899  1.6465 -2.4803  0.7853
 1668Sol     MW 9700   1.342   0.372   8.849  0.3313 -0.3038 -0.2870
 1669Sol     OW 9701   2.811   0.456   1.876  0.2917  0.3347  0.3882
 1669Sol     HW 9702   2.724   0.491   1.858  0.1151 -0.7654 -1.0645
 1669Sol     HW 9703   2.864   0.485   1.802  0.1616 -2.2745 -0.8067
 1669Sol     MW 9704   2.808   0.462   1.867 -0.5163  0.1509 -0.6008
 1670Sol     OW 9705   1.834   1.418   7.026 -0.2429 -0.5895 -0.4764
 1670Sol     HW 9706   1.841   1.510   7.051 -2.4078 -0.7519  0.7831
 1670Sol     HW 9707   1.923   1.395   6.999  0.8444  1.2505  1.3380
 1670Sol     MW 9708   1.843   1.424   7.026 -0.0016 -0.0411  0.1849
 1671Sol     OW 9709   2.944   2.086   8.161  0.3201 -0.2346  0.0633
 1671Sol     HW 9710   2.960   2.105   8.069  2.3155 -0.5599  0.3035
 1671Sol     HW 9711   2.946   2.171   8.204 -0.8183 -0.0642 -0.2277
 1671Sol     MW 9712   2.946   2.095   8.157  0.3000 -0.9160  0.2721
 1672Sol     OW 9713   1.169   1.399   1.798  0.2961  0.3696 -0.3523
 1672Sol     HW 9714   1.228   1.331   1.830  0.5312 -0.1140 -1.7781
 1672Sol     HW 9715   1.135   1.441   1.877  0.1557 -1.3981  0.5468
 1672Sol     MW 9716   1.171   1.397   1.808 -0.0337  0.2832 -0.1310
 1673Sol     OW 9717   0.312   1.592   3.120 -0.0654  0.3326  0.1913
 1673Sol     HW 9718   0.227   1.636   3.118  0.0310  0.4844 -1.3981
 1673Sol     HW 9719   0.376   1.664   3.124  0.0697  0.3439 -1.7312
 1673Sol     MW 9720   0.310   1.603   3.120 -0.1118 -0.3776 -0.5502
 1674Sol     OW 9721   1.659   0.209   1.734 -0.2166  0.3721  0.2148
 1674Sol     HW 9722   1.691   0.121   1.755 -0.3749 -0.3140 -2.2725
 1674Sol     HW 9723   1.640   0.248   1.820 -0.3211 -2.0709  1.3682
 1674Sol     MW 9724   1.660   0.204   1.744  0.2719  0.5344  0.2145
 1675Sol     OW 9725   1.524   1.186   8.302 -0.5323 -0.3017  0.0751
 1675Sol     HW 9726   1.572   1.107   8.327 -0.8185 -0.1051  1.2791
 1675Sol     HW 9727   1.432   1.163   8.313 -0.5839  0.6751  1.9771
 1675Sol     MW 9728   1.520   1.177   8.305 -0.0578  0.5120 -0.2571
 1676Sol     OW 9729   1.837   1.840   8.440 -0.0844  0.3901 -1.3721
 1676Sol     HW 9730   1.911   1.863   8.496 -1.1635  1.1918 -0.2417
 1676Sol     HW 9731   1.855   1.886   8.358  1.0507 -0.0444 -1.3761
 1676Sol     MW 9732   1.845   1.846   8.438 -0.1135 -0.1641  0.2493
 1677Sol     OW 9733   0.284   1.920   3.241 -0.5496  0.4490  0.0316
 1677Sol     HW 9734   0.296   2.013   3.218  0.5188  0.1258 -0.7641
 1677Sol     HW 9735   0.366   1.879   3.214 -0.1860 -0.3621  2.3005
 1677Sol     MW 9736   0.292   1.925   3.236  0.1097 -0.3192  0.1916
 1678Sol     OW 9737   0.081   2.212   1.836 -0.2084  0.0931 -0.2559
 1678Sol     HW 9738   0.166   2.175   1.810  0.2367 -0.0441  1.3297
 1678Sol     HW 9739   0.017   2.162   1.786  0.6281  0.0451 -1.3062
 1678Sol     MW 9740   0.083   2.204   1.829 -0.0905  0.1235  0.6579
 1679Sol     OW 9741   2.985   2.227   3.953  0.7130  0.0057  0.6385
 1679Sol     HW 9742   3.009   2.192   3.867  1.2726 -1.5621  1.4185
 1679Sol     HW 9743   3.065   2.221   4.004  0.8782  2.6224  0.7585
 1679Sol     MW 9744   2.994   2.224   3.949 -0.3626 -0.1370 -0.2330
 1680Sol     OW 9745   0.170   1.860   2.343  0.4233 -0.2228 -0.6037
 1680Sol     HW 9746   0.137   1.807   2.416  2.0018 -1.4098 -0.7123
 1680Sol     HW 9747   0.236   1.916   2.383 -0.5425  0.9847 -0.6742
 1680Sol     MW 9748   0.173   1.860   2.353  0.7437  0.0409 -0.2891
 1681Sol     OW 9749   1.673   1.959   2.337  0.7862 -0.0754  0.0265
 1681Sol     HW 9750   1.718   1.874   2.335 -0.5047 -0.8265  1.2800
 1681Sol     HW 9751   1.591   1.943   2.290  0.2235  0.2739  0.8812
 1681Sol     MW 9752   1.669   1.950   2.332  0.1757  0.0509 -0.0113
 1682Sol     OW 9753   3.299   1.780   8.846  0.4300 -0.1955 -0.1119
 1682Sol     HW 9754   3.230   1.730   8.891  1.2730  0.5075  2.0181
 1682Sol     HW 9755   3.253   1.852   8.804 -0.4737 -1.3019 -1.0646
 1682Sol     MW 9756   3.289   1.782   8.846 -0.3300  0.2611 -0.0610
 1683Sol     OW 9757   2.052   0.310   3.887 -0.3011  0.2746  0.2083
 1683Sol     HW 9758   1.984   0.247   3.911  1.2470 -1.6100 -0.1878
 1683Sol     HW 9759   2.033   0.332   3.795  0.5952 -1.6145 -0.4651
 1683Sol     MW 9760   2.044   0.306   3.881 -0.3035 -0.0773  0.3170
 1684Sol     OW 9761   0.427   0.968   9.570 -0.4611  0.0981  0.4795
 1684Sol     HW 9762   0.341   0.966   9.528 -0.3281 -3.1345  0.2433
 1684Sol     HW 9763   0.487   0.933   9.505  0.6626  0.1560  1.4632
 1684Sol     MW 9764   0.424   0.965   9.561 -0.0448  0.0077  0.0659
 1685Sol     OW 9765   2.255   2.840   7.351  0.1257  0.0590  0.2165
 1685Sol     HW 9766   2.207   2.766   7.387 -0.3535  1.3162  2.2513
 1685Sol     HW 9767   2.240   2.911   7.413  0.2085  2.0082 -1.8974
 1685Sol     MW 9768   2.249   2.840   7.359  0.0172 -0.1414  0.4734
 1686Sol     OW 9769   1.523   2.095   8.126  0.3352  0.1391 -0.5216
 1686Sol     HW 9770   1.503   2.133   8.040 -0.4086  2.9490  0.8407
 1686Sol     HW 9771   1.438   2.080   8.166  0.7083  2.3142  1.1642
 1686Sol     MW 9772   1.514   2.097   8.122 -0.4193 -0.5298  0.7099
 1687Sol     OW 9773   0.224   2.956   8.946  0.6300  0.4733 -0.4484
 1687Sol     HW 9774   0.203   2.982   8.856  2.2187 -2.2561 -1.6825
 1687Sol     HW 9775   0.318   2.935   8.943  1.1430  2.1395  2.3132
 1687Sol     MW 9776   0.231   2.956   8.938 -0.5085 -0.1223  0.1599
 1688Sol     OW 9777   1.062   1.554   2.000 -0.2776 -0.0911  0.1963
 1688Sol     HW 9778   0.988   1.603   1.966 -0.1293  1.0400  1.4603
 1688Sol     HW 9779   1.023   1.484   2.053 -0.4887 -1.3989 -1.6313
 1688Sol     MW 9780   1.052   1.552   2.002  0.2216 -0.0292  0.2720
 1689Sol     OW 9781   2.720   0.188   9.126  0.1042 -0.4550  1.0119
 1689Sol     HW 9782   2.711   0.093   9.116  1.4068 -0.4477 -0.4201
 1689Sol     HW 9783   2.773   0.215   9.051 -1.9746  1.6905  0.2539
 1689Sol     MW 9784   2.724   0.182   9.118  0.0253  0.0462 -0.1912
 1690Sol     OW 9785   3.302   3.122   2.375 -0.1570 -0.4216  0.0417
 1690Sol     HW 9786   3.248   3.142   2.298 -1.8284 -1.0879  1.0112
 1690Sol     HW 9787   3.340   3.036   2.355  0.5402  0.0267 -0.6205
 1690Sol     MW 9788   3.300   3.116   2.366  0.1089  0.1682 -0.2337
 1691Sol     OW 9789   2.927   3.006   3.746  0.0781  0.3846  0.4704
 1691Sol     HW 9790   3.012   3.049   3.738  0.2073  0.0562  0.0210
 1691Sol     HW 9791   2.945   2.914   3.725 -0.8808  0.7945 -2.4824
 1691Sol     MW 9792   2.936   3.001   3.743 -0.3704  0.3730  0.2113
 1692Sol     OW 9793   2.556   2.303   8.138  0.4872  0.0432  0.3959
 1692Sol     HW 9794   2.576   2.212   8.115  2.6648  0.4211  0.6812
 1692Sol     HW 9795   2.579   2.353   8.060  0.9094  0.5255  0.8261
 1692Sol     MW 9796   2.560   2.299   8.129  0.8448 -0.0115 -0.2617
 1693Sol     OW 9797   2.915   1.367   9.073 -0.0783 -0.3058 -0.1368
 1693Sol     HW 9798   2.895   1.450   9.029  0.4765  0.2686  0.6830
 1693Sol     HW 9799   2.955   1.392   9.156  2.3725 -1.3896 -0.9209
 1693Sol     MW 9800   2.917   1.376   9.076  0.3804  0.4375 -0.7886
 1694Sol     OW 9801   2.495   1.621   7.346  0.0488 -0.1808 -0.5674
 1694Sol     HW 9802   2.534   1.538   7.319 -1.5608 -1.0798 -0.2094
 1694Sol     HW 9803   2.401   1.611   7.327 -0.2914  1.2294  0.2571
 1694Sol     MW 9804   2.490   1.613   7.342 -0.0331 -0.2987  0.6215
 1695Sol     OW 9805   1.599   1.038   8.701 -0.1094  0.0949  0.2722
 1695Sol     HW 9806   1.511   1.026   8.737  0.4541 -0.2157  1.5623
 1695Sol     HW 9807   1.634   0.949   8.693 -0.8328  0.0251 -2.6317
 1695Sol     MW 9808   1.594   1.029   8.703  0.8642  0.1307  0.3612
 1696Sol     OW 9809   1.220   1.120   2.755 -0.2676 -0.4892 -0.2841
 1696Sol     HW 9810   1.290   1.166   2.800  0.1424  0.1823 -1.5890
 1696Sol     HW 9811   1.264   1.060   2.695 -0.7860  0.0042 -1.1815
 1696Sol     MW 9812   1.230   1.119   2.754  0.0472  0.1009 -0.3797
 1697Sol     OW 9813   0.618   2.732   3.079 -0.1010 -0.3490 -0.0798
 1697Sol     HW 9814   0.568   2.656   3.108 -1.4536  1.1543  1.5881
 1697Sol     HW 9815   0.558   2.780   3.021  0.3271  0.0687 -0.1802
 1697Sol     MW 9816   0.608   2.729   3.076  0.1827  0.3631  0.2132
 1698Sol     OW 9817   2.732   0.060   5.841 -0.6221  0.5642  0.0095
 1698Sol     HW 9818   2.817   0.073   5.883  0.3776 -0.7541 -1.5827
 1698Sol     HW 9819   2.670   0.058   5.914  0.7983  0.7121  1.2501
 1698Sol     MW 9820   2.734   0.061   5.851  1.2682 -0.4968  0.2564
 1699Sol     OW 9821   0.006   1.915   5.301 -0.3517 -0.2452 -0.4492
 1699Sol     HW 9822  -0.006   1.849   5.369  1.4184  0.2516  0.3776
 1699Sol     HW 9823   0.076   1.881   5.246 -0.8597 -0.0270 -1.2277
 1699Sol     MW 9824   0.011   1.906   5.302 -0.3734 -0.1204  0.1498
 1700Sol     OW 9825   0.088   0.674   6.096 -0.0928  0.0975  0.8149
 1700Sol     HW 9826   0.148   0.628   6.154  0.0188  0.1143  0.7135
 1700Sol     HW 9827   0.039   0.604   6.052  1.7853 -0.0327 -1.1666
 1700Sol     MW 9828   0.089   0.663   6.097 -0.0759 -0.1730  0.1390
 1701Sol     OW 9829   3.160   3.139   4.326  0.2390  0.2414  0.3790
 1701Sol     HW 9830   3.229   3.087   4.365 -0.1498 -0.3566  0.2745
 1701Sol     HW 9831   3.112   3.078   4.270  0.4581  0.9565 -0.6069
 1701Sol     MW 9832   3.162   3.129   4.324 -0.0559 -0.1416  0.2013
 1702Sol     OW 9833   2.050   1.556   3.137 -0.1556  0.3440 -0.2132
 1702Sol     HW 9834   2.006   1.565   3.222 -0.3316 -1.2664 -0.1022
 1702Sol     HW 9835   1.980   1.526   3.078  0.2387  0.2544 -0.6304
 1702Sol     MW 9836   2.039   1.554   3.140 -0.4141 -0.1802  0.1130
 1703Sol     OW 9837   2.730   2.757   9.167  0.3360 -0.1877  0.4898
 1703Sol     HW 9838   2.812   2.806   9.176  0.4027  0.2459 -1.9860
 1703Sol     HW 9839   2.735   2.719   9.079 -2.3278  0.2625  0.1097
 1703Sol     MW 9840   2.738   2.758   9.160 -0.1931 -0.0056  0.4938
 1704Sol     OW 9841   0.199   1.025   8.397  0.7050  0.3794  0.0336
 1704Sol     HW 9842   0.245   1.101   8.430 -0.9802  1.4259  0.0417
 1704Sol     HW 9843   0.257   0.951   8.416  1.7699  1.4951  1.1966
 1704Sol     MW 9844   0.208   1.025   8.402  0.2775 -0.5243 -0.0725
 1705Sol     OW 9845   2.970   0.921   9.016 -0.9873  0.0920 -0.8065
 1705Sol     HW 9846   3.040   0.984   9.036  0.3067 -1.3665 -0.6775
 1705Sol     HW 9847   2.909   0.970   8.960 -0.7948  1.9283  0.5308
 1705Sol     MW 9848   2.970   0.931   9.013 -0.1649 -1.1237 -0.6653
 1706Sol     OW 9849   1.145   2.746   4.867  0.3075  0.1146  0.4787
 1706Sol     HW 9850   1.200   2.822   4.887 -0.7890  1.2062 -0.6279
 1706Sol     HW 9851   1.070   2.781   4.819  0.2040 -1.7712 -0.8211
 1706Sol     MW 9852   1.143   2.756   4.865 -0.3418  0.5476  0.0546
 1707Sol     OW 9853   0.938   3.264   7.158  0.2825 -0.0465 -0.0531
 1707Sol     HW 9854   1.015   3.271   7.214 -1.2478  0.6721  2.0262
 1707Sol     HW 9855   0.934   3.348   7.112  2.1411 -1.0292 -2.1137
 1707Sol     MW 9856   0.945   3.272   7.159  0.0374 -0.1423 -0.0294
 1708Sol     OW 9857   0.674   3.295   8.353  0.3543 -0.0202 -0.5428
 1708Sol     HW 9858   0.608   3.356   8.385 -0.5518 -0.8663 -0.7603
 1708Sol     HW 9859   0.692   3.238   8.427  2.2030  1.3377  0.0798
 1708Sol     MW 9860   0.669   3.295   8.362 -0.2508  0.2501  0.5516
 1709Sol     OW 9861   0.092   1.452   5.922  1.0045 -0.0049 -0.4384
 1709Sol     HW 9862  -0.002   1.451   5.903  0.6390  2.1458  1.0984
 1709Sol     HW 9863   0.121   1.364   5.900 -1.5577 -0.9973 -0.0711
 1709Sol     MW 9864   0.086   1.444   5.919 -0.4599 -0.0412  0.4208
 1710Sol     OW 9865   0.496   1.787   3.098 -0.0117 -0.6289 -0.3732
 1710Sol     HW 9866   0.585   1.752   3.100  0.1349 -0.2372  0.7323
 1710Sol     HW 9867   0.497   1.852   3.028  1.2465  1.0763  1.1703
 1710Sol     MW 9868   0.504   1.790   3.092 -0.0461 -0.6706  0.3851
 1711Sol     OW 9869   3.142   0.008   4.822 -0.2084 -0.3738 -0.6508
 1711Sol     HW 9870   3.091   0.024   4.742 -0.3284  1.5118 -0.2347
 1711Sol     HW 9871   3.076  -0.014   4.888 -0.3575  0.5787 -0.4737
 1711Sol     MW 9872   3.131   0.008   4.821  0.2230 -0.2711 -0.3675
 1712Sol     OW 9873   0.939   1.009   7.068  0.3247 -0.3171  0.2870
 1712Sol     HW 9874   0.863   0.987   7.014  0.8561  0.3250 -0.7287
 1712Sol     HW 9875   0.949   0.933   7.126 -0.3609 -0.9316 -0.3804
 1712Sol     MW 9876   0.933   1.000   7.068 -0.5914 -0.4921  0.4598
 1713Sol     OW 9877   0.007   1.007   9.556  0.5139 -0.6141 -0.2308
 1713Sol     HW 9878   0.078   1.026   9.495 -0.6768  1.0573 -1.1595
 1713Sol     HW 9879   0.002   0.912   9.559  2.4854 -0.7337 -0.5012
 1713Sol     MW 9880   0.013   1.000   9.551 -0.0918 -0.3813  0.3557
 1714Sol     OW 9881   1.387   2.730   7.524 -0.3732  0.2808  0.1265
 1714Sol     HW 9882   1.434   2.813   7.526  1.0120 -0.4942  0.1301
 1714Sol     HW 9883   1.318   2.743   7.459 -0.4424  1.5756  0.4483
 1714Sol     MW 9884   1.385   2.738   7.519 -0.0468  0.0542 -0.4738
 1715Sol     OW 9885   1.652   3.296   4.006 -0.1724  0.5409  0.0385
 1715Sol     HW 9886   1.656   3.389   3.984  2.5280  0.7130  1.0737
 1715Sol     HW 9887   1.743   3.268   4.007 -0.8305 -1.6701  1.6435
 1715Sol     MW 9888   1.660   3.302   4.004  0.0238 -0.1289 -0.3914
 1716Sol     OW 9889   0.364   0.960   8.705 -0.0043  0.2712 -0.3891
 1716Sol     HW 9890   0.454   0.991   8.713 -0.1547  0.0193  2.9224
 1716Sol     HW 9891   0.310   1.039   8.715 -0.2037  0.4474 -2.5177
 1716Sol     MW 9892   0.367   0.970   8.707  0.3606  0.8111  0.3398
 1717Sol     OW 9893   1.619   0.656   1.457  0.0317  0.3179 -0.3839
 1717Sol     HW 9894   1.686   0.614   1.510 -0.6206 -0.2196  0.0089
 1717Sol     HW 9895   1.627   0.613   1.371  2.5303  2.6636 -1.4036
 1717Sol     MW 9896   1.626   0.648   1.454 -0.3974  0.2672  0.9430
 1718Sol     OW 9897   0.123   1.448   9.009  0.2719  0.2213  0.5791
 1718Sol     HW 9898   0.156   1.361   9.033 -0.6302 -0.6137 -1.1655
 1718Sol     HW 9899   0.030   1.435   8.993  0.2104  1.4415 -0.0866
 1718Sol     MW 9900   0.118   1.439   9.010 -0.0111  0.4445 -0.4057
 1719Sol     OW 9901   3.153   0.774   8.489 -0.4683  0.3408 -0.0214
 1719Sol     HW 9902   3.243   0.804   8.498 -0.7595  1.4777 -0.7170
 1719Sol     HW 9903   3.108   0.847   8.446 -1.3195 -0.9376 -1.3267
 1719Sol     MW 9904   3.157   0.784   8.486  0.6380 -0.1579  0.2008
 1720Sol     OW 9905   2.542   2.622   7.756 -0.0771  0.1453 -0.0578
 1720Sol     HW 9906   2.499   2.578   7.683 -0.1933  1.5514 -0.8667
 1720Sol     HW 9907   2.473   2.675   7.797 -0.4489 -1.9703  2.2040
 1720Sol     MW 9908   2.532   2.623   7.753 -0.1545  0.7277  0.1779
 1721Sol     OW 9909   0.574   0.583   6.253 -0.2570  0.0994 -0.2689
 1721Sol     HW 9910   0.478   0.587   6.255 -0.2916 -0.8284  0.0873
 1721Sol     HW 9911   0.597   0.520   6.321  0.7259  1.8964  1.0973
 1721Sol     MW 9912   0.568   0.578   6.259  0.2483  0.3492 -0.2360
 1722Sol     OW 9913   2.746   2.546   9.394  0.0046 -0.0467  0.4700
 1722Sol     HW 9914   2.835   2.513   9.411 -0.7952 -2.6254 -0.2226
 1722Sol     HW 9915   2.753   2.590   9.309  0.9192  1.0196  1.0777
 1722Sol     MW 9916   2.755   2.547   9.388 -0.3727 -0.1422 -1.1705
 1723Sol     OW 9917   1.190   3.261   4.423 -0.1361 -0.1733  0.3492
 1723Sol     HW 9918   1.244   3.318   4.478  0.4798 -0.1354 -0.2914
 1723Sol     HW 9919   1.251   3.221   4.362 -0.6946 -0.8673  0.2326
 1723Sol     MW 9920   1.200   3.262   4.423 -0.7833 -0.5325  0.0177
 1724Sol     OW 9921   3.265   2.729   7.534  0.1002 -0.2827 -0.0856
 1724Sol     HW 9922   3.273   2.805   7.475 -0.4649 -1.0726 -1.2135
 1724Sol     HW 9923   3.219   2.763   7.610  0.8920  0.7812 -0.0630
 1724Sol     MW 9924   3.262   2.739   7.535 -0.0635 -0.0002 -0.2322
 1725Sol     OW 9925   2.261   2.742   8.593 -0.5596  0.0400 -0.8648
 1725Sol     HW 9926   2.245   2.663   8.541  2.5360 -1.5914  0.5272
 1725Sol     HW 9927   2.181   2.754   8.644 -0.8639 -2.5024 -0.7093
 1725Sol     MW 9928   2.253   2.736   8.593  0.5696 -0.2370  0.0213
 1726Sol     OW 9929   2.609   3.299   7.476 -0.5413 -0.6011  0.6797
 1726Sol     HW 9930   2.649   3.340   7.552  0.4022 -0.5495  0.1621
 1726Sol     HW 9931   2.627   3.206   7.487  0.1061 -0.5311  0.2223
 1726Sol     MW 9932   2.614   3.294   7.484 -0.5966  0.1772 -0.5800
 1727Sol     OW 9933   1.194   2.934   7.001  0.6434 -0.1947  0.5135
 1727Sol     HW 9934   1.255   2.969   7.065  1.8288  0.7526 -1.0986
 1727Sol     HW 9935   1.216   2.841   6.996  1.3494 -0.0360  0.6179
 1727Sol     MW 9936   1.201   2.928   7.006 -0.3630 -0.3028 -0.4087
 1728Sol     OW 9937   3.223   2.801   9.589 -0.5058 -0.6988 -0.4040
 1728Sol     HW 9938   3.206   2.760   9.673 -0.6868  1.3652  0.6012
 1728Sol     HW 9939   3.317   2.821   9.591 -0.3377 -1.4005 -1.0481
 1728Sol     MW 9940   3.230   2.800   9.596  0.7289  0.0876  0.1881
 1729Sol     OW 9941   2.257   2.502   8.442 -0.2444 -0.1496  0.1183
 1729Sol     HW 9942   2.243   2.420   8.395  0.1173 -0.2199  0.1317
 1729Sol     HW 9943   2.346   2.527   8.420 -0.3942  0.2995  0.0262
 1729Sol     MW 9944   2.263   2.497   8.436 -0.1360 -0.6020  0.5950
 1730Sol     OW 9945   2.684   2.683   9.614  0.1862  0.3267  0.2590
 1730Sol     HW 9946   2.613   2.635   9.657  0.9409  0.3612  1.5673
 1730Sol     HW 9947   2.690   2.645   9.526 -0.7849 -0.3514  0.4870
 1730Sol     MW 9948   2.678   2.675   9.610 -0.0183  0.8346  0.1659
 1731Sol     OW 9949   3.323   3.109   5.941  0.2167  0.4316  0.2243
 1731Sol     HW 9950   3.314   3.180   5.879  2.5884  2.1152  1.7294
 1731Sol     HW 9951   3.400   3.061   5.912 -0.7157 -0.9010 -0.1304
 1731Sol     MW 9952   3.329   3.111   5.933 -0.2574  0.1757 -1.2638
 1732Sol     OW 9953   1.813   1.043   7.066 -0.0337  0.4966 -0.3978
 1732Sol     HW 9954   1.899   1.001   7.072  0.4284  1.3505 -0.9842
 1732Sol     HW 9955   1.784   1.025   6.977 -1.1764 -1.1410  0.2767
 1732Sol     MW 9956   1.818   1.038   7.059  0.1961  0.1139  0.1498
 1733Sol     OW 9957   2.525   2.907   7.256  0.1382  0.4047  0.0368
 1733Sol     HW 9958   2.444   2.880   7.299 -0.2344 -0.8907 -1.4701
 1733Sol     HW 9959   2.501   2.985   7.207  0.0618  0.6501  0.4608
 1733Sol     MW 9960   2.516   2.912   7.256 -0.4631  0.6995  0.0117
 1734Sol     OW 9961   2.947   0.824   3.810  0.4477  0.4579  1.2889
 1734Sol     HW 9962   2.901   0.759   3.864  0.0096  0.2708  0.7026
 1734Sol     HW 9963   2.880   0.888   3.788  0.3133 -0.1345 -0.0665
 1734Sol     MW 9964   2.937   0.824   3.813  1.5091 -0.1187 -0.1987
 1735Sol     OW 9965   1.082   1.599   8.553  0.5666 -0.0004 -0.2699
 1735Sol     HW 9966   1.119   1.660   8.616  2.3802 -0.6538 -0.6842
 1735Sol     HW 9967   1.119   1.514   8.577  0.4081 -0.4378 -1.5322
 1735Sol     MW 9968   1.089   1.597   8.561 -0.2943  0.3517 -0.3025
 1736Sol     OW 9969   0.560   1.515   9.852  0.7763  0.3984 -0.3202
 1736Sol     HW 9970   0.570   1.508   9.757  1.0143  3.2410 -0.5337
 1736Sol     HW 9971   0.648   1.495   9.886  0.3606 -2.0228 -0.5714
 1736Sol     MW 9972   0.569   1.513   9.847  0.4542  0.2417 -0.4163
 1737Sol     OW 9973   1.999   0.316   1.785  0.0738 -0.0562 -0.5401
 1737Sol     HW 9974   2.093   0.325   1.800  0.3448 -2.1399 -0.8497
 1737Sol     HW 9975   1.962   0.307   1.873  0.3401 -0.6585 -0.4833
 1737Sol     MW 9976   2.004   0.316   1.794  0.4680  0.4513 -0.3887
 1738Sol     OW 9977   3.176   2.519   3.563 -0.6891  0.2232 -0.5426
 1738Sol     HW 9978   3.180   2.441   3.508  1.9207 -0.8011  1.0449
 1738Sol     HW 9979   3.234   2.582   3.519  0.4482 -0.1769  0.3778
 1738Sol     MW 9980   3.182   2.518   3.554  0.0049  0.0139 -0.5458
 1739Sol     OW 9981   0.650   0.630   2.760 -0.2857  0.3181 -0.5329
 1739Sol     HW 9982   0.666   0.553   2.814 -1.8328  0.5162  0.2420
 1739Sol     HW 9983   0.639   0.701   2.823 -0.3891  0.8836 -1.1862
 1739Sol     MW 9984   0.650   0.630   2.770  0.3266  0.0931  0.3197
 1740Sol     OW 9985   1.307   2.405   1.827 -0.1811  0.3817 -0.1666
 1740Sol     HW 9986   1.212   2.414   1.820 -0.2076  0.4522  0.2746
 1740Sol     HW 9987   1.342   2.483   1.784 -0.3524  0.9969  0.7911
 1740Sol     MW 9988   1.302   2.413   1.823  0.6533  0.4627 -0.2196
 1741Sol     OW 9989   0.226   2.947   4.955 -0.1711 -0.0705 -0.0610
 1741Sol     HW 9990   0.274   2.864   4.962 -0.1500 -0.2228 -1.7459
 1741Sol     HW 9991   0.170   2.935   4.879 -1.1245  1.0013  0.4726
 1741Sol     MW 9992   0.226   2.938   4.949 -0.5920  0.1969  0.9524
 1742Sol     OW 9993   0.271   2.157   5.122  0.0933 -0.6229 -0.3017
 1742Sol     HW 9994   0.263   2.063   5.137 -1.0959 -0.2905  1.1945
 1742Sol     HW 9995   0.277   2.196   5.209 -1.9892  0.9228 -0.8133
 1742Sol     MW 9996   0.271   2.152   5.131 -0.1521 -0.7136  0.3455
 1743Sol     OW 9997   3.064   1.043   7.078 -0.2035 -0.4789  0.0520
 1743Sol     HW 9998   3.050   1.048   6.984  1.5005 -1.7672 -0.2958
 1743Sol     HW 9999   2.979   1.020   7.114 -0.4688 -1.7521 -1.3526
 1743Sol     MW10000   3.056   1.042   7.073 -0.3277  0.1903  0.2499
 1744Sol     OW10001   1.986   0.386   7.433 -0.5761  0.5377 -0.1940
 1744Sol     HW10002   1.963   0.473   7.401  1.0553  0.8291 -0.5826
 1744Sol     HW10003   2.034   0.402   7.514  1.6475  0.1193 -1.3935
 1744Sol     MW10004   1.988   0.395   7.437  0.1275  0.1230  0.1337
 1745Sol     OW10005   2.789   3.176   9.549  0.0601  0.3564  0.1010
 1745Sol     HW10006   2.774   3.088   9.515  2.7468 -0.1646  0.0934
 1745Sol     HW10007   2.805   3.163   9.642 -0.1723  0.9134  0.2181
 1745Sol     MW10008   2.789   3.167   9.554 -0.1568 -0.2644 -0.2847
 1746Sol     OW10009   0.387   2.265   7.381 -0.5730 -0.4971 -0.1446
 1746Sol     HW10010   0.414   2.314   7.459 -1.8511  0.0809 -0.0587
 1746Sol     HW10011   0.394   2.328   7.309 -0.7332 -0.6366 -0.2822
 1746Sol     MW10012   0.390   2.275   7.382  0.1745  0.1302  0.1561
 1747Sol     OW10013   1.537   1.571   9.304 -0.0263 -0.2259 -0.1036
 1747Sol     HW10014   1.529   1.515   9.382 -1.4155  1.3458  0.9213
 1747Sol     HW10015   1.553   1.510   9.232 -1.1488 -1.9208  1.0435
 1747Sol     MW10016   1.537   1.561   9.305 -0.4519 -0.1920  0.4161
 1748Sol     OW10017   3.048   2.777   6.854 -0.3881  0.4774  0.7003
 1748Sol     HW10018   3.115   2.715   6.885 -1.3901 -0.0420  1.8927
 1748Sol     HW10019   3.096   2.858   6.838  0.9330 -0.5717 -0.7923
 1748Sol     MW10020   3.058   2.778   6.856 -0.0884  0.5543 -0.3716
 1749Sol     OW10021   1.911   1.006   5.443 -0.0927  0.3803  0.6666
 1749Sol     HW10022   1.971   0.995   5.517  0.2409  1.8686  0.6258
 1749Sol     HW10023   1.963   0.984   5.366  0.2072  1.0303  0.6851
 1749Sol     MW10024   1.921   1.003   5.443  0.9266  0.6595 -0.5627
 1750Sol     OW10025   1.097   2.615   4.071  0.5400 -0.1131 -0.1226
 1750Sol     HW10026   1.051   2.555   4.013 -0.4741  0.5204  0.0228
 1750Sol     HW10027   1.185   2.621   4.033  0.6174 -1.5872 -0.1942
 1750Sol     MW10028   1.101   2.611   4.062  0.9151 -0.4798  0.7522
 1751Sol     OW10029   2.016   1.977   5.732  0.2532  0.2970  0.4038
 1751Sol     HW10030   1.970   2.057   5.708 -0.8996 -0.5828 -0.3925
 1751Sol     HW10031   2.088   1.970   5.670 -2.0199 -1.3600 -2.1350
 1751Sol     MW10032   2.018   1.983   5.725 -0.1342 -0.2217 -0.4763
 1752Sol     OW10033   2.693   1.317   5.208  0.7642 -0.2129 -0.3398
 1752Sol     HW10034   2.612   1.265   5.212 -0.7762  1.9924 -1.7598
 1752Sol     HW10035   2.690   1.358   5.122  1.6829  2.6636  0.9649
 1752Sol     MW10036   2.685   1.316   5.200  0.2434 -0.4162  0.0698
 1753Sol     OW10037   1.558   0.203   7.167  0.7665  0.4049 -0.1189
 1753Sol     HW10038   1.610   0.131   7.202 -2.4167 -1.8174  0.2346
 1753Sol     HW10039   1.562   0.192   7.072 -1.2901 -1.4558 -0.0218
 1753Sol     MW10040   1.563   0.196   7.162  0.6149 -0.1285  0.2613
 1754Sol     OW10041   2.023   1.409   2.258 -0.2959 -0.4858  0.1901
 1754Sol     HW10042   2.051   1.458   2.336  1.4008 -0.3222 -0.5061
 1754Sol     HW10043   1.965   1.470   2.212  0.8956  0.4765 -0.0820
 1754Sol     MW10044   2.020   1.419   2.261 -0.4609 -0.4023  0.3532
 1755Sol     OW10045   1.446   1.039   4.401  0.5228  0.3623 -0.6119
 1755Sol     HW10046   1.401   1.006   4.323  0.5876  0.8737 -0.8767
 1755Sol     HW10047   1.481   0.961   4.444  0.2539  0.0517 -0.9531
 1755Sol     MW10048   1.445   1.029   4.397  0.0526 -0.4485  0.4582
 1756Sol     OW10049   1.400   2.701   4.342  0.5844 -0.2487  0.2739
 1756Sol     HW10050   1.424   2.744   4.261  0.9558 -0.8672  0.0471
 1756Sol     HW10051   1.369   2.614   4.315 -0.5604  0.0240  0.6834
 1756Sol     MW10052   1.399   2.697   4.333 -0.5012  0.6748  0.1280
 1757Sol     OW10053   3.216   1.436   9.872  0.5478  0.1445  0.2936
 1757Sol     HW10054   3.293   1.397   9.831  0.8177  0.1539  0.7931
 1757Sol     HW10055   3.210   1.393   9.957 -0.1437 -0.0362  0.1565
 1757Sol     MW10056   3.222   1.429   9.876 -0.5950  0.9137  0.0650
 1758Sol     OW10057   2.638   3.216   6.180 -0.2520  0.2338 -0.1915
 1758Sol     HW10058   2.694   3.211   6.258 -1.8849 -0.2420  0.9741
 1758Sol     HW10059   2.602   3.128   6.171  0.8979 -0.0443 -2.2425
 1758Sol     MW10060   2.640   3.208   6.186  0.1832 -0.2628  0.4568
 1759Sol     OW10061   1.155   1.765   9.326 -0.0319  0.6643  0.5029
 1759Sol     HW10062   1.230   1.824   9.325 -0.9084  1.8233 -2.3284
 1759Sol     HW10063   1.081   1.821   9.349 -0.3755 -0.0030  1.0316
 1759Sol     MW10064   1.155   1.776   9.328 -0.2643  0.2434 -0.4486
 1760Sol     OW10065   0.505   0.566   8.117  0.4980 -0.0906 -0.4633
 1760Sol     HW10066   0.433   0.625   8.137  0.5785 -0.5252  1.2114
 1760Sol     HW10067   0.562   0.616   8.058 -1.0735  0.3091 -1.6596
 1760Sol     MW10068   0.504   0.576   8.114  0.4612  0.0446  0.2663
 1761Sol     OW10069   0.136   3.041   4.324 -0.5419  0.1842 -0.4190
 1761Sol     HW10070   0.118   3.117   4.270 -1.1552  0.1687 -0.2388
 1761Sol     HW10071   0.184   3.076   4.399 -0.7710  0.3833 -0.3656
 1761Sol     MW10072   0.139   3.051   4.326 -0.0926  0.5605  0.4300
 1762Sol     OW10073   3.202   1.409   5.519  0.2060 -0.5163  0.4100
 1762Sol     HW10074   3.287   1.370   5.500  0.9067  1.1655  0.0698
 1762Sol     HW10075   3.201   1.419   5.614  0.2146 -0.8928  0.4525
 1762Sol     MW10076   3.209   1.406   5.526 -0.0325  0.1628 -0.1382
 1763Sol     OW10077   1.253   2.075   8.193  0.0042 -0.5438  0.0365
 1763Sol     HW10078   1.203   2.112   8.267  0.9016  0.1863  0.2849
 1763Sol     HW10079   1.218   2.119   8.116 -0.4951 -0.8459  0.0836
 1763Sol     MW10080   1.245   2.082   8.193 -0.7229  0.5263 -1.2244
 1764Sol     OW10081   2.512   1.776   8.463 -0.2105  0.4426  0.1196
 1764Sol     HW10082   2.490   1.708   8.399 -0.5929  1.7415 -1.1578
 1764Sol     HW10083   2.441   1.839   8.456  0.5273  1.3548  0.7590
 1764Sol     MW10084   2.503   1.775   8.457 -0.5675  0.1988 -0.5034
 1765Sol     OW10085   0.950   2.996   2.991 -0.2872  0.2843 -0.0041
 1765Sol     HW10086   1.020   3.038   2.942  2.0048 -0.1030  2.8201
 1765Sol     HW10087   0.953   3.037   3.077 -2.9285 -0.4187  0.4520
 1765Sol     MW10088   0.957   3.003   2.994 -0.0890 -0.0673  0.5718
 1766Sol     OW10089   2.897   2.232   6.620  0.1252  0.4397  0.3049
 1766Sol     HW10090   2.836   2.201   6.686 -0.0032 -0.0654 -0.0454
 1766Sol     HW10091   2.960   2.160   6.609  0.7682  0.9460  0.6480
 1766Sol     MW10092   2.897   2.223   6.625 -0.6702  0.1951  0.0836
 1767Sol     OW10093   3.051   1.593   4.078  0.5484  0.4324  0.5132
 1767Sol     HW10094   3.145   1.599   4.064  0.4231 -1.7377 -1.5542
 1767Sol     HW10095   3.012   1.646   4.008  0.1671 -1.2144 -0.5318
 1767Sol     MW10096   3.056   1.599   4.070  0.5030  0.2407  0.4646
 1768Sol     OW10097   0.253   2.735   6.184  0.2420 -0.1854  0.5289
 1768Sol     HW10098   0.232   2.694   6.268  2.0533 -1.5364  0.3353
 1768Sol     HW10099   0.304   2.670   6.137 -1.4350  0.2266 -1.9848
 1768Sol     MW10100   0.255   2.726   6.187  0.0445  0.0442 -0.4717
 1769Sol     OW10101   0.380   2.359   4.440 -0.5015  0.2305 -0.0963
 1769Sol     HW10102   0.452   2.374   4.501  0.7113 -0.5667 -1.3176
 1769Sol     HW10103   0.388   2.267   4.415 -1.8434  0.1827 -0.3674
 1769Sol     MW10104   0.387   2.352   4.443  0.3348 -0.1911 -0.4978
 1770Sol     OW10105   1.973   0.814   6.714 -0.3263 -0.2030 -0.3937
 1770Sol     HW10106   2.052   0.860   6.743  0.5452 -0.2859 -2.5589
 1770Sol     HW10107   1.928   0.790   6.795  0.0144  3.0196  0.8062
 1770Sol     MW10108   1.976   0.816   6.724 -0.0264 -0.2403 -0.2192
 1771Sol     OW10109   1.165   0.285   2.695 -0.2446  0.1472  0.4227
 1771Sol     HW10110   1.191   0.222   2.763 -1.3824 -0.9945 -0.1829
 1771Sol     HW10111   1.242   0.291   2.638  0.9721  1.6351  2.1645
 1771Sol     MW10112   1.175   0.280   2.696  0.4425 -0.3424 -1.0187
 1772Sol     OW10113   2.013   3.044   5.163  0.1158  0.4409  0.1979
 1772Sol     HW10114   2.093   3.004   5.196  1.1946  1.9636 -0.5089
 1772Sol     HW10115   2.042   3.099   5.090 -1.7067  0.2276 -0.7218
 1772Sol     MW10116   2.022   3.045   5.159  0.1904  0.2734 -0.0099
 1773Sol     OW10117   1.083   1.137   7.990  0.5601  0.1419  0.2620
 1773Sol     HW10118   1.024   1.077   7.943  0.0329  1.1783 -0.4239
 1773Sol     HW10119   1.169   1.122   7.950  0.7591 -1.2949  1.1845
 1773Sol     MW10120   1.085   1.130   7.982  0.7201 -0.1421 -0.1872
 1774Sol     OW10121   2.569   0.587   8.340  0.1238 -0.0628  0.0569
 1774Sol     HW10122   2.566   0.671   8.385 -1.3919 -0.8983  1.5845
 1774Sol     HW10123   2.512   0.598   8.264  0.1548  0.3702  0.0978
 1774Sol     MW10124   2.564   0.595   8.337  0.1144  0.2954 -1.1167
 1775Sol     OW10125   1.624   3.411   5.151  0.0857 -0.1629 -0.4510
 1775Sol     HW10126   1.626   3.476   5.080 -1.6683 -0.4899 -0.8199
 1775Sol     HW10127   1.546   3.359   5.133  1.3219 -2.2187  0.0046
 1775Sol     MW10128   1.617   3.412   5.143 -0.4272  0.0772 -0.3481
 1776Sol     OW10129   1.601   2.663   8.926 -0.0565 -0.4641 -0.2854
 1776Sol     HW10130   1.611   2.619   9.010 -0.4920 -1.6013 -0.8163
 1776Sol     HW10131   1.680   2.717   8.917  1.5445 -2.7983 -0.5798
 1776Sol     MW10132   1.609   2.664   8.932  0.9450  0.1403  0.1786
 1777Sol     OW10133   3.135   0.467   2.275 -0.3717  0.3490  0.7258
 1777Sol     HW10134   3.096   0.542   2.320 -2.1820 -0.5126  0.6268
 1777Sol     HW10135   3.088   0.461   2.192 -0.8078 -1.3968  1.0840
 1777Sol     MW10136   3.127   0.473   2.272  0.1692 -0.1756  0.1554
 1778Sol     OW10137   3.075   3.366   6.080  0.3379 -0.0221 -0.0117
 1778Sol     HW10138   3.170   3.367   6.095  0.2036 -0.2549  0.8751
 1778Sol     HW10139   3.037   3.378   6.167 -0.4643 -1.0077 -0.2224
 1778Sol     MW10140   3.080   3.367   6.089  0.5448  0.3845 -0.4432
 1779Sol     OW10141   1.026   1.963   8.385 -0.0377  0.0062  0.1877
 1779Sol     HW10142   1.055   1.912   8.310 -1.6721 -1.8396  0.7882
 1779Sol     HW10143   0.949   2.010   8.354 -0.0416  0.1255  0.3774
 1779Sol     MW10144   1.022   1.963   8.376  0.0767 -0.4365  0.4371
 1780Sol     OW10145   2.996   2.461   9.445  0.2234  0.1920  0.0336
 1780Sol     HW10146   3.038   2.375   9.447  0.5945  0.3712 -0.0388
 1780Sol     HW10147   3.066   2.521   9.420 -0.3375  0.3479 -1.1822
 1780Sol     MW10148   3.006   2.458   9.443 -0.0898 -0.3934  0.0673
 1781Sol     OW10149   2.540   1.507   6.873 -0.3222  0.0764 -0.4104
 1781Sol     HW10150   2.538   1.489   6.967  1.2871 -0.1433 -0.4136
 1781Sol     HW10151   2.633   1.510   6.850 -0.6904  0.2627 -1.9736
 1781Sol     MW10152   2.548   1.506   6.879  0.4292 -0.0435  0.2554
 1782Sol     OW10153   2.728   2.809   7.641 -0.4388  0.0540  0.1077
 1782Sol     HW10154   2.653   2.752   7.661 -1.1790  1.6891  2.2029
 1782Sol     HW10155   2.788   2.795   7.714 -0.7859  2.1825  0.8229
 1782Sol     MW10156   2.726   2.802   7.649  0.0774  0.4844 -0.2261
 1783Sol     OW10157   1.945   0.207   7.202  0.4820  0.0067 -0.4292
 1783Sol     HW10158   1.916   0.120   7.231  1.0550 -0.1083 -0.1860
 1783Sol     HW10159   2.012   0.231   7.266  0.7084  0.3954 -0.8190
 1783Sol     MW10160   1.948   0.201   7.211  0.1592  0.2816  0.1553
 1784Sol     OW10161   0.299   1.408   9.345  0.2680 -0.3040 -0.4620
 1784Sol     HW10162   0.218   1.415   9.395  0.3883 -0.1759 -0.2859
 1784Sol     HW10163   0.291   1.474   9.276  0.0742 -0.5251 -0.6512
 1784Sol     MW10164   0.291   1.414   9.343  0.1297  0.8968 -0.2182
 1785Sol     OW10165   0.968   3.304   8.960  0.5457  0.0723  0.3422
 1785Sol     HW10166   1.018   3.365   8.906  0.6142 -0.8466 -0.6429
 1785Sol     HW10167   1.030   3.274   9.026  0.3062  1.6307  1.3140
 1785Sol     MW10168   0.978   3.307   8.961  0.1707 -0.2344 -0.3532
 1786Sol     OW10169   1.445   2.370   4.851 -0.9548 -0.7109 -0.5729
 1786Sol     HW10170   1.370   2.419   4.817 -0.3061  1.0107  0.4058
 1786Sol     HW10171   1.521   2.411   4.810 -0.2704  0.3938  1.7069
 1786Sol     MW10172   1.445   2.378   4.844  0.0210 -0.8410  0.2789
 1787Sol     OW10173   1.782   2.482   5.892  0.1641 -0.1669 -0.3319
 1787Sol     HW10174   1.698   2.514   5.926  0.1922  0.8420 -1.2007
 1787Sol     HW10175   1.768   2.388   5.881 -0.2782 -0.2938  1.1813
 1787Sol     MW10176   1.773   2.476   5.894  0.1258 -0.5257 -0.3944
 1788Sol     OW10177   0.391   1.256   9.680 -0.2626 -0.2745 -0.3578
 1788Sol     HW10178   0.418   1.173   9.642  0.4755 -0.0798 -0.2697
 1788Sol     HW10179   0.451   1.321   9.643 -1.2127  0.3143 -0.8960
 1788Sol     MW10180   0.399   1.255   9.674  0.6372 -0.2859 -0.5548
 1789Sol     OW10181   1.296   2.137   6.167  0.1216  0.7531  0.3452
 1789Sol     HW10182   1.269   2.052   6.131  0.3999  0.2492  1.2903
 1789Sol     HW10183   1.217   2.190   6.165 -0.1207  0.3802 -0.0261
 1789Sol     MW10184   1.287   2.134   6.164  0.7156  0.1044  0.1112
 1790Sol     OW10185   2.762   3.311   4.585  0.2941 -0.0264  0.4511
 1790Sol     HW10186   2.715   3.292   4.666 -1.3426  1.1733 -0.1885
 1790Sol     HW10187   2.790   3.402   4.594 -0.4407  0.3080 -0.5920
 1790Sol     MW10188   2.761   3.317   4.593 -0.4233  0.2608  0.1044
 1791Sol     OW10189   1.810   1.181   7.753 -0.2174 -0.1946  0.4275
 1791Sol     HW10190   1.781   1.170   7.844 -1.1436 -1.3234  0.0180
 1791Sol     HW10191   1.747   1.129   7.702  1.2349 -0.8801 -0.7071
 1791Sol     MW10192   1.801   1.175   7.757 -0.4975 -0.2423 -0.9933
 1792Sol     OW10193   2.572   1.378   2.210  0.8040  0.1975  0.9941
 1792Sol     HW10194   2.593   1.302   2.156 -2.5949 -0.1099  0.0258
 1792Sol     HW10195   2.558   1.449   2.147  1.2092  0.9578  1.7430
 1792Sol     MW10196   2.573   1.378   2.199 -0.0830  0.0337  0.7410
 1793Sol     OW10197   2.194   2.856   9.030 -0.0477  0.1826  0.1851
 1793Sol     HW10198   2.258   2.831   8.963  1.1004  0.6300  1.1098
 1793Sol     HW10199   2.123   2.793   9.019  2.2885 -2.8283  1.7392
 1793Sol     MW10200   2.193   2.848   9.023 -0.5607 -0.1814  0.2452
 1794Sol     OW10201   0.589   2.500   4.627  0.1482  0.3457  0.4025
 1794Sol     HW10202   0.576   2.556   4.551 -0.3087  0.3796  0.5076
 1794Sol     HW10203   0.564   2.554   4.702 -0.8381 -0.1823  0.4605
 1794Sol     MW10204   0.586   2.510   4.627 -0.0325 -0.3152 -0.1961
 1795Sol     OW10205   0.494   0.963   4.999 -0.0331 -0.4082  0.5336
 1795Sol     HW10206   0.568   1.008   4.959 -0.0846 -0.3931  0.4566
 1795Sol     HW10207   0.475   0.890   4.940 -0.2138 -0.2890  0.4479
 1795Sol     MW10208   0.499   0.960   4.990 -0.1461 -0.0693 -0.4416
 1796Sol     OW10209   0.821   1.793   4.873  0.2258  0.1152 -0.4032
 1796Sol     HW10210   0.868   1.873   4.897  1.2614 -0.6928  0.3184
 1796Sol     HW10211   0.885   1.723   4.886 -0.5287 -0.7834 -1.4771
 1796Sol     MW10212   0.831   1.794   4.877 -0.3969  0.1519 -0.0069
 1797Sol     OW10213   0.397   1.285   1.387  0.3554 -0.0627 -0.0528
 1797Sol     HW10214   0.341   1.249   1.455 -0.1651  1.8360  0.5518
 1797Sol     HW10215   0.486   1.276   1.422  0.0550  1.3309  1.0895
 1797Sol     MW10216   0.400   1.281   1.396  0.2040 -0.1092  0.4322
 1798Sol     OW10217   2.075   3.258   4.993 -0.4414 -0.1634 -0.2173
 1798Sol     HW10218   2.137   3.311   5.043 -1.2536 -0.6625  1.3498
 1798Sol     HW10219   2.127   3.221   4.922  0.5209  1.3093 -0.3017
 1798Sol     MW10220   2.085   3.260   4.991 -0.5380  0.7020 -0.1250
 1799Sol     OW10221   3.022   0.717   2.371 -0.8531 -0.2544  0.2703
 1799Sol     HW10222   2.985   0.771   2.301 -1.2882  0.4487  1.0247
 1799Sol     HW10223   2.962   0.729   2.444 -0.0743 -0.5007  0.9550
 1799Sol     MW10224   3.013   0.723   2.371 -0.4545  0.5932 -0.3218
 1800Sol     OW10225   2.164   0.216   7.900 -0.3823  0.1622 -0.4949
 1800Sol     HW10226   2.123   0.144   7.950 -1.1309  0.3496 -0.8356
 1800Sol     HW10227   2.157   0.292   7.958 -1.1400  0.3514 -0.8304
 1800Sol     MW10228   2.159   0.216   7.910  0.4079 -0.6093 -0.1591
 1801Sol     OW10229   0.441   1.540   8.759 -0.0736  0.1563 -0.1223
 1801Sol     HW10230   0.449   1.463   8.816  0.2059 -0.3432 -0.8246
 1801Sol     HW10231   0.362   1.584   8.790 -0.1834 -0.3657  0.3526
 1801Sol     MW10232   0.434   1.537   8.767 -0.7900  0.5812 -0.6108
 1802Sol     OW10233   2.087   2.815   4.024  0.2759 -0.0732 -0.3451
 1802Sol     HW10234   2.074   2.894   4.075  1.6519  0.6930 -1.1552
 1802Sol     HW10235   2.180   2.794   4.035  0.1679 -0.9499 -1.0172
 1802Sol     MW10236   2.095   2.820   4.029 -0.0192  0.5408  0.4896
 1803Sol     OW10237   2.727   0.455   2.911 -0.8161  0.2192 -0.0139
 1803Sol     HW10238   2.663   0.386   2.928  0.0840 -0.2189  1.7603
 1803Sol     HW10239   2.800   0.434   2.969  0.1064  1.8235 -0.5659
 1803Sol     MW10240   2.728   0.447   2.918 -0.1076  0.1469  0.3050
 1804Sol     OW10241   0.730   0.981   9.186  0.0199  0.8396  0.1283
 1804Sol     HW10242   0.666   0.923   9.229 -1.0494  0.7537 -1.5236
 1804Sol     HW10243   0.800   0.992   9.250  0.9211 -3.3916  0.0170
 1804Sol     MW10244   0.730   0.977   9.196 -0.0770 -0.4284 -0.0186
 1805Sol     OW10245   2.232   3.011   9.770 -0.0671 -0.0111  0.0446
 1805Sol     HW10246   2.219   3.096   9.727  0.2870 -0.6455 -1.3553
 1805Sol     HW10247   2.285   3.031   9.847 -0.5619  1.1385  0.0952
 1805Sol     MW10248   2.236   3.021   9.773 -0.8085 -0.0346 -0.1545
 1806Sol     OW10249   2.258   1.209   7.969  0.0683 -0.0665 -0.2815
 1806Sol     HW10250   2.273   1.304   7.969  0.8034 -0.1472 -2.8480
 1806Sol     HW10251   2.342   1.172   7.996  0.0306 -0.0255 -0.1051
 1806Sol     MW10252   2.267   1.214   7.972 -0.3219 -0.7075 -0.0310
 1807Sol     OW10253   2.451   1.296   3.902  0.0485 -0.4363 -0.1382
 1807Sol     HW10254   2.489   1.383   3.889  0.0906 -0.3095  0.8088
 1807Sol     HW10255   2.357   1.309   3.896  0.0585 -0.3310 -0.0662
 1807Sol     MW10256   2.446   1.305   3.900 -0.2682  0.2847  0.0125
 1808Sol     OW10257   1.810   0.106   7.792 -0.2148  0.4122  0.3347
 1808Sol     HW10258   1.825   0.104   7.698  1.5552 -0.9855  0.6071
 1808Sol     HW10259   1.727   0.151   7.803 -0.9631 -0.3491 -1.9716
 1808Sol     MW10260   1.804   0.110   7.785  0.1022  0.3291  0.3813
 1809Sol     OW10261   2.241   1.508   2.026  0.4597  0.2923  0.1136
 1809Sol     HW10262   2.206   1.437   2.079 -1.1733  0.7436 -0.3298
 1809Sol     HW10263   2.302   1.466   1.966 -1.2811 -0.9002 -0.8465
 1809Sol     MW10264   2.243   1.498   2.025 -0.7059  0.3323  0.0625
 1810Sol     OW10265   2.059   0.128   1.570 -0.4969  0.0565 -0.3779
 1810Sol     HW10266   2.037   0.210   1.613  0.7044  0.0069  0.3443
 1810Sol     HW10267   1.975   0.091   1.543 -1.1260  0.8676  0.4824
 1810Sol     MW10268   2.050   0.132   1.571 -0.5912 -0.4883 -0.4174
 1811Sol     OW10269   2.876   1.040   5.458 -0.5483  0.3183 -0.0778
 1811Sol     HW10270   2.832   1.035   5.542  2.0830  0.1399  1.3526
 1811Sol     HW10271   2.920   1.124   5.458  0.9734 -0.4538 -0.4822
 1811Sol     MW10272   2.876   1.047   5.466 -0.5521  0.2928  0.3952
 1812Sol     OW10273   1.929   2.067   6.044  0.2218  0.1615  0.2134
 1812Sol     HW10274   2.016   2.096   6.016 -0.0074 -0.0694 -0.7717
 1812Sol     HW10275   1.923   1.977   6.010 -0.8419  0.5804 -0.7186
 1812Sol     MW10276   1.937   2.061   6.038 -0.1503  0.3993 -0.0717
 1813Sol     OW10277   0.415   1.398   3.324 -0.8112  0.2160 -0.2183
 1813Sol     HW10278   0.359   1.442   3.260  0.2938  2.6210  0.3829
 1813Sol     HW10279   0.407   1.452   3.403  0.3721 -0.8565  0.6542
 1813Sol     MW10280   0.409   1.407   3.325 -0.0122  0.2390  0.3303
 1814Sol     OW10281   1.490   0.009   2.462 -0.2026  0.2814 -0.2731
 1814Sol     HW10282   1.510   0.066   2.536 -0.5718  2.0652 -1.4980
 1814Sol     HW10283   1.494  -0.080   2.497 -1.4303  1.1352  2.1229
 1814Sol     MW10284   1.492   0.006   2.472  0.2081 -0.0390 -0.0028
 1815Sol     OW10285   0.549   2.384   3.826 -0.5514 -0.1428 -1.1634
 1815Sol     HW10286   0.616   2.381   3.894  0.1010  1.1646 -1.7384
 1815Sol     HW10287   0.468   2.405   3.873 -0.0235  1.2146 -0.8488
 1815Sol     MW10288   0.548   2.385   3.836  0.4199  0.1904 -0.0418
 1816Sol     OW10289   1.122   2.067   5.203 -0.1501  0.3086  0.5733
 1816Sol     HW10290   1.106   2.160   5.186 -0.2496 -0.0966 -1.6348
 1816Sol     HW10291   1.200   2.047   5.151 -0.5577 -1.0237  0.4812
 1816Sol     MW10292   1.128   2.074   5.197 -0.1133  0.9313 -0.5249
 1817Sol     OW10293   1.751   0.873   2.125 -0.5930 -0.0805 -0.2956
 1817Sol     HW10294   1.688   0.816   2.169 -0.3073  0.1186  0.3659
 1817Sol     HW10295   1.753   0.952   2.178  1.4229 -0.7127  0.6106
 1817Sol     MW10296   1.745   0.875   2.133  0.0689  0.2030 -0.3309
 1818Sol     OW10297   3.027   0.239   9.087  0.1443 -0.0619 -0.1184
 1818Sol     HW10298   2.993   0.324   9.059  0.4410  0.1627  0.1992
 1818Sol     HW10299   2.994   0.229   9.177 -0.3297 -0.5221 -0.3366
 1818Sol     MW10300   3.021   0.246   9.093  0.8819 -0.2371  0.7637
 1819Sol     OW10301   2.263   2.550   9.285  0.2700  0.0999 -0.7207
 1819Sol     HW10302   2.245   2.535   9.378  0.1415  3.5769 -0.1137
 1819Sol     HW10303   2.314   2.631   9.283 -2.1595  1.6608 -3.8259
 1819Sol     MW10304   2.266   2.556   9.293 -0.3905 -0.4223  0.0461
 1820Sol     OW10305   0.431   1.835   9.930  0.2342 -0.4870  0.1930
 1820Sol     HW10306   0.364   1.766   9.928 -0.7419  0.4426  0.3549
 1820Sol     HW10307   0.395   1.904   9.875  1.0958 -0.0029  0.2420
 1820Sol     MW10308   0.421   1.835   9.925  0.1527 -0.8731  0.4133
 1821Sol     OW10309   1.560   0.819   5.625 -0.4852 -0.6185 -0.1503
 1821Sol     HW10310   1.573   0.772   5.708  0.7123 -0.4342 -0.2234
 1821Sol     HW10311   1.561   0.911   5.650  0.9319 -0.5314 -0.5014
 1821Sol     MW10312   1.561   0.823   5.635 -0.3100  0.3722 -0.1532
 1822Sol     OW10313   0.626   0.125   1.431  0.0258 -0.0440  0.2404
 1822Sol     HW10314   0.698   0.163   1.380  0.2592 -1.0617 -0.2071
 1822Sol     HW10315   0.555   0.187   1.422 -0.1325 -0.4973 -1.8551
 1822Sol     MW10316   0.626   0.134   1.426 -0.0104  0.5651  0.5991
 1823Sol     OW10317   0.250   1.778   5.865 -0.0298 -0.5519 -0.1705
 1823Sol     HW10318   0.316   1.811   5.804 -0.5597  1.4337  0.3216
 1823Sol     HW10319   0.293   1.703   5.907  0.7407 -1.2560 -2.1518
 1823Sol     MW10320   0.260   1.774   5.863  0.3144  0.2194  0.3862
 1824Sol     OW10321   0.573   2.909   5.207  0.2432  0.0873 -0.8728
 1824Sol     HW10322   0.559   2.995   5.246 -1.7317 -0.2824 -0.6999
 1824Sol     HW10323   0.574   2.848   5.281 -1.2665 -0.3536 -1.1935
 1824Sol     MW10324   0.572   2.911   5.217 -0.0039  0.3341  0.1424
 1825Sol     OW10325   0.919   1.241   5.636 -0.0490 -0.7234 -0.2008
 1825Sol     HW10326   0.940   1.201   5.551  1.7483  0.6365 -0.4458
 1825Sol     HW10327   0.872   1.321   5.614 -0.3279 -0.8039  0.1112
 1825Sol     MW10328   0.917   1.244   5.626  0.0258  0.0546  0.0971
 1826Sol     OW10329   3.123   3.394   2.700  0.4883  0.0939  0.1935
 1826Sol     HW10330   3.147   3.474   2.746 -2.7638  0.6311  1.1450
 1826Sol     HW10331   3.152   3.323   2.757  0.0854  0.6852  1.1385
 1826Sol     MW10332   3.127   3.395   2.709 -0.2890  0.3206  0.0302
 1827Sol     OW10333   1.137   1.057   4.470 -0.8374 -0.1602 -0.0614
 1827Sol     HW10334   1.233   1.055   4.473 -0.7704 -3.1044 -1.6579
 1827Sol     HW10335   1.110   1.079   4.559  1.3270 -1.6328  1.0115
 1827Sol     MW10336   1.144   1.059   4.478 -0.0649  0.0838 -0.3714
 1828Sol     OW10337   2.819   3.004   3.982  0.0783  0.1927  0.2804
 1828Sol     HW10338   2.847   3.018   3.891 -0.8374 -3.5577 -0.6545
 1828Sol     HW10339   2.739   3.055   3.990  1.0361  1.8810 -0.4745
 1828Sol     MW10340   2.815   3.010   3.974  0.3405  0.4281  0.2505
 1829Sol     OW10341   1.501   0.338   5.130  0.0006  0.4880 -0.4418
 1829Sol     HW10342   1.509   0.418   5.182 -0.4162 -0.3141  0.8795
 1829Sol     HW10343   1.552   0.272   5.178 -0.4771 -0.2875 -0.9866
 1829Sol     MW10344   1.506   0.339   5.139 -0.1026 -0.5774  0.2349
 1830Sol     OW10345   1.102   2.872   4.217 -0.6240  0.2899  0.3387
 1830Sol     HW10346   1.098   2.776   4.217 -0.8110  0.2961 -0.1296
 1830Sol     HW10347   1.075   2.897   4.305 -0.3373 -0.0968  0.5386
 1830Sol     MW10348   1.099   2.865   4.225  0.2830 -0.1600 -0.0719
 1831Sol     OW10349   0.033   3.378   6.103  0.3997  0.5674  0.0414
 1831Sol     HW10350   0.074   3.354   6.186  1.3995  0.3654 -0.5146
 1831Sol     HW10351   0.084   3.452   6.071  0.7004 -0.0503 -0.9348
 1831Sol     MW10352   0.041   3.383   6.108 -0.0522  0.6563 -0.6142
 1832Sol     OW10353   0.243   1.550   2.754 -0.8029  0.0169 -0.2377
 1832Sol     HW10354   0.165   1.595   2.786 -1.3126  0.4106 -2.0219
 1832Sol     HW10355   0.211   1.487   2.690  0.5175  1.7906 -2.7172
 1832Sol     MW10356   0.233   1.548   2.751 -0.5063  0.2835  0.2509
 1833Sol     OW10357   3.134   2.884   6.457  0.5775  0.4453  0.3338
 1833Sol     HW10358   3.208   2.917   6.508  0.4892  0.6777  0.3073
 1833Sol     HW10359   3.142   2.788   6.464  0.3335  0.4804  1.1159
 1833Sol     MW10360   3.141   2.878   6.463 -0.3118  0.1283  0.6354
 1834Sol     OW10361   0.778   2.963   6.042  0.3018  0.0528  0.1037
 1834Sol     HW10362   0.853   2.904   6.033  1.9737  2.2305 -0.8400
 1834Sol     HW10363   0.799   3.037   5.984 -2.8181  0.4929 -0.5447
 1834Sol     MW10364   0.787   2.964   6.036 -0.0104  0.0624  0.1566
 1835Sol     OW10365   1.757   2.097   2.021 -0.1566 -0.1089  0.1403
 1835Sol     HW10366   1.780   2.005   2.007 -1.7246 -0.4972  0.0554
 1835Sol     HW10367   1.698   2.096   2.097  0.0194  0.8574  0.2999
 1835Sol     MW10368   1.754   2.089   2.027 -0.3107  0.0361 -0.1618
 1836Sol     OW10369   3.008   2.953   9.703  0.4488  0.0773 -0.2392
 1836Sol     HW10370   3.036   2.869   9.740  0.7255 -0.6051 -1.9712
 1836Sol     HW10371   3.056   2.960   9.621 -0.6275  1.2953 -0.7736
 1836Sol     MW10372   3.015   2.946   9.699  0.0293 -0.3560  0.2030
 1837Sol     OW10373   0.680   2.258   2.439  0.6858  0.0280  0.5475
 1837Sol     HW10374   0.598   2.231   2.398  1.2921 -1.2597  0.1606
 1837Sol     HW10375   0.654   2.319   2.508 -0.4970  0.5864 -0.3755
 1837Sol     MW10376   0.670   2.261   2.442 -0.6082  0.8985  0.4786
 1838Sol     OW10377   2.205   1.609   8.433 -0.0465  0.5665 -0.6194
 1838Sol     HW10378   2.228   1.697   8.404 -0.5282  1.1409  0.7170
 1838Sol     HW10379   2.175   1.620   8.523 -1.4882 -0.7678 -0.9201
 1838Sol     MW10380   2.205   1.618   8.438 -0.4133  0.3838  0.1222
 1839Sol     OW10381   1.024   0.663   9.823 -0.6026  0.3759  0.2259
 1839Sol     HW10382   1.099   0.715   9.794 -0.0040 -0.1609  0.7990
 1839Sol     HW10383   0.968   0.726   9.870  0.3884  0.3988  1.3982
 1839Sol     MW10384   1.026   0.673   9.825  0.2511 -0.5030 -0.2653
 1840Sol     OW10385   0.932   2.170   1.465  0.2063 -0.7955 -1.0075
 1840Sol     HW10386   1.024   2.185   1.485 -0.2055 -1.1847  1.4862
 1840Sol     HW10387   0.925   2.179   1.370  2.2979  1.8651 -0.9607
 1840Sol     MW10388   0.939   2.172   1.459  0.2025  0.1109  0.0181
 1841Sol     OW10389   1.316   1.378   4.239  0.8247 -0.1763  0.5510
 1841Sol     HW10390   1.360   1.295   4.257 -0.0693 -0.3211  2.1914
 1841Sol     HW10391   1.271   1.365   4.156  1.7936 -0.8747  0.1291
 1841Sol     MW10392   1.316   1.370   4.233  0.2554  0.3446 -0.3135
 1842Sol     OW10393   1.166   1.113   6.636  0.1755  0.2347  0.2416
 1842Sol     HW10394   1.091   1.068   6.598  0.3400 -0.1554  0.3813
 1842Sol     HW10395   1.148   1.117   6.730 -0.3468  1.4146  0.1070
 1842Sol     MW10396   1.158   1.110   6.641  0.2058 -0.7945  0.3884
 1843Sol     OW10397   3.087   0.734   6.186  0.0448  0.6114 -0.3878
 1843Sol     HW10398   3.111   0.718   6.095 -1.4343 -0.3191 -0.6382
 1843Sol     HW10399   3.095   0.829   6.197 -0.0975  0.7727 -1.5997
 1843Sol     MW10400   3.090   0.741   6.179  0.1017 -0.3179 -0.5666
 1844Sol     OW10401   1.288   0.336   8.065  0.5859 -0.5874 -0.2196
 1844Sol     HW10402   1.281   0.377   8.151 -0.2934 -1.0884 -0.0449
 1844Sol     HW10403   1.378   0.305   8.060  0.7632 -0.1583  0.3436
 1844Sol     MW10404   1.295   0.337   8.072 -0.5115  0.4151 -0.1457
 1845Sol     OW10405   0.228   2.038   3.583 -0.5040 -0.5083  0.3714
 1845Sol     HW10406   0.193   1.957   3.618 -1.0527  0.1981  1.4804
 1845Sol     HW10407   0.314   2.014   3.548 -0.7450 -1.5951  0.5238
 1845Sol     MW10408   0.233   2.029   3.583 -0.4430 -0.3306  0.1759
 1846Sol     OW10409   2.292   3.283   9.781  0.8221  0.4480 -0.5372
 1846Sol     HW10410   2.361   3.307   9.719  0.0766 -2.0642 -2.4314
 1846Sol     HW10411   2.336   3.229   9.846  1.0513  0.7253 -0.4589
 1846Sol     MW10412   2.302   3.281   9.781  0.3965 -0.1739 -0.2845
 1847Sol     OW10413   2.747   1.976   8.462  0.4408  0.1810 -0.0180
 1847Sol     HW10414   2.758   2.047   8.399  1.4878  0.1669  0.1348
 1847Sol     HW10415   2.678   1.921   8.424  0.2918  0.7588 -0.6053
 1847Sol     MW10416   2.742   1.978   8.453  0.4984  0.7571 -1.0443
 1848Sol     OW10417   2.212   2.598   6.325 -0.1281 -0.2562 -0.0460
 1848Sol     HW10418   2.277   2.569   6.389 -0.7380  3.1545  2.2641
 1848Sol     HW10419   2.137   2.541   6.341  0.6869 -1.2369  0.3929
 1848Sol     MW10420   2.211   2.591   6.332 -0.5727 -0.1446  0.1004
 1849Sol     OW10421   1.939   1.872   9.164  0.0409  0.0381 -0.5850
 1849Sol     HW10422   1.981   1.786   9.164  1.0933  0.5325 -1.0977
 1849Sol     HW10423   1.852   1.857   9.129 -0.4793 -1.1397  1.1610
 1849Sol     MW10424   1.935   1.863   9.161  0.3000 -0.2428 -0.4418
 1850Sol     OW10425   2.657   1.541   3.872  0.1684  0.2072  0.3697
 1850Sol     HW10426   2.610   1.623   3.856  0.6228  0.4442  0.2611
 1850Sol     HW10427   2.750   1.565   3.866  0.2956 -0.5058 -0.6062
 1850Sol     MW10428   2.661   1.551   3.870  1.0278  0.7799 -0.4679
 1851Sol     OW10429   0.993   3.417   6.570 -0.6232  0.5226  0.1215
 1851Sol     HW10430   1.016   3.377   6.655  1.6575  1.0167 -0.2325
 1851Sol     HW10431   0.970   3.342   6.515 -0.7088  0.0636  0.7658
 1851Sol     MW10432   0.993   3.406   6.573  0.1654 -0.2520  0.1699
 1852Sol     OW10433   0.580   1.676   1.965  0.5393 -0.5642  0.1158
 1852Sol     HW10434   0.597   1.739   2.034  0.1430 -0.8756  0.5071
 1852Sol     HW10435   0.522   1.721   1.904  1.8164  0.1063 -0.6270
 1852Sol     MW10436   0.576   1.685   1.966 -0.1951  0.0349  0.7874
 1853Sol     OW10437   1.390   0.667   6.332  0.3820  0.0674 -0.5118
 1853Sol     HW10438   1.305   0.708   6.348  0.3827  0.0517 -0.4676
 1853Sol     HW10439   1.369   0.578   6.305  0.4358 -0.4544  1.1094
 1853Sol     MW10440   1.381   0.663   6.331  0.7275  0.7300  0.0569
 1854Sol     OW10441   1.642   3.165   2.185 -0.2832  0.3747 -0.6375
 1854Sol     HW10442   1.697   3.087   2.189  1.3948  1.5736  0.6273
 1854Sol     HW10443   1.569   3.147   2.243  1.3708  0.6480  1.6087
 1854Sol     MW10444   1.641   3.157   2.191 -0.1950  0.5328 -0.4506
 1855Sol     OW10445   0.342   0.808   1.930  0.6011 -0.2854  0.1915
 1855Sol     HW10446   0.354   0.779   1.840  5.7859  0.1748  0.5562
 1855Sol     HW10447   0.421   0.778   1.975 -0.1115  2.7474  3.6790
 1855Sol     MW10448   0.350   0.803   1.926 -0.7893 -0.0230  0.2753
 1856Sol     OW10449   1.999   3.107   7.914  0.3016  0.4801 -0.4587
 1856Sol     HW10450   1.997   3.150   7.829 -1.0296  1.3105 -0.0334
 1856Sol     HW10451   2.009   3.014   7.894  0.9674  0.7671 -1.4827
 1856Sol     MW10452   1.999   3.102   7.905 -0.1677 -1.0589  0.2169
 1857Sol     OW10453   1.969   1.017   9.321  0.1127 -0.7029 -0.3560
 1857Sol     HW10454   2.014   1.035   9.404 -0.1520 -0.4497 -0.2674
 1857Sol     HW10455   2.039   1.004   9.258  0.3118  1.5385 -0.6180
 1857Sol     MW10456   1.979   1.017   9.323  0.3454  0.0811 -0.5815
 1858Sol     OW10457   1.442   0.334   2.866  0.0825 -0.3514  0.0971
 1858Sol     HW10458   1.501   0.410   2.865  1.7573 -1.6499 -0.0187
 1858Sol     HW10459   1.415   0.326   2.958  0.1607  0.1587  0.1690
 1858Sol     MW10460   1.445   0.340   2.874  0.5767 -0.4082  0.6804
 1859Sol     OW10461   2.036   1.999   7.114  0.3872 -0.3149 -0.7215
 1859Sol     HW10462   2.016   2.091   7.135 -0.4375 -0.5185 -0.6118
 1859Sol     HW10463   2.063   2.001   7.022 -2.1900 -0.3227 -1.5112
 1859Sol     MW10464   2.037   2.008   7.107 -0.2095  0.2494  0.4365
 1860Sol     OW10465   0.453   3.157   8.755 -0.5312 -0.2842 -0.3768
 1860Sol     HW10466   0.521   3.148   8.687 -1.0816 -0.8457 -0.8641
 1860Sol     HW10467   0.376   3.187   8.708 -0.7137  0.0372  0.1263
 1860Sol     MW10468   0.453   3.159   8.744 -0.0598 -0.8001  0.4011
 1861Sol     OW10469   3.220   3.039   1.379  0.1316  0.1813 -0.4313
 1861Sol     HW10470   3.199   3.120   1.426 -0.0701 -1.0210  1.5869
 1861Sol     HW10471   3.138   2.990   1.378  0.0920  0.2434 -2.2146
 1861Sol     MW10472   3.211   3.042   1.383 -0.5891 -0.2685  0.1828
 1862Sol     OW10473   0.052   1.431   9.413  0.1954 -0.0583  0.6021
 1862Sol     HW10474   0.025   1.354   9.462 -0.6305 -0.0663  0.1500
 1862Sol     HW10475   0.026   1.505   9.468  2.7884 -0.1144  1.9594
 1862Sol     MW10476   0.047   1.431   9.422 -0.0500 -0.5429  0.6316
 1863Sol     OW10477   0.995   1.744   9.785  0.3266 -0.0838  0.6928
 1863Sol     HW10478   0.910   1.787   9.779  0.7958  0.8422  0.6536
 1863Sol     HW10479   0.986   1.665   9.732  0.1265  1.0484 -0.9908
 1863Sol     MW10480   0.987   1.741   9.780 -0.5136  0.2708  0.3505
 1864Sol     OW10481   0.795   0.836   9.842  0.5347 -0.3637  0.0289
 1864Sol     HW10482   0.805   0.929   9.822  0.5583 -0.0623  1.3543
 1864Sol     HW10483   0.706   0.828   9.877  1.3653 -0.3648  2.2518
 1864Sol     MW10484   0.788   0.844   9.844 -0.2806  0.5476  0.4636
 1865Sol     OW10485   3.267   0.241   4.925  0.3007  0.4721 -0.6575
 1865Sol     HW10486   3.217   0.181   4.870  0.9791  0.2844 -1.0695
 1865Sol     HW10487   3.275   0.196   5.009  0.6631  0.0535 -0.9151
 1865Sol     MW10488   3.263   0.232   4.928  0.2881 -0.2347 -0.4401
 1866Sol     OW10489   2.224   0.251   5.897  0.1555 -0.0483 -0.2981
 1866Sol     HW10490   2.144   0.285   5.857  0.0353  0.6076  0.4703
 1866Sol     HW10491   2.193   0.198   5.970  0.3295 -2.1270 -1.6950
 1866Sol     MW10492   2.214   0.250   5.900  0.2664 -0.0606 -0.2978
 1867Sol     OW10493   3.074   1.903   3.348  0.3643  0.3953  0.5947
 1867Sol     HW10494   3.027   1.987   3.359  1.1513  1.3237 -2.5845
 1867Sol     HW10495   3.165   1.928   3.335  0.6021 -0.9710 -0.4333
 1867Sol     MW10496   3.078   1.913   3.348  0.1281  0.0088  0.0968
 1868Sol     OW10497   0.860   2.706   8.117  0.4054 -0.3572  0.0991
 1868Sol     HW10498   0.862   2.801   8.115  1.2194 -0.3796 -0.2188
 1868Sol     HW10499   0.767   2.684   8.107  0.2931  0.3833 -0.5405
 1868Sol     MW10500   0.851   2.712   8.116  0.6050  0.2638 -0.3456
 1869Sol     OW10501   0.342   2.415   8.834  0.1244 -0.4598 -0.2107
 1869Sol     HW10502   0.284   2.486   8.807  0.0075 -0.7837 -0.8166
 1869Sol     HW10503   0.401   2.403   8.760  1.7435  0.6720  0.8633
 1869Sol     MW10504   0.342   2.420   8.825  0.1621 -0.7048  0.6649
 1870Sol     OW10505   0.351   1.226   2.207  0.3060 -0.1051  0.0015
 1870Sol     HW10506   0.312   1.176   2.135  0.7711 -0.8276  0.2418
 1870Sol     HW10507   0.443   1.199   2.208  0.2021 -0.4877  1.1709
 1870Sol     MW10508   0.355   1.219   2.201  0.2054 -0.1279 -0.8711
 1871Sol     OW10509   2.106   1.208   2.530  0.5985 -0.0393 -0.7627
 1871Sol     HW10510   2.088   1.115   2.522  2.1449 -0.5372  1.2070
 1871Sol     HW10511   2.024   1.251   2.502 -0.1780 -1.9574 -1.4976
 1871Sol     MW10512   2.097   1.204   2.527 -0.3379 -0.3639 -0.2101
 1872Sol     OW10513   2.425   0.820   4.069  0.4080  0.2011  0.4423
 1872Sol     HW10514   2.464   0.907   4.066  0.9768 -0.0747 -0.6176
 1872Sol     HW10515   2.336   0.832   4.036 -0.5764  0.9084  3.2840
 1872Sol     MW10516   2.420   0.829   4.066  0.0833 -0.2883  0.0589
 1873Sol     OW10517   2.485   3.060   1.444  0.4724 -0.1069  0.0916
 1873Sol     HW10518   2.470   3.131   1.381  1.1688  0.5335  0.6315
 1873Sol     HW10519   2.418   3.072   1.511 -0.2923 -0.8109 -0.5398
 1873Sol     MW10520   2.478   3.068   1.444 -0.0291  0.0270 -0.4002
 1874Sol     OW10521   1.368   2.134   3.609 -0.3801 -0.1775 -0.4382
 1874Sol     HW10522   1.421   2.142   3.530 -1.0833 -0.4578 -0.9493
 1874Sol     HW10523   1.297   2.074   3.584  0.7445 -2.2309  1.1262
 1874Sol     MW10524   1.366   2.129   3.600 -0.2534 -0.0176  0.3322
 1875Sol     OW10525   2.423   1.412   8.798 -0.2669 -0.2163  0.2258
 1875Sol     HW10526   2.432   1.331   8.849  0.2223 -2.2475 -2.9272
 1875Sol     HW10527   2.500   1.463   8.821  0.5321 -1.5870  0.6836
 1875Sol     MW10528   2.430   1.409   8.804  0.1752  0.3807  0.3872
 1876Sol     OW10529   1.179   0.918   2.926  0.0912  0.6724 -0.2267
 1876Sol     HW10530   1.194   0.982   2.856 -0.4626  1.7350  0.6062
 1876Sol     HW10531   1.089   0.934   2.954  0.3931  0.4383  0.9067
 1876Sol     MW10532   1.173   0.925   2.922 -0.2635  0.2578  0.9506
 1877Sol     OW10533   2.415   0.363   8.433 -0.0535 -0.0339 -0.8259
 1877Sol     HW10534   2.354   0.380   8.361  0.5277 -0.4673 -1.4370
 1877Sol     HW10535   2.486   0.426   8.419  0.2878 -0.4295 -0.9194
 1877Sol     MW10536   2.416   0.370   8.425 -0.1935 -0.1278  0.2827
 1878Sol     OW10537   1.370   1.219   6.973 -0.5088 -0.1306 -0.0774
 1878Sol     HW10538   1.300   1.155   6.976 -0.2799 -0.3492  0.6306
 1878Sol     HW10539   1.417   1.200   6.891  0.8350 -2.2344  1.1375
 1878Sol     MW10540   1.368   1.212   6.966  0.0328 -0.8247 -0.1334
 1879Sol     OW10541   1.633   1.739   4.129  0.0864 -0.1231 -0.3386
 1879Sol     HW10542   1.713   1.688   4.142  0.2327  0.2374  0.1868
 1879Sol     HW10543   1.662   1.820   4.087  0.2617  0.8103  1.5006
 1879Sol     MW10544   1.642   1.742   4.127  0.6800  0.4128  0.4335
 1880Sol     OW10545   2.896   2.129   2.803 -0.8808 -0.1526  0.3687
 1880Sol     HW10546   2.925   2.147   2.892 -0.6261 -0.0576  0.2665
 1880Sol     HW10547   2.907   2.212   2.756 -3.7645  0.6213  0.9761
 1880Sol     MW10548   2.899   2.138   2.807  0.7490 -0.0016  0.2232
 1881Sol     OW10549   1.683   2.899   5.940 -0.6885  0.5600  0.7252
 1881Sol     HW10550   1.664   2.976   5.886  0.5403  0.0910 -0.4321
 1881Sol     HW10551   1.743   2.931   6.007  2.1942  0.1089 -1.4865
 1881Sol     MW10552   1.687   2.908   5.941 -0.3852  0.4432 -0.2107
 1882Sol     OW10553   0.513   2.000   2.928 -0.3879  0.3117  0.0809
 1882Sol     HW10554   0.460   2.074   2.956 -2.3251 -0.9722 -0.0595
 1882Sol     HW10555   0.496   1.992   2.834  0.2567  0.0452 -0.0180
 1882Sol     MW10556   0.507   2.006   2.922 -0.0254  0.1142  0.8278
 1883Sol     OW10557   3.208   2.595   6.460  0.1119 -0.0151  0.2613
 1883Sol     HW10558   3.185   2.546   6.539  0.1282 -0.7949 -0.2119
 1883Sol     HW10559   3.161   2.550   6.389 -0.9795  1.5041  0.0171
 1883Sol     MW10560   3.202   2.586   6.461 -0.4414  0.3902 -0.6265
 1884Sol     OW10561   3.287   0.620   6.600  0.5185  0.0637  0.6218
 1884Sol     HW10562   3.231   0.591   6.528  0.5016 -0.0892  0.6961
 1884Sol     HW10563   3.348   0.681   6.559  1.0808 -0.7029  0.3138
 1884Sol     MW10564   3.287   0.623   6.590 -0.1550  0.1351  0.8773
 1885Sol     OW10565   1.403   0.517   8.506  0.0023 -0.3224  0.0071
 1885Sol     HW10566   1.432   0.446   8.564  2.8134  1.3940  0.7689
 1885Sol     HW10567   1.370   0.584   8.565 -0.4187  0.0002 -0.5936
 1885Sol     MW10568   1.402   0.516   8.516 -0.1419 -0.0953  0.0956
 1886Sol     OW10569   0.997   0.628   2.885 -0.6864 -0.2394 -0.0670
 1886Sol     HW10570   1.083   0.591   2.869 -0.4266 -0.2648  1.3090
 1886Sol     HW10571   0.996   0.711   2.837 -0.2174 -0.6520 -0.7900
 1886Sol     MW10572   1.004   0.632   2.879 -0.1095 -0.4383  0.2737
 1887Sol     OW10573   2.025   2.186   5.193 -0.0643  0.5018 -0.2435
 1887Sol     HW10574   1.964   2.143   5.252  0.3366 -1.0100 -0.9055
 1887Sol     HW10575   1.972   2.250   5.145 -0.6952  0.6468  0.6430
 1887Sol     MW10576   2.015   2.188   5.194  0.1384  0.7951 -0.6171
 1888Sol     OW10577   1.440   3.239   9.067 -0.3806 -0.5653  0.0701
 1888Sol     HW10578   1.448   3.334   9.058 -0.9325 -0.5709 -0.5166
 1888Sol     HW10579   1.461   3.222   9.158  0.7358  0.0160 -0.0706
 1888Sol     MW10580   1.443   3.246   9.074  0.6690 -0.3965  0.6015
 1889Sol     OW10581   1.899   2.670   3.873  0.1880 -0.3289  0.1280
 1889Sol     HW10582   1.965   2.721   3.920 -1.5783  1.5293  0.6275
 1889Sol     HW10583   1.815   2.707   3.900 -1.0882 -2.6545 -0.5141
 1889Sol     MW10584   1.898   2.678   3.879 -0.0421  1.0059 -0.2935
 1890Sol     OW10585   2.335   3.053   3.995  0.7077 -0.6612 -0.1566
 1890Sol     HW10586   2.351   2.961   3.972 -2.1236 -1.5485  1.0715
 1890Sol     HW10587   2.324   3.097   3.910 -1.5313 -2.2325 -0.7511
 1890Sol     MW10588   2.335   3.049   3.985 -0.3085  0.3456  0.3966
 1891Sol     OW10589   2.486   1.174   8.933  0.0687  0.4055 -0.4204
 1891Sol     HW10590   2.528   1.176   9.019  0.9798 -0.5775 -0.8362
 1891Sol     HW10591   2.428   1.097   8.936  1.1515 -0.4476 -1.1660
 1891Sol     MW10592   2.484   1.167   8.941  0.3187 -0.3253  0.4506
 1892Sol     OW10593   1.313   0.835   3.377  0.0039 -0.1842 -0.3748
 1892Sol     HW10594   1.301   0.754   3.426  2.5103 -0.4336 -0.0734
 1892Sol     HW10595   1.274   0.818   3.291  0.3798 -1.6715 -0.2601
 1892Sol     MW10596   1.309   0.827   3.373  0.8751 -0.5559  0.5154
 1893Sol     OW10597   2.018   2.165   4.349  0.6336 -0.0678  0.3505
 1893Sol     HW10598   2.039   2.085   4.300  2.4775  2.5151 -3.3118
 1893Sol     HW10599   1.928   2.186   4.324  1.0521  0.4183 -0.7520
 1893Sol     MW10600   2.012   2.159   4.343  0.1203  0.4553  0.5102
 1894Sol     OW10601   0.091   2.322   8.259  0.2316 -0.0598 -0.2459
 1894Sol     HW10602   0.046   2.258   8.315 -0.4184  1.7599  1.3318
 1894Sol     HW10603   0.117   2.392   8.318  0.8418  1.2033 -1.9870
 1894Sol     MW10604   0.089   2.322   8.269 -0.4721 -0.5417 -0.2020
 1895Sol     OW10605   3.283   2.542   7.891 -0.1309 -0.2909 -0.1290
 1895Sol     HW10606   3.239   2.457   7.886  0.1640 -0.4036 -0.8957
 1895Sol     HW10607   3.373   2.520   7.917 -0.3859 -0.1043  0.9338
 1895Sol     MW10608   3.287   2.532   7.893  0.1592 -0.0233  0.0214
 1896Sol     OW10609   0.429   2.157   5.781  0.4605  0.4235  0.3774
 1896Sol     HW10610   0.494   2.215   5.743  0.0488  0.7594  0.1786
 1896Sol     HW10611   0.477   2.106   5.847  1.0294  0.2974 -0.1296
 1896Sol     MW10612   0.439   2.157   5.784  0.3738  0.4352 -0.3958
 1897Sol     OW10613   1.776   0.414   9.002 -0.1171  1.1628  0.3112
 1897Sol     HW10614   1.733   0.464   8.933 -0.7181  0.3759  0.1059
 1897Sol     HW10615   1.704   0.366   9.044  0.7324 -1.3028 -0.9621
 1897Sol     MW10616   1.765   0.414   9.000  0.6073  0.1858  1.1311
 1898Sol     OW10617   1.814   1.097   6.057 -0.0023 -0.0136  0.0854
 1898Sol     HW10618   1.839   1.108   5.965 -0.6281  0.9469  0.0154
 1898Sol     HW10619   1.838   1.181   6.098 -0.7747 -0.0118  0.5448
 1898Sol     MW10620   1.819   1.106   6.052 -0.5334 -0.4421  0.1565
 1899Sol     OW10621   2.668   1.148   7.055  0.0587  0.6715  0.7034
 1899Sol     HW10622   2.728   1.079   7.083 -1.3819 -0.2358  1.6784
 1899Sol     HW10623   2.606   1.103   6.997  0.0691  1.4938  0.0521
 1899Sol     MW10624   2.668   1.138   7.052 -0.6707 -0.0534 -0.0027
 1900Sol     OW10625   2.383   0.344   3.135  0.0047  0.2974 -0.2544
 1900Sol     HW10626   2.454   0.328   3.073 -0.8655 -1.3252 -0.8655
 1900Sol     HW10627   2.304   0.319   3.088 -0.9088  1.3984  0.6725
 1900Sol     MW10628   2.382   0.340   3.125  0.2198 -0.5449  0.1914
 1901Sol     OW10629   2.795   0.488   2.642  0.1748  0.0259  0.2930
 1901Sol     HW10630   2.817   0.409   2.592 -3.7959 -1.9347  1.4250
 1901Sol     HW10631   2.770   0.455   2.728  0.2388  2.7263  1.3888
 1901Sol     MW10632   2.795   0.478   2.645 -0.5002  0.3764  0.9872
 1902Sol     OW10633   1.843   1.287   8.448  0.1302  0.0559  0.1853
 1902Sol     HW10634   1.802   1.371   8.428  0.5918 -0.1107 -1.5453
 1902Sol     HW10635   1.782   1.222   8.413  0.0903 -0.3121  0.9396
 1902Sol     MW10636   1.834   1.289   8.443 -0.3944 -0.2655  0.5911
 1903Sol     OW10637   0.429   3.176   6.215  0.5405 -0.4756  0.3388
 1903Sol     HW10638   0.467   3.131   6.139 -0.4561 -1.1601  0.2270
 1903Sol     HW10639   0.353   3.122   6.238 -0.2717  0.7775  0.6386
 1903Sol     MW10640   0.426   3.167   6.210  1.1593 -0.2312  0.1789
 1904Sol     OW10641   2.308   0.889   7.036 -0.3255 -0.4485  0.5176
 1904Sol     HW10642   2.248   0.943   7.088 -0.8508  1.6214 -2.1093
 1904Sol     HW10643   2.345   0.828   7.098 -0.7458  2.0892  3.3778
 1904Sol     MW10644   2.306   0.889   7.046 -0.0638 -1.0870  0.1385
 1905Sol     OW10645   1.240   0.564   1.830 -0.1762 -0.5743  0.1793
 1905Sol     HW10646   1.281   0.614   1.759  1.5505 -1.7722  0.3133
 1905Sol     HW10647   1.215   0.631   1.894 -1.9416  0.5468 -1.6106
 1905Sol     MW10648   1.242   0.575   1.830  0.2753  0.4816  0.2702
 1906Sol     OW10649   1.808   0.611   2.684  0.1898 -0.1705  0.3619
 1906Sol     HW10650   1.749   0.622   2.609  0.6814 -1.3008 -0.1945
 1906Sol     HW10651   1.870   0.543   2.657  1.2178  0.3791  1.2766
 1906Sol     MW10652   1.808   0.606   2.675 -0.3385  0.4165  0.9061
 1907Sol     OW10653   0.804   1.250   6.406 -0.1145 -0.3064 -0.2402
 1907Sol     HW10654   0.711   1.234   6.420  0.0702 -1.1195  0.0792
 1907Sol     HW10655   0.811   1.272   6.313 -0.6661  0.0702 -0.1906
 1907Sol     MW10656   0.797   1.250   6.399 -0.0625 -0.0335 -0.3850
 1908Sol     OW10657   2.720   0.976   7.376 -0.1462  0.0880 -0.3816
 1908Sol     HW10658   2.713   0.885   7.404  0.5344 -0.0486 -0.6384
 1908Sol     HW10659   2.790   1.013   7.430 -0.1343  0.3478 -0.5710
 1908Sol     MW10660   2.726   0.971   7.383  0.6693  0.0800 -0.2395
 1909Sol     OW10661   1.454   2.796   6.082  0.2928  0.3847  0.4059
 1909Sol     HW10662   1.527   2.834   6.033 -0.5366  1.4811 -0.0013
 1909Sol     HW10663   1.476   2.703   6.089  1.3520  0.5601 -0.3693
 1909Sol     MW10664   1.463   2.791   6.079 -0.5247 -0.6348 -0.6329
 1910Sol     OW10665   2.519   0.710   7.689  0.4612  0.6686  0.2464
 1910Sol     HW10666   2.484   0.783   7.639  0.0845  0.3880  0.0962
 1910Sol     HW10667   2.490   0.725   7.779  1.6435  1.4900  0.5009
 1910Sol     MW10668   2.514   0.718   7.693 -0.2786 -0.2533  0.3318
 1911Sol     OW10669   2.438   0.991   7.333  0.2804 -0.4090  0.5300
 1911Sol     HW10670   2.456   0.908   7.288 -1.4666 -2.0029  2.7101
 1911Sol     HW10671   2.522   1.017   7.369  0.5815 -1.8856  0.9127
 1911Sol     MW10672   2.447   0.986   7.332  0.0383  0.3117  0.0784
 1912Sol     OW10673   1.680   2.978   4.311  0.0312 -0.3147 -0.4137
 1912Sol     HW10674   1.723   3.064   4.313 -1.8614  0.6219  1.3890
 1912Sol     HW10675   1.731   2.926   4.373 -1.5561  0.9058  2.0089
 1912Sol     MW10676   1.689   2.981   4.317  0.5573  0.4387 -0.4407
 1913Sol     OW10677   0.368   2.143   6.970  0.2664 -0.7257 -0.4900
 1913Sol     HW10678   0.335   2.230   6.992 -0.5795 -0.7821 -1.4882
 1913Sol     HW10679   0.317   2.117   6.893 -1.7748 -3.4889  1.7460
 1913Sol     MW10680   0.361   2.149   6.965  0.5238  0.7296  0.1054
 1914Sol     OW10681   3.100   0.860   1.955  0.0873  0.0519  1.0023
 1914Sol     HW10682   3.190   0.847   1.985  1.3504  0.3658 -2.4328
 1914Sol     HW10683   3.089   0.955   1.953  1.5662  0.2634 -3.4911
 1914Sol     MW10684   3.107   0.867   1.957 -0.0674 -0.0700 -0.0702
 1915Sol     OW10685   1.270   1.810   5.779 -0.3132 -0.3253  0.5566
 1915Sol     HW10686   1.297   1.784   5.867  2.0370  0.1724  0.0138
 1915Sol     HW10687   1.314   1.748   5.720 -0.7152  0.2239 -0.3398
 1915Sol     MW10688   1.276   1.802   5.781 -0.2826 -0.1322  0.4877
 1916Sol     OW10689   0.258   1.752   6.976 -0.1198  0.5184 -0.0057
 1916Sol     HW10690   0.205   1.752   6.896  0.8890 -0.5789 -0.6761
 1916Sol     HW10691   0.197   1.724   7.045 -0.0625 -2.2313 -1.0250
 1916Sol     MW10692   0.248   1.750   6.975  0.4021  0.7008 -0.2773
 1917Sol     OW10693   2.275   0.572   7.335  0.4796  0.4468  0.7251
 1917Sol     HW10694   2.244   0.501   7.279 -1.3695  0.1201  2.1161
 1917Sol     HW10695   2.359   0.541   7.369 -0.1869 -0.9643  1.1035
 1917Sol     MW10696   2.279   0.563   7.333 -0.1933 -0.3201 -0.2349
 1918Sol     OW10697   1.657   2.712   8.257 -0.5659 -0.3423 -0.1165
 1918Sol     HW10698   1.686   2.684   8.344  0.8652  0.7201 -0.2402
 1918Sol     HW10699   1.598   2.642   8.228 -0.8944 -0.8019  1.6175
 1918Sol     MW10700   1.654   2.703   8.262 -0.1838 -0.2525 -0.3904
 1919Sol     OW10701   1.432   2.303   5.126 -0.1473 -0.0808 -0.0573
 1919Sol     HW10702   1.403   2.366   5.192 -0.3339 -0.0149 -0.1999
 1919Sol     HW10703   1.446   2.356   5.047  0.3638 -0.1138  0.0085
 1919Sol     MW10704   1.430   2.313   5.124 -0.2089 -0.3246 -0.0505
 1920Sol     OW10705   1.565   2.503   3.862  0.2381  0.2374 -0.2448
 1920Sol     HW10706   1.602   2.591   3.857  3.0565 -0.6540  3.1953
 1920Sol     HW10707   1.629   2.447   3.820  0.3504 -0.6511  1.0664
 1920Sol     MW10708   1.574   2.506   3.858 -0.1196  0.3162  0.3389
 1921Sol     OW10709   2.026   0.652   7.455  0.3013 -0.1798  0.0390
 1921Sol     HW10710   2.106   0.607   7.426  0.8264  0.7420  0.0595
 1921Sol     HW10711   2.055   0.738   7.483 -0.8154  0.4468 -0.6899
 1921Sol     MW10712   2.036   0.655   7.454  1.0063 -0.5607 -0.0697
 1922Sol     OW10713   1.457   1.446   4.579 -0.2420  0.0773 -0.1638
 1922Sol     HW10714   1.362   1.436   4.580 -0.2083 -0.1753  1.6463
 1922Sol     HW10715   1.487   1.391   4.506 -1.5086  0.4677 -0.9851
 1922Sol     MW10716   1.451   1.440   4.573  0.1344  0.1947 -0.0287
 1923Sol     OW10717   0.787   1.805   8.177  0.3065  0.3177  0.3508
 1923Sol     HW10718   0.778   1.856   8.258 -0.0953 -0.9728  1.1271
 1923Sol     HW10719   0.698   1.772   8.161  0.4419  0.3607 -0.4869
 1923Sol     MW10720   0.778   1.807   8.183  0.5542 -0.6661  0.1664
 1924Sol     OW10721   2.408   1.751   6.702 -0.6028  0.0797  0.1290
 1924Sol     HW10722   2.479   1.727   6.762  1.2327  1.9450 -1.2213
 1924Sol     HW10723   2.330   1.752   6.757  0.6411 -0.6161  1.9624
 1924Sol     MW10724   2.408   1.749   6.713  0.5472 -0.3609  0.1790
 1925Sol     OW10725   1.122   1.561   2.694  1.0581  0.0172  0.7979
 1925Sol     HW10726   1.047   1.611   2.725  0.0566 -0.9793  0.0542
 1925Sol     HW10727   1.195   1.589   2.748  0.1342  0.9940  1.5411
 1925Sol     MW10728   1.122   1.568   2.702  0.0448  0.4600  0.6696
 1926Sol     OW10729   1.006   0.419   9.681 -0.3378  0.1461  0.0660
 1926Sol     HW10730   1.000   0.493   9.742  0.1797  1.4979 -1.4938
 1926Sol     HW10731   0.916   0.386   9.675 -1.0219  2.1146 -0.9800
 1926Sol     MW10732   0.997   0.423   9.686  0.0496  0.4731  0.0986
 1927Sol     OW10733   2.171   2.951   5.535  0.3024  0.2134 -0.0557
 1927Sol     HW10734   2.243   2.898   5.570 -0.8259 -2.7282 -2.0244
 1927Sol     HW10735   2.092   2.914   5.575 -0.4798  0.6742 -1.1653
 1927Sol     MW10736   2.170   2.943   5.542  0.3367  0.0437  0.4595
 1928Sol     OW10737   2.559   0.006   4.965 -0.3736  0.3357  0.5269
 1928Sol     HW10738   2.651   0.013   4.990 -0.7924  2.0778  1.6536
 1928Sol     HW10739   2.543   0.081   4.908 -0.5638 -1.1730 -1.4866
 1928Sol     MW10740   2.566   0.013   4.962  0.2617  0.0120  0.2621
 1929Sol     OW10741   1.955   0.718   5.866 -0.1793  0.0655  0.6263
 1929Sol     HW10742   2.036   0.732   5.915 -1.0286  1.5349  1.6606
 1929Sol     HW10743   1.893   0.688   5.933 -0.8752  0.3498  0.1051
 1929Sol     MW10744   1.957   0.717   5.877  0.0359 -0.9359 -0.4792
 1930Sol     OW10745   0.430   2.425   6.461  0.1219 -0.0883 -0.1507
 1930Sol     HW10746   0.377   2.486   6.409  0.5371 -0.4807 -1.0457
 1930Sol     HW10747   0.411   2.448   6.552  1.7107  2.6345 -0.4577
 1930Sol     MW10748   0.424   2.433   6.465 -0.7551  0.4579  0.4391
 1931Sol     OW10749   3.040   2.872   5.477  0.0426 -0.3930 -0.0568
 1931Sol     HW10750   2.968   2.812   5.499  0.2302 -0.4965  0.2742
 1931Sol     HW10751   3.115   2.815   5.462  0.3350 -0.2110  0.7132
 1931Sol     MW10752   3.040   2.861   5.477 -0.2480 -0.5279 -0.0088
 1932Sol     OW10753   1.816   2.234   1.609  0.2517  0.2875  0.6249
 1932Sol     HW10754   1.773   2.149   1.609 -0.2257  0.5217  0.0715
 1932Sol     HW10755   1.803   2.268   1.697  2.2553 -1.1062  1.5082
 1932Sol     MW10756   1.811   2.229   1.617  0.4401  0.8569  0.8532
 1933Sol     OW10757   2.543   3.042   8.845  0.1106 -0.4231 -0.0380
 1933Sol     HW10758   2.499   3.076   8.767 -1.1471  0.2878  0.9645
 1933Sol     HW10759   2.542   2.947   8.833  0.7144 -0.2944 -1.2886
 1933Sol     MW10760   2.539   3.037   8.837 -0.5814  0.1195  0.1595
 1934Sol     OW10761   1.696   0.543   6.615  0.0420  0.3505 -0.1085
 1934Sol     HW10762   1.619   0.594   6.641 -0.0815  0.5496 -0.8740
 1934Sol     HW10763   1.755   0.607   6.576  0.2705  0.0654 -0.2326
 1934Sol     MW10764   1.694   0.553   6.614 -0.0460 -0.4473  0.8164
 1935Sol     OW10765   0.682   1.371   4.073  0.1701 -0.3511 -0.1649
 1935Sol     HW10766   0.735   1.327   4.139 -0.2772 -0.6606 -0.0163
 1935Sol     HW10767   0.592   1.347   4.093 -0.2341  1.9329  0.9076
 1935Sol     MW10768   0.679   1.365   4.080 -0.5588  0.1800 -0.2961
 1936Sol     OW10769   2.785   1.853   6.699  0.4164  0.0932 -0.6341
 1936Sol     HW10770   2.755   1.916   6.764  0.4730 -1.6649  1.1425
 1936Sol     HW10771   2.874   1.830   6.727  0.6768 -0.1971 -1.6841
 1936Sol     MW10772   2.790   1.856   6.707  0.7088  0.5344 -0.1578
 1937Sol     OW10773   1.082   0.903   5.692  0.1177  0.3685  0.1835
 1937Sol     HW10774   1.094   0.846   5.768  0.2715  0.0036 -0.1170
 1937Sol     HW10775   1.152   0.968   5.701  1.5162 -0.9582 -0.8235
 1937Sol     MW10776   1.090   0.904   5.700 -0.1847 -0.4581 -0.0209
 1938Sol     OW10777   2.798   1.836   8.023 -0.5034 -0.1823 -0.2868
 1938Sol     HW10778   2.841   1.921   8.025 -2.4930  0.8552 -0.6400
 1938Sol     HW10779   2.870   1.773   8.021  0.9896  1.4278  1.4362
 1938Sol     MW10780   2.808   1.838   8.023  0.5058 -0.5165  0.0672
 1939Sol     OW10781   0.553   2.782   9.973 -0.8563  0.4156 -0.3095
 1939Sol     HW10782   0.525   2.734  10.051  0.0542  1.0779  0.4330
 1939Sol     HW10783   0.595   2.716   9.918  1.2092  0.4840  1.1066
 1939Sol     MW10784   0.554   2.772   9.975 -0.1270  0.3403  0.8044
 1940Sol     OW10785   0.559   1.025   1.491 -0.2936 -0.2829  0.4489
 1940Sol     HW10786   0.601   1.038   1.576  1.0354 -1.6168  0.0150
 1940Sol     HW10787   0.612   1.076   1.430 -1.5730  1.1337  0.4725
 1940Sol     MW10788   0.567   1.031   1.493 -0.1250 -0.8732 -0.6555
 1941Sol     OW10789   1.307   3.235   5.651  0.7457 -0.0864 -0.1375
 1941Sol     HW10790   1.286   3.190   5.733  0.4209  1.7570  0.8261
 1941Sol     HW10791   1.391   3.277   5.668  0.5173  0.5808 -0.6310
 1941Sol     MW10792   1.313   3.235   5.660 -0.5876  0.3260  0.0715
 1942Sol     OW10793   0.776   1.936   2.652 -0.6454  0.2974  0.6597
 1942Sol     HW10794   0.814   1.860   2.696 -0.1421 -0.1825 -0.5942
 1942Sol     HW10795   0.846   2.002   2.654 -0.7914  0.4458  0.9957
 1942Sol     MW10796   0.786   1.935   2.656 -0.4940 -0.0597  0.1739
 1943Sol     OW10797   2.213   0.433   2.100 -0.5710 -0.2198  0.1999
 1943Sol     HW10798   2.294   0.482   2.114 -0.2146 -0.0448 -2.2826
 1943Sol     HW10799   2.236   0.367   2.035 -2.1216 -0.9293  0.3574
 1943Sol     MW10800   2.222   0.432   2.095  0.9699  0.1077  0.5141
 1944Sol     OW10801   1.654   2.258   6.515  0.4371 -0.3316 -0.0778
 1944Sol     HW10802   1.714   2.229   6.447  0.7645 -1.5843  0.7195
 1944Sol     HW10803   1.654   2.187   6.579  0.8900  1.2289  1.7042
 1944Sol     MW10804   1.659   2.249   6.515 -0.5181 -0.5168  0.0777
 1945Sol     OW10805   2.320   1.978   2.251  0.7057  0.1576 -0.6325
 1945Sol     HW10806   2.322   1.885   2.228  0.7237 -0.4173  1.5449
 1945Sol     HW10807   2.231   2.006   2.229  0.1128 -0.8603  0.3922
 1945Sol     MW10808   2.312   1.972   2.247  0.4592 -0.2318  0.9271
 1946Sol     OW10809   0.050   1.700   3.343  0.3970 -0.4793  0.1764
 1946Sol     HW10810   0.060   1.613   3.381 -1.0040 -1.0403 -0.7033
 1946Sol     HW10811   0.029   1.684   3.251 -0.1798  0.7825  0.0793
 1946Sol     MW10812   0.049   1.691   3.338 -0.1251 -0.0302  0.5479
 1947Sol     OW10813   2.553   0.648   6.214 -0.3061 -0.3899 -0.1903
 1947Sol     HW10814   2.550   0.666   6.307 -0.2173  1.1020 -0.4722
 1947Sol     HW10815   2.645   0.657   6.190 -0.5363  0.6736 -0.7009
 1947Sol     MW10816   2.561   0.650   6.220  0.0008  0.4383 -0.0248
 1948Sol     OW10817   1.342   2.957   4.647 -0.8321 -0.0652  0.2758
 1948Sol     HW10818   1.262   2.949   4.595 -1.7316 -2.4054  1.9003
 1948Sol     HW10819   1.392   2.878   4.626  0.0282  0.2961  0.9301
 1948Sol     MW10820   1.339   2.949   4.640 -0.1287  0.1651 -0.3897
 1949Sol     OW10821   0.652   0.716   7.943 -0.4311 -0.5212  0.0412
 1949Sol     HW10822   0.690   0.754   8.022  1.3511 -0.4935 -0.8131
 1949Sol     HW10823   0.620   0.791   7.893  1.4454 -0.2587 -0.7974
 1949Sol     MW10824   0.653   0.726   7.946  0.1764  0.3381 -0.5835
 1950Sol     OW10825   0.533   1.940   9.333 -0.1966  0.9368 -0.1093
 1950Sol     HW10826   0.609   1.907   9.284 -0.1453 -2.4408  2.0861
 1950Sol     HW10827   0.459   1.926   9.274  0.3180  0.1047 -0.5762
 1950Sol     MW10828   0.533   1.935   9.323 -0.6908  0.3279 -0.5781
 1951Sol     OW10829   0.241   0.485   6.226 -0.4296  0.0052 -0.2101
 1951Sol     HW10830   0.163   0.432   6.236 -0.3730 -0.0388 -0.0105
 1951Sol     HW10831   0.280   0.489   6.313 -0.7937  0.9300 -0.0763
 1951Sol     MW10832   0.238   0.481   6.234 -0.3248 -0.1748 -0.1717
 1952Sol     OW10833   1.439   1.968   1.910 -0.7946  0.4894 -0.2711
 1952Sol     HW10834   1.368   1.905   1.894 -0.2727 -0.0715 -0.3929
 1952Sol     HW10835   1.418   2.043   1.854 -0.3065 -0.4381 -1.7107
 1952Sol     MW10836   1.431   1.969   1.904  0.6193 -1.0266  0.3022
 1953Sol     OW10837   0.862   2.774   4.552  0.4459 -0.6844  0.6329
 1953Sol     HW10838   0.801   2.703   4.534  0.6756 -0.2759 -2.0955
 1953Sol     HW10839   0.948   2.739   4.528  0.9730 -0.4735  2.1614
 1953Sol     MW10840   0.864   2.765   4.548  0.5198  0.1955  0.0999
 1954Sol     OW10841   1.469   0.618   5.189  0.3668 -0.2178  0.2944
 1954Sol     HW10842   1.449   0.671   5.112  0.4985 -0.2507  0.2380
 1954Sol     HW10843   1.448   0.675   5.263  1.6363  0.3520  0.2382
 1954Sol     MW10844   1.466   0.628   5.189 -0.0036  0.5948 -0.1404
 1955Sol     OW10845   1.042   1.597   5.992 -0.0391  0.0180 -0.0591
 1955Sol     HW10846   1.013   1.686   5.971 -0.2766 -0.3027 -1.1241
 1955Sol     HW10847   1.055   1.555   5.907  0.4848 -0.8370  0.4324
 1955Sol     MW10848   1.040   1.601   5.983 -0.1663  0.2731 -0.2967
 1956Sol     OW10849   0.958   0.012   1.493 -0.0618 -0.6906 -0.3839
 1956Sol     HW10850   0.967   0.075   1.564 -0.6359 -0.1787 -0.7547
 1956Sol     HW10851   1.017   0.044   1.425 -0.4251 -0.4941 -0.6098
 1956Sol     MW10852   0.964   0.020   1.493  0.2177  0.0437 -0.2203
 1957Sol     OW10853   0.634   2.047   5.980 -0.0038  0.1057 -0.2104
 1957Sol     HW10854   0.593   1.989   6.045 -0.4258  0.0270 -0.5407
 1957Sol     HW10855   0.716   2.075   6.021 -0.1724 -0.0997  0.2749
 1957Sol     MW10856   0.638   2.044   5.990  0.4623  0.1389  0.2453
 1958Sol     OW10857   2.964   2.892   9.162  0.2752  0.0022 -0.2156
 1958Sol     HW10858   3.034   2.830   9.143  0.0024 -0.7593  1.1701
 1958Sol     HW10859   2.978   2.964   9.101  2.2684 -0.1297  0.0513
 1958Sol     MW10860   2.971   2.893   9.155 -0.1742 -1.0924  0.7805
 1959Sol     OW10861   2.325   0.236   3.391 -0.3877 -0.3240 -0.4097
 1959Sol     HW10862   2.342   0.276   3.305 -0.7741 -1.3676 -0.9807
 1959Sol     HW10863   2.250   0.286   3.425  0.2022  0.5463 -0.3705
 1959Sol     MW10864   2.320   0.244   3.386 -0.1358 -0.2460 -0.0496
 1960Sol     OW10865   3.235   2.397   5.350  0.0860  0.4427 -0.3806
 1960Sol     HW10866   3.259   2.399   5.257 -0.6819 -2.8153 -0.7258
 1960Sol     HW10867   3.243   2.305   5.374 -0.2300  1.1716  2.6736
 1960Sol     MW10868   3.238   2.389   5.344  0.3971  0.4792 -0.0902
 1961Sol     OW10869   3.273   2.515   9.719 -0.0857  0.2235 -0.2867
 1961Sol     HW10870   3.288   2.469   9.637  0.9854 -1.6599  0.9226
 1961Sol     HW10871   3.214   2.458   9.768  0.0774  0.8438  0.6411
 1961Sol     MW10872   3.269   2.506   9.716  0.0074 -0.0927  0.7230
 1962Sol     OW10873   0.134   1.177   3.748  0.7073 -0.8606 -0.0651
 1962Sol     HW10874   0.123   1.085   3.774 -0.0704 -0.7284  0.0891
 1962Sol     HW10875   0.223   1.199   3.775  0.8096 -1.4952  0.1274
 1962Sol     MW10876   0.141   1.171   3.752  0.2970  0.1151 -0.8817
 1963Sol     OW10877   2.415   2.204   1.733 -0.0513  0.2010  0.8186
 1963Sol     HW10878   2.391   2.125   1.781  0.1322 -0.2906  0.0999
 1963Sol     HW10879   2.461   2.173   1.656 -0.1595  1.0010  0.4245
 1963Sol     MW10880   2.417   2.194   1.731 -0.7121  0.3510  0.5214
 1964Sol     OW10881   0.309   2.764   9.289  0.9599 -0.1616  0.0801
 1964Sol     HW10882   0.309   2.709   9.368 -1.4458 -0.9305 -0.4376
 1964Sol     HW10883   0.338   2.850   9.321 -1.5136 -0.0299  2.1443
 1964Sol     MW10884   0.312   2.767   9.299 -1.1063  0.7835  0.0425
 1965Sol     OW10885   3.047   2.204   8.983  0.4331 -0.0906  0.2748
 1965Sol     HW10886   2.976   2.267   8.968  2.8298  1.9795 -2.8498
 1965Sol     HW10887   3.038   2.141   8.913  0.6886 -0.7911  0.8715
 1965Sol     MW10888   3.040   2.204   8.976 -0.0920 -0.7222 -0.2416
 1966Sol     OW10889   1.476   0.042   8.970 -0.1751  0.2470 -0.4491
 1966Sol     HW10890   1.559   0.033   8.922 -0.3196 -1.2056 -0.4526
 1966Sol     HW10891   1.489   0.118   9.026  1.4634 -0.4445  0.1397
 1966Sol     MW10892   1.485   0.048   8.970  0.4442 -0.8791 -0.3052
 1967Sol     OW10893   2.856   0.760   8.572 -0.2692 -0.1244 -0.2620
 1967Sol     HW10894   2.948   0.772   8.596 -0.4232 -0.2172  0.3828
 1967Sol     HW10895   2.827   0.687   8.627 -0.8141  0.1165 -0.2327
 1967Sol     MW10896   2.862   0.755   8.579  0.0220  0.7100  0.1220
 1968Sol     OW10897   0.309   3.030   4.557  0.1343 -0.4630 -0.7712
 1968Sol     HW10898   0.329   2.937   4.544 -0.2095 -0.6683  0.1017
 1968Sol     HW10899   0.217   3.032   4.581 -0.4572  0.3304 -3.0647
 1968Sol     MW10900   0.303   3.022   4.558  0.0452  0.1908 -0.4780
 1969Sol     OW10901   2.806   0.325   4.799 -0.2671 -0.4932 -0.2428
 1969Sol     HW10902   2.799   0.420   4.793 -0.3995 -0.4972 -0.1458
 1969Sol     HW10903   2.716   0.293   4.797 -0.2489 -0.5801  0.2868
 1969Sol     MW10904   2.798   0.331   4.798 -0.2251  0.6791  0.2649
 1970Sol     OW10905   2.217   0.826   3.147  0.0789 -0.4333  0.2547
 1970Sol     HW10906   2.263   0.756   3.194 -0.5631  0.1047  1.7145
 1970Sol     HW10907   2.209   0.897   3.211  0.2625  0.7794 -1.0553
 1970Sol     MW10908   2.220   0.826   3.157 -0.1952 -0.0575 -0.2724
 1971Sol     OW10909   1.518   2.507   6.370  0.1488 -0.3087  0.0927
 1971Sol     HW10910   1.471   2.480   6.449  0.6673 -0.5615  0.3169
 1971Sol     HW10911   1.541   2.425   6.327 -1.5331 -0.1617 -1.1724
 1971Sol     MW10912   1.516   2.497   6.373 -0.0898  0.2166  0.1235
 1972Sol     OW10913   1.021   3.206   8.273 -0.2729  0.0900  0.2225
 1972Sol     HW10914   1.098   3.227   8.220  1.0865 -1.4933  1.5193
 1972Sol     HW10915   0.999   3.288   8.317 -0.9383  1.2172 -2.1517
 1972Sol     MW10916   1.026   3.215   8.272 -0.5972 -0.2417 -0.0554
 1973Sol     OW10917   0.960   2.224   5.707  0.1734 -0.3561 -0.1997
 1973Sol     HW10918   1.006   2.147   5.674  0.0096 -0.4358 -0.2469
 1973Sol     HW10919   0.868   2.209   5.683  0.4051  0.7285 -1.9027
 1973Sol     MW10920   0.956   2.216   5.702 -0.5335 -0.0471  0.4698
 1974Sol     OW10921   1.798   0.171   9.263  0.3974  0.5252  0.2508
 1974Sol     HW10922   1.828   0.081   9.247  1.0596  0.7847 -0.0085
 1974Sol     HW10923   1.868   0.209   9.317 -0.1592  0.7107  0.8433
 1974Sol     MW10924   1.807   0.166   9.266  0.3127 -0.3107 -0.2788
 1975Sol     OW10925   2.194   2.683   3.428  0.3934  0.3126  0.1973
 1975Sol     HW10926   2.289   2.684   3.431  0.4891 -2.7983  0.2453
 1975Sol     HW10927   2.173   2.677   3.335  0.2834  0.1936  0.2289
 1975Sol     MW10928   2.200   2.682   3.420 -0.0359 -0.4388  0.6291
 1976Sol     OW10929   1.438   3.013   5.535 -0.2024 -0.2733 -0.3006
 1976Sol     HW10930   1.382   3.070   5.587 -1.8991 -1.4526 -0.7923
 1976Sol     HW10931   1.475   3.071   5.468 -0.6838  0.5569  0.1378
 1976Sol     MW10932   1.436   3.023   5.533  0.8567 -0.5337  0.1644
 1977Sol     OW10933   1.279   2.670   7.055  0.4471  0.1479 -0.0348
 1977Sol     HW10934   1.195   2.659   7.099  0.3118 -1.0612 -0.5712
 1977Sol     HW10935   1.282   2.598   6.991  1.9867  0.0332  0.1469
 1977Sol     MW10936   1.272   2.662   7.053  0.0404  0.0503  0.1551
 1978Sol     OW10937   2.902   2.514   7.626 -0.6960 -0.0409  0.3545
 1978Sol     HW10938   2.905   2.535   7.533  2.2025 -0.3580  0.3246
 1978Sol     HW10939   2.909   2.599   7.670  0.3400 -0.0725  0.2617
 1978Sol     MW10940   2.903   2.523   7.621  0.1350  0.2348  0.2546
 1979Sol     OW10941   3.169   1.911   9.200 -0.4850 -0.3379  0.1627
 1979Sol     HW10942   3.114   1.980   9.238 -1.2866 -1.4539  1.0677
 1979Sol     HW10943   3.108   1.855   9.153  0.2116 -0.2477 -0.8625
 1979Sol     MW10944   3.159   1.912   9.199 -0.4060 -0.3237  0.2465
 1980Sol     OW10945   2.528   0.769   3.108  0.0244 -0.1669  0.4314
 1980Sol     HW10946   2.481   0.707   3.164 -0.2752 -0.7132 -0.4065
 1980Sol     HW10947   2.508   0.740   3.019  1.1485  0.1957  0.0536
 1980Sol     MW10948   2.522   0.761   3.105  0.0815  0.0671 -0.0572
 1981Sol     OW10949   1.214   0.041   8.834 -0.2948 -0.1393 -0.4508
 1981Sol     HW10950   1.295   0.052   8.884  0.2400  1.8197 -1.6783
 1981Sol     HW10951   1.240  -0.012   8.759  0.1114  1.3216 -1.3687
 1981Sol     MW10952   1.224   0.038   8.832  0.5903 -0.6494 -0.3996
 1982Sol     OW10953   1.392   2.761   7.860 -0.0953  0.4392 -0.4372
 1982Sol     HW10954   1.331   2.768   7.787 -0.8148  0.9975  0.2139
 1982Sol     HW10955   1.452   2.835   7.849 -1.1200  1.4170  0.3655
 1982Sol     MW10956   1.392   2.768   7.853 -0.3934 -0.8452 -0.0592
 1983Sol     OW10957   2.953   1.296   5.550  0.1449 -0.1855  0.5229
 1983Sol     HW10958   3.033   1.345   5.530 -0.6167  1.2060  0.8115
 1983Sol     HW10959   2.950   1.293   5.646  0.0742 -0.6069  0.5081
 1983Sol     MW10960   2.960   1.300   5.557  0.3684 -0.4779 -0.0216
 1984Sol     OW10961   2.291   2.382   8.727  0.1324 -0.2823  0.7490
 1984Sol     HW10962   2.216   2.335   8.764 -2.0306  1.0178 -1.7304
 1984Sol     HW10963   2.256   2.422   8.647  4.0831 -1.4876 -1.7114
 1984Sol     MW10964   2.281   2.382   8.723 -0.0493 -0.0544  0.2114
 1985Sol     OW10965   1.357   2.051   5.005 -0.0239 -0.2998 -0.2657
 1985Sol     HW10966   1.429   1.994   5.028  0.8898  0.2536 -1.6803
 1985Sol     HW10967   1.386   2.139   5.030 -1.5307 -0.4480  2.1657
 1985Sol     MW10968   1.366   2.054   5.009 -0.3141 -0.2779 -0.5632
 1986Sol     OW10969   1.752   0.449   1.607 -0.3110  0.0380  0.2291
 1986Sol     HW10970   1.847   0.463   1.617 -0.7073  2.6175  0.7513
 1986Sol     HW10971   1.739   0.358   1.634  1.8829 -0.0527  1.1671
 1986Sol     MW10972   1.760   0.442   1.610  0.2397 -0.4511 -0.3454
 1987Sol     OW10973   2.989   1.184   4.606  0.0737  0.3437  0.2006
 1987Sol     HW10974   2.893   1.187   4.607  0.0690  0.2018  0.7962
 1987Sol     HW10975   3.016   1.273   4.630  0.0822  0.2517  0.5420
 1987Sol     MW10976   2.983   1.192   4.608  0.0980 -0.7427  0.6257
 1988Sol     OW10977   0.183   1.597   6.461  0.9879  0.4276  0.3403
 1988Sol     HW10978   0.176   1.623   6.370  3.0079 -1.2134 -0.3264
 1988Sol     HW10979   0.274   1.612   6.484  0.2931  1.7239  2.4015
 1988Sol     MW10980   0.190   1.600   6.455  0.7842  0.5295  0.0928
 1989Sol     OW10981   2.013   1.602   6.643  1.1653  0.0904  0.4145
 1989Sol     HW10982   2.059   1.648   6.713 -2.0563  1.7738  1.5105
 1989Sol     HW10983   1.966   1.670   6.596  0.5645 -1.4591 -1.2966
 1989Sol     MW10984   2.013   1.612   6.645  0.5522 -0.4373 -0.3121
 1990Sol     OW10985   2.006   0.452   6.068  0.4066  0.5235  0.4326
 1990Sol     HW10986   1.912   0.440   6.083  0.6029 -0.4031  1.0006
 1990Sol     HW10987   2.018   0.442   5.974  0.2471 -1.7339  0.6239
 1990Sol     MW10988   1.999   0.450   6.061 -0.3983  0.3355 -0.3495
 1991Sol     OW10989   1.796   0.976   3.260  0.0724 -0.4938 -0.8389
 1991Sol     HW10990   1.712   0.981   3.306 -0.9059 -1.7540 -2.4389
 1991Sol     HW10991   1.833   1.064   3.267 -0.5222 -0.4040  1.4646
 1991Sol     MW10992   1.792   0.984   3.265 -1.0787  0.3477  0.3849
 1992Sol     OW10993   1.710   0.133   3.886  0.1463  0.0713 -0.7251
 1992Sol     HW10994   1.759   0.129   3.804  0.4715 -0.0161 -0.5263
 1992Sol     HW10995   1.777   0.126   3.954 -0.2118 -0.8016 -0.4586
 1992Sol     MW10996   1.720   0.132   3.885  1.4071 -0.1717 -0.3386
 1993Sol     OW10997   0.285   0.217   2.955 -0.2851 -0.3705  0.3776
 1993Sol     HW10998   0.323   0.295   2.995 -2.2675  0.1405  1.3214
 1993Sol     HW10999   0.317   0.218   2.865 -0.8282  1.9327  0.1698
 1993Sol     MW11000   0.291   0.224   2.950 -0.6762 -0.1945  0.4466
 1994Sol     OW11001   3.230   2.750   2.689  0.9186 -0.0455  0.3486
 1994Sol     HW11002   3.291   2.690   2.646  0.4043  0.8955 -1.7626
 1994Sol     HW11003   3.203   2.811   2.620 -1.4922  0.2832  1.5182
 1994Sol     MW11004   3.233   2.750   2.679 -0.0452 -0.7005 -0.1934
 1995Sol     OW11005   0.810   0.354   2.291 -0.5424 -0.0519  0.0778
 1995Sol     HW11006   0.822   0.444   2.263 -0.9751 -0.2437 -0.7450
 1995Sol     HW11007   0.880   0.338   2.354 -0.4377  0.8389  0.1834
 1995Sol     MW11008   0.817   0.360   2.295  0.4439  0.1072  0.4972
 1996Sol     OW11009   2.707   1.232   4.238 -0.1896  0.3832  0.2077
 1996Sol     HW11010   2.796   1.234   4.203  0.2468 -3.3993  0.9246
 1996Sol     HW11011   2.715   1.189   4.324 -2.9993 -2.7092 -0.9457
 1996Sol     MW11012   2.716   1.228   4.243  0.1156  0.3864 -0.3214
 1997Sol     OW11013   2.760   0.748   9.406 -0.4479  0.3139 -0.0503
 1997Sol     HW11014   2.708   0.747   9.487 -1.3880 -0.8050 -0.6537
 1997Sol     HW11015   2.781   0.656   9.390  0.5243  0.6276 -0.5872
 1997Sol     MW11016   2.757   0.740   9.412 -0.1916  0.4201 -0.0876
 1998Sol     OW11017   0.732   0.802   6.147  0.3765  0.3069  0.1534
 1998Sol     HW11018   0.675   0.871   6.180 -1.9818 -0.0861 -2.8452
 1998Sol     HW11019   0.703   0.723   6.194  2.2515  1.0618  2.6786
 1998Sol     MW11020   0.724   0.801   6.154  0.6170  0.5168  0.5143
 1999Sol     OW11021   1.075   1.217   9.085  0.3441  0.8504 -0.3858
 1999Sol     HW11022   0.989   1.259   9.097 -0.1428  0.3300 -1.8354
 1999Sol     HW11023   1.103   1.193   9.173 -0.7027  1.6083  0.1694
 1999Sol     MW11024   1.069   1.219   9.094  0.0105 -0.6869 -0.8417
 2000Sol     OW11025   1.490   3.139   8.105 -0.3407  0.3475  0.1510
 2000Sol     HW11026   1.457   3.141   8.195  2.6518 -0.0684  1.3039
 2000Sol     HW11027   1.539   3.057   8.099  0.5475  0.9740 -1.4779
 2000Sol     MW11028   1.491   3.132   8.112 -0.3453 -0.5913  1.0415
 2001Sol     OW11029   0.339   0.961   5.548  0.7252  0.3798 -0.2243
 2001Sol     HW11030   0.393   0.904   5.495 -2.3307 -0.9018 -2.1149
 2001Sol     HW11031   0.358   0.935   5.638  1.0359 -2.1370 -0.9687
 2001Sol     MW11032   0.345   0.953   5.552  0.7312 -0.3264  0.0514
 2002Sol     OW11033   0.168   2.146   4.210  0.0829  0.1322 -0.5334
 2002Sol     HW11034   0.148   2.240   4.208 -0.9495 -0.0845 -0.9070
 2002Sol     HW11035   0.122   2.113   4.287  0.7086 -0.0111 -0.2203
 2002Sol     MW11036   0.162   2.152   4.216  0.2727  0.7871 -0.5273
 2003Sol     OW11037   0.546   1.182   8.215  0.0006 -0.1242  0.3048
 2003Sol     HW11038   0.547   1.277   8.210 -1.1289 -0.0321  1.5827
 2003Sol     HW11039   0.514   1.163   8.303 -2.1227 -1.6977 -0.7585
 2003Sol     MW11040   0.544   1.189   8.222  0.2374 -0.7023  0.2533
 2004Sol     OW11041   0.782   1.388   2.614 -0.8160  0.5001 -0.5857
 2004Sol     HW11042   0.751   1.455   2.675 -0.6097  0.2811 -0.2407
 2004Sol     HW11043   0.855   1.429   2.568 -1.3370  0.8704 -1.1021
 2004Sol     MW11044   0.786   1.397   2.615  0.2670  0.2474 -0.1682
 2005Sol     OW11045   1.693   0.896   2.979 -0.2033 -0.1731 -0.8688
 2005Sol     HW11046   1.736   0.913   3.062  0.2412 -0.2796 -1.0752
 2005Sol     HW11047   1.608   0.939   2.986  0.5067  1.2856 -1.0019
 2005Sol     MW11048   1.689   0.901   2.987  0.4411  0.3385  0.0986
 2006Sol     OW11049   2.833   3.143   9.822 -0.8105  0.1567  0.0462
 2006Sol     HW11050   2.854   3.233   9.848 -0.9526  0.0832  0.4151
 2006Sol     HW11051   2.917   3.106   9.796 -0.7186  0.3361  0.0840
 2006Sol     MW11052   2.843   3.148   9.822  0.1240  0.3262  0.1272
 2007Sol     OW11053   2.371   0.817   5.322  0.3993 -0.0792 -0.2325
 2007Sol     HW11054   2.381   0.824   5.417  1.6783  1.8314 -0.4884
 2007Sol     HW11055   2.451   0.854   5.286 -0.9184  1.0531 -2.1027
 2007Sol     MW11056   2.379   0.821   5.327  0.1029 -0.0619  1.1251
 2008Sol     OW11057   0.901   1.222   1.561 -0.3900  0.5499  0.2883
 2008Sol     HW11058   0.911   1.305   1.607 -0.5968  1.4444 -1.2225
 2008Sol     HW11059   0.983   1.212   1.512 -0.1696 -0.3800  0.8396
 2008Sol     MW11060   0.909   1.229   1.560  0.5125  0.5841  0.2850
 2009Sol     OW11061   0.398   0.473   3.022 -0.9331  0.0179 -0.3146
 2009Sol     HW11062   0.418   0.514   3.106 -1.0057  0.0153 -0.2968
 2009Sol     HW11063   0.478   0.485   2.970 -0.0701 -1.9569  0.5187
 2009Sol     MW11064   0.407   0.478   3.025  0.0623  0.1263  0.0120
 2010Sol     OW11065   0.207   2.160   5.989  1.0957 -0.6775  0.5511
 2010Sol     HW11066   0.268   2.183   5.919  2.0229 -1.7967  0.9732
 2010Sol     HW11067   0.251   2.090   6.038 -0.4149 -1.3580  0.9941
 2010Sol     MW11068   0.216   2.155   5.987 -0.4286  0.4950  0.2822
 2011Sol     OW11069   0.514   2.426   5.694  0.5253 -0.3519 -0.1439
 2011Sol     HW11070   0.579   2.419   5.624  0.4953  1.4443 -0.3759
 2011Sol     HW11071   0.556   2.480   5.760 -0.5627  0.4699 -0.1052
 2011Sol     MW11072   0.524   2.430   5.693 -0.6642 -0.8992 -0.0309
 2012Sol     OW11073   0.763   1.144   3.582 -0.4708  0.2563  0.0112
 2012Sol     HW11074   0.808   1.190   3.511  1.6263  0.0837  1.2014
 2012Sol     HW11075   0.797   1.055   3.579 -1.1379 -0.0231  0.5928
 2012Sol     MW11076   0.770   1.140   3.575 -0.6077 -0.3457 -0.1549
 2013Sol     OW11077   0.237   3.314   5.891  0.0664 -0.4519  0.2258
 2013Sol     HW11078   0.174   3.259   5.937  1.1333 -1.4315  0.5315
 2013Sol     HW11079   0.290   3.353   5.960 -0.7763  1.0952  0.0209
 2013Sol     MW11080   0.236   3.313   5.901  0.5168  0.4857  0.4666
 2014Sol     OW11081   1.731   1.976   1.567 -0.0885 -0.2172  0.0603
 2014Sol     HW11082   1.644   1.984   1.530  0.3690 -0.3552 -1.0645
 2014Sol     HW11083   1.774   1.908   1.515  0.1387 -1.3348  1.6705
 2014Sol     MW11084   1.727   1.971   1.559 -0.3833  0.4696 -0.4246
 2015Sol     OW11085   2.904   1.596   1.898 -0.7141  0.0272 -0.1715
 2015Sol     HW11086   2.945   1.522   1.943 -1.7148 -0.5330 -0.1827
 2015Sol     HW11087   2.971   1.626   1.836 -0.1899 -0.6704  0.0508
 2015Sol     MW11088   2.914   1.592   1.896  0.3130 -0.7221  0.2637
 2016Sol     OW11089   2.828   3.414   2.961  0.9524 -0.5715  0.0625
 2016Sol     HW11090   2.914   3.455   2.959  1.3293 -1.4162 -1.5072
 2016Sol     HW11091   2.784   3.446   2.882  0.2285 -1.0052  0.2795
 2016Sol     MW11092   2.832   3.421   2.954  0.1518 -0.4160 -0.0822
 2017Sol     OW11093   2.495   0.547   7.033  0.2719  0.4748  0.4897
 2017Sol     HW11094   2.588   0.534   7.049  0.2566  0.7950  0.8179
 2017Sol     HW11095   2.492   0.609   6.960  0.3656 -2.0563 -1.7696
 2017Sol     MW11096   2.503   0.551   7.028  0.0316 -0.7463  0.5963
 2018Sol     OW11097   1.976   1.538   9.132 -0.1294  0.1296 -0.4045
 2018Sol     HW11098   2.041   1.515   9.066 -0.6283 -0.4313 -0.7054
 2018Sol     HW11099   1.895   1.497   9.102 -0.4680  0.2545  0.3175
 2018Sol     MW11100   1.975   1.532   9.123  0.1168 -0.2906 -0.1914
 2019Sol     OW11101   1.694   0.390   6.228  0.2661 -0.2477  0.0040
 2019Sol     HW11102   1.673   0.383   6.321 -2.2191  0.6362 -0.4514
 2019Sol     HW11103   1.653   0.314   6.187  1.1259 -0.4958 -0.4120
 2019Sol     MW11104   1.688   0.383   6.232 -0.1917 -0.4108 -1.0021
 2020Sol     OW11105   1.619   0.777   7.784 -0.4809 -0.0132  0.0647
 2020Sol     HW11106   1.678   0.710   7.749 -0.4444  0.2971 -0.4716
 2020Sol     HW11107   1.540   0.729   7.808 -0.3780 -0.2856 -0.1370
 2020Sol     MW11108   1.617   0.767   7.783 -0.3456 -0.2573  0.2523
 2021Sol     OW11109   2.096   0.299   6.982  0.1772  0.3786  0.5750
 2021Sol     HW11110   2.128   0.213   6.953 -2.2150 -0.3523 -0.0293
 2021Sol     HW11111   2.043   0.279   7.059 -2.6886  0.9485 -1.2087
 2021Sol     MW11112   2.094   0.289   6.987  0.1874 -0.5294  0.3596
 2022Sol     OW11113   0.435   3.125   5.759  0.7833  0.0417 -0.4200
 2022Sol     HW11114   0.356   3.173   5.786  0.9272 -0.0879  0.2540
 2022Sol     HW11115   0.496   3.193   5.731  0.4493  0.1464 -0.8860
 2022Sol     MW11116   0.434   3.136   5.759  0.3177  0.0323 -0.1128
 2023Sol     OW11117   0.084   0.933   9.146 -0.0716  0.4004  0.5399
 2023Sol     HW11118   0.108   0.843   9.123 -0.1285  0.8742 -1.4548
 2023Sol     HW11119   0.133   0.987   9.084 -0.4873  1.7337  1.3586
 2023Sol     MW11120   0.091   0.930   9.138  0.1386  0.1574 -0.0640
 2024Sol     OW11121   3.016   2.156   3.483 -0.3890  0.0598 -0.5076
 2024Sol     HW11122   2.949   2.218   3.454 -1.0212 -1.0127 -1.4111
 2024Sol     HW11123   3.099   2.203   3.472 -1.0811  2.0339  2.3288
 2024Sol     MW11124   3.018   2.166   3.479 -0.0757 -0.4058  0.1548
 2025Sol     OW11125   3.277   2.565   8.881  0.6189  0.1147  0.0230
 2025Sol     HW11126   3.243   2.617   8.953 -2.7694 -0.9199 -0.7298
 2025Sol     HW11127   3.285   2.477   8.916 -0.6390 -0.3066 -0.7094
 2025Sol     MW11128   3.275   2.562   8.890  0.6545  0.1790  0.8349
 2026Sol     OW11129   0.415   2.769   4.971  0.3141  0.2278  0.3282
 2026Sol     HW11130   0.448   2.840   5.026 -0.0822 -0.3160  1.2834
 2026Sol     HW11131   0.494   2.732   4.931  0.4932  1.4087 -0.4530
 2026Sol     MW11132   0.425   2.772   4.972 -0.0463  0.3747 -0.4356
 2027Sol     OW11133   0.947   0.521   5.984  0.7606 -0.2576 -0.1278
 2027Sol     HW11134   0.929   0.608   5.947 -0.2303 -0.4994 -0.2242
 2027Sol     HW11135   0.861   0.483   5.999  1.1880 -1.0798  0.2775
 2027Sol     MW11136   0.938   0.526   5.982 -0.8851  0.0824  0.1032
 2028Sol     OW11137   2.678   2.470   7.960  0.6726  0.2498 -0.0727
 2028Sol     HW11138   2.615   2.500   7.894 -1.4864 -2.6963  0.5786
 2028Sol     HW11139   2.724   2.398   7.918 -0.7130 -1.6487  1.6103
 2028Sol     MW11140   2.677   2.467   7.950  0.0748 -0.1485  0.0080
 2029Sol     OW11141   0.024   1.717   2.805 -0.1223  0.1223 -0.2008
 2029Sol     HW11142   0.058   1.806   2.814  0.7765 -0.1642 -0.6607
 2029Sol     HW11143  -0.071   1.728   2.797  0.0599  1.0952 -1.0786
 2029Sol     MW11144   0.018   1.726   2.805 -0.2735  1.0742  0.2805
 2030Sol     OW11145   1.406   2.804   2.271  0.0290 -0.2980 -0.3113
 2030Sol     HW11146   1.329   2.834   2.222  0.7560 -1.0573 -1.9653
 2030Sol     HW11147   1.372   2.734   2.327 -0.7038  0.1648 -0.1601
 2030Sol     MW11148   1.396   2.800   2.271  0.1877  0.0792 -1.1429
 2031Sol     OW11149   2.285   0.578   4.695  0.3968  0.4815  0.2079
 2031Sol     HW11150   2.262   0.628   4.773 -1.0034  1.0772 -0.5556
 2031Sol     HW11151   2.262   0.488   4.717  1.2552  0.4483  0.9563
 2031Sol     MW11152   2.281   0.574   4.704  0.6547 -0.6566 -0.1607
 2032Sol     OW11153   3.045   1.926   8.370 -0.2183  0.1207 -0.2975
 2032Sol     HW11154   3.000   1.981   8.305 -0.9680  0.1194  0.2165
 2032Sol     HW11155   3.035   1.973   8.453 -0.4114 -0.5319  0.0510
 2032Sol     MW11156   3.040   1.935   8.371  0.5234 -1.6428  0.9704
 2033Sol     OW11157   1.736   2.892   2.558  0.3622 -0.2663 -0.1804
 2033Sol     HW11158   1.677   2.840   2.613  2.0772 -0.8680  1.1486
 2033Sol     HW11159   1.733   2.849   2.473  0.2131 -1.3482  0.3611
 2033Sol     MW11160   1.731   2.883   2.555  0.7069  0.1564 -0.2234
 2034Sol     OW11161   2.351   3.438   8.991 -0.4445  0.4302 -0.1830
 2034Sol     HW11162   2.377   3.412   8.903 -0.0477  2.2772 -0.6442
 2034Sol     HW11163   2.304   3.521   8.979 -2.2150 -0.3449  1.1516
 2034Sol     MW11164   2.349   3.443   8.982  0.4922  0.3083  0.1769
 2035Sol     OW11165   0.721   2.370   8.176  0.4737 -0.4274 -0.2850
 2035Sol     HW11166   0.749   2.332   8.092  2.3075 -0.0676  0.1512
 2035Sol     HW11167   0.694   2.459   8.154 -2.3026 -1.4059 -1.0408
 2035Sol     MW11168   0.721   2.375   8.166 -0.1386  0.4183 -0.0358
 2036Sol     OW11169   1.372   2.396   9.117  0.0454 -0.4118  0.4837
 2036Sol     HW11170   1.453   2.446   9.127 -0.6438  0.8748 -0.2653
 2036Sol     HW11171   1.355   2.359   9.204  0.1708  1.2643  1.2440
 2036Sol     MW11172   1.378   2.397   9.126  0.2721 -0.6007 -0.1516
 2037Sol     OW11173   0.697   0.151   5.291 -0.1155 -0.1793  0.1786
 2037Sol     HW11174   0.760   0.171   5.222 -0.7032 -0.2184 -0.3745
 2037Sol     HW11175   0.627   0.103   5.246  0.6493 -2.3398  1.2266
 2037Sol     MW11176   0.696   0.148   5.280 -0.7209 -0.1120 -0.5812
 2038Sol     OW11177   2.259   1.677   5.680  1.3822  0.0451  0.1886
 2038Sol     HW11178   2.170   1.687   5.714  1.4670  0.2787  0.3505
 2038Sol     HW11179   2.273   1.756   5.627  1.4974  0.0169  0.1776
 2038Sol     MW11180   2.252   1.685   5.679  0.0205 -0.4666 -0.0212
 2039Sol     OW11181   3.070   3.179   5.604  0.5666  0.2748  0.6516
 2039Sol     HW11182   3.050   3.096   5.647 -0.2618  0.0966 -0.0511
 2039Sol     HW11183   2.985   3.224   5.599  0.3413 -0.3701 -2.1612
 2039Sol     MW11184   3.061   3.176   5.607  0.2432 -0.3531  0.2940
 2040Sol     OW11185   1.328   1.673   9.520 -0.2713  0.2827  0.4895
 2040Sol     HW11186   1.409   1.635   9.485 -0.3730  1.0108 -0.5388
 2040Sol     HW11187   1.261   1.651   9.455 -0.5722  1.1339  0.5117
 2040Sol     MW11188   1.329   1.667   9.511 -0.2680 -0.3488 -0.0532
 2041Sol     OW11189   2.298   2.099   1.420  0.0210  0.1738 -0.0380
 2041Sol     HW11190   2.269   2.009   1.401  2.1469 -0.5552  0.1008
 2041Sol     HW11191   2.230   2.133   1.478 -0.7780 -1.3625 -0.0261
 2041Sol     MW11192   2.289   2.094   1.423  0.6466 -0.2871  0.0345
 2042Sol     OW11193   2.916   0.246   5.944  0.2422  0.0491  0.6661
 2042Sol     HW11194   2.892   0.330   5.905  0.6083  0.4412  1.2809
 2042Sol     HW11195   2.877   0.248   6.031 -2.4229 -1.7127 -0.4003
 2042Sol     MW11196   2.910   0.254   5.948 -0.0748 -0.7293  0.2656
 2043Sol     OW11197   3.118   3.314   3.840 -0.0417 -0.0747  0.0390
 2043Sol     HW11198   3.055   3.358   3.783 -2.6912 -0.9916  2.1610
 2043Sol     HW11199   3.153   3.242   3.786 -1.9757 -0.5109 -0.6719
 2043Sol     MW11200   3.116   3.311   3.830  0.0582 -0.2230  0.0314
 2044Sol     OW11201   1.074   3.181   4.036 -0.3978  0.1466  0.1897
 2044Sol     HW11202   0.983   3.186   4.065 -0.4850 -0.6027  0.0455
 2044Sol     HW11203   1.078   3.103   3.982  0.6543 -0.6397  1.3869
 2044Sol     MW11204   1.066   3.175   4.034  0.1181  0.0733  0.2540
 2045Sol     OW11205   0.307   1.782   8.092 -0.4056 -0.0242  0.0039
 2045Sol     HW11206   0.329   1.869   8.058 -1.8504  0.1891 -0.4237
 2045Sol     HW11207   0.252   1.799   8.168  2.6732 -0.5029  2.4608
 2045Sol     MW11208   0.304   1.791   8.096  0.1444  1.2031  0.2494
 2046Sol     OW11209   3.192   2.716   5.172 -0.0977 -0.1744 -0.0053
 2046Sol     HW11210   3.168   2.733   5.080 -2.7465 -2.0298  0.2781
 2046Sol     HW11211   3.269   2.661   5.167  1.4123  1.9559 -1.0554
 2046Sol     MW11212   3.197   2.713   5.163  0.0286  0.0227 -0.6562
 2047Sol     OW11213   0.627   3.064   8.211 -0.3091  0.2987  0.0052
 2047Sol     HW11214   0.565   3.087   8.142 -0.6006  0.1410  0.2160
 2047Sol     HW11215   0.636   3.145   8.262 -0.6585  0.2020  0.2220
 2047Sol     MW11216   0.622   3.074   8.209 -0.2466 -0.2997  0.2079
 2048Sol     OW11217   0.751   2.876   3.279 -0.3280 -0.2708  0.2875
 2048Sol     HW11218   0.712   2.838   3.358 -1.5967 -2.1420 -1.1965
 2048Sol     HW11219   0.707   2.832   3.207 -1.2049  3.3943 -1.5294
 2048Sol     MW11220   0.744   2.868   3.280  0.3930 -0.5960  0.3218
 2049Sol     OW11221   0.718   2.185   5.277 -0.2109  0.1263 -0.2375
 2049Sol     HW11222   0.653   2.197   5.208 -0.4116  3.5078  0.4542
 2049Sol     HW11223   0.701   2.098   5.311 -3.4633  0.4084 -1.0078
 2049Sol     MW11224   0.711   2.179   5.273 -0.0456 -0.2848 -0.6220
 2050Sol     OW11225   0.667   0.120   3.301  0.2474 -0.2683  0.1621
 2050Sol     HW11226   0.617   0.072   3.235 -3.8026  0.3481  2.5675
 2050Sol     HW11227   0.692   0.053   3.365  1.1755 -0.3381 -0.2736
 2050Sol     MW11228   0.665   0.109   3.301 -0.1525 -0.4851 -0.1654
 2051Sol     OW11229   1.174   0.946   9.322 -0.7595 -0.0461  0.0086
 2051Sol     HW11230   1.237   0.985   9.383 -1.4273 -1.8766  1.9219
 2051Sol     HW11231   1.214   0.958   9.236  1.7144 -0.1902  1.0867
 2051Sol     MW11232   1.183   0.950   9.320 -0.4366 -0.8448 -0.3980
 2052Sol     OW11233   0.929   3.007   7.073  0.1798 -0.2701 -0.3016
 2052Sol     HW11234   1.018   2.983   7.048  0.3976  2.0534 -1.9531
 2052Sol     HW11235   0.938   3.093   7.113 -1.3278  0.0068 -0.5453
 2052Sol     MW11236   0.938   3.013   7.074  0.3191 -0.1004  0.2938
 2053Sol     OW11237   1.922   2.377   3.873  0.0231  0.2304  0.5129
 2053Sol     HW11238   2.015   2.380   3.897 -0.6469  1.3816  3.1725
 2053Sol     HW11239   1.893   2.468   3.881 -1.4138 -0.1747  0.0106
 2053Sol     MW11240   1.928   2.386   3.876  0.2383 -0.0989 -0.3910
 2054Sol     OW11241   0.323   1.034   3.332  0.2504 -0.5407  0.1190
 2054Sol     HW11242   0.311   0.948   3.372  0.3420 -1.3013 -1.4484
 2054Sol     HW11243   0.413   1.033   3.300  0.1901  0.0681 -0.0843
 2054Sol     MW11244   0.330   1.027   3.333  0.0673  0.5396  0.6534
 2055Sol     OW11245   2.758   1.251   3.066  0.0957 -0.5803  0.4136
 2055Sol     HW11246   2.698   1.177   3.076 -0.3616 -0.4477 -1.2444
 2055Sol     HW11247   2.845   1.211   3.066  0.0355 -0.7884  2.6547
 2055Sol     MW11248   2.760   1.241   3.067  0.4462  0.1414 -0.1672
 2056Sol     OW11249   0.682   0.168   7.735 -0.1037  0.1286 -0.0834
 2056Sol     HW11250   0.714   0.093   7.786 -1.1468 -0.4563 -0.2744
 2056Sol     HW11251   0.718   0.154   7.648  1.6766  1.1261  0.4722
 2056Sol     MW11252   0.688   0.160   7.732 -0.5037  0.1471 -0.3002
 2057Sol     OW11253   1.829   1.664   4.737 -0.3041  0.0340  0.1962
 2057Sol     HW11254   1.877   1.677   4.819 -1.3954  2.1954  0.5343
 2057Sol     HW11255   1.738   1.654   4.764 -0.7902  1.7070 -0.8081
 2057Sol     MW11256   1.825   1.664   4.747  0.5337 -0.2694  0.4432
 2058Sol     OW11257   0.032   1.222   7.722 -0.0196 -0.6712  0.5235
 2058Sol     HW11258   0.024   1.317   7.732  0.6936 -0.5487  0.0192
 2058Sol     HW11259   0.099   1.197   7.786  1.3605 -0.5160 -0.8397
 2058Sol     MW11260   0.037   1.228   7.729 -0.3027 -0.2920  0.1170
 2059Sol     OW11261   1.107   0.805   5.946  0.1226 -0.6829  0.8931
 2059Sol     HW11262   1.114   0.863   6.022  0.6309  1.6161 -0.8560
 2059Sol     HW11263   1.022   0.825   5.908  0.0223 -1.5689  0.6443
 2059Sol     MW11264   1.100   0.812   5.950 -0.1237 -0.8155 -0.3529
 2060Sol     OW11265   1.071   0.208   8.287  1.1740  0.4236  0.0598
 2060Sol     HW11266   1.110   0.147   8.225  0.6277  1.3741 -1.2431
 2060Sol     HW11267   1.135   0.279   8.295 -0.3437  2.1503 -2.3387
 2060Sol     MW11268   1.080   0.209   8.282  0.7147  0.0051 -1.1391
 2061Sol     OW11269   1.788   2.781   5.507 -0.1698 -0.2617 -0.3920
 2061Sol     HW11270   1.806   2.874   5.512 -1.3759 -0.0570  0.5144
 2061Sol     HW11271   1.792   2.751   5.598 -0.1804 -1.0143 -0.6374
 2061Sol     MW11272   1.790   2.786   5.516  0.5822  0.2687 -0.0723
 2062Sol     OW11273   0.534   3.350   2.170 -0.4720  0.0982 -0.0575
 2062Sol     HW11274   0.531   3.445   2.169 -0.3461  0.1291  1.3832
 2062Sol     HW11275   0.445   3.322   2.192 -0.5193 -0.1228 -0.5124
 2062Sol     MW11276   0.526   3.356   2.172  0.2960 -0.1279  0.2152
 2063Sol     OW11277   1.496   2.513   3.112  0.3572  0.3447  0.1403
 2063Sol     HW11278   1.437   2.533   3.185  1.3709 -1.4747  1.5274
 2063Sol     HW11279   1.447   2.452   3.057  0.2346  0.3384  0.2572
 2063Sol     MW11280   1.486   2.509   3.114  0.4336  0.0368 -0.4964
 2064Sol     OW11281   0.384   1.360   5.519  0.2060 -0.3694 -0.9540
 2064Sol     HW11282   0.360   1.443   5.477  1.2774 -0.6071 -2.0617
 2064Sol     HW11283   0.452   1.324   5.463  2.4339 -0.2058  1.5601
 2064Sol     MW11284   0.388   1.364   5.510 -1.0167  0.3953  0.1609
 2065Sol     OW11285   2.540   2.742   7.054  0.0285 -0.1548 -0.0584
 2065Sol     HW11286   2.629   2.713   7.075 -0.7310 -2.5710 -0.0304
 2065Sol     HW11287   2.521   2.810   7.120  1.4743 -0.3328  0.5578
 2065Sol     MW11288   2.546   2.746   7.062  0.6274  0.0542  0.3395
 2066Sol     OW11289   2.927   2.699   2.000 -0.4828 -0.0858  0.9346
 2066Sol     HW11290   2.891   2.684   2.088 -1.2455 -0.3922  0.5782
 2066Sol     HW11291   2.971   2.784   2.007  0.2036 -0.5020  1.8399
 2066Sol     MW11292   2.927   2.706   2.009 -0.2191  0.3852  0.0793
 2067Sol     OW11293   1.246   1.305   9.323  0.4029 -0.0558  0.4223
 2067Sol     HW11294   1.305   1.289   9.249  1.4663  0.2130  1.2067
 2067Sol     HW11295   1.286   1.258   9.396 -0.8320 -0.6120  0.7405
 2067Sol     MW11296   1.255   1.299   9.323  0.1367 -0.4620 -0.0154
 2068Sol     OW11297   1.920   0.687   3.299  0.4752  0.2934 -0.1147
 2068Sol     HW11298   1.867   0.686   3.379 -1.2743 -3.5313 -1.2209
 2068Sol     HW11299   1.895   0.769   3.256 -1.5929  0.4790  1.3203
 2068Sol     MW11300   1.913   0.694   3.303  0.5937  0.0773  0.1315
 2069Sol     OW11301   2.624   2.003   5.829  0.2419  0.5458  0.1818
 2069Sol     HW11302   2.701   2.026   5.778  0.8351 -0.4233  0.6244
 2069Sol     HW11303   2.605   2.082   5.880  0.4458  1.0622 -0.5293
 2069Sol     MW11304   2.629   2.012   5.829  0.8222  0.3720  0.3690
 2070Sol     OW11305   2.112   1.954   7.794  0.4221  0.2480 -0.1083
 2070Sol     HW11306   2.102   1.902   7.874  1.9664 -1.2514 -0.8487
 2070Sol     HW11307   2.127   1.889   7.725  3.6060  1.6710 -0.8744
 2070Sol     MW11308   2.113   1.944   7.795 -0.4066  0.0729  0.8615
 2071Sol     OW11309   1.778   3.253   4.339  0.1083 -0.3571 -0.0913
 2071Sol     HW11310   1.703   3.312   4.333 -0.0060 -0.3602  1.0706
 2071Sol     HW11311   1.844   3.304   4.386 -0.1198 -1.2598  1.2386
 2071Sol     MW11312   1.777   3.263   4.343 -0.1318  0.3932 -0.0791
 2072Sol     OW11313   2.409   2.790   8.847 -0.3642  0.3211 -0.3315
 2072Sol     HW11314   2.403   2.768   8.754  2.4826  0.4853 -0.5812
 2072Sol     HW11315   2.417   2.705   8.891  2.1613  0.4001 -0.5878
 2072Sol     MW11316   2.409   2.780   8.843 -0.4340 -0.1192 -0.2721
 2073Sol     OW11317   1.691   1.371   8.181  0.7132  0.3785 -0.5628
 2073Sol     HW11318   1.615   1.324   8.216  0.4122  0.0681 -1.6229
 2073Sol     HW11319   1.653   1.443   8.130  1.0996 -0.5917 -2.2360
 2073Sol     MW11320   1.681   1.374   8.180 -0.0269  0.4585 -0.0034
 2074Sol     OW11321   2.302   0.218   4.281 -0.1630 -0.3927  0.1771
 2074Sol     HW11322   2.363   0.292   4.275  0.8531 -1.1549  0.7879
 2074Sol     HW11323   2.316   0.183   4.369  0.7947 -2.4826 -0.7613
 2074Sol     MW11324   2.309   0.221   4.288 -0.3611  0.4233 -0.8531
 2075Sol     OW11325   1.637   1.028   7.585  0.0997 -0.3661 -0.3046
 2075Sol     HW11326   1.622   0.936   7.608 -4.5105  0.6041  1.0560
 2075Sol     HW11327   1.613   1.034   7.493 -0.1863 -0.4263 -0.2356
 2075Sol     MW11328   1.634   1.020   7.579 -0.1851  0.6148  0.2725
 2076Sol     OW11329   2.958   0.269   9.821  0.0666  0.4069  0.5771
 2076Sol     HW11330   2.960   0.295   9.729  1.3007  0.8851  0.7309
 2076Sol     HW11331   3.016   0.331   9.865 -0.4232  0.1117  1.6613
 2076Sol     MW11332   2.963   0.277   9.817 -0.0137  0.1816 -0.7119
 2077Sol     OW11333   1.342   0.053   5.422 -0.6032 -0.0884 -0.4864
 2077Sol     HW11334   1.330   0.112   5.347  1.0797 -0.1652 -0.8256
 2077Sol     HW11335   1.298  -0.028   5.396  1.5127 -0.7470 -2.1618
 2077Sol     MW11336   1.337   0.051   5.413  0.0684 -0.2746 -0.3829
 2078Sol     OW11337   1.419   1.419   9.977 -0.7165  0.0893 -0.6630
 2078Sol     HW11338   1.375   1.461   9.903 -0.5310  0.6928 -0.4398
 2078Sol     HW11339   1.488   1.366   9.938  1.0079  2.3694 -0.8106
 2078Sol     MW11340   1.421   1.418   9.967 -0.0616  0.0522 -0.4499
 2079Sol     OW11341   1.931   1.234   1.941 -0.2235  0.1982  0.2432
 2079Sol     HW11342   2.001   1.223   2.006  0.3236  1.5694 -0.0982
 2079Sol     HW11343   1.938   1.325   1.914 -3.2825  0.8288  1.4916
 2079Sol     MW11344   1.938   1.241   1.944  0.2653 -0.3631  0.0342
 2080Sol     OW11345   0.800   2.234   1.825 -0.2135 -0.6702 -0.3198
 2080Sol     HW11346   0.744   2.172   1.871  1.4815 -0.9266  1.4476
 2080Sol     HW11347   0.740   2.302   1.794 -1.4042 -0.4824  2.2868
 2080Sol     MW11348   0.789   2.235   1.826 -0.3826 -0.5547 -0.0310
 2081Sol     OW11349   1.355   2.291   7.015  0.0816 -0.0539  0.1377
 2081Sol     HW11350   1.346   2.273   7.108  0.5995 -0.5876  0.0908
 2081Sol     HW11351   1.314   2.216   6.972 -1.1726  0.7303 -0.0733
 2081Sol     MW11352   1.351   2.283   7.019 -0.2622  0.0780  0.0995
 2082Sol     OW11353   1.484   1.414   7.696  0.0935 -0.0935  0.1599
 2082Sol     HW11354   1.492   1.471   7.772 -1.0531  0.8100 -0.3820
 2082Sol     HW11355   1.568   1.423   7.650  1.7043 -2.4447  2.5229
 2082Sol     MW11356   1.493   1.420   7.699  0.2184  0.4086 -0.0785
 2083Sol     OW11357   2.858   2.158   6.058  0.6523 -0.0404  0.4293
 2083Sol     HW11358   2.928   2.204   6.012  0.7347 -0.2619  0.3326
 2083Sol     HW11359   2.900   2.079   6.093  0.5379  0.0105  0.6879
 2083Sol     MW11360   2.868   2.155   6.057 -0.2054  0.5385  0.1000
 2084Sol     OW11361   0.383   1.924   7.133  0.1104 -0.4131  0.7289
 2084Sol     HW11362   0.328   1.876   7.071 -0.5166 -0.3638  1.2482
 2084Sol     HW11363   0.377   2.015   7.104  0.6834 -0.5321  0.2123
 2084Sol     MW11364   0.378   1.928   7.125 -0.3301  0.3386  0.5569
 2085Sol     OW11365   2.240   3.378   1.436  0.1642 -0.0522 -0.5736
 2085Sol     HW11366   2.188   3.442   1.484 -0.4816  0.7587 -2.2900
 2085Sol     HW11367   2.188   3.298   1.438 -0.7789  0.5186 -1.5469
 2085Sol     MW11368   2.231   3.377   1.440 -0.2096  0.7429  0.0102
 2086Sol     OW11369   0.950   2.623   3.423  1.1712  0.5626 -0.2230
 2086Sol     HW11370   0.879   2.602   3.483  2.0170 -0.6892  0.3732
 2086Sol     HW11371   0.983   2.708   3.453  1.4471  0.0451  0.9768
 2086Sol     MW11372   0.947   2.629   3.431 -0.2109 -0.6970  0.3170
 2087Sol     OW11373   2.744   1.844   7.401 -0.0984  0.6557  0.0394
 2087Sol     HW11374   2.688   1.858   7.325 -0.4763  0.0892  0.2073
 2087Sol     HW11375   2.783   1.757   7.387 -0.9645  0.1012  0.9798
 2087Sol     MW11376   2.743   1.837   7.393  0.4249  0.1552  0.4572
 2088Sol     OW11377   1.136   1.209   3.404  0.1272 -0.1355  0.0653
 2088Sol     HW11378   1.105   1.129   3.361 -1.0190 -0.3206  1.2073
 2088Sol     HW11379   1.231   1.200   3.404 -0.0215 -2.2036  1.4035
 2088Sol     MW11380   1.142   1.201   3.400 -0.3811  0.4670  0.5702
 2089Sol     OW11381   0.063   1.532   1.767 -0.0975  0.2903 -0.1789
 2089Sol     HW11382   0.109   1.563   1.845 -1.7621  1.9575  0.1861
 2089Sol     HW11383   0.113   1.568   1.693 -0.1181  1.0605  0.1814
 2089Sol     MW11384   0.072   1.538   1.767  0.2285  0.3658  0.0993
 2090Sol     OW11385   0.841   2.534   4.892 -0.5559  0.1848  0.0252
 2090Sol     HW11386   0.918   2.508   4.842  0.8373 -0.8498  2.6292
 2090Sol     HW11387   0.781   2.460   4.886 -0.6076  0.2715 -0.5236
 2090Sol     MW11388   0.842   2.525   4.887  0.5139  0.3008  0.7326
 2091Sol     OW11389   2.812   2.293   3.310  0.2806 -0.2896  0.1965
 2091Sol     HW11390   2.842   2.384   3.318 -1.8581  0.6160 -1.6342
 2091Sol     HW11391   2.737   2.287   3.368 -0.4337 -0.4733 -0.7303
 2091Sol     MW11392   2.808   2.301   3.316  0.1252 -0.1097  0.1070
 2092Sol     OW11393   2.184   1.482   4.114 -0.5386  0.0012  0.3088
 2092Sol     HW11394   2.266   1.434   4.128 -1.0101 -0.4588  1.4969
 2092Sol     HW11395   2.147   1.492   4.202 -0.7763  1.9424  0.0132
 2092Sol     MW11396   2.188   1.479   4.123 -0.1768  0.1818  0.3634
 2093Sol     OW11397   3.069   0.950   6.509 -0.4146  0.1437 -0.6258
 2093Sol     HW11398   3.040   0.928   6.597  1.1927  0.4098 -0.0133
 2093Sol     HW11399   3.068   1.046   6.507 -1.0658  0.1321 -1.1178
 2093Sol     MW11400   3.067   0.957   6.516  0.0630 -0.5158 -0.4082
 2094Sol     OW11401   3.118   2.498   1.923  0.1972  0.4146  0.2797
 2094Sol     HW11402   3.057   2.572   1.920  0.7821  0.8757 -0.2202
 2094Sol     HW11403   3.063   2.423   1.948 -0.7317  0.6753 -0.9093
 2094Sol     MW11404   3.107   2.498   1.925 -0.1648 -0.2982  0.1471
 2095Sol     OW11405   2.454   3.380   2.381  0.3683  0.1163  0.6613
 2095Sol     HW11406   2.497   3.312   2.330 -0.8396 -0.9342  1.0045
 2095Sol     HW11407   2.477   3.462   2.337  1.1676 -0.5804 -0.2328
 2095Sol     MW11408   2.460   3.381   2.373  0.3957  0.1136  0.6894
 2096Sol     OW11409   0.471   0.547   3.269  0.1492 -0.1980  0.6145
 2096Sol     HW11410   0.411   0.482   3.306 -0.8886  1.0979  1.2604
 2096Sol     HW11411   0.459   0.625   3.323  0.6983  0.8388 -0.7102
 2096Sol     MW11412   0.465   0.549   3.277 -0.0057  0.1967  0.2143
 2097Sol     OW11413   0.919   0.103   5.852 -0.2496  0.1516  0.4976
 2097Sol     HW11414   0.898   0.138   5.766 -1.5412  1.1423  1.2049
 2097Sol     HW11415   0.981   0.166   5.889 -0.5856  0.3269  0.7553
 2097Sol     MW11416   0.923   0.111   5.847  0.0495 -0.5399 -0.2728
 2098Sol     OW11417   1.684   1.280   4.925  0.0027  0.0619 -0.0844
 2098Sol     HW11418   1.692   1.236   4.840  0.8031 -0.4383  0.2479
 2098Sol     HW11419   1.774   1.303   4.949 -0.0818 -0.9436  1.2288
 2098Sol     MW11420   1.693   1.278   4.919 -0.5905  0.1048 -0.2212
 2099Sol     OW11421   1.425   3.428   1.828 -0.2503  0.4565 -0.1526
 2099Sol     HW11422   1.483   3.355   1.848 -0.1943  0.4010 -0.5104
 2099Sol     HW11423   1.465   3.503   1.871 -0.3036  0.2819  0.2109
 2099Sol     MW11424   1.434   3.428   1.834 -0.0938  0.3727  0.1084
 2100Sol     OW11425   0.394   2.060   7.992 -0.7822 -0.4759 -0.1283
 2100Sol     HW11426   0.340   2.060   8.071 -0.6020  0.0714 -0.0013
 2100Sol     HW11427   0.484   2.056   8.024 -0.5595  2.6188 -0.1677
 2100Sol     MW11428   0.397   2.060   8.002  0.1388  0.2038 -0.0848
 2101Sol     OW11429   1.493   3.220   9.334  0.2339 -0.2250 -0.1001
 2101Sol     HW11430   1.430   3.191   9.400 -0.3946  2.0708  0.3340
 2101Sol     HW11431   1.565   3.157   9.340  0.0902 -0.1686  2.6317
 2101Sol     MW11432   1.494   3.212   9.340  0.0666  0.1192 -0.2657
 2102Sol     OW11433   0.505   0.812  10.007  0.2096  0.0624  0.4737
 2102Sol     HW11434   0.479   0.726  10.040 -1.9214  1.1092  1.6186
 2102Sol     HW11435   0.438   0.833   9.941  0.2168  1.2024  0.8247
 2102Sol     MW11436   0.496   0.806  10.004  0.7188 -0.3355 -0.0126
 2103Sol     OW11437   0.153   0.165   6.015  0.2759  0.3387 -0.2204
 2103Sol     HW11438   0.195   0.164   5.929 -2.4369 -0.1397 -1.5911
 2103Sol     HW11439   0.107   0.249   6.018  0.2320  0.2878  0.7255
 2103Sol     MW11440   0.153   0.172   6.008 -0.1435  1.0064 -0.4403
 2104Sol     OW11441   2.271   1.808   1.383  0.1173  0.2478 -0.3453
 2104Sol     HW11442   2.219   1.746   1.435 -1.2092  0.1019 -1.8044
 2104Sol     HW11443   2.314   1.753   1.316  0.6765  0.6182 -0.2938
 2104Sol     MW11444   2.270   1.797   1.381 -0.6802 -0.4277  0.1297
 2105Sol     OW11445   2.173   1.777   7.610  0.5387 -0.0075 -0.4045
 2105Sol     HW11446   2.152   1.811   7.523  2.4432  1.3204 -0.3848
 2105Sol     HW11447   2.267   1.757   7.605  0.0466 -2.7462  0.4469
 2105Sol     MW11448   2.180   1.778   7.601 -0.3793  0.1340  0.2121
 2106Sol     OW11449   2.671   2.856   3.318  0.0877  0.2094  0.4945
 2106Sol     HW11450   2.594   2.853   3.376  0.8372 -0.1293  1.4868
 2106Sol     HW11451   2.666   2.942   3.277 -2.8529 -1.1718 -2.2806
 2106Sol     MW11452   2.663   2.863   3.320 -0.1020  0.0455 -0.2399
 2107Sol     OW11453   0.806   1.740   5.524  0.3484 -0.3321  0.1195
 2107Sol     HW11454   0.779   1.797   5.596  1.8386 -0.5571  0.8693
 2107Sol     HW11455   0.892   1.773   5.498  0.0970 -0.6509 -1.1458
 2107Sol     MW11456   0.811   1.748   5.529  0.1694 -0.0135  0.4415
 2108Sol     OW11457   2.954   1.270   2.295 -0.2510 -0.6822  0.7508
 2108Sol     HW11458   3.043   1.242   2.318  0.4272 -0.2612 -1.2388
 2108Sol     HW11459   2.939   1.348   2.349  1.2948  0.2778 -0.1406
 2108Sol     MW11460   2.961   1.275   2.302  0.1307 -0.3831  0.0614
 2109Sol     OW11461   2.593   1.442   2.935  0.1567  0.2500 -0.1951
 2109Sol     HW11462   2.572   1.508   3.000 -0.1891  0.0149 -0.0624
 2109Sol     HW11463   2.641   1.375   2.984 -0.9063 -0.3670  0.0227
 2109Sol     MW11464   2.595   1.442   2.945 -0.1901  0.4685 -0.3297
 2110Sol     OW11465   2.373   0.326   2.531 -0.1391  0.3247 -0.3893
 2110Sol     HW11466   2.311   0.313   2.459 -0.4263 -2.4143  0.2960
 2110Sol     HW11467   2.459   0.331   2.489 -0.2757 -1.5418 -0.9184
 2110Sol     MW11468   2.375   0.325   2.521 -0.4739 -0.5576  0.8351
 2111Sol     OW11469   0.739   0.373   6.096  0.1476  0.1131  0.4692
 2111Sol     HW11470   0.669   0.423   6.138  0.1848  0.4111  0.1763
 2111Sol     HW11471   0.708   0.282   6.099  0.0062  0.1716  0.8515
 2111Sol     MW11472   0.730   0.369   6.100 -0.1781  0.3835 -0.0391
 2112Sol     OW11473   1.832   1.781   5.973  0.0077  0.1032  0.3296
 2112Sol     HW11474   1.856   1.770   5.881  0.7517  0.5735  0.4682
 2112Sol     HW11475   1.743   1.815   5.971 -0.1585 -0.3589 -0.2079
 2112Sol     MW11476   1.826   1.783   5.965 -0.0166 -0.0614 -0.1009
 2113Sol     OW11477   0.579   1.659   5.888 -0.4388 -0.2983 -0.4115
 2113Sol     HW11478   0.649   1.642   5.951 -0.3148 -0.8167 -0.6922
 2113Sol     HW11479   0.601   1.606   5.812 -0.6028  0.3056 -0.8871
 2113Sol     MW11480   0.587   1.653   5.887  0.7851 -0.5049 -0.4281
 2114Sol     OW11481   0.556   1.118   7.630 -0.4431 -0.1812 -0.1823
 2114Sol     HW11482   0.625   1.076   7.577 -1.8011 -0.6576 -1.6307
 2114Sol     HW11483   0.560   1.073   7.714  2.6055  1.4471  0.6129
 2114Sol     MW11484   0.562   1.110   7.633 -0.0206 -0.3101 -0.0936
 2115Sol     OW11485   1.030   0.399   3.600 -0.0115  0.1644  0.3382
 2115Sol     HW11486   1.056   0.342   3.673 -1.3941  0.7603  1.3046
 2115Sol     HW11487   0.991   0.339   3.536  0.1996 -0.2108  0.5554
 2115Sol     MW11488   1.029   0.388   3.601  0.2076 -0.6611  0.2447
 2116Sol     OW11489   1.387   1.540   3.596 -0.1305  0.3478 -0.2452
 2116Sol     HW11490   1.471   1.495   3.604 -1.2725 -1.6889  0.6059
 2116Sol     HW11491   1.405   1.629   3.624  2.4072  0.7486 -2.8252
 2116Sol     MW11492   1.396   1.544   3.599 -0.0674 -0.1352  0.1844
 2117Sol     OW11493   0.503   2.320   1.357  0.1664  0.3277 -0.1683
 2117Sol     HW11494   0.491   2.384   1.426 -1.0912 -0.0276 -0.0380
 2117Sol     HW11495   0.511   2.372   1.277 -0.9660  0.6496 -0.0785
 2117Sol     MW11496   0.503   2.330   1.356 -0.0351  0.2151 -0.2420
 2118Sol     OW11497   2.346   3.411   3.304  0.0986  0.1053  0.3291
 2118Sol     HW11498   2.293   3.346   3.349  0.7652  0.6421  1.9121
 2118Sol     HW11499   2.308   3.495   3.330  1.8248  0.5034  1.6389
 2118Sol     MW11500   2.338   3.413   3.310 -0.0488 -0.1103 -0.1154
 2119Sol     OW11501   0.552   3.131   5.345 -0.0000 -0.1758  0.2238
 2119Sol     HW11502   0.509   3.216   5.355 -0.1586 -0.2709  0.3504
 2119Sol     HW11503   0.514   3.076   5.414  0.9909  0.0081  0.9400
 2119Sol     MW11504   0.545   3.133   5.352  0.4015 -0.6682 -0.0502
 2120Sol     OW11505   1.041   1.201   9.574 -0.1705 -0.4300 -0.1327
 2120Sol     HW11506   1.050   1.290   9.608 -2.6339  0.6332 -2.0749
 2120Sol     HW11507   1.128   1.178   9.543  0.7066  0.9338  1.2627
 2120Sol     MW11508   1.050   1.207   9.574  0.6690 -1.0139  0.4150
 2121Sol     OW11509   1.993   2.635   5.364 -0.0903 -0.0407  0.2853
 2121Sol     HW11510   2.004   2.655   5.271  0.8122 -0.2014  0.3546
 2121Sol     HW11511   1.925   2.695   5.394 -0.0748  0.3107 -0.3810
 2121Sol     MW11512   1.988   2.642   5.359 -0.4174 -0.8631  0.2383
 2122Sol     OW11513   3.025   0.426   3.597  0.3818 -0.5409  0.1123
 2122Sol     HW11514   3.106   0.381   3.619  0.5556  0.7970  2.3513
 2122Sol     HW11515   3.050   0.517   3.585 -0.6538 -0.2619  0.0124
 2122Sol     MW11516   3.034   0.430   3.598 -0.8540 -0.2363  0.1804
 2123Sol     OW11517   2.004   1.478   1.843 -0.8146 -0.3386  0.0543
 2123Sol     HW11518   2.089   1.486   1.887 -1.1607  0.0036  0.6545
 2123Sol     HW11519   2.027   1.466   1.751 -0.1337  2.1137 -0.1521
 2123Sol     MW11520   2.014   1.478   1.838 -0.2531  0.3148  0.5578
 2124Sol     OW11521   0.158   1.796   9.679  0.2282 -0.6484 -0.3347
 2124Sol     HW11522   0.209   1.736   9.734 -0.5734 -1.4042 -0.3927
 2124Sol     HW11523   0.153   1.877   9.729 -0.4927 -1.3317  0.7169
 2124Sol     MW11524   0.162   1.798   9.688  0.7549  0.6858  0.4395
 2125Sol     OW11525   1.454   1.216   6.722 -0.1223  0.0400  0.3108
 2125Sol     HW11526   1.521   1.263   6.672  0.4066 -1.7987 -0.7849
 2125Sol     HW11527   1.422   1.149   6.661 -1.2325 -0.6657  1.6345
 2125Sol     MW11528   1.457   1.214   6.712  0.2456 -0.1603  0.4417
 2126Sol     OW11529   2.209   0.989   2.912 -0.1322  0.1731  0.3258
 2126Sol     HW11530   2.224   0.922   2.978  0.2067 -0.7204 -0.6422
 2126Sol     HW11531   2.283   1.049   2.920  0.2772 -0.3264  0.2865
 2126Sol     MW11532   2.217   0.989   2.919  0.3512  0.1204  0.2851
 2127Sol     OW11533   1.943   1.801   2.292  0.1968  0.3999  0.5129
 2127Sol     HW11534   1.939   1.812   2.198 -0.5856  0.7536  0.5837
 2127Sol     HW11535   1.948   1.889   2.328  2.8591  0.1910  0.7159
 2127Sol     MW11536   1.943   1.810   2.287  0.1423 -0.0725 -0.2265
 2128Sol     OW11537   2.978   1.326   4.171 -0.0081  0.5031  0.2375
 2128Sol     HW11538   3.006   1.417   4.164 -0.6479  0.4822 -3.1762
 2128Sol     HW11539   3.048   1.276   4.130 -0.3405 -0.4346  0.7988
 2128Sol     MW11540   2.986   1.330   4.167  0.1262  0.2151  0.0111
 2129Sol     OW11541   3.146   2.024   5.120  0.0967 -0.0129 -0.1992
 2129Sol     HW11542   3.216   1.994   5.179 -0.0050  0.7977  0.3547
 2129Sol     HW11543   3.072   2.042   5.179  0.0377  0.9361 -0.5532
 2129Sol     MW11544   3.146   2.023   5.131  0.1828  0.6151  0.4539
 2130Sol     OW11545   2.447   3.282   6.448  0.5290  0.3012 -0.2841
 2130Sol     HW11546   2.498   3.210   6.412  0.7033 -0.2996  1.1053
 2130Sol     HW11547   2.464   3.278   6.543 -0.3356  1.4754 -0.0655
 2130Sol     MW11548   2.453   3.275   6.454  0.2887  0.1239  0.6947
 2131Sol     OW11549   0.392   3.369   8.983 -0.0425  0.8823  0.1747
 2131Sol     HW11550   0.469   3.426   8.974  1.9653 -1.7035  0.4091
 2131Sol     HW11551   0.406   3.299   8.920 -1.7340 -0.1599  0.9248
 2131Sol     MW11552   0.401   3.368   8.977  0.2537 -0.1504  0.1922
 2132Sol     OW11553   2.606   3.352   7.187 -0.5089 -0.3491  0.5257
 2132Sol     HW11554   2.547   3.427   7.174 -2.2328 -1.6784  0.5288
 2132Sol     HW11555   2.594   3.329   7.279  0.6325 -0.1434  0.7359
 2132Sol     MW11556   2.599   3.357   7.194 -0.9234  0.3322  0.1970
 2133Sol     OW11557   1.265   3.402   3.444 -0.5601  0.5351  0.0297
 2133Sol     HW11558   1.234   3.461   3.375 -1.5900  0.6392  0.5730
 2133Sol     HW11559   1.361   3.410   3.440 -0.6669  2.0362 -0.0943
 2133Sol     MW11560   1.271   3.408   3.438 -0.4723  0.3761 -0.1535
 2134Sol     OW11561   0.861   1.814   6.876 -0.6929 -0.9753  0.0261
 2134Sol     HW11562   0.862   1.758   6.798  1.0967 -0.0731 -0.6170
 2134Sol     HW11563   0.937   1.787   6.926 -0.0315  0.5969 -0.1011
 2134Sol     MW11564   0.868   1.807   6.873  0.3152  0.3787  0.0894
 2135Sol     OW11565   0.562   2.457   3.380  0.0772  0.2112  0.5908
 2135Sol     HW11566   0.587   2.370   3.351 -0.6529 -0.5794  2.2920
 2135Sol     HW11567   0.527   2.499   3.302 -0.3597 -1.3064 -0.0407
 2135Sol     MW11568   0.561   2.453   3.371  0.4834 -0.1494  0.4494
 2136Sol     OW11569   0.588   1.152   9.006 -0.0218 -0.0811 -0.0343
 2136Sol     HW11570   0.674   1.191   8.988 -0.0439 -0.9548 -2.3029
 2136Sol     HW11571   0.603   1.094   9.080  0.8940  1.2568  0.8455
 2136Sol     MW11572   0.597   1.150   9.011  0.1578  0.0285 -1.0798
 2137Sol     OW11573   2.647   0.701   4.181 -0.1448  0.5043  0.0060
 2137Sol     HW11574   2.707   0.717   4.109  1.9289  1.7553  1.9351
 2137Sol     HW11575   2.574   0.761   4.166  1.2290  2.2240 -0.0104
 2137Sol     MW11576   2.646   0.708   4.173 -0.4460  0.3987 -0.2513
 2138Sol     OW11577   0.187   1.313   2.610 -0.2247  0.1527 -0.1075
 2138Sol     HW11578   0.194   1.270   2.695  2.7770  0.3383 -0.2230
 2138Sol     HW11579   0.193   1.242   2.546 -1.1209  0.1526 -0.1931
 2138Sol     MW11580   0.188   1.303   2.612  0.3312 -0.4318 -1.1776
 2139Sol     OW11581   1.022   1.286   6.155 -0.0671 -0.1288 -0.0953
 2139Sol     HW11582   0.946   1.344   6.158  0.2997  0.3224  0.9107
 2139Sol     HW11583   1.091   1.337   6.198  0.7027 -0.6716 -0.6901
 2139Sol     MW11584   1.021   1.296   6.160 -0.0116  0.5932 -1.2108
 2140Sol     OW11585   0.315   0.932   1.496 -0.3887 -0.4970 -0.1889
 2140Sol     HW11586   0.402   0.969   1.484 -0.2954 -0.5624  0.2563
 2140Sol     HW11587   0.282   0.918   1.408  0.3440 -1.1637 -0.3644
 2140Sol     MW11588   0.320   0.934   1.487  0.1915  0.6250  0.3218
 2141Sol     OW11589   0.254   3.092   9.205 -0.5063 -0.1754 -0.1979
 2141Sol     HW11590   0.336   3.069   9.162 -0.8751 -1.1429 -0.3827
 2141Sol     HW11591   0.186   3.053   9.151 -1.1704  1.6420 -0.7083
 2141Sol     MW11592   0.256   3.086   9.197  0.2891 -0.8014 -0.2586
 2142Sol     OW11593   3.078   1.134   1.931  0.4306 -0.0951 -0.5239
 2142Sol     HW11594   3.030   1.200   1.982 -1.6712 -2.4258  0.6128
 2142Sol     HW11595   3.170   1.159   1.940 -0.1566  1.4621  1.6459
 2142Sol     MW11596   3.082   1.142   1.936  0.0697  0.0401  0.2045
 2143Sol     OW11597   2.908   0.092   4.637 -0.0909 -0.3171  0.3362
 2143Sol     HW11598   2.907   0.112   4.543 -1.4175 -1.6691  0.0491
 2143Sol     HW11599   2.878   0.173   4.678 -1.1890 -0.2678 -0.5256
 2143Sol     MW11600   2.905   0.101   4.632  0.8549 -0.0962 -0.0833
 2144Sol     OW11601   0.263   1.037   6.054 -0.0783  0.8184  0.1936
 2144Sol     HW11602   0.351   1.029   6.093  0.2125 -1.7130 -0.8744
 2144Sol     HW11603   0.206   0.991   6.115 -0.2290  0.1436 -0.4538
 2144Sol     MW11604   0.266   1.032   6.063  0.8730 -0.6666  0.3725
 2145Sol     OW11605   0.753   0.998   8.408  0.0424 -0.5931 -0.1352
 2145Sol     HW11606   0.840   0.982   8.445 -0.3043  0.3275  1.1129
 2145Sol     HW11607   0.756   1.090   8.380 -0.5191 -0.5718 -0.1246
 2145Sol     MW11608   0.761   1.005   8.409  0.0083 -0.3617 -0.8623
 2146Sol     OW11609   3.064   3.365   5.093 -0.0621 -0.0464  0.1233
 2146Sol     HW11610   2.977   3.405   5.100  0.0795  0.0704  1.3970
 2146Sol     HW11611   3.125   3.436   5.114  0.2908 -0.3609  0.1614
 2146Sol     MW11612   3.062   3.375   5.096  0.6369 -0.6461 -0.1330
 2147Sol     OW11613   3.009   2.707   5.827  0.3659  0.2108  0.0064
 2147Sol     HW11614   3.066   2.715   5.904 -0.7827  0.6160  0.8376
 2147Sol     HW11615   2.980   2.797   5.810  0.4777  0.0970 -0.8012
 2147Sol     MW11616   3.011   2.716   5.833 -0.2321  0.5741 -0.1590
 2148Sol     OW11617   3.025   1.722   6.379  0.3593  0.5164 -0.2603
 2148Sol     HW11618   2.940   1.721   6.423 -0.2852  2.0949 -1.4338
 2148Sol     HW11619   3.089   1.712   6.450 -0.8413 -4.0254  0.3445
 2148Sol     MW11620   3.024   1.721   6.389 -0.1782  0.7852 -0.3514
 2149Sol     OW11621   0.324   0.477   7.922 -0.0118  0.4086  0.0250
 2149Sol     HW11622   0.256   0.472   7.990 -0.9039  2.0980 -0.7276
 2149Sol     HW11623   0.406   0.487   7.971 -0.5770  0.9113  0.8793
 2149Sol     MW11624   0.325   0.477   7.933 -0.2035  0.2637  0.1054
 2150Sol     OW11625   1.559   0.614   8.757 -0.3671 -0.3728 -0.2701
 2150Sol     HW11626   1.575   0.620   8.851  2.9283  2.5110 -0.9392
 2150Sol     HW11627   1.473   0.655   8.744 -0.6985 -0.5038  1.4232
 2150Sol     MW11628   1.552   0.618   8.764  0.1429 -0.1812 -0.1821
 2151Sol     OW11629   0.448   2.966   5.542  0.6209 -0.7452  0.0299
 2151Sol     HW11630   0.366   2.922   5.520  0.4952 -0.2312 -0.5737
 2151Sol     HW11631   0.434   3.003   5.629 -0.3964  0.7751 -0.7634
 2151Sol     MW11632   0.439   2.966   5.548 -0.3152  0.3213 -0.6416
 2152Sol     OW11633   1.013   2.235   7.257  0.3523  0.1520  0.3238
 2152Sol     HW11634   0.955   2.307   7.233 -1.0684 -1.6953 -2.0109
 2152Sol     HW11635   1.101   2.271   7.246 -0.3143  0.9791 -2.6397
 2152Sol     MW11636   1.016   2.245   7.254  0.0240  0.5235 -0.1519
 2153Sol     OW11637   1.564   2.084   9.135 -0.2471 -0.1359  0.6263
 2153Sol     HW11638   1.578   2.145   9.063  0.0258 -0.7728  0.1335
 2153Sol     HW11639   1.612   2.005   9.109  0.1227 -0.2498  1.6557
 2153Sol     MW11640   1.569   2.082   9.126  0.7011 -0.1498  0.0611
 2154Sol     OW11641   0.114   3.301   4.183 -0.2903 -0.2032 -0.1434
 2154Sol     HW11642   0.025   3.337   4.191  0.1750  0.7695  0.8276
 2154Sol     HW11643   0.165   3.351   4.247  1.2775  0.2978 -1.7541
 2154Sol     MW11644   0.111   3.309   4.189  0.2798 -0.2679 -0.1382
 2155Sol     OW11645   0.534   0.526   4.109  0.1306  0.1445 -0.2935
 2155Sol     HW11646   0.492   0.441   4.113 -1.1905  0.7378 -1.2136
 2155Sol     HW11647   0.593   0.520   4.033  0.4183 -0.1167 -0.0482
 2155Sol     MW11648   0.536   0.518   4.102  0.4420  0.2787 -0.1893
 2156Sol     OW11649   2.171   3.054   3.170 -0.2018 -0.3852 -0.1620
 2156Sol     HW11650   2.159   3.036   3.263 -0.6193  1.1021  0.0874
 2156Sol     HW11651   2.083   3.051   3.134  0.1082 -2.4130 -0.8003
 2156Sol     MW11652   2.162   3.052   3.175 -0.1606 -0.5751  0.3575
 2157Sol     OW11653   2.351   3.437   4.110 -0.1607  0.3503  0.1967
 2157Sol     HW11654   2.432   3.431   4.061 -0.1628  1.1927  0.0959
 2157Sol     HW11655   2.358   3.518   4.160 -0.7591  0.2128  0.5130
 2157Sol     MW11656   2.358   3.443   4.110  0.3461  0.3169  0.0109
 2158Sol     OW11657   1.632   2.151   4.707 -0.3108  0.0508  0.5798
 2158Sol     HW11658   1.673   2.066   4.722  1.8908  1.2269  1.5233
 2158Sol     HW11659   1.625   2.190   4.794 -1.8171  0.6228  0.2176
 2158Sol     MW11660   1.635   2.147   4.717 -0.3037  0.0784  0.4901
 2159Sol     OW11661   2.935   0.777   4.939  0.1441 -0.0990  0.2626
 2159Sol     HW11662   2.955   0.864   4.904 -0.6333  0.4846  1.2324
 2159Sol     HW11663   3.013   0.753   4.988 -0.5294  1.1483  2.0504
 2159Sol     MW11664   2.944   0.783   4.941 -0.1566  1.0629  0.4800
 2160Sol     OW11665   3.195   2.918   3.459  0.5473  0.0825 -0.3752
 2160Sol     HW11666   3.127   2.897   3.396  0.2440 -0.8098  0.2498
 2160Sol     HW11667   3.271   2.868   3.430  0.4355 -0.2544 -0.0882
 2160Sol     MW11668   3.196   2.912   3.451 -0.2758 -0.0871 -0.3012
 2161Sol     OW11669   1.673   2.064   7.342 -0.2298  0.6472  0.0273
 2161Sol     HW11670   1.609   2.033   7.279 -2.1198  2.8928  0.7761
 2161Sol     HW11671   1.698   2.151   7.311  1.7420  0.1954  0.2737
 2161Sol     MW11672   1.669   2.069   7.334  0.1960 -0.4122  0.5365
 2162Sol     OW11673   3.179   2.796   7.778 -0.3601  0.3615 -0.0153
 2162Sol     HW11674   3.196   2.710   7.815 -0.3081  0.6098  0.5560
 2162Sol     HW11675   3.237   2.855   7.827 -2.5232  1.1707  1.6980
 2162Sol     MW11676   3.186   2.794   7.786  0.3693 -0.2189 -0.0609
 2163Sol     OW11677   2.182   0.853   8.676 -0.3236 -0.2979 -0.2571
 2163Sol     HW11678   2.272   0.872   8.650  0.5506 -0.6632  2.3613
 2163Sol     HW11679   2.181   0.759   8.693 -0.8917 -0.1170  0.7805
 2163Sol     MW11680   2.190   0.846   8.675 -0.5081  0.3241  0.7499
 2164Sol     OW11681   1.700   3.296   7.771 -0.0206 -0.2274  0.1328
 2164Sol     HW11682   1.622   3.322   7.820  0.5893  0.1180  0.9424
 2164Sol     HW11683   1.759   3.371   7.780  0.2365 -0.3180 -0.8246
 2164Sol     MW11684   1.699   3.305   7.777  0.0294 -0.1838 -0.2975
 2165Sol     OW11685   0.066   1.799   3.621 -0.4250 -0.2093  0.3636
 2165Sol     HW11686  -0.027   1.804   3.643 -0.2784  0.8248  0.7586
 2165Sol     HW11687   0.067   1.775   3.529 -1.1255  2.0322 -0.2707
 2165Sol     MW11688   0.057   1.797   3.615  0.3993  1.0342  0.4421
 2166Sol     OW11689   1.009   2.419   4.695 -0.0200  0.3535 -0.2827
 2166Sol     HW11690   0.938   2.424   4.631 -0.1090  0.4106 -0.1796
 2166Sol     HW11691   1.033   2.327   4.698 -1.6935 -0.0468  1.4275
 2166Sol     MW11692   1.005   2.411   4.690  0.5315 -0.4177  0.3483
 2167Sol     OW11693   0.627   2.638   1.427 -0.2428 -0.6251  0.4487
 2167Sol     HW11694   0.671   2.690   1.360  0.4253  1.3689  2.3834
 2167Sol     HW11695   0.691   2.571   1.450  0.3151 -0.0680  0.5362
 2167Sol     MW11696   0.637   2.637   1.423 -0.0281 -0.1545 -0.3429
 2168Sol     OW11697   3.203   1.372   2.828 -0.3067 -0.0784 -0.3605
 2168Sol     HW11698   3.262   1.296   2.833 -1.0752 -0.6377  0.5009
 2168Sol     HW11699   3.116   1.333   2.815 -0.7883  0.6131  0.7060
 2168Sol     MW11700   3.200   1.361   2.827  0.1569  0.4053 -0.5070
 2169Sol     OW11701   0.193   0.413   2.485  0.7354 -0.7928  0.1837
 2169Sol     HW11702   0.218   0.321   2.491  0.9528 -0.6546  1.4322
 2169Sol     HW11703   0.145   0.431   2.566 -1.0105 -0.3043 -0.9241
 2169Sol     MW11704   0.191   0.407   2.493 -0.2021  0.6598 -0.2812
 2170Sol     OW11705   1.014   0.417   9.103 -0.1474  0.1879  0.8498
 2170Sol     HW11706   0.921   0.394   9.102 -0.0400 -0.2557  0.8552
 2170Sol     HW11707   1.029   0.454   9.190  0.3865 -2.7086  2.0345
 2170Sol     MW11708   1.007   0.418   9.110 -0.1435 -0.5367 -0.6805
 2171Sol     OW11709   1.072   2.296   7.722 -0.2001 -0.1986  0.1329
 2171Sol     HW11710   0.989   2.333   7.690 -0.2259  0.6397  1.1544
 2171Sol     HW11711   1.094   2.349   7.798  0.7024 -1.1501  0.5417
 2171Sol     MW11712   1.066   2.304   7.726  0.0721 -0.2777 -0.6127
 2172Sol     OW11713   2.134   1.383   7.424 -0.2880  0.2445 -0.3107
 2172Sol     HW11714   2.128   1.389   7.519 -1.6396 -0.2118 -0.3556
 2172Sol     HW11715   2.046   1.356   7.396  0.6409 -1.6258 -1.5278
 2172Sol     MW11716   2.126   1.381   7.430 -0.4231  0.1586 -0.8983
 2173Sol     OW11717   2.383   0.244   7.594 -0.5562 -0.0360  0.0453
 2173Sol     HW11718   2.425   0.214   7.674  0.4389  3.0785  0.7774
 2173Sol     HW11719   2.310   0.298   7.624 -0.8242  0.2774 -1.1441
 2173Sol     MW11720   2.380   0.247   7.603  0.1923 -0.4934 -0.1219
 2174Sol     OW11721   2.042   1.799   5.203 -0.3978  1.0682 -0.2505
 2174Sol     HW11722   1.982   1.781   5.275  1.0321  0.1905  0.7580
 2174Sol     HW11723   2.095   1.873   5.234  1.6698 -0.6884  0.5412
 2174Sol     MW11724   2.042   1.804   5.212  0.5199 -0.5523 -0.7314
 2175Sol     OW11725   1.270   0.516   6.629 -0.2614 -0.0495 -0.1566
 2175Sol     HW11726   1.294   0.436   6.583  0.8240 -0.6883  1.4659
 2175Sol     HW11727   1.352   0.565   6.637 -0.8907  1.1733 -1.0233
 2175Sol     MW11728   1.279   0.513   6.626  0.1444 -0.2274 -0.3514
 2176Sol     OW11729   1.003   2.546   1.605 -0.5993  0.0985 -0.0486
 2176Sol     HW11730   0.970   2.634   1.620 -2.1527 -0.2551 -1.1985
 2176Sol     HW11731   1.006   2.506   1.692 -0.0046  1.2349  0.4535
 2176Sol     MW11732   1.000   2.550   1.614  0.2944 -0.0997  0.4620
 2177Sol     OW11733   2.935   0.698   7.115 -0.4055  0.5432 -0.0997
 2177Sol     HW11734   2.953   0.724   7.025  0.5242  1.2415  0.2708
 2177Sol     HW11735   2.902   0.778   7.156 -0.7533  0.2474  0.1992
 2177Sol     MW11736   2.934   0.708   7.111 -0.0295  0.2269 -0.4497
 2178Sol     OW11737   1.981   1.450   5.395  0.1915  0.1370  0.4804
 2178Sol     HW11738   2.064   1.434   5.440  0.8882  1.6793 -0.2326
 2178Sol     HW11739   2.003   1.446   5.302 -0.4033  1.2024  0.2893
 2178Sol     MW11740   1.991   1.448   5.390 -0.3928 -0.0182 -0.3655
 2179Sol     OW11741   1.054   1.324   2.810  0.5345  0.6406 -0.7395
 2179Sol     HW11742   1.090   1.243   2.773  1.8112  0.5029  0.7628
 2179Sol     HW11743   1.062   1.388   2.739  1.3387 -0.0518 -1.2869
 2179Sol     MW11744   1.058   1.322   2.800 -0.4679 -0.3654  0.0194
 2180Sol     OW11745   1.024   2.016   7.065  0.2363  0.5424  0.3340
 2180Sol     HW11746   1.013   2.063   7.148 -0.4366  1.6199 -0.3570
 2180Sol     HW11747   0.973   2.067   7.002  1.3281  0.1201 -0.8975
 2180Sol     MW11748   1.018   2.025   7.067 -0.1415  0.1851  0.1625
 2181Sol     OW11749   1.311   1.602   1.661  0.1648 -0.1550 -0.0883
 2181Sol     HW11750   1.386   1.568   1.614 -0.7514 -2.0504 -0.2063
 2181Sol     HW11751   1.262   1.525   1.688 -1.7701  1.0472 -0.0434
 2181Sol     MW11752   1.313   1.592   1.660  0.0912 -0.5218 -0.6089
 2182Sol     OW11753   1.815   2.387   8.781 -0.2030 -0.3179 -0.8186
 2182Sol     HW11754   1.806   2.341   8.697  0.3097 -2.1803  0.1263
 2182Sol     HW11755   1.782   2.475   8.763  1.8509 -0.0319 -3.5272
 2182Sol     MW11756   1.811   2.391   8.772  0.0027 -0.6344 -0.2037
 2183Sol     OW11757   0.383   2.920   7.157  0.3257 -0.9172 -0.0460
 2183Sol     HW11758   0.300   2.929   7.110 -0.3572  0.0369  1.3268
 2183Sol     HW11759   0.424   2.843   7.117 -0.2392 -0.1533 -2.1784
 2183Sol     MW11760   0.379   2.914   7.149 -0.4633  0.2635 -0.1425
 2184Sol     OW11761   0.277   2.582   6.645 -0.1886  0.2580  0.2560
 2184Sol     HW11762   0.219   2.601   6.571  0.4759  2.7698  0.3565
 2184Sol     HW11763   0.218   2.548   6.713 -0.9648 -0.9515 -0.9808
 2184Sol     MW11764   0.267   2.580   6.644  0.6434  0.5491  0.1034
 2185Sol     OW11765   0.209   0.721   4.227  0.1072 -0.0312 -0.2074
 2185Sol     HW11766   0.166   0.660   4.286 -0.4744  0.7700  0.1974
 2185Sol     HW11767   0.143   0.788   4.208  1.0530  1.0252  0.1635
 2185Sol     MW11768   0.199   0.722   4.231  0.3700  0.1312  0.2069
 2186Sol     OW11769   0.243   1.153   9.037  0.8654 -0.3648  0.9348
 2186Sol     HW11770   0.323   1.159   9.089  0.9729  0.2475  0.6937
 2186Sol     HW11771   0.270   1.175   8.948  0.2845  0.5766  0.9912
 2186Sol     MW11772   0.253   1.155   9.034 -0.1005 -0.3762  0.3395
 2187Sol     OW11773   0.291   0.736   7.813 -0.6933 -0.2103  0.3236
 2187Sol     HW11774   0.310   0.645   7.835 -2.1890 -0.3852  0.9181
 2187Sol     HW11775   0.221   0.762   7.873 -0.5313  1.2252 -0.0768
 2187Sol     MW11776   0.286   0.730   7.820 -0.0889  0.2678 -0.0432
 2188Sol     OW11777   0.295   1.375   6.210  0.0442 -1.0159 -0.1165
 2188Sol     HW11778   0.319   1.450   6.156 -0.4370  0.4632  1.6880
 2188Sol     HW11779   0.363   1.370   6.277 -0.2026 -1.8662  0.0752
 2188Sol     MW11780   0.303   1.381   6.211 -0.0714  0.2357 -0.0113
 2189Sol     OW11781   3.011   1.463   3.644  0.3043 -0.0185  0.1528
 2189Sol     HW11782   3.098   1.437   3.675  0.3235 -1.0398 -0.7151
 2189Sol     HW11783   3.026   1.492   3.554 -0.4064 -1.1844 -0.3459
 2189Sol     MW11784   3.020   1.463   3.639 -0.0610 -0.3692  0.2885
 2190Sol     OW11785   1.667   0.361   3.438  0.3846 -0.3344 -0.0027
 2190Sol     HW11786   1.703   0.427   3.497  0.4025 -0.1124 -0.2606
 2190Sol     HW11787   1.703   0.383   3.352 -0.6512  0.1128 -0.3350
 2190Sol     MW11788   1.674   0.369   3.436  0.3547  0.1721 -0.3643
 2191Sol     OW11789   0.456   2.192   2.292 -0.0529 -0.1373  0.2715
 2191Sol     HW11790   0.431   2.128   2.225 -1.2843  0.6730 -0.0539
 2191Sol     HW11791   0.412   2.273   2.265 -0.4270  0.2364  1.9780
 2191Sol     MW11792   0.450   2.194   2.284  0.5160  0.0091 -0.2357
 2192Sol     OW11793   2.817   1.540   6.866  0.0017  0.8691  0.7120
 2192Sol     HW11794   2.866   1.561   6.945  0.9789  0.3236  0.2651
 2192Sol     HW11795   2.851   1.602   6.800 -1.4562  1.9497  0.9305
 2192Sol     MW11796   2.824   1.548   6.867 -0.2311  0.5394 -0.7963
 2193Sol     OW11797   3.032   1.789   5.462  0.1557 -0.2649 -0.2647
 2193Sol     HW11798   3.025   1.730   5.386 -0.4719  0.3898 -0.7218
 2193Sol     HW11799   3.112   1.761   5.506  0.9620 -0.1293 -1.6094
 2193Sol     MW11800   3.039   1.781   5.459  0.4576  0.3621 -0.1592
 2194Sol     OW11801   0.132   2.415   1.525  0.0223  0.4069  0.2026
 2194Sol     HW11802   0.101   2.432   1.614 -2.2383 -1.3057 -0.1962
 2194Sol     HW11803   0.061   2.446   1.469  0.3319 -0.7951 -0.8850
 2194Sol     MW11804   0.123   2.419   1.528 -0.2268  0.5143  0.0283
 2195Sol     OW11805   0.474   2.901   2.884  0.6000  0.0107  0.2917
 2195Sol     HW11806   0.444   2.880   2.795 -2.7514  1.5188  0.9713
 2195Sol     HW11807   0.532   2.976   2.873 -1.6506  1.7054 -0.4663
 2195Sol     MW11808   0.476   2.906   2.875  1.0998 -0.0096  0.3430
 2196Sol     OW11809   1.088   0.177   1.942 -0.0084  0.4925  0.1364
 2196Sol     HW11810   1.003   0.206   1.976 -0.1015 -2.6594  2.8689
 2196Sol     HW11811   1.149   0.246   1.966 -1.4254  1.7564  0.1275
 2196Sol     MW11812   1.086   0.185   1.947  0.0687  0.3992 -0.4240
 2197Sol     OW11813   2.204   2.370   8.002  0.2055 -0.1775 -0.0875
 2197Sol     HW11814   2.110   2.384   8.014  0.1502  0.2560 -0.9282
 2197Sol     HW11815   2.210   2.304   7.933  0.5156 -1.3042  0.9949
 2197Sol     MW11816   2.196   2.366   7.997 -0.1772 -0.8703 -0.0924
 2198Sol     OW11817   1.944   2.850   7.009  0.0012 -0.0151 -0.1396
 2198Sol     HW11818   1.865   2.905   7.009  0.1790  0.2372 -0.1803
 2198Sol     HW11819   1.910   2.761   7.022 -0.0761  0.3721  2.5488
 2198Sol     MW11820   1.934   2.847   7.010  0.1074 -0.8581 -0.1792
 2199Sol     OW11821   0.104   0.802   7.988  0.1368  0.5867  0.6583
 2199Sol     HW11822   0.132   0.744   8.059  1.1732  0.9124  0.5192
 2199Sol     HW11823   0.112   0.890   8.024 -0.2441  0.7033  0.4545
 2199Sol     MW11824   0.107   0.804   7.998 -0.7824  0.4132 -0.4186
 2200Sol     OW11825   0.432   1.429   6.534  0.2232  0.4500  0.0412
 2200Sol     HW11826   0.359   1.384   6.577  2.1149 -2.5614  0.2142
 2200Sol     HW11827   0.499   1.437   6.603  1.5342 -0.3155 -1.1218
 2200Sol     MW11828   0.432   1.426   6.544 -0.5375 -0.1752  0.1642
 2201Sol     OW11829   2.561   3.278   3.664 -0.5722 -0.0063 -0.0667
 2201Sol     HW11830   2.632   3.311   3.720 -1.7310 -1.2137  2.1629
 2201Sol     HW11831   2.516   3.357   3.634 -1.2032  0.6202  2.4289
 2201Sol     MW11832   2.563   3.288   3.667 -0.3091  0.0213  0.4842
 2202Sol     OW11833   2.822   2.182   5.019 -0.1961 -0.3453  0.2174
 2202Sol     HW11834   2.837   2.255   5.079 -1.1628  0.3563 -0.3817
 2202Sol     HW11835   2.778   2.116   5.072  1.7413 -0.9898  1.0652
 2202Sol     MW11836   2.819   2.183   5.029 -0.0973  0.1278 -0.6227
 2203Sol     OW11837   1.345   2.606   3.979 -1.0389 -0.1893  0.7520
 2203Sol     HW11838   1.346   2.692   3.938 -0.5558 -1.5867 -2.3104
 2203Sol     HW11839   1.430   2.567   3.956 -2.5853 -2.7572 -0.8452
 2203Sol     MW11840   1.353   2.610   3.973  0.4641  0.3425 -0.2069
 2204Sol     OW11841   3.181   1.356   8.943 -0.1869 -0.0292  0.3985
 2204Sol     HW11842   3.190   1.267   8.979 -2.1111 -0.9335 -1.2047
 2204Sol     HW11843   3.103   1.391   8.986 -0.4117  0.2272 -0.2022
 2204Sol     MW11844   3.174   1.351   8.950  0.2282  0.3173  0.1542
 2205Sol     OW11845   0.778   1.245   4.658 -0.2426 -0.1148 -0.2101
 2205Sol     HW11846   0.700   1.264   4.709 -0.3920  1.2794 -0.9275
 2205Sol     HW11847   0.833   1.323   4.669  0.5588 -0.6158 -0.6198
 2205Sol     MW11848   0.776   1.254   4.664 -0.0106  0.2029  0.1029
 2206Sol     OW11849   0.018   1.652   3.068  0.3679 -0.3257  0.2092
 2206Sol     HW11850   0.010   1.686   2.979 -1.2253 -2.8581 -0.6875
 2206Sol     HW11851  -0.057   1.593   3.078  0.5936 -0.1962  3.1913
 2206Sol     MW11852   0.011   1.650   3.061 -0.3921 -0.0879 -0.1239
 2207Sol     OW11853   2.588   0.450   1.560  0.2875  0.2284 -0.0371
 2207Sol     HW11854   2.545   0.385   1.616 -0.9362  1.7170  0.7994
 2207Sol     HW11855   2.667   0.406   1.529  0.7198 -0.8446  2.4348
 2207Sol     MW11856   2.591   0.440   1.562  0.4161 -0.3175 -0.0872
 2208Sol     OW11857   0.243   3.362   6.315 -0.0729  0.3419  0.6784
 2208Sol     HW11858   0.293   3.300   6.263 -0.7838 -2.1773  2.9112
 2208Sol     HW11859   0.307   3.398   6.377 -0.4341 -0.9165  1.7964
 2208Sol     MW11860   0.254   3.360   6.316 -0.8147 -0.1785 -0.1066
 2209Sol     OW11861   1.996   0.864   1.531 -1.2633 -0.0933 -0.2150
 2209Sol     HW11862   1.924   0.801   1.541 -1.0134 -0.1992  0.9908
 2209Sol     HW11863   1.987   0.922   1.606  0.5783 -0.7790  0.5689
 2209Sol     MW11864   1.989   0.863   1.538  0.2024  0.6229 -0.2032
 2210Sol     OW11865   1.354   2.357   2.933 -0.3339  1.0294  0.5622
 2210Sol     HW11866   1.375   2.304   2.855 -3.4001  0.6652 -0.0702
 2210Sol     HW11867   1.297   2.300   2.986 -0.8647  2.4480  1.5361
 2210Sol     MW11868   1.351   2.347   2.931 -0.2245  0.3921 -0.1155
 2211Sol     OW11869   2.396   3.029   9.104 -0.5340  0.0999  0.1088
 2211Sol     HW11870   2.317   2.988   9.068 -1.1350  0.4780  0.9732
 2211Sol     HW11871   2.445   3.057   9.027 -2.4655  2.1254 -0.4683
 2211Sol     MW11872   2.393   3.028   9.094 -0.3070  0.3642  0.6610
 2212Sol     OW11873   2.067   2.811   6.177 -0.3924  0.9230 -0.2185
 2212Sol     HW11874   2.121   2.790   6.253 -0.5083  0.3929 -0.2774
 2212Sol     HW11875   2.037   2.725   6.145 -0.0733  1.1161 -1.0524
 2212Sol     MW11876   2.069   2.801   6.181 -0.6991 -0.0120  0.6417
 2213Sol     OW11877   1.656   2.254   8.955 -0.0419 -0.7730 -0.1765
 2213Sol     HW11878   1.575   2.266   8.905 -0.5147  1.2883  1.0591
 2213Sol     HW11879   1.725   2.287   8.897 -0.2159 -1.3078 -0.6974
 2213Sol     MW11880   1.655   2.258   8.945  0.3201 -0.7714 -0.4359
 2214Sol     OW11881   3.145   0.233   2.471  0.3906  0.5161  0.1564
 2214Sol     HW11882   3.196   0.159   2.437  0.5941  1.0104 -0.6258
 2214Sol     HW11883   3.142   0.296   2.399 -0.7013  0.8144  0.4566
 2214Sol     MW11884   3.150   0.232   2.462 -0.0759 -0.1877 -0.5898
 2215Sol     OW11885   3.221   1.632   5.090 -0.2264 -0.2526 -0.0952
 2215Sol     HW11886   3.222   1.691   5.014  2.9345  1.2553  0.9916
 2215Sol     HW11887   3.150   1.665   5.145  1.5416  2.7560  0.5396
 2215Sol     MW11888   3.215   1.640   5.088 -0.3578 -0.3511  0.1357
 2216Sol     OW11889   2.158   3.356   3.937 -0.7374 -0.2023 -0.1717
 2216Sol     HW11890   2.203   3.295   3.879 -1.3825 -0.4854 -0.3838
 2216Sol     HW11891   2.218   3.368   4.010 -0.0372 -0.0526 -0.7724
 2216Sol     MW11892   2.167   3.351   3.939 -0.7686 -0.3051 -0.8558
 2217Sol     OW11893   2.460   2.703   5.416  0.9396 -0.2220 -0.1112
 2217Sol     HW11894   2.415   2.653   5.348 -0.3931  0.0585  0.5623
 2217Sol     HW11895   2.542   2.731   5.374  1.1505 -1.9209 -0.8790
 2217Sol     MW11896   2.464   2.701   5.406  0.5385 -0.0101 -0.1218
 2218Sol     OW11897   1.935   0.725   9.491 -0.0539  0.1301  0.1714
 2218Sol     HW11898   1.916   0.651   9.549  2.5976 -0.9635 -0.2806
 2218Sol     HW11899   1.914   0.693   9.403  2.6237 -0.7023 -0.2050
 2218Sol     MW11900   1.931   0.716   9.489 -0.0423 -0.2796  0.2554
 2219Sol     OW11901   0.578   3.401   7.428 -0.1569  0.2586 -0.7044
 2219Sol     HW11902   0.535   3.397   7.513  0.7787  0.1233 -0.2378
 2219Sol     HW11903   0.635   3.478   7.434  0.0555  0.1364 -1.1403
 2219Sol     MW11904   0.579   3.408   7.436  0.5581 -0.8487 -0.2038
 2220Sol     OW11905   0.746   1.834   9.692  0.2773  0.3397  0.1123
 2220Sol     HW11906   0.760   1.917   9.645 -1.2891  0.8262  0.4758
 2220Sol     HW11907   0.761   1.766   9.626  0.9786  0.9299 -0.3455
 2220Sol     MW11908   0.749   1.836   9.682  0.4829 -0.0855 -0.3656
 2221Sol     OW11909   1.881   3.124   8.801 -0.1471  0.5780  0.1468
 2221Sol     HW11910   1.929   3.144   8.721 -2.6135  2.9202 -0.8234
 2221Sol     HW11911   1.801   3.080   8.771  0.0270 -0.7510  1.5341
 2221Sol     MW11912   1.878   3.121   8.792 -0.1542 -0.2452  0.0869
 2222Sol     OW11913   2.561   2.360   9.356  0.0676 -0.2911  0.0465
 2222Sol     HW11914   2.617   2.436   9.373  0.1310 -0.0715 -1.1363
 2222Sol     HW11915   2.513   2.383   9.276  0.5425 -1.7659 -0.6692
 2222Sol     MW11916   2.562   2.369   9.351  0.1972  0.1755 -0.3282
 2223Sol     OW11917   0.852   2.873   5.051 -0.3934 -0.2248  0.1135
 2223Sol     HW11918   0.767   2.904   5.022 -0.7479  0.3362  1.7120
 2223Sol     HW11919   0.905   2.868   4.971 -0.9467  2.5218 -0.4429
 2223Sol     MW11920   0.849   2.875   5.042 -0.1707 -0.3694 -0.3396
 2224Sol     OW11921   0.467   1.081   2.519  0.4105  0.3307  0.2120
 2224Sol     HW11922   0.376   1.095   2.492  0.6688 -0.3587 -1.0943
 2224Sol     HW11923   0.461   1.043   2.606 -0.5520  0.3806  0.1702
 2224Sol     MW11924   0.458   1.079   2.524 -0.3283  0.0092 -0.5818
 2225Sol     OW11925   1.003   1.992   7.675  0.6523  0.2988  0.5678
 2225Sol     HW11926   0.985   2.041   7.755 -1.5247  2.0166 -0.9241
 2225Sol     HW11927   0.965   2.045   7.605 -0.1629 -2.6430 -1.3142
 2225Sol     MW11928   0.998   2.001   7.676 -0.3273  0.0051  0.0509
 2226Sol     OW11929   1.508   0.919   1.452  0.1028  0.0356 -0.0309
 2226Sol     HW11930   1.581   0.981   1.449  0.0046  0.1231 -0.6778
 2226Sol     HW11931   1.548   0.834   1.433  0.1430 -0.0197  0.2891
 2226Sol     MW11932   1.518   0.917   1.450 -0.0100 -0.0809 -0.3773
 2227Sol     OW11933   2.585   3.317   3.243 -0.3936 -0.3398 -0.3639
 2227Sol     HW11934   2.658   3.378   3.248 -0.6292 -0.0944  0.0539
 2227Sol     HW11935   2.509   3.368   3.268 -0.6365 -0.7281 -0.3043
 2227Sol     MW11936   2.585   3.327   3.246 -0.1198 -0.4031 -0.5815
 2228Sol     OW11937   0.019   0.346   6.361  0.0045  0.0885  0.1645
 2228Sol     HW11938  -0.042   0.416   6.340  0.2590  0.6830  1.3171
 2228Sol     HW11939  -0.036   0.272   6.384 -0.2674 -0.4834 -2.2498
 2228Sol     MW11940   0.009   0.346   6.362 -0.5772  0.2505 -0.5342
 2229Sol     OW11941   2.280   0.947   4.820 -0.8983  0.3102  0.4663
 2229Sol     HW11942   2.198   0.971   4.776 -0.8630 -0.7011 -0.1741
 2229Sol     HW11943   2.261   0.862   4.860  0.7062 -1.3998 -2.1969
 2229Sol     MW11944   2.271   0.942   4.819 -0.4886 -0.4685 -0.1734
 2230Sol     OW11945   3.085   3.333   4.497  0.0818 -0.5046 -0.3681
 2230Sol     HW11946   3.003   3.294   4.526 -0.5517  0.8868 -0.2582
 2230Sol     HW11947   3.111   3.280   4.421 -0.1546 -1.8414  0.4561
 2230Sol     MW11948   3.080   3.325   4.493  0.0136  0.1181  0.6014
 2231Sol     OW11949   0.321   0.104   7.313  0.0683  0.0420 -0.3183
 2231Sol     HW11950   0.314   0.010   7.331  2.0008 -0.0685 -0.0912
 2231Sol     HW11951   0.287   0.114   7.224 -0.1329 -0.8762 -0.3480
 2231Sol     MW11952   0.317   0.096   7.307  0.3725 -0.5371 -0.0865
 2232Sol     OW11953   1.907   2.874   8.351  0.6399 -0.0558  0.1301
 2232Sol     HW11954   1.908   2.950   8.293 -0.6873 -0.9091 -1.0348
 2232Sol     HW11955   1.960   2.808   8.305  0.3021 -0.4466  0.2984
 2232Sol     MW11956   1.912   2.875   8.341  0.1200 -0.1812  0.0758
 2233Sol     OW11957   2.055   2.982   1.637 -0.5493  0.0278 -0.1247
 2233Sol     HW11958   1.992   3.043   1.598 -1.3293 -0.7015 -0.0382
 2233Sol     HW11959   2.022   2.967   1.726  1.3247  1.8273  0.9046
 2233Sol     MW11960   2.046   2.986   1.642  0.1430 -0.1520 -0.1603
 2234Sol     OW11961   0.507   0.685   2.154 -0.9900  0.0068 -0.1457
 2234Sol     HW11962   0.485   0.604   2.201  1.5085  0.1765  1.4538
 2234Sol     HW11963   0.530   0.747   2.223  0.7943  0.9060 -1.4977
 2234Sol     MW11964   0.507   0.683   2.164 -0.1214  0.2714 -0.4591
 2235Sol     OW11965   2.166   1.500   7.708 -0.7350 -0.2889  0.1399
 2235Sol     HW11966   2.212   1.566   7.656 -2.0491  1.0499  0.6613
 2235Sol     HW11967   2.212   1.498   7.791 -1.7639  1.2361  0.7541
 2235Sol     MW11968   2.174   1.506   7.711 -0.0358 -0.9761  0.1571
 2236Sol     OW11969   0.443   1.669   9.421  0.2184  0.0344  0.5055
 2236Sol     HW11970   0.397   1.623   9.351 -2.7961  0.6037  2.0262
 2236Sol     HW11971   0.445   1.761   9.393  1.6116 -0.1606 -0.1181
 2236Sol     MW11972   0.439   1.673   9.412  0.0153  0.6079  0.0220
 2237Sol     OW11973   2.502   2.215   7.714 -0.8689 -0.0486  0.1904
 2237Sol     HW11974   2.474   2.294   7.668 -1.9146 -0.1626  0.6269
 2237Sol     HW11975   2.528   2.155   7.644  1.1452  1.1103 -0.1003
 2237Sol     MW11976   2.502   2.216   7.703 -0.0740  0.1618 -0.0638
 2238Sol     OW11977   0.316   3.019   9.447  0.2468  1.0058  0.0700
 2238Sol     HW11978   0.298   3.058   9.361  0.3492  0.2094 -0.3218
 2238Sol     HW11979   0.337   3.093   9.503 -0.0599  1.5587 -0.5333
 2238Sol     MW11980   0.316   3.029   9.444  0.4051 -0.6124  0.2616
 2239Sol     OW11981   2.996   1.101   3.006  0.1481  0.5932  0.1918
 2239Sol     HW11982   2.972   1.009   3.019  0.3392  0.5534  0.2730
 2239Sol     HW11983   2.997   1.113   2.911  0.1898  0.4932  0.1796
 2239Sol     MW11984   2.994   1.094   2.999  0.1729 -0.3881 -0.7463
 2240Sol     OW11985   0.338   2.300   2.756  0.5840  0.1241 -0.1204
 2240Sol     HW11986   0.334   2.364   2.686  1.2156 -0.6514 -0.8770
 2240Sol     HW11987   0.264   2.242   2.740  1.4438 -0.7795 -0.8699
 2240Sol     MW11988   0.331   2.300   2.749 -0.4778  0.2685  0.1205
 2241Sol     OW11989   1.681   2.009   6.690  0.4261 -0.0745  0.2713
 2241Sol     HW11990   1.765   1.964   6.692 -0.1404 -1.1294  1.7688
 2241Sol     HW11991   1.619   1.943   6.660  0.1441  0.7586 -1.0325
 2241Sol     MW11992   1.683   1.999   6.688 -0.1806  0.2438 -0.8425
 2242Sol     OW11993   0.170   2.443   3.220 -0.0706  0.9453 -0.4099
 2242Sol     HW11994   0.151   2.452   3.313 -1.4961  0.7056 -0.6653
 2242Sol     HW11995   0.108   2.377   3.189  0.0338  1.4103 -1.6444
 2242Sol     MW11996   0.163   2.438   3.226  0.2385  0.4957 -0.3125
 2243Sol     OW11997   1.096   1.840   7.479  0.3942 -0.1616 -0.4595
 2243Sol     HW11998   1.053   1.893   7.546  0.7226  0.0448 -0.4056
 2243Sol     HW11999   1.047   1.758   7.476 -0.9524  0.6542 -1.4810
 2243Sol     MW12000   1.088   1.838   7.485 -0.3375  0.0154  0.3868
 2244Sol     OW12001   2.070   2.358   2.303  0.7993  0.2764 -0.5116
 2244Sol     HW12002   2.060   2.446   2.267  1.2977 -0.1778 -1.7705
 2244Sol     HW12003   2.000   2.351   2.368 -0.2811  1.0122 -1.5728
 2244Sol     MW12004   2.062   2.365   2.306  0.0481 -0.4493 -0.2949
 2245Sol     OW12005   0.369   1.791   3.457  0.0372 -0.2439  0.3484
 2245Sol     HW12006   0.448   1.844   3.453  0.9343 -1.6012 -0.4878
 2245Sol     HW12007   0.315   1.823   3.385 -0.2373  0.7839  1.0127
 2245Sol     MW12008   0.371   1.798   3.450 -0.2802 -0.7370 -0.0897
 2246Sol     OW12009   0.585   0.599   8.978 -0.5545  0.3803 -0.5601
 2246Sol     HW12010   0.498   0.617   8.941 -0.5978  1.2277 -0.0458
 2246Sol     HW12011   0.638   0.673   8.951  0.0183 -0.1346 -0.8635
 2246Sol     MW12012   0.582   0.607   8.972 -0.1280 -0.3978  0.3774
 2247Sol     OW12013   1.435   2.764   2.978  0.6329 -0.1206 -0.3964
 2247Sol     HW12014   1.473   2.693   3.029 -0.9592 -2.2886 -2.1386
 2247Sol     HW12015   1.388   2.818   3.042 -1.0193 -2.5718  0.5269
 2247Sol     MW12016   1.434   2.763   2.988  0.1001  0.9777  0.1711
 2248Sol     OW12017   3.119   0.094   7.903 -0.2735 -0.7989 -0.3631
 2248Sol     HW12018   3.079   0.127   7.822  1.0750  0.5603 -0.5010
 2248Sol     HW12019   3.069   0.138   7.972  0.7952  0.7142 -0.5310
 2248Sol     MW12020   3.111   0.101   7.902  0.0756  0.1207  0.1675
 2249Sol     OW12021   2.902   3.164   6.763 -0.1805 -0.0640  0.6279
 2249Sol     HW12022   2.819   3.191   6.801 -0.4633 -0.0994  0.0320
 2249Sol     HW12023   2.878   3.110   6.687  0.3752  0.4333  0.0877
 2249Sol     MW12024   2.893   3.162   6.759 -0.2165  0.8408 -0.0349
 2250Sol     OW12025   2.711   1.118   4.480  0.0982 -0.7916  0.7020
 2250Sol     HW12026   2.734   1.026   4.495  0.2399 -0.5263  2.2098
 2250Sol     HW12027   2.632   1.132   4.532  0.4586  0.1130  1.0253
 2250Sol     MW12028   2.706   1.111   4.486 -0.0598 -0.2819 -0.0699
 2251Sol     OW12029   3.118   0.073   5.848 -0.1226 -0.0614 -0.1716
 2251Sol     HW12030   3.089   0.163   5.858  0.6334  0.1623  0.0486
 2251Sol     HW12031   3.087   0.029   5.927 -0.2271  0.0736 -0.1367
 2251Sol     MW12032   3.113   0.077   5.856  0.6463 -0.8596 -0.5994
 2252Sol     OW12033   1.779   1.431   7.629 -0.3028 -0.1370  0.4202
 2252Sol     HW12034   1.801   1.354   7.683 -0.2767 -1.5271 -1.5350
 2252Sol     HW12035   1.844   1.497   7.655  0.7555 -1.3313  0.9200
 2252Sol     MW12036   1.787   1.430   7.637 -0.8033 -0.1751  0.0567
 2253Sol     OW12037   0.553   2.192   9.454 -0.0827 -0.1215  0.5427
 2253Sol     HW12038   0.621   2.170   9.517 -1.1637 -0.4646  1.5866
 2253Sol     HW12039   0.526   2.109   9.416 -0.4519 -0.0561  0.6632
 2253Sol     MW12040   0.556   2.183   9.456 -0.1747 -0.6013 -0.5173
 2254Sol     OW12041   1.866   2.994   6.107 -0.1185  0.4271  0.3532
 2254Sol     HW12042   1.931   2.926   6.124 -0.3735  0.0373 -0.2301
 2254Sol     HW12043   1.917   3.065   6.067  0.3119  0.9689  1.8332
 2254Sol     MW12044   1.877   2.995   6.105  0.1677 -0.2169 -0.3478
 2255Sol     OW12045   2.889   2.373   4.513 -0.8347  0.3275 -0.6278
 2255Sol     HW12046   2.845   2.385   4.428  0.4629 -0.7508 -1.4610
 2255Sol     HW12047   2.944   2.296   4.501  0.9575  1.4039  0.5388
 2255Sol     MW12048   2.890   2.368   4.504 -0.1634  0.4966 -0.4495
 2256Sol     OW12049   2.587   0.784   4.806  0.2580 -0.0267  0.5043
 2256Sol     HW12050   2.499   0.813   4.785  0.6892  1.7113  0.9714
 2256Sol     HW12051   2.643   0.829   4.742  0.8598 -0.6688  0.5680
 2256Sol     MW12052   2.584   0.791   4.798  0.2297  0.1165  0.2867
 2257Sol     OW12053   2.667   3.123   6.906  0.8123 -0.1633 -0.2538
 2257Sol     HW12054   2.590   3.132   6.962 -0.7067 -0.3769 -2.2431
 2257Sol     HW12055   2.658   3.037   6.867  3.1104 -0.9972  0.9522
 2257Sol     MW12056   2.659   3.116   6.908 -0.3083 -0.3987  0.2571
 2258Sol     OW12057   0.605   1.586   7.448 -0.4284  0.5133 -0.4011
 2258Sol     HW12058   0.646   1.667   7.418 -1.0317  0.4499 -1.4376
 2258Sol     HW12059   0.679   1.529   7.471  0.0335  0.8837 -0.9491
 2258Sol     MW12060   0.616   1.588   7.447 -0.4724 -0.2884  0.0575
 2259Sol     OW12061   2.356   2.762   4.029 -0.5159  0.5186 -0.3369
 2259Sol     HW12062   2.397   2.776   4.115 -2.2047 -0.6902  0.7105
 2259Sol     HW12063   2.390   2.678   3.999  0.6348  1.2854 -1.2015
 2259Sol     MW12064   2.363   2.756   4.034 -0.2155 -0.0119  0.4359
 2260Sol     OW12065   3.161   1.321   8.251 -0.3426 -0.0661 -0.1924
 2260Sol     HW12066   3.212   1.391   8.212 -0.2954  0.3214  0.5604
 2260Sol     HW12067   3.188   1.320   8.343 -0.9584 -0.5081 -0.0129
 2260Sol     MW12068   3.168   1.327   8.256 -0.0350  0.8128  0.2343
 2261Sol     OW12069   0.123   1.193   3.459 -0.3576 -0.0322  0.2013
 2261Sol     HW12070   0.193   1.165   3.400  0.1709  0.0790  0.7668
 2261Sol     HW12071   0.157   1.174   3.547 -1.0459  0.0034  0.4759
 2261Sol     MW12072   0.133   1.189   3.462  0.5548  0.0893 -0.1211
 2262Sol     OW12073   0.131   3.243   6.905 -0.5670  0.1689 -0.2103
 2262Sol     HW12074   0.106   3.204   6.821 -2.6128 -0.9406  0.8554
 2262Sol     HW12075   0.051   3.237   6.958  0.7355  0.7010  1.8632
 2262Sol     MW12076   0.121   3.239   6.903  0.2350 -0.5394  0.2122
 2263Sol     OW12077   0.714   2.425   4.047 -0.1797  0.1397 -0.2496
 2263Sol     HW12078   0.800   2.415   4.005  0.0569  0.4970  0.1393
 2263Sol     HW12079   0.722   2.377   4.129  0.6238  2.5303  1.1400
 2263Sol     MW12080   0.723   2.420   4.051  0.2220  0.2658 -0.0982
 2264Sol     OW12081   0.549   1.451   9.551  0.6272 -0.6191  0.2056
 2264Sol     HW12082   0.511   1.526   9.505 -0.1521 -0.5059  1.0229
 2264Sol     HW12083   0.564   1.386   9.483  1.0281  0.1683 -0.4654
 2264Sol     MW12084   0.547   1.452   9.541  0.1690  0.3196  0.0713
 2265Sol     OW12085   2.233   2.920   5.249 -0.1394 -0.3680 -0.1960
 2265Sol     HW12086   2.229   2.930   5.344  0.8378 -0.4769 -0.1348
 2265Sol     HW12087   2.323   2.945   5.226  0.7512 -3.7174 -0.6460
 2265Sol     MW12088   2.241   2.923   5.255  1.2592 -0.4568  0.0131
 2266Sol     OW12089   1.426   0.028   8.024  0.1559 -0.5973 -0.7745
 2266Sol     HW12090   1.349  -0.001   7.975 -0.7360  0.1823  0.1392
 2266Sol     HW12091   1.392   0.048   8.111  0.9168  2.1866 -1.0613
 2266Sol     MW12092   1.416   0.027   8.027 -0.3109  0.2092  0.3101
 2267Sol     OW12093   0.197   2.705   7.385  0.0874  0.2407  0.7415
 2267Sol     HW12094   0.152   2.770   7.332  0.0490 -0.3129  0.0761
 2267Sol     HW12095   0.137   2.685   7.456 -0.3923  0.0747  0.2936
 2267Sol     MW12096   0.188   2.709   7.386 -0.4472 -0.6347  0.3952
 2268Sol     OW12097   2.496   0.677   3.829 -0.1754 -0.2000  0.1591
 2268Sol     HW12098   2.480   0.584   3.810 -2.5249  0.1639  0.1474
 2268Sol     HW12099   2.451   0.691   3.913 -0.4365  1.0814 -0.1890
 2268Sol     MW12100   2.490   0.670   3.835  0.4259 -0.2306 -0.6308
 2269Sol     OW12101   1.022   0.918   8.459 -0.0113 -0.6667  0.3162
 2269Sol     HW12102   1.022   0.912   8.364 -0.7507  0.6188  0.2236
 2269Sol     HW12103   1.034   0.828   8.489  2.1391 -0.8601 -0.9962
 2269Sol     MW12104   1.023   0.910   8.453 -0.1372  0.3254  0.7498
 2270Sol     OW12105   2.453   2.839   4.282  0.0077 -0.5174 -0.0121
 2270Sol     HW12106   2.382   2.812   4.340  1.3669  0.7647  2.2969
 2270Sol     HW12107   2.530   2.793   4.316  0.7635 -0.0111 -1.0201
 2270Sol     MW12108   2.454   2.832   4.290  0.5017 -0.0054  0.1761
 2271Sol     OW12109   0.619   2.687   5.383  0.1869 -0.3198 -0.8518
 2271Sol     HW12110   0.691   2.633   5.350  0.2280 -1.1761  0.6187
 2271Sol     HW12111   0.641   2.703   5.475 -0.5584  0.9920 -0.8906
 2271Sol     MW12112   0.627   2.684   5.388 -0.6246 -0.4134  0.1479
 2272Sol     OW12113   1.068   2.951   3.923 -0.2705 -0.1153  0.3373
 2272Sol     HW12114   0.989   2.923   3.876 -1.5639  0.8600  1.8484
 2272Sol     HW12115   1.055   2.918   4.012  2.1348 -1.9250  0.0488
 2272Sol     MW12116   1.059   2.946   3.927 -0.0370 -0.3487 -0.8734
 2273Sol     OW12117   1.862   1.585   8.046 -0.7358 -0.0470  0.1631
 2273Sol     HW12118   1.809   1.656   8.081 -0.8478 -0.6936  1.3198
 2273Sol     HW12119   1.909   1.550   8.122  0.1599 -0.4879 -0.5853
 2273Sol     MW12120   1.862   1.588   8.056 -0.0906  0.5910 -0.3405
 2274Sol     OW12121   0.622   2.772   5.640 -0.0123  0.7936  0.1081
 2274Sol     HW12122   0.702   2.820   5.664  0.4823  0.1572 -0.2468
 2274Sol     HW12123   0.565   2.839   5.602  0.9098  1.0095 -0.9449
 2274Sol     MW12124   0.624   2.783   5.638  0.5924 -0.6044 -0.1037
 2275Sol     OW12125   1.062   0.728   4.977 -0.2350  0.0004 -0.4629
 2275Sol     HW12126   0.979   0.682   4.984  0.0315 -0.5813 -1.0716
 2275Sol     HW12127   1.067   0.783   5.055  0.4080 -2.5359  1.3340
 2275Sol     MW12128   1.055   0.729   4.984  0.6690 -0.5391 -0.1637
 2276Sol     OW12129   2.354   2.896   1.833 -0.6755 -0.2009  0.0625
 2276Sol     HW12130   2.431   2.890   1.776 -0.2300  0.0658  0.6262
 2276Sol     HW12131   2.319   2.807   1.834 -1.0811 -0.0618 -1.1608
 2276Sol     MW12132   2.358   2.887   1.828 -0.0184 -0.3423 -0.0707
 2277Sol     OW12133   0.028   1.375   6.510  0.3465  0.4630 -0.2731
 2277Sol     HW12134   0.074   1.447   6.466  0.7685  0.7863  0.7013
 2277Sol     HW12135   0.057   1.297   6.464  2.1412  0.6224  0.5359
 2277Sol     MW12136   0.034   1.375   6.502 -0.0041  0.3011  0.4906
 2278Sol     OW12137   0.872   0.702   3.298  0.1033  0.2223  0.4646
 2278Sol     HW12138   0.960   0.668   3.284 -0.7119 -2.3076  1.1109
 2278Sol     HW12139   0.817   0.648   3.242 -1.3575 -0.1496  2.2010
 2278Sol     MW12140   0.875   0.694   3.292 -0.4279  0.6239 -0.1854
 2279Sol     OW12141   2.146   1.668   8.735 -0.0185 -0.2982 -0.1671
 2279Sol     HW12142   2.163   1.590   8.788 -1.6414 -2.7860 -3.1573
 2279Sol     HW12143   2.232   1.706   8.719  0.8141 -1.6047  1.1480
 2279Sol     MW12144   2.155   1.665   8.738 -0.3946 -0.2233 -0.3198
 2280Sol     OW12145   3.269   2.452   7.472  0.1069  0.7153 -0.0331
 2280Sol     HW12146   3.246   2.544   7.482  0.4555  0.9094 -0.9667
 2280Sol     HW12147   3.203   2.405   7.524  0.4469  1.5280  1.1702
 2280Sol     MW12148   3.261   2.456   7.478  0.6578 -0.0345  0.6108
 2281Sol     OW12149   2.094   3.393   8.642  0.7469 -0.0496  0.3168
 2281Sol     HW12150   2.055   3.310   8.614 -1.1509  1.3290 -1.2437
 2281Sol     HW12151   2.184   3.371   8.664 -0.2817 -2.9335  1.9608
 2281Sol     MW12152   2.098   3.384   8.642  0.4971  0.1074 -0.7995
 2282Sol     OW12153   1.885   1.239   3.200 -0.0279  0.0443  0.0851
 2282Sol     HW12154   1.838   1.281   3.272 -1.8200  0.6099 -1.3720
 2282Sol     HW12155   1.976   1.265   3.212 -0.6023  1.6406  1.0769
 2282Sol     MW12156   1.889   1.245   3.208  0.6888 -0.5268  0.3776
 2283Sol     OW12157   3.102   0.455   5.206 -0.0396 -0.6188 -0.4574
 2283Sol     HW12158   3.158   0.405   5.265 -0.9924 -0.6078  0.4577
 2283Sol     HW12159   3.025   0.476   5.257 -0.5440  0.0515 -1.4702
 2283Sol     MW12160   3.100   0.452   5.216  0.1355  0.1961  0.1812
 2284Sol     OW12161   2.625   0.707   2.420  0.4976  0.6406  0.0279
 2284Sol     HW12162   2.691   0.687   2.353  1.1156 -0.8276  1.0341
 2284Sol     HW12163   2.666   0.680   2.502 -1.1384  0.2637  0.7414
 2284Sol     MW12164   2.635   0.703   2.421 -0.2127 -0.3586 -0.3763
 2285Sol     OW12165   0.044   0.902   3.729 -0.4642 -0.0655  0.2433
 2285Sol     HW12166   0.062   0.827   3.785  1.3645 -0.1682 -0.4301
 2285Sol     HW12167  -0.033   0.944   3.767 -1.3577 -2.1433  0.7627
 2285Sol     MW12168   0.039   0.899   3.737 -0.4809 -0.4110 -0.6967
 2286Sol     OW12169   0.185   1.209   5.864 -0.7125  0.0809  0.1869
 2286Sol     HW12170   0.198   1.145   5.934 -2.5542 -1.1205 -0.5270
 2286Sol     HW12171   0.143   1.159   5.794  0.0765  1.5310 -1.3398
 2286Sol     MW12172   0.182   1.198   5.864 -0.4729 -0.2258 -0.0407
 2287Sol     OW12173   2.880   0.729   2.600 -0.8424  0.4007 -0.4572
 2287Sol     HW12174   2.807   0.779   2.637 -0.1677  1.1755 -0.1574
 2287Sol     HW12175   2.858   0.637   2.618 -2.2994  0.5454 -1.3863
 2287Sol     MW12176   2.872   0.725   2.605 -0.5555 -0.0045 -0.0620
 2288Sol     OW12177   2.959   0.350   9.540  0.3870  0.3538 -0.4694
 2288Sol     HW12178   2.901   0.401   9.483  2.1526  0.7078 -1.9965
 2288Sol     HW12179   2.990   0.279   9.484  1.2492  0.0372  0.4009
 2288Sol     MW12180   2.957   0.348   9.529  0.0884 -0.1724 -0.0344
 2289Sol     OW12181   1.092   3.190   1.745 -0.1513 -0.1865 -0.2464
 2289Sol     HW12182   1.181   3.164   1.721  0.2873  1.0159  0.0250
 2289Sol     HW12183   1.104   3.260   1.809 -1.2973 -0.3512  0.1611
 2289Sol     MW12184   1.101   3.194   1.748  0.4290  0.1574  0.2158
 2290Sol     OW12185   3.128   0.219   2.750  0.4813  0.2343  0.5044
 2290Sol     HW12186   3.129   0.212   2.655  2.9755 -1.4297  0.6118
 2290Sol     HW12187   3.129   0.313   2.768  1.1243  0.5414 -1.1011
 2290Sol     MW12188   3.128   0.227   2.743 -0.2023  0.0514  0.4992
 2291Sol     OW12189   1.466   2.761   1.898 -0.3202 -0.5939 -0.1308
 2291Sol     HW12190   1.442   2.691   1.837 -0.2757  0.4608 -1.3806
 2291Sol     HW12191   1.477   2.717   1.983  0.7310 -2.2503 -1.1083
 2291Sol     MW12192   1.465   2.751   1.901  0.5171  0.3515  0.3078
 2292Sol     OW12193   1.275   0.425   6.257 -0.1017  0.1703 -0.1730
 2292Sol     HW12194   1.192   0.471   6.246  0.1992  0.6814 -0.3659
 2292Sol     HW12195   1.309   0.418   6.168  1.1786  2.0903  0.1247
 2292Sol     MW12196   1.271   0.429   6.248 -0.2267 -0.0406  0.2224
 2293Sol     OW12197   2.899   2.709   7.835  0.0868  0.2217 -0.3816
 2293Sol     HW12198   2.964   2.771   7.869 -0.6582  1.0534 -0.4421
 2293Sol     HW12199   2.893   2.642   7.903  1.1081  0.0514 -0.4411
 2293Sol     MW12200   2.905   2.709   7.845  0.0916  0.8011 -0.1181
 2294Sol     OW12201   1.968   2.982   2.461 -0.3302 -0.1427  0.5132
 2294Sol     HW12202   1.964   2.954   2.369  0.1938 -0.8312  0.6967
 2294Sol     HW12203   1.887   2.950   2.500  0.6658 -2.1934  0.9383
 2294Sol     MW12204   1.961   2.977   2.456 -0.5616  0.4546 -0.0040
 2295Sol     OW12205   1.466   1.505   7.136  0.5126 -0.6210  0.4556
 2295Sol     HW12206   1.444   1.414   7.154  0.3041 -0.7791 -0.5747
 2295Sol     HW12207   1.385   1.553   7.148  0.5223 -0.6332  0.5700
 2295Sol     MW12208   1.457   1.501   7.139 -0.1034 -0.1029  0.1828
 2296Sol     OW12209   1.125   1.109   7.509 -0.1488  0.1966 -0.4723
 2296Sol     HW12210   1.203   1.160   7.531  0.8649 -2.2275  1.7245
 2296Sol     HW12211   1.118   1.116   7.414  2.7212  0.4773 -0.7010
 2296Sol     MW12212   1.131   1.114   7.503 -0.2743  0.3860 -0.6611
 2297Sol     OW12213   2.603   1.487   4.153 -0.3406 -0.2321  0.5931
 2297Sol     HW12214   2.609   1.495   4.058  1.6777  0.0456  0.7145
 2297Sol     HW12215   2.645   1.404   4.172  0.4179  0.3087  1.3300
 2297Sol     MW12216   2.608   1.481   4.146 -0.7732 -0.0442  0.0442
 2298Sol     OW12217   0.576   2.092   6.775 -0.6013  0.0680  0.1030
 2298Sol     HW12218   0.493   2.118   6.816 -0.6333 -1.7118  1.2284
 2298Sol     HW12219   0.575   1.997   6.778  1.1238  0.0112 -0.6452
 2298Sol     MW12220   0.569   2.086   6.779 -0.6652  0.4864 -0.1206
 2299Sol     OW12221   2.313   0.357   7.151  0.0225  0.0836  0.5322
 2299Sol     HW12222   2.245   0.349   7.085 -0.8289  0.3670  1.3703
 2299Sol     HW12223   2.380   0.412   7.110 -0.0779 -0.5074 -0.4239
 2299Sol     MW12224   2.313   0.361   7.142  0.8354 -0.2579  0.0375
 2300Sol     OW12225   0.609   0.389   3.632 -0.4827  0.6133 -0.4652
 2300Sol     HW12226   0.658   0.382   3.550  1.1135  1.3773  0.3948
 2300Sol     HW12227   0.604   0.299   3.664 -0.3001  0.4267 -0.9572
 2300Sol     MW12228   0.613   0.380   3.627 -0.0897 -0.2483 -0.6052
 2301Sol     OW12229   0.614   3.237   3.527 -0.1364  0.1729  0.4111
 2301Sol     HW12230   0.658   3.313   3.488  0.5407  0.0739  0.9637
 2301Sol     HW12231   0.575   3.192   3.453  0.0615  0.6761 -0.0077
 2301Sol     MW12232   0.615   3.240   3.517  0.2176  0.6352 -0.5770
 2302Sol     OW12233   0.598   2.783   7.754  0.1351  0.0716 -0.0817
 2302Sol     HW12234   0.610   2.877   7.740 -1.0082  0.3734  0.8806
 2302Sol     HW12235   0.534   2.757   7.689 -0.1260  0.1191  0.1542
 2302Sol     MW12236   0.593   2.789   7.747 -0.1586  0.1408 -0.2098
 2303Sol     OW12237   0.394   1.225   3.836 -0.0906 -0.3017 -0.1243
 2303Sol     HW12238   0.434   1.148   3.875 -1.7822 -0.6041  1.0431
 2303Sol     HW12239   0.429   1.228   3.747  1.4642 -1.3141  0.4481
 2303Sol     MW12240   0.400   1.218   3.831 -0.0402 -0.1017 -0.2981
 2304Sol     OW12241   0.461   1.944   7.525 -0.0044 -0.2671  0.1284
 2304Sol     HW12242   0.379   1.896   7.540 -0.5144  0.3225 -0.7194
 2304Sol     HW12243   0.457   2.017   7.588 -0.5507  0.2692 -0.5239
 2304Sol     MW12244   0.453   1.947   7.532  0.0991  0.2749  0.1012
 2305Sol     OW12245   2.281   2.111   9.198  0.3311  0.5969  0.4527
 2305Sol     HW12246   2.278   2.024   9.157  1.4616  1.3987 -1.3778
 2305Sol     HW12247   2.210   2.109   9.263  0.9871 -2.0469  1.1670
 2305Sol     MW12248   2.274   2.103   9.200 -0.3496  0.0335 -0.3163
 2306Sol     OW12249   2.353   0.910   8.934  0.3277 -0.2682  0.0397
 2306Sol     HW12250   2.426   0.848   8.938  0.4564 -0.1607 -0.6114
 2306Sol     HW12251   2.308   0.890   8.852 -0.1586 -0.0902  0.2610
 2306Sol     MW12252   2.356   0.903   8.927  0.1806 -0.8850  0.0650
 2307Sol     OW12253   1.532   2.708   6.657  0.4945  0.0883  0.5353
 2307Sol     HW12254   1.563   2.760   6.730  1.5093 -0.4128  0.4682
 2307Sol     HW12255   1.582   2.739   6.582  0.6875 -0.5771  0.3838
 2307Sol     MW12256   1.539   2.715   6.656 -0.3647  0.1603  0.3811
 2308Sol     OW12257   2.032   0.298   9.073  0.0406 -0.5718 -0.6482
 2308Sol     HW12258   2.034   0.256   9.160 -0.0278  0.3597 -0.1934
 2308Sol     HW12259   1.940   0.321   9.060  0.3894  1.2199 -0.0305
 2308Sol     MW12260   2.024   0.296   9.080 -0.4565 -0.0479 -0.7092
 2309Sol     OW12261   0.344   2.256   9.623  0.8754  0.0389  0.1159
 2309Sol     HW12262   0.409   2.264   9.552 -0.2248 -1.9161 -1.1368
 2309Sol     HW12263   0.362   2.331   9.680  2.3605  1.1452 -1.7577
 2309Sol     MW12264   0.352   2.264   9.622 -0.1033  0.4199 -0.6562
 2310Sol     OW12265   1.864   1.992   9.461  0.4416  0.2943  0.0052
 2310Sol     HW12266   1.845   1.914   9.408 -0.2874 -0.2162  0.9931
 2310Sol     HW12267   1.799   2.057   9.433  1.3575  0.7183 -1.1610
 2310Sol     MW12268   1.856   1.991   9.454  0.1503  0.1178  0.6827
 2311Sol     OW12269   2.037   1.710   7.073  0.0837 -0.1938 -0.2687
 2311Sol     HW12270   2.044   1.799   7.108 -0.4993  0.0145 -0.6691
 2311Sol     HW12271   1.970   1.668   7.126 -0.0920 -0.1923 -0.4886
 2311Sol     MW12272   2.032   1.714   7.081 -0.0838 -0.0789  0.3554
 2312Sol     OW12273   1.605   1.110   9.469 -0.3043  0.0982  0.6154
 2312Sol     HW12274   1.660   1.032   9.472  0.2668  0.4869  0.3013
 2312Sol     HW12275   1.620   1.147   9.382 -1.7409 -0.2785  0.2014
 2312Sol     MW12276   1.611   1.106   9.462 -1.6446  0.0192  0.2103
 2313Sol     OW12277   1.106   2.074   8.629 -0.1123  0.0090 -0.2944
 2313Sol     HW12278   1.098   2.019   8.550 -1.0011  0.0688 -0.2486
 2313Sol     HW12279   1.020   2.114   8.639 -0.0526 -0.1344  0.8120
 2313Sol     MW12280   1.098   2.072   8.622  0.1257 -0.0930 -0.6829
 2314Sol     OW12281   2.422   3.093   7.671  0.0158  1.0187 -0.4199
 2314Sol     HW12282   2.498   3.081   7.614  0.3065  0.6788  0.0281
 2314Sol     HW12283   2.346   3.088   7.613  0.3267  1.1768 -0.8435
 2314Sol     MW12284   2.422   3.092   7.661 -0.2356  0.0326  0.1753
 2315Sol     OW12285   0.088   2.920   7.928  0.2390  0.2879  0.5361
 2315Sol     HW12286   0.150   2.853   7.898  0.6335 -0.0006  1.9759
 2315Sol     HW12287   0.133   3.003   7.911  0.7808  0.0985  1.0432
 2315Sol     MW12288   0.098   2.921   7.924  0.1122  0.5673 -0.5066
 2316Sol     OW12289   2.683   1.821   2.631  0.7230  0.0493  0.2026
 2316Sol     HW12290   2.769   1.778   2.637 -0.6874 -2.7453  0.7796
 2316Sol     HW12291   2.639   1.798   2.712 -1.4472 -0.4515 -1.0803
 2316Sol     MW12292   2.687   1.816   2.638  0.1755 -0.4359 -0.3038
 2317Sol     OW12293   1.341   2.149   1.708 -0.2986  0.7335  0.1233
 2317Sol     HW12294   1.340   2.241   1.733 -1.7212  0.5447  0.8132
 2317Sol     HW12295   1.249   2.121   1.714  0.1614 -0.8189  0.2907
 2317Sol     MW12296   1.333   2.154   1.711  0.3873  0.2676  0.4365
 2318Sol     OW12297   0.922   3.047   8.514  0.0618  0.3172 -0.1545
 2318Sol     HW12298   0.930   2.952   8.521  0.1112  0.4148  1.1440
 2318Sol     HW12299   0.988   3.072   8.450  1.1872 -0.3434  0.7420
 2318Sol     MW12300   0.928   3.041   8.509 -0.1550  0.3156  0.0609
 2319Sol     OW12301   1.206   3.345   1.998 -0.0259  0.3374  0.1819
 2319Sol     HW12302   1.261   3.381   1.928 -0.3904  1.4194  0.4435
 2319Sol     HW12303   1.124   3.395   1.992 -0.4370 -0.2652  0.7314
 2319Sol     MW12304   1.204   3.353   1.991  0.9309 -0.4624 -0.2868
 2320Sol     OW12305   1.787   1.937   4.588  0.2772  0.3088 -0.2700
 2320Sol     HW12306   1.715   1.979   4.540 -0.2625 -0.3502 -0.0547
 2320Sol     HW12307   1.788   1.847   4.556 -0.9214 -0.5094  1.8385
 2320Sol     MW12308   1.780   1.933   4.581 -0.2512  0.2741  0.2096
 2321Sol     OW12309   0.842   0.224   6.554  0.1235 -0.0428 -0.3502
 2321Sol     HW12310   0.886   0.145   6.523 -0.0696 -0.0735 -0.5549
 2321Sol     HW12311   0.897   0.296   6.523  0.9709 -0.1380  0.9325
 2321Sol     MW12312   0.851   0.224   6.548  0.2115  0.6751 -0.0071
 2322Sol     OW12313   2.034   3.107   6.583  0.3324 -0.2874 -0.1295
 2322Sol     HW12314   2.056   3.174   6.518  1.5843  1.3764  1.9466
 2322Sol     HW12315   2.105   3.043   6.575  1.4947  0.8584  0.8537
 2322Sol     MW12316   2.042   3.107   6.576  0.9418  0.0890  0.1572
 2323Sol     OW12317   0.474   3.424   8.500 -0.7933  0.2547 -0.2042
 2323Sol     HW12318   0.515   3.443   8.584  2.9450 -1.4317 -1.5114
 2323Sol     HW12319   0.441   3.335   8.508 -0.8345  0.2554 -0.3572
 2323Sol     MW12320   0.475   3.418   8.508 -0.0191  0.1798 -0.1056
 2324Sol     OW12321   0.050   3.368   7.477  0.5585 -0.3681  0.0353
 2324Sol     HW12322  -0.041   3.355   7.506 -0.0360  0.0341 -1.5955
 2324Sol     HW12323   0.068   3.460   7.496  0.9442 -0.6906  1.2284
 2324Sol     MW12324   0.043   3.375   7.481 -0.6442 -0.3087  0.5317
 2325Sol     OW12325   2.978   3.446   2.008 -0.4535  0.3915 -0.0257
 2325Sol     HW12326   2.932   3.526   1.982  0.8149  1.5056  1.1257
 2325Sol     HW12327   3.051   3.476   2.061  0.4494 -1.5029 -0.1608
 2325Sol     MW12328   2.980   3.455   2.010  0.0424  0.4979 -0.1894
 2326Sol     OW12329   1.882   2.094   2.691 -0.0308 -0.4944 -0.1998
 2326Sol     HW12330   1.878   2.045   2.773 -1.9974  0.3775  0.2499
 2326Sol     HW12331   1.902   2.183   2.717 -2.3811  0.1418 -0.5100
 2326Sol     MW12332   1.884   2.097   2.701 -0.2286  0.1157 -0.3523
 2327Sol     OW12333   2.223   1.523   8.980  0.3728 -0.1496  0.0931
 2327Sol     HW12334   2.301   1.521   9.036 -0.0749  0.6675  0.7538
 2327Sol     HW12335   2.240   1.456   8.914  0.9648 -1.0366  1.1299
 2327Sol     MW12336   2.232   1.517   8.979  0.3877 -0.3203 -0.1232
 2328Sol     OW12337   2.624   1.373   7.268 -0.2942 -0.0476  0.7186
 2328Sol     HW12338   2.602   1.327   7.186  1.5096  1.4206 -0.6484
 2328Sol     HW12339   2.701   1.326   7.300  0.0176  0.4276  0.6655
 2328Sol     MW12340   2.629   1.364   7.263  0.2954 -0.1121  0.0075
 2329Sol     OW12341   0.165   1.666   1.983  0.0846 -0.0488 -0.0638
 2329Sol     HW12342   0.121   1.736   2.031 -0.0755 -0.9999  1.1831
 2329Sol     HW12343   0.189   1.601   2.049 -0.6864 -1.6733 -1.3284
 2329Sol     MW12344   0.164   1.666   1.993 -0.3761 -0.6107 -0.7510
 2330Sol     OW12345   0.767   0.000   7.965  0.1127  0.2151 -0.3644
 2330Sol     HW12346   0.855  -0.004   8.003  0.3722  0.8745 -0.8909
 2330Sol     HW12347   0.724   0.073   8.011  0.2712  0.7141 -0.9955
 2330Sol     MW12348   0.771   0.006   7.972 -0.3615  0.2288 -0.4484
 2331Sol     OW12349   0.284   0.169   7.815 -0.3444 -0.1749 -0.2521
 2331Sol     HW12350   0.318   0.257   7.802  0.2384 -0.4994 -1.0022
 2331Sol     HW12351   0.188   0.180   7.814 -0.2750  0.4453 -0.3708
 2331Sol     MW12352   0.278   0.178   7.814  0.2961 -0.7740 -0.7657
 2332Sol     OW12353   0.831   3.375   3.758 -0.0791 -0.8399 -0.5252
 2332Sol     HW12354   0.764   3.397   3.822  2.8203 -1.0439  2.7309
 2332Sol     HW12355   0.813   3.284   3.733  0.6324 -1.8782  2.5465
 2332Sol     MW12356   0.823   3.369   3.762 -0.2618  0.1917 -0.1715
 2333Sol     OW12357   1.166   2.382   9.541 -0.3943 -0.0491 -0.2250
 2333Sol     HW12358   1.094   2.443   9.524  0.6552  1.0987 -0.6411
 2333Sol     HW12359   1.182   2.339   9.457  0.9130  1.3682 -0.7202
 2333Sol     MW12360   1.161   2.383   9.532  0.1982  0.2773 -0.5792
 2334Sol     OW12361   0.832   2.112   6.866  0.2341 -0.6250 -0.0766
 2334Sol     HW12362   0.740   2.122   6.839 -0.7155 -0.0010  3.0722
 2334Sol     HW12363   0.871   2.056   6.799 -2.0394  0.3729 -2.3327
 2334Sol     MW12364   0.827   2.108   6.858 -0.1881 -0.0621  0.5831
 2335Sol     OW12365   1.323   0.771   2.200  0.0925 -0.1416  0.3468
 2335Sol     HW12366   1.409   0.732   2.182  0.6548  0.9436  0.6023
 2335Sol     HW12367   1.343   0.862   2.224 -1.2805  0.6716 -1.5021
 2335Sol     MW12368   1.333   0.776   2.201  0.0324 -0.3453  0.2422
 2336Sol     OW12369   1.727   1.743   9.395 -0.5979  0.5287 -0.7218
 2336Sol     HW12370   1.670   1.666   9.388  0.2800 -0.3147  0.9619
 2336Sol     HW12371   1.810   1.708   9.429  0.0487  2.1123 -0.6490
 2336Sol     MW12372   1.729   1.733   9.398  0.1093 -0.1954  0.1841
 2337Sol     OW12373   2.553   0.037   9.911  0.2101 -0.3714  0.2524
 2337Sol     HW12374   2.637   0.019   9.953 -0.1569 -2.2409  0.2269
 2337Sol     HW12375   2.562  -0.001   9.824 -0.3901  0.1252 -0.0238
 2337Sol     MW12376   2.562   0.032   9.907 -0.2156  0.3054 -0.8903
 2338Sol     OW12377   3.302   0.061   4.396  0.2248 -0.4963  0.4045
 2338Sol     HW12378   3.272   0.152   4.406  1.2883 -0.1556  0.5824
 2338Sol     HW12379   3.240   0.010   4.448 -0.0745  0.1939  0.7416
 2338Sol     MW12380   3.294   0.065   4.402  0.8923 -0.0464  0.1578
 2339Sol     OW12381   2.025   3.123   8.578  0.0924  0.7006  0.2219
 2339Sol     HW12382   1.987   3.128   8.490 -2.6174  1.0437  1.3968
 2339Sol     HW12383   2.087   3.050   8.572 -2.6491 -1.6321 -1.0482
 2339Sol     MW12384   2.027   3.117   8.569  0.3511  0.4161 -0.6757
 2340Sol     OW12385   1.753   1.752   3.016 -0.2206  0.3077 -0.5714
 2340Sol     HW12386   1.832   1.800   2.993  0.9223 -1.4814 -0.4114
 2340Sol     HW12387   1.719   1.720   2.933 -0.1471  0.0886 -0.5163
 2340Sol     MW12388   1.757   1.754   3.007 -0.2897  0.0078  0.0136
 2341Sol     OW12389   3.291   3.410   2.460 -0.1161 -0.0223 -0.3783
 2341Sol     HW12390   3.232   3.404   2.536  0.5888  0.2562  0.1946
 2341Sol     HW12391   3.326   3.321   2.450  0.3599  0.1153  0.0789
 2341Sol     MW12392   3.289   3.401   2.466  0.4402 -0.6662 -0.7143
 2342Sol     OW12393   0.039   2.832   4.759  0.4939 -0.0055  0.5786
 2342Sol     HW12394  -0.044   2.843   4.807 -0.7149  1.0276 -1.6762
 2342Sol     HW12395   0.039   2.741   4.732  0.4059 -0.1747  1.1310
 2342Sol     MW12396   0.031   2.825   4.761 -0.2026  0.3445 -0.1598
 2343Sol     OW12397   3.305   3.299   3.479  0.4252  0.4756 -0.3189
 2343Sol     HW12398   3.365   3.337   3.544  3.2743  0.7616 -2.9841
 2343Sol     HW12399   3.267   3.223   3.524  2.8796  0.2118  1.4577
 2343Sol     MW12400   3.307   3.295   3.489  0.1156 -0.0309 -0.5585
 2344Sol     OW12401   2.266   1.448   4.793  0.2927  0.1204 -0.2408
 2344Sol     HW12402   2.280   1.414   4.881  0.0293 -0.3408 -0.3697
 2344Sol     HW12403   2.350   1.437   4.749  0.6616  1.1273  0.2008
 2344Sol     MW12404   2.274   1.444   4.797  0.2151  0.5828  0.0698
 2345Sol     OW12405   0.216   3.206   3.935  0.1568  0.1757  0.4439
 2345Sol     HW12406   0.310   3.202   3.952  0.1526  2.8087  1.2698
 2345Sol     HW12407   0.178   3.235   4.017 -1.6025 -2.5629  0.6469
 2345Sol     MW12408   0.221   3.208   3.944  0.2273  0.4641 -0.0491
 2346Sol     OW12409   0.797   1.763   4.175  0.0784 -0.0632 -0.0716
 2346Sol     HW12410   0.827   1.689   4.227 -0.9643 -0.3338  0.1634
 2346Sol     HW12411   0.722   1.729   4.126 -0.4441  0.8505  0.0799
 2346Sol     MW12412   0.793   1.753   4.175  0.3583 -0.5125  0.2135
 2347Sol     OW12413   0.602   2.607   8.137 -0.2501  0.2220 -0.2271
 2347Sol     HW12414   0.533   2.657   8.092  0.1415  0.5099 -0.5113
 2347Sol     HW12415   0.563   2.584   8.222 -0.7176  0.3333 -0.4089
 2347Sol     MW12416   0.592   2.610   8.141 -0.2724 -0.2078  0.9219
 2348Sol     OW12417   0.950   1.723   3.956 -0.1798  0.0854  0.4216
 2348Sol     HW12418   0.964   1.628   3.953  0.9555  0.2087  1.6074
 2348Sol     HW12419   0.908   1.738   4.040  2.0680  0.9301  1.4164
 2348Sol     MW12420   0.948   1.716   3.963  0.1462  0.3293  0.1989
 2349Sol     OW12421   3.290   2.850   3.716  0.4992  0.6138 -0.2844
 2349Sol     HW12422   3.363   2.791   3.733  1.1645  1.6715  0.6193
 2349Sol     HW12423   3.267   2.835   3.624  2.5460  1.0439 -0.8742
 2349Sol     MW12424   3.294   2.844   3.709 -0.5746 -0.5715  0.8890
 2350Sol     OW12425   2.758   0.634   2.183 -0.1343  0.4663  0.1238
 2350Sol     HW12426   2.815   0.558   2.169 -2.7869 -1.5778  0.0407
 2350Sol     HW12427   2.808   0.708   2.150  2.0680 -1.4112 -0.8686
 2350Sol     MW12428   2.767   0.634   2.179  0.7969  0.3142  1.0983
 2351Sol     OW12429   2.959   0.913   5.758 -0.1404  0.1256  0.2042
 2351Sol     HW12430   2.944   0.965   5.837 -0.6247 -0.5006  0.5289
 2351Sol     HW12431   2.871   0.898   5.722 -0.0201 -0.6043  0.2001
 2351Sol     MW12432   2.949   0.916   5.761  0.2333  0.0021  0.0468
 2352Sol     OW12433   1.880   1.726   5.697 -0.5459 -0.4333  0.2395
 2352Sol     HW12434   1.896   1.819   5.678 -1.3619 -0.4145 -0.3833
 2352Sol     HW12435   1.789   1.712   5.671 -0.8601 -1.0682  1.6450
 2352Sol     MW12436   1.873   1.733   5.693 -0.6500  0.5730  0.0504
 2353Sol     OW12437   2.990   2.104   7.882  0.3175  0.2905 -0.3683
 2353Sol     HW12438   2.925   2.174   7.872  0.9061  0.6670 -1.6748
 2353Sol     HW12439   2.984   2.054   7.800  0.2330 -0.9136  0.3561
 2353Sol     MW12440   2.983   2.106   7.874  1.2294 -0.8331 -0.1207
 2354Sol     OW12441   3.037   1.690   7.582  0.2140 -0.3132 -0.0154
 2354Sol     HW12442   3.037   1.623   7.650 -1.3851 -0.0458  0.2656
 2354Sol     HW12443   3.008   1.644   7.503  0.1449 -0.1749 -0.0710
 2354Sol     MW12444   3.035   1.680   7.581 -0.1343 -0.2144  0.1157
 2355Sol     OW12445   0.259   2.624   4.721  0.0238  0.3187  0.1770
 2355Sol     HW12446   0.269   2.670   4.804  2.0220 -1.6607  1.0752
 2355Sol     HW12447   0.275   2.532   4.742 -0.6278 -0.3688 -2.1821
 2355Sol     MW12448   0.261   2.620   4.730  0.4558  0.1432 -0.3994
 2356Sol     OW12449   0.767   0.433   4.641 -0.2836 -0.3317 -0.0872
 2356Sol     HW12450   0.744   0.524   4.655  0.3203 -0.3438  1.0062
 2356Sol     HW12451   0.839   0.435   4.578 -0.4801 -0.0724 -0.3013
 2356Sol     MW12452   0.771   0.441   4.637  0.1625 -0.3313 -0.5402
 2357Sol     OW12453   2.137   1.147   6.283  0.5640  0.2673  0.3331
 2357Sol     HW12454   2.144   1.196   6.365 -1.4818 -0.2147  0.8168
 2357Sol     HW12455   2.071   1.080   6.300  1.9832 -1.5101 -0.9036
 2357Sol     MW12456   2.132   1.145   6.292 -0.8639  0.1164 -0.4834
 2358Sol     OW12457   2.713   0.106   2.734 -0.9051 -0.4765  0.1936
 2358Sol     HW12458   2.628   0.078   2.700 -0.9647  0.8624 -0.8069
 2358Sol     HW12459   2.748   0.164   2.666 -0.7631  1.8261  2.1443
 2358Sol     MW12460   2.708   0.109   2.725  0.6145 -0.1172  0.1051
 2359Sol     OW12461   0.586   0.449   8.341 -0.6734 -0.1143  0.0190
 2359Sol     HW12462   0.675   0.416   8.326 -0.8115  0.0312 -1.2234
 2359Sol     HW12463   0.561   0.488   8.257 -1.9550 -0.2553  0.3236
 2359Sol     MW12464   0.592   0.450   8.332  0.9137  0.5093  0.1157
 2360Sol     OW12465   1.223   2.376   7.481 -0.0970  0.1398 -0.5229
 2360Sol     HW12466   1.151   2.358   7.541 -1.3884  0.4397 -1.9577
 2360Sol     HW12467   1.211   2.467   7.455  0.1649 -0.1291 -1.6032
 2360Sol     MW12468   1.216   2.382   7.484 -0.3841 -0.0684  0.2759
 2361Sol     OW12469   0.544   2.717   8.666 -0.3336 -0.0163 -0.2173
 2361Sol     HW12470   0.502   2.757   8.743  0.7930 -1.5547  1.2467
 2361Sol     HW12471   0.541   2.623   8.684  1.1103 -0.3104 -1.4455
 2361Sol     MW12472   0.540   2.712   8.675 -0.9717 -0.1248 -0.5855
 2362Sol     OW12473   0.217   3.016   6.241 -0.3799  0.0944  0.4461
 2362Sol     HW12474   0.225   2.932   6.197  0.8000  0.2028  0.4427
 2362Sol     HW12475   0.129   3.046   6.219 -0.3687 -0.5793 -0.5525
 2362Sol     MW12476   0.210   3.012   6.235 -0.0209  0.3962 -0.2180
 2363Sol     OW12477   2.645   1.750   2.935 -0.0579  0.4105  0.1903
 2363Sol     HW12478   2.654   1.839   2.969 -0.2083 -0.1654  1.7818
 2363Sol     HW12479   2.601   1.702   3.005 -1.3097 -0.5765 -1.2284
 2363Sol     MW12480   2.642   1.753   2.944 -0.0656 -0.0937 -0.2076
 2364Sol     OW12481   2.067   1.603   4.344  0.1673  0.5105 -0.3366
 2364Sol     HW12482   2.073   1.565   4.431  1.0315  1.7832  0.1744
 2364Sol     HW12483   2.082   1.697   4.357  1.3106  0.5763 -1.9746
 2364Sol     MW12484   2.068   1.608   4.353 -0.4500 -0.0384  0.3114
 2365Sol     OW12485   2.122   1.166   2.143  0.0624  0.2672  0.3393
 2365Sol     HW12486   2.161   1.103   2.204  0.9206  0.7238  0.2740
 2365Sol     HW12487   2.101   1.242   2.197  2.1510  1.2443 -0.1444
 2365Sol     MW12488   2.124   1.167   2.153 -0.0573 -0.0574  0.0188
 2366Sol     OW12489   2.757   0.118   8.166  0.0667 -0.4105 -0.2362
 2366Sol     HW12490   2.750   0.072   8.249 -0.2169 -0.8556 -0.4998
 2366Sol     HW12491   2.833   0.175   8.176 -0.7279  0.4846  0.7734
 2366Sol     MW12492   2.764   0.119   8.174 -0.4908 -1.1289  0.1523
 2367Sol     OW12493   1.205   1.795   9.939 -0.1527  0.2142 -0.3352
 2367Sol     HW12494   1.130   1.789   9.879  0.0251 -3.1735 -0.3150
 2367Sol     HW12495   1.169   1.772  10.025  0.5275  0.4466  0.0087
 2367Sol     MW12496   1.195   1.792   9.941 -0.5119 -0.1355  0.7476
 2368Sol     OW12497   3.155   1.008   3.842  0.2510  0.0485  0.2533
 2368Sol     HW12498   3.092   0.936   3.851  1.1809 -0.9744 -1.2715
 2368Sol     HW12499   3.116   1.066   3.777  0.3344  0.0118  0.1706
 2368Sol     MW12500   3.145   1.007   3.837 -0.6461 -0.7302 -0.5182
 2369Sol     OW12501   0.227   1.432   4.840 -0.4038 -0.1127 -0.1418
 2369Sol     HW12502   0.176   1.453   4.762  0.3151 -0.0695 -0.5963
 2369Sol     HW12503   0.308   1.482   4.831 -0.0243 -0.6401  0.2917
 2369Sol     MW12504   0.229   1.438   4.832  0.3986 -0.0551 -0.3503
 2370Sol     OW12505   2.135   0.853   7.911  0.6148  0.3941 -0.1370
 2370Sol     HW12506   2.129   0.947   7.890 -1.9679 -0.2391 -2.4988
 2370Sol     HW12507   2.062   0.837   7.971 -0.2193 -0.4689 -1.3509
 2370Sol     MW12508   2.128   0.860   7.915 -0.4833  0.2054 -0.1232
 2371Sol     OW12509   3.316   1.537   4.020  0.4965  0.1816 -0.3993
 2371Sol     HW12510   3.338   1.482   4.095 -0.6701 -0.1449 -0.2837
 2371Sol     HW12511   3.400   1.552   3.976  1.3281  1.0441  1.4028
 2371Sol     MW12512   3.326   1.533   4.023  1.1942 -0.7825 -0.3797
 2372Sol     OW12513   0.477   2.707   6.991  0.2403 -0.0437 -0.3507
 2372Sol     HW12514   0.479   2.616   6.962  1.2841  0.2944 -1.3888
 2372Sol     HW12515   0.459   2.757   6.912 -0.1082  0.6756  0.1771
 2372Sol     MW12516   0.475   2.703   6.981  0.3917  0.2609 -0.0101
 2373Sol     OW12517   3.173   3.187   2.890  0.0997  0.2214  0.3474
 2373Sol     HW12518   3.245   3.136   2.852 -1.3736 -2.2356  0.7595
 2373Sol     HW12519   3.205   3.212   2.977  0.6408 -0.4346  0.3389
 2373Sol     MW12520   3.183   3.185   2.894  0.6136  0.3766  0.5922
 2374Sol     OW12521   2.017   0.941   4.754 -0.0906 -0.2141  0.4406
 2374Sol     HW12522   1.999   0.947   4.848 -3.2503 -1.1582 -0.0688
 2374Sol     HW12523   1.940   0.979   4.712  0.9003 -0.6171 -1.8279
 2374Sol     MW12524   2.009   0.945   4.759 -0.0405  0.2522  0.0139
 2375Sol     OW12525   0.767   3.394   5.475  0.2889  0.3437  0.0296
 2375Sol     HW12526   0.710   3.434   5.408 -0.8353  1.4793  1.6193
 2375Sol     HW12527   0.847   3.446   5.472 -0.1148  0.9849  0.1868
 2375Sol     MW12528   0.769   3.402   5.469 -0.3103  0.8340  1.1979
 2376Sol     OW12529   0.043   2.481   1.772 -0.0454 -0.3789  0.5571
 2376Sol     HW12530   0.057   2.387   1.783 -0.3130 -0.6910 -1.6418
 2376Sol     HW12531  -0.035   2.499   1.825 -0.3867 -1.5219  0.4732
 2376Sol     MW12532   0.037   2.474   1.778  0.4784  0.6247 -0.0791
 2377Sol     OW12533   0.022   1.911   6.399  0.5256 -0.0310 -0.0255
 2377Sol     HW12534   0.111   1.944   6.405  0.6381 -0.4018  0.3104
 2377Sol     HW12535  -0.013   1.951   6.319  2.4593 -3.3967 -2.6715
 2377Sol     MW12536   0.026   1.917   6.392 -0.6002 -0.6374  0.3163
 2378Sol     OW12537   2.198   2.468   2.720 -0.0381  0.0542  0.2542
 2378Sol     HW12538   2.224   2.439   2.633  1.9387  1.1641  0.4292
 2378Sol     HW12539   2.281   2.479   2.767 -1.0786 -0.6536  2.3173
 2378Sol     MW12540   2.208   2.466   2.717  0.1833 -0.5723 -0.0003
 2379Sol     OW12541   0.231   3.304   8.672 -0.7088  0.5362  0.2917
 2379Sol     HW12542   0.153   3.320   8.618 -0.6302  0.5404  0.1797
 2379Sol     HW12543   0.242   3.384   8.723  0.2041  1.2043 -0.9241
 2379Sol     MW12544   0.225   3.313   8.672 -0.9465  0.1631  0.2161
 2380Sol     OW12545   2.158   3.178   2.130 -0.6130  0.2802 -0.5522
 2380Sol     HW12546   2.226   3.113   2.113 -1.1820 -0.3181 -0.5774
 2380Sol     HW12547   2.194   3.234   2.198 -1.2530 -1.8518  1.6154
 2380Sol     MW12548   2.167   3.177   2.135 -0.3857 -0.4754  0.0937
 2381Sol     OW12549   1.403   0.689   1.634  0.0209  0.3107  0.2426
 2381Sol     HW12550   1.469   0.686   1.565 -0.2534  0.1732 -0.0149
 2381Sol     HW12551   1.340   0.755   1.605 -0.7185 -0.5892 -0.2031
 2381Sol     MW12552   1.404   0.695   1.625 -0.9236  0.1527  0.0405
 2382Sol     OW12553   1.731   0.364   2.977  0.1692  0.2084 -0.2510
 2382Sol     HW12554   1.748   0.283   2.930  0.9622 -0.9598  1.9670
 2382Sol     HW12555   1.638   0.359   3.000  0.1610  0.0455 -0.3176
 2382Sol     MW12556   1.724   0.356   2.975 -0.6147  0.3066  0.8417
 2383Sol     OW12557   1.135   0.666   9.222 -0.2343  0.3240  0.0847
 2383Sol     HW12558   1.161   0.741   9.276  0.4693  0.0505  0.1292
 2383Sol     HW12559   1.049   0.691   9.186  1.0838  2.2160 -1.8892
 2383Sol     MW12560   1.129   0.675   9.223 -0.2733 -0.7827  0.5621
 2384Sol     OW12561   1.909   2.054   7.483  0.0625  0.9501 -0.3683
 2384Sol     HW12562   1.829   2.055   7.431 -0.0992  2.6977 -0.1228
 2384Sol     HW12563   1.895   1.983   7.546 -0.8165  0.5141 -1.0328
 2384Sol     MW12564   1.900   2.048   7.484 -0.2313 -0.1294  0.4522
 2385Sol     OW12565   1.666   3.081   5.718  0.1673  0.0201  0.1999
 2385Sol     HW12566   1.750   3.075   5.673 -0.3870 -1.2118 -0.7021
 2385Sol     HW12567   1.600   3.065   5.650 -0.7923  0.7464  0.9352
 2385Sol     MW12568   1.667   3.079   5.708 -0.8014 -0.6857  0.8045
 2386Sol     OW12569   0.395   1.414   2.937 -0.2699 -0.1497 -0.1991
 2386Sol     HW12570   0.376   1.460   3.019  0.9513 -0.5422  0.3136
 2386Sol     HW12571   0.347   1.463   2.871 -1.6299 -0.0851  0.8111
 2386Sol     MW12572   0.389   1.423   2.939  0.0856  0.0698 -0.2337
 2387Sol     OW12573   1.011   2.611   7.158  0.0951  0.2452  0.5601
 2387Sol     HW12574   0.973   2.539   7.109 -0.8921  1.3445 -0.2980
 2387Sol     HW12575   0.936   2.659   7.192  0.6950  2.1635 -0.7551
 2387Sol     MW12576   1.001   2.608   7.157  0.5942  0.6389  0.4607
 2388Sol     OW12577   3.219   0.110   6.444  0.7468 -0.2849  0.5104
 2388Sol     HW12578   3.283   0.039   6.447  0.7074 -0.3537 -0.3327
 2388Sol     HW12579   3.196   0.125   6.536  1.5703 -0.6220  0.7730
 2388Sol     MW12580   3.222   0.105   6.453  0.2715  0.1797  0.5041
 2389Sol     OW12581   2.727   1.555   3.387 -0.5354  0.1506 -0.5918
 2389Sol     HW12582   2.732   1.649   3.400 -1.2942  0.2327 -0.9083
 2389Sol     HW12583   2.795   1.536   3.323  1.3765  0.1166  1.3644
 2389Sol     MW12584   2.734   1.561   3.383 -0.3210  0.0133 -0.5958
 2390Sol     OW12585   2.190   1.939   5.540  0.0031 -0.3432 -0.4477
 2390Sol     HW12586   2.268   1.978   5.578 -1.4323  2.0322  0.1505
 2390Sol     HW12587   2.194   1.962   5.447  0.5915 -1.2106 -0.6394
 2390Sol     MW12588   2.197   1.944   5.535 -0.3409 -0.0335  0.5669
 2391Sol     OW12589   1.500   1.907   9.474  0.0854 -0.1437  0.0634
 2391Sol     HW12590   1.573   1.850   9.453  0.3398  0.8141 -1.6819
 2391Sol     HW12591   1.430   1.847   9.501  0.6804 -1.2099 -0.7388
 2391Sol     MW12592   1.500   1.896   9.475  0.4024 -0.0782 -0.0762
 2392Sol     OW12593   1.203   0.880   3.730 -0.3354 -0.2889  0.3716
 2392Sol     HW12594   1.299   0.881   3.727 -0.3535  2.0079 -0.0617
 2392Sol     HW12595   1.177   0.856   3.641 -0.1716 -2.1428  0.8045
 2392Sol     MW12596   1.209   0.878   3.721 -0.1724  0.2298 -0.8673
 2393Sol     OW12597   1.448   1.821   7.934 -0.2469 -0.2684 -0.0405
 2393Sol     HW12598   1.531   1.853   7.897  0.1240 -1.0309  0.1156
 2393Sol     HW12599   1.385   1.831   7.863  0.0507  0.0261 -0.2647
 2393Sol     MW12600   1.450   1.825   7.924 -0.5150  0.6336 -0.0622
 2394Sol     OW12601   0.947   3.385   4.454 -0.2845  0.1798  0.4913
 2394Sol     HW12602   0.872   3.328   4.437 -1.8483  1.4548  2.9081
 2394Sol     HW12603   1.023   3.331   4.431 -1.7628 -2.5153  1.6480
 2394Sol     MW12604   0.947   3.375   4.451  0.3735  0.1504  0.0105
 2395Sol     OW12605   1.541   2.973   7.464 -0.3050  0.1002 -0.3261
 2395Sol     HW12606   1.480   3.046   7.473  0.6719  1.2279 -2.5619
 2395Sol     HW12607   1.617   2.998   7.515 -1.2394 -0.8312  1.5784
 2395Sol     MW12608   1.542   2.982   7.469 -0.3660 -0.2672 -0.0241
 2396Sol     OW12609   2.177   0.391   5.046 -0.0827 -0.1615 -0.5516
 2396Sol     HW12610   2.183   0.309   5.094 -1.4762 -0.3763 -0.7132
 2396Sol     HW12611   2.227   0.454   5.099 -2.6230 -0.0819  1.9043
 2396Sol     MW12612   2.182   0.390   5.055  0.3377  0.1735 -0.0687
 2397Sol     OW12613   0.877   1.597   5.206  0.1801  0.0988 -0.3625
 2397Sol     HW12614   0.967   1.621   5.186 -0.1333  0.8730 -0.8557
 2397Sol     HW12615   0.852   1.656   5.277  0.0691 -0.1336 -0.2085
 2397Sol     MW12616   0.883   1.604   5.211  0.2687  0.4867  0.2823
 2398Sol     OW12617   0.283   1.116   2.909  0.6820 -0.2822 -0.0456
 2398Sol     HW12618   0.320   1.202   2.931 -0.7104  0.2577  0.3118
 2398Sol     HW12619   0.355   1.067   2.872  1.4037  1.2169 -0.6654
 2398Sol     MW12620   0.293   1.120   2.908 -0.1063  0.0661 -0.5983
 2399Sol     OW12621   0.122   2.483   8.462 -0.4604 -0.1477  0.3573
 2399Sol     HW12622   0.147   2.495   8.554 -0.3198 -0.6272  0.3831
 2399Sol     HW12623   0.062   2.555   8.444  1.7375  1.6668  0.0016
 2399Sol     MW12624   0.119   2.490   8.469 -0.4699  0.7957 -0.3928
 2400Sol     OW12625   2.959   0.404   3.320  0.3918  0.4928 -0.4582
 2400Sol     HW12626   2.955   0.388   3.414  0.0695 -0.7879 -0.6814
 2400Sol     HW12627   3.020   0.477   3.310  0.2841  0.7461  0.7544
 2400Sol     MW12628   2.964   0.409   3.327  0.2995 -0.2928  0.0955
 2401Sol     OW12629   1.116   0.368   4.876  0.1990  0.5676 -0.9847
 2401Sol     HW12630   1.206   0.367   4.909  0.1202 -1.0810 -0.7965
 2401Sol     HW12631   1.126   0.385   4.782  0.6382  1.2684 -0.8219
 2401Sol     MW12632   1.125   0.370   4.870  0.7033  0.3046 -0.5116
 2402Sol     OW12633   2.022   2.561   4.199 -0.1759 -0.1604 -0.1619
 2402Sol     HW12634   2.042   2.655   4.199  0.1412 -0.2269 -0.3659
 2402Sol     HW12635   1.966   2.548   4.275  0.3150  0.0803  0.2418
 2402Sol     MW12636   2.019   2.568   4.206 -0.5675  0.1127 -0.4734
 2403Sol     OW12637   2.846   3.378   5.615  0.4140 -0.2256  0.0300
 2403Sol     HW12638   2.896   3.442   5.564 -3.1525  0.7645 -2.4419
 2403Sol     HW12639   2.808   3.429   5.686 -1.2448  0.1903 -1.1095
 2403Sol     MW12640   2.847   3.388   5.617 -1.5513  0.0388 -0.0495
 2404Sol     OW12641   0.817   3.118   5.408 -0.4596  0.6336  0.5373
 2404Sol     HW12642   0.808   3.210   5.433 -0.6363  0.7736 -0.0282
 2404Sol     HW12643   0.731   3.094   5.375 -0.8567 -0.1785  2.1081
 2404Sol     MW12644   0.809   3.124   5.407  0.5135  0.6704  0.2182
 2405Sol     OW12645   1.921   2.626   8.195 -0.0060  0.5357  0.3208
 2405Sol     HW12646   1.912   2.534   8.167 -0.8317  1.0366 -1.1126
 2405Sol     HW12647   1.831   2.656   8.205  0.2677  1.1682  0.8617
 2405Sol     MW12648   1.912   2.620   8.193 -0.2471  0.2759  0.8820
 2406Sol     OW12649   3.066   0.475   6.854 -0.0913 -0.0328  0.4813
 2406Sol     HW12650   3.146   0.427   6.876  0.2229 -0.8465 -2.1965
 2406Sol     HW12651   2.999   0.439   6.911  0.5847 -2.2067 -0.0725
 2406Sol     MW12652   3.068   0.468   6.861  0.2965 -0.3426  0.1695
 2407Sol     OW12653   1.973   0.692   8.520 -0.1805 -0.1093 -0.3028
 2407Sol     HW12654   2.008   0.676   8.607 -1.4415  0.0405  0.2417
 2407Sol     HW12655   1.979   0.607   8.476  2.1451  0.2351 -0.7065
 2407Sol     MW12656   1.977   0.683   8.523  0.1865  0.4667  0.3985
 2408Sol     OW12657   0.115   1.301   5.479  0.3208 -0.6455 -0.0188
 2408Sol     HW12658   0.099   1.216   5.520  0.8012 -0.8578 -0.2648
 2408Sol     HW12659   0.204   1.325   5.506  0.6971 -0.8495 -1.0338
 2408Sol     MW12660   0.122   1.296   5.485 -0.2134  0.2583  0.0585
 2409Sol     OW12661   1.001   2.490   4.312 -0.3329 -0.2453  0.4072
 2409Sol     HW12662   1.044   2.534   4.386  0.5590 -2.3178  1.1523
 2409Sol     HW12663   1.048   2.522   4.235  1.3466 -1.0527  1.0707
 2409Sol     MW12664   1.009   2.497   4.312  0.3734 -0.0399 -0.9176
 2410Sol     OW12665   2.661   3.349   9.083  0.1562  0.7656 -0.4632
 2410Sol     HW12666   2.566   3.340   9.078  0.2478 -1.2730  0.8386
 2410Sol     HW12667   2.684   3.310   9.167  2.1658  1.1456 -0.8132
 2410Sol     MW12668   2.654   3.345   9.090  0.0918 -0.4822  0.3088
 2411Sol     OW12669   3.137   1.651   1.725  0.6266 -0.2755  0.1507
 2411Sol     HW12670   3.214   1.640   1.781  0.6407 -2.7656 -0.3133
 2411Sol     HW12671   3.169   1.701   1.649  1.1915  0.8745  1.1383
 2411Sol     MW12672   3.147   1.655   1.723  0.3378  0.1027  0.2026
 2412Sol     OW12673   3.252   1.752   6.951 -0.1550  0.0334  0.5862
 2412Sol     HW12674   3.271   1.658   6.947  2.4624  0.5116  1.0624
 2412Sol     HW12675   3.320   1.793   6.899 -0.1580  1.8195  1.9331
 2412Sol     MW12676   3.260   1.747   6.946  0.3488 -0.2655 -0.0336
 2413Sol     OW12677   0.898   3.205   1.546  0.0685 -0.5819  0.3320
 2413Sol     HW12678   0.918   3.291   1.508 -2.7715  0.4762  1.1192
 2413Sol     HW12679   0.970   3.188   1.607  0.6276  1.2772  0.2067
 2413Sol     MW12680   0.906   3.211   1.548 -0.3821 -0.4729 -0.1756
 2414Sol     OW12681   0.607   0.772   8.380  0.5728  0.5999  0.1618
 2414Sol     HW12682   0.673   0.726   8.329  0.2377 -0.0311  0.2854
 2414Sol     HW12683   0.642   0.860   8.392  0.1633  1.1028 -2.0957
 2414Sol     MW12684   0.616   0.776   8.377 -0.2865  0.4679  0.3205
 2415Sol     OW12685   0.661   1.644   5.026 -0.3562  0.2652 -0.0690
 2415Sol     HW12686   0.709   1.716   4.984 -1.3596  1.2528  0.4646
 2415Sol     HW12687   0.725   1.606   5.087 -0.3022  1.7359  0.8267
 2415Sol     MW12688   0.671   1.647   5.028 -0.3504 -0.4170 -0.0504
 2416Sol     OW12689   1.666   0.461   9.405 -0.5006  0.5711  0.1717
 2416Sol     HW12690   1.717   0.380   9.411 -1.4703  0.0720  2.3768
 2416Sol     HW12691   1.719   0.519   9.350  0.4388 -1.3791 -1.0376
 2416Sol     MW12692   1.675   0.459   9.401  0.4790 -0.2936 -0.2427
 2417Sol     OW12693   1.352   0.528   9.093 -0.0497 -0.0068  0.0933
 2417Sol     HW12694   1.356   0.478   9.174  1.0013  0.8330  0.5877
 2417Sol     HW12695   1.264   0.566   9.092 -0.3223 -0.6217  0.4656
 2417Sol     MW12696   1.345   0.527   9.100 -0.2917 -0.4548 -0.0630
 2418Sol     OW12697   1.108   2.999   4.482  0.0387  0.1901  0.6977
 2418Sol     HW12698   1.047   3.003   4.556  0.0743  1.1782  0.6811
 2418Sol     HW12699   1.139   3.089   4.472  1.1239 -0.2135  0.3877
 2418Sol     MW12700   1.105   3.008   4.487 -0.6351  0.1917  0.1251
 2419Sol     OW12701   2.435   3.293   7.875  0.2871 -0.4235 -0.5178
 2419Sol     HW12702   2.431   3.226   7.807  0.7204 -0.0136 -0.9465
 2419Sol     HW12703   2.497   3.259   7.939  0.0993 -0.6764 -0.4692
 2419Sol     MW12704   2.440   3.284   7.874  0.1434 -0.4388  0.4844
 2420Sol     OW12705   0.914   1.306   2.080 -0.1395 -0.0373 -0.0634
 2420Sol     HW12706   0.831   1.347   2.053  0.1587  0.7704  0.2541
 2420Sol     HW12707   0.929   1.239   2.013 -0.5890  0.4128 -0.6300
 2420Sol     MW12708   0.908   1.304   2.072 -0.4777  0.0895 -0.6373
 2421Sol     OW12709   0.662   3.039   6.952  0.0339  0.2543  0.2534
 2421Sol     HW12710   0.591   3.091   6.991  0.6399  2.2345 -1.1673
 2421Sol     HW12711   0.737   3.056   7.009 -0.1412 -0.2427  0.6297
 2421Sol     MW12712   0.662   3.045   6.961 -0.1565 -0.7004  0.2457
 2422Sol     OW12713   0.248   2.458   6.084  0.4625 -0.2727 -0.4096
 2422Sol     HW12714   0.253   2.500   5.998  0.1078  0.3512 -0.1326
 2422Sol     HW12715   0.155   2.457   6.105  0.5188 -0.7293 -0.1841
 2422Sol     MW12716   0.240   2.462   6.078  0.2665 -0.1981  0.0974
 2423Sol     OW12717   1.359   3.075   1.696 -0.1329  0.0633  0.0255
 2423Sol     HW12718   1.384   3.108   1.609  1.5746  1.0528  0.8674
 2423Sol     HW12719   1.441   3.046   1.735 -0.6176  1.2652  2.0107
 2423Sol     MW12720   1.369   3.075   1.691  0.8606  1.1744 -0.0681
 2424Sol     OW12721   2.610   1.444   4.960 -0.0042  0.3744 -0.2044
 2424Sol     HW12722   2.644   1.526   4.997 -0.2449  0.7025 -0.6959
 2424Sol     HW12723   2.520   1.439   4.993  0.2306 -0.0278  0.3608
 2424Sol     MW12724   2.605   1.451   4.966 -0.2583 -0.1632 -0.0888
 2425Sol     OW12725   1.408   3.013   8.892 -0.3360  0.0062  0.0621
 2425Sol     HW12726   1.383   2.943   8.953  1.5797 -1.0596 -0.3597
 2425Sol     HW12727   1.428   3.087   8.949 -0.7011 -0.3015  0.6052
 2425Sol     MW12728   1.407   3.013   8.903  0.9062 -0.5840 -0.1143
 2426Sol     OW12729   1.340   0.368   7.726  0.2006 -0.6049  0.2931
 2426Sol     HW12730   1.396   0.300   7.763 -1.3953 -1.6211  0.8763
 2426Sol     HW12731   1.288   0.323   7.659 -1.4368 -0.1342  1.2348
 2426Sol     MW12732   1.341   0.358   7.723 -0.0053  0.4051 -0.4084
 2427Sol     OW12733   0.890   2.843   3.751 -0.0661 -0.1303 -0.9124
 2427Sol     HW12734   0.863   2.765   3.800  1.3625 -2.0581 -3.1097
 2427Sol     HW12735   0.812   2.898   3.748 -1.3644 -1.8931 -0.1108
 2427Sol     MW12736   0.881   2.841   3.755 -0.7381  0.4986  0.3612
 2428Sol     OW12737   2.861   3.313   3.675  0.5774 -0.1584  0.1621
 2428Sol     HW12738   2.888   3.308   3.583  2.8886  0.2421  0.7747
 2428Sol     HW12739   2.846   3.222   3.701  2.6364 -0.5501  0.1162
 2428Sol     MW12740   2.862   3.305   3.669 -0.3118  0.3774 -0.0825
 2429Sol     OW12741   0.495   0.189   5.823 -0.3380  0.3857  0.0596
 2429Sol     HW12742   0.568   0.208   5.763  0.1977 -0.0249  0.5766
 2429Sol     HW12743   0.495   0.263   5.883  0.4768 -0.2410  0.8469
 2429Sol     MW12744   0.502   0.198   5.823  0.1691 -0.3677  0.2817
 2430Sol     OW12745   1.136   0.630   7.659  0.1340 -0.2050  0.6606
 2430Sol     HW12746   1.126   0.724   7.645 -0.8643  0.0896  3.0346
 2430Sol     HW12747   1.202   0.623   7.727 -0.0692 -1.2079  0.7616
 2430Sol     MW12748   1.141   0.638   7.664 -0.1818 -0.1337 -0.5969
 2431Sol     OW12749   0.244   2.749   7.776 -0.0778 -0.1522 -0.2924
 2431Sol     HW12750   0.259   2.799   7.697  1.3816 -1.5114 -0.9111
 2431Sol     HW12751   0.233   2.659   7.746 -0.1695 -0.5869  0.9879
 2431Sol     MW12752   0.244   2.745   7.767  0.8742 -0.2814  0.3435
 2432Sol     OW12753   1.109   0.304   7.279  0.5585 -0.1619  0.4578
 2432Sol     HW12754   1.193   0.342   7.254 -0.3705  2.3417  1.0351
 2432Sol     HW12755   1.110   0.307   7.375  0.3239 -1.3102  0.5008
 2432Sol     MW12756   1.117   0.307   7.286  0.3108 -0.2664 -0.5790
 2433Sol     OW12757   0.894   1.327   3.408  0.2294 -0.4364  0.5359
 2433Sol     HW12758   0.901   1.296   3.318 -2.5374  1.6647 -0.5052
 2433Sol     HW12759   0.984   1.340   3.437  1.1920 -2.6328 -1.3599
 2433Sol     MW12760   0.903   1.326   3.403 -0.2585  1.1352  0.1829
 2434Sol     OW12761   0.739   1.781   9.267  0.5394  0.0768  0.8083
 2434Sol     HW12762   0.816   1.836   9.279  1.8151 -1.7656  1.3819
 2434Sol     HW12763   0.736   1.728   9.347 -0.4681 -0.8839  0.1351
 2434Sol     MW12764   0.746   1.781   9.275  0.4654 -0.3246  0.3356
 2435Sol     OW12765   1.994   0.780   9.090  0.7572  0.1980 -0.2348
 2435Sol     HW12766   2.041   0.703   9.056 -0.2193  0.2833 -1.8377
 2435Sol     HW12767   2.059   0.850   9.087  0.6094  0.2725 -2.2616
 2435Sol     MW12768   2.004   0.779   9.086 -0.2926  0.0990 -0.3222
 2436Sol     OW12769   1.782   2.432   6.718  0.2549 -0.0351  0.1993
 2436Sol     HW12770   1.722   2.409   6.789  1.3690 -1.5865  0.6651
 2436Sol     HW12771   1.746   2.388   6.641  0.2610 -0.1684  0.2725
 2436Sol     MW12772   1.773   2.426   6.717  0.0181 -0.1525  0.3384
 2437Sol     OW12773   0.023   2.664   3.386  0.0460  0.2491  0.5411
 2437Sol     HW12774   0.010   2.712   3.304 -1.0281  0.0751  0.5969
 2437Sol     HW12775   0.116   2.672   3.404  0.4576 -0.4602 -1.1630
 2437Sol     MW12776   0.030   2.669   3.380 -0.3309 -0.2394  0.3243
 2438Sol     OW12777   2.813   2.341   8.899  0.0531 -0.5305 -0.4723
 2438Sol     HW12778   2.791   2.433   8.914 -0.5710 -0.5426 -1.2853
 2438Sol     HW12779   2.738   2.293   8.934 -0.3099 -0.6592 -1.4163
 2438Sol     MW12780   2.804   2.345   8.903 -0.7656 -0.6079 -0.3628
 2439Sol     OW12781   1.867   2.438   2.478  0.0636 -0.7608 -0.1191
 2439Sol     HW12782   1.787   2.389   2.456  0.2277 -0.3674 -1.6536
 2439Sol     HW12783   1.858   2.521   2.431  0.3428  0.2260  1.5128
 2439Sol     MW12784   1.859   2.441   2.472 -0.1490  0.0833  0.4684
 2440Sol     OW12785   2.271   0.016   6.370  0.1449 -0.1867  0.0633
 2440Sol     HW12786   2.337  -0.049   6.395 -0.1854 -0.0098  1.4401
 2440Sol     HW12787   2.286   0.090   6.430  0.6178  1.0738 -1.5852
 2440Sol     MW12788   2.278   0.017   6.378 -0.3797 -0.0210 -0.2653
 2441Sol     OW12789   1.273   0.740   4.181 -0.0499 -0.1255 -0.0888
 2441Sol     HW12790   1.341   0.711   4.121  1.0775  0.3722  0.9276
 2441Sol     HW12791   1.267   0.835   4.167 -2.3297 -0.5137 -1.9871
 2441Sol     MW12792   1.279   0.746   4.175 -0.3571 -0.2993  0.2110
 2442Sol     OW12793   1.795   0.146   3.575 -0.2400  0.3444 -0.2418
 2442Sol     HW12794   1.734   0.180   3.510  0.1089  0.4071 -0.5355
 2442Sol     HW12795   1.877   0.135   3.528 -0.0938  0.0056  0.0878
 2442Sol     MW12796   1.797   0.148   3.565  0.9055 -0.2315 -0.6602
 2443Sol     OW12797   0.590   1.200   3.256 -0.0282  0.2724  0.4405
 2443Sol     HW12798   0.577   1.185   3.162 -0.5154  0.0546  0.5443
 2443Sol     HW12799   0.553   1.287   3.271  0.3689  0.4549  0.3612
 2443Sol     MW12800   0.586   1.207   3.249 -0.3238 -0.2419 -0.3639
 2444Sol     OW12801   0.562   0.371   1.935  0.2550  0.3367 -0.3364
 2444Sol     HW12802   0.564   0.290   1.884  1.3663 -0.2426  0.6047
 2444Sol     HW12803   0.481   0.367   1.985 -0.2272  0.3237 -1.1106
 2444Sol     MW12804   0.555   0.364   1.935  0.3635 -0.0764 -0.0311
 2445Sol     OW12805   1.028   3.247   6.807  0.1734  0.3766  0.6656
 2445Sol     HW12806   0.972   3.229   6.882  1.2005  1.8476  1.8133
 2445Sol     HW12807   1.015   3.172   6.749 -1.2239 -0.4005  1.9456
 2445Sol     MW12808   1.022   3.239   6.808  0.0732 -0.3228 -0.5859
 2446Sol     OW12809   2.770   1.691   4.190  0.7418 -0.2562  0.6535
 2446Sol     HW12810   2.707   1.622   4.210  0.3614  0.0810  0.6100
 2446Sol     HW12811   2.852   1.644   4.175  0.4919 -0.6974  0.6550
 2446Sol     MW12812   2.772   1.681   4.190 -0.1975 -0.0118 -0.8213
 2447Sol     OW12813   1.436   2.243   7.896 -0.0345  0.3843 -0.6068
 2447Sol     HW12814   1.430   2.337   7.875  0.8452  0.5864 -0.0023
 2447Sol     HW12815   1.392   2.199   7.823  0.6548  1.2036 -1.5305
 2447Sol     MW12816   1.432   2.248   7.887  0.2260  0.3293 -0.3140
 2448Sol     OW12817   2.186   1.879   6.138  0.2914 -0.1607  0.5664
 2448Sol     HW12818   2.110   1.825   6.117  1.6300 -1.3058 -1.5443
 2448Sol     HW12819   2.259   1.817   6.144  1.2848  1.0450  1.4646
 2448Sol     MW12820   2.186   1.868   6.137 -0.2378 -0.1360  0.1944
 2449Sol     OW12821   2.478   0.568   8.747 -0.1050  0.7488  0.5416
 2449Sol     HW12822   2.393   0.547   8.709 -0.2895  2.5150 -0.1021
 2449Sol     HW12823   2.459   0.585   8.839 -0.1127 -0.8329  0.8342
 2449Sol     MW12824   2.469   0.568   8.752  0.4071 -0.8619 -0.3166
 2450Sol     OW12825   1.479   2.733   3.333 -0.4762 -0.0284  0.1335
 2450Sol     HW12826   1.536   2.801   3.367 -0.0807  0.1054 -0.7699
 2450Sol     HW12827   1.400   2.780   3.305  1.0993  0.5831 -3.5699
 2450Sol     MW12828   1.477   2.743   3.333 -0.3699 -0.4941 -0.4284
 2451Sol     OW12829   2.253   1.007   2.352  0.0186 -0.4396 -0.4733
 2451Sol     HW12830   2.236   1.024   2.444 -0.8821 -1.6336 -0.4177
 2451Sol     HW12831   2.348   0.993   2.348 -0.0962 -1.5939  0.4756
 2451Sol     MW12832   2.260   1.007   2.360 -0.0030  0.3594  0.1624
 2452Sol     OW12833   1.873   1.601   7.238 -0.2374 -0.4860  0.2076
 2452Sol     HW12834   1.875   1.516   7.283 -0.4102 -0.1990  0.7593
 2452Sol     HW12835   1.810   1.653   7.288  1.1692  0.5482  0.9227
 2452Sol     MW12836   1.867   1.598   7.247 -0.4590 -0.0183 -0.7710
 2453Sol     OW12837   0.820   2.662   6.867 -0.5441  0.2908  0.0378
 2453Sol     HW12838   0.857   2.639   6.781 -0.5525  1.0241 -0.1675
 2453Sol     HW12839   0.888   2.636   6.929 -0.3768  0.1001 -0.2204
 2453Sol     MW12840   0.830   2.658   6.865 -0.0706  0.2120  0.1588
 2454Sol     OW12841   2.311   2.868   9.546 -0.3798  0.0982 -0.4130
 2454Sol     HW12842   2.280   2.895   9.632 -0.8957  0.5074 -0.7237
 2454Sol     HW12843   2.239   2.816   9.509  0.2587 -0.9803 -0.1716
 2454Sol     MW12844   2.302   2.866   9.550 -0.3425 -0.1922  0.1451
 2455Sol     OW12845   3.093   2.395   4.870 -0.6760  0.0349  0.4703
 2455Sol     HW12846   3.132   2.359   4.950 -0.3900 -0.3410  0.1698
 2455Sol     HW12847   3.028   2.458   4.900 -0.2650  0.2122  0.9933
 2455Sol     MW12848   3.091   2.397   4.880 -0.5793  0.4048  0.3404
 2456Sol     OW12849   3.248   0.900   5.698  0.0083  0.2405 -0.7339
 2456Sol     HW12850   3.289   0.860   5.775  0.3217  0.0884 -0.9809
 2456Sol     HW12851   3.154   0.892   5.714  0.0729  0.6354 -0.1425
 2456Sol     MW12852   3.244   0.896   5.706 -0.2329 -0.5216  0.3097
 2457Sol     OW12853   2.919   1.223   7.848 -0.3973 -0.0417 -0.2457
 2457Sol     HW12854   2.995   1.165   7.847  0.2806  0.8542 -0.9673
 2457Sol     HW12855   2.948   1.303   7.805 -1.3138  0.8662  0.7733
 2457Sol     MW12856   2.928   1.225   7.844  0.4165 -0.3714 -0.7631
 2458Sol     OW12857   1.799   1.162   2.699 -0.0036 -0.5816 -0.1161
 2458Sol     HW12858   1.828   1.106   2.626  0.4474 -0.1083 -0.2974
 2458Sol     HW12859   1.868   1.154   2.764  0.2444  0.0700 -0.2998
 2458Sol     MW12860   1.807   1.156   2.698  0.2648  0.3502  0.2566
 2459Sol     OW12861   0.924   1.603   4.331 -0.2920 -0.7083  0.4260
 2459Sol     HW12862   0.936   1.513   4.301 -0.6963 -1.2453  1.8653
 2459Sol     HW12863   1.012   1.635   4.347 -0.1568 -0.8903  0.0517
 2459Sol     MW12864   0.933   1.598   4.330 -0.0550  1.0364 -0.1975
 2460Sol     OW12865   1.282   3.079   4.178 -0.9231  0.0066 -0.7248
 2460Sol     HW12866   1.223   3.137   4.131 -1.7794  1.3558  1.8956
 2460Sol     HW12867   1.227   3.006   4.205 -0.9054  0.2050 -0.1434
 2460Sol     MW12868   1.272   3.078   4.176 -0.0795 -0.9515  0.1271
 2461Sol     OW12869   1.435   3.190   1.458 -0.8116  0.2352  0.1935
 2461Sol     HW12870   1.390   3.231   1.384  1.8971  1.4003 -0.8825
 2461Sol     HW12871   1.469   3.264   1.510 -0.9260 -0.5916  1.4756
 2461Sol     MW12872   1.434   3.200   1.456 -0.6405 -0.1202  0.0064
 2462Sol     OW12873   2.887   2.845   9.984  0.5313 -0.9997  0.1020
 2462Sol     HW12874   2.829   2.875   9.915  1.8017  1.2740 -0.0010
 2462Sol     HW12875   2.942   2.778   9.942  1.4020  0.4737 -1.1573
 2462Sol     MW12876   2.887   2.841   9.974  0.4343 -0.4040 -0.0326
 2463Sol     OW12877   1.880   0.058   7.521  0.5433 -0.5405  0.0009
 2463Sol     HW12878   1.908   0.149   7.513 -1.0235  0.1534  1.8776
 2463Sol     HW12879   1.957   0.006   7.497  1.3361  1.2568 -1.4664
 2463Sol     MW12880   1.889   0.061   7.518 -1.0098  0.1756  0.0450
 2464Sol     OW12881   1.062   3.102   7.911  0.0689 -0.7364 -0.7275
 2464Sol     HW12882   1.106   3.065   7.834  0.1856 -1.9967 -0.0782
 2464Sol     HW12883   0.996   3.037   7.934  1.3852 -1.3562  1.4474
 2464Sol     MW12884   1.060   3.093   7.906 -0.0020 -0.0228 -0.9502
 2465Sol     OW12885   2.043   2.824   8.754  0.3306 -0.2861 -0.2584
 2465Sol     HW12886   2.002   2.910   8.761 -0.1987 -0.3146 -2.6422
 2465Sol     HW12887   2.019   2.779   8.835 -2.6201  0.4711 -0.6491
 2465Sol     MW12888   2.037   2.827   8.762  0.0062  0.1967  0.4884
 2466Sol     OW12889   0.203   2.226   7.821  0.2737  0.3441 -0.1670
 2466Sol     HW12890   0.170   2.176   7.746 -0.6512 -0.3848  0.7039
 2466Sol     HW12891   0.255   2.162   7.871  0.9911  0.8568 -0.2587
 2466Sol     MW12892   0.205   2.216   7.819  0.2946  0.2456  0.3541
 2467Sol     OW12893   0.356   1.370   7.859 -0.1750  0.4753 -0.2718
 2467Sol     HW12894   0.317   1.283   7.868 -0.2001  0.6838  1.8452
 2467Sol     HW12895   0.445   1.354   7.827 -0.6844 -0.2230 -1.3695
 2467Sol     MW12896   0.360   1.361   7.857 -0.5304 -0.5988 -0.0790
 2468Sol     OW12897   0.144   2.643   2.453 -0.0457  0.5165 -0.3111
 2468Sol     HW12898   0.111   2.557   2.480 -2.7799  1.0764 -1.6144
 2468Sol     HW12899   0.203   2.624   2.380 -0.8461 -0.2514 -0.7687
 2468Sol     MW12900   0.146   2.634   2.449  0.0984  0.5671 -0.2426
 2469Sol     OW12901   2.180   1.180   4.404  0.1695 -0.6256  0.6424
 2469Sol     HW12902   2.231   1.101   4.423  0.7740 -0.1009  1.2125
 2469Sol     HW12903   2.242   1.238   4.359 -0.1026 -0.2287  0.7842
 2469Sol     MW12904   2.190   1.178   4.401 -0.1455 -0.2883 -0.7393
 2470Sol     OW12905   3.116   2.816   4.898  0.2981 -0.3810 -0.3301
 2470Sol     HW12906   3.065   2.737   4.878 -0.0126 -0.2956  0.1163
 2470Sol     HW12907   3.050   2.885   4.908  0.5256 -0.1968 -0.0931
 2470Sol     MW12908   3.105   2.815   4.897 -0.7142 -0.0554  0.1447
 2471Sol     OW12909   2.368   2.358   9.115 -0.1032  0.3635 -0.1001
 2471Sol     HW12910   2.335   2.270   9.133 -2.0212  0.7955 -1.3048
 2471Sol     HW12911   2.337   2.411   9.189  1.1177  0.0161  0.6635
 2471Sol     MW12912   2.362   2.355   9.123 -0.7715 -0.3481  0.8107
 2472Sol     OW12913   2.776   1.836   3.417 -0.3623 -0.4415 -0.3258
 2472Sol     HW12914   2.741   1.901   3.356  0.4290 -0.7210 -1.0798
 2472Sol     HW12915   2.863   1.816   3.383  0.0515 -0.6599  0.8435
 2472Sol     MW12916   2.781   1.840   3.409  0.0565 -0.0252  0.4065
 2473Sol     OW12917   0.340   0.238   6.985 -0.8355 -0.1195 -0.2464
 2473Sol     HW12918   0.281   0.163   6.989 -1.4250  0.3448  0.0227
 2473Sol     HW12919   0.420   0.209   7.028 -1.0329 -0.6194 -0.2189
 2473Sol     MW12920   0.341   0.229   6.989  0.1413 -0.6752 -0.0716
 2474Sol     OW12921   1.753   1.565   8.427 -0.3915  0.6865 -0.2451
 2474Sol     HW12922   1.679   1.566   8.366  0.1195 -0.7743 -0.9228
 2474Sol     HW12923   1.794   1.651   8.416  0.5212 -0.0384 -3.0484
 2474Sol     MW12924   1.750   1.573   8.420 -0.7813 -0.2668  0.3886
 2475Sol     OW12925   2.568   0.235   5.674  0.2553  0.1809 -0.0703
 2475Sol     HW12926   2.637   0.181   5.715  2.8797  1.2109 -2.9296
 2475Sol     HW12927   2.504   0.172   5.643  2.8198 -1.3411 -2.5295
 2475Sol     MW12928   2.569   0.225   5.675 -0.1745  0.1447 -0.6156
 2476Sol     OW12929   3.293   1.644   9.549 -0.1173  0.0041  0.2077
 2476Sol     HW12930   3.376   1.681   9.578 -0.0939 -0.0075  0.1566
 2476Sol     HW12931   3.229   1.675   9.613  0.3542 -2.1635  1.8140
 2476Sol     MW12932   3.295   1.650   9.557  0.3120  0.3245  0.1023
 2477Sol     OW12933   2.367   0.974   6.376  0.4439  0.2055 -0.1749
 2477Sol     HW12934   2.344   1.064   6.353 -1.2621  0.2644  1.5848
 2477Sol     HW12935   2.289   0.923   6.352  1.2041 -0.7352 -0.6944
 2477Sol     MW12936   2.358   0.977   6.372  0.7601  0.8111  0.1465
 2478Sol     OW12937   1.228   3.263   8.061  0.1429 -0.2508 -0.1969
 2478Sol     HW12938   1.160   3.221   8.007 -0.0740 -0.4619  0.2296
 2478Sol     HW12939   1.303   3.204   8.055 -0.1643 -0.7134  0.4069
 2478Sol     MW12940   1.228   3.254   8.056  0.0156 -0.3251  0.3475
 2479Sol     OW12941   3.221   0.904   2.892 -0.0446  0.5071 -0.0913
 2479Sol     HW12942   3.139   0.865   2.862 -0.1119  1.0678 -0.6524
 2479Sol     HW12943   3.251   0.846   2.962  0.2445 -1.0137 -1.4156
 2479Sol     MW12944   3.217   0.895   2.895 -0.2832 -1.0506 -0.0519
 2480Sol     OW12945   2.470   0.013   9.384  0.2553  0.0287  0.1666
 2480Sol     HW12946   2.452   0.099   9.346 -1.5533  0.6302  2.2796
 2480Sol     HW12947   2.419  -0.048   9.330  1.2260  0.3169 -1.0874
 2480Sol     MW12948   2.464   0.015   9.375  0.4451 -0.9449  0.1723
 2481Sol     OW12949   0.271   2.015   3.893  0.1843 -0.0771  0.3128
 2481Sol     HW12950   0.215   2.085   3.927 -0.3392 -0.2167 -0.2343
 2481Sol     HW12951   0.274   2.032   3.799  0.8246 -0.2499  0.3035
 2481Sol     MW12952   0.266   2.023   3.888  0.2024  0.1997 -0.7283
 2482Sol     OW12953   2.976   0.966   8.361  0.0134  0.1718  0.3320
 2482Sol     HW12954   3.035   0.987   8.289  0.0804  1.0490  0.6341
 2482Sol     HW12955   2.896   0.937   8.318  0.3096 -0.0151 -0.0921
 2482Sol     MW12956   2.974   0.966   8.351  0.2247  0.3530  0.3521
 2483Sol     OW12957   0.974   0.374   4.478 -0.4446  0.0649 -0.2335
 2483Sol     HW12958   0.946   0.464   4.461 -1.4981  0.1882  1.9800
 2483Sol     HW12959   1.058   0.382   4.523 -1.9780  0.1082  2.7493
 2483Sol     MW12960   0.979   0.382   4.480  0.0742 -0.5762  0.4414
 2484Sol     OW12961   3.184   2.699   9.114  0.8594  0.1748  0.1900
 2484Sol     HW12962   3.176   2.664   9.202  0.8365 -0.0833  0.0851
 2484Sol     HW12963   3.263   2.754   9.117 -0.1361  1.6132  0.8527
 2484Sol     MW12964   3.190   2.701   9.122 -0.0772 -0.0270  0.0685
 2485Sol     OW12965   1.732   2.052   5.017 -0.2119 -0.4828 -0.3629
 2485Sol     HW12966   1.708   1.960   5.029  0.7808 -0.6013  0.6907
 2485Sol     HW12967   1.696   2.096   5.094  0.2402 -0.1517 -0.3457
 2485Sol     MW12968   1.726   2.047   5.025 -0.0677 -0.0043 -0.4024
 2486Sol     OW12969   0.079   2.033   7.617  0.1595 -0.7164  0.2788
 2486Sol     HW12970   0.117   1.945   7.628  3.4653  0.2336 -2.5326
 2486Sol     HW12971   0.058   2.038   7.524 -0.6665  1.2285  0.5501
 2486Sol     MW12972   0.081   2.025   7.610  0.0274 -0.0891  0.2052
 2487Sol     OW12973   2.830   0.063   1.647 -0.1140 -0.7013  0.2284
 2487Sol     HW12974   2.740   0.041   1.624 -0.0754  0.5373 -1.2575
 2487Sol     HW12975   2.839   0.155   1.621  0.6158  0.1625  3.3588
 2487Sol     MW12976   2.823   0.069   1.642  0.4549  0.1489  0.2004
 2488Sol     OW12977   0.687   0.979   2.046 -0.0690 -0.5207 -0.4539
 2488Sol     HW12978   0.680   1.064   2.089  0.8608  0.5947 -2.4773
 2488Sol     HW12979   0.708   0.918   2.117  0.8614  1.1925  0.7638
 2488Sol     MW12980   0.688   0.981   2.057  0.2979 -0.0753  0.0996
 2489Sol     OW12981   0.185   2.438   4.266 -0.2549  0.3697 -0.6848
 2489Sol     HW12982   0.249   2.397   4.325 -1.4231 -1.9800 -0.9799
 2489Sol     HW12983   0.116   2.469   4.324 -0.4305 -0.1025 -0.6381
 2489Sol     MW12984   0.185   2.437   4.276  0.1077 -0.2966 -0.3520
 2490Sol     OW12985   1.154   0.260   7.556 -0.8274 -0.5975 -0.6932
 2490Sol     HW12986   1.137   0.166   7.548 -0.2121 -0.6594 -1.3054
 2490Sol     HW12987   1.093   0.290   7.624  0.1224 -1.7227  0.6682
 2490Sol     MW12988   1.147   0.255   7.561 -0.0393  0.1959 -0.8166
 2491Sol     OW12989   1.206   2.922   9.261 -0.0803 -0.2125  0.1617
 2491Sol     HW12990   1.247   2.847   9.218 -0.2129  0.3209 -0.9130
 2491Sol     HW12991   1.263   2.942   9.335  0.6997 -0.5092 -0.3578
 2491Sol     MW12992   1.215   2.917   9.264 -0.0896  0.9776 -0.2662
 2492Sol     OW12993   1.663   2.933   8.100 -0.6829  0.0510  0.5414
 2492Sol     HW12994   1.651   2.852   8.151 -3.0480 -0.1003 -0.2150
 2492Sol     HW12995   1.745   2.970   8.134 -1.3271 -0.9049  3.2879
 2492Sol     MW12996   1.669   2.929   8.108  0.0712  0.3754 -0.2382
 2493Sol     OW12997   0.474   2.173   6.347 -0.2605  0.6278 -0.2963
 2493Sol     HW12998   0.452   2.253   6.395 -1.1406  1.2253 -1.6827
 2493Sol     HW12999   0.475   2.199   6.255  1.2190 -0.5544 -0.6376
 2493Sol     MW13000   0.472   2.182   6.343  0.0909  0.2996  0.1887
 2494Sol     OW13001   2.664   0.925   5.309  0.2709  0.0624 -0.0621
 2494Sol     HW13002   2.750   0.959   5.331  0.0507  0.8533 -0.3825
 2494Sol     HW13003   2.669   0.905   5.216  0.2932 -0.4496  0.0521
 2494Sol     MW13004   2.672   0.927   5.303 -0.8926 -0.3114  0.1039
 2495Sol     OW13005   1.088   0.886   9.632  0.2121 -0.3786  0.2845
 2495Sol     HW13006   1.010   0.844   9.595  0.6701 -1.7204  0.8224
 2495Sol     HW13007   1.148   0.892   9.558 -0.6461  1.3642 -0.3268
 2495Sol     MW13008   1.086   0.883   9.622 -0.4631 -1.0390  0.1033
 2496Sol     OW13009   1.322   1.582   9.771 -0.0779 -0.0563  0.3139
 2496Sol     HW13010   1.267   1.649   9.811  1.7859  0.8704  1.4016
 2496Sol     HW13011   1.351   1.621   9.689 -0.6934 -0.3723 -0.0536
 2496Sol     MW13012   1.320   1.592   9.767  0.1858  0.0770  0.4125
 2497Sol     OW13013   1.602   1.060   5.690  0.3193 -0.2354 -0.4875
 2497Sol     HW13014   1.687   1.035   5.727 -0.3300 -0.7050  0.7097
 2497Sol     HW13015   1.603   1.155   5.690  1.2463 -0.2294 -1.4340
 2497Sol     MW13016   1.610   1.066   5.693 -0.1069  0.5960 -0.2820
 2498Sol     OW13017   2.166   3.227   3.536  0.0714 -0.1998 -0.3843
 2498Sol     HW13018   2.113   3.300   3.504  1.1224  0.2728 -1.0978
 2498Sol     HW13019   2.130   3.150   3.492  0.0646  0.1424 -0.9926
 2498Sol     MW13020   2.158   3.227   3.529 -0.7741  0.3392  0.6052
 2499Sol     OW13021   2.527   1.133   4.652 -0.3338 -0.1331 -0.3299
 2499Sol     HW13022   2.456   1.112   4.592 -0.2529  0.7759 -0.7467
 2499Sol     HW13023   2.519   1.227   4.667 -0.6948 -0.4199  1.5239
 2499Sol     MW13024   2.520   1.139   4.648 -0.3385  0.3515 -0.0217
 2500Sol     OW13025   1.343   2.576   2.424 -0.0778 -0.3042 -0.1124
 2500Sol     HW13026   1.430   2.562   2.460 -0.2165  0.0382  0.3759
 2500Sol     HW13027   1.284   2.564   2.498 -0.3682  0.4370 -0.2102
 2500Sol     MW13028   1.345   2.574   2.434 -0.2031 -0.1442  0.2317
 2501Sol     OW13029   0.766   0.651   6.826 -0.5262  0.0984 -0.0783
 2501Sol     HW13030   0.709   0.576   6.810 -1.7051  1.1826 -1.1172
 2501Sol     HW13031   0.855   0.618   6.811 -1.1546 -0.5658 -2.6165
 2501Sol     MW13032   0.769   0.642   6.823 -0.2751 -0.1583  0.3775
 2502Sol     OW13033   3.184   1.531   1.389  0.0247 -0.1447 -0.6057
 2502Sol     HW13034   3.264   1.479   1.376  1.0545  0.9541  1.1460
 2502Sol     HW13035   3.113   1.472   1.366  1.2020 -2.1454  0.7339
 2502Sol     MW13036   3.185   1.521   1.385  0.2577 -0.2510  0.0686
 2503Sol     OW13037   2.444   2.510   8.896  0.0109  0.0459  0.6312
 2503Sol     HW13038   2.379   2.470   8.838  0.0142 -1.4558  1.6378
 2503Sol     HW13039   2.438   2.460   8.977  3.3158 -0.9802  0.3088
 2503Sol     MW13040   2.438   2.502   8.898 -0.0920 -0.1195  0.0920
 2504Sol     OW13041   1.030   2.391   8.378  0.9743  0.0041 -0.3729
 2504Sol     HW13042   1.054   2.480   8.354 -0.4171  0.0247 -1.7645
 2504Sol     HW13043   1.111   2.351   8.408  1.4158  2.0572  1.2847
 2504Sol     MW13044   1.039   2.395   8.379 -0.1290  0.3275  0.1499
 2505Sol     OW13045   2.249   3.211   5.561 -0.1127 -0.0013 -0.1746
 2505Sol     HW13046   2.321   3.225   5.499  0.0369  0.7427  0.1625
 2505Sol     HW13047   2.226   3.118   5.551  2.1330 -0.7362  1.0280
 2505Sol     MW13048   2.253   3.204   5.555 -0.2962 -0.0290  0.0693
 2506Sol     OW13049   1.319   0.050   4.968  0.6978  0.0537  0.2957
 2506Sol     HW13050   1.232   0.042   5.006  0.9157 -0.3182  0.7145
 2506Sol     HW13051   1.326   0.143   4.944 -0.2370 -0.1475 -0.7706
 2506Sol     MW13052   1.312   0.058   4.969 -0.0543  0.0689  0.3799
 2507Sol     OW13053   2.898   0.428   6.375  0.3228  1.2267  0.2228
 2507Sol     HW13054   2.941   0.411   6.458 -2.7134 -0.1925  1.5725
 2507Sol     HW13055   2.897   0.344   6.330 -1.2317  1.1759  0.3258
 2507Sol     MW13056   2.901   0.419   6.378 -0.4287  0.0642 -0.0650
 2508Sol     OW13057   1.246   1.780   1.864 -0.4369 -0.0624  0.3311
 2508Sol     HW13058   1.286   1.716   1.805 -0.9318  0.4866 -0.6180
 2508Sol     HW13059   1.190   1.729   1.922  1.0542 -0.7597  1.1973
 2508Sol     MW13060   1.245   1.770   1.864 -0.7074 -0.1580 -0.3624
 2509Sol     OW13061   2.360   0.196   4.565  0.4152 -0.2987 -0.9362
 2509Sol     HW13062   2.303   0.120   4.580  0.8211 -0.2805  0.7516
 2509Sol     HW13063   2.322   0.265   4.619  1.1263  0.1801 -1.0525
 2509Sol     MW13064   2.351   0.195   4.571 -0.7995 -0.0672 -0.5119
 2510Sol     OW13065   2.232   1.053   3.309  0.4209 -0.3660 -0.4349
 2510Sol     HW13066   2.216   1.145   3.290 -0.5500 -0.4153  0.1200
 2510Sol     HW13067   2.318   1.052   3.352 -0.2844  0.4675  1.0038
 2510Sol     MW13068   2.238   1.061   3.311  0.2926  0.0916 -0.1769
 2511Sol     OW13069   0.825   0.111   8.609  0.0529 -0.3601 -0.0553
 2511Sol     HW13070   0.898   0.126   8.669  1.1177  0.2991 -1.4801
 2511Sol     HW13071   0.771   0.190   8.616  0.1135 -0.3364  0.1333
 2511Sol     MW13072   0.827   0.120   8.615 -0.1373  0.1047  0.3304
 2512Sol     OW13073   2.443   0.129   7.862  0.3944 -0.3444 -0.5562
 2512Sol     HW13074   2.350   0.152   7.869  0.6385  1.8721 -3.4562
 2512Sol     HW13075   2.445   0.034   7.876 -2.1069 -0.2417  0.8915
 2512Sol     MW13076   2.435   0.122   7.864  0.1137 -0.0089 -0.2334
 2513Sol     OW13077   1.487   2.115   8.556  0.2713 -0.1251 -0.1382
 2513Sol     HW13078   1.514   2.030   8.522  0.3046 -0.2281  0.1416
 2513Sol     HW13079   1.569   2.164   8.566  0.2308  0.0221 -0.5167
 2513Sol     MW13080   1.497   2.112   8.554 -0.1527  0.1822 -0.2496
 2514Sol     OW13081   0.458   2.728   7.531 -0.5053  0.3342 -0.2228
 2514Sol     HW13082   0.475   2.642   7.493 -0.9485  0.1893 -0.1047
 2514Sol     HW13083   0.371   2.751   7.498 -1.0214  0.0724  0.9290
 2514Sol     MW13084   0.452   2.722   7.525  0.1207  0.5777 -0.0913
 2515Sol     OW13085   2.869   2.488   3.838 -0.4375  0.0863  0.5679
 2515Sol     HW13086   2.919   2.412   3.869 -0.1088  0.1533  0.2158
 2515Sol     HW13087   2.826   2.522   3.916  0.6972  0.4858  1.0293
 2515Sol     MW13088   2.870   2.484   3.848 -0.5030 -0.0750  0.3737
 2516Sol     OW13089   0.171   0.821   2.351  0.3344 -0.1629 -0.0132
 2516Sol     HW13090   0.169   0.757   2.280 -0.0422 -0.2655  0.0873
 2516Sol     HW13091   0.079   0.845   2.363  0.6146  1.5253 -1.0726
 2516Sol     MW13092   0.162   0.818   2.345 -0.2803 -0.0243 -0.7180
 2517Sol     OW13093   2.444   0.794   7.937  0.1876  0.1642 -0.2041
 2517Sol     HW13094   2.348   0.799   7.932  0.1846  0.9986  0.6437
 2517Sol     HW13095   2.471   0.881   7.964  1.1516 -0.2558  0.1929
 2517Sol     MW13096   2.438   0.802   7.939  0.3235 -0.1479 -0.7499
 2518Sol     OW13097   1.513   2.864   4.130 -0.1884  0.4542  0.2300
 2518Sol     HW13098   1.453   2.938   4.119 -0.3806  0.2647 -0.0133
 2518Sol     HW13099   1.581   2.897   4.188  0.5656  1.3175 -1.1161
 2518Sol     MW13100   1.513   2.874   4.134  0.2752  0.4324 -0.6029
 2519Sol     OW13101   3.244   0.041   7.089 -0.4104 -0.2375  0.1585
 2519Sol     HW13102   3.175   0.011   7.029  1.8974 -0.4298 -2.5246
 2519Sol     HW13103   3.205   0.114   7.136 -3.6855 -2.6813  1.4568
 2519Sol     MW13104   3.234   0.045   7.088  0.3692 -1.0505 -0.2059
 2520Sol     OW13105   0.727   1.970   8.359  0.3579 -0.2282  0.5452
 2520Sol     HW13106   0.654   1.952   8.419 -0.0101 -1.1547 -0.1610
 2520Sol     HW13107   0.731   2.066   8.354 -0.8948 -0.1689  0.5024
 2520Sol     MW13108   0.721   1.977   8.364 -0.1559 -0.2163 -0.1379
 2521Sol     OW13109   1.380   2.603   1.679 -0.0030  0.9426 -0.4506
 2521Sol     HW13110   1.316   2.668   1.650 -1.4673 -0.6398 -0.8646
 2521Sol     HW13111   1.457   2.620   1.626 -1.2604  0.6870 -2.3940
 2521Sol     MW13112   1.381   2.611   1.672 -0.5364 -0.4469  0.4460
 2522Sol     OW13113   2.770   3.177   6.435 -0.2928 -0.6712  0.0956
 2522Sol     HW13114   2.797   3.100   6.485  1.0906  0.5854  1.3311
 2522Sol     HW13115   2.826   3.247   6.467 -1.0103  0.6925 -1.5629
 2522Sol     MW13116   2.777   3.176   6.442 -0.6217  0.4161 -0.1734
 2523Sol     OW13117   1.516   0.431   7.529  0.6642 -0.6077 -0.5977
 2523Sol     HW13118   1.470   0.437   7.445  0.9815  1.0222 -0.6778
 2523Sol     HW13119   1.446   0.431   7.594  0.4183 -1.8443 -0.8545
 2523Sol     MW13120   1.506   0.431   7.527  0.2257 -0.0834 -0.0324
 2524Sol     OW13121   1.087   2.610   7.464 -0.1444 -0.3224 -0.0037
 2524Sol     HW13122   0.994   2.608   7.442  0.0660 -1.2660 -0.7925
 2524Sol     HW13123   1.127   2.666   7.397 -0.2705  0.8347  0.8598
 2524Sol     MW13124   1.082   2.615   7.456 -0.3037  0.0278  0.0221
 2525Sol     OW13125   2.813   2.553   3.369 -0.3154  0.2462 -0.1566
 2525Sol     HW13126   2.728   2.568   3.327 -0.1551 -0.7528 -0.8551
 2525Sol     HW13127   2.809   2.603   3.450 -1.8392 -0.3487  0.1435
 2525Sol     MW13128   2.805   2.559   3.372 -0.4547 -0.2766 -0.3639
 2526Sol     OW13129   1.797   0.550   3.572  0.7443 -0.3557  0.2821
 2526Sol     HW13130   1.744   0.629   3.556 -0.0852 -0.6780  1.3555
 2526Sol     HW13131   1.804   0.545   3.667 -0.7035 -2.5417  0.3076
 2526Sol     MW13132   1.793   0.557   3.579  0.8131 -0.0231  0.1785
 2527Sol     OW13133   2.376   1.336   4.259  0.0725 -0.4974  0.3281
 2527Sol     HW13134   2.438   1.407   4.242  0.1622  0.1798  3.2321
 2527Sol     HW13135   2.420   1.258   4.227  1.2361  0.3591 -0.2065
 2527Sol     MW13136   2.385   1.336   4.255  0.4054  0.0789  0.0495
 2528Sol     OW13137   3.267   2.283   3.143  0.0766  0.3804  0.2883
 2528Sol     HW13138   3.278   2.196   3.104  0.1864  0.2457  0.6147
 2528Sol     HW13139   3.244   2.340   3.069 -2.0593 -0.3155  0.3664
 2528Sol     MW13140   3.266   2.280   3.133 -0.0479 -0.3148  0.5991
 2529Sol     OW13141   1.809   0.298   9.758  0.5561 -0.3528  0.0307
 2529Sol     HW13142   1.786   0.232   9.693 -0.7208 -2.2006  2.2764
 2529Sol     HW13143   1.882   0.259   9.807 -0.7436 -0.4885  1.9005
 2529Sol     MW13144   1.814   0.289   9.757  0.7715  0.3614 -0.1411
 2530Sol     OW13145   3.023   0.741   2.829  0.4675 -0.0238 -0.2541
 2530Sol     HW13146   2.964   0.764   2.901 -0.4168  0.9350 -1.2723
 2530Sol     HW13147   2.967   0.742   2.751  1.9700  1.6654 -1.3509
 2530Sol     MW13148   3.013   0.743   2.828 -0.4290  0.1738 -0.0155
 2531Sol     OW13149   0.340   0.226   2.700 -0.0924 -0.3220 -0.0825
 2531Sol     HW13150   0.366   0.317   2.686  1.1372 -0.6295  0.1615
 2531Sol     HW13151   0.419   0.175   2.682  0.4648 -1.0460  3.8536
 2531Sol     MW13152   0.350   0.229   2.697 -0.2032 -0.4664  0.0924
 2532Sol     OW13153   2.526   2.276   5.830  0.1117 -0.1019  0.2355
 2532Sol     HW13154   2.477   2.297   5.909  0.1145  0.3543  0.1211
 2532Sol     HW13155   2.581   2.354   5.815 -0.3709  0.0822 -0.5819
 2532Sol     MW13156   2.527   2.285   5.835 -0.1285  0.7159 -0.1673
 2533Sol     OW13157   2.375   2.297   6.082 -0.3540  0.2325 -0.0887
 2533Sol     HW13158   2.457   2.248   6.081  0.0066  0.8403 -1.4990
 2533Sol     HW13159   2.309   2.236   6.050 -0.2091  0.1700 -0.2629
 2533Sol     MW13160   2.376   2.287   6.079  0.4115  0.2962 -0.1360
 2534Sol     OW13161   0.684   2.712   1.695 -0.0556 -0.3816  0.8319
 2534Sol     HW13162   0.641   2.713   1.610  2.0535 -2.4813 -0.3393
 2534Sol     HW13163   0.619   2.677   1.755 -1.0514 -0.3667 -0.2323
 2534Sol     MW13164   0.674   2.709   1.693  0.1861 -0.2989  0.1527
 2535Sol     OW13165   0.614   1.778   6.394  0.2087 -0.5253  0.3181
 2535Sol     HW13166   0.709   1.770   6.405  0.2328 -2.5662 -0.9804
 2535Sol     HW13167   0.604   1.833   6.316  0.3539 -1.0022 -0.0421
 2535Sol     MW13168   0.622   1.782   6.388  0.1930 -0.4464 -0.4586
 2536Sol     OW13169   0.678   3.127   8.562  0.1269  0.5632  0.2517
 2536Sol     HW13170   0.635   3.043   8.547 -1.5199  1.1238  1.6707
 2536Sol     HW13171   0.771   3.108   8.555 -0.3260 -0.6856 -2.8615
 2536Sol     MW13172   0.682   3.118   8.560  0.7288 -0.3575  0.6741
 2537Sol     OW13173   1.397   1.432   2.607  0.0264  0.3192 -0.3050
 2537Sol     HW13174   1.348   1.404   2.685  0.7382  2.0402  0.8119
 2537Sol     HW13175   1.489   1.420   2.632  0.2627  1.1486 -0.7570
 2537Sol     MW13176   1.401   1.429   2.617 -0.6801 -0.4262 -0.1250
 2538Sol     OW13177   1.352   1.120   6.084 -0.6337 -0.6686 -0.0360
 2538Sol     HW13178   1.269   1.074   6.070 -0.0689 -1.4258 -1.0608
 2538Sol     HW13179   1.347   1.197   6.027 -0.7107 -0.6068  0.0541
 2538Sol     MW13180   1.344   1.123   6.077 -0.4215 -0.2747  0.0509
 2539Sol     OW13181   1.445   0.260   4.548 -0.0368  0.6284 -0.2429
 2539Sol     HW13182   1.529   0.245   4.591 -0.1415 -1.2651 -0.6722
 2539Sol     HW13183   1.459   0.235   4.457 -1.4683 -1.2162  0.0111
 2539Sol     MW13184   1.454   0.256   4.544 -0.1485  0.1157 -0.2667
 2540Sol     OW13185   0.702   2.133   4.679 -0.3266  0.4124 -0.2958
 2540Sol     HW13186   0.677   2.049   4.642  0.3196 -0.9765  2.2788
 2540Sol     HW13187   0.742   2.181   4.606 -1.7830 -1.0203 -2.0707
 2540Sol     MW13188   0.704   2.130   4.669 -0.4514  0.0638 -0.1058
 2541Sol     OW13189   2.422   3.324   5.799  0.0043  0.1836 -0.3913
 2541Sol     HW13190   2.354   3.309   5.864 -0.2526  1.2547 -0.4109
 2541Sol     HW13191   2.383   3.295   5.717 -1.6086  3.6759 -0.9379
 2541Sol     MW13192   2.413   3.320   5.797 -0.2612  0.2780  0.7086
 2542Sol     OW13193   2.117   2.630   2.186  0.1318 -0.4884  0.3576
 2542Sol     HW13194   2.205   2.665   2.194 -0.1487  0.3300 -0.0292
 2542Sol     HW13195   2.093   2.647   2.095 -1.4794  1.8874  1.1677
 2542Sol     MW13196   2.122   2.635   2.179 -0.0161 -0.6646  0.3738
 2543Sol     OW13197   1.389   0.975   6.559  0.0693  0.2031 -0.1804
 2543Sol     HW13198   1.307   1.015   6.588 -0.2808 -0.3803 -0.3527
 2543Sol     HW13199   1.414   1.025   6.481  0.1824  0.7531  0.2113
 2543Sol     MW13200   1.384   0.983   6.554 -0.0008  0.7369 -0.1581
 2544Sol     OW13201   3.080   0.660   8.971  0.2495  0.1219  0.0841
 2544Sol     HW13202   3.053   0.752   8.960  0.4532  0.3227  1.2142
 2544Sol     HW13203   3.121   0.638   8.887  1.6411  1.5608  0.3625
 2544Sol     MW13204   3.081   0.667   8.962  0.2354 -0.2947 -0.2462
 2545Sol     OW13205   0.339   0.815   8.478 -0.7499  0.3211 -0.3539
 2545Sol     HW13206   0.423   0.781   8.446 -0.8163 -1.4596  1.2668
 2545Sol     HW13207   0.363   0.870   8.553 -0.8234  2.1976 -1.6723
 2545Sol     MW13208   0.349   0.817   8.482  0.0540  0.2656  0.6430
 2546Sol     OW13209   3.244   1.074   4.538 -0.1516 -0.8671  0.2449
 2546Sol     HW13210   3.275   1.028   4.617 -1.3278 -0.3756  1.0132
 2546Sol     HW13211   3.156   1.103   4.561  0.0606  0.5839 -0.7312
 2546Sol     MW13212   3.239   1.072   4.547 -0.0996  0.0551  0.7340
 2547Sol     OW13213   1.207   0.509   5.119  0.3153  0.0744  0.5526
 2547Sol     HW13214   1.187   0.560   5.040 -0.6362  1.2454  1.5189
 2547Sol     HW13215   1.298   0.531   5.139  0.8766 -0.9943 -0.7618
 2547Sol     MW13216   1.214   0.516   5.114 -0.6480 -0.4388 -0.1703
 2548Sol     OW13217   2.884   1.602   6.028  0.1855 -0.2308  0.5184
 2548Sol     HW13218   2.862   1.510   6.035  1.7783 -0.6201  0.5764
 2548Sol     HW13219   2.800   1.648   6.039 -0.5633 -1.6425  0.7837
 2548Sol     MW13220   2.874   1.598   6.030  0.3979  0.2303  0.0462
 2549Sol     OW13221   0.297   0.197   5.075  0.4214  0.0770 -0.3440
 2549Sol     HW13222   0.284   0.166   4.985  1.8621  1.4081 -1.0372
 2549Sol     HW13223   0.373   0.147   5.106  0.3340  0.0988 -0.0996
 2549Sol     MW13224   0.303   0.190   5.070 -0.0737 -0.1867  0.0538
 2550Sol     OW13225   3.169   0.555   2.976 -0.5691  0.0130 -0.1593
 2550Sol     HW13226   3.143   0.600   2.896 -2.6071 -2.5371 -1.0221
 2550Sol     HW13227   3.264   0.557   2.976 -0.5548 -0.0850 -2.7253
 2550Sol     MW13228   3.175   0.559   2.969 -0.0708  0.5799  0.1905
 2551Sol     OW13229   2.954   2.629   3.130 -0.7257  0.0298 -0.3070
 2551Sol     HW13230   2.888   2.693   3.103  0.3156  1.3400  0.1944
 2551Sol     HW13231   2.934   2.611   3.221  1.3835  2.7280  0.7539
 2551Sol     MW13232   2.946   2.633   3.135 -0.6506  0.5083  0.6788
 2552Sol     OW13233   0.308   0.522   4.584 -0.5762  0.2363  0.2001
 2552Sol     HW13234   0.308   0.526   4.680  1.5790  1.8489  0.1736
 2552Sol     HW13235   0.377   0.460   4.562 -1.4214 -0.5337 -0.3133
 2552Sol     MW13236   0.314   0.517   4.591  0.4388 -0.6327 -0.0069
 2553Sol     OW13237   1.840   0.957   5.808 -0.0712  0.0896  0.0636
 2553Sol     HW13238   1.919   0.989   5.764  0.7478 -2.1421 -0.1932
 2553Sol     HW13239   1.860   0.865   5.828 -2.2439 -0.2383  0.8563
 2553Sol     MW13240   1.849   0.952   5.806  0.9268  0.2097 -0.1284
 2554Sol     OW13241   2.856   2.387   5.187 -0.0689 -0.4486 -0.4118
 2554Sol     HW13242   2.802   2.348   5.255 -1.8467 -0.2071 -1.6289
 2554Sol     HW13243   2.914   2.447   5.233 -1.8325  0.3624  0.8114
 2554Sol     MW13244   2.856   2.389   5.197 -0.2090  0.3462 -0.3500
 2555Sol     OW13245   0.322   0.770   2.612  0.2565 -0.0556 -0.0594
 2555Sol     HW13246   0.294   0.679   2.611  0.9277 -0.2711  1.0223
 2555Sol     HW13247   0.242   0.819   2.631  0.2522 -0.5437  1.1836
 2555Sol     MW13248   0.312   0.767   2.613  0.8898 -0.0356 -0.4485
 2556Sol     OW13249   1.940   0.004   2.378 -0.6076 -0.3511  0.0560
 2556Sol     HW13250   1.854  -0.021   2.344 -0.4361 -0.0552 -0.6037
 2556Sol     HW13251   1.973  -0.074   2.422 -1.6669 -0.1534  1.2293
 2556Sol     MW13252   1.935  -0.005   2.379 -0.3552 -0.1159 -0.0936
 2557Sol     OW13253   1.131   2.523   2.635  0.1480  0.1871  0.0258
 2557Sol     HW13254   1.077   2.601   2.633 -1.8062 -1.1202  0.4863
 2557Sol     HW13255   1.173   2.524   2.721  1.6310  1.6748 -0.6792
 2557Sol     MW13256   1.130   2.530   2.642 -0.2333  0.3303 -0.5042
 2558Sol     OW13257   2.481   2.452   2.344 -0.3239 -0.4156  0.3035
 2558Sol     HW13258   2.476   2.535   2.391 -2.0795 -0.3961  0.1155
 2558Sol     HW13259   2.544   2.400   2.394  1.1488  1.1779  0.1583
 2558Sol     MW13260   2.487   2.455   2.352 -0.3809  0.3747  0.0955
 2559Sol     OW13261   3.021   0.876   7.739  0.1230  0.6874 -0.2223
 2559Sol     HW13262   2.930   0.846   7.731  0.3134  0.1359 -0.3268
 2559Sol     HW13263   3.066   0.836   7.665  0.9746 -1.0025  1.1840
 2559Sol     MW13264   3.016   0.870   7.731 -0.0302  0.4857 -0.7854
 2560Sol     OW13265   1.682   0.553   6.972  0.3406 -0.8032  0.4353
 2560Sol     HW13266   1.710   0.491   7.040  3.6270 -1.2097 -1.1750
 2560Sol     HW13267   1.697   0.506   6.890 -4.3017 -0.6257 -0.6567
 2560Sol     MW13268   1.686   0.543   6.971  0.4824  0.4048  0.4024
 2561Sol     OW13269   2.782   0.213   2.267 -0.0820 -0.0333  0.4231
 2561Sol     HW13270   2.828   0.192   2.186  1.7186 -0.2309  1.4703
 2561Sol     HW13271   2.698   0.250   2.239 -0.5957 -2.5656 -1.4995
 2561Sol     MW13272   2.779   0.214   2.258 -0.2106  0.1400  0.0989
 2562Sol     OW13273   1.004   3.129   9.867 -0.2818  0.1251 -0.6580
 2562Sol     HW13274   0.913   3.156   9.870  0.0122  1.2863 -1.6882
 2562Sol     HW13275   1.052   3.208   9.842  0.9319 -0.6130 -0.7174
 2562Sol     MW13276   1.000   3.139   9.865 -0.4059  0.4048 -0.0185
 2563Sol     OW13277   3.268   3.320   5.745 -0.1469  0.8080  0.0850
 2563Sol     HW13278   3.193   3.270   5.712 -0.7783  1.2986  0.7759
 2563Sol     HW13279   3.230   3.394   5.791  0.7441  0.6781  1.0657
 2563Sol     MW13280   3.258   3.322   5.746 -0.3040 -0.0075 -0.4072
 2564Sol     OW13281   2.336   0.208   9.208  0.1789  0.2646  0.1332
 2564Sol     HW13282   2.345   0.224   9.114  0.7859  0.3935  0.2120
 2564Sol     HW13283   2.316   0.294   9.245 -1.6444 -0.0521 -0.0626
 2564Sol     MW13284   2.335   0.217   9.203 -0.0572  0.2206 -0.2166
 2565Sol     OW13285   2.825   1.053   6.298 -0.2218 -0.3093  0.5296
 2565Sol     HW13286   2.908   1.023   6.336  0.5172  0.6706 -0.2583
 2565Sol     HW13287   2.761   1.045   6.368  0.1223 -2.9014  0.5920
 2565Sol     MW13288   2.827   1.050   6.308 -0.7135  0.1628 -0.3267
 2566Sol     OW13289   3.220   1.276   6.213  0.1760  0.7969  0.4060
 2566Sol     HW13290   3.228   1.348   6.151  0.0800 -1.2304 -2.0114
 2566Sol     HW13291   3.310   1.262   6.245  0.3605  1.2809  0.1106
 2566Sol     MW13292   3.229   1.281   6.210 -0.1355  0.1138  0.1226
 2567Sol     OW13293   0.100   3.315   5.076  0.4180 -0.0448  0.1127
 2567Sol     HW13294   0.010   3.285   5.088 -0.1314  1.2164 -0.7905
 2567Sol     HW13295   0.153   3.239   5.100 -0.9156 -1.3277 -0.8950
 2567Sol     MW13296   0.097   3.305   5.080 -0.6161 -0.9252 -0.1741
 2568Sol     OW13297   3.205   1.189   3.169 -0.4208  0.3045 -0.1328
 2568Sol     HW13298   3.142   1.154   3.106 -0.8116 -0.1074  0.4822
 2568Sol     HW13299   3.282   1.133   3.160  0.2785  1.4798 -1.6625
 2568Sol     MW13300   3.207   1.181   3.163  0.1706  0.2467 -0.2326
 2569Sol     OW13301   1.237   0.094   2.929  0.0499 -0.0354 -0.3202
 2569Sol     HW13302   1.207   0.058   3.012  0.5802  1.5293  0.5811
 2569Sol     HW13303   1.253   0.018   2.874 -2.4129 -1.0193  0.2493
 2569Sol     MW13304   1.236   0.084   2.931 -0.2906 -0.4024  0.0176
 2570Sol     OW13305   2.770   0.234   7.623  0.2907  0.2382  0.5990
 2570Sol     HW13306   2.763   0.294   7.548  0.7519 -1.4170 -0.7924
 2570Sol     HW13307   2.864   0.221   7.635  0.1775 -1.6625 -0.3279
 2570Sol     MW13308   2.777   0.238   7.617  0.3179  0.3153 -0.4354
 2571Sol     OW13309   3.198   1.240   9.566  0.1855  0.2464 -0.1724
 2571Sol     HW13310   3.130   1.243   9.633  2.4881  0.2826  2.2393
 2571Sol     HW13311   3.222   1.148   9.561  1.0660  0.4590  0.1482
 2571Sol     MW13312   3.194   1.232   9.572 -0.1586  0.5734 -0.4459
 2572Sol     OW13313   1.133   2.664   4.495  0.3838 -0.1394  0.8809
 2572Sol     HW13314   1.204   2.698   4.440 -0.2469 -1.0283 -0.4928
 2572Sol     HW13315   1.178   2.616   4.565  1.1983  1.3016  1.3585
 2572Sol     MW13316   1.144   2.663   4.497  0.2384 -0.0982 -0.1685
 2573Sol     OW13317   3.300   2.282   5.928  0.3764 -0.1347 -0.4990
 2573Sol     HW13318   3.376   2.227   5.947 -0.5458 -1.2691 -0.0052
 2573Sol     HW13319   3.316   2.364   5.975  0.7889 -0.7753  0.4701
 2573Sol     MW13320   3.308   2.285   5.934 -0.3544  0.4042 -0.6748
 2574Sol     OW13321   0.042   0.607   3.374 -0.1719  0.2092 -0.0472
 2574Sol     HW13322  -0.051   0.605   3.352 -0.4945 -1.6451  1.2752
 2574Sol     HW13323   0.080   0.536   3.323  0.6960  1.4700 -1.1927
 2574Sol     MW13324   0.037   0.600   3.368  0.4929 -0.3553  0.1180
 2575Sol     OW13325   1.644   1.299   8.660 -0.0818 -0.0496  0.2533
 2575Sol     HW13326   1.625   1.208   8.681 -1.0174  0.1447  0.2616
 2575Sol     HW13327   1.726   1.295   8.611  1.2793 -0.6411  2.5309
 2575Sol     MW13328   1.650   1.290   8.657  0.5077  0.1605  0.5477
 2576Sol     OW13329   1.560   1.766   6.635 -0.5869  0.0253 -0.3597
 2576Sol     HW13330   1.511   1.769   6.718 -0.7798  0.3912 -0.4855
 2576Sol     HW13331   1.644   1.726   6.659 -0.0931  1.4336  0.2914
 2576Sol     MW13332   1.563   1.763   6.645 -0.6529  0.3999 -0.1654
 2577Sol     OW13333   1.332   2.977   4.919 -0.6732  0.2604 -0.6329
 2577Sol     HW13334   1.361   3.067   4.933 -0.3415  0.0847 -0.1727
 2577Sol     HW13335   1.335   2.965   4.824 -1.0961  0.8557 -0.7228
 2577Sol     MW13336   1.335   2.984   4.912 -0.5191  0.0701  0.4745
 2578Sol     OW13337   0.817   1.549   9.923 -1.1156  0.2274  0.2998
 2578Sol     HW13338   0.912   1.564   9.930 -0.7946 -2.0788  1.0949
 2578Sol     HW13339   0.779   1.637   9.930  1.0492  1.4423 -2.1213
 2578Sol     MW13340   0.823   1.558   9.924  0.0931 -0.0828  0.1060
 2579Sol     OW13341   2.895   1.313   6.737  0.0162 -0.0058 -0.4667
 2579Sol     HW13342   2.858   1.353   6.658  0.7108  0.3521 -0.6182
 2579Sol     HW13343   2.872   1.373   6.807  0.3396  0.2391 -0.5672
 2579Sol     MW13344   2.890   1.322   6.736 -0.8040  0.0185 -0.4015
 2580Sol     OW13345   0.626   0.213   8.095 -0.5512  0.6650  0.1825
 2580Sol     HW13346   0.662   0.251   8.175 -0.6208  1.1967 -0.0365
 2580Sol     HW13347   0.615   0.287   8.035 -2.1227  0.5444  0.2927
 2580Sol     MW13348   0.628   0.223   8.097 -0.2056 -0.0206 -0.1114
 2581Sol     OW13349   0.472   2.275   6.101  0.3957  0.4612  0.0048
 2581Sol     HW13350   0.519   2.271   6.018 -0.9112 -0.5224 -0.6976
 2581Sol     HW13351   0.423   2.357   6.096 -0.4686 -0.0871 -0.6333
 2581Sol     MW13352   0.472   2.282   6.093 -0.1896  0.2338  0.5396
 2582Sol     OW13353   2.670   3.248   4.321  0.0979 -0.3572 -0.8121
 2582Sol     HW13354   2.703   3.256   4.411  0.4090 -1.2604 -0.8440
 2582Sol     HW13355   2.577   3.228   4.332  0.3154 -1.3115 -0.6764
 2582Sol     MW13356   2.665   3.247   4.330  0.7156  0.2656 -0.2778
 2583Sol     OW13357   2.599   2.034   5.431  0.4478  0.3383  0.4761
 2583Sol     HW13358   2.639   2.113   5.396 -0.9474  0.3058 -1.2373
 2583Sol     HW13359   2.526   2.065   5.485  0.7842  0.2587  0.9882
 2583Sol     MW13360   2.596   2.044   5.433  0.3326  0.4944 -0.1691
 2584Sol     OW13361   1.384   1.807   6.444  0.7930 -0.3536 -0.0968
 2584Sol     HW13362   1.311   1.746   6.451  1.0449 -0.9153 -1.8859
 2584Sol     HW13363   1.447   1.779   6.510  0.5103 -1.4763 -0.3068
 2584Sol     MW13364   1.383   1.799   6.450 -0.7802  0.2024 -0.6352
 2585Sol     OW13365   0.907   1.726   2.791 -0.2752 -0.5353 -0.3008
 2585Sol     HW13366   0.828   1.696   2.836 -1.1112 -0.7278 -1.8624
 2585Sol     HW13367   0.951   1.783   2.854 -1.9462  0.0106  0.3907
 2585Sol     MW13368   0.904   1.728   2.800  1.1274 -0.3614  0.5424
 2586Sol     OW13369   2.560   1.243   6.735  0.0874  0.5307  0.3045
 2586Sol     HW13370   2.476   1.223   6.777  0.5405  1.4306  1.6766
 2586Sol     HW13371   2.585   1.328   6.771  2.1177 -0.2330  0.7492
 2586Sol     MW13372   2.555   1.249   6.742 -0.6246 -0.2086  0.1454
 2587Sol     OW13373   1.952   0.596   4.907  0.1752 -0.3091 -0.0023
 2587Sol     HW13374   1.888   0.556   4.848  0.8056  2.5088 -2.7448
 2587Sol     HW13375   1.901   0.657   4.961  0.3161  1.0476 -1.3622
 2587Sol     MW13376   1.942   0.598   4.906 -0.0760 -0.3624  0.2006
 2588Sol     OW13377   0.799   0.782   8.173  0.1013 -0.0442 -0.6447
 2588Sol     HW13378   0.864   0.712   8.180 -0.2116 -0.3670 -0.9494
 2588Sol     HW13379   0.849   0.863   8.185  0.6795 -0.2512 -1.5917
 2588Sol     MW13380   0.809   0.783   8.174  0.0858 -0.1038 -0.4755
 2589Sol     OW13381   3.018   2.566   5.324 -0.2516  0.2074  0.0720
 2589Sol     HW13382   3.076   2.632   5.286  0.3756 -1.2109 -1.5049
 2589Sol     HW13383   3.078   2.499   5.358 -0.9393 -0.5619 -0.2372
 2589Sol     MW13384   3.029   2.566   5.324  0.1395  0.1686  0.6148
 2590Sol     OW13385   0.687   0.541   3.882  0.4604 -0.1171  0.6749
 2590Sol     HW13386   0.684   0.494   3.799 -2.3641 -0.3341  0.8638
 2590Sol     HW13387   0.666   0.632   3.860  2.2530  0.3497  0.8201
 2590Sol     MW13388   0.685   0.545   3.872  0.4922  0.5647 -0.7353
 2591Sol     OW13389   2.515   2.420   4.378  0.0422 -0.1728  0.1687
 2591Sol     HW13390   2.504   2.362   4.453 -0.3179 -0.9524 -0.4743
 2591Sol     HW13391   2.427   2.428   4.341 -0.7560  4.1151  2.6289
 2591Sol     MW13392   2.506   2.415   4.381 -0.1686 -0.3966 -0.1647
 2592Sol     OW13393   0.828   2.506   3.173 -0.0759 -0.3695 -0.0520
 2592Sol     HW13394   0.833   2.559   3.253 -1.4405  0.4125 -0.4699
 2592Sol     HW13395   0.882   2.553   3.109 -1.0677  0.3843 -0.3426
 2592Sol     MW13396   0.833   2.515   3.174 -0.5079  0.2468 -0.6701
 2593Sol     OW13397   1.446   0.946   3.059  0.0380 -0.2069 -0.0156
 2593Sol     HW13398   1.383   0.956   2.988 -0.8693 -1.0678  0.6415
 2593Sol     HW13399   1.433   1.024   3.114  1.1382  0.7402 -1.0820
 2593Sol     MW13400   1.439   0.954   3.058  0.0326 -0.7763 -0.0485
 2594Sol     OW13401   2.408   2.037   5.668 -0.0916 -0.1155 -0.0888
 2594Sol     HW13402   2.411   2.132   5.684 -0.2058 -0.3628  1.5719
 2594Sol     HW13403   2.495   2.006   5.692  0.2193 -0.3148 -1.4712
 2594Sol     MW13404   2.416   2.043   5.672 -0.5473 -0.3331  0.8761
 2595Sol     OW13405   2.749   1.391   2.718 -0.6491  0.4294  0.1365
 2595Sol     HW13406   2.690   1.406   2.644 -2.3265  0.4845  1.4443
 2595Sol     HW13407   2.693   1.400   2.795  1.0981  0.5084  1.4216
 2595Sol     MW13408   2.738   1.393   2.718  0.1508  0.7476 -0.4296
 2596Sol     OW13409   2.790   3.222   8.855  0.4980  0.5417 -0.2310
 2596Sol     HW13410   2.732   3.146   8.858 -0.7881  1.5779  1.2784
 2596Sol     HW13411   2.766   3.274   8.931  2.5078  1.6530 -0.3244
 2596Sol     MW13412   2.783   3.220   8.862  0.5412 -0.0179 -0.0635
 2597Sol     OW13413   3.305   0.307   6.823 -0.1612 -0.5152  0.0840
 2597Sol     HW13414   3.358   0.337   6.750 -0.5542  3.0178  1.1722
 2597Sol     HW13415   3.350   0.339   6.901 -2.7455  0.8402  1.1091
 2597Sol     MW13416   3.313   0.313   6.824 -0.3560  0.3936 -0.4146
 2598Sol     OW13417   0.292   1.010   4.300  0.0176 -0.4015  0.0220
 2598Sol     HW13418   0.359   0.945   4.279  0.2937  0.0863 -0.6251
 2598Sol     HW13419   0.247   0.974   4.376  2.5195  0.3319  1.9308
 2598Sol     MW13420   0.294   1.001   4.305 -0.0877 -0.4121 -0.1474
 2599Sol     OW13421   1.325   1.016   4.159  0.1281 -0.6109  0.2560
 2599Sol     HW13422   1.411   1.018   4.118 -0.3290  1.1180 -0.6800
 2599Sol     HW13423   1.264   1.027   4.086 -0.7680  0.8420  1.2059
 2599Sol     MW13424   1.327   1.017   4.149  0.7629 -0.3203  0.4705
 2600Sol     OW13425   0.444   1.192   4.527  0.4966  0.1852  0.0230
 2600Sol     HW13426   0.437   1.266   4.587  1.0928  0.0172  0.3050
 2600Sol     HW13427   0.379   1.129   4.558 -0.7985  1.0622 -0.9005
 2600Sol     MW13428   0.438   1.193   4.535 -0.0226 -0.2874 -0.0565
 2601Sol     OW13429   0.479   1.199   5.840  0.4516  0.0826  0.2529
 2601Sol     HW13430   0.384   1.198   5.856  0.7089 -1.1205  1.7568
 2601Sol     HW13431   0.492   1.278   5.786 -1.7971 -1.4462 -2.7097
 2601Sol     MW13432   0.471   1.206   5.836 -0.4834 -0.7572 -0.5812
 2602Sol     OW13433   1.955   0.554   2.131  0.1250 -0.1123 -0.4732
 2602Sol     HW13434   1.955   0.610   2.053  0.8260 -0.2455 -0.5739
 2602Sol     HW13435   2.046   0.526   2.140 -0.2003 -1.1827 -0.3803
 2602Sol     MW13436   1.963   0.556   2.124  0.6624  0.5071  0.3205
 2603Sol     OW13437   0.001   0.171   8.536 -0.1764 -0.1591 -0.2961
 2603Sol     HW13438   0.042   0.206   8.456  0.2260  0.0552  0.0008
 2603Sol     HW13439  -0.010   0.078   8.519 -1.3115  0.1167 -1.1238
 2603Sol     MW13440   0.004   0.166   8.527 -0.2140 -0.3203  0.3602
 2604Sol     OW13441   1.428   1.814   1.334  0.0041  0.5749  0.0868
 2604Sol     HW13442   1.352   1.784   1.385  0.5430  0.0237  0.5739
 2604Sol     HW13443   1.458   1.892   1.379  0.7199 -0.1349  0.8503
 2604Sol     MW13444   1.424   1.818   1.343  0.0223 -0.0672  0.2594
 2605Sol     OW13445   0.594   1.443   8.283  0.2882 -0.8445 -0.1637
 2605Sol     HW13446   0.589   1.479   8.372 -1.0350  0.6282 -0.8295
 2605Sol     HW13447   0.560   1.512   8.227  1.6134 -1.5634 -1.8952
 2605Sol     MW13448   0.591   1.452   8.286  0.1950  0.1533 -0.4006
 2606Sol     OW13449   3.235   2.533   4.047 -0.1081  0.1690 -0.3910
 2606Sol     HW13450   3.326   2.542   4.077  0.1406  0.6917 -1.2770
 2606Sol     HW13451   3.185   2.592   4.102  0.1978  0.3932 -0.3499
 2606Sol     MW13452   3.239   2.539   4.055  0.6125 -0.0655  0.1003
 2607Sol     OW13453   2.118   3.228   6.357 -0.8065  0.5557 -0.0973
 2607Sol     HW13454   2.190   3.170   6.332 -0.4416  1.5251 -1.3347
 2607Sol     HW13455   2.151   3.316   6.340 -1.0094  1.2187  2.6238
 2607Sol     MW13456   2.127   3.230   6.353  0.1870 -0.1492  0.4961
 2608Sol     OW13457   1.668   2.541   8.550 -0.6628  0.5820  0.4464
 2608Sol     HW13458   1.676   2.635   8.565 -0.8960  0.4857  1.1852
 2608Sol     HW13459   1.586   2.516   8.591  1.1149 -0.5800  3.4782
 2608Sol     MW13460   1.662   2.547   8.555  0.3259 -0.9139 -0.5399
 2609Sol     OW13461   2.350   0.640   6.790 -0.1808 -0.0425  0.1718
 2609Sol     HW13462   2.391   0.710   6.740  1.2364 -1.4165 -0.6527
 2609Sol     HW13463   2.257   0.645   6.767 -0.2360  2.0116  0.7135
 2609Sol     MW13464   2.345   0.647   6.784 -0.1871  0.6932 -0.4209
 2610Sol     OW13465   2.740   1.740   6.425 -0.1175 -0.2177 -0.0742
 2610Sol     HW13466   2.741   1.807   6.494  1.9565 -0.7075  0.4110
 2610Sol     HW13467   2.664   1.686   6.446 -1.7406  1.8975 -0.3998
 2610Sol     MW13468   2.734   1.741   6.433  0.3769  0.5316 -0.7117
 2611Sol     OW13469   3.322   2.699   8.334 -0.4602  0.0192  0.3340
 2611Sol     HW13470   3.416   2.691   8.317 -0.7702 -1.5084 -0.7820
 2611Sol     HW13471   3.287   2.742   8.256 -0.6435  1.0013  0.9441
 2611Sol     MW13472   3.327   2.702   8.326 -0.5731 -0.2954  0.3869
 2612Sol     OW13473   0.026   0.783   3.089 -0.2121  0.5854 -0.7131
 2612Sol     HW13474   0.097   0.724   3.115 -1.2943 -0.0903  0.7474
 2612Sol     HW13475   0.062   0.870   3.103  0.5529  0.2525 -0.5597
 2612Sol     MW13476   0.036   0.785   3.093  0.3005 -0.1981  0.4337
 2613Sol     OW13477   1.354   1.673   4.187 -0.6114 -0.2204  0.1519
 2613Sol     HW13478   1.445   1.702   4.191 -0.9149  0.7220  0.5224
 2613Sol     HW13479   1.357   1.579   4.204  0.1371  0.1182  1.9795
 2613Sol     MW13480   1.362   1.667   4.189 -0.2757 -0.2662  0.2689
 2614Sol     OW13481   1.327   2.501   5.294 -0.7230  0.4400 -0.5337
 2614Sol     HW13482   1.334   2.581   5.346  0.2816  1.2765 -1.9134
 2614Sol     HW13483   1.233   2.492   5.277 -0.7286  2.1530 -1.5875
 2614Sol     MW13484   1.319   2.508   5.297 -0.1344  0.1674  0.0663
 2615Sol     OW13485   2.660   1.121   9.370  0.6024  0.5205 -0.0918
 2615Sol     HW13486   2.732   1.085   9.423  1.1747 -0.0885 -1.2606
 2615Sol     HW13487   2.698   1.131   9.283 -0.2827  1.6924 -0.3461
 2615Sol     MW13488   2.670   1.119   9.367 -0.3409 -0.2535 -0.2599
 2616Sol     OW13489   1.317   3.041   9.566  0.1719  0.2902  0.4476
 2616Sol     HW13490   1.309   2.948   9.584  1.7386 -0.1332 -0.9682
 2616Sol     HW13491   1.371   3.075   9.638 -2.2219  0.5591  2.1920
 2616Sol     MW13492   1.321   3.036   9.574  0.4461  0.1745  0.1435
 2617Sol     OW13493   0.900   2.517   8.594 -0.1401 -0.1914  0.0654
 2617Sol     HW13494   0.955   2.469   8.532 -0.2961 -0.2806 -0.0076
 2617Sol     HW13495   0.936   2.605   8.596 -1.3818  0.3949 -1.7442
 2617Sol     MW13496   0.908   2.520   8.589 -0.8496  0.4921  0.5638
 2618Sol     OW13497   2.756   0.448   7.821  0.1328  0.1617 -0.1960
 2618Sol     HW13498   2.708   0.386   7.876  0.8396 -1.0051 -0.8781
 2618Sol     HW13499   2.786   0.396   7.747 -0.2779  1.5987 -1.3751
 2618Sol     MW13500   2.755   0.438   7.820  0.3795 -0.5313  0.0358
 2619Sol     OW13501   3.149   3.346   4.104 -0.0429 -0.2815  0.2604
 2619Sol     HW13502   3.128   3.323   4.013  0.3546 -0.9344  0.3312
 2619Sol     HW13503   3.127   3.267   4.154 -0.4372  0.1420  0.7537
 2619Sol     MW13504   3.145   3.336   4.100  0.0926  0.7444  0.0263
 2620Sol     OW13505   3.125   1.016   6.220  0.3307 -0.1242  0.3316
 2620Sol     HW13506   3.112   1.001   6.313 -1.9283  0.4112  0.1363
 2620Sol     HW13507   3.142   1.110   6.213 -0.4170 -0.0062  0.1110
 2620Sol     MW13508   3.126   1.023   6.227 -0.1460 -0.3511 -0.2407
 2621Sol     OW13509   2.895   2.115   9.660 -0.4412  0.3905 -0.3461
 2621Sol     HW13510   2.972   2.102   9.715 -0.5256  0.2221 -0.2684
 2621Sol     HW13511   2.923   2.180   9.595 -0.0124 -0.1792 -0.7402
 2621Sol     MW13512   2.905   2.119   9.659  0.3631 -0.2279 -0.8653
 2622Sol     OW13513   1.752   2.332   7.273  0.9464  0.3971  0.2527
 2622Sol     HW13514   1.733   2.352   7.365  0.7601  0.2440  0.2488
 2622Sol     HW13515   1.702   2.397   7.224  1.6305  0.9435  0.2761
 2622Sol     MW13516   1.746   2.339   7.277  0.5981 -0.9962  0.1448
 2623Sol     OW13517   0.229   1.646   1.575  0.4287  0.3673  0.2446
 2623Sol     HW13518   0.227   1.725   1.522 -0.1316  0.6125  0.6244
 2623Sol     HW13519   0.209   1.575   1.514 -1.2547  0.7535  0.3163
 2623Sol     MW13520   0.227   1.647   1.565  0.0592 -0.4976 -0.6548
 2624Sol     OW13521   2.222   3.128   6.925 -0.0651 -0.1468  0.4556
 2624Sol     HW13522   2.136   3.145   6.962 -0.2166  0.6119 -0.2257
 2624Sol     HW13523   2.227   3.185   6.849  1.0890 -0.0964  0.5592
 2624Sol     MW13524   2.215   3.134   6.921 -0.0738  0.1554  0.0214
 2625Sol     OW13525   1.047   1.871   8.116 -0.1113 -0.3866  0.3846
 2625Sol     HW13526   1.122   1.816   8.096 -1.1637 -1.1697 -1.6535
 2625Sol     HW13527   0.973   1.809   8.121 -0.7977  0.4875  1.2292
 2625Sol     MW13528   1.047   1.860   8.115 -0.1202 -0.4480  0.7019
 2626Sol     OW13529   1.874   3.161   1.488  0.7419 -0.6325  0.2707
 2626Sol     HW13530   1.898   3.164   1.396  1.6696 -2.4617  0.4308
 2626Sol     HW13531   1.796   3.106   1.492 -1.0940  1.8429  0.2704
 2626Sol     MW13532   1.869   3.157   1.480 -0.1186 -0.6914  0.0582
 2627Sol     OW13533   3.118   1.089   8.119 -0.0173  0.1206 -0.0515
 2627Sol     HW13534   3.115   1.088   8.023  0.0352 -0.8721 -0.0506
 2627Sol     HW13535   3.115   1.182   8.142  2.9848  0.5486 -1.1211
 2627Sol     MW13536   3.118   1.097   8.112 -0.5722 -0.4390 -0.4433
 2628Sol     OW13537   2.774   1.051   8.838  0.1482  0.0762  0.1386
 2628Sol     HW13538   2.716   0.975   8.842  0.1228  0.0953  0.1338
 2628Sol     HW13539   2.819   1.042   8.754 -0.2073  0.3261 -0.0773
 2628Sol     MW13540   2.773   1.043   8.831  0.0072 -0.0774 -0.8009
 2629Sol     OW13541   1.099   1.942   3.845  0.1953 -0.0034 -0.2666
 2629Sol     HW13542   1.053   1.862   3.871 -0.2329  0.3690  0.1368
 2629Sol     HW13543   1.191   1.923   3.862  0.1650 -0.6522 -0.8053
 2629Sol     MW13544   1.103   1.933   3.849 -0.5863  0.0703 -0.6061
 2630Sol     OW13545   2.900   3.153   6.040 -0.6289 -0.4062 -0.3753
 2630Sol     HW13546   2.958   3.229   6.048  1.0512 -1.7145  0.0742
 2630Sol     HW13547   2.812   3.188   6.057  0.4213  0.9170  2.6684
 2630Sol     MW13548   2.897   3.163   6.042 -0.5553  0.3405  0.1727
 2631Sol     OW13549   1.380   1.169   3.246  0.0168  0.1326 -0.1908
 2631Sol     HW13550   1.423   1.246   3.284  0.5171  0.3679 -1.2302
 2631Sol     HW13551   1.338   1.201   3.167  1.3945 -0.9469 -1.3809
 2631Sol     MW13552   1.380   1.179   3.242  0.0487  0.8591  0.0840
 2632Sol     OW13553   0.242   0.150   3.628 -0.1122  0.7548 -0.4705
 2632Sol     HW13554   0.160   0.176   3.669 -0.6838 -0.7457 -0.6387
 2632Sol     HW13555   0.256   0.060   3.656  1.4533  0.9720 -0.4979
 2632Sol     MW13556   0.236   0.145   3.634  0.4469 -0.1907  0.8174
 2633Sol     OW13557   0.961   2.958   7.447  0.3336 -0.3119  0.4704
 2633Sol     HW13558   0.917   2.875   7.465 -0.7003  0.0618 -0.2951
 2633Sol     HW13559   0.891   3.023   7.446  1.2299  0.7070  1.8442
 2633Sol     MW13560   0.951   2.956   7.448 -0.2771  0.4345  0.2508
 2634Sol     OW13561   0.921   0.409   3.940 -0.2329  0.2028  0.4673
 2634Sol     HW13562   0.839   0.457   3.939 -0.3756 -0.0036  1.7472
 2634Sol     HW13563   0.987   0.475   3.962 -0.2483  0.0947  0.8457
 2634Sol     MW13564   0.920   0.419   3.942  0.5479 -0.6221 -0.3116
 2635Sol     OW13565   2.280   0.132   5.615  0.5839 -0.2014  0.3409
 2635Sol     HW13566   2.293   0.154   5.707 -0.3743  2.8532 -0.1844
 2635Sol     HW13567   2.185   0.118   5.607  0.5037  0.6332 -0.3526
 2635Sol     MW13568   2.272   0.133   5.622 -1.2822 -0.3710 -0.7483
 2636Sol     OW13569   1.913   2.074   7.927  0.0309  0.0443 -0.0987
 2636Sol     HW13570   1.975   2.031   7.869  0.2062 -0.0797  0.1795
 2636Sol     HW13571   1.899   2.160   7.887 -0.1103 -0.1686 -0.5064
 2636Sol     MW13572   1.917   2.078   7.918  0.0802 -0.2918 -0.1392
 2637Sol     OW13573   1.132   1.245   3.076  0.0856  0.0862  0.2032
 2637Sol     HW13574   1.112   1.290   2.994  2.1969  1.5339  0.4195
 2637Sol     HW13575   1.047   1.222   3.114 -0.9447  1.1388 -1.4406
 2637Sol     MW13576   1.123   1.247   3.072  1.0224  0.1057  0.5423
 2638Sol     OW13577   3.323   2.453   7.193  0.4027 -0.0451 -0.3328
 2638Sol     HW13578   3.277   2.522   7.146 -0.1244 -0.4785 -0.4534
 2638Sol     HW13579   3.292   2.461   7.284 -1.1608 -1.3745 -0.7292
 2638Sol     MW13580   3.316   2.460   7.197 -0.0518  0.0413 -0.2604
 2639Sol     OW13581   0.812   2.702   7.434  0.5792 -0.2725 -0.4631
 2639Sol     HW13582   0.729   2.671   7.469  1.5810  0.0957  2.3321
 2639Sol     HW13583   0.788   2.748   7.354 -1.5402 -3.0412 -1.5334
 2639Sol     MW13584   0.803   2.703   7.430 -0.1670 -0.3109  0.3044
 2640Sol     OW13585   2.149   1.793   9.479 -0.6155 -0.0765  0.0577
 2640Sol     HW13586   2.241   1.771   9.493 -0.5720  0.1452  0.1258
 2640Sol     HW13587   2.151   1.882   9.444 -0.7950 -0.1304 -0.0912
 2640Sol     MW13588   2.157   1.799   9.477 -0.0258 -0.2781 -0.5932
 2641Sol     OW13589   2.537   0.408   6.472  0.5475 -0.1611  0.7804
 2641Sol     HW13590   2.553   0.358   6.392 -0.2642  0.4921  0.2123
 2641Sol     HW13591   2.460   0.368   6.511  0.1101  0.4101  0.5108
 2641Sol     MW13592   2.532   0.400   6.469 -0.0766 -0.0899  0.7171
 2642Sol     OW13593   2.903   0.171   4.384  0.4500 -0.1916  0.1163
 2642Sol     HW13594   2.913   0.116   4.306  1.7902  2.2189 -1.4567
 2642Sol     HW13595   2.841   0.239   4.358  1.5680  1.1397  0.8532
 2642Sol     MW13596   2.898   0.172   4.375  0.2188 -0.8074 -0.9236
 2643Sol     OW13597   1.387   2.773   5.415 -0.2697  0.0047  0.3989
 2643Sol     HW13598   1.433   2.818   5.486  0.2706  0.8343 -0.4613
 2643Sol     HW13599   1.355   2.844   5.359 -1.1367 -0.6272  0.0943
 2643Sol     MW13600   1.389   2.783   5.416 -0.2452  0.6020  0.5818
 2644Sol     OW13601   2.036   0.163   4.702  0.0579  0.5235 -0.3176
 2644Sol     HW13602   2.096   0.097   4.668 -0.4219 -0.5541  0.8921
 2644Sol     HW13603   1.989   0.119   4.773 -0.0860  2.2519  0.6854
 2644Sol     MW13604   2.037   0.153   4.705 -0.5625 -0.7327 -0.2930
 2645Sol     OW13605   1.310   1.987   3.319 -0.0043  0.3712 -0.1466
 2645Sol     HW13606   1.265   2.005   3.237 -0.8734  0.5269  0.3537
 2645Sol     HW13607   1.240   1.985   3.385  0.6167 -0.2534  0.5088
 2645Sol     MW13608   1.300   1.988   3.318  0.9504  0.3344  0.2212
 2646Sol     OW13609   2.234   2.986   8.483  0.2211 -0.0018 -0.1829
 2646Sol     HW13610   2.246   2.896   8.513  0.0856 -0.3436 -1.1407
 2646Sol     HW13611   2.226   2.978   8.388  0.0099  0.9999 -0.2483
 2646Sol     MW13612   2.234   2.977   8.477 -0.4937  0.3289 -0.0919
 2647Sol     OW13613   2.531   3.342   9.629  0.0266 -1.0622  0.0660
 2647Sol     HW13614   2.508   3.385   9.547  0.1280 -0.0919  0.5432
 2647Sol     HW13615   2.625   3.325   9.620 -0.0177 -1.2207 -0.1294
 2647Sol     MW13616   2.538   3.344   9.620  0.2908 -0.2338 -0.1816
 2648Sol     OW13617   0.047   2.512   5.101  0.0011  0.0224  0.0586
 2648Sol     HW13618   0.028   2.434   5.050 -0.4841 -1.5189  2.5274
 2648Sol     HW13619   0.142   2.508   5.117  0.3028  0.9729 -1.4532
 2648Sol     MW13620   0.054   2.505   5.098 -0.1140 -0.0369  0.1785
 2649Sol     OW13621   1.846   1.799   6.513 -0.1142 -0.1439  0.6294
 2649Sol     HW13622   1.887   1.878   6.546  0.7030 -0.5859  0.6910
 2649Sol     HW13623   1.832   1.816   6.420 -1.6317  0.7694  1.0005
 2649Sol     MW13624   1.848   1.807   6.507  0.0176 -0.3264  0.0419
 2650Sol     OW13625   2.338   1.256   2.682 -0.4920  0.4675  0.1711
 2650Sol     HW13626   2.267   1.227   2.625 -0.9598 -1.3541  1.6203
 2650Sol     HW13627   2.410   1.278   2.622 -1.2825 -0.5232 -1.1640
 2650Sol     MW13628   2.338   1.255   2.671  0.2657 -0.1080  0.1876
 2651Sol     OW13629   2.667   2.105   8.684 -0.6600  0.7823 -0.1176
 2651Sol     HW13630   2.571   2.109   8.687 -0.7390 -1.3759  1.1581
 2651Sol     HW13631   2.687   2.067   8.599 -1.0281 -0.5320  0.3722
 2651Sol     MW13632   2.660   2.102   8.677 -0.6300  0.3943 -0.7173
 2652Sol     OW13633   2.006   2.022   4.073  0.5816  0.1437  0.1129
 2652Sol     HW13634   1.970   2.038   3.986  0.9515  0.2975 -0.0113
 2652Sol     HW13635   2.008   1.926   4.081 -0.1958  0.1349  0.2636
 2652Sol     MW13636   2.003   2.015   4.066 -0.6161 -0.5069  0.3445
 2653Sol     OW13637   1.560   0.629   2.150  0.6802 -0.3451  0.3303
 2653Sol     HW13638   1.552   0.642   2.056  1.8216 -1.2284  0.1039
 2653Sol     HW13639   1.574   0.535   2.161  1.3220 -0.1464  1.3289
 2653Sol     MW13640   1.560   0.622   2.143  0.6317  0.3929  0.7705
 2654Sol     OW13641   2.520   1.429   2.535  0.2065 -0.1629 -0.7853
 2654Sol     HW13642   2.544   1.465   2.449  0.7556 -0.0439 -0.5875
 2654Sol     HW13643   2.442   1.479   2.560  0.6796  0.5698 -0.7308
 2654Sol     MW13644   2.515   1.437   2.529  0.9843  0.2762 -0.5789
 2655Sol     OW13645   2.143   0.541   9.026  0.4146 -0.2553  0.1829
 2655Sol     HW13646   2.239   0.535   9.024  0.4315  0.2350 -1.7654
 2655Sol     HW13647   2.114   0.454   9.053  1.3512 -1.3652 -2.2612
 2655Sol     MW13648   2.149   0.533   9.028 -0.4821  0.0177 -0.2393
 2656Sol     OW13649   1.656   1.638   8.882  0.8292 -0.4956 -0.2393
 2656Sol     HW13650   1.722   1.606   8.820  1.6276 -0.7211  0.7213
 2656Sol     HW13651   1.588   1.677   8.826  1.8760 -0.0469 -1.2338
 2656Sol     MW13652   1.656   1.639   8.871  0.0984 -0.0125  0.0957
 2657Sol     OW13653   2.426   2.044   4.291  0.2730  0.5655 -0.0494
 2657Sol     HW13654   2.367   2.110   4.254 -1.6806 -0.4621  1.1419
 2657Sol     HW13655   2.447   2.077   4.378 -0.6560 -0.3298  0.5237
 2657Sol     MW13656   2.422   2.053   4.295  0.1550 -0.3028 -0.2870
 2658Sol     OW13657   2.437   0.544   8.084 -0.1258 -0.2023 -0.3723
 2658Sol     HW13658   2.459   0.622   8.034 -0.9729  0.3754  0.1405
 2658Sol     HW13659   2.495   0.476   8.050  0.8028  0.7152 -0.6292
 2658Sol     MW13660   2.444   0.545   8.076  0.5078 -0.1091 -0.3641
 2659Sol     OW13661   2.123   0.676   2.470  0.4133  0.4891 -0.0631
 2659Sol     HW13662   2.031   0.661   2.449  0.6327  1.3331 -1.7012
 2659Sol     HW13663   2.124   0.761   2.515  0.5735  1.3336 -1.6181
 2659Sol     MW13664   2.115   0.682   2.473 -0.0581  0.0769  0.1679
 2660Sol     OW13665   2.996   1.174   3.672  0.2773 -0.2085  0.4577
 2660Sol     HW13666   2.987   1.266   3.700  0.6954 -0.1799  0.5045
 2660Sol     HW13667   3.048   1.178   3.592  0.4419 -0.4165  0.5525
 2660Sol     MW13668   3.000   1.183   3.668 -0.2429 -0.2754  0.4022
 2661Sol     OW13669   2.730   0.848   1.837  0.3446 -0.2300 -0.6474
 2661Sol     HW13670   2.691   0.768   1.803  0.8381  0.1432 -2.1300
 2661Sol     HW13671   2.803   0.818   1.892 -0.0476 -0.8196 -0.4560
 2661Sol     MW13672   2.733   0.838   1.839  0.3883 -0.1011 -0.0504
 2662Sol     OW13673   0.170   0.801   7.566  0.0234  0.2586 -0.3948
 2662Sol     HW13674   0.229   0.858   7.516  0.7258 -0.6804 -0.6425
 2662Sol     HW13675   0.211   0.794   7.652 -0.0558  0.1199 -0.3680
 2662Sol     MW13676   0.179   0.806   7.569  0.3164  0.2184 -0.1351
 2663Sol     OW13677   0.414   2.175   1.996 -0.0128  0.0072  0.8483
 2663Sol     HW13678   0.360   2.254   2.003 -0.0116  0.1760 -0.7870
 2663Sol     HW13679   0.395   2.141   1.908  1.2826 -0.8674  0.8962
 2663Sol     MW13680   0.407   2.179   1.989  0.0276 -0.5661 -0.5316
 2664Sol     OW13681   0.924   2.482   8.867  0.5540 -0.4258 -0.0672
 2664Sol     HW13682   0.903   2.478   8.774  1.3861  0.1775 -0.2863
 2664Sol     HW13683   0.858   2.540   8.904  0.7214  0.0049 -0.4337
 2664Sol     MW13684   0.917   2.487   8.862  0.0173 -0.4327 -0.5603
 2665Sol     OW13685   0.742   2.209   6.393 -0.2897 -0.0097  0.2211
 2665Sol     HW13686   0.654   2.191   6.359  0.2502 -0.5088 -0.9616
 2665Sol     HW13687   0.728   2.269   6.466 -1.5858  0.2871 -0.2523
 2665Sol     MW13688   0.733   2.213   6.396  0.8092 -0.6554  0.4942
 2666Sol     OW13689   1.269   2.952   5.230 -0.2394  0.4074 -0.1624
 2666Sol     HW13690   1.175   2.967   5.228 -0.3879 -0.5596 -1.1387
 2666Sol     HW13691   1.297   2.955   5.139  0.8997  1.9624  0.2190
 2666Sol     MW13692   1.263   2.953   5.222 -1.0432  0.1114  0.1346
 2667Sol     OW13693   1.643   2.595   5.369  0.0256 -0.2945  0.2930
 2667Sol     HW13694   1.553   2.621   5.350  0.1017  0.2237  0.6525
 2667Sol     HW13695   1.680   2.668   5.419  0.2580 -1.0330  1.2262
 2667Sol     MW13696   1.638   2.604   5.372  0.2415  0.0619 -0.1023
 2668Sol     OW13697   0.898   0.467   1.823 -0.0302 -0.0450  0.9848
 2668Sol     HW13698   0.936   0.539   1.873  0.2366  1.3643 -1.1941
 2668Sol     HW13699   0.803   0.477   1.836 -0.1802  2.4499 -1.5453
 2668Sol     MW13700   0.893   0.474   1.829 -0.4212  0.3190 -0.1044
 2669Sol     OW13701   0.699   2.633   3.861  0.8237 -0.1913 -0.0580
 2669Sol     HW13702   0.678   2.587   3.779 -2.6784  1.3653 -0.1010
 2669Sol     HW13703   0.693   2.566   3.929  0.4534 -0.7943 -0.6810
 2669Sol     MW13704   0.697   2.623   3.859 -0.2572  0.8370  0.8842
 2670Sol     OW13705   3.242   0.650   9.996 -0.0303  0.1076 -0.2047
 2670Sol     HW13706   3.181   0.724   9.993 -2.4378 -1.6158  3.1136
 2670Sol     HW13707   3.284   0.657  10.082  1.0111 -1.3551 -0.5760
 2670Sol     MW13708   3.240   0.657  10.004  0.1514 -0.2964  0.1500
 2671Sol     OW13709   2.067   1.108   7.774  0.1201 -0.1273 -0.2393
 2671Sol     HW13710   2.112   1.172   7.830 -0.7522 -0.2884  0.6637
 2671Sol     HW13711   1.978   1.141   7.767 -0.6839 -1.8662  1.2663
 2671Sol     MW13712   2.063   1.116   7.779 -0.0248  0.3434 -0.6188
 2672Sol     OW13713   2.689   0.861   5.055  0.1291 -0.6544  0.3950
 2672Sol     HW13714   2.776   0.843   5.019 -0.5843 -2.1443 -0.6157
 2672Sol     HW13715   2.630   0.853   4.981 -0.9395 -0.0711  1.1679
 2672Sol     MW13716   2.692   0.859   5.045  0.2985 -0.5131  0.0942
 2673Sol     OW13717   0.283   1.492   2.183  0.0985 -0.2005  0.2530
 2673Sol     HW13718   0.328   1.529   2.259 -0.2460  0.4086  0.1609
 2673Sol     HW13719   0.305   1.398   2.186  2.7695  0.3417 -0.7688
 2673Sol     MW13720   0.289   1.487   2.190  1.1050  0.2833  0.1047
 2674Sol     OW13721   1.143   3.009   7.658 -0.3413  0.1106  0.1244
 2674Sol     HW13722   1.159   2.915   7.664 -1.1280 -0.0483 -0.2903
 2674Sol     HW13723   1.075   3.018   7.593  1.4063  1.1541 -1.6181
 2674Sol     MW13724   1.139   3.001   7.653 -0.1075 -0.3915 -0.1847
 2675Sol     OW13725   1.491   2.566   2.096 -0.3961 -0.0885 -0.3761
 2675Sol     HW13726   1.434   2.585   2.171  0.1668 -0.9070  0.2694
 2675Sol     HW13727   1.475   2.474   2.076  2.3363 -0.9789  1.2607
 2675Sol     MW13728   1.485   2.560   2.101  0.1327  0.4737 -0.2041
 2676Sol     OW13729   2.041   1.201   8.128 -0.2592 -0.4085  0.0834
 2676Sol     HW13730   2.126   1.204   8.084 -0.2429  0.2074  0.1652
 2676Sol     HW13731   2.020   1.292   8.148 -0.7250 -0.5990  0.4782
 2676Sol     MW13732   2.047   1.209   8.125 -0.4042  0.0505 -0.0501
 2677Sol     OW13733   0.616   3.338   6.806  0.3332  0.7366  0.0415
 2677Sol     HW13734   0.580   3.305   6.889 -0.4338  2.5339  0.4377
 2677Sol     HW13735   0.593   3.270   6.742  0.0115 -0.1750  1.1001
 2677Sol     MW13736   0.610   3.329   6.808 -0.0052 -0.1372  0.5036
 2678Sol     OW13737   2.531   1.613   3.131  0.1519  0.8074  0.4916
 2678Sol     HW13738   2.562   1.585   3.217 -1.3129 -1.2600  0.3860
 2678Sol     HW13739   2.446   1.653   3.148  0.7772  2.2858  0.2314
 2678Sol     MW13740   2.526   1.614   3.140  0.2458  0.2723 -1.1488
 2679Sol     OW13741   2.001   2.266   7.142 -0.3453 -0.9178 -0.2403
 2679Sol     HW13742   1.917   2.296   7.176 -1.5507 -3.4762 -0.8483
 2679Sol     HW13743   2.023   2.329   7.073 -1.1543  0.4395  0.7184
 2679Sol     MW13744   1.995   2.274   7.139 -0.2803 -0.2786 -0.2145
 2680Sol     OW13745   1.035   2.959   1.891 -0.0811 -0.4302  0.0926
 2680Sol     HW13746   1.065   3.037   1.845 -0.4056 -0.1343  0.3732
 2680Sol     HW13747   0.955   2.988   1.936  0.6480 -0.5092  1.4512
 2680Sol     MW13748   1.030   2.969   1.891 -0.1241 -0.4767  0.4358
 2681Sol     OW13749   3.209   0.845   6.773  0.0470 -0.1847  0.2524
 2681Sol     HW13750   3.267   0.798   6.833 -1.1706 -0.2112  1.4156
 2681Sol     HW13751   3.221   0.800   6.689  0.5339 -1.1864  0.8412
 2681Sol     MW13752   3.216   0.837   6.770 -0.0673  0.7125  0.2447
 2682Sol     OW13753   1.396   1.199   1.893 -0.1263 -0.7307  0.1279
 2682Sol     HW13754   1.443   1.130   1.847  0.1008 -0.1969 -0.4485
 2682Sol     HW13755   1.446   1.279   1.874  0.6198 -0.6838  2.2274
 2682Sol     MW13756   1.404   1.200   1.887  0.3373 -0.1651 -0.3638
 2683Sol     OW13757   0.721   1.926   5.722  0.2434  0.5561  0.6807
 2683Sol     HW13758   0.668   1.964   5.652 -0.0691 -0.4793  0.3401
 2683Sol     HW13759   0.675   1.951   5.803  0.3624  1.3752  0.5033
 2683Sol     MW13760   0.712   1.932   5.723 -0.2490  0.3825  0.7938
 2684Sol     OW13761   1.987   3.268   5.359  0.0326 -0.1264 -0.4867
 2684Sol     HW13762   2.043   3.263   5.436 -0.8603 -1.3411  0.0862
 2684Sol     HW13763   1.994   3.182   5.318 -1.8844 -0.4837 -0.0816
 2684Sol     MW13764   1.993   3.260   5.362 -0.0670  0.1647  0.5337
 2685Sol     OW13765   2.081   1.380   8.758  0.1978 -0.0134 -0.1061
 2685Sol     HW13766   2.101   1.317   8.689  1.8982  0.3595  0.0288
 2685Sol     HW13767   1.996   1.352   8.793  0.7317 -1.9303 -0.3410
 2685Sol     MW13768   2.075   1.372   8.755  0.0906  0.4874  0.4407
 2686Sol     OW13769   0.548   2.779   3.509 -0.4256  0.0335  0.0532
 2686Sol     HW13770   0.457   2.750   3.504 -0.9334  1.6646 -0.4838
 2686Sol     HW13771   0.543   2.866   3.549  1.0669 -0.6354  1.7378
 2686Sol     MW13772   0.540   2.784   3.512  0.0360  0.3698 -0.0194
 2687Sol     OW13773   0.828   0.474   5.647  0.1034  0.0495  0.2145
 2687Sol     HW13774   0.918   0.483   5.680 -0.1079  0.4793  0.6640
 2687Sol     HW13775   0.791   0.562   5.653  0.0468  0.1320 -1.1307
 2687Sol     MW13776   0.833   0.483   5.650  0.4984  0.4095  0.1879
 2688Sol     OW13777   0.066   1.905   9.053 -0.1115  0.3324  0.3901
 2688Sol     HW13778   0.034   1.863   8.973 -0.1698 -2.4980  1.8504
 2688Sol     HW13779  -0.003   1.891   9.117  0.3684  1.6992  1.2200
 2688Sol     MW13780   0.057   1.900   9.051 -0.4128  0.3748 -0.4999
 2689Sol     OW13781   1.412   0.428   3.461  0.3149 -0.5301 -0.4029
 2689Sol     HW13782   1.386   0.376   3.536  0.1911 -0.9783 -0.7517
 2689Sol     HW13783   1.506   0.411   3.450  0.2001 -0.9503 -0.7283
 2689Sol     MW13784   1.418   0.422   3.466  0.2628 -0.3914  0.3245
 2690Sol     OW13785   1.594   1.910   3.477 -0.0319  0.0554  0.4169
 2690Sol     HW13786   1.535   1.888   3.406  1.5291 -0.9177 -0.6240
 2690Sol     HW13787   1.551   1.876   3.556 -1.6184  0.8661 -0.0934
 2690Sol     MW13788   1.585   1.905   3.478 -0.4562 -0.7353  0.7787
 2691Sol     OW13789   2.975   0.376   3.061 -0.0650  0.4056  0.0966
 2691Sol     HW13790   2.975   0.375   3.156  2.6653 -3.5746  0.1465
 2691Sol     HW13791   3.052   0.429   3.037  1.0478 -1.1585  0.1663
 2691Sol     MW13792   2.982   0.381   3.067 -0.3679 -0.1367  0.4729
 2692Sol     OW13793   1.444   1.573   5.720  0.1623 -0.5978  0.0271
 2692Sol     HW13794   1.518   1.515   5.736 -1.0486 -1.7098  1.7573
 2692Sol     HW13795   1.388   1.525   5.660  0.7471  0.1786 -1.1579
 2692Sol     MW13796   1.446   1.564   5.716 -0.1751  0.5369 -0.0552
 2693Sol     OW13797   1.900   0.863   2.797  0.2583 -0.1593  0.6086
 2693Sol     HW13798   1.867   0.781   2.761 -2.9256  0.6277  1.5421
 2693Sol     HW13799   1.831   0.892   2.856  1.7930  2.6675  1.0872
 2693Sol     MW13800   1.891   0.858   2.799 -0.5232  0.1778 -0.0814
 2694Sol     OW13801   3.039   1.628   3.397 -0.3462 -0.2742  0.5259
 2694Sol     HW13802   3.054   1.719   3.372  2.1547 -0.3935  1.3974
 2694Sol     HW13803   3.004   1.587   3.318  3.4428  0.3197 -1.6049
 2694Sol     MW13804   3.038   1.632   3.387  0.1786  0.0436 -0.4863
 2695Sol     OW13805   0.665   2.106   2.027 -0.3158 -0.0718  0.6799
 2695Sol     HW13806   0.702   2.162   2.095  0.3845  0.2972  0.0074
 2695Sol     HW13807   0.575   2.137   2.018  0.7631  2.6956 -1.4296
 2695Sol     MW13808   0.660   2.114   2.032  0.2908 -0.0225 -0.1196
 2696Sol     OW13809   3.231   1.546   8.085 -0.2312  0.5385  0.1316
 2696Sol     HW13810   3.243   1.640   8.077  0.8624  0.3128 -1.0390
 2696Sol     HW13811   3.313   1.508   8.055 -0.7803 -0.8004  0.2675
 2696Sol     MW13812   3.239   1.551   8.081  0.4425  0.1769  0.9193
 2697Sol     OW13813   0.302   0.526   4.875 -0.0942  0.2204 -0.5125
 2697Sol     HW13814   0.212   0.510   4.905 -0.2515 -1.7330 -1.9504
 2697Sol     HW13815   0.355   0.520   4.954 -1.0821  0.2571  0.1737
 2697Sol     MW13816   0.298   0.524   4.885  0.3055  0.2343  0.0902
 2698Sol     OW13817   0.500   0.939   7.840  0.1219 -0.3819 -0.4747
 2698Sol     HW13818   0.435   0.872   7.817 -1.2610  0.7528  0.1338
 2698Sol     HW13819   0.512   0.929   7.934  0.1517  0.0154 -0.4378
 2698Sol     MW13820   0.495   0.932   7.846 -0.4889  0.9641  0.7086
 2699Sol     OW13821   0.234   1.095   7.889 -0.5226 -0.1401 -0.1728
 2699Sol     HW13822   0.318   1.052   7.872  0.0060  0.6857  0.2926
 2699Sol     HW13823   0.215   1.076   7.981 -1.6127 -1.6123 -0.6891
 2699Sol     MW13824   0.240   1.090   7.896  0.2404  0.0525  0.6950
 2700Sol     OW13825   0.170   1.830   6.740 -0.3423  0.4350 -0.1158
 2700Sol     HW13826   0.219   1.911   6.755  0.2072  0.2247 -0.7615
 2700Sol     HW13827   0.206   1.795   6.658  0.6388 -1.3794  1.0833
 2700Sol     MW13828   0.177   1.834   6.734  0.4633 -0.4736 -0.5969
 2701Sol     OW13829   2.315   0.920   7.607 -0.6318  0.1038  0.2475
 2701Sol     HW13830   2.351   0.951   7.524  0.6673 -0.9857  0.3923
 2701Sol     HW13831   2.220   0.922   7.594 -0.4966  1.6789 -0.6132
 2701Sol     MW13832   2.310   0.923   7.599  0.7904 -0.1896 -0.1520
 2702Sol     OW13833   2.386   2.007   7.323  0.3268 -0.3128 -0.1401
 2702Sol     HW13834   2.308   1.977   7.371  0.8052 -2.6823 -0.7753
 2702Sol     HW13835   2.354   2.080   7.269 -1.4664 -1.2449 -0.3952
 2702Sol     MW13836   2.376   2.011   7.323  0.3927  0.1317  0.4457
 2703Sol     OW13837   0.351   1.864   9.130  0.7483 -0.5234 -0.5788
 2703Sol     HW13838   0.337   1.769   9.134 -1.3336 -0.2032  0.9058
 2703Sol     HW13839   0.271   1.899   9.091  1.5488  0.6123 -1.2354
 2703Sol     MW13840   0.343   1.859   9.127  0.2682  0.5851  0.8598
 2704Sol     OW13841   2.728   0.925   6.083  0.3509 -0.1374  0.2759
 2704Sol     HW13842   2.745   0.964   6.168  2.9939  0.2846 -0.4142
 2704Sol     HW13843   2.769   0.838   6.087  0.9079  0.0667 -0.7049
 2704Sol     MW13844   2.733   0.921   6.091 -1.1503 -0.2836 -0.6242
 2705Sol     OW13845   2.331   1.445   3.364 -0.3876 -0.1282  0.1917
 2705Sol     HW13846   2.395   1.424   3.433  0.9348  0.1667 -0.9082
 2705Sol     HW13847   2.298   1.360   3.335 -2.2029 -0.1797  2.3108
 2705Sol     MW13848   2.334   1.435   3.367  0.2457 -0.6299 -0.3913
 2706Sol     OW13849   3.094   3.198   2.156  0.1408 -0.8317 -0.4679
 2706Sol     HW13850   3.016   3.206   2.210  1.3222 -1.9098  1.4583
 2706Sol     HW13851   3.097   3.279   2.106 -0.7371  0.4293  1.4686
 2706Sol     MW13852   3.088   3.206   2.157  0.5302 -0.1673  0.2339
 2707Sol     OW13853   2.342   1.891   8.108 -0.2270  0.7638  0.2420
 2707Sol     HW13854   2.410   1.825   8.092 -1.2603 -0.4637  0.8004
 2707Sol     HW13855   2.262   1.851   8.074 -0.8804  1.7129  0.6640
 2707Sol     MW13856   2.341   1.882   8.103 -0.4712  0.6619 -0.6990
 2708Sol     OW13857   0.792   2.796   7.148  0.3713 -0.2518 -0.4958
 2708Sol     HW13858   0.840   2.872   7.115 -0.9304  0.7107 -0.2163
 2708Sol     HW13859   0.740   2.767   7.073 -0.0944 -0.0901 -0.2354
 2708Sol     MW13860   0.792   2.800   7.138  0.0889 -1.0852 -0.0033
 2709Sol     OW13861   3.283   1.433   2.558  0.3232 -0.6983  0.1151
 2709Sol     HW13862   3.255   1.426   2.649  0.3040 -1.4795  0.0489
 2709Sol     HW13863   3.355   1.371   2.550  1.0732  0.1813 -0.1154
 2709Sol     MW13864   3.287   1.427   2.565 -0.0505  0.0612 -0.2870
 2710Sol     OW13865   0.655   2.953   4.288 -0.8418 -0.7202 -0.0760
 2710Sol     HW13866   0.718   2.887   4.258 -1.4726 -1.3272 -0.0912
 2710Sol     HW13867   0.590   2.956   4.218 -0.0835  0.9319 -0.7222
 2710Sol     MW13868   0.655   2.947   4.279 -0.1950 -0.3727  0.3922
 2711Sol     OW13869   2.472   1.966   9.656 -0.0323 -0.3458  0.2635
 2711Sol     HW13870   2.564   1.938   9.651 -0.3673 -1.4007 -0.2320
 2711Sol     HW13871   2.465   2.034   9.589  0.3072 -0.5182  0.0476
 2711Sol     MW13872   2.480   1.969   9.649  0.2714 -0.3407  0.1948
 2712Sol     OW13873   2.405   2.986   3.048  0.2730  0.0601 -0.1086
 2712Sol     HW13874   2.403   2.989   2.953 -1.7158  0.3158 -0.0752
 2712Sol     HW13875   2.317   3.012   3.075  0.8146 -0.0006  1.7968
 2712Sol     MW13876   2.397   2.988   3.042  0.1222 -0.0665  0.5842
 2713Sol     OW13877   3.262   0.108   5.159 -0.5755  0.1049 -0.3932
 2713Sol     HW13878   3.272   0.177   5.225  0.3313  1.0060 -1.4457
 2713Sol     HW13879   3.344   0.059   5.162 -1.3717 -1.2004  0.6263
 2713Sol     MW13880   3.270   0.110   5.165  0.2245 -0.1216  0.2629
 2714Sol     OW13881   1.064   2.986   2.616  0.2585 -0.1166  0.1975
 2714Sol     HW13882   1.017   2.903   2.613 -0.8433  0.3821  2.8138
 2714Sol     HW13883   1.157   2.962   2.619  0.0158 -1.1929 -0.6583
 2714Sol     MW13884   1.068   2.976   2.616  0.2116 -0.3372 -0.0167
 2715Sol     OW13885   1.874   2.316   1.880 -0.1422 -0.2470 -0.4513
 2715Sol     HW13886   1.834   2.256   1.943  0.6130 -0.2789  0.0124
 2715Sol     HW13887   1.967   2.291   1.880  0.6260  2.3674  1.4561
 2715Sol     MW13888   1.879   2.308   1.886 -0.4038  0.3796  0.3855
 2716Sol     OW13889   0.904   2.158   7.486 -0.0945 -0.1276  0.6575
 2716Sol     HW13890   0.959   2.162   7.407 -2.8326 -1.6835 -1.4238
 2716Sol     HW13891   0.815   2.164   7.453 -1.3082 -0.7125  3.6874
 2716Sol     MW13892   0.901   2.159   7.476  0.2205  0.1724 -0.5453
 2717Sol     OW13893   0.263   2.960   7.561  0.6526  0.4185  0.1978
 2717Sol     HW13894   0.238   3.045   7.596 -0.4053  0.3821 -0.4339
 2717Sol     HW13895   0.346   2.975   7.518 -0.4664  1.5979 -1.6100
 2717Sol     MW13896   0.268   2.969   7.560 -0.1649 -0.1970 -0.2406
 2718Sol     OW13897   1.044   0.250   8.747  0.4903 -0.0549  0.0771
 2718Sol     HW13898   1.096   0.172   8.767  0.3060 -0.4039 -0.7651
 2718Sol     HW13899   1.083   0.320   8.799  0.5786 -0.7388  0.9373
 2718Sol     MW13900   1.052   0.249   8.754  0.1095  0.0163  0.4507
 2719Sol     OW13901   3.124   0.382   8.592 -0.5360 -0.3925  0.0374
 2719Sol     HW13902   3.197   0.322   8.580 -0.0781 -0.0058  0.8568
 2719Sol     HW13903   3.047   0.324   8.599  0.0220 -0.9528  1.7989
 2719Sol     MW13904   3.123   0.371   8.592 -0.1099 -0.3839  0.3040
 2720Sol     OW13905   1.784   2.602   6.319  0.0012  0.0244 -0.6539
 2720Sol     HW13906   1.707   2.548   6.339 -0.6636 -0.3904 -4.0626
 2720Sol     HW13907   1.857   2.555   6.359 -1.2067 -0.7373  0.7306
 2720Sol     MW13908   1.784   2.593   6.325  0.4512  0.5269  0.4941
 2721Sol     OW13909   2.402   3.213   4.633  0.3764  0.0548  0.2168
 2721Sol     HW13910   2.480   3.177   4.674 -0.1400 -0.8537  0.4190
 2721Sol     HW13911   2.405   3.181   4.543  0.5619  0.5273  0.0579
 2721Sol     MW13912   2.409   3.207   4.629 -0.0713 -0.4627 -0.5545
 2722Sol     OW13913   2.080   1.054   5.689 -0.1411 -0.1301 -0.6957
 2722Sol     HW13914   2.084   1.150   5.689 -0.2932 -0.1203 -1.4102
 2722Sol     HW13915   2.163   1.026   5.728 -0.8027  0.3141  1.0910
 2722Sol     MW13916   2.087   1.060   5.692 -0.5981 -0.1864  0.2130
 2723Sol     OW13917   0.590   2.693   4.416 -0.1185 -0.1853  0.4574
 2723Sol     HW13918   0.498   2.718   4.429 -0.2196 -0.5560  0.4512
 2723Sol     HW13919   0.634   2.776   4.396 -0.5228 -0.0595  0.0605
 2723Sol     MW13920   0.586   2.703   4.415  0.0311  0.3669 -0.0584
 2724Sol     OW13921   2.698   2.846   5.372  0.8591 -0.2760  0.3075
 2724Sol     HW13922   2.755   2.909   5.329  1.0406 -0.6679 -0.0371
 2724Sol     HW13923   2.751   2.809   5.443  1.7128 -2.0048 -1.1717
 2724Sol     MW13924   2.708   2.848   5.374 -0.4886 -0.5895 -0.1791
 2725Sol     OW13925   2.389   2.117   2.825  0.1850 -0.2412 -0.5502
 2725Sol     HW13926   2.428   2.095   2.741 -0.8830  2.2854 -1.7902
 2725Sol     HW13927   2.403   2.212   2.834  0.1468 -0.4309  2.0587
 2725Sol     MW13928   2.394   2.124   2.819 -0.3494  0.1192  0.0377
 2726Sol     OW13929   3.160   1.177   3.446 -0.2682 -0.3967  0.4218
 2726Sol     HW13930   3.249   1.211   3.451  0.5229 -1.9745 -2.2191
 2726Sol     HW13931   3.137   1.182   3.353 -3.0174  0.1292  1.0712
 2726Sol     MW13932   3.166   1.181   3.438 -0.4928 -0.2586  0.0856
 2727Sol     OW13933   0.796   1.688   3.572 -0.3742  0.1989 -0.1592
 2727Sol     HW13934   0.763   1.611   3.619 -1.0768 -0.2045 -1.2668
 2727Sol     HW13935   0.764   1.763   3.623 -0.9092 -0.2287  0.1402
 2727Sol     MW13936   0.790   1.688   3.581  0.0621 -0.6624  0.0641
 2728Sol     OW13937   2.312   0.272   9.944  0.4490  0.3555 -0.1799
 2728Sol     HW13938   2.378   0.284  10.013 -0.8644 -0.5924  1.2724
 2728Sol     HW13939   2.278   0.184   9.958 -1.7374  1.1274 -0.3544
 2728Sol     MW13940   2.315   0.265   9.951  0.0129 -0.4309 -0.1080
 2729Sol     OW13941   1.497   1.468   4.867 -0.1702  0.2662 -0.8470
 2729Sol     HW13942   1.573   1.414   4.891 -0.8973 -0.7828 -0.8992
 2729Sol     HW13943   1.498   1.470   4.772 -0.1025  0.4265 -0.8452
 2729Sol     MW13944   1.504   1.464   4.861 -0.0230  0.4911 -0.6680
 2730Sol     OW13945   1.896   2.274   4.946  0.3484  0.1124  0.3607
 2730Sol     HW13946   1.859   2.187   4.958  0.7232  0.0775  1.3644
 2730Sol     HW13947   1.835   2.333   4.990  0.2754  0.3194 -0.0143
 2730Sol     MW13948   1.887   2.271   4.951 -0.1580 -0.4798 -0.1191
 2731Sol     OW13949   1.783   0.729   5.465  0.2935 -0.0247 -0.5669
 2731Sol     HW13950   1.697   0.741   5.507 -1.4158 -0.1203 -3.8991
 2731Sol     HW13951   1.816   0.817   5.451 -0.4654  0.0983 -1.6285
 2731Sol     MW13952   1.778   0.738   5.468  0.1990 -0.0607  0.5233
 2732Sol     OW13953   0.623   1.630   4.010  0.2233 -0.7431  0.6666
 2732Sol     HW13954   0.549   1.603   3.956  0.5746 -1.3455  0.4813
 2732Sol     HW13955   0.669   1.549   4.031 -0.2677 -0.5893  2.4112
 2732Sol     MW13956   0.621   1.621   4.007 -0.6297 -0.1888  0.1020
 2733Sol     OW13957   0.814   1.665   7.212  0.2958 -0.2963 -0.5118
 2733Sol     HW13958   0.733   1.630   7.176 -0.6218  0.1323  1.0887
 2733Sol     HW13959   0.787   1.743   7.261  1.6132 -0.3836  0.3701
 2733Sol     MW13960   0.804   1.669   7.213  0.1356  0.3529  0.6756
 2734Sol     OW13961   1.748   0.557   7.610  0.4736 -0.0241 -0.0355
 2734Sol     HW13962   1.677   0.496   7.588  0.6913  0.5032 -2.3411
 2734Sol     HW13963   1.756   0.613   7.533  1.0707  2.1823  1.5907
 2734Sol     MW13964   1.742   0.557   7.601 -0.6598 -0.1495  0.3891
 2735Sol     OW13965   1.984   3.214   5.941 -0.3720  0.0965 -0.4268
 2735Sol     HW13966   1.998   3.221   5.847 -0.5275 -1.5087 -0.5730
 2735Sol     HW13967   1.922   3.284   5.961 -0.4064  0.3895 -1.5180
 2735Sol     MW13968   1.980   3.221   5.934 -0.3122  0.6667 -0.0298
 2736Sol     OW13969   1.384   1.099   5.429  0.1715 -0.1221 -0.2004
 2736Sol     HW13970   1.478   1.112   5.438 -0.0109  0.4436  1.0183
 2736Sol     HW13971   1.375   1.034   5.359  1.4212  0.5426 -0.9889
 2736Sol     MW13972   1.391   1.094   5.423  0.3678  0.0882  0.8789
 2737Sol     OW13973   1.624   1.645   9.953  0.4749  0.9939 -0.4810
 2737Sol     HW13974   1.569   1.569   9.969  1.5509  0.0995 -0.9213
 2737Sol     HW13975   1.563   1.716   9.934 -0.5382  0.2551 -0.0109
 2737Sol     MW13976   1.614   1.645   9.953  0.3237 -0.6329 -0.1126
 2738Sol     OW13977   0.672   3.027   9.346  0.2268 -0.4842  0.1517
 2738Sol     HW13978   0.704   3.116   9.364 -1.7593  0.0823  1.0721
 2738Sol     HW13979   0.700   2.976   9.421 -0.1535 -0.2256  0.4717
 2738Sol     MW13980   0.677   3.031   9.354  0.2126  0.2629  0.0538
 2739Sol     OW13981   2.839   3.050   4.281 -0.4107  0.1557  0.2163
 2739Sol     HW13982   2.772   3.118   4.292 -0.3043  0.4159 -0.6927
 2739Sol     HW13983   2.840   3.033   4.187  0.5049 -0.1530  0.2809
 2739Sol     MW13984   2.833   3.055   4.273  0.1564 -0.0496  0.0545
 2740Sol     OW13985   1.079   1.146   7.240  0.5091 -0.4350 -0.2769
 2740Sol     HW13986   1.052   1.237   7.247  0.9060 -0.2081 -1.4773
 2740Sol     HW13987   1.015   1.107   7.179  2.1671 -0.1708 -2.2428
 2740Sol     MW13988   1.071   1.150   7.235 -0.5402  0.3780 -0.2607
 2741Sol     OW13989   1.206   0.195   5.211  0.6141  0.2859 -0.8394
 2741Sol     HW13990   1.255   0.240   5.143 -0.3347  1.4676 -0.7485
 2741Sol     HW13991   1.114   0.213   5.191  0.3241  0.9327  0.9295
 2741Sol     MW13992   1.202   0.200   5.203  0.1085  0.3176  0.1211
 2742Sol     OW13993   2.801   0.392   3.808  0.2952  0.5588 -0.3921
 2742Sol     HW13994   2.860   0.417   3.737 -1.2012 -0.6408 -2.1099
 2742Sol     HW13995   2.838   0.312   3.844  0.5857  0.6980 -0.3801
 2742Sol     MW13996   2.809   0.387   3.805 -0.5657  0.3786 -0.3453
 2743Sol     OW13997   2.303   3.399   5.094  0.4437  0.0944 -0.2870
 2743Sol     HW13998   2.340   3.347   5.166 -0.2898 -0.6306 -0.4202
 2743Sol     HW13999   2.380   3.433   5.047  0.9298  0.0085  0.4318
 2743Sol     MW14000   2.314   3.397   5.096 -0.5416  0.0717 -0.4926
 2744Sol     OW14001   0.814   0.155   7.231  0.0351 -0.0749 -0.1522
 2744Sol     HW14002   0.822   0.094   7.158 -0.8344 -1.4992  0.9302
 2744Sol     HW14003   0.790   0.238   7.190 -0.5903 -0.9033 -1.4756
 2744Sol     MW14004   0.813   0.157   7.221 -0.4553  0.1612  0.3332
 2745Sol     OW14005   2.238   3.299   6.007  0.2197  0.5236  0.3320
 2745Sol     HW14006   2.227   3.391   6.027 -0.5526  0.4537  0.2536
 2745Sol     HW14007   2.150   3.268   5.987  0.4342 -0.2878  0.6087
 2745Sol     MW14008   2.229   3.304   6.007 -0.1598  0.0032 -0.3553
 2746Sol     OW14009   2.571   1.328   8.430 -0.2479  0.3537  0.3655
 2746Sol     HW14010   2.515   1.316   8.507 -0.0756 -1.3620  0.2583
 2746Sol     HW14011   2.660   1.329   8.465 -0.1908 -0.0267  0.2366
 2746Sol     MW14012   2.574   1.327   8.440 -0.3083  0.0284  0.6016
 2747Sol     OW14013   0.847   1.000   5.085 -0.0501 -0.0414  0.2699
 2747Sol     HW14014   0.864   1.056   5.010 -0.8234 -0.7322 -0.4380
 2747Sol     HW14015   0.815   0.918   5.047 -0.4549 -0.4007  1.3525
 2747Sol     MW14016   0.846   0.997   5.075 -0.5718 -0.0195  0.6781
 2748Sol     OW14017   0.260   0.978   4.586  0.1434 -0.0162  0.3807
 2748Sol     HW14018   0.343   0.937   4.613 -1.5824 -1.3804  3.8343
 2748Sol     HW14019   0.216   0.999   4.668 -2.2539  2.1754 -1.4107
 2748Sol     MW14020   0.264   0.976   4.595 -0.1842 -0.0800 -0.3133
 2749Sol     OW14021   1.002   3.050   6.599 -0.2361 -0.6331  0.3342
 2749Sol     HW14022   0.932   3.006   6.646  0.6764  0.5671  2.9782
 2749Sol     HW14023   0.958   3.111   6.540 -1.4725  0.5402  2.3973
 2749Sol     MW14024   0.992   3.052   6.598 -0.4869  0.4551  0.3675
 2750Sol     OW14025   0.813   3.199   4.111  0.0906  0.5026  0.4914
 2750Sol     HW14026   0.750   3.266   4.084 -0.4220  0.2538  1.0617
 2750Sol     HW14027   0.803   3.194   4.206 -2.0733 -2.5515  0.1893
 2750Sol     MW14028   0.806   3.205   4.117  0.5093  0.2112  0.1932
 2751Sol     OW14029   0.771   2.008   4.338 -0.0333  0.3720  0.3109
 2751Sol     HW14030   0.855   2.006   4.383 -0.5565 -0.7860  1.2541
 2751Sol     HW14031   0.774   1.935   4.276 -1.2334 -1.2008  2.0325
 2751Sol     MW14032   0.779   2.002   4.337 -0.2581  0.1518 -0.6800
 2752Sol     OW14033   0.715   3.035   2.853 -0.3674  0.1429  0.1632
 2752Sol     HW14034   0.794   3.009   2.900  0.5880  0.0662 -1.4481
 2752Sol     HW14035   0.742   3.109   2.799 -1.3983  0.1194 -0.3965
 2752Sol     MW14036   0.725   3.039   2.853  0.0390 -0.2601 -0.4932
 2753Sol     OW14037   0.372   2.826   6.746  0.2324 -0.3788  0.4514
 2753Sol     HW14038   0.347   2.884   6.673  0.6024  1.2240  1.5645
 2753Sol     HW14039   0.341   2.740   6.719 -3.2037  0.8629  0.1576
 2753Sol     MW14040   0.367   2.824   6.737 -0.0171  0.6503  0.1311
 2754Sol     OW14041   2.266   1.865   8.366 -0.4603 -0.3507  0.1623
 2754Sol     HW14042   2.295   1.881   8.276  0.3476 -1.1016  0.2834
 2754Sol     HW14043   2.200   1.933   8.383  0.0397  0.3464 -0.6864
 2754Sol     MW14044   2.263   1.872   8.360 -0.3760 -0.6612  0.3762
 2755Sol     OW14045   2.925   1.664   3.834  0.3967 -0.4974 -0.1910
 2755Sol     HW14046   2.871   1.732   3.794  1.2616  0.6051  0.4839
 2755Sol     HW14047   2.951   1.608   3.761 -0.3639 -0.1355 -0.7432
 2755Sol     MW14048   2.922   1.665   3.824  0.0094 -0.1542 -0.6182
 2756Sol     OW14049   1.977   1.021   5.012  0.1308  0.6129  0.3431
 2756Sol     HW14050   2.019   1.002   5.096 -0.0068 -2.8128 -0.2918
 2756Sol     HW14051   1.887   0.990   5.023  1.0897 -3.5057 -2.1960
 2756Sol     MW14052   1.973   1.016   5.020  0.2813 -0.2387  0.0001
 2757Sol     OW14053   1.214   2.672   6.528  0.4653 -0.0578  0.7941
 2757Sol     HW14054   1.267   2.702   6.453  0.3169 -0.1961  0.6335
 2757Sol     HW14055   1.279   2.642   6.592  0.5216 -2.7936 -0.4888
 2757Sol     MW14056   1.225   2.672   6.527  0.3782  0.6356 -0.4595
 2758Sol     OW14057   2.509   1.043   3.402  0.5818 -0.3666  0.4316
 2758Sol     HW14058   2.590   0.992   3.405  1.0000  0.2315 -0.4528
 2758Sol     HW14059   2.506   1.087   3.487  1.1561 -0.4452  0.4976
 2758Sol     MW14060   2.516   1.043   3.410 -0.8193 -0.1243 -0.4577
 2759Sol     OW14061   1.407   1.280   1.507  0.2150  0.4649  0.3209
 2759Sol     HW14062   1.463   1.355   1.489  1.7942 -0.9880 -0.9110
 2759Sol     HW14063   1.435   1.249   1.593  1.5100 -0.4420 -0.4253
 2759Sol     MW14064   1.414   1.284   1.513 -0.2213 -0.3309  0.3685
 2760Sol     OW14065   2.844   1.637   9.042 -0.1653  0.2955  0.4000
 2760Sol     HW14066   2.807   1.714   8.999 -0.8329 -0.1008  0.2514
 2760Sol     HW14067   2.861   1.665   9.132  0.3923  0.8618  0.1218
 2760Sol     MW14068   2.842   1.646   9.046  0.0278  0.0663 -0.1262
 2761Sol     OW14069   2.193   3.169   4.199  0.0991 -0.2712 -0.0636
 2761Sol     HW14070   2.115   3.114   4.190 -0.6604  0.8572 -0.4180
 2761Sol     HW14071   2.253   3.136   4.132 -0.3277 -0.7004 -0.2395
 2761Sol     MW14072   2.191   3.161   4.193 -0.0983  0.5474 -0.2122
 2762Sol     OW14073   1.322   1.107   9.495 -0.0553  0.4465  0.7474
 2762Sol     HW14074   1.414   1.099   9.471 -0.1452  2.5998 -0.4552
 2762Sol     HW14075   1.325   1.140   9.585  0.3937  1.8469  0.2420
 2762Sol     MW14076   1.331   1.109   9.501  0.4077  0.6817  0.0366
 2763Sol     OW14077   1.815   0.440   3.216 -0.6085  0.1111  0.2399
 2763Sol     HW14078   1.785   0.433   3.126  0.4506  1.6774 -0.2542
 2763Sol     HW14079   1.854   0.527   3.222 -1.3586  0.3413  2.4134
 2763Sol     MW14080   1.816   0.447   3.209 -0.1426  0.2401 -0.2556
 2764Sol     OW14081   2.822   0.163   6.840  0.0548 -0.6434  0.4004
 2764Sol     HW14082   2.746   0.181   6.896 -0.3510  1.8083 -0.8653
 2764Sol     HW14083   2.786   0.156   6.752  1.2446  0.0546 -0.1533
 2764Sol     MW14084   2.812   0.164   6.837  0.4188  0.5050  0.2473
 2765Sol     OW14085   1.447   2.446   6.662  0.0354  0.7116 -0.2827
 2765Sol     HW14086   1.500   2.524   6.678  1.0817 -0.3263  1.5397
 2765Sol     HW14087   1.510   2.374   6.664 -0.9874 -0.2247 -1.4545
 2765Sol     MW14088   1.457   2.447   6.664 -0.5925  0.9323 -0.1560
 2766Sol     OW14089   1.435   1.160   6.366  0.2833 -0.1950  0.2032
 2766Sol     HW14090   1.529   1.140   6.365  0.1119 -0.9977 -0.0561
 2766Sol     HW14091   1.406   1.142   6.276  0.4280  2.7340 -0.4940
 2766Sol     MW14092   1.441   1.157   6.358  0.0027  0.1598  0.1309
 2767Sol     OW14093   0.699   0.233   5.660  0.6840 -0.5750 -0.4626
 2767Sol     HW14094   0.748   0.315   5.660 -1.5777  0.8150  0.2374
 2767Sol     HW14095   0.717   0.194   5.574  0.8141  1.2226 -1.2700
 2767Sol     MW14096   0.705   0.237   5.652 -0.2180  0.2438  0.1049
 2768Sol     OW14097   2.964   3.056   4.958  0.1530 -0.2088 -0.4899
 2768Sol     HW14098   2.982   3.056   4.864 -0.0262 -3.5209 -0.5922
 2768Sol     HW14099   3.031   3.115   4.995  0.7035  0.5345 -2.5846
 2768Sol     MW14100   2.972   3.061   4.953  0.1305 -0.5282 -0.6193
 2769Sol     OW14101   1.918   0.614   6.319 -0.1852  0.2558 -0.0574
 2769Sol     HW14102   1.961   0.594   6.236 -1.6278  2.8549 -1.4692
 2769Sol     HW14103   1.829   0.582   6.309 -0.3079  0.3868  0.5946
 2769Sol     MW14104   1.914   0.609   6.311 -0.3654 -0.1342  0.7009
 2770Sol     OW14105   1.944   1.634   7.775  0.0838  0.0582 -0.1850
 2770Sol     HW14106   1.928   1.585   7.856  0.9832  0.4257  0.2216
 2770Sol     HW14107   2.022   1.592   7.737 -1.1590 -1.0220 -1.5838
 2770Sol     MW14108   1.950   1.626   7.779 -0.1443  0.8783  0.1391
 2771Sol     OW14109   2.783   1.914   5.612  0.2232 -0.0446  0.0956
 2771Sol     HW14110   2.769   1.822   5.591  0.3486 -0.3568  1.3450
 2771Sol     HW14111   2.735   1.961   5.544  2.0241 -0.9843 -1.8991
 2771Sol     MW14112   2.777   1.910   5.604 -0.1559 -0.4298  0.2648
 2772Sol     OW14113   1.535   0.977   3.364  0.1345  0.0362 -0.6353
 2772Sol     HW14114   1.462   0.920   3.387  2.1087 -2.0251  0.7584
 2772Sol     HW14115   1.496   1.063   3.351 -2.4495 -0.9004  0.6550
 2772Sol     MW14116   1.525   0.980   3.365  0.1138  0.9529 -0.3048
 2773Sol     OW14117   1.824   1.154   6.639  0.6017  0.2317  0.3006
 2773Sol     HW14118   1.917   1.171   6.656 -0.1657  4.6896  0.6278
 2773Sol     HW14119   1.797   1.098   6.713  2.6963 -0.0602  0.8977
 2773Sol     MW14120   1.830   1.150   6.647 -0.0567 -0.2359 -0.1322
 2774Sol     OW14121   0.167   1.669   3.832 -0.1630  0.0531  0.1493
 2774Sol     HW14122   0.243   1.624   3.795 -1.3593 -1.5530 -0.3701
 2774Sol     HW14123   0.132   1.721   3.760  0.8102  1.3254  0.5670
 2774Sol     MW14124   0.171   1.670   3.823 -0.5734  0.4546  0.0709
 2775Sol     OW14125   3.255   2.067   4.713 -0.0761  0.5879  0.1302
 2775Sol     HW14126   3.218   2.025   4.791 -1.3363  1.2372 -0.0975
 2775Sol     HW14127   3.330   2.116   4.746  0.5678 -0.7054  0.6176
 2775Sol     MW14128   3.258   2.068   4.723 -0.2940  0.2397 -0.1311
 2776Sol     OW14129   1.683   1.937   7.824  0.0960  0.0490  0.3257
 2776Sol     HW14130   1.660   2.014   7.771 -1.6475 -1.2561 -0.8840
 2776Sol     HW14131   1.761   1.964   7.872  0.3873  2.0656 -1.1916
 2776Sol     MW14132   1.688   1.947   7.824 -0.1065 -0.3799  0.0368
 2777Sol     OW14133   1.833   1.593   8.691 -0.3394 -0.2515 -0.7944
 2777Sol     HW14134   1.815   1.580   8.598 -1.2032 -0.9494 -0.5365
 2777Sol     HW14135   1.904   1.531   8.709 -1.1400 -1.1410 -0.6703
 2777Sol     MW14136   1.838   1.586   8.684 -0.0252  0.0179  0.7678
 2778Sol     OW14137   1.314   2.126   7.686  0.0754  0.2606  0.2247
 2778Sol     HW14138   1.225   2.158   7.674 -0.2780  0.1806  2.3444
 2778Sol     HW14139   1.302   2.034   7.710  0.7764  0.0119 -0.3841
 2778Sol     MW14140   1.305   2.120   7.687 -0.0140 -0.5254 -0.6098
 2779Sol     OW14141   1.047   0.967   8.911  0.3352  0.4029  0.3589
 2779Sol     HW14142   1.051   1.020   8.990 -0.3046  0.2707  0.4834
 2779Sol     HW14143   0.975   0.906   8.926  0.3670  0.2123 -0.2240
 2779Sol     MW14144   1.041   0.966   8.919  0.1804 -0.8307  0.3530
 2780Sol     OW14145   1.259   1.133   4.994 -0.0643  0.0844  0.1000
 2780Sol     HW14146   1.215   1.062   5.041 -0.6092  0.8576  0.7742
 2780Sol     HW14147   1.341   1.145   5.041  1.0736 -1.6123 -1.3846
 2780Sol     MW14148   1.262   1.128   5.003 -0.2421 -0.0517  0.5629
 2781Sol     OW14149   0.645   1.256   9.344  0.2689  0.0427 -0.1469
 2781Sol     HW14150   0.687   1.172   9.362  0.0236 -0.3734 -1.4546
 2781Sol     HW14151   0.700   1.295   9.275  0.7340  1.2296  0.8734
 2781Sol     MW14152   0.654   1.252   9.339 -0.1479 -0.0313  0.1386
 2782Sol     OW14153   0.413   3.214   8.076 -0.2441 -0.1261  0.0195
 2782Sol     HW14154   0.416   3.308   8.093 -1.6694 -0.5063  2.5513
 2782Sol     HW14155   0.339   3.203   8.017 -0.4258  0.2679  0.1720
 2782Sol     MW14156   0.407   3.222   8.072  0.2544 -0.3009 -0.1371
 2783Sol     OW14157   1.747   0.949   1.858  0.1705 -0.1871  0.5496
 2783Sol     HW14158   1.838   0.976   1.846  0.3107 -1.0291 -0.4019
 2783Sol     HW14159   1.735   0.943   1.953  0.0674  3.3293  0.8112
 2783Sol     MW14160   1.754   0.951   1.865  0.1544  0.2169  0.0414
 2784Sol     OW14161   1.693   2.113   6.965 -0.0779  0.0295 -0.3153
 2784Sol     HW14162   1.646   2.052   7.023  1.7093 -1.1948 -0.1270
 2784Sol     HW14163   1.686   2.074   6.878  0.2784  0.0499 -0.3508
 2784Sol     MW14164   1.688   2.104   6.963 -0.1355 -0.2554 -0.2867
 2785Sol     OW14165   0.975   1.437   6.995  0.0769 -0.4170 -0.2389
 2785Sol     HW14166   0.988   1.399   7.082 -0.6529  1.3125  0.6521
 2785Sol     HW14167   0.910   1.507   7.009 -0.7159 -0.6918 -2.3195
 2785Sol     MW14168   0.970   1.440   7.004  0.4625 -0.0003  0.0689
 2786Sol     OW14169   0.035   1.141   2.824 -0.1057  0.0512  0.6842
 2786Sol     HW14170  -0.021   1.067   2.851  1.2271 -0.6087  1.7098
 2786Sol     HW14171   0.124   1.114   2.847  0.3316  2.3048  1.8252
 2786Sol     MW14172   0.038   1.132   2.829  0.4824 -0.2469 -0.0624
 2787Sol     OW14173   0.600   0.801   6.990 -0.4476 -0.0546 -0.6546
 2787Sol     HW14174   0.665   0.733   6.972  0.0781  0.4760 -0.7597
 2787Sol     HW14175   0.638   0.882   6.957  0.6635  1.0102  2.9275
 2787Sol     MW14176   0.609   0.802   6.986 -0.6703  0.5048  0.4593
 2788Sol     OW14177   1.731   3.197   9.005 -0.7006  0.3394  0.5042
 2788Sol     HW14178   1.777   3.192   8.921 -0.4942 -0.4872  0.6554
 2788Sol     HW14179   1.642   3.224   8.982 -1.4114 -2.4620 -0.3127
 2788Sol     MW14180   1.727   3.199   8.995  0.1579 -0.2900 -0.0526
 2789Sol     OW14181   1.516   1.278   2.202 -0.3349 -0.0231 -0.5002
 2789Sol     HW14182   1.480   1.340   2.265 -1.6524 -0.7902 -0.4750
 2789Sol     HW14183   1.515   1.325   2.119  1.6267  1.0756  0.0637
 2789Sol     MW14184   1.512   1.288   2.201 -0.5695  0.1496 -0.4300
 2790Sol     OW14185   1.203   2.598   3.248  0.2506 -0.5376  0.3773
 2790Sol     HW14186   1.142   2.544   3.198 -0.8010  0.7963  0.1970
 2790Sol     HW14187   1.166   2.601   3.336  0.9349 -1.0558  0.6942
 2790Sol     MW14188   1.194   2.593   3.252  0.5494  0.6829  0.1318
 2791Sol     OW14189   1.604   2.101   9.851  0.5066 -0.0106  0.5312
 2791Sol     HW14190   1.562   2.018   9.874 -0.8849  0.2686 -0.9192
 2791Sol     HW14191   1.688   2.076   9.814  0.5628 -0.7187  1.1213
 2791Sol     MW14192   1.608   2.091   9.850 -0.8228  0.7000  0.5119
 2792Sol     OW14193   2.589   0.317   7.996  0.5136  0.5394  0.7591
 2792Sol     HW14194   2.639   0.281   8.070 -1.2653 -0.7696  1.3651
 2792Sol     HW14195   2.545   0.241   7.958 -1.1357  1.6823  0.3381
 2792Sol     MW14196   2.589   0.307   7.999  0.7151 -0.0415 -0.1132
 2793Sol     OW14197   0.070   1.053   9.850 -0.3934  0.1435 -0.5052
 2793Sol     HW14198   0.146   0.996   9.860 -0.1101  0.5248 -0.4636
 2793Sol     HW14199   0.042   1.040   9.760  0.4356  0.8713 -0.8845
 2793Sol     MW14200   0.075   1.047   9.843 -0.2805  0.4253 -0.4230
 2794Sol     OW14201   1.731   0.878   9.577 -0.6449 -0.2384  0.3448
 2794Sol     HW14202   1.808   0.838   9.537 -0.3290  1.0122 -0.3282
 2794Sol     HW14203   1.761   0.908   9.663  0.0996  1.7374 -0.5686
 2794Sol     MW14204   1.740   0.877   9.582  0.4348 -0.5432 -0.1018
 2795Sol     OW14205   1.727   0.461   8.398 -0.6256  0.0650 -0.0797
 2795Sol     HW14206   1.694   0.526   8.336  0.0884  0.5937  0.0806
 2795Sol     HW14207   1.819   0.449   8.373 -0.5746 -0.3953  0.3083
 2795Sol     MW14208   1.733   0.466   8.390  0.6098  0.1799  0.7702
 2796Sol     OW14209   0.303   2.033   9.774 -0.1555 -0.3632 -0.0246
 2796Sol     HW14210   0.293   2.124   9.746 -0.6959  0.1142  1.6383
 2796Sol     HW14211   0.372   1.998   9.719  0.0288  1.0462 -0.7114
 2796Sol     MW14212   0.308   2.038   9.767  0.2390  0.1613 -0.1070
 2797Sol     OW14213   1.704   1.250   7.190 -0.0001  0.4535 -0.0615
 2797Sol     HW14214   1.755   1.309   7.135  1.9701 -0.5740  0.6137
 2797Sol     HW14215   1.729   1.162   7.161 -1.5083 -0.0860  0.1949
 2797Sol     MW14216   1.711   1.247   7.183 -0.0043  0.0676  0.3922
 2798Sol     OW14217   0.485   2.580   2.303 -0.1830  0.0512  0.0461
 2798Sol     HW14218   0.566   2.555   2.258  1.4870  2.3194  1.7093
 2798Sol     HW14219   0.427   2.608   2.232  0.2230 -2.1763 -1.2265
 2798Sol     MW14220   0.487   2.580   2.293 -0.8477 -0.2472 -0.2746
 2799Sol     OW14221   1.029   0.779   4.707  0.2394  0.0282 -0.1918
 2799Sol     HW14222   0.971   0.855   4.700 -0.4961 -0.6777 -2.0602
 2799Sol     HW14223   1.040   0.766   4.801  0.4425  2.4828  0.1644
 2799Sol     MW14224   1.025   0.784   4.715  0.2497 -0.2552  0.0735
 2800Sol     OW14225   1.246   2.847   3.172 -0.3561 -0.0037 -0.1773
 2800Sol     HW14226   1.169   2.901   3.153 -0.3977 -0.6478 -1.9073
 2800Sol     HW14227   1.210   2.765   3.207 -0.3139  0.8301  1.9019
 2800Sol     MW14228   1.236   2.844   3.173 -0.1955  0.0406 -0.0221
 2801Sol     OW14229   1.740   2.781   3.159  0.5892  0.1723 -0.3745
 2801Sol     HW14230   1.656   2.743   3.185  1.7505 -1.5153  0.9803
 2801Sol     HW14231   1.795   2.773   3.236  2.1600  0.8454 -1.3962
 2801Sol     MW14232   1.737   2.777   3.168  0.1105 -0.1475  0.0291
 2802Sol     OW14233   0.500   2.041   3.460 -0.5774  0.0106  0.3147
 2802Sol     HW14234   0.570   2.021   3.399 -0.2040 -0.9946  1.0617
 2802Sol     HW14235   0.539   2.103   3.522 -0.7143  0.3908  0.0251
 2802Sol     MW14236   0.509   2.045   3.460 -0.8406 -0.1574  0.9337
 2803Sol     OW14237   2.429   3.256   5.332 -0.0690 -0.2006 -0.7523
 2803Sol     HW14238   2.452   3.169   5.300 -0.7074 -0.2866 -0.9839
 2803Sol     HW14239   2.513   3.300   5.344  0.3237 -1.1907  0.3459
 2803Sol     MW14240   2.438   3.252   5.330  0.3484  0.3920  0.0773
 2804Sol     OW14241   0.927   1.342   4.242  0.0683  0.1662  0.4457
 2804Sol     HW14242   0.987   1.325   4.169 -0.5326  0.6819 -0.1706
 2804Sol     HW14243   0.912   1.256   4.281  0.5237 -0.0877  0.0717
 2804Sol     MW14244   0.931   1.333   4.239  0.0990 -0.1901  0.4433
 2805Sol     OW14245   0.513   0.979   3.927  0.0041  0.3872 -0.3314
 2805Sol     HW14246   0.595   0.944   3.891 -0.9304 -1.0271 -1.1351
 2805Sol     HW14247   0.450   0.908   3.917 -1.1585  1.2138  0.9345
 2805Sol     MW14248   0.515   0.970   3.923 -0.2515 -0.0992  0.1323
 2806Sol     OW14249   1.235   1.407   8.927  0.0910 -0.2943 -0.7769
 2806Sol     HW14250   1.239   1.381   8.835 -1.2985  0.2961 -1.0218
 2806Sol     HW14251   1.195   1.332   8.971  0.6998 -0.5523 -0.6544
 2806Sol     MW14252   1.232   1.398   8.923  0.6444 -0.2610  0.1122
 2807Sol     OW14253   0.562   1.558   8.515  0.0003 -0.0381 -0.0238
 2807Sol     HW14254   0.526   1.563   8.604  0.0647  1.0070 -0.0578
 2807Sol     HW14255   0.635   1.620   8.515  0.1769 -0.2465 -0.7263
 2807Sol     MW14256   0.565   1.564   8.523  0.2406  0.1187 -0.7829
 2808Sol     OW14257   1.607   2.101   7.608 -0.3129 -0.0056  0.2892
 2808Sol     HW14258   1.631   2.075   7.519 -1.8494  0.8702 -0.3915
 2808Sol     HW14259   1.512   2.102   7.608 -0.3369 -0.3565  2.0631
 2808Sol     MW14260   1.601   2.099   7.600  0.0820 -0.2013 -0.1255
 2809Sol     OW14261   2.652   2.661   4.441 -0.0599 -0.3859  0.0142
 2809Sol     HW14262   2.611   2.575   4.431 -2.5747  0.7344  0.2220
 2809Sol     HW14263   2.667   2.670   4.535  0.0859 -0.5383  0.0059
 2809Sol     MW14264   2.649   2.654   4.449 -0.1455  0.7560  0.0869
 2810Sol     OW14265   2.167   2.668   5.123 -0.5312  0.0520  0.5987
 2810Sol     HW14266   2.188   2.750   5.167 -0.0815 -0.0572  0.5887
 2810Sol     HW14267   2.237   2.608   5.148 -1.9217 -0.9316  2.2008
 2810Sol     MW14268   2.175   2.670   5.129  0.0714  0.4943  0.0045
 2811Sol     OW14269   3.085   3.002   4.100 -0.0101  0.3389  0.3510
 2811Sol     HW14270   3.154   2.988   4.035 -0.9845 -0.7369 -0.4833
 2811Sol     HW14271   3.015   3.048   4.053 -0.2766  0.5380  0.9250
 2811Sol     MW14272   3.085   3.005   4.090 -0.3395 -0.1556  0.3350
 2812Sol     OW14273   0.325   0.403   7.669 -0.3869  0.0378  0.0858
 2812Sol     HW14274   0.317   0.436   7.759 -1.2123  0.3096 -0.0815
 2812Sol     HW14275   0.416   0.418   7.647 -0.3980  0.8500  0.5496
 2812Sol     MW14276   0.332   0.407   7.675 -0.0470  0.5418  0.9167
 2813Sol     OW14277   0.096   3.365   3.725 -0.3018 -0.1112  0.2452
 2813Sol     HW14278   0.018   3.375   3.781  0.9100  0.9163  1.7762
 2813Sol     HW14279   0.156   3.312   3.777  0.3858 -0.1233 -0.5559
 2813Sol     MW14280   0.094   3.361   3.735 -0.1642 -0.5357  0.3567
 2814Sol     OW14281   2.760   3.418   9.349 -0.3195 -0.3622  0.6036
 2814Sol     HW14282   2.666   3.433   9.345 -0.6138 -1.8964  1.5843
 2814Sol     HW14283   2.771   3.341   9.405  1.5745  0.3446  1.2733
 2814Sol     MW14284   2.753   3.413   9.354 -0.6031  0.0051  0.3335
 2815Sol     OW14285   0.281   2.471   1.923  0.0831  0.1409  0.4395
 2815Sol     HW14286   0.197   2.488   1.879  1.1566  2.0260 -0.9648
 2815Sol     HW14287   0.313   2.558   1.947  1.8954 -0.5384  0.5017
 2815Sol     MW14288   0.276   2.480   1.921 -0.1623 -0.1122 -0.3391
 2816Sol     OW14289   0.581   2.897   8.432  0.4391 -0.3015  0.0545
 2816Sol     HW14290   0.628   2.939   8.359 -1.6027 -0.4188 -1.3423
 2816Sol     HW14291   0.624   2.812   8.442  0.7318 -0.2916 -1.0227
 2816Sol     MW14292   0.589   2.893   8.427  0.4354  0.4298 -0.6295
 2817Sol     OW14293   0.197   2.915   4.091 -0.5719  0.2460 -0.5537
 2817Sol     HW14294   0.125   2.942   4.035 -0.6090  0.8371 -0.2242
 2817Sol     HW14295   0.174   2.949   4.178 -0.0494  0.1720 -0.3848
 2817Sol     MW14296   0.189   2.920   4.094  0.4211  0.0965  0.1710
 2818Sol     OW14297   2.913   2.871   4.580 -0.5023  0.8145 -0.0092
 2818Sol     HW14298   2.893   2.862   4.487  1.5602  0.9622 -0.4894
 2818Sol     HW14299   2.921   2.781   4.612 -0.0402  0.7789 -0.2320
 2818Sol     MW14300   2.912   2.862   4.575 -1.0032  0.1306  0.1583
 2819Sol     OW14301   2.544   0.459   5.517  0.4968  0.1557 -0.0561
 2819Sol     HW14302   2.448   0.469   5.517  0.5218  0.6290 -1.7127
 2819Sol     HW14303   2.562   0.402   5.591 -1.1502 -0.6097 -0.2070
 2819Sol     MW14304   2.537   0.455   5.524 -0.1696  0.1278 -0.0995
 2820Sol     OW14305   1.312   1.678   4.897  0.7497 -0.4923 -0.3152
 2820Sol     HW14306   1.290   1.719   4.814 -0.3358 -0.9802 -0.2776
 2820Sol     HW14307   1.346   1.592   4.873  0.8987 -0.4450 -0.2757
 2820Sol     MW14308   1.313   1.674   4.888  0.5224  0.0337  0.3796
 2821Sol     OW14309   1.367   0.952   8.805 -0.2994  0.7022  0.1295
 2821Sol     HW14310   1.303   1.003   8.756 -0.6777  1.7975  1.7129
 2821Sol     HW14311   1.333   0.950   8.894  0.3696 -1.2464  0.3556
 2821Sol     MW14312   1.358   0.957   8.809  0.0832  0.2173 -0.1217
 2822Sol     OW14313   1.181   1.638   6.454  0.4072 -0.4036 -0.1811
 2822Sol     HW14314   1.187   1.544   6.472 -0.1265 -0.6259 -1.1197
 2822Sol     HW14315   1.112   1.669   6.513  2.4966 -0.0405  2.1752
 2822Sol     MW14316   1.175   1.632   6.461 -0.0685  0.1311  0.4789
 2823Sol     OW14317   3.293   2.949   5.286 -0.9742  0.0556  0.3813
 2823Sol     HW14318   3.261   2.874   5.236  0.3311  0.8374 -1.6898
 2823Sol     HW14319   3.220   3.011   5.285 -1.1111 -0.1089 -0.1895
 2823Sol     MW14320   3.283   2.948   5.281  0.0929 -0.4594 -0.1082
 2824Sol     OW14321   1.775   0.683   7.337 -0.3253  0.0211  0.0332
 2824Sol     HW14322   1.863   0.671   7.372 -0.7615  1.0347  1.5323
 2824Sol     HW14323   1.756   0.602   7.290  1.5966 -0.0068 -0.7341
 2824Sol     MW14324   1.781   0.675   7.336  0.2926 -0.4316  0.6050
 2825Sol     OW14325   0.810   2.017   8.692  0.0144 -0.1975  0.5018
 2825Sol     HW14326   0.759   2.040   8.770  0.9991 -2.4284  1.8356
 2825Sol     HW14327   0.750   1.968   8.636 -0.5595  1.0205  0.0241
 2825Sol     MW14328   0.800   2.015   8.694 -0.1553 -0.1121  0.0842
 2826Sol     OW14329   1.917   0.954   9.768 -0.0059 -0.3334  0.0912
 2826Sol     HW14330   1.889   1.045   9.756  1.1708  0.2621  1.6113
 2826Sol     HW14331   1.990   0.943   9.707  0.3784  0.0067  0.4815
 2826Sol     MW14332   1.921   0.962   9.762 -0.2677  0.2867 -0.7151
 2827Sol     OW14333   2.343   0.943   5.799 -0.6127 -0.4321  0.4133
 2827Sol     HW14334   2.356   0.870   5.739  1.7780  0.7928 -0.6228
 2827Sol     HW14335   2.396   0.920   5.876  1.5162  0.9452 -0.6022
 2827Sol     MW14336   2.349   0.934   5.801  0.0303 -0.4750 -0.0120
 2828Sol     OW14337   1.684   3.421   3.066 -0.0330 -0.5796 -0.8333
 2828Sol     HW14338   1.615   3.481   3.094 -0.9124 -0.6341 -2.7602
 2828Sol     HW14339   1.644   3.334   3.072  0.7262 -0.8477  0.4747
 2828Sol     MW14340   1.674   3.418   3.069 -0.3369  0.3242 -0.2374
 2829Sol     OW14341   1.103   0.516   8.867 -0.1372  0.7240  0.3162
 2829Sol     HW14342   1.067   0.521   8.956 -0.1162  0.1976  0.3584
 2829Sol     HW14343   1.183   0.463   8.877  0.9504  2.3126  0.3191
 2829Sol     MW14344   1.107   0.511   8.876  0.2244 -0.0060  0.7473
 2830Sol     OW14345   2.443   0.700   4.464  0.0997  0.0139 -0.1231
 2830Sol     HW14346   2.528   0.662   4.443 -0.3616 -0.6033 -0.8791
 2830Sol     HW14347   2.407   0.642   4.532  0.3258  0.3389  0.2773
 2830Sol     MW14348   2.448   0.691   4.468 -0.6792 -0.2979 -0.6395
 2831Sol     OW14349   2.036   1.641   6.069  0.4684  0.6234  0.0389
 2831Sol     HW14350   2.002   1.578   6.132  0.3913  0.4086 -0.2215
 2831Sol     HW14351   1.964   1.659   6.010  0.8746 -0.0092 -0.6533
 2831Sol     MW14352   2.027   1.637   6.070 -0.1049 -0.1604  0.0519
 2832Sol     OW14353   2.630   2.309   1.480  0.1265  0.1967  0.1064
 2832Sol     HW14354   2.592   2.315   1.392  1.6590 -0.3729 -0.6132
 2832Sol     HW14355   2.624   2.215   1.501  1.4288  0.0467 -0.1604
 2832Sol     MW14356   2.626   2.301   1.474  0.3526  0.5992 -0.5529
 2833Sol     OW14357   0.312   2.084   1.755  0.5609  0.4054 -0.0596
 2833Sol     HW14358   0.324   1.989   1.753  0.0667  0.3057  1.1375
 2833Sol     HW14359   0.357   2.115   1.677 -1.2980 -1.0206 -1.7622
 2833Sol     MW14360   0.317   2.078   1.748  0.2151  0.2755  0.4935
 2834Sol     OW14361   1.420   2.274   1.367  0.3633  0.0366 -0.2084
 2834Sol     HW14362   1.450   2.308   1.282 -1.8343  2.1719 -0.2135
 2834Sol     HW14363   1.474   2.319   1.431  0.0822  0.6315 -0.3800
 2834Sol     MW14364   1.427   2.281   1.365 -0.1265  0.2872 -0.4185
 2835Sol     OW14365   2.329   2.235   7.172  0.0496  0.2895  0.4366
 2835Sol     HW14366   2.327   2.215   7.078 -0.3914  1.1370  0.2553
 2835Sol     HW14367   2.237   2.230   7.198  0.3848 -2.0482  1.2974
 2835Sol     MW14368   2.320   2.233   7.166  0.1293  0.2973  0.1455
 2836Sol     OW14369   0.220   1.797   7.638 -0.1127  0.3528 -0.3623
 2836Sol     HW14370   0.235   1.734   7.709 -1.9017  0.2221 -0.0669
 2836Sol     HW14371   0.163   1.750   7.577  0.0840  1.0383 -1.0757
 2836Sol     MW14372   0.216   1.787   7.639 -0.1795 -0.6745  0.0097
 2837Sol     OW14373   1.736   1.177   4.647 -0.8054  0.0932  0.6540
 2837Sol     HW14374   1.684   1.218   4.578 -1.3348 -1.1350  0.2928
 2837Sol     HW14375   1.827   1.201   4.627 -1.2007  2.1011  1.1897
 2837Sol     MW14376   1.740   1.183   4.639 -0.2056 -0.2194 -0.4337
 2838Sol     OW14377   0.017   0.257   3.761  0.0946  1.1644  0.3168
 2838Sol     HW14378  -0.019   0.215   3.839 -2.0234 -1.1557 -1.8415
 2838Sol     HW14379  -0.015   0.347   3.766 -2.0964  0.3898  0.8898
 2838Sol     MW14380   0.011   0.262   3.768  0.1882  0.5002 -0.1634
 2839Sol     OW14381   1.933   0.701   1.886 -0.8404 -0.3142  0.0365
 2839Sol     HW14382   1.845   0.738   1.878 -0.8439 -0.3701 -0.2146
 2839Sol     HW14383   1.988   0.774   1.915 -1.5183 -1.0042  3.1706
 2839Sol     MW14384   1.930   0.711   1.888 -0.3548  0.2843 -0.2696
 2840Sol     OW14385   0.081   0.589   4.416 -0.2097  0.4313  0.3974
 2840Sol     HW14386   0.146   0.551   4.476  0.0923 -1.0547 -0.8324
 2840Sol     HW14387   0.012   0.523   4.412  0.1552  0.1514 -1.5083
 2840Sol     MW14388   0.081   0.580   4.421 -0.2867 -0.0352  0.5251
 2841Sol     OW14389   0.028   1.357   4.215  0.3589 -0.2895  0.4992
 2841Sol     HW14390  -0.013   1.298   4.151 -1.1031  1.4353 -0.1910
 2841Sol     HW14391   0.067   1.298   4.279 -0.1590 -2.0365 -0.7312
 2841Sol     MW14392   0.028   1.346   4.215 -0.2344 -0.2105 -0.0781
 2842Sol     OW14393   2.163   2.127   4.852  0.0303  0.3968 -0.3399
 2842Sol     HW14394   2.089   2.165   4.898 -0.0763 -0.2080 -0.0080
 2842Sol     HW14395   2.124   2.071   4.784  0.1793  0.1582 -0.2322
 2842Sol     MW14396   2.153   2.125   4.850 -0.1283  0.2389  0.1667
 2843Sol     OW14397   0.224   3.098   5.181 -0.3883 -0.2366  0.2975
 2843Sol     HW14398   0.154   3.046   5.222 -1.7197  2.0422  0.9933
 2843Sol     HW14399   0.241   3.053   5.098 -1.2881 -1.9580  1.0231
 2843Sol     MW14400   0.219   3.089   5.177  0.4313 -0.0664 -0.8888
 2844Sol     OW14401   2.216   2.465   6.719 -0.4417  0.4088  0.2292
 2844Sol     HW14402   2.307   2.489   6.734 -1.0500  2.3571  0.8915
 2844Sol     HW14403   2.180   2.537   6.667 -1.6367 -0.2822  0.0706
 2844Sol     MW14404   2.221   2.473   6.716  0.4250 -0.4440 -0.4492
 2845Sol     OW14405   3.045   1.720   7.140  0.5180 -0.2594  0.5067
 2845Sol     HW14406   3.126   1.746   7.095 -1.0057  2.6472 -0.6872
 2845Sol     HW14407   3.011   1.802   7.176 -2.6024 -1.1896 -0.2064
 2845Sol     MW14408   3.050   1.730   7.139  0.1701 -0.1058  0.2834
 2846Sol     OW14409   1.368   1.639   2.128 -0.3872  0.1432  0.3597
 2846Sol     HW14410   1.362   1.592   2.211 -0.4457 -3.3469 -1.5438
 2846Sol     HW14411   1.277   1.642   2.096 -0.4109  1.7578  0.5279
 2846Sol     MW14412   1.359   1.635   2.133  0.0806  0.5803 -0.0794
 2847Sol     OW14413   1.345   0.075   8.285  0.9578 -0.0823 -0.1018
 2847Sol     HW14414   1.426   0.087   8.334 -0.0284  1.4935  1.1919
 2847Sol     HW14415   1.296   0.009   8.335  1.2574 -0.7136 -0.6421
 2847Sol     MW14416   1.348   0.070   8.294 -0.1909  0.6251 -0.3712
 2848Sol     OW14417   0.942   0.585   5.398 -0.0508 -0.6580 -0.3277
 2848Sol     HW14418   0.975   0.506   5.356 -0.1961 -1.1853  0.5297
 2848Sol     HW14419   0.929   0.560   5.490 -0.5763  0.2153 -0.1540
 2848Sol     MW14420   0.944   0.576   5.403  0.2491 -0.1303 -0.1608
 2849Sol     OW14421   0.129   0.642   9.795  0.1894 -0.5094 -0.2772
 2849Sol     HW14422   0.089   0.666   9.879 -0.6014 -2.8020  0.0157
 2849Sol     HW14423   0.107   0.550   9.783 -0.4479  0.0040 -3.4447
 2849Sol     MW14424   0.123   0.636   9.802 -0.7607 -0.2499 -0.0981
 2850Sol     OW14425   2.383   2.109   8.715 -0.2291  0.0658 -0.5051
 2850Sol     HW14426   2.369   2.203   8.729 -1.7602 -0.1280 -0.6830
 2850Sol     HW14427   2.307   2.080   8.666  1.0476 -0.9565 -1.9319
 2850Sol     MW14428   2.375   2.115   8.712  0.5438 -0.5470 -0.3143
 2851Sol     OW14429   2.100   2.074   6.869 -0.1043  0.2415  0.1472
 2851Sol     HW14430   2.181   2.121   6.888 -1.0882  1.3582  1.7252
 2851Sol     HW14431   2.053   2.130   6.808  0.2972 -0.3974 -0.7545
 2851Sol     MW14432   2.103   2.083   6.866  0.2182 -0.6688 -0.3739
 2852Sol     OW14433   0.496   2.551   8.399 -0.4120 -0.6518  0.1500
 2852Sol     HW14434   0.531   2.558   8.488 -1.7756 -0.3437  0.6896
 2852Sol     HW14435   0.486   2.457   8.385  1.0747 -0.7637 -0.2014
 2852Sol     MW14436   0.498   2.544   8.406  0.2856  0.4460  0.7135
 2853Sol     OW14437   0.238   1.887   9.440  0.0125  0.0732  0.3877
 2853Sol     HW14438   0.246   1.854   9.530  0.9713 -1.0280 -0.0897
 2853Sol     HW14439   0.154   1.851   9.409  1.1217 -2.1401 -0.1883
 2853Sol     MW14440   0.231   1.880   9.446  0.5241 -0.6198  0.3182
 2854Sol     OW14441   0.646   2.723   4.830 -0.0574  0.7902  0.2410
 2854Sol     HW14442   0.719   2.668   4.856  0.9668  1.2559 -1.5352
 2854Sol     HW14443   0.676   2.813   4.845 -0.2312  0.9857 -0.5237
 2854Sol     MW14444   0.655   2.726   4.833  0.0343  0.5721  0.0171
 2855Sol     OW14445   1.452   0.821   4.570 -0.3672 -0.1840 -0.0553
 2855Sol     HW14446   1.386   0.829   4.639  0.0204  3.0021  0.0018
 2855Sol     HW14447   1.536   0.820   4.617 -0.2556 -2.1134 -0.2603
 2855Sol     MW14448   1.454   0.822   4.580  0.1269 -0.2415  0.1023
 2856Sol     OW14449   1.572   3.232   1.936  0.5545  0.5685  0.6331
 2856Sol     HW14450   1.598   3.220   2.027  3.1370  0.6645 -0.0457
 2856Sol     HW14451   1.528   3.150   1.912  2.9683 -0.8839  0.9719
 2856Sol     MW14452   1.571   3.224   1.942 -0.0598  0.5420  0.3519
 2857Sol     OW14453   1.001   1.805   4.648 -0.3125  0.5643 -0.5496
 2857Sol     HW14454   1.001   1.878   4.586  2.5188  1.3133  0.2904
 2857Sol     HW14455   0.928   1.824   4.707 -0.1267  2.2544 -0.8364
 2857Sol     MW14456   0.994   1.813   4.647  0.0963  0.6847  0.4162
 2858Sol     OW14457   3.196   1.113   1.417 -0.3616 -0.0407  0.5217
 2858Sol     HW14458   3.233   1.074   1.496 -0.8664 -0.9873  0.2987
 2858Sol     HW14459   3.131   1.176   1.450 -1.6425 -1.5004  0.8696
 2858Sol     MW14460   3.193   1.116   1.427  0.4921  0.4776 -0.5142
 2859Sol     OW14461   0.100   1.859   4.110  0.4441  0.0880 -0.1030
 2859Sol     HW14462   0.108   1.787   4.048  2.1347  0.2295 -0.0686
 2859Sol     HW14463   0.138   1.934   4.064  0.4414  0.5163  0.5872
 2859Sol     MW14464   0.104   1.859   4.100  0.3448 -0.2096 -0.4339
 2860Sol     OW14465   1.469   1.805   8.734  0.6712 -0.1358 -0.0276
 2860Sol     HW14466   1.499   1.823   8.645  0.7317  0.4093  0.1029
 2860Sol     HW14467   1.466   1.890   8.777  0.9041 -0.4249  0.5776
 2860Sol     MW14468   1.472   1.814   8.730  0.3320 -0.0717 -0.2244
 2861Sol     OW14469   3.297   3.102   6.213  0.3125 -0.2071 -0.6431
 2861Sol     HW14470   3.221   3.045   6.227  0.7085 -0.2701  1.3388
 2861Sol     HW14471   3.294   3.122   6.119 -3.0479  1.0394 -0.3619
 2861Sol     MW14472   3.290   3.098   6.206 -0.1698 -0.1422 -0.0293
 2862Sol     OW14473   2.133   0.229   3.034  0.3593  0.0215  0.1313
 2862Sol     HW14474   2.141   0.145   2.989 -0.8232  0.3964 -0.7996
 2862Sol     HW14475   2.087   0.285   2.972 -1.9674  0.3261  2.0797
 2862Sol     MW14476   2.130   0.227   3.025  0.1347  1.1411 -0.0663
 2863Sol     OW14477   2.980   0.184   3.856  0.0174 -0.2738 -0.3495
 2863Sol     HW14478   3.035   0.136   3.794 -0.5087 -0.1573 -0.9061
 2863Sol     HW14479   3.037   0.200   3.931 -0.2836 -3.3846  0.6485
 2863Sol     MW14480   2.990   0.181   3.857  0.2665 -0.4506 -0.0193
 2864Sol     OW14481   1.153   0.636   2.386  0.1572 -0.2895  0.3317
 2864Sol     HW14482   1.078   0.611   2.331 -1.3163  1.7185  1.3772
 2864Sol     HW14483   1.213   0.680   2.326 -0.8261  0.6861  0.0501
 2864Sol     MW14484   1.151   0.638   2.376  0.2553 -0.2889 -0.0906
 2865Sol     OW14485   2.367   0.479   9.587  0.2868  0.3706 -0.2764
 2865Sol     HW14486   2.406   0.398   9.620  2.4854  1.5490  0.0262
 2865Sol     HW14487   2.304   0.504   9.654 -0.8297 -1.3693 -0.6291
 2865Sol     MW14488   2.365   0.474   9.596 -1.0202 -0.1040  0.0185
 2866Sol     OW14489   1.600   1.272   4.418 -0.0612  0.6551  0.0668
 2866Sol     HW14490   1.541   1.200   4.394  0.3700  0.4795 -0.5168
 2866Sol     HW14491   1.656   1.283   4.340  0.7086  0.7703  0.6280
 2866Sol     MW14492   1.600   1.266   4.409 -0.8831  0.6420  0.2431
 2867Sol     OW14493   2.131   1.189   8.526  0.5680  0.3941 -0.0634
 2867Sol     HW14494   2.097   1.101   8.515 -1.1354  0.9455  0.5810
 2867Sol     HW14495   2.079   1.243   8.467  1.0800  1.0835  0.0988
 2867Sol     MW14496   2.124   1.186   8.520 -0.1136  0.1493  0.2821
 2868Sol     OW14497   0.763   2.765   9.140  0.4605 -0.9090  0.1253
 2868Sol     HW14498   0.784   2.760   9.047  0.2050 -1.3749  0.0897
 2868Sol     HW14499   0.847   2.786   9.183  0.0644  2.1280 -0.4514
 2868Sol     MW14500   0.773   2.767   9.136  0.2837  0.4339  0.2488
 2869Sol     OW14501   0.889   1.106   5.876 -0.2843 -0.2820 -0.3701
 2869Sol     HW14502   0.904   1.150   5.792  2.2359 -0.3801  0.0073
 2869Sol     HW14503   0.969   1.122   5.926 -1.9909  0.3017  2.2641
 2869Sol     MW14504   0.898   1.111   5.873 -0.1454 -0.1349 -0.1448
 2870Sol     OW14505   1.791   3.383   5.972 -0.4244  0.1794 -0.7971
 2870Sol     HW14506   1.764   3.419   6.056  1.9281  2.1317 -0.8113
 2870Sol     HW14507   1.710   3.358   5.929 -1.9292  2.4630  0.6254
 2870Sol     MW14508   1.782   3.384   5.975  0.3103  0.1464 -0.4181
 2871Sol     OW14509   0.934   3.348   2.002  0.1454 -0.2495 -0.0467
 2871Sol     HW14510   0.892   3.424   2.040 -0.1022  0.5230 -1.8258
 2871Sol     HW14511   0.891   3.336   1.918  1.1348 -1.5188 -0.3898
 2871Sol     MW14512   0.927   3.354   1.998 -0.1612 -0.5484  0.4160
 2872Sol     OW14513   1.736   0.603   6.036 -0.0057 -0.4165 -0.6522
 2872Sol     HW14514   1.707   0.520   6.074  1.4516  0.0314  1.5609
 2872Sol     HW14515   1.685   0.669   6.083 -0.7845 -0.0033 -2.0434
 2872Sol     MW14516   1.728   0.601   6.044  0.7464  0.4756  0.6287
 2873Sol     OW14517   1.311   0.347   1.995 -0.2454  0.5188  0.4404
 2873Sol     HW14518   1.401   0.324   1.974 -0.7812 -0.2655 -1.0770
 2873Sol     HW14519   1.295   0.428   1.946 -1.6500 -1.5680 -2.7089
 2873Sol     MW14520   1.318   0.352   1.988  0.0288 -0.0312 -0.7952
 2874Sol     OW14521   3.279   1.403   3.734 -0.1077  0.0214  0.0934
 2874Sol     HW14522   3.294   1.471   3.800  0.2438 -0.0700  0.1050
 2874Sol     HW14523   3.340   1.333   3.756  0.6847  0.3972 -0.9011
 2874Sol     MW14524   3.286   1.403   3.742 -0.0031  0.3172  0.5705
 2875Sol     OW14525   2.243   2.231   9.586  0.5723  0.0554 -0.5093
 2875Sol     HW14526   2.227   2.325   9.595  0.0806  0.0606 -1.4230
 2875Sol     HW14527   2.336   2.223   9.567  0.0233  0.5630 -3.5484
 2875Sol     MW14528   2.250   2.238   9.585  0.1639 -0.5933 -1.0168
 2876Sol     OW14529   2.370   0.470   9.305 -0.6231 -0.2540  0.5699
 2876Sol     HW14530   2.347   0.477   9.398 -0.0263  0.7245  0.6481
 2876Sol     HW14531   2.322   0.542   9.264  1.1841  0.9342  0.5194
 2876Sol     MW14532   2.363   0.477   9.310  0.1708  0.1224 -0.4255
 2877Sol     OW14533   2.104   2.080   8.380 -0.5433  0.6341  0.2700
 2877Sol     HW14534   2.157   2.155   8.354  1.1457 -0.6102 -0.0081
 2877Sol     HW14535   2.100   2.085   8.475 -2.1807  2.2091  0.1248
 2877Sol     MW14536   2.109   2.087   8.386 -0.0586  0.2685 -0.0642
 2878Sol     OW14537   1.366   1.237   7.557 -0.1994 -1.1390  0.0391
 2878Sol     HW14538   1.405   1.316   7.593 -0.0063 -1.1088 -0.2308
 2878Sol     HW14539   1.383   1.242   7.463 -0.9120 -1.0941 -0.0953
 2878Sol     MW14540   1.371   1.244   7.552 -0.6688  0.2045 -0.3080
 2879Sol     OW14541   0.539   1.696   7.102 -0.2600 -0.2622 -0.4266
 2879Sol     HW14542   0.500   1.774   7.141  0.8613  1.0867 -1.9746
 2879Sol     HW14543   0.464   1.643   7.075 -1.0197  0.6739 -0.1777
 2879Sol     MW14544   0.528   1.698   7.103  0.1579  1.1858  0.6329
 2880Sol     OW14545   0.980   0.248   2.469  0.0744 -0.4394 -0.3177
 2880Sol     HW14546   1.056   0.192   2.479  1.7569  1.6627 -1.0149
 2880Sol     HW14547   0.971   0.293   2.554 -0.8637 -1.2331  0.0168
 2880Sol     MW14548   0.986   0.247   2.478 -0.4794  0.1689  0.1152
 2881Sol     OW14549   1.565   1.579   7.922  0.2312  0.5515 -0.2617
 2881Sol     HW14550   1.656   1.598   7.945 -0.2861  0.3621  2.0945
 2881Sol     HW14551   1.525   1.665   7.908  0.6040  0.6661 -0.6196
 2881Sol     MW14552   1.569   1.588   7.923  0.4392 -0.1332  0.1393
 2882Sol     OW14553   0.712   0.070   6.049 -0.3921 -0.3532  0.1772
 2882Sol     HW14554   0.766   0.079   5.970 -0.6812 -2.2984 -0.2659
 2882Sol     HW14555   0.628   0.036   6.017 -0.0536 -2.4539  1.4260
 2882Sol     MW14556   0.710   0.068   6.039 -0.1939 -0.3579 -0.1856
 2883Sol     OW14557   0.129   2.143   2.671 -0.1785 -0.0595  0.9725
 2883Sol     HW14558   0.190   2.102   2.610  0.5952 -0.3617  1.9508
 2883Sol     HW14559   0.108   2.075   2.734 -3.1498 -0.6169 -0.5054
 2883Sol     MW14560   0.132   2.133   2.671 -0.0974  0.4251  0.3512
 2884Sol     OW14561   3.097   2.309   7.625 -0.1399  0.1374 -0.2660
 2884Sol     HW14562   3.023   2.369   7.624  0.4344  0.8346 -1.6956
 2884Sol     HW14563   3.135   2.319   7.712 -0.1154  1.7719 -0.4586
 2884Sol     MW14564   3.094   2.315   7.633 -0.1748  0.1726 -0.0006
 2885Sol     OW14565   1.937   1.624   9.528  0.1977  0.4105 -0.2228
 2885Sol     HW14566   1.929   1.639   9.622  0.9825 -3.3467  0.4915
 2885Sol     HW14567   2.019   1.667   9.504  0.8863 -0.1054  1.1437
 2885Sol     MW14568   1.943   1.630   9.534  0.4325  0.3537  0.0399
 2886Sol     OW14569   0.156   1.851   8.322  0.4521  0.6339 -0.0424
 2886Sol     HW14570   0.072   1.833   8.280 -0.0618  1.1523  0.7686
 2886Sol     HW14571   0.143   1.826   8.413  1.6048 -0.6014 -0.2035
 2886Sol     MW14572   0.148   1.847   8.326  0.2733  0.6850  0.1919
 2887Sol     OW14573   1.591   3.345   5.778 -0.0787  0.2461  0.3407
 2887Sol     HW14574   1.632   3.260   5.761  0.3514  0.4620  0.3072
 2887Sol     HW14575   1.607   3.395   5.698 -0.2676  0.3869  0.3921
 2887Sol     MW14576   1.596   3.341   5.769  0.4516 -0.9264  0.0512
 2888Sol     OW14577   2.094   0.517   9.325  0.0804 -0.1097 -0.3334
 2888Sol     HW14578   2.097   0.583   9.256  2.0395 -0.1641 -0.3362
 2888Sol     HW14579   2.110   0.566   9.406 -2.1080 -0.0604  0.0901
 2888Sol     MW14580   2.096   0.527   9.326  0.0856 -0.3022 -0.1701
 2889Sol     OW14581   2.116   1.929   7.369  0.0157  0.2020 -0.3982
 2889Sol     HW14582   2.076   1.931   7.283 -0.7416  0.1930 -0.0473
 2889Sol     HW14583   2.058   1.981   7.424  0.5068  0.2269  0.1070
 2889Sol     MW14584   2.108   1.934   7.366 -0.4911  0.0021  0.4275
 2890Sol     OW14585   3.172   1.140   2.597 -0.1448  0.1173 -0.6936
 2890Sol     HW14586   3.256   1.129   2.642 -0.6375 -0.5293  0.0978
 2890Sol     HW14587   3.193   1.188   2.517  0.5715  2.4346  0.8461
 2890Sol     MW14588   3.181   1.143   2.594 -0.3100 -0.3056 -0.1752
 2891Sol     OW14589   0.810   3.027   2.014 -0.1942 -0.1520  0.3971
 2891Sol     HW14590   0.740   3.085   1.985  0.1057 -0.2489 -0.5199
 2891Sol     HW14591   0.767   2.944   2.032  0.0664 -1.0263 -2.7407
 2891Sol     MW14592   0.800   3.025   2.013  0.2277  0.2293  0.2077
 2892Sol     OW14593   2.074   2.995   3.407  0.1008 -0.2824 -0.3513
 2892Sol     HW14594   2.086   2.909   3.447 -0.2680 -1.2067 -2.1660
 2892Sol     HW14595   1.983   2.995   3.378 -0.9726  2.1275  2.8034
 2892Sol     MW14596   2.067   2.987   3.408 -0.1303  0.2803 -0.0442
 2893Sol     OW14597   3.193   1.576   4.367  0.5149  0.0083  0.4097
 2893Sol     HW14598   3.245   1.519   4.310  0.3742  0.2232  0.0619
 2893Sol     HW14599   3.223   1.664   4.345  0.5597  0.0802  0.7698
 2893Sol     MW14600   3.200   1.579   4.360 -0.1366  1.2531  0.2577
 2894Sol     OW14601   1.820   2.146   6.288 -0.4664 -0.3615  0.6260
 2894Sol     HW14602   1.846   2.144   6.196 -2.1277  1.3301  0.0892
 2894Sol     HW14603   1.827   2.055   6.317 -1.4820 -1.1833 -1.6156
 2894Sol     MW14604   1.823   2.137   6.283 -0.3756 -0.2709 -0.1831
 2895Sol     OW14605   2.972   0.882   9.290 -0.2899 -0.0465  0.2697
 2895Sol     HW14606   2.900   0.839   9.337  0.6805 -0.8440  1.0268
 2895Sol     HW14607   2.949   0.872   9.198 -1.2167 -0.1855  0.5102
 2895Sol     MW14608   2.963   0.877   9.286  0.2866 -0.1114 -0.1868
 2896Sol     OW14609   1.223   1.541   5.561  0.4691 -0.0747 -0.6913
 2896Sol     HW14610   1.253   1.600   5.492  0.7439  0.6812  0.0739
 2896Sol     HW14611   1.187   1.466   5.514 -0.5227  1.0127 -1.6855
 2896Sol     MW14612   1.222   1.540   5.551 -0.1912 -0.7661  0.3057
 2897Sol     OW14613   1.355   0.407   7.238 -0.0362  0.4576 -0.2789
 2897Sol     HW14614   1.346   0.429   7.146 -1.5669 -1.3164 -0.5804
 2897Sol     HW14615   1.426   0.343   7.240 -0.7557 -0.3491 -0.3759
 2897Sol     MW14616   1.360   0.403   7.230  0.2283 -0.3776  0.4173
 2898Sol     OW14617   0.337   3.298   5.345  0.4557 -0.2508 -0.1151
 2898Sol     HW14618   0.317   3.229   5.283  0.4594  0.5713 -1.0455
 2898Sol     HW14619   0.260   3.302   5.403 -0.4823  0.3974 -1.3815
 2898Sol     MW14620   0.328   3.292   5.345 -0.1913  0.1746 -0.0100
 2899Sol     OW14621   0.957   2.063   7.948  0.0648  0.0015  0.6228
 2899Sol     HW14622   0.983   1.989   8.003  3.0081 -1.9190 -3.1365
 2899Sol     HW14623   1.013   2.134   7.976  0.7351 -0.6291  0.8989
 2899Sol     MW14624   0.964   2.062   7.955 -0.2861 -0.3466 -0.3359
 2900Sol     OW14625   3.186   0.910   3.442  0.4563 -0.5410 -0.2219
 2900Sol     HW14626   3.277   0.898   3.416  0.3461 -0.7917 -0.5050
 2900Sol     HW14627   3.182   0.999   3.476  0.6642 -0.2899 -0.8419
 2900Sol     MW14628   3.193   0.917   3.442 -0.4111 -0.8126 -0.1642
 2901Sol     OW14629   0.559   3.075   3.312  0.4594  0.5365 -0.1106
 2901Sol     HW14630   0.636   3.018   3.313  0.7321  0.9118  1.6659
 2901Sol     HW14631   0.487   3.017   3.285  1.1691 -0.0758 -0.7116
 2901Sol     MW14632   0.559   3.064   3.310 -0.7547 -0.0825  0.6104
 2902Sol     OW14633   2.750   0.163   9.584 -0.1238  0.3805 -0.1861
 2902Sol     HW14634   2.785   0.250   9.567 -0.7437  0.6808  0.0817
 2902Sol     HW14635   2.774   0.112   9.507 -1.3618  1.2656 -1.1677
 2902Sol     MW14636   2.755   0.166   9.576  0.0848 -0.6416  0.4773
 2903Sol     OW14637   0.352   1.546   6.006  0.5719 -0.0736  0.1608
 2903Sol     HW14638   0.435   1.563   5.960 -0.1625  0.6965 -0.8989
 2903Sol     HW14639   0.300   1.495   5.944 -0.1581  0.3447  0.4267
 2903Sol     MW14640   0.355   1.543   5.996 -0.1691 -0.6208  0.3961
 2904Sol     OW14641   1.016   3.424   7.564  0.1510 -0.6531 -0.0462
 2904Sol     HW14642   1.042   3.379   7.484 -1.5587 -0.5545 -0.6868
 2904Sol     HW14643   1.005   3.354   7.628  1.0850 -0.7739 -0.0069
 2904Sol     MW14644   1.017   3.414   7.562 -0.2534 -0.0101  0.1334
 2905Sol     OW14645   3.078   2.360   9.856  0.5595 -0.0019  0.3250
 2905Sol     HW14646   3.078   2.264   9.856 -3.5528 -0.0863  0.6930
 2905Sol     HW14647   3.016   2.385   9.788  1.1771  2.4275  0.5807
 2905Sol     MW14648   3.073   2.354   9.850 -0.2117  0.1681  0.4218
 2906Sol     OW14649   3.162   1.374   6.728  0.3962  0.2770 -0.0228
 2906Sol     HW14650   3.076   1.338   6.705  1.0503 -1.4313  0.0750
 2906Sol     HW14651   3.218   1.347   6.656  1.4958 -1.2756  1.3782
 2906Sol     MW14652   3.159   1.368   6.719 -0.6687  0.0763  0.4274
 2907Sol     OW14653   3.322   0.151   5.589 -0.5132  0.2465  0.1646
 2907Sol     HW14654   3.262   0.088   5.629  0.9193 -1.1869  0.1392
 2907Sol     HW14655   3.400   0.148   5.644  1.3637 -1.5118 -2.4690
 2907Sol     MW14656   3.324   0.145   5.597 -0.2880  0.9723 -0.1028
 2908Sol     OW14657   2.336   3.305   9.226  0.2312 -0.1660 -0.1276
 2908Sol     HW14658   2.331   3.366   9.152  0.7897  0.7248  0.5547
 2908Sol     HW14659   2.370   3.224   9.188  1.4209  0.5832 -0.6834
 2908Sol     MW14660   2.339   3.304   9.216 -0.8516 -0.2563  0.1999
 2909Sol     OW14661   0.507   1.176   4.129 -0.0751 -0.0495 -0.0329
 2909Sol     HW14662   0.538   1.105   4.072 -1.1526 -2.0571  1.7657
 2909Sol     HW14663   0.444   1.133   4.188 -1.7116  2.6900  0.3007
 2909Sol     MW14664   0.504   1.165   4.129 -0.5460 -0.1133  0.2356
 2910Sol     OW14665   1.769   3.382   1.810  0.4222  0.2162  0.2265
 2910Sol     HW14666   1.699   3.334   1.853  0.1825  0.3581 -0.0009
 2910Sol     HW14667   1.850   3.342   1.842  0.2290 -0.1799  0.2149
 2910Sol     MW14668   1.770   3.374   1.817 -0.8827  0.1048 -0.3365
 2911Sol     OW14669   1.921   0.009   4.871 -0.3742  0.1139 -0.3632
 2911Sol     HW14670   1.858  -0.044   4.821 -0.0795 -0.1398 -0.4647
 2911Sol     HW14671   1.977  -0.055   4.915 -0.4970  0.3369  0.1281
 2911Sol     MW14672   1.920  -0.001   4.871 -0.6413 -0.5750  0.5868
 2912Sol     OW14673   1.041   2.447   5.198  0.0683 -0.1613  0.1955
 2912Sol     HW14674   1.008   2.534   5.216 -1.4474 -0.5629 -0.5465
 2912Sol     HW14675   1.029   2.399   5.280 -2.2256 -0.5991 -0.3569
 2912Sol     MW14676   1.037   2.450   5.207 -0.2695 -0.1190 -0.1234
 2913Sol     OW14677   3.151   3.031   6.797  0.2479 -0.0740 -0.2176
 2913Sol     HW14678   3.188   3.069   6.877 -0.3372  0.5636 -0.2533
 2913Sol     HW14679   3.073   3.082   6.779  1.1075  0.6700 -1.9714
 2913Sol     MW14680   3.147   3.039   6.802 -0.6011  0.0013  0.2758
 2914Sol     OW14681   0.775   3.337   1.749  0.6800 -0.3355 -0.0715
 2914Sol     HW14682   0.815   3.295   1.673  0.5215  0.8277 -0.8175
 2914Sol     HW14683   0.755   3.426   1.719  0.2010 -0.0070  1.1930
 2914Sol     MW14684   0.777   3.341   1.740  0.2217  0.7831  0.5247
 2915Sol     OW14685   0.443   0.466   2.372  0.0268  0.1049 -0.6779
 2915Sol     HW14686   0.351   0.445   2.387  0.7402 -1.2640  2.0421
 2915Sol     HW14687   0.488   0.382   2.374  1.6121  0.9414  0.2270
 2915Sol     MW14688   0.439   0.457   2.373 -0.3831 -0.3578  0.2587
 2916Sol     OW14689   0.643   2.203   3.597 -0.5316 -0.1604  1.1743
 2916Sol     HW14690   0.611   2.231   3.683  0.8375 -1.3223  2.0808
 2916Sol     HW14691   0.735   2.180   3.612 -0.1142  0.1690 -0.7290
 2916Sol     MW14692   0.648   2.204   3.606 -1.1288 -1.0294 -0.2234
 2917Sol     OW14693   0.152   2.864   9.599  0.2499  0.0542 -0.0008
 2917Sol     HW14694   0.198   2.924   9.541 -0.6877  1.8994  1.0745
 2917Sol     HW14695   0.214   2.846   9.670  1.3924 -2.1967 -1.5016
 2917Sol     MW14696   0.161   2.868   9.600 -0.2413  0.0422 -0.1698
 2918Sol     OW14697   1.521   2.004   6.291 -0.1354  0.8363 -0.7291
 2918Sol     HW14698   1.448   2.054   6.253 -0.7391 -0.8727 -1.8772
 2918Sol     HW14699   1.480   1.947   6.355  0.2358  0.1730 -1.0742
 2918Sol     MW14700   1.511   2.003   6.293  0.4345  0.1185  0.8739
 2919Sol     OW14701   2.393   0.776   5.571  0.3187 -0.0446 -0.2359
 2919Sol     HW14702   2.472   0.722   5.576  0.2303 -0.2806 -1.3188
 2919Sol     HW14703   2.322   0.714   5.559 -0.0072  0.1935  0.4005
 2919Sol     MW14704   2.394   0.766   5.571 -0.3382  0.0337 -0.3045
 2920Sol     OW14705   2.392   2.430   7.598  0.1982 -0.7156 -0.1090
 2920Sol     HW14706   2.363   2.454   7.510  0.7048  1.4007  0.2943
 2920Sol     HW14707   2.316   2.447   7.654  0.3451 -0.7058  0.0874
 2920Sol     MW14708   2.383   2.433   7.595  0.1638 -0.1925 -0.4717
 2921Sol     OW14709   0.090   1.705   4.594 -0.1999 -0.0269  0.1387
 2921Sol     HW14710   0.064   1.743   4.509  0.6788 -1.5233 -0.8293
 2921Sol     HW14711   0.100   1.612   4.575  1.7225 -0.1033  1.5036
 2921Sol     MW14712   0.088   1.700   4.584 -0.2183  0.8605 -0.0574
 2922Sol     OW14713   1.156   1.189   3.689  0.2303 -0.0753 -0.5838
 2922Sol     HW14714   1.148   1.194   3.594 -1.5234  1.3880 -0.3849
 2922Sol     HW14715   1.072   1.153   3.718  0.3354  0.5367  0.4931
 2922Sol     MW14716   1.148   1.186   3.683  0.5686 -0.1112 -0.1955
 2923Sol     OW14717   1.688   0.337   2.475  0.1762 -0.6384  0.2352
 2923Sol     HW14718   1.771   0.296   2.450 -1.3334 -3.0163 -1.1196
 2923Sol     HW14719   1.653   0.279   2.544 -0.3822  0.3141  0.7566
 2923Sol     MW14720   1.692   0.328   2.479  0.3475  0.5773  0.5523
 2924Sol     OW14721   2.842   3.062   5.259  0.3389  0.7037 -0.0557
 2924Sol     HW14722   2.857   3.042   5.167  0.3115  0.5044 -0.0153
 2924Sol     HW14723   2.924   3.100   5.289  0.2888  0.9406 -0.2090
 2924Sol     MW14724   2.851   3.064   5.253 -0.8180 -0.6007  0.2682
 2925Sol     OW14725   1.654   0.451   1.887  0.2170  0.2305  0.0337
 2925Sol     HW14726   1.693   0.440   1.800  0.3244  1.1369 -0.0335
 2925Sol     HW14727   1.619   0.540   1.887  0.3811  0.2998  0.9925
 2925Sol     MW14728   1.654   0.458   1.879  0.0193  0.1635  0.3059
 2926Sol     OW14729   2.976   2.739   2.836  0.3095  0.7876 -0.4652
 2926Sol     HW14730   3.060   2.728   2.792  1.1521  0.4118  1.1984
 2926Sol     HW14731   2.984   2.822   2.884 -0.3002  0.7822 -0.3428
 2926Sol     MW14732   2.984   2.746   2.836  0.8337  0.0467 -0.6758
 2927Sol     OW14733   0.983   1.370   6.722 -0.0620  0.1355 -0.8283
 2927Sol     HW14734   0.983   1.362   6.817  1.7166  0.5602 -0.7849
 2927Sol     HW14735   1.074   1.356   6.696 -0.5437 -0.1149 -2.4851
 2927Sol     MW14736   0.991   1.368   6.728  0.5690 -0.2491  0.5562
 2928Sol     OW14737   0.668   2.993   4.878 -0.4533 -0.2967  0.5528
 2928Sol     HW14738   0.720   3.036   4.810 -1.4944 -0.4105 -0.3211
 2928Sol     HW14739   0.589   3.046   4.885 -0.3754 -0.3162  1.6463
 2928Sol     MW14740   0.666   3.001   4.873  0.2516  0.5968 -0.6283
 2929Sol     OW14741   1.038   1.644   4.939 -0.4060  0.2090  0.5725
 2929Sol     HW14742   1.029   1.557   4.978 -0.3918 -0.3725 -0.6994
 2929Sol     HW14743   1.128   1.647   4.907 -1.1425 -0.2788 -1.6409
 2929Sol     MW14744   1.045   1.637   4.940  0.3949  0.3008  0.2990
 2930Sol     OW14745   1.867   0.218   8.034 -0.1544 -0.3387 -0.0733
 2930Sol     HW14746   1.932   0.284   8.010  0.4499 -0.8286  0.2127
 2930Sol     HW14747   1.856   0.165   7.954 -0.6172  0.0799 -0.2940
 2930Sol     MW14748   1.872   0.219   8.024  0.3024 -0.2030 -0.4762
 2931Sol     OW14749   2.650   0.119   6.613  0.1406  0.5620  0.3791
 2931Sol     HW14750   2.638   0.195   6.557  1.0139  0.1112 -0.4377
 2931Sol     HW14751   2.565   0.105   6.654 -0.3711  1.1910 -0.4614
 2931Sol     MW14752   2.641   0.125   6.612 -0.7710  0.3275  0.1203
 2932Sol     OW14753   2.738   2.763   1.734  0.1261 -0.0433  0.2696
 2932Sol     HW14754   2.779   2.849   1.730  0.8582 -0.2514  2.3672
 2932Sol     HW14755   2.774   2.724   1.814 -0.7258 -2.0161 -0.2924
 2932Sol     MW14756   2.745   2.767   1.741  0.7939  0.2595  0.4106
 2933Sol     OW14757   3.288   2.817   5.661 -0.5564 -0.2242  0.2693
 2933Sol     HW14758   3.313   2.729   5.633  0.5213  0.2482 -0.2703
 2933Sol     HW14759   3.199   2.829   5.628 -0.0063 -0.4005 -1.2994
 2933Sol     MW14760   3.282   2.810   5.656 -0.3833  0.2736  0.1659
 2934Sol     OW14761   1.249   0.440   4.604 -0.4902  0.6647 -0.6510
 2934Sol     HW14762   1.249   0.506   4.535  0.4044 -1.7812 -3.0442
 2934Sol     HW14763   1.321   0.381   4.581 -2.3945 -2.1525  0.4510
 2934Sol     MW14764   1.256   0.441   4.596 -0.6032  0.0400 -0.2806
 2935Sol     OW14765   2.016   0.268   9.376 -0.2876  0.0703  0.5890
 2935Sol     HW14766   2.070   0.213   9.433 -0.2679  0.7843  1.2718
 2935Sol     HW14767   2.054   0.356   9.386 -2.6010  0.9167  2.3830
 2935Sol     MW14768   2.025   0.271   9.382  0.1286  0.1442 -0.2269
 2936Sol     OW14769   1.261   2.546   4.729 -0.0621 -0.0143  0.1619
 2936Sol     HW14770   1.233   2.609   4.796  0.3508 -0.9323  1.2206
 2936Sol     HW14771   1.183   2.495   4.709 -0.4030  0.8395 -0.7139
 2936Sol     MW14772   1.252   2.547   4.733 -0.3657 -0.0222 -0.6766
 2937Sol     OW14773   0.442   3.413   6.076  0.1107  0.3423 -0.7258
 2937Sol     HW14774   0.447   3.487   6.136 -0.6451 -0.2750  0.1258
 2937Sol     HW14775   0.493   3.344   6.118 -1.2204 -0.4126 -0.2814
 2937Sol     MW14776   0.447   3.413   6.085 -0.6888 -0.3093 -0.4868
 2938Sol     OW14777   0.196   2.461   7.669  0.1061 -0.4526 -0.4255
 2938Sol     HW14778   0.119   2.451   7.613 -0.4938 -0.4436  0.3935
 2938Sol     HW14779   0.191   2.389   7.731  0.6138 -0.2931 -0.1959
 2938Sol     MW14780   0.189   2.454   7.669  0.7000 -0.4639  0.2160
 2939Sol     OW14781   1.287   0.072   2.289 -0.0658  0.1694 -0.1330
 2939Sol     HW14782   1.283   0.015   2.213 -0.8600 -0.4799  0.3935
 2939Sol     HW14783   1.364   0.041   2.338  0.6011  0.7575 -0.7926
 2939Sol     MW14784   1.294   0.065   2.287  0.0199  0.5029  0.4569
 2940Sol     OW14785   1.543   2.169   9.595 -0.0191 -0.1432 -0.2836
 2940Sol     HW14786   1.548   2.135   9.684 -1.3289 -0.1837 -0.2129
 2940Sol     HW14787   1.532   2.092   9.540  1.3160 -0.1581 -0.5277
 2940Sol     MW14788   1.542   2.159   9.598  0.4579 -0.2801 -0.9633
 2941Sol     OW14789   2.173   1.763   6.851 -0.6709 -0.7460 -0.1809
 2941Sol     HW14790   2.144   1.852   6.830 -2.2065 -1.5890 -1.8527
 2941Sol     HW14791   2.114   1.735   6.922 -1.2699 -0.9970 -0.7710
 2941Sol     MW14792   2.165   1.768   6.855 -0.1594  0.2648  0.0168
 2942Sol     OW14793   0.031   1.631   5.358 -0.0894  0.6657  0.4733
 2942Sol     HW14794   0.018   1.546   5.400  0.3808  1.0224  1.3533
 2942Sol     HW14795  -0.004   1.620   5.269 -2.0784  0.2395  1.2915
 2942Sol     MW14796   0.027   1.622   5.353 -0.6292 -0.7917 -0.1072
 2943Sol     OW14797   2.769   1.425   4.537  0.3498 -0.5460  0.0140
 2943Sol     HW14798   2.782   1.374   4.457 -0.6131 -1.8394  0.6609
 2943Sol     HW14799   2.810   1.510   4.519  1.4350 -1.3309 -1.3118
 2943Sol     MW14800   2.774   1.428   4.528  0.0248 -0.5662  0.5192
 2944Sol     OW14801   1.902   2.029   5.372 -0.1226  0.2421  0.0050
 2944Sol     HW14802   1.928   1.942   5.401  0.5356  0.2865 -0.4437
 2944Sol     HW14803   1.806   2.027   5.373 -0.1501 -1.0986 -1.7912
 2944Sol     MW14804   1.896   2.021   5.374 -0.6479 -0.2041  0.0285
 2945Sol     OW14805   0.527   0.626   5.849 -0.0173  0.4838 -0.4907
 2945Sol     HW14806   0.500   0.714   5.825  2.2212  1.3956  0.2692
 2945Sol     HW14807   0.596   0.603   5.787  1.4800  0.4568  1.1490
 2945Sol     MW14808   0.531   0.632   5.842  0.1211 -1.0915  0.2904
 2946Sol     OW14809   3.131   1.584   6.149  0.0950 -0.0716 -0.0856
 2946Sol     HW14810   3.059   1.595   6.087  0.7551 -0.5642 -0.9523
 2946Sol     HW14811   3.096   1.615   6.232 -1.4872 -1.3045 -0.2699
 2946Sol     MW14812   3.121   1.588   6.151 -0.0508  0.5203  0.1248
 2947Sol     OW14813   2.448   3.128   8.596  0.0164 -0.3260  0.8686
 2947Sol     HW14814   2.495   3.132   8.513 -0.6026 -0.4703  0.5018
 2947Sol     HW14815   2.362   3.091   8.573 -1.4417  2.8327  0.9591
 2947Sol     MW14816   2.444   3.125   8.586  0.4912  0.1626 -0.1961
 2948Sol     OW14817   2.935   1.962   7.659  0.0275  0.2918  0.5652
 2948Sol     HW14818   2.960   1.874   7.632  0.4359  0.3486  0.7522
 2948Sol     HW14819   2.858   1.983   7.607  0.1465 -0.0356  0.2613
 2948Sol     MW14820   2.930   1.956   7.652 -0.1057  0.2110 -0.3741
 2949Sol     OW14821   2.164   3.178   8.887 -0.4321  0.0170  0.0594
 2949Sol     HW14822   2.098   3.113   8.911 -0.7573  0.3647  0.1136
 2949Sol     HW14823   2.124   3.262   8.909 -0.4342  0.3011 -0.9606
 2949Sol     MW14824   2.154   3.179   8.891 -0.6589 -0.3917  0.1183
 2950Sol     OW14825   3.043   3.428   6.899 -0.1723  0.7098 -0.3149
 2950Sol     HW14826   2.996   3.371   6.959  0.2838  0.2382 -0.4075
 2950Sol     HW14827   2.975   3.485   6.861 -0.8291 -0.6622 -1.2346
 2950Sol     MW14828   3.033   3.428   6.901  0.1849 -0.0502 -0.2294
 2951Sol     OW14829   2.203   3.420   4.607 -0.4624  0.6139  0.2941
 2951Sol     HW14830   2.244   3.341   4.642 -0.1097  0.8596  0.4431
 2951Sol     HW14831   2.139   3.388   4.544 -1.2565  0.1566  1.3175
 2951Sol     MW14832   2.201   3.410   4.605  0.6465 -0.0260 -0.5289
 2952Sol     OW14833   1.836   2.431   5.272 -0.0328  0.1538  0.6229
 2952Sol     HW14834   1.762   2.481   5.306  0.8977  0.6833  1.9199
 2952Sol     HW14835   1.913   2.481   5.299  0.8145 -0.6966 -0.2046
 2952Sol     MW14836   1.836   2.440   5.277 -0.1434 -0.5596  0.0868
 2953Sol     OW14837   1.259   1.161   8.310 -0.1658  0.6520  0.3226
 2953Sol     HW14838   1.214   1.078   8.327  0.7963 -0.8784 -3.8339
 2953Sol     HW14839   1.189   1.224   8.293 -0.8684 -0.5206 -1.2417
 2953Sol     MW14840   1.249   1.159   8.310 -0.7660 -0.5332  0.1973
 2954Sol     OW14841   2.355   1.375   5.050 -0.1135  0.1184 -0.0678
 2954Sol     HW14842   2.284   1.357   5.112  0.6482  1.5542  1.2498
 2954Sol     HW14843   2.390   1.289   5.027 -2.4416 -0.6335 -0.9292
 2954Sol     MW14844   2.351   1.366   5.053  0.4980 -0.4516  0.8323
 2955Sol     OW14845   3.032   1.960   2.135 -0.3387  0.0200  0.0526
 2955Sol     HW14846   2.956   1.902   2.126  1.9634 -3.3158  0.8939
 2955Sol     HW14847   3.018   2.007   2.217 -1.2011 -1.0455  0.5235
 2955Sol     MW14848   3.024   1.959   2.141 -0.0657 -0.5745  0.1784
 2956Sol     OW14849   2.559   0.680   6.481  0.3099  0.3452  0.5050
 2956Sol     HW14850   2.557   0.586   6.502  1.6358  1.0736  4.1769
 2956Sol     HW14851   2.652   0.701   6.475  0.0287  1.6679  0.8026
 2956Sol     MW14852   2.567   0.673   6.482 -0.1686  0.1684  0.0852
 2957Sol     OW14853   0.318   0.865   6.971 -0.1327 -0.3954  0.3028
 2957Sol     HW14854   0.262   0.797   6.935 -0.6665  1.0401 -1.6298
 2957Sol     HW14855   0.406   0.826   6.974 -0.6319 -1.5239  0.2716
 2957Sol     MW14856   0.321   0.855   6.968 -0.7482  0.1817 -0.2608
 2958Sol     OW14857   2.746   2.604   4.721  0.3999  0.0746 -0.1456
 2958Sol     HW14858   2.742   2.509   4.735  1.2459 -0.1063 -1.0630
 2958Sol     HW14859   2.829   2.618   4.676 -0.8671  0.9299 -2.3357
 2958Sol     MW14860   2.753   2.597   4.718  0.4485 -0.2879  0.0529
 2959Sol     OW14861   0.531   2.367   9.143  0.2841  0.2869  0.3111
 2959Sol     HW14862   0.504   2.458   9.130 -1.3321 -0.0692  1.0305
 2959Sol     HW14863   0.502   2.322   9.064  0.7782  0.3271  0.1064
 2959Sol     MW14864   0.526   2.371   9.135 -0.2568 -0.3856  0.3398
 2960Sol     OW14865   0.830   0.747   9.571  0.0331 -0.1134 -0.0972
 2960Sol     HW14866   0.879   0.665   9.581  1.1924  0.7342  1.3958
 2960Sol     HW14867   0.804   0.770   9.660 -0.5371  1.0004 -0.5447
 2960Sol     MW14868   0.832   0.742   9.580 -0.3046 -0.6428  0.4033
 2961Sol     OW14869   0.230   1.019   9.368 -0.5985 -0.3155 -0.4343
 2961Sol     HW14870   0.187   0.984   9.290  0.4437  0.2490 -1.2760
 2961Sol     HW14871   0.294   1.082   9.334 -1.6674  1.5920  0.9832
 2961Sol     MW14872   0.232   1.022   9.358  0.0987  0.0790 -0.4027
 2962Sol     OW14873   3.066   2.191   4.375 -0.2512 -0.2267 -0.2939
 2962Sol     HW14874   3.006   2.120   4.352  0.0314 -0.2637 -0.9157
 2962Sol     HW14875   3.104   2.218   4.292  1.1677 -0.7212  0.1747
 2962Sol     MW14876   3.064   2.187   4.366 -0.6872 -0.0552  0.7173
 2963Sol     OW14877   0.174   2.314   3.486 -0.0710 -0.0237 -0.6478
 2963Sol     HW14878   0.234   2.366   3.540 -0.0388  0.5192 -1.2081
 2963Sol     HW14879   0.174   2.228   3.528  1.7853 -0.2903 -1.1490
 2963Sol     MW14880   0.179   2.311   3.495 -0.2215 -0.2364  0.3233
 2964Sol     OW14881   1.704   0.160   9.528 -0.3601  0.0633  0.0602
 2964Sol     HW14882   1.629   0.104   9.510 -1.3502  1.0553  0.9818
 2964Sol     HW14883   1.763   0.147   9.454 -1.5133 -0.6207 -0.7416
 2964Sol     MW14884   1.703   0.154   9.520 -0.0187  0.4732  0.1987
 2965Sol     OW14885   0.924   0.936   2.639 -0.3667 -0.0688  0.2850
 2965Sol     HW14886   0.872   0.887   2.576  1.0502 -0.7965 -0.3401
 2965Sol     HW14887   1.013   0.900   2.631  0.7325  2.5935 -0.2057
 2965Sol     MW14888   0.928   0.929   2.633  0.6557  0.0116 -0.0302
 2966Sol     OW14889   1.219   2.826   1.594  0.0752  0.7408 -0.4655
 2966Sol     HW14890   1.124   2.817   1.602  0.0387  1.2837 -0.2409
 2966Sol     HW14891   1.237   2.913   1.629  0.7255  0.4066  0.0373
 2966Sol     MW14892   1.212   2.833   1.598  0.3073 -0.4329 -0.1363
 2967Sol     OW14893   0.374   2.484   9.805  0.1316  0.1478  0.1297
 2967Sol     HW14894   0.415   2.560   9.763 -0.3834  0.6528  0.5274
 2967Sol     HW14895   0.287   2.515   9.830  0.1692 -0.3753  0.9031
 2967Sol     MW14896   0.370   2.494   9.803 -0.0408  0.9244  0.1145
 2968Sol     OW14897   0.818   0.621   5.030 -0.0055 -0.5197  0.1039
 2968Sol     HW14898   0.834   0.532   4.999 -2.2168 -0.8118 -0.2679
 2968Sol     HW14899   0.762   0.660   4.963 -0.1420  0.7258  0.9233
 2968Sol     MW14900   0.815   0.617   5.021 -0.3773  0.0962  0.0069
 2969Sol     OW14901   3.128   2.730   4.236 -0.5403 -0.1557 -0.6162
 2969Sol     HW14902   3.036   2.727   4.262  0.2530  1.7858  2.6760
 2969Sol     HW14903   3.141   2.818   4.202 -0.0518 -0.6483 -1.7132
 2969Sol     MW14904   3.121   2.737   4.236  0.4233 -0.2077  0.5969
 2970Sol     OW14905   2.177   0.500   9.799 -0.4473  0.2871 -0.1940
 2970Sol     HW14906   2.191   0.424   9.856 -2.0782  0.2945  0.2455
 2970Sol     HW14907   2.102   0.545   9.838 -0.6456  1.1063 -1.5056
 2970Sol     MW14908   2.172   0.497   9.807  0.2403 -0.7315 -0.3654
 2971Sol     OW14909   1.515   2.491   8.166  0.3434 -0.1782  0.0671
 2971Sol     HW14910   1.542   2.403   8.194 -1.3691 -0.7752 -0.1045
 2971Sol     HW14911   1.505   2.484   8.071  1.4225  0.5533 -0.1089
 2971Sol     MW14912   1.516   2.482   8.160  0.3237  0.2663 -0.5716
 2972Sol     OW14913   2.762   1.863   3.689  0.6217 -0.7388  0.3349
 2972Sol     HW14914   2.749   1.869   3.595  0.5444  0.7725  0.4242
 2972Sol     HW14915   2.823   1.933   3.710  0.3853 -0.8459  1.4547
 2972Sol     MW14916   2.766   1.870   3.683 -0.0201  0.1097  0.6068
 2973Sol     OW14917   2.223   1.640   7.330  1.6218 -0.6460  0.0615
 2973Sol     HW14918   2.186   1.564   7.374  1.8086 -0.2892  0.8493
 2973Sol     HW14919   2.149   1.698   7.313  1.5874 -0.6684  0.1399
 2973Sol     MW14920   2.213   1.639   7.332  0.2862  0.3736  0.3658
 2974Sol     OW14921   0.088   1.091   5.633 -0.1066 -0.0741 -0.0037
 2974Sol     HW14922   0.155   1.027   5.608  0.9268  1.0008 -0.0399
 2974Sol     HW14923   0.014   1.038   5.664  1.2841 -1.2581  1.3780
 2974Sol     MW14924   0.087   1.081   5.633 -0.4298  0.3076  0.2324
 2975Sol     OW14925   3.134   1.815   3.673  0.6547 -0.0236  0.7793
 2975Sol     HW14926   3.079   1.771   3.737  0.2868  0.1580  0.5921
 2975Sol     HW14927   3.079   1.821   3.595  0.6128  0.9774  0.8778
 2975Sol     MW14928   3.124   1.812   3.672 -0.0627 -0.3199 -0.1209
 2976Sol     OW14929   1.574   0.346   2.217 -0.0261  0.0738  0.1492
 2976Sol     HW14930   1.614   0.358   2.304 -1.1855  0.5890  0.6284
 2976Sol     HW14931   1.480   0.344   2.235 -0.2720  0.2790 -1.1124
 2976Sol     MW14932   1.569   0.347   2.227 -0.3695  0.1347 -0.4646
 2977Sol     OW14933   0.968   1.975   9.374 -0.1344  0.5084  0.2568
 2977Sol     HW14934   0.978   2.047   9.312 -0.1545  1.3514  1.2287
 2977Sol     HW14935   0.974   2.016   9.461  0.8502 -0.7868  0.8166
 2977Sol     MW14936   0.969   1.985   9.377 -0.2667 -0.1367 -0.5215
 2978Sol     OW14937   1.382   3.420   7.518  0.0601 -0.5200  0.1607
 2978Sol     HW14938   1.475   3.398   7.511 -0.1488 -1.0781 -1.0025
 2978Sol     HW14939   1.370   3.492   7.456 -0.0488  0.3496  1.1728
 2978Sol     MW14940   1.389   3.425   7.512  0.6812  0.8928 -1.0628
 2979Sol     OW14941   2.552   1.186   3.652  0.3647  0.0207 -0.2608
 2979Sol     HW14942   2.520   1.198   3.741 -0.7364 -1.0739 -0.4947
 2979Sol     HW14943   2.550   1.274   3.614 -1.7046  0.0812 -0.0397
 2979Sol     MW14944   2.549   1.195   3.657  0.4674 -0.3418 -0.1725
 2980Sol     OW14945   3.146   1.277   7.171 -0.0566 -0.4815 -0.4277
 2980Sol     HW14946   3.195   1.313   7.097 -0.8787  0.1045 -0.6928
 2980Sol     HW14947   3.116   1.191   7.141 -0.9414  0.0280 -1.0144
 2980Sol     MW14948   3.148   1.272   7.162  0.7583 -0.1897 -0.0519
 2981Sol     OW14949   0.734   0.047   6.319  0.4160 -0.3142  0.0319
 2981Sol     HW14950   0.689  -0.035   6.339 -0.9472  0.0444 -1.5439
 2981Sol     HW14951   0.756   0.040   6.226 -0.3933  1.4435 -0.2943
 2981Sol     MW14952   0.732   0.039   6.313  0.1968  0.2373  0.1090
 2982Sol     OW14953   0.524   3.057   9.118 -0.0306 -0.0299  0.1824
 2982Sol     HW14954   0.575   3.128   9.078  0.1152  0.0653  0.5387
 2982Sol     HW14955   0.562   3.045   9.205  0.4793 -1.1061 -0.1862
 2982Sol     MW14956   0.532   3.062   9.122  0.4039  0.1559 -0.7069
 2983Sol     OW14957   0.770   1.460   5.617  0.3328 -0.2292 -0.1589
 2983Sol     HW14958   0.763   1.433   5.525  1.3948 -0.1624 -0.2619
 2983Sol     HW14959   0.785   1.555   5.613  1.5784 -0.4104  0.0363
 2983Sol     MW14960   0.771   1.466   5.608  0.0454 -0.5970 -0.3354
 2984Sol     OW14961   1.647   2.895   3.461 -0.1285  0.0249  0.1125
 2984Sol     HW14962   1.732   2.854   3.443  0.3478  1.1005 -0.1525
 2984Sol     HW14963   1.655   2.926   3.551  0.0350  0.7810 -0.1596
 2984Sol     MW14964   1.656   2.894   3.467  0.3776 -0.2475  0.6077
 2985Sol     OW14965   0.762   1.687   3.075  0.1458 -0.2950 -0.2525
 2985Sol     HW14966   0.796   1.609   3.030 -0.2917 -1.2315  0.9952
 2985Sol     HW14967   0.770   1.665   3.168 -0.4203  0.9757  0.0995
 2985Sol     MW14968   0.766   1.678   3.079 -0.7232  0.0422 -0.7032
 2986Sol     OW14969   1.566   0.565   2.568  0.2584  0.0049 -0.0376
 2986Sol     HW14970   1.475   0.545   2.547 -0.0972  0.0292  1.4228
 2986Sol     HW14971   1.615   0.488   2.537 -0.3599 -0.3985 -0.0242
 2986Sol     MW14972   1.562   0.556   2.563  0.1953 -0.4504  1.0761
 2987Sol     OW14973   2.146   1.513   3.668 -0.2383  0.0818  0.1008
 2987Sol     HW14974   2.228   1.555   3.644 -0.2933  0.3383  0.3550
 2987Sol     HW14975   2.171   1.448   3.735 -0.3507  0.7402  0.7948
 2987Sol     MW14976   2.156   1.511   3.672 -0.7296  0.9300  0.1029
 2988Sol     OW14977   0.915   1.142   4.857 -0.0401 -0.0160  0.5421
 2988Sol     HW14978   1.005   1.131   4.825 -0.0944  1.6319 -0.2488
 2988Sol     HW14979   0.871   1.191   4.787 -1.7115 -1.2947  0.6879
 2988Sol     MW14980   0.919   1.146   4.848  0.0317 -0.0615 -0.0806
 2989Sol     OW14981   0.928   0.600   2.227 -0.1039 -0.3084  0.1331
 2989Sol     HW14982   0.906   0.686   2.264 -1.0775 -0.5600  0.1638
 2989Sol     HW14983   0.947   0.618   2.135  0.6334  0.0742  0.3573
 2989Sol     MW14984   0.928   0.609   2.222  0.1721  0.0315  0.7048
 2990Sol     OW14985   1.032   2.440   5.883 -0.3137 -0.0169 -0.4557
 2990Sol     HW14986   0.967   2.508   5.861  0.8490  0.7433 -1.6199
 2990Sol     HW14987   1.012   2.368   5.824 -0.8421 -0.2600  0.0118
 2990Sol     MW14988   1.024   2.440   5.876 -0.1414 -0.3093  0.8688
 2991Sol     OW14989   1.174   2.410   3.707  0.8624 -0.3498  0.0862
 2991Sol     HW14990   1.198   2.502   3.697 -0.0221  0.0757  1.7113
 2991Sol     HW14991   1.245   2.372   3.758  1.9828 -0.9334 -1.8820
 2991Sol     MW14992   1.182   2.415   3.711 -0.4468  0.2757 -0.3246
 2992Sol     OW14993   2.008   0.222   3.288  0.1612  0.0529 -0.5939
 2992Sol     HW14994   1.937   0.286   3.277  0.8133  0.9709  0.4224
 2992Sol     HW14995   2.042   0.208   3.200  1.1919  2.5080 -0.6330
 2992Sol     MW14996   2.005   0.227   3.279 -0.4801 -0.2117  0.5130
 2993Sol     OW14997   3.002   2.973   1.987 -0.4395 -0.4617 -0.7039
 2993Sol     HW14998   3.032   3.042   2.046 -0.9758  1.2231 -2.3269
 2993Sol     HW14999   3.079   2.916   1.975  0.2207  0.2496  0.1014
 2993Sol     MW15000   3.012   2.974   1.991 -0.0220  0.4100 -0.6335
 2994Sol     OW15001   1.824   0.114   8.288  0.1972  0.1114  0.2299
 2994Sol     HW15002   1.837   0.166   8.209 -0.5221 -1.5804 -1.0203
 2994Sol     HW15003   1.901   0.132   8.342 -0.3592  2.9603  0.1151
 2994Sol     MW15004   1.832   0.120   8.286  0.2018 -0.2296  0.2249
 2995Sol     OW15005   0.152   0.048   4.864 -0.0069  0.3256  0.1385
 2995Sol     HW15006   0.103   0.130   4.872  1.1430  1.0760 -0.3757
 2995Sol     HW15007   0.131  -0.000   4.944 -2.5092  0.1169 -0.6166
 2995Sol     MW15008   0.146   0.051   4.872 -0.3929  0.3463 -0.4553
 2996Sol     OW15009   2.190   2.686   3.152  0.3369  0.1258 -0.7601
 2996Sol     HW15010   2.136   2.753   3.110  0.7446  1.4556  0.7942
 2996Sol     HW15011   2.270   2.683   3.101 -0.2870 -0.2736 -1.7372
 2996Sol     MW15012   2.192   2.691   3.144 -0.4567  0.0221 -0.0434
 2997Sol     OW15013   1.597   1.973   4.363 -0.0789  0.3308 -0.4000
 2997Sol     HW15014   1.564   1.897   4.412 -0.0380  0.8100  0.3875
 2997Sol     HW15015   1.592   1.947   4.271 -0.5786 -0.4219 -0.1634
 2997Sol     MW15016   1.594   1.964   4.359  0.1770  0.1290  0.7389
 2998Sol     OW15017   2.516   1.561   5.819 -0.6945 -0.5204 -0.2151
 2998Sol     HW15018   2.456   1.613   5.766  2.1731  0.5775 -2.4950
 2998Sol     HW15019   2.528   1.480   5.769 -0.0199 -0.5775  0.0337
 2998Sol     MW15020   2.512   1.558   5.810  0.7231  0.1789 -0.4058
 2999Sol     OW15021   2.515   2.444   5.561  0.5115 -0.0769 -0.0612
 2999Sol     HW15022   2.557   2.488   5.635 -0.5516 -0.1948  0.6321
 2999Sol     HW15023   2.468   2.514   5.515  1.6596  0.1006 -0.9843
 2999Sol     MW15024   2.514   2.455   5.564 -0.7093  0.0960 -0.6096
 3000Sol     OW15025   1.361   0.583   3.749 -0.3709 -0.0636  0.1636
 3000Sol     HW15026   1.357   0.494   3.714 -2.7071 -0.8915  2.3324
 3000Sol     HW15027   1.307   0.635   3.689  0.4101 -0.2628 -0.7093
 3000Sol     MW15028   1.355   0.579   3.741 -0.5461 -0.1250 -0.9610
 3001Sol     OW15029   2.254   1.173   5.997  0.3118  0.0074  0.5792
 3001Sol     HW15030   2.185   1.136   6.052  0.5722 -0.2407  0.7410
 3001Sol     HW15031   2.317   1.101   5.986 -1.2561 -0.9830 -2.6495
 3001Sol     MW15032   2.253   1.163   6.001 -0.0229  0.5229  0.3295
   3.32380   3.45040  11.32130
